 Entering Gaussian System, Link 0=g16
 Initial command:
 /apps/easybuild-2022/easybuild/software/Compiler/NVHPC/22.11-CUDA-11.7.0/Gaussian/g16c01-CUDA-11.7.0/g16/l1.exe "/tmp/Gau-63034.inp" -scrdir="/tmp/"
 Entering Link 1 = /apps/easybuild-2022/easybuild/software/Compiler/NVHPC/22.11-CUDA-11.7.0/Gaussian/g16c01-CUDA-11.7.0/g16/l1.exe PID=     63036.
  
 Copyright (c) 1988-2019, Gaussian, Inc.  All Rights Reserved.
  
 This is part of the Gaussian(R) 16 program.  It is based on
 the Gaussian(R) 09 system (copyright 2009, Gaussian, Inc.),
 the Gaussian(R) 03 system (copyright 2003, Gaussian, Inc.),
 the Gaussian(R) 98 system (copyright 1998, Gaussian, Inc.),
 the Gaussian(R) 94 system (copyright 1995, Gaussian, Inc.),
 the Gaussian 92(TM) system (copyright 1992, Gaussian, Inc.),
 the Gaussian 90(TM) system (copyright 1990, Gaussian, Inc.),
 the Gaussian 88(TM) system (copyright 1988, Gaussian, Inc.),
 the Gaussian 86(TM) system (copyright 1986, Carnegie Mellon
 University), and the Gaussian 82(TM) system (copyright 1983,
 Carnegie Mellon University). Gaussian is a federally registered
 trademark of Gaussian, Inc.
  
 This software contains proprietary and confidential information,
 including trade secrets, belonging to Gaussian, Inc.
  
 This software is provided under written license and may be
 used, copied, transmitted, or stored only in accord with that
 written license.
  
 The following legend is applicable only to US Government
 contracts under FAR:
  
                    RESTRICTED RIGHTS LEGEND
  
 Use, reproduction and disclosure by the US Government is
 subject to restrictions as set forth in subparagraphs (a)
 and (c) of the Commercial Computer Software - Restricted
 Rights clause in FAR 52.227-19.
  
 Gaussian, Inc.
 340 Quinnipiac St., Bldg. 40, Wallingford CT 06492
  
  
 ---------------------------------------------------------------
 Warning -- This program may not be used in any manner that
 competes with the business of Gaussian, Inc. or will provide
 assistance to any competitor of Gaussian, Inc.  The licensee
 of this program is prohibited from giving any competitor of
 Gaussian, Inc. access to this program.  By using this program,
 the user acknowledges that Gaussian, Inc. is engaged in the
 business of creating and licensing software in the field of
 computational chemistry and represents and warrants to the
 licensee that it is not a competitor of Gaussian, Inc. and that
 it will not use this program in any manner prohibited above.
 ---------------------------------------------------------------
  

 Cite this work as:
 Gaussian 16, Revision C.01,
 M. J. Frisch, G. W. Trucks, H. B. Schlegel, G. E. Scuseria, 
 M. A. Robb, J. R. Cheeseman, G. Scalmani, V. Barone, 
 G. A. Petersson, H. Nakatsuji, X. Li, M. Caricato, A. V. Marenich, 
 J. Bloino, B. G. Janesko, R. Gomperts, B. Mennucci, H. P. Hratchian, 
 J. V. Ortiz, A. F. Izmaylov, J. L. Sonnenberg, D. Williams-Young, 
 F. Ding, F. Lipparini, F. Egidi, J. Goings, B. Peng, A. Petrone, 
 T. Henderson, D. Ranasinghe, V. G. Zakrzewski, J. Gao, N. Rega, 
 G. Zheng, W. Liang, M. Hada, M. Ehara, K. Toyota, R. Fukuda, 
 J. Hasegawa, M. Ishida, T. Nakajima, Y. Honda, O. Kitao, H. Nakai, 
 T. Vreven, K. Throssell, J. A. Montgomery, Jr., J. E. Peralta, 
 F. Ogliaro, M. J. Bearpark, J. J. Heyd, E. N. Brothers, K. N. Kudin, 
 V. N. Staroverov, T. A. Keith, R. Kobayashi, J. Normand, 
 K. Raghavachari, A. P. Rendell, J. C. Burant, S. S. Iyengar, 
 J. Tomasi, M. Cossi, J. M. Millam, M. Klene, C. Adamo, R. Cammi, 
 J. W. Ochterski, R. L. Martin, K. Morokuma, O. Farkas, 
 J. B. Foresman, and D. J. Fox, Gaussian, Inc., Wallingford CT, 2019.
 
 ******************************************
 Gaussian 16:  ES64L-G16RevC.01  3-Jul-2019
                23-May-2025 
 ******************************************
 %mem=28GB
 %nprocshared=8
 Will use up to    8 processors via shared memory.
 ----------------------------------------------------------------------
 #P wb97xd/6-311++G(d,p) Symm(None) scf(xqc) pop(None) opt(NoFreeze,TS,
 CalcAll,NoEigentest,MaxCycle=999)
 ----------------------------------------------------------------------
 1/5=1,6=999,10=4,11=1,18=20,26=3,29=2000,38=1/1,3;
 2/9=110,12=2,15=3,17=6,18=5,40=1/2;
 3/5=4,6=6,7=1111,11=2,25=1,30=1,71=2,74=-58,140=1/1,2,3;
 4//1;
 5/5=2,8=3,13=1,38=5/2,8;
 8/6=4,10=90,11=11/1;
 11/6=1,8=1,9=11,15=111,16=1,31=1/1,2,10;
 10/6=1,31=1/2;
 7/10=1,25=1,30=1/1,2,3,16;
 1/5=1,6=999,10=4,11=1,18=20,26=3/3(3);
 2/9=110,15=3/2;
 7/8=1,9=1,25=1,30=1,44=-1/16;
 99//99;
 2/9=110,15=3/2;
 3/5=4,6=6,7=1111,11=2,25=1,30=1,71=2,74=-58,140=1/1,2,3;
 4/5=5,16=3,69=1/1;
 5/5=2,8=3,13=1,38=5/2,8;
 8/6=4,10=90,11=11/1;
 11/6=1,8=1,9=11,15=111,16=1,31=1/1,2,10;
 10/6=1,31=1/2;
 7/10=1,25=1,30=1/1,2,3,16;
 1/5=1,6=999,10=4,11=1,18=20,26=3/3(-8);
 2/9=110,15=3/2;
 7/8=1,9=1,25=1,30=1,44=-1/16;
 99//99;
 Leave Link    1 at Fri May 23 07:32:03 2025, MaxMem=  3758096384 cpu:               0.1 elap:               0.0
 (Enter /apps/easybuild-2022/easybuild/software/Compiler/NVHPC/22.11-CUDA-11.7.0/Gaussian/g16c01-CUDA-11.7.0/g16/l101.exe)
 ------------------------------
 Gaussian input prepared by ASE
 ------------------------------
 Symbolic Z-matrix:
 Charge =  0 Multiplicity = 1
 C                    -0.59056  -1.34205  -0.48372 
 C                     0.        0.        0. 
 F                    -0.5039    1.02172  -0.67158 
 F                    -0.37978   0.24359   1.26898 
 S                     1.92774   0.        0. 
 O                     1.28845   0.84939   2.45848 
 O                     2.34505  -0.27104  -1.36505 
 O                     2.1719    1.59501   0. 
 F                    -0.48368  -1.52353  -1.78948 
 F                     0.00182  -2.39453   0.07967 
 F                    -1.88198  -1.48012  -0.20481 
 H                     1.79892   2.0796   -0.76931 
 
 Add virtual bond connecting atoms O6         and F4         Dist= 4.04D+00.
 ITRead=  0  0  0  0  0  0  0  0  0  0  0  0
 MicOpt= -1 -1 -1 -1 -1 -1 -1 -1 -1 -1 -1 -1
 NAtoms=     12 NQM=       12 NQMF=       0 NMMI=      0 NMMIF=      0
                NMic=       0 NMicF=      0.
                    Isotopes and Nuclear Properties:
 (Nuclear quadrupole moments (NQMom) in fm**2, nuclear magnetic moments (NMagM)
  in nuclear magnetons)

  Atom         1           2           3           4           5           6           7           8           9          10
 IAtWgt=          12          12          19          19          32          16          16          16          19          19
 AtmWgt=  12.0000000  12.0000000  18.9984032  18.9984032  31.9720718  15.9949146  15.9949146  15.9949146  18.9984032  18.9984032
 NucSpn=           0           0           1           1           0           0           0           0           1           1
 AtZEff=  -0.0000000  -0.0000000  -0.0000000  -0.0000000  -0.0000000  -0.0000000  -0.0000000  -0.0000000  -0.0000000  -0.0000000
 NQMom=    0.0000000   0.0000000   0.0000000   0.0000000   0.0000000   0.0000000   0.0000000   0.0000000   0.0000000   0.0000000
 NMagM=    0.0000000   0.0000000   2.6288670   2.6288670   0.0000000   0.0000000   0.0000000   0.0000000   2.6288670   2.6288670
 AtZNuc=   6.0000000   6.0000000   9.0000000   9.0000000  16.0000000   8.0000000   8.0000000   8.0000000   9.0000000   9.0000000

  Atom        11          12
 IAtWgt=          19           1
 AtmWgt=  18.9984032   1.0078250
 NucSpn=           1           1
 AtZEff=  -0.0000000  -0.0000000
 NQMom=    0.0000000   0.0000000
 NMagM=    2.6288670   2.7928460
 AtZNuc=   9.0000000   1.0000000
 Leave Link  101 at Fri May 23 07:32:03 2025, MaxMem=  3758096384 cpu:               0.3 elap:               0.2
 (Enter /apps/easybuild-2022/easybuild/software/Compiler/NVHPC/22.11-CUDA-11.7.0/Gaussian/g16c01-CUDA-11.7.0/g16/l103.exe)

 GradGradGradGradGradGradGradGradGradGradGradGradGradGradGradGradGradGrad
 Berny optimization.
 Initialization pass.
                           ----------------------------
                           !    Initial Parameters    !
                           ! (Angstroms and Degrees)  !
 --------------------------                            --------------------------
 ! Name  Definition              Value          Derivative Info.                !
 --------------------------------------------------------------------------------
 ! R1    R(1,2)                  1.544          calculate D2E/DX2 analytically  !
 ! R2    R(1,9)                  1.3226         calculate D2E/DX2 analytically  !
 ! R3    R(1,10)                 1.3327         calculate D2E/DX2 analytically  !
 ! R4    R(1,11)                 1.3284         calculate D2E/DX2 analytically  !
 ! R5    R(2,3)                  1.3224         calculate D2E/DX2 analytically  !
 ! R6    R(2,4)                  1.3468         calculate D2E/DX2 analytically  !
 ! R7    R(2,5)                  1.9277         calculate D2E/DX2 analytically  !
 ! R8    R(4,6)                  2.1366         calculate D2E/DX2 analytically  !
 ! R9    R(5,7)                  1.4529         calculate D2E/DX2 analytically  !
 ! R10   R(5,8)                  1.6136         calculate D2E/DX2 analytically  !
 ! R11   R(8,12)                 0.9827         calculate D2E/DX2 analytically  !
 ! A1    A(2,1,9)              113.4315         calculate D2E/DX2 analytically  !
 ! A2    A(2,1,10)             112.5817         calculate D2E/DX2 analytically  !
 ! A3    A(2,1,11)             113.3542         calculate D2E/DX2 analytically  !
 ! A4    A(9,1,10)             105.8474         calculate D2E/DX2 analytically  !
 ! A5    A(9,1,11)             105.7582         calculate D2E/DX2 analytically  !
 ! A6    A(10,1,11)            105.1465         calculate D2E/DX2 analytically  !
 ! A7    A(1,2,3)              111.513          calculate D2E/DX2 analytically  !
 ! A8    A(1,2,4)              110.1541         calculate D2E/DX2 analytically  !
 ! A9    A(1,2,5)              112.4882         calculate D2E/DX2 analytically  !
 ! A10   A(3,2,4)              103.3736         calculate D2E/DX2 analytically  !
 ! A11   A(3,2,5)              112.3982         calculate D2E/DX2 analytically  !
 ! A12   A(4,2,5)              106.379          calculate D2E/DX2 analytically  !
 ! A13   A(2,4,6)              110.8344         calculate D2E/DX2 analytically  !
 ! A14   A(2,5,7)              106.6916         calculate D2E/DX2 analytically  !
 ! A15   A(2,5,8)               98.7031         calculate D2E/DX2 analytically  !
 ! A16   A(7,5,8)               98.1024         calculate D2E/DX2 analytically  !
 ! A17   A(5,8,12)             115.467          calculate D2E/DX2 analytically  !
 ! D1    D(9,1,2,3)             53.2799         calculate D2E/DX2 analytically  !
 ! D2    D(9,1,2,4)            167.4538         calculate D2E/DX2 analytically  !
 ! D3    D(9,1,2,5)            -74.054          calculate D2E/DX2 analytically  !
 ! D4    D(10,1,2,3)           173.4503         calculate D2E/DX2 analytically  !
 ! D5    D(10,1,2,4)           -72.3759         calculate D2E/DX2 analytically  !
 ! D6    D(10,1,2,5)            46.1163         calculate D2E/DX2 analytically  !
 ! D7    D(11,1,2,3)           -67.3529         calculate D2E/DX2 analytically  !
 ! D8    D(11,1,2,4)            46.8209         calculate D2E/DX2 analytically  !
 ! D9    D(11,1,2,5)           165.3131         calculate D2E/DX2 analytically  !
 ! D10   D(1,2,4,6)            132.876          calculate D2E/DX2 analytically  !
 ! D11   D(3,2,4,6)           -107.8637         calculate D2E/DX2 analytically  !
 ! D12   D(5,2,4,6)             10.6982         calculate D2E/DX2 analytically  !
 ! D13   D(1,2,5,7)             58.9487         calculate D2E/DX2 analytically  !
 ! D14   D(1,2,5,8)            160.1792         calculate D2E/DX2 analytically  !
 ! D15   D(3,2,5,7)            -67.9134         calculate D2E/DX2 analytically  !
 ! D16   D(3,2,5,8)             33.3171         calculate D2E/DX2 analytically  !
 ! D17   D(4,2,5,7)            179.6358         calculate D2E/DX2 analytically  !
 ! D18   D(4,2,5,8)            -79.1336         calculate D2E/DX2 analytically  !
 ! D19   D(2,5,8,12)           -60.1203         calculate D2E/DX2 analytically  !
 ! D20   D(7,5,8,12)            48.2579         calculate D2E/DX2 analytically  !
 --------------------------------------------------------------------------------
 Trust Radius=3.00D-01 FncErr=1.00D-07 GrdErr=1.00D-06 EigMax=2.50D+02 EigMin=1.00D-04
 Number of steps in this run=    100 maximum allowed number of steps=    100.
 Search for a saddle point of order  1.
 GradGradGradGradGradGradGradGradGradGradGradGradGradGradGradGradGradGrad

 Leave Link  103 at Fri May 23 07:32:03 2025, MaxMem=  3758096384 cpu:               0.1 elap:               0.0
 (Enter /apps/easybuild-2022/easybuild/software/Compiler/NVHPC/22.11-CUDA-11.7.0/Gaussian/g16c01-CUDA-11.7.0/g16/l202.exe)
                          Input orientation:                          
 ---------------------------------------------------------------------
 Center     Atomic      Atomic             Coordinates (Angstroms)
 Number     Number       Type             X           Y           Z
 ---------------------------------------------------------------------
      1          6           0       -0.590558   -1.342051   -0.483718
      2          6           0        0.000000    0.000000    0.000000
      3          9           0       -0.503904    1.021716   -0.671579
      4          9           0       -0.379783    0.243593    1.268975
      5         16           0        1.927744    0.000000    0.000000
      6          8           0        1.288455    0.849387    2.458478
      7          8           0        2.345051   -0.271043   -1.365051
      8          8           0        2.171903    1.595013    0.000000
      9          9           0       -0.483679   -1.523528   -1.789484
     10          9           0        0.001822   -2.394529    0.079671
     11          9           0       -1.881976   -1.480121   -0.204810
     12          1           0        1.798925    2.079598   -0.769307
 ---------------------------------------------------------------------
                    Distance matrix (angstroms):
                    1          2          3          4          5
     1  C    0.000000
     2  C    1.543970   0.000000
     3  F    2.372803   1.322437   0.000000
     4  F    2.372894   1.346800   2.094429   0.000000
     5  S    2.894293   1.927744   2.721734   2.644678   0.000000
     6  O    4.121845   2.902703   3.611025   2.136567   2.678481
     7  O    3.246784   2.726920   3.204477   3.824614   1.452919
     8  O    4.060976   2.694667   2.817735   3.154004   1.613593
     9  F    1.322643   2.399445   2.779998   3.533792   3.367247
    10  F    1.332678   2.395855   3.534242   2.918863   3.073971
    11  F    1.328387   2.403027   2.894157   2.720261   4.092270
    12  H    4.183165   2.855291   2.536077   3.503181   2.221070
                    6          7          8          9         10
     6  O    0.000000
     7  O    4.122030   0.000000
     8  O    2.716717   2.318515   0.000000
     9  F    5.178452   3.122591   4.469862   0.000000
    10  F    4.223404   3.476656   4.542252   2.118513   0.000000
    11  F    4.750931   4.547064   5.092380   2.113838   2.113236
    12  H    3.491789   2.485695   0.982735   4.385608   4.895728
                   11         12
    11  F    0.000000
    12  H    5.151629   0.000000
 Symmetry turned off by external request.
 Stoichiometry    C2HF5O3S
 Rotational constants (GHZ):           1.3896059           0.8058473           0.6831086
 Leave Link  202 at Fri May 23 07:32:03 2025, MaxMem=  3758096384 cpu:               0.0 elap:               0.0
 (Enter /apps/easybuild-2022/easybuild/software/Compiler/NVHPC/22.11-CUDA-11.7.0/Gaussian/g16c01-CUDA-11.7.0/g16/l301.exe)
 Standard basis: 6-311++G(d,p) (5D, 7F)
 Ernie: Thresh=  0.10000D-02 Tol=  0.10000D-05 Strict=F.
   257 basis functions,   419 primitive gaussians,   268 cartesian basis functions
    49 alpha electrons       49 beta electrons
       nuclear repulsion energy       884.6836523391 Hartrees.
 IExCor= 4639 DFT=T Ex+Corr=wB97XD ExCW=0 ScaHFX=  1.000000
 ScaDFX=  1.000000  1.000000  1.000000  1.000000 ScalE2=  1.000000  1.000000
 IRadAn=      5 IRanWt=     -1 IRanGd=            0 ICorTp=0 IEmpDi=121
 HFx  wShort=  0.000000 wLong=  0.200000 cFull=  0.222036 cShort=  0.000000 cLong=  0.777964
 DFx  wShort=  0.000000 wLong=  0.200000 cFull=  0.000000 cShort=  0.000000 cLong=  1.000000
 NAtoms=   12 NActive=   12 NUniq=   12 SFac= 1.00D+00 NAtFMM=   60 NAOKFM=F Big=F
 Integral buffers will be    131072 words long.
 Raffenetti 2 integral format.
 Two-electron integral symmetry is turned off.
 R6Disp:  Grimme-D2 Dispersion energy=       -0.0054143882 Hartrees.
 Nuclear repulsion after empirical dispersion term =      884.6782379509 Hartrees.
 Leave Link  301 at Fri May 23 07:32:03 2025, MaxMem=  3758096384 cpu:               0.1 elap:               0.0
 (Enter /apps/easybuild-2022/easybuild/software/Compiler/NVHPC/22.11-CUDA-11.7.0/Gaussian/g16c01-CUDA-11.7.0/g16/l302.exe)
 NPDir=0 NMtPBC=     1 NCelOv=     1 NCel=       1 NClECP=     1 NCelD=      1
         NCelK=      1 NCelE2=     1 NClLst=     1 CellRange=     0.0.
 One-electron integrals computed using PRISM.
 NBasis=   257 RedAO= T EigKep=  6.35D-05  NBF=   257
 NBsUse=   257 1.00D-06 EigRej= -1.00D+00 NBFU=   257
 Precomputing XC quadrature grid using
 IXCGrd= 4 IRadAn=           5 IRanWt=          -1 IRanGd=           0 AccXCQ= 0.00D+00.
 Generated NRdTot=       0 NPtTot=           0 NUsed=           0 NTot=          32
 NSgBfM=   268   268   268   268   268 MxSgAt=    12 MxSgA2=    12.
 Leave Link  302 at Fri May 23 07:32:04 2025, MaxMem=  3758096384 cpu:               0.7 elap:               0.2
 (Enter /apps/easybuild-2022/easybuild/software/Compiler/NVHPC/22.11-CUDA-11.7.0/Gaussian/g16c01-CUDA-11.7.0/g16/l303.exe)
 DipDrv:  MaxL=1.
 Leave Link  303 at Fri May 23 07:32:04 2025, MaxMem=  3758096384 cpu:               0.1 elap:               0.0
 (Enter /apps/easybuild-2022/easybuild/software/Compiler/NVHPC/22.11-CUDA-11.7.0/Gaussian/g16c01-CUDA-11.7.0/g16/l401.exe)
 ExpMin= 3.60D-02 ExpMax= 9.34D+04 ExpMxC= 3.17D+03 IAcc=3 IRadAn=         5 AccDes= 0.00D+00
 Harris functional with IExCor= 4639 and IRadAn=       5 diagonalized for initial guess.
 HarFok:  IExCor= 4639 AccDes= 0.00D+00 IRadAn=         5 IDoV= 1 UseB2=F ITyADJ=14
 ICtDFT=  3500011 ScaDFX=  1.000000  1.000000  1.000000  1.000000
 FoFCou: FMM=F IPFlag=           0 FMFlag=      100000 FMFlg1=           0
         NFxFlg=           0 DoJE=T BraDBF=F KetDBF=T FulRan=T
         wScrn=  0.000000 ICntrl=       500 IOpCl=  0 I1Cent=   200000004 NGrid=           0
         NMat0=    1 NMatS0=      1 NMatT0=    0 NMatD0=    1 NMtDS0=    0 NMtDT0=    0
 Symmetry not used in FoFCou.
 Harris En= -1166.98208977794    
 JPrj=0 DoOrth=F DoCkMO=F.
 Leave Link  401 at Fri May 23 07:32:04 2025, MaxMem=  3758096384 cpu:               2.5 elap:               0.5
 (Enter /apps/easybuild-2022/easybuild/software/Compiler/NVHPC/22.11-CUDA-11.7.0/Gaussian/g16c01-CUDA-11.7.0/g16/l502.exe)
 Keep R1 ints in memory in canonical form, NReq=1117474609.
 FoFCou: FMM=F IPFlag=           0 FMFlag=           0 FMFlg1=           0
         NFxFlg=           0 DoJE=F BraDBF=F KetDBF=F FulRan=T
         wScrn=  0.000000 ICntrl=       600 IOpCl=  0 I1Cent=           0 NGrid=           0
         NMat0=    1 NMatS0=  33153 NMatT0=    0 NMatD0=    1 NMtDS0=    0 NMtDT0=    0
 Symmetry not used in FoFCou.
 Two-electron integral symmetry not used.
 Closed shell SCF:
 Using DIIS extrapolation, IDIIS=  1040.
 NGot=  3758096384 LenX=  2658793876 LenY=  2658721611
 Requested convergence on RMS density matrix=1.00D-08 within  32 cycles.
 Requested convergence on MAX density matrix=1.00D-06.
 Requested convergence on             energy=1.00D-06.
 No special actions if energy rises.

 Cycle   1  Pass 1  IDiag  1:
 E= -1198.43160484509    
 DIIS: error= 1.21D-01 at cycle   1 NSaved=   1.
 NSaved= 1 IEnMin= 1 EnMin= -1198.43160484509     IErMin= 1 ErrMin= 1.21D-01
 ErrMax= 1.21D-01  0.00D+00 EMaxC= 1.00D-01 BMatC= 3.60D+00 BMatP= 3.60D+00
 IDIUse=3 WtCom= 0.00D+00 WtEn= 1.00D+00
 Coeff-Com:  0.100D+01
 Coeff-En:   0.100D+01
 Coeff:      0.100D+01
 Gap=    -0.124 Goal=   None    Shift=    0.000
 GapD=   -0.124 DampG=0.250 DampE=0.250 DampFc=0.2500 IDamp=-1.
 Damping current iteration by 2.50D-01
 RMSDP=1.47D-02 MaxDP=7.38D-01              OVMax= 9.84D-01

 Cycle   2  Pass 1  IDiag  1:
 E= -1198.59132644314     Delta-E=       -0.159721598045 Rises=F Damp=T
 DIIS: error= 8.65D-02 at cycle   2 NSaved=   2.
 NSaved= 2 IEnMin= 2 EnMin= -1198.59132644314     IErMin= 2 ErrMin= 8.65D-02
 ErrMax= 8.65D-02  0.00D+00 EMaxC= 1.00D-01 BMatC= 1.51D+00 BMatP= 3.60D+00
 IDIUse=3 WtCom= 1.35D-01 WtEn= 8.65D-01
 Coeff-Com: -0.707D+00 0.171D+01
 Coeff-En:   0.368D+00 0.632D+00
 Coeff:      0.223D+00 0.777D+00
 Gap=     0.078 Goal=   None    Shift=    0.000
 RMSDP=5.95D-03 MaxDP=4.25D-01 DE=-1.60D-01 OVMax= 9.43D-01

 Cycle   3  Pass 1  IDiag  1:
 E= -1199.02357220864     Delta-E=       -0.432245765503 Rises=F Damp=F
 DIIS: error= 4.67D-02 at cycle   3 NSaved=   3.
 NSaved= 3 IEnMin= 3 EnMin= -1199.02357220864     IErMin= 3 ErrMin= 4.67D-02
 ErrMax= 4.67D-02  0.00D+00 EMaxC= 1.00D-01 BMatC= 7.01D-01 BMatP= 1.51D+00
 IDIUse=3 WtCom= 5.33D-01 WtEn= 4.67D-01
 Coeff-Com: -0.327D+00 0.761D+00 0.566D+00
 Coeff-En:   0.000D+00 0.232D+00 0.768D+00
 Coeff:     -0.174D+00 0.514D+00 0.661D+00
 Gap=     0.062 Goal=   None    Shift=    0.000
 RMSDP=4.04D-03 MaxDP=1.23D-01 DE=-4.32D-01 OVMax= 4.92D-01

 Cycle   4  Pass 1  IDiag  1:
 E= -1199.37344017275     Delta-E=       -0.349867964111 Rises=F Damp=F
 DIIS: error= 2.23D-02 at cycle   4 NSaved=   4.
 NSaved= 4 IEnMin= 4 EnMin= -1199.37344017275     IErMin= 4 ErrMin= 2.23D-02
 ErrMax= 2.23D-02  0.00D+00 EMaxC= 1.00D-01 BMatC= 2.62D-01 BMatP= 7.01D-01
 IDIUse=3 WtCom= 7.77D-01 WtEn= 2.23D-01
 Coeff-Com: -0.616D-01 0.171D+00 0.377D+00 0.513D+00
 Coeff-En:   0.000D+00 0.000D+00 0.283D+00 0.717D+00
 Coeff:     -0.478D-01 0.133D+00 0.356D+00 0.559D+00
 Gap=     0.207 Goal=   None    Shift=    0.000
 RMSDP=2.96D-03 MaxDP=1.01D-01 DE=-3.50D-01 OVMax= 1.51D-01

 Cycle   5  Pass 1  IDiag  1:
 E= -1199.54590187489     Delta-E=       -0.172461702135 Rises=F Damp=F
 DIIS: error= 7.45D-03 at cycle   5 NSaved=   5.
 NSaved= 5 IEnMin= 5 EnMin= -1199.54590187489     IErMin= 5 ErrMin= 7.45D-03
 ErrMax= 7.45D-03  0.00D+00 EMaxC= 1.00D-01 BMatC= 2.18D-02 BMatP= 2.62D-01
 IDIUse=3 WtCom= 9.26D-01 WtEn= 7.45D-02
 Coeff-Com:  0.602D-02-0.196D-02 0.111D+00 0.267D+00 0.618D+00
 Coeff-En:   0.000D+00 0.000D+00 0.000D+00 0.000D+00 0.100D+01
 Coeff:      0.557D-02-0.182D-02 0.103D+00 0.247D+00 0.646D+00
 Gap=     0.217 Goal=   None    Shift=    0.000
 RMSDP=1.24D-03 MaxDP=8.37D-02 DE=-1.72D-01 OVMax= 8.48D-02

 Cycle   6  Pass 1  IDiag  1:
 E= -1199.56090723650     Delta-E=       -0.015005361617 Rises=F Damp=F
 DIIS: error= 4.36D-03 at cycle   6 NSaved=   6.
 NSaved= 6 IEnMin= 6 EnMin= -1199.56090723650     IErMin= 6 ErrMin= 4.36D-03
 ErrMax= 4.36D-03  0.00D+00 EMaxC= 1.00D-01 BMatC= 7.42D-03 BMatP= 2.18D-02
 IDIUse=3 WtCom= 9.56D-01 WtEn= 4.36D-02
 Coeff-Com:  0.276D-01-0.435D-01-0.194D-01-0.269D-01 0.340D+00 0.722D+00
 Coeff-En:   0.000D+00 0.000D+00 0.000D+00 0.000D+00 0.137D+00 0.863D+00
 Coeff:      0.264D-01-0.416D-01-0.185D-01-0.258D-01 0.331D+00 0.728D+00
 Gap=     0.235 Goal=   None    Shift=    0.000
 RMSDP=7.52D-04 MaxDP=2.82D-02 DE=-1.50D-02 OVMax= 3.58D-02

 Cycle   7  Pass 1  IDiag  1:
 E= -1199.56793120086     Delta-E=       -0.007023964357 Rises=F Damp=F
 DIIS: error= 1.09D-03 at cycle   7 NSaved=   7.
 NSaved= 7 IEnMin= 7 EnMin= -1199.56793120086     IErMin= 7 ErrMin= 1.09D-03
 ErrMax= 1.09D-03  0.00D+00 EMaxC= 1.00D-01 BMatC= 8.97D-04 BMatP= 7.42D-03
 IDIUse=3 WtCom= 9.89D-01 WtEn= 1.09D-02
 Coeff-Com:  0.181D-01-0.247D-01-0.218D-01-0.763D-01-0.469D-02 0.315D+00
 Coeff-Com:  0.795D+00
 Coeff-En:   0.000D+00 0.000D+00 0.000D+00 0.000D+00 0.000D+00 0.000D+00
 Coeff-En:   0.100D+01
 Coeff:      0.179D-01-0.244D-01-0.216D-01-0.755D-01-0.464D-02 0.311D+00
 Coeff:      0.797D+00
 Gap=     0.229 Goal=   None    Shift=    0.000
 RMSDP=3.76D-04 MaxDP=1.38D-02 DE=-7.02D-03 OVMax= 2.95D-02

 Cycle   8  Pass 1  IDiag  1:
 E= -1199.56948378233     Delta-E=       -0.001552581468 Rises=F Damp=F
 DIIS: error= 4.88D-04 at cycle   8 NSaved=   8.
 NSaved= 8 IEnMin= 8 EnMin= -1199.56948378233     IErMin= 8 ErrMin= 4.88D-04
 ErrMax= 4.88D-04  0.00D+00 EMaxC= 1.00D-01 BMatC= 1.41D-04 BMatP= 8.97D-04
 IDIUse=3 WtCom= 9.95D-01 WtEn= 4.88D-03
 Coeff-Com:  0.648D-02-0.799D-02-0.167D-02-0.193D-01-0.826D-01-0.576D-01
 Coeff-Com:  0.150D+00 0.101D+01
 Coeff-En:   0.000D+00 0.000D+00 0.000D+00 0.000D+00 0.000D+00 0.000D+00
 Coeff-En:   0.000D+00 0.100D+01
 Coeff:      0.645D-02-0.795D-02-0.166D-02-0.192D-01-0.822D-01-0.574D-01
 Coeff:      0.150D+00 0.101D+01
 Gap=     0.224 Goal=   None    Shift=    0.000
 RMSDP=2.31D-04 MaxDP=7.89D-03 DE=-1.55D-03 OVMax= 2.45D-02

 Cycle   9  Pass 1  IDiag  1:
 E= -1199.57011676125     Delta-E=       -0.000632978926 Rises=F Damp=F
 DIIS: error= 3.65D-04 at cycle   9 NSaved=   9.
 NSaved= 9 IEnMin= 9 EnMin= -1199.57011676125     IErMin= 9 ErrMin= 3.65D-04
 ErrMax= 3.65D-04  0.00D+00 EMaxC= 1.00D-01 BMatC= 3.62D-05 BMatP= 1.41D-04
 IDIUse=3 WtCom= 9.96D-01 WtEn= 3.65D-03
 Coeff-Com:  0.126D-02-0.148D-02 0.221D-02 0.796D-03-0.241D-01-0.474D-01
 Coeff-Com: -0.648D-01 0.308D+00 0.825D+00
 Coeff-En:   0.000D+00 0.000D+00 0.000D+00 0.000D+00 0.000D+00 0.000D+00
 Coeff-En:   0.000D+00 0.000D+00 0.100D+01
 Coeff:      0.125D-02-0.148D-02 0.220D-02 0.793D-03-0.240D-01-0.472D-01
 Coeff:     -0.646D-01 0.307D+00 0.826D+00
 Gap=     0.221 Goal=   None    Shift=    0.000
 RMSDP=8.65D-05 MaxDP=3.05D-03 DE=-6.33D-04 OVMax= 1.10D-02

 Cycle  10  Pass 1  IDiag  1:
 E= -1199.57041350721     Delta-E=       -0.000296745956 Rises=F Damp=F
 DIIS: error= 3.70D-04 at cycle  10 NSaved=  10.
 NSaved=10 IEnMin=10 EnMin= -1199.57041350721     IErMin= 9 ErrMin= 3.65D-04
 ErrMax= 3.70D-04  0.00D+00 EMaxC= 1.00D-01 BMatC= 2.32D-05 BMatP= 3.62D-05
 IDIUse=3 WtCom= 9.96D-01 WtEn= 3.65D-03
 Coeff-Com: -0.546D-03 0.735D-03 0.165D-02 0.359D-02 0.100D-01-0.497D-02
 Coeff-Com: -0.661D-01-0.102D+00 0.337D+00 0.820D+00
 Coeff-En:   0.000D+00 0.000D+00 0.000D+00 0.000D+00 0.000D+00 0.000D+00
 Coeff-En:   0.000D+00 0.000D+00 0.000D+00 0.100D+01
 Coeff:     -0.544D-03 0.732D-03 0.164D-02 0.358D-02 0.999D-02-0.495D-02
 Coeff:     -0.659D-01-0.101D+00 0.336D+00 0.821D+00
 Gap=     0.220 Goal=   None    Shift=    0.000
 RMSDP=6.97D-05 MaxDP=2.64D-03 DE=-2.97D-04 OVMax= 1.06D-02

 Cycle  11  Pass 1  IDiag  1:
 E= -1199.57069597060     Delta-E=       -0.000282463385 Rises=F Damp=F
 DIIS: error= 3.53D-04 at cycle  11 NSaved=  11.
 NSaved=11 IEnMin=11 EnMin= -1199.57069597060     IErMin=11 ErrMin= 3.53D-04
 ErrMax= 3.53D-04  0.00D+00 EMaxC= 1.00D-01 BMatC= 1.89D-05 BMatP= 2.32D-05
 IDIUse=3 WtCom= 9.96D-01 WtEn= 3.53D-03
 Coeff-Com:  0.376D-03-0.477D-03-0.579D-03-0.167D-02 0.800D-02 0.169D-01
 Coeff-Com:  0.420D-01-0.613D-01-0.547D+00-0.253D+00 0.180D+01
 Coeff-En:   0.000D+00 0.000D+00 0.000D+00 0.000D+00 0.000D+00 0.000D+00
 Coeff-En:   0.000D+00 0.000D+00 0.000D+00 0.000D+00 0.100D+01
 Coeff:      0.375D-03-0.475D-03-0.577D-03-0.167D-02 0.798D-02 0.169D-01
 Coeff:      0.418D-01-0.610D-01-0.545D+00-0.252D+00 0.179D+01
 Gap=     0.220 Goal=   None    Shift=    0.000
 RMSDP=1.39D-04 MaxDP=5.94D-03 DE=-2.82D-04 OVMax= 2.18D-02

 Cycle  12  Pass 1  IDiag  1:
 E= -1199.57124977189     Delta-E=       -0.000553801296 Rises=F Damp=F
 DIIS: error= 3.25D-04 at cycle  12 NSaved=  12.
 NSaved=12 IEnMin=12 EnMin= -1199.57124977189     IErMin=12 ErrMin= 3.25D-04
 ErrMax= 3.25D-04  0.00D+00 EMaxC= 1.00D-01 BMatC= 1.68D-05 BMatP= 1.89D-05
 IDIUse=3 WtCom= 9.97D-01 WtEn= 3.25D-03
 Coeff-Com:  0.260D-02-0.348D-02-0.137D-02-0.494D-02-0.147D-01 0.360D-02
 Coeff-Com:  0.894D-01 0.109D+00-0.787D+00-0.136D+01 0.368D+00 0.260D+01
 Coeff-En:   0.000D+00 0.000D+00 0.000D+00 0.000D+00 0.000D+00 0.000D+00
 Coeff-En:   0.000D+00 0.000D+00 0.000D+00 0.000D+00 0.000D+00 0.100D+01
 Coeff:      0.259D-02-0.347D-02-0.137D-02-0.493D-02-0.147D-01 0.359D-02
 Coeff:      0.892D-01 0.108D+00-0.785D+00-0.135D+01 0.367D+00 0.259D+01
 Gap=     0.218 Goal=   None    Shift=    0.000
 RMSDP=3.97D-04 MaxDP=1.87D-02 DE=-5.54D-04 OVMax= 7.43D-02

 Cycle  13  Pass 1  IDiag  1:
 E= -1199.57257699796     Delta-E=       -0.001327226068 Rises=F Damp=F
 DIIS: error= 2.71D-04 at cycle  13 NSaved=  13.
 NSaved=13 IEnMin=13 EnMin= -1199.57257699796     IErMin=13 ErrMin= 2.71D-04
 ErrMax= 2.71D-04  0.00D+00 EMaxC= 1.00D-01 BMatC= 1.41D-05 BMatP= 1.68D-05
 IDIUse=3 WtCom= 9.97D-01 WtEn= 2.71D-03
 Coeff-Com:  0.282D-02-0.392D-02-0.481D-03-0.831D-03-0.262D-02 0.508D-02
 Coeff-Com:  0.344D-01-0.307D-01-0.305D+00-0.842D+00-0.803D-01 0.125D+01
 Coeff-Com:  0.978D+00
 Coeff-En:   0.000D+00 0.000D+00 0.000D+00 0.000D+00 0.000D+00 0.000D+00
 Coeff-En:   0.000D+00 0.000D+00 0.000D+00 0.000D+00 0.000D+00 0.000D+00
 Coeff-En:   0.100D+01
 Coeff:      0.282D-02-0.391D-02-0.479D-03-0.829D-03-0.261D-02 0.506D-02
 Coeff:      0.343D-01-0.307D-01-0.305D+00-0.839D+00-0.801D-01 0.124D+01
 Coeff:      0.978D+00
 Gap=     0.218 Goal=   None    Shift=    0.000
 RMSDP=2.56D-04 MaxDP=1.30D-02 DE=-1.33D-03 OVMax= 5.33D-02

 Cycle  14  Pass 1  IDiag  1:
 E= -1199.57319171229     Delta-E=       -0.000614714330 Rises=F Damp=F
 DIIS: error= 2.19D-04 at cycle  14 NSaved=  14.
 NSaved=14 IEnMin=14 EnMin= -1199.57319171229     IErMin=14 ErrMin= 2.19D-04
 ErrMax= 2.19D-04  0.00D+00 EMaxC= 1.00D-01 BMatC= 1.10D-05 BMatP= 1.41D-05
 IDIUse=3 WtCom= 9.98D-01 WtEn= 2.19D-03
 Coeff-Com:  0.177D-02-0.250D-02-0.392D-03 0.101D-02 0.126D-01 0.197D-01
 Coeff-Com:  0.346D-01-0.952D-01-0.345D+00-0.515D+00 0.136D+01-0.400D+00
 Coeff-Com: -0.304D+00 0.124D+01
 Coeff-En:   0.000D+00 0.000D+00 0.000D+00 0.000D+00 0.000D+00 0.000D+00
 Coeff-En:   0.000D+00 0.000D+00 0.000D+00 0.000D+00 0.000D+00 0.000D+00
 Coeff-En:   0.000D+00 0.100D+01
 Coeff:      0.177D-02-0.249D-02-0.391D-03 0.101D-02 0.126D-01 0.196D-01
 Coeff:      0.345D-01-0.950D-01-0.344D+00-0.514D+00 0.135D+01-0.399D+00
 Coeff:     -0.303D+00 0.124D+01
 Gap=     0.213 Goal=   None    Shift=    0.000
 RMSDP=7.17D-05 MaxDP=3.70D-03 DE=-6.15D-04 OVMax= 1.43D-02

 Cycle  15  Pass 1  IDiag  1:
 E= -1199.57333879088     Delta-E=       -0.000147078587 Rises=F Damp=F
 DIIS: error= 1.67D-04 at cycle  15 NSaved=  15.
 NSaved=15 IEnMin=15 EnMin= -1199.57333879088     IErMin=15 ErrMin= 1.67D-04
 ErrMax= 1.67D-04  0.00D+00 EMaxC= 1.00D-01 BMatC= 4.95D-06 BMatP= 1.10D-05
 IDIUse=3 WtCom= 9.98D-01 WtEn= 1.67D-03
 Coeff-Com:  0.683D-03-0.891D-03 0.794D-04-0.108D-02 0.124D-02 0.757D-02
 Coeff-Com: -0.289D-04 0.766D-01-0.131D+00 0.140D+00 0.717D-02-0.359D+00
 Coeff-Com: -0.108D+01 0.347D+00 0.199D+01
 Coeff-En:   0.000D+00 0.000D+00 0.000D+00 0.000D+00 0.000D+00 0.000D+00
 Coeff-En:   0.000D+00 0.000D+00 0.000D+00 0.000D+00 0.000D+00 0.000D+00
 Coeff-En:   0.000D+00 0.000D+00 0.100D+01
 Coeff:      0.682D-03-0.890D-03 0.793D-04-0.108D-02 0.124D-02 0.756D-02
 Coeff:     -0.289D-04 0.765D-01-0.131D+00 0.140D+00 0.715D-02-0.359D+00
 Coeff:     -0.108D+01 0.347D+00 0.199D+01
 Gap=     0.211 Goal=   None    Shift=    0.000
 RMSDP=4.60D-04 MaxDP=2.50D-02 DE=-1.47D-04 OVMax= 1.04D-01

 Cycle  16  Pass 1  IDiag  1:
 E= -1199.57379885505     Delta-E=       -0.000460064173 Rises=F Damp=F
 DIIS: error= 1.24D-04 at cycle  16 NSaved=  16.
 NSaved=16 IEnMin=16 EnMin= -1199.57379885505     IErMin=16 ErrMin= 1.24D-04
 ErrMax= 1.24D-04  0.00D+00 EMaxC= 1.00D-01 BMatC= 1.13D-05 BMatP= 4.95D-06
 IDIUse=3 WtCom= 9.98D-01 WtEn= 1.67D-03
 Coeff-Com:  0.402D-03-0.503D-03-0.497D-04-0.937D-03-0.913D-03 0.409D-02
 Coeff-Com:  0.894D-02 0.885D-01-0.152D+00-0.242D-02 0.170D+00-0.157D+00
 Coeff-Com: -0.970D+00-0.331D-01 0.175D+01 0.292D+00
 Coeff-En:   0.000D+00 0.000D+00 0.000D+00 0.000D+00 0.000D+00 0.000D+00
 Coeff-En:   0.000D+00 0.000D+00 0.000D+00 0.000D+00 0.000D+00 0.000D+00
 Coeff-En:   0.000D+00 0.000D+00 0.000D+00 0.100D+01
 Coeff:      0.401D-03-0.502D-03-0.497D-04-0.935D-03-0.912D-03 0.408D-02
 Coeff:      0.893D-02 0.883D-01-0.152D+00-0.242D-02 0.169D+00-0.157D+00
 Coeff:     -0.968D+00-0.331D-01 0.175D+01 0.293D+00
 Gap=     0.212 Goal=   None    Shift=    0.000
 RMSDP=2.03D-05 MaxDP=5.58D-04 DE=-4.60D-04 OVMax= 2.21D-03

 Cycle  17  Pass 1  IDiag  1:
 E= -1199.57380730621     Delta-E=       -0.000008451160 Rises=F Damp=F
 DIIS: error= 6.60D-05 at cycle  17 NSaved=  17.
 NSaved=17 IEnMin=17 EnMin= -1199.57380730621     IErMin=17 ErrMin= 6.60D-05
 ErrMax= 6.60D-05  0.00D+00 EMaxC= 1.00D-01 BMatC= 3.44D-06 BMatP= 4.95D-06
 IDIUse=1 WtCom= 1.00D+00 WtEn= 0.00D+00
 Coeff-Com:  0.184D-03-0.250D-03-0.626D-04-0.286D-03-0.332D-02-0.273D-02
 Coeff-Com:  0.393D-02 0.287D-01-0.324D-01-0.149D+00-0.360D+00 0.558D+00
 Coeff-Com:  0.167D+00-0.588D+00 0.316D+00-0.767D+00 0.183D+01
 Coeff:      0.184D-03-0.250D-03-0.626D-04-0.286D-03-0.332D-02-0.273D-02
 Coeff:      0.393D-02 0.287D-01-0.324D-01-0.149D+00-0.360D+00 0.558D+00
 Coeff:      0.167D+00-0.588D+00 0.316D+00-0.767D+00 0.183D+01
 Gap=     0.209 Goal=   None    Shift=    0.000
 RMSDP=4.84D-05 MaxDP=2.51D-03 DE=-8.45D-06 OVMax= 1.05D-02

 Cycle  18  Pass 1  IDiag  1:
 E= -1199.57381889942     Delta-E=       -0.000011593207 Rises=F Damp=F
 DIIS: error= 3.74D-05 at cycle  18 NSaved=  18.
 NSaved=18 IEnMin=18 EnMin= -1199.57381889942     IErMin=18 ErrMin= 3.74D-05
 ErrMax= 3.74D-05  0.00D+00 EMaxC= 1.00D-01 BMatC= 9.40D-07 BMatP= 3.44D-06
 IDIUse=1 WtCom= 1.00D+00 WtEn= 0.00D+00
 Coeff-Com: -0.114D-04 0.103D-04-0.833D-04-0.176D-03-0.959D-03-0.631D-03
 Coeff-Com:  0.231D-02-0.841D-03-0.710D-02-0.478D-01-0.101D+00 0.185D+00
 Coeff-Com:  0.129D+00-0.193D+00-0.580D-01-0.623D+00 0.768D+00 0.948D+00
 Coeff:     -0.114D-04 0.103D-04-0.833D-04-0.176D-03-0.959D-03-0.631D-03
 Coeff:      0.231D-02-0.841D-03-0.710D-02-0.478D-01-0.101D+00 0.185D+00
 Coeff:      0.129D+00-0.193D+00-0.580D-01-0.623D+00 0.768D+00 0.948D+00
 Gap=     0.207 Goal=   None    Shift=    0.000
 RMSDP=1.54D-05 MaxDP=5.99D-04 DE=-1.16D-05 OVMax= 2.64D-03

 Cycle  19  Pass 1  IDiag  1:
 E= -1199.57382099701     Delta-E=       -0.000002097593 Rises=F Damp=F
 DIIS: error= 1.62D-05 at cycle  19 NSaved=  19.
 NSaved=19 IEnMin=19 EnMin= -1199.57382099701     IErMin=19 ErrMin= 1.62D-05
 ErrMax= 1.62D-05  0.00D+00 EMaxC= 1.00D-01 BMatC= 4.27D-08 BMatP= 9.40D-07
 IDIUse=1 WtCom= 1.00D+00 WtEn= 0.00D+00
 Coeff-Com: -0.204D-04 0.258D-04-0.240D-04-0.111D-03-0.109D-03 0.281D-03
 Coeff-Com:  0.510D-04-0.207D-02-0.314D-02 0.656D-02-0.384D-01 0.295D-01
 Coeff-Com:  0.986D-02-0.237D-01 0.197D-01-0.203D+00 0.156D+00 0.362D+00
 Coeff-Com:  0.686D+00
 Coeff:     -0.204D-04 0.258D-04-0.240D-04-0.111D-03-0.109D-03 0.281D-03
 Coeff:      0.510D-04-0.207D-02-0.314D-02 0.656D-02-0.384D-01 0.295D-01
 Coeff:      0.986D-02-0.237D-01 0.197D-01-0.203D+00 0.156D+00 0.362D+00
 Coeff:      0.686D+00
 Gap=     0.207 Goal=   None    Shift=    0.000
 RMSDP=6.59D-06 MaxDP=3.17D-04 DE=-2.10D-06 OVMax= 1.25D-03

 Cycle  20  Pass 1  IDiag  1:
 E= -1199.57382135522     Delta-E=       -0.000000358212 Rises=F Damp=F
 DIIS: error= 1.52D-05 at cycle  20 NSaved=  20.
 NSaved=20 IEnMin=20 EnMin= -1199.57382135522     IErMin=20 ErrMin= 1.52D-05
 ErrMax= 1.52D-05  0.00D+00 EMaxC= 1.00D-01 BMatC= 4.62D-08 BMatP= 4.27D-08
 IDIUse=1 WtCom= 1.00D+00 WtEn= 0.00D+00
 Coeff-Com: -0.880D-05 0.127D-04-0.119D-04 0.634D-05 0.917D-04 0.939D-04
 Coeff-Com:  0.234D-03 0.784D-03-0.483D-02 0.351D-02 0.467D-01-0.460D-01
 Coeff-Com: -0.518D-01 0.524D-01 0.316D-01 0.160D+00-0.217D+00-0.394D+00
 Coeff-Com:  0.750D-01 0.134D+01
 Coeff:     -0.880D-05 0.127D-04-0.119D-04 0.634D-05 0.917D-04 0.939D-04
 Coeff:      0.234D-03 0.784D-03-0.483D-02 0.351D-02 0.467D-01-0.460D-01
 Coeff:     -0.518D-01 0.524D-01 0.316D-01 0.160D+00-0.217D+00-0.394D+00
 Coeff:      0.750D-01 0.134D+01
 Gap=     0.207 Goal=   None    Shift=    0.000
 RMSDP=4.27D-06 MaxDP=1.67D-04 DE=-3.58D-07 OVMax= 7.14D-04

 Cycle  21  Pass 1  IDiag  1:
 E= -1199.57382189885     Delta-E=       -0.000000543629 Rises=F Damp=F
 DIIS: error= 1.45D-05 at cycle  21 NSaved=  20.
 NSaved=20 IEnMin=20 EnMin= -1199.57382189885     IErMin=20 ErrMin= 1.45D-05
 ErrMax= 1.45D-05  0.00D+00 EMaxC= 1.00D-01 BMatC= 2.05D-08 BMatP= 4.27D-08
 IDIUse=1 WtCom= 1.00D+00 WtEn= 0.00D+00
 Coeff-Com: -0.701D-07 0.331D-04 0.122D-03 0.133D-03-0.276D-03-0.108D-02
 Coeff-Com: -0.795D-03 0.631D-02 0.144D-02 0.102D-01-0.140D-01 0.131D-01
 Coeff-Com:  0.259D-02-0.336D-01 0.789D-01-0.207D-01-0.359D-01-0.524D+00
 Coeff-Com: -0.514D+00 0.203D+01
 Coeff:     -0.701D-07 0.331D-04 0.122D-03 0.133D-03-0.276D-03-0.108D-02
 Coeff:     -0.795D-03 0.631D-02 0.144D-02 0.102D-01-0.140D-01 0.131D-01
 Coeff:      0.259D-02-0.336D-01 0.789D-01-0.207D-01-0.359D-01-0.524D+00
 Coeff:     -0.514D+00 0.203D+01
 Gap=     0.206 Goal=   None    Shift=    0.000
 RMSDP=6.22D-06 MaxDP=2.69D-04 DE=-5.44D-07 OVMax= 1.23D-03

 Cycle  22  Pass 1  IDiag  1:
 E= -1199.57382266066     Delta-E=       -0.000000761814 Rises=F Damp=F
 DIIS: error= 1.23D-05 at cycle  22 NSaved=  20.
 NSaved=20 IEnMin=20 EnMin= -1199.57382266066     IErMin=20 ErrMin= 1.23D-05
 ErrMax= 1.23D-05  0.00D+00 EMaxC= 1.00D-01 BMatC= 2.09D-08 BMatP= 2.05D-08
 IDIUse=1 WtCom= 1.00D+00 WtEn= 0.00D+00
 Coeff-Com:  0.318D-04 0.643D-04 0.302D-03 0.117D-03 0.137D-03-0.269D-02
 Coeff-Com:  0.795D-02-0.376D-02-0.840D-02 0.157D-01 0.860D-01-0.391D-01
 Coeff-Com: -0.129D+00-0.106D+00 0.189D+00 0.502D+00-0.354D+00-0.148D+01
 Coeff-Com: -0.618D+00 0.294D+01
 Coeff:      0.318D-04 0.643D-04 0.302D-03 0.117D-03 0.137D-03-0.269D-02
 Coeff:      0.795D-02-0.376D-02-0.840D-02 0.157D-01 0.860D-01-0.391D-01
 Coeff:     -0.129D+00-0.106D+00 0.189D+00 0.502D+00-0.354D+00-0.148D+01
 Coeff:     -0.618D+00 0.294D+01
 Gap=     0.206 Goal=   None    Shift=    0.000
 RMSDP=1.50D-05 MaxDP=5.61D-04 DE=-7.62D-07 OVMax= 3.50D-03

 Cycle  23  Pass 1  IDiag  1:
 E= -1199.57382403847     Delta-E=       -0.000001377812 Rises=F Damp=F
 DIIS: error= 7.26D-06 at cycle  23 NSaved=  20.
 NSaved=20 IEnMin=20 EnMin= -1199.57382403847     IErMin=20 ErrMin= 7.26D-06
 ErrMax= 7.26D-06  0.00D+00 EMaxC= 1.00D-01 BMatC= 4.53D-08 BMatP= 2.05D-08
 IDIUse=1 WtCom= 1.00D+00 WtEn= 0.00D+00
 Coeff-Com: -0.320D-04 0.316D-03 0.449D-03 0.827D-03-0.170D-02 0.101D-02
 Coeff-Com: -0.619D-03-0.410D-02 0.102D-01 0.521D-01-0.248D-01-0.799D-01
 Coeff-Com: -0.693D-01 0.119D+00 0.328D+00 0.287D-01-0.215D+00-0.217D+01
 Coeff-Com:  0.204D+01 0.983D+00
 Coeff:     -0.320D-04 0.316D-03 0.449D-03 0.827D-03-0.170D-02 0.101D-02
 Coeff:     -0.619D-03-0.410D-02 0.102D-01 0.521D-01-0.248D-01-0.799D-01
 Coeff:     -0.693D-01 0.119D+00 0.328D+00 0.287D-01-0.215D+00-0.217D+01
 Coeff:      0.204D+01 0.983D+00
 Gap=     0.206 Goal=   None    Shift=    0.000
 RMSDP=9.70D-06 MaxDP=3.70D-04 DE=-1.38D-06 OVMax= 2.37D-03

 Cycle  24  Pass 1  IDiag  1:
 E= -1199.57382452856     Delta-E=       -0.000000490088 Rises=F Damp=F
 DIIS: error= 4.65D-06 at cycle  24 NSaved=  20.
 NSaved=20 IEnMin=20 EnMin= -1199.57382452856     IErMin=20 ErrMin= 4.65D-06
 ErrMax= 4.65D-06  0.00D+00 EMaxC= 1.00D-01 BMatC= 1.56D-08 BMatP= 2.05D-08
 IDIUse=1 WtCom= 1.00D+00 WtEn= 0.00D+00
 Coeff-Com: -0.150D-04-0.563D-05 0.105D-03 0.182D-02-0.217D-02 0.232D-02
 Coeff-Com:  0.185D-01-0.203D-01-0.338D-01 0.262D-01 0.292D-01 0.116D+00
 Coeff-Com: -0.132D+00-0.272D+00 0.290D-01 0.108D+01-0.820D-01-0.122D+01
 Coeff-Com: -0.453D-01 0.150D+01
 Coeff:     -0.150D-04-0.563D-05 0.105D-03 0.182D-02-0.217D-02 0.232D-02
 Coeff:      0.185D-01-0.203D-01-0.338D-01 0.262D-01 0.292D-01 0.116D+00
 Coeff:     -0.132D+00-0.272D+00 0.290D-01 0.108D+01-0.820D-01-0.122D+01
 Coeff:     -0.453D-01 0.150D+01
 Gap=     0.207 Goal=   None    Shift=    0.000
 RMSDP=5.86D-06 MaxDP=2.43D-04 DE=-4.90D-07 OVMax= 1.43D-03

 Cycle  25  Pass 1  IDiag  1:
 E= -1199.57382465198     Delta-E=       -0.000000123418 Rises=F Damp=F
 DIIS: error= 7.80D-07 at cycle  25 NSaved=  20.
 NSaved=20 IEnMin=20 EnMin= -1199.57382465198     IErMin=20 ErrMin= 7.80D-07
 ErrMax= 7.80D-07  0.00D+00 EMaxC= 1.00D-01 BMatC= 3.60D-10 BMatP= 1.56D-08
 IDIUse=1 WtCom= 1.00D+00 WtEn= 0.00D+00
 Coeff-Com:  0.796D-04 0.688D-04-0.110D-03 0.599D-04-0.135D-03 0.533D-02
 Coeff-Com: -0.648D-02-0.677D-02 0.113D-01 0.378D-02 0.262D-01-0.440D-01
 Coeff-Com: -0.699D-01-0.290D-01 0.117D+00 0.380D+00-0.433D+00-0.205D+00
 Coeff-Com:  0.194D+00 0.106D+01
 Coeff:      0.796D-04 0.688D-04-0.110D-03 0.599D-04-0.135D-03 0.533D-02
 Coeff:     -0.648D-02-0.677D-02 0.113D-01 0.378D-02 0.262D-01-0.440D-01
 Coeff:     -0.699D-01-0.290D-01 0.117D+00 0.380D+00-0.433D+00-0.205D+00
 Coeff:      0.194D+00 0.106D+01
 Gap=     0.207 Goal=   None    Shift=    0.000
 RMSDP=1.85D-06 MaxDP=8.93D-05 DE=-1.23D-07 OVMax= 4.20D-04

 Cycle  26  Pass 1  IDiag  1:
 E= -1199.57382466097     Delta-E=       -0.000000008996 Rises=F Damp=F
 DIIS: error= 2.29D-07 at cycle  26 NSaved=  20.
 NSaved=20 IEnMin=20 EnMin= -1199.57382466097     IErMin=20 ErrMin= 2.29D-07
 ErrMax= 2.29D-07  0.00D+00 EMaxC= 1.00D-01 BMatC= 4.11D-11 BMatP= 3.60D-10
 IDIUse=1 WtCom= 1.00D+00 WtEn= 0.00D+00
 Coeff-Com: -0.974D-04-0.170D-03 0.421D-03 0.589D-03-0.180D-02-0.255D-03
 Coeff-Com: -0.211D-03 0.253D-04 0.289D-02-0.977D-02 0.796D-02 0.162D-01
 Coeff-Com:  0.780D-02-0.821D-01 0.439D-01 0.474D-01-0.145D-01-0.141D+00
 Coeff-Com:  0.108D+00 0.101D+01
 Coeff:     -0.974D-04-0.170D-03 0.421D-03 0.589D-03-0.180D-02-0.255D-03
 Coeff:     -0.211D-03 0.253D-04 0.289D-02-0.977D-02 0.796D-02 0.162D-01
 Coeff:      0.780D-02-0.821D-01 0.439D-01 0.474D-01-0.145D-01-0.141D+00
 Coeff:      0.108D+00 0.101D+01
 Gap=     0.207 Goal=   None    Shift=    0.000
 RMSDP=2.99D-07 MaxDP=9.64D-06 DE=-9.00D-09 OVMax= 6.95D-05

 Cycle  27  Pass 1  IDiag  1:
 E= -1199.57382466133     Delta-E=       -0.000000000358 Rises=F Damp=F
 DIIS: error= 5.34D-07 at cycle  27 NSaved=  20.
 NSaved=20 IEnMin=20 EnMin= -1199.57382466133     IErMin=19 ErrMin= 2.29D-07
 ErrMax= 5.34D-07  0.00D+00 EMaxC= 1.00D-01 BMatC= 1.69D-10 BMatP= 4.11D-11
 IDIUse=1 WtCom= 1.00D+00 WtEn= 0.00D+00
 Coeff-Com: -0.464D-04 0.418D-04 0.188D-04-0.969D-03 0.752D-03 0.282D-03
 Coeff-Com: -0.104D-02 0.104D-02-0.768D-02 0.713D-02 0.135D-01 0.102D-01
 Coeff-Com: -0.530D-01-0.252D-01 0.707D-01 0.260D-01-0.701D-01-0.108D+00
 Coeff-Com:  0.386D+00 0.750D+00
 Coeff:     -0.464D-04 0.418D-04 0.188D-04-0.969D-03 0.752D-03 0.282D-03
 Coeff:     -0.104D-02 0.104D-02-0.768D-02 0.713D-02 0.135D-01 0.102D-01
 Coeff:     -0.530D-01-0.252D-01 0.707D-01 0.260D-01-0.701D-01-0.108D+00
 Coeff:      0.386D+00 0.750D+00
 Gap=     0.207 Goal=   None    Shift=    0.000
 RMSDP=1.30D-07 MaxDP=3.21D-06 DE=-3.58D-10 OVMax= 1.52D-05

 Cycle  28  Pass 1  IDiag  1:
 E= -1199.57382466139     Delta-E=       -0.000000000057 Rises=F Damp=F
 DIIS: error= 1.86D-07 at cycle  28 NSaved=  20.
 NSaved=20 IEnMin=20 EnMin= -1199.57382466139     IErMin=20 ErrMin= 1.86D-07
 ErrMax= 1.86D-07  0.00D+00 EMaxC= 1.00D-01 BMatC= 1.93D-11 BMatP= 4.11D-11
 IDIUse=1 WtCom= 1.00D+00 WtEn= 0.00D+00
 Coeff-Com: -0.191D-04 0.843D-04-0.477D-03 0.365D-03-0.223D-03-0.579D-03
 Coeff-Com:  0.105D-02-0.289D-02 0.303D-02 0.396D-02 0.667D-02-0.151D-01
 Coeff-Com: -0.213D-01 0.265D-01 0.191D-01-0.123D-01-0.865D-01 0.315D-01
 Coeff-Com:  0.249D+00 0.798D+00
 Coeff:     -0.191D-04 0.843D-04-0.477D-03 0.365D-03-0.223D-03-0.579D-03
 Coeff:      0.105D-02-0.289D-02 0.303D-02 0.396D-02 0.667D-02-0.151D-01
 Coeff:     -0.213D-01 0.265D-01 0.191D-01-0.123D-01-0.865D-01 0.315D-01
 Coeff:      0.249D+00 0.798D+00
 Gap=     0.207 Goal=   None    Shift=    0.000
 RMSDP=3.32D-08 MaxDP=1.15D-06 DE=-5.68D-11 OVMax= 4.15D-06

 Cycle  29  Pass 1  IDiag  1:
 E= -1199.57382466148     Delta-E=       -0.000000000087 Rises=F Damp=F
 DIIS: error= 8.53D-08 at cycle  29 NSaved=  20.
 NSaved=20 IEnMin=20 EnMin= -1199.57382466148     IErMin=20 ErrMin= 8.53D-08
 ErrMax= 8.53D-08  0.00D+00 EMaxC= 1.00D-01 BMatC= 4.83D-12 BMatP= 1.93D-11
 IDIUse=1 WtCom= 1.00D+00 WtEn= 0.00D+00
 Coeff-Com: -0.453D-04 0.191D-04 0.336D-04-0.187D-03 0.329D-04 0.291D-03
 Coeff-Com:  0.545D-03-0.479D-03-0.248D-02 0.233D-04 0.644D-02 0.498D-02
 Coeff-Com: -0.126D-01-0.178D-02 0.112D-01 0.723D-02-0.544D-01-0.168D+00
 Coeff-Com:  0.155D+00 0.105D+01
 Coeff:     -0.453D-04 0.191D-04 0.336D-04-0.187D-03 0.329D-04 0.291D-03
 Coeff:      0.545D-03-0.479D-03-0.248D-02 0.233D-04 0.644D-02 0.498D-02
 Coeff:     -0.126D-01-0.178D-02 0.112D-01 0.723D-02-0.544D-01-0.168D+00
 Coeff:      0.155D+00 0.105D+01
 Gap=     0.207 Goal=   None    Shift=    0.000
 RMSDP=2.40D-08 MaxDP=7.38D-07 DE=-8.73D-11 OVMax= 1.84D-06

 Cycle  30  Pass 1  IDiag  1:
 E= -1199.57382466145     Delta-E=        0.000000000032 Rises=F Damp=F
 DIIS: error= 1.47D-08 at cycle  30 NSaved=  20.
 NSaved=20 IEnMin=19 EnMin= -1199.57382466148     IErMin=20 ErrMin= 1.47D-08
 ErrMax= 1.47D-08  0.00D+00 EMaxC= 1.00D-01 BMatC= 1.77D-13 BMatP= 4.83D-12
 IDIUse=1 WtCom= 1.00D+00 WtEn= 0.00D+00
 Coeff-Com: -0.176D-04-0.376D-05-0.811D-05 0.380D-04 0.302D-04 0.198D-03
 Coeff-Com: -0.271D-03-0.664D-03-0.144D-03 0.210D-02 0.339D-02-0.527D-02
 Coeff-Com: -0.244D-02 0.235D-02 0.110D-01-0.407D-02-0.456D-01-0.814D-01
 Coeff-Com:  0.639D-01 0.106D+01
 Coeff:     -0.176D-04-0.376D-05-0.811D-05 0.380D-04 0.302D-04 0.198D-03
 Coeff:     -0.271D-03-0.664D-03-0.144D-03 0.210D-02 0.339D-02-0.527D-02
 Coeff:     -0.244D-02 0.235D-02 0.110D-01-0.407D-02-0.456D-01-0.814D-01
 Coeff:      0.639D-01 0.106D+01
 Gap=     0.207 Goal=   None    Shift=    0.000
 RMSDP=5.25D-09 MaxDP=1.63D-07 DE= 3.18D-11 OVMax= 8.83D-07

 SCF Done:  E(RwB97XD) =  -1199.57382466     A.U. after   30 cycles
            NFock= 30  Conv=0.53D-08     -V/T= 2.0018
 KE= 1.197362955741D+03 PE=-4.617136070507D+03 EE= 1.335521052154D+03
 Leave Link  502 at Fri May 23 07:32:32 2025, MaxMem=  3758096384 cpu:             119.1 elap:              27.5
 (Enter /apps/easybuild-2022/easybuild/software/Compiler/NVHPC/22.11-CUDA-11.7.0/Gaussian/g16c01-CUDA-11.7.0/g16/l508.exe)
 QCSCF skips out because SCF is already converged.
 Leave Link  508 at Fri May 23 07:32:32 2025, MaxMem=  3758096384 cpu:               0.0 elap:               0.0
 (Enter /apps/easybuild-2022/easybuild/software/Compiler/NVHPC/22.11-CUDA-11.7.0/Gaussian/g16c01-CUDA-11.7.0/g16/l801.exe)
 DoSCS=F DFT=T ScalE2(SS,OS)=  1.000000  1.000000
 Range of M.O.s used for correlation:     1   257
 NBasis=   257 NAE=    49 NBE=    49 NFC=     0 NFV=     0
 NROrb=    257 NOA=    49 NOB=    49 NVA=   208 NVB=   208

 **** Warning!!: The largest alpha MO coefficient is  0.29979633D+02

 Leave Link  801 at Fri May 23 07:32:32 2025, MaxMem=  3758096384 cpu:               0.1 elap:               0.0
 (Enter /apps/easybuild-2022/easybuild/software/Compiler/NVHPC/22.11-CUDA-11.7.0/Gaussian/g16c01-CUDA-11.7.0/g16/l1101.exe)
 Using compressed storage, NAtomX=    12.
 Will process     13 centers per pass.
 R6Disp: Adding Grimme-D2 dispersion energy 1st derivatives to the gradient.
 Leave Link 1101 at Fri May 23 07:32:32 2025, MaxMem=  3758096384 cpu:               0.7 elap:               0.2
 (Enter /apps/easybuild-2022/easybuild/software/Compiler/NVHPC/22.11-CUDA-11.7.0/Gaussian/g16c01-CUDA-11.7.0/g16/l1102.exe)
 Symmetrizing basis deriv contribution to polar:
 IMax=3 JMax=2 DiffMx= 0.00D+00
 Leave Link 1102 at Fri May 23 07:32:32 2025, MaxMem=  3758096384 cpu:               0.1 elap:               0.1
 (Enter /apps/easybuild-2022/easybuild/software/Compiler/NVHPC/22.11-CUDA-11.7.0/Gaussian/g16c01-CUDA-11.7.0/g16/l1110.exe)
 Forming Gx(P) for the SCF density, NAtomX=    12.
 Integral derivatives from FoFJK, PRISM(SPDF).
 Do as many integral derivatives as possible in FoFJK.
 G2DrvN: MDV=    3758095012.
 G2DrvN: will do    13 centers at a time, making    1 passes.
 Calling FoFCou, ICntrl=  3107 FMM=F I1Cent=   0 AccDes= 0.00D+00.
 FoFJK:  IHMeth= 1 ICntrl=    3107 DoSepK=T KAlg= 0 I1Cent=           0 FoldK=F
 IRaf=         1 NMat=       1 IRICut=       1 DoRegI=T DoRafI=F ISym2E= 0 IDoP0=0 IntGTp=1.
 FoFCou: FMM=F IPFlag=           0 FMFlag=      100000 FMFlg1=           0
         NFxFlg=           0 DoJE=F BraDBF=F KetDBF=F FulRan=T
         wScrn=  0.000000 ICntrl=      3507 IOpCl=  0 I1Cent=           0 NGrid=           0
         NMat0=    1 NMatS0=      1 NMatT0=    0 NMatD0=    1 NMtDS0=    0 NMtDT0=    0
 Symmetry not used in FoFCou.
 End of G2Drv F.D. properties file   721 does not exist.
 End of G2Drv F.D. properties file   722 does not exist.
 End of G2Drv F.D. properties file   788 does not exist.
 Leave Link 1110 at Fri May 23 07:32:44 2025, MaxMem=  3758096384 cpu:              94.5 elap:              11.9
 (Enter /apps/easybuild-2022/easybuild/software/Compiler/NVHPC/22.11-CUDA-11.7.0/Gaussian/g16c01-CUDA-11.7.0/g16/l1002.exe)
 Minotr:  Closed shell wavefunction.
          IDoAtm=111111111111
          Direct CPHF calculation.
          Differentiating once with respect to electric field.
                with respect to dipole field.
          Differentiating once with respect to nuclear coordinates.
          Requested convergence is 1.0D-08 RMS, and 1.0D-07 maximum.
          Secondary convergence is 1.0D-12 RMS, and 1.0D-12 maximum.
          NewPWx=T KeepS1=F KeepF1=F KeepIn=T MapXYZ=F SortEE=F KeepMc=T.
         3710 words used for storage of precomputed grid.
 Keep R1 ints in memory in canonical form, NReq=1117480302.
 FoFCou: FMM=F IPFlag=           0 FMFlag=           0 FMFlg1=           0
         NFxFlg=           0 DoJE=F BraDBF=F KetDBF=F FulRan=T
         wScrn=  0.000000 ICntrl=       600 IOpCl=  0 I1Cent=           0 NGrid=           0
         NMat0=    1 NMatS0=  33153 NMatT0=    0 NMatD0=    1 NMtDS0=    0 NMtDT0=    0
 Symmetry not used in FoFCou.
 Two-electron integral symmetry not used.
          MDV=    3758096384 using IRadAn=       1.
          Solving linear equations simultaneously, MaxMat=       0.
          There are    39 degrees of freedom in the 1st order CPHF.  IDoFFX=6 NUNeed=     3.
     36 vectors produced by pass  0 Test12= 2.61D-14 2.56D-09 XBig12= 3.69D+01 3.53D+00.
 AX will form    36 AO Fock derivatives at one time.
     36 vectors produced by pass  1 Test12= 2.61D-14 2.56D-09 XBig12= 8.08D+00 6.97D-01.
     36 vectors produced by pass  2 Test12= 2.61D-14 2.56D-09 XBig12= 4.88D-01 1.30D-01.
     36 vectors produced by pass  3 Test12= 2.61D-14 2.56D-09 XBig12= 9.11D-03 2.32D-02.
     36 vectors produced by pass  4 Test12= 2.61D-14 2.56D-09 XBig12= 1.83D-04 2.77D-03.
     36 vectors produced by pass  5 Test12= 2.61D-14 2.56D-09 XBig12= 2.36D-06 2.35D-04.
     36 vectors produced by pass  6 Test12= 2.61D-14 2.56D-09 XBig12= 1.89D-08 1.95D-05.
     26 vectors produced by pass  7 Test12= 2.61D-14 2.56D-09 XBig12= 1.40D-10 1.27D-06.
      7 vectors produced by pass  8 Test12= 2.61D-14 2.56D-09 XBig12= 9.38D-13 1.10D-07.
      3 vectors produced by pass  9 Test12= 2.61D-14 2.56D-09 XBig12= 6.91D-15 1.23D-08.
 InvSVY:  IOpt=1 It=  1 EMax= 3.55D-15
 Solved reduced A of dimension   288 with    39 vectors.
 FullF1:  Do perturbations      1 to       3.
 Isotropic polarizability for W=    0.000000       68.67 Bohr**3.
 End of Minotr F.D. properties file   721 does not exist.
 End of Minotr F.D. properties file   722 does not exist.
 End of Minotr F.D. properties file   788 does not exist.
 Leave Link 1002 at Fri May 23 07:33:11 2025, MaxMem=  3758096384 cpu:             214.8 elap:              27.6
 (Enter /apps/easybuild-2022/easybuild/software/Compiler/NVHPC/22.11-CUDA-11.7.0/Gaussian/g16c01-CUDA-11.7.0/g16/l701.exe)
 ... and contract with generalized density number  0.
 Compute integral second derivatives.
 R6Disp: Adding Grimme-D2 dispersion energy 2nd derivatives to the Hessian.
 Leave Link  701 at Fri May 23 07:33:12 2025, MaxMem=  3758096384 cpu:               0.9 elap:               0.2
 (Enter /apps/easybuild-2022/easybuild/software/Compiler/NVHPC/22.11-CUDA-11.7.0/Gaussian/g16c01-CUDA-11.7.0/g16/l702.exe)
 L702 exits ... SP integral derivatives will be done elsewhere.
 Leave Link  702 at Fri May 23 07:33:12 2025, MaxMem=  3758096384 cpu:               0.1 elap:               0.0
 (Enter /apps/easybuild-2022/easybuild/software/Compiler/NVHPC/22.11-CUDA-11.7.0/Gaussian/g16c01-CUDA-11.7.0/g16/l703.exe)
 Integral derivatives from FoFJK, PRISM(SPDF).
 Compute integral second derivatives, UseDBF=F ICtDFT=           0.
 Calling FoFJK, ICntrl=    100127 FMM=F ISym2X=0 I1Cent= 0 IOpClX= 0 NMat=1 NMatS=1 NMatT=0.
 FoFJK:  IHMeth= 1 ICntrl=  100127 DoSepK=T KAlg= 0 I1Cent=           0 FoldK=F
 IRaf=         1 NMat=       1 IRICut=       1 DoRegI=T DoRafI=F ISym2E= 0 IDoP0=0 IntGTp=1.
 FoFCou: FMM=F IPFlag=           0 FMFlag=      100000 FMFlg1=         800
         NFxFlg=           0 DoJE=F BraDBF=F KetDBF=F FulRan=T
         wScrn=  0.000000 ICntrl=    100527 IOpCl=  0 I1Cent=           0 NGrid=           0
         NMat0=    1 NMatS0=      1 NMatT0=    0 NMatD0=    1 NMtDS0=    0 NMtDT0=    0
 Symmetry not used in FoFCou.
 Leave Link  703 at Fri May 23 07:33:47 2025, MaxMem=  3758096384 cpu:             278.3 elap:              35.3
 (Enter /apps/easybuild-2022/easybuild/software/Compiler/NVHPC/22.11-CUDA-11.7.0/Gaussian/g16c01-CUDA-11.7.0/g16/l716.exe)
 Dipole        =-2.47788352D-01 3.89114562D-01-3.52816746D-02
 Polarizability= 6.51770946D+01 4.43868653D+00 5.86804649D+01
                -4.82247452D+00 9.09585214D+00 8.21663509D+01
 -------------------------------------------------------------------
 Center     Atomic                   Forces (Hartrees/Bohr)
 Number     Number              X              Y              Z
 -------------------------------------------------------------------
      1        6          -0.016769278   -0.032751880   -0.011177721
      2        6          -0.002886674    0.006796502    0.003207564
      3        9           0.001576370    0.003384444   -0.021750654
      4        9           0.011949996   -0.009333887    0.023014758
      5       16           0.014472475    0.022207789   -0.017826867
      6        8          -0.013048817   -0.003248450    0.003718244
      7        8          -0.002859426   -0.035063230   -0.019200754
      8        8          -0.014279635    0.024988567    0.019176648
      9        9           0.008695796    0.015882876   -0.007819655
     10        9           0.015410789    0.006723130    0.012488554
     11        9          -0.007848562    0.015728945    0.008613303
     12        1           0.005586967   -0.015314806    0.007556581
 -------------------------------------------------------------------
 Cartesian Forces:  Max     0.035063230 RMS     0.015221930
 Force constants in Cartesian coordinates: 
                1             2             3             4             5 
      1  0.545280D+00
      2  0.272344D-01  0.583592D+00
      3  0.101863D-01  0.209996D-01  0.558054D+00
      4 -0.865063D-01 -0.258229D-01 -0.622995D-02  0.392632D+00
      5 -0.679939D-01 -0.150009D+00 -0.360403D-01 -0.516410D-01  0.542588D+00
      6 -0.250872D-01 -0.380134D-01 -0.572954D-01  0.258414D-01 -0.359356D-02
      7  0.158577D-02 -0.282408D-02  0.113547D-02 -0.107186D+00  0.950489D-01
      8  0.293374D-01 -0.328131D-01  0.313366D-01  0.853197D-01 -0.244400D+00
      9 -0.124420D-02  0.500906D-02 -0.176803D-02 -0.526109D-01  0.991796D-01
     10  0.147938D-02 -0.167151D-02 -0.688906D-02 -0.870055D-01  0.189677D-01
     11  0.146882D-01  0.250040D-02 -0.319542D-01  0.681768D-02 -0.784062D-01
     12  0.151479D-01  0.806555D-04 -0.356389D-01  0.401819D-01 -0.608526D-01
     13 -0.102788D-01 -0.212316D-01 -0.827453D-02 -0.103443D+00  0.325411D-01
     14 -0.257681D-01  0.109033D-01  0.151588D-02 -0.332612D-02 -0.284762D-01
     15 -0.125882D-01  0.915986D-02  0.203200D-01 -0.851596D-02 -0.906836D-03
     16 -0.497731D-03 -0.146745D-02  0.570065D-03  0.141257D-01  0.829857D-03
     17  0.321448D-03 -0.566070D-03  0.122916D-03  0.930724D-03 -0.119746D-02
     18  0.598854D-03 -0.507298D-03  0.564610D-04  0.227481D-02 -0.178512D-02
     19  0.283804D-02  0.382977D-02 -0.360670D-02  0.923560D-02  0.819129D-04
     20  0.477493D-02 -0.506827D-02 -0.226069D-02  0.195256D-02  0.329225D-02
     21  0.524292D-02 -0.103795D-01 -0.130768D-01  0.712465D-02  0.347240D-02
     22 -0.394148D-02  0.698526D-02  0.291099D-02 -0.598096D-02 -0.238671D-01
     23  0.257324D-02  0.483204D-02  0.196484D-02 -0.289250D-02 -0.231352D-01
     24 -0.140122D-02  0.478271D-03 -0.237642D-02 -0.221947D-02 -0.112864D-02
     25 -0.760514D-01 -0.283091D-02  0.703046D-02  0.812019D-02  0.255957D-02
     26 -0.280884D-02 -0.933790D-01 -0.496494D-01  0.255378D-02  0.472176D-02
     27  0.436417D-02 -0.549646D-01 -0.289124D+00  0.162490D-02  0.394414D-02
     28 -0.102512D+00  0.627109D-01 -0.286542D-01  0.522257D-02 -0.458748D-04
     29  0.591725D-01 -0.231779D+00  0.597584D-01  0.232572D-01 -0.250032D-01
     30 -0.287922D-01  0.618622D-01 -0.100704D+00 -0.205577D-02  0.147482D-02
     31 -0.272138D+00 -0.437003D-01  0.321414D-01 -0.422455D-01 -0.180627D-02
     32 -0.416057D-01 -0.864383D-01  0.431578D-02 -0.375183D-01 -0.163723D-02
     33  0.336080D-01  0.516631D-02 -0.794765D-01 -0.452938D-02 -0.190245D-02
     34  0.742729D-03 -0.121157D-02 -0.320281D-03  0.303048D-02 -0.467489D-02
     35  0.743514D-04 -0.177412D-02 -0.109474D-03  0.369238D-03  0.166329D-02
     36 -0.350760D-04  0.110879D-02  0.102987D-02 -0.886230D-03 -0.186148D-02
                6             7             8             9            10 
      6  0.477941D+00
      7 -0.576684D-01  0.986788D-01
      8  0.908238D-01 -0.105570D+00  0.284727D+00
      9 -0.114980D+00  0.718466D-01 -0.158161D+00  0.197777D+00
     10  0.732595D-01  0.156309D-01 -0.631039D-03 -0.177832D-01  0.856404D-01
     11 -0.427352D-01 -0.409403D-02  0.544079D-02  0.509536D-01 -0.187440D-01
     12 -0.218406D+00  0.213821D-02  0.383325D-01 -0.900763D-01 -0.768904D-01
     13 -0.257730D-01 -0.193105D-01  0.456121D-02 -0.497623D-02 -0.619575D-04
     14 -0.751482D-02  0.219907D-01 -0.158090D-01  0.843965D-02  0.143100D-02
     15 -0.427640D-01 -0.296823D-01  0.172819D-01 -0.866447D-02  0.298435D-01
     16 -0.181551D-01 -0.202647D-02 -0.136414D-02  0.331913D-02 -0.761448D-02
     17 -0.564138D-02 -0.326934D-03 -0.368533D-04  0.121752D-02  0.214515D-02
     18 -0.144065D-01 -0.134218D-02 -0.439111D-03  0.180900D-02  0.600108D-02
     19  0.275751D-01  0.387174D-02 -0.155051D-02 -0.931502D-03 -0.123606D-01
     20 -0.138279D-02 -0.205696D-02  0.225350D-02  0.101202D-03  0.199198D-02
     21 -0.474591D-02  0.969767D-02 -0.825876D-02  0.802662D-02 -0.122698D-02
     22 -0.227513D-02  0.309144D-02 -0.500442D-02  0.182976D-02  0.895566D-03
     23  0.244857D-02  0.116528D-02  0.901414D-02 -0.267790D-02 -0.737381D-04
     24  0.258577D-03  0.143647D-02 -0.357229D-02  0.132538D-02 -0.184478D-02
     25 -0.846609D-02  0.632534D-03 -0.221675D-02  0.954372D-03 -0.339418D-03
     26 -0.257858D-01 -0.347489D-03  0.107982D-02 -0.775699D-03 -0.279722D-02
     27 -0.303325D-01  0.898374D-03 -0.317268D-02  0.463274D-02 -0.359987D-02
     28 -0.125936D-02  0.144169D-02 -0.228999D-02  0.362492D-03  0.601818D-03
     29  0.265237D-01 -0.371943D-02 -0.122752D-01 -0.205749D-02 -0.152064D-02
     30  0.170180D-02  0.605409D-03 -0.175589D-02  0.127699D-02  0.387542D-03
     31  0.714248D-02  0.428228D-02 -0.408757D-02  0.894151D-03  0.389536D-02
     32  0.354803D-02  0.906864D-03  0.205310D-02 -0.505483D-03  0.434043D-03
     33  0.275877D-02  0.198848D-03 -0.197796D-02  0.109155D-02 -0.212972D-02
     34  0.486579D-02 -0.692305D-03  0.349647D-02 -0.166048D-02 -0.761438D-03
     35  0.132294D-02 -0.172518D-03  0.765796D-03 -0.723004D-03  0.468294D-03
     36  0.270182D-03  0.735773D-03 -0.437058D-03 -0.450577D-03  0.872371D-03
               11            12            13            14            15 
     11  0.731795D-01
     12  0.257377D-01  0.338298D+00
     13 -0.883446D-02 -0.158296D-01  0.249133D+00
     14  0.676366D-02  0.114505D-01 -0.178921D-01  0.352877D+00
     15 -0.432855D-02 -0.148362D-01 -0.995876D-01  0.440590D-01  0.679871D+00
     16  0.705771D-02  0.254923D-01  0.130425D-01 -0.714148D-02  0.237330D-02
     17 -0.142828D-02  0.471375D-02  0.323267D-02 -0.503918D-02 -0.408141D-02
     18  0.344347D-02  0.962570D-02  0.674645D-02 -0.639443D-02 -0.627003D-02
     19  0.355747D-02  0.125127D-01 -0.921261D-01  0.346830D-01  0.132205D+00
     20 -0.730864D-03 -0.488511D-02  0.256716D-01 -0.722660D-01 -0.710483D-01
     21  0.314728D-02  0.487354D-02  0.145626D+00 -0.104505D+00 -0.554113D+00
     22  0.188470D-02  0.274648D-03 -0.460044D-01  0.354799D-02 -0.202162D-01
     23  0.265909D-03 -0.249654D-02 -0.365944D-01 -0.207975D+00 -0.128790D-01
     24  0.198607D-03  0.555912D-02 -0.173448D-02  0.534976D-01 -0.694080D-01
     25 -0.322761D-02 -0.274672D-02 -0.523804D-03  0.235276D-02  0.287793D-02
     26 -0.681483D-02 -0.727261D-02  0.252141D-02 -0.169731D-02 -0.124933D-02
     27 -0.650215D-02 -0.470232D-02  0.416535D-02 -0.959964D-03 -0.718380D-02
     28 -0.421809D-03  0.517032D-03 -0.265214D-03  0.347494D-02  0.109932D-02
     29 -0.116280D-02 -0.501362D-02  0.299326D-02 -0.319780D-02 -0.200691D-02
     30  0.121241D-02  0.380449D-02 -0.302474D-03  0.772400D-03 -0.287094D-02
     31  0.646656D-03  0.924092D-04  0.771464D-02 -0.660311D-03 -0.267427D-02
     32  0.618453D-03  0.958414D-03  0.628716D-02 -0.410664D-02 -0.402906D-02
     33  0.768839D-03  0.338824D-02  0.539707D-03 -0.666091D-03 -0.243320D-02
     34  0.669462D-03 -0.890294D-03  0.212370D-02 -0.126923D-01  0.486588D-02
     35 -0.225710D-03 -0.753068D-03  0.674415D-02 -0.319769D-01  0.300287D-01
     36  0.582624D-04 -0.188873D-02 -0.599477D-03  0.305566D-03  0.835286D-02
               16            17            18            19            20 
     16 -0.121144D-01
     17 -0.339264D-02  0.491571D-02
     18 -0.150883D-01  0.484823D-03  0.224703D-01
     19 -0.391405D-02 -0.118848D-02 -0.200239D-02  0.808427D-01
     20  0.139457D-02  0.199471D-02  0.185991D-02 -0.373842D-01  0.959123D-01
     21 -0.260092D-02 -0.129052D-02 -0.352812D-02 -0.172001D+00  0.143111D+00
     22  0.638335D-03 -0.125235D-02  0.170111D-02  0.165026D-01  0.523305D-02
     23  0.177683D-02  0.533974D-03  0.308073D-02  0.250324D-02 -0.378632D-01
     24  0.735353D-03  0.415553D-02 -0.103593D-01  0.415113D-02 -0.668591D-01
     25  0.161583D-03 -0.139794D-04 -0.424351D-04 -0.185099D-02 -0.123804D-02
     26  0.118132D-02  0.255828D-03  0.617578D-03 -0.151207D-02  0.967823D-03
     27  0.164703D-02  0.180257D-03  0.911967D-03  0.444031D-03  0.102699D-02
     28 -0.441340D-03 -0.229914D-03 -0.384563D-03 -0.444354D-04 -0.163877D-02
     29  0.755739D-03  0.465190D-03  0.487995D-03 -0.127331D-02  0.125709D-02
     30 -0.546662D-04 -0.102093D-03 -0.119857D-05  0.872778D-03  0.171680D-03
     31 -0.998609D-03 -0.279573D-03 -0.851840D-03 -0.120633D-02  0.240629D-04
     32 -0.177692D-03  0.560033D-04 -0.134380D-03 -0.775982D-03  0.123848D-02
     33  0.305127D-03  0.545351D-04  0.225440D-03  0.486397D-03  0.442182D-03
     34 -0.360952D-03  0.538856D-04  0.238940D-02 -0.178816D-02  0.127523D-02
     35  0.547373D-03  0.464251D-04 -0.714163D-03 -0.970785D-03  0.901209D-02
     36  0.145672D-02  0.186068D-03 -0.533690D-03  0.294697D-03 -0.276799D-03
               21            22            23            24            25 
     21  0.564364D+00
     22  0.868786D-02  0.117877D+00
     23 -0.284807D-01 -0.462057D-01  0.383601D+00
     24 -0.609734D-02  0.148532D+00 -0.131926D+00  0.369209D+00
     25 -0.244440D-02  0.537721D-03 -0.909422D-03  0.271795D-04  0.897574D-01
     26  0.167280D-02 -0.962211D-03 -0.549835D-03  0.143434D-03 -0.867660D-02
     27  0.654608D-02 -0.145868D-02 -0.950306D-03  0.119089D-02 -0.398523D-01
     28 -0.738342D-03  0.901805D-03 -0.663448D-03  0.731714D-03  0.980390D-02
     29  0.212585D-02 -0.123679D-02 -0.464594D-04 -0.336997D-03  0.812025D-02
     30  0.138594D-02  0.229331D-03 -0.134351D-03  0.843371D-03 -0.287431D-01
     31  0.167929D-02 -0.184933D-02 -0.333671D-02  0.138093D-03 -0.301606D-01
     32  0.332231D-02 -0.234799D-02 -0.180868D-02 -0.160706D-03  0.598799D-02
     33  0.193773D-02 -0.402109D-03 -0.163340D-03  0.300751D-03  0.714367D-01
     34  0.953166D-03 -0.826683D-01  0.826573D-01 -0.148552D+00 -0.870388D-04
     35 -0.393678D-02  0.632255D-01 -0.126868D+00  0.145510D+00  0.927434D-04
     36 -0.557259D-02 -0.139813D+00  0.172214D+00 -0.290446D+00 -0.316205D-04
               26            27            28            29            30 
     26  0.762516D-01
     27  0.266846D-01  0.437547D+00
     28  0.866973D-02 -0.210990D-01  0.161706D+00
     29  0.258625D-02  0.365762D-01 -0.126777D+00  0.269456D+00
     30  0.540702D-01 -0.721857D-01  0.696312D-01 -0.120387D+00  0.152140D+00
     31  0.191925D-02  0.528104D-01 -0.758795D-01  0.393519D-01 -0.115502D-01
     32  0.163022D-01 -0.196382D-02  0.573405D-01 -0.726035D-03  0.299641D-02
     33  0.174733D-02 -0.466932D-01 -0.201600D-01  0.445049D-02  0.147546D-01
     34  0.258934D-03  0.556057D-04 -0.535496D-03  0.876262D-03 -0.227882D-03
     35  0.275736D-03  0.101408D-03 -0.129320D-03  0.425909D-03 -0.180875D-03
     36 -0.203042D-03 -0.606934D-03 -0.462592D-04 -0.120658D-03 -0.145542D-03
               31            32            33            34            35 
     31  0.408584D+00
     32  0.111540D-01  0.738613D-01
     33 -0.794498D-01 -0.794808D-02  0.104306D+00
     34  0.135563D-05  0.315078D-03  0.962169D-04  0.809954D-01
     35  0.774827D-03  0.587417D-03  0.282394D-04 -0.710239D-01  0.148068D+00
     36 -0.372162D-03 -0.399419D-03 -0.159733D-03  0.138425D+00 -0.170574D+00
               36 
     36  0.290151D+00
 FormGI is forming the generalized inverse of G from B-inverse, IUseBI=4.
 Leave Link  716 at Fri May 23 07:33:47 2025, MaxMem=  3758096384 cpu:               0.1 elap:               0.0
 (Enter /apps/easybuild-2022/easybuild/software/Compiler/NVHPC/22.11-CUDA-11.7.0/Gaussian/g16c01-CUDA-11.7.0/g16/l103.exe)

 GradGradGradGradGradGradGradGradGradGradGradGradGradGradGradGradGradGrad
 Berny optimization.
 Red2BG is reusing G-inverse.
 Internal  Forces:  Max     0.042371516 RMS     0.015584470
 Search for a saddle point.
 Step number   1 out of a maximum of  100
 All quantities printed in internal units (Hartrees-Bohrs-Radians)
 Swapping is turned off.
 Second derivative matrix not updated -- analytic derivatives used.
 ITU=  0
     Eigenvalues ---   -0.03414  -0.00550   0.00165   0.00257   0.02430
     Eigenvalues ---    0.03625   0.07319   0.08100   0.09230   0.09907
     Eigenvalues ---    0.10322   0.11164   0.12548   0.15690   0.18466
     Eigenvalues ---    0.19360   0.23008   0.23413   0.24005   0.27027
     Eigenvalues ---    0.29560   0.33804   0.35103   0.37964   0.39050
     Eigenvalues ---    0.46722   0.48058   0.57540   0.60466   0.66909
 Eigenvectors required to have negative eigenvalues:
                          R8        D12       D10       A12       A14
   1                   -0.90054   0.17479   0.16998   0.16116  -0.13030
                          D11       D19       R6        D2        D8
   1                    0.12964   0.08982   0.08812  -0.07582  -0.07546
 Eigenvalue     2 is  -5.50D-03 should be greater than     0.000000 Eigenvector:
                          D12       D11       D10       D17       D18
   1                    0.46907   0.42346   0.41626  -0.28547  -0.27519
                          D15       D16       D13       D14       R8
   1                   -0.25685  -0.24656  -0.23692  -0.22663   0.15197
 RFO step:  Lambda0=4.868560588D-03 Lambda=-3.25929976D-02.
 Linear search not attempted -- option 19 set.
 Maximum step size (   0.300) exceeded in Quadratic search.
    -- Step size scaled by   0.825
 Iteration  1 RMS(Cart)=  0.13337267 RMS(Int)=  0.03684965
 Iteration  2 RMS(Cart)=  0.06501513 RMS(Int)=  0.00400762
 Iteration  3 RMS(Cart)=  0.00425807 RMS(Int)=  0.00082556
 Iteration  4 RMS(Cart)=  0.00001709 RMS(Int)=  0.00082551
 Iteration  5 RMS(Cart)=  0.00000000 RMS(Int)=  0.00082551
 ITry= 1 IFail=0 DXMaxC= 6.91D-01 DCOld= 1.00D+10 DXMaxT= 3.00D-01 DXLimC= 3.00D+00 Rises=F
 Variable       Old X    -DE/DX   Delta X   Delta X   Delta X     New X
                                 (Linear)    (Quad)   (Total)
    R1        2.91768  -0.00532   0.00000  -0.00523  -0.00523   2.91245
    R2        2.49943   0.00624   0.00000  -0.00001  -0.00001   2.49942
    R3        2.51840   0.00682   0.00000  -0.00060  -0.00060   2.51780
    R4        2.51029   0.00780   0.00000  -0.00303  -0.00303   2.50726
    R5        2.49904   0.01306   0.00000   0.02308   0.02308   2.52213
    R6        2.54508   0.02322   0.00000  -0.00110  -0.00110   2.54398
    R7        3.64291   0.00292   0.00000  -0.02477  -0.02477   3.61814
    R8        4.03753  -0.00904   0.00000   0.15201   0.15201   4.18954
    R9        2.74562   0.02376   0.00000   0.01198   0.01198   2.75760
   R10        3.04925   0.00825   0.00000   0.00746   0.00746   3.05671
   R11        1.85710  -0.01559   0.00000  -0.01977  -0.01977   1.83733
    A1        1.97975  -0.02054   0.00000  -0.04303  -0.04394   1.93581
    A2        1.96492  -0.02300   0.00000  -0.04946  -0.05041   1.91451
    A3        1.97840  -0.01898   0.00000  -0.03536  -0.03604   1.94236
    A4        1.84739   0.02390   0.00000   0.04655   0.04541   1.89280
    A5        1.84583   0.02255   0.00000   0.04625   0.04563   1.89146
    A6        1.83515   0.02388   0.00000   0.05102   0.05032   1.88548
    A7        1.94627  -0.00162   0.00000  -0.01767  -0.01763   1.92864
    A8        1.92255  -0.01889   0.00000  -0.00331  -0.00338   1.91917
    A9        1.96329  -0.00160   0.00000   0.03664   0.03667   1.99996
   A10        1.80421   0.01253   0.00000   0.05071   0.05072   1.85493
   A11        1.96172  -0.00632   0.00000  -0.05508  -0.05489   1.90683
   A12        1.85666   0.01731   0.00000  -0.00931  -0.00942   1.84725
   A13        1.93443   0.04237   0.00000   0.09841   0.09841   2.03283
   A14        1.86212  -0.01279   0.00000  -0.00685  -0.00380   1.85831
   A15        1.72269  -0.02402   0.00000  -0.10199  -0.10127   1.62142
   A16        1.71221   0.03575   0.00000   0.12384   0.12364   1.83585
   A17        2.01528  -0.01562   0.00000  -0.07216  -0.07216   1.94312
    D1        0.92991  -0.00458   0.00000  -0.03211  -0.03221   0.89770
    D2        2.92262  -0.00149   0.00000   0.01759   0.01737   2.93999
    D3       -1.29249   0.00661   0.00000   0.02719   0.02708  -1.26540
    D4        3.02728  -0.00533   0.00000  -0.03926  -0.03910   2.98818
    D5       -1.26320  -0.00224   0.00000   0.01044   0.01048  -1.25271
    D6        0.80488   0.00585   0.00000   0.02004   0.02019   0.82508
    D7       -1.17553  -0.00453   0.00000  -0.03403  -0.03397  -1.20950
    D8        0.81718  -0.00144   0.00000   0.01567   0.01562   0.83280
    D9        2.88526   0.00666   0.00000   0.02527   0.02533   2.91059
   D10        2.31912  -0.00148   0.00000  -0.32622  -0.32638   1.99274
   D11       -1.88258  -0.00546   0.00000  -0.32035  -0.32008  -2.20265
   D12        0.18672   0.00068   0.00000  -0.36295  -0.36306  -0.17634
   D13        1.02885  -0.01484   0.00000   0.05944   0.05919   1.08804
   D14        2.79565   0.01244   0.00000   0.15570   0.15585   2.95150
   D15       -1.18531  -0.00608   0.00000   0.09877   0.09868  -1.08664
   D16        0.58149   0.02119   0.00000   0.19504   0.19533   0.77683
   D17        3.13524  -0.02769   0.00000   0.07078   0.07053  -3.07742
   D18       -1.38114  -0.00042   0.00000   0.16704   0.16719  -1.21395
   D19       -1.04930   0.00274   0.00000  -0.05886  -0.05587  -1.10516
   D20        0.84226  -0.00782   0.00000  -0.06058  -0.06357   0.77869
         Item               Value     Threshold  Converged?
 Maximum Force            0.042372     0.000450     NO 
 RMS     Force            0.015584     0.000300     NO 
 Maximum Displacement     0.691044     0.001800     NO 
 RMS     Displacement     0.178199     0.001200     NO 
 Predicted change in Energy=-1.722013D-02
 Lowest energy point so far.  Saving SCF results.
 GradGradGradGradGradGradGradGradGradGradGradGradGradGradGradGradGradGrad

 Leave Link  103 at Fri May 23 07:33:47 2025, MaxMem=  3758096384 cpu:               0.1 elap:               0.0
 (Enter /apps/easybuild-2022/easybuild/software/Compiler/NVHPC/22.11-CUDA-11.7.0/Gaussian/g16c01-CUDA-11.7.0/g16/l202.exe)
                          Input orientation:                          
 ---------------------------------------------------------------------
 Center     Atomic      Atomic             Coordinates (Angstroms)
 Number     Number       Type             X           Y           Z
 ---------------------------------------------------------------------
      1          6           0       -0.587432   -1.335402   -0.441941
      2          6           0        0.044361    0.023532   -0.082156
      3          9           0       -0.404881    0.978782   -0.898842
      4          9           0       -0.323040    0.386392    1.161087
      5         16           0        1.958935    0.038129   -0.086496
      6          8           0        1.289554    0.483702    2.679376
      7          8           0        2.371984   -0.266909   -1.452433
      8          8           0        2.028754    1.650148    0.027307
      9          9           0       -0.447046   -1.594766   -1.731276
     10          9           0        0.008667   -2.305087    0.250563
     11          9           0       -1.881363   -1.357629   -0.149358
     12          1           0        1.635506    2.077144   -0.752657
 ---------------------------------------------------------------------
                    Distance matrix (angstroms):
                    1          2          3          4          5
     1  C    0.000000
     2  C    1.541203   0.000000
     3  F    2.365910   1.334653   0.000000
     4  F    2.367313   1.346218   2.144978   0.000000
     5  S    2.914946   1.914635   2.670648   2.623959   0.000000
     6  O    4.071220   3.064036   3.989970   2.217009   2.880391
     7  O    3.304681   2.716588   3.093411   3.810570   1.459262
     8  O    3.997266   2.568206   2.689064   2.900599   1.617539
     9  F    1.322635   2.362195   2.705157   3.508009   3.340718
    10  F    1.332360   2.352539   3.503705   2.860618   3.067216
    11  F    1.326784   2.370766   2.863659   2.680904   4.086561
    12  H    4.084540   2.683028   2.321842   3.218223   2.169322
                    6          7          8          9         10
     6  O    0.000000
     7  O    4.336695   0.000000
     8  O    2.990064   2.445925   0.000000
     9  F    5.175873   3.128561   4.444285   0.000000
    10  F    3.913713   3.555226   4.446850   2.154046   0.000000
    11  F    4.631085   4.580244   4.936289   2.148479   2.151703
    12  H    3.799682   2.554735   0.972272   4.333318   4.780900
                   11         12
    11  F    0.000000
    12  H    4.952778   0.000000
 Symmetry turned off by external request.
 Stoichiometry    C2HF5O3S
 Rotational constants (GHZ):           1.3046303           0.8255287           0.7005253
 Leave Link  202 at Fri May 23 07:33:47 2025, MaxMem=  3758096384 cpu:               0.1 elap:               0.0
 (Enter /apps/easybuild-2022/easybuild/software/Compiler/NVHPC/22.11-CUDA-11.7.0/Gaussian/g16c01-CUDA-11.7.0/g16/l301.exe)
 Standard basis: 6-311++G(d,p) (5D, 7F)
 Ernie: Thresh=  0.10000D-02 Tol=  0.10000D-05 Strict=F.
   257 basis functions,   419 primitive gaussians,   268 cartesian basis functions
    49 alpha electrons       49 beta electrons
       nuclear repulsion energy       883.7889196423 Hartrees.
 IExCor= 4639 DFT=T Ex+Corr=wB97XD ExCW=0 ScaHFX=  1.000000
 ScaDFX=  1.000000  1.000000  1.000000  1.000000 ScalE2=  1.000000  1.000000
 IRadAn=      5 IRanWt=     -1 IRanGd=            0 ICorTp=0 IEmpDi=121
 HFx  wShort=  0.000000 wLong=  0.200000 cFull=  0.222036 cShort=  0.000000 cLong=  0.777964
 DFx  wShort=  0.000000 wLong=  0.200000 cFull=  0.000000 cShort=  0.000000 cLong=  1.000000
 NAtoms=   12 NActive=   12 NUniq=   12 SFac= 1.00D+00 NAtFMM=   60 NAOKFM=F Big=F
 Integral buffers will be    131072 words long.
 Raffenetti 2 integral format.
 Two-electron integral symmetry is turned off.
 R6Disp:  Grimme-D2 Dispersion energy=       -0.0054159268 Hartrees.
 Nuclear repulsion after empirical dispersion term =      883.7835037154 Hartrees.
 Leave Link  301 at Fri May 23 07:33:47 2025, MaxMem=  3758096384 cpu:               0.1 elap:               0.1
 (Enter /apps/easybuild-2022/easybuild/software/Compiler/NVHPC/22.11-CUDA-11.7.0/Gaussian/g16c01-CUDA-11.7.0/g16/l302.exe)
 NPDir=0 NMtPBC=     1 NCelOv=     1 NCel=       1 NClECP=     1 NCelD=      1
         NCelK=      1 NCelE2=     1 NClLst=     1 CellRange=     0.0.
 One-electron integrals computed using PRISM.
 NBasis=   257 RedAO= T EigKep=  5.02D-05  NBF=   257
 NBsUse=   257 1.00D-06 EigRej= -1.00D+00 NBFU=   257
 Precomputing XC quadrature grid using
 IXCGrd= 4 IRadAn=           5 IRanWt=          -1 IRanGd=           0 AccXCQ= 0.00D+00.
 Generated NRdTot=       0 NPtTot=           0 NUsed=           0 NTot=          32
 NSgBfM=   268   268   268   268   268 MxSgAt=    12 MxSgA2=    12.
 Leave Link  302 at Fri May 23 07:33:48 2025, MaxMem=  3758096384 cpu:               0.7 elap:               0.2
 (Enter /apps/easybuild-2022/easybuild/software/Compiler/NVHPC/22.11-CUDA-11.7.0/Gaussian/g16c01-CUDA-11.7.0/g16/l303.exe)
 DipDrv:  MaxL=1.
 Leave Link  303 at Fri May 23 07:33:48 2025, MaxMem=  3758096384 cpu:               0.1 elap:               0.0
 (Enter /apps/easybuild-2022/easybuild/software/Compiler/NVHPC/22.11-CUDA-11.7.0/Gaussian/g16c01-CUDA-11.7.0/g16/l401.exe)
 Initial guess from the checkpoint file:  "/tmp/Gau-63036.chk"
 B after Tr=     0.032912    0.018081   -0.019893
         Rot=    0.999984    0.003742    0.000636    0.004171 Ang=   0.65 deg.
 Guess basis will be translated and rotated to current coordinates.
 JPrj=2 DoOrth=T DoCkMO=T.
 Generating alternative initial guess.
 ExpMin= 3.60D-02 ExpMax= 9.34D+04 ExpMxC= 3.17D+03 IAcc=3 IRadAn=         5 AccDes= 0.00D+00
 Harris functional with IExCor= 4639 and IRadAn=       5 diagonalized for initial guess.
 HarFok:  IExCor= 4639 AccDes= 0.00D+00 IRadAn=         5 IDoV= 1 UseB2=F ITyADJ=14
 ICtDFT=  3500011 ScaDFX=  1.000000  1.000000  1.000000  1.000000
 FoFCou: FMM=F IPFlag=           0 FMFlag=      100000 FMFlg1=           0
         NFxFlg=           0 DoJE=T BraDBF=F KetDBF=T FulRan=T
         wScrn=  0.000000 ICntrl=       500 IOpCl=  0 I1Cent=   200000004 NGrid=           0
         NMat0=    1 NMatS0=      1 NMatT0=    0 NMatD0=    1 NMtDS0=    0 NMtDT0=    0
 Symmetry not used in FoFCou.
 Harris En= -1167.00253655545    
 Leave Link  401 at Fri May 23 07:33:48 2025, MaxMem=  3758096384 cpu:               2.7 elap:               0.4
 (Enter /apps/easybuild-2022/easybuild/software/Compiler/NVHPC/22.11-CUDA-11.7.0/Gaussian/g16c01-CUDA-11.7.0/g16/l502.exe)
 Keep R1 ints in memory in canonical form, NReq=1117474609.
 FoFCou: FMM=F IPFlag=           0 FMFlag=           0 FMFlg1=           0
         NFxFlg=           0 DoJE=F BraDBF=F KetDBF=F FulRan=T
         wScrn=  0.000000 ICntrl=       600 IOpCl=  0 I1Cent=           0 NGrid=           0
         NMat0=    1 NMatS0=  33153 NMatT0=    0 NMatD0=    1 NMtDS0=    0 NMtDT0=    0
 Symmetry not used in FoFCou.
 Two-electron integral symmetry not used.
 Closed shell SCF:
 Using DIIS extrapolation, IDIIS=  1040.
 NGot=  3758096384 LenX=  2658793876 LenY=  2658721611
 Requested convergence on RMS density matrix=1.00D-08 within  32 cycles.
 Requested convergence on MAX density matrix=1.00D-06.
[...]
     20  0.549862D-03 -0.672196D-02  0.539484D-01 -0.127065D+00 -0.146043D+00
     21  0.479892D-02  0.226557D-01  0.162375D+00 -0.180816D+00 -0.478615D+00
     22  0.155801D-02  0.897545D-02 -0.385152D-01 -0.102721D-02 -0.119652D-01
     23  0.301413D-03 -0.926139D-02 -0.333675D-01 -0.201615D+00 -0.215278D-02
     24  0.173176D-02  0.893943D-02  0.850692D-02  0.613679D-01 -0.844548D-01
     25 -0.306368D-02 -0.214785D-02 -0.820391D-03  0.274906D-02  0.278962D-02
     26 -0.778789D-02 -0.851638D-02  0.185766D-02 -0.131970D-02 -0.922424D-03
     27 -0.759768D-02 -0.702482D-02  0.281339D-02 -0.110363D-03 -0.598867D-02
     28 -0.584041D-03  0.117280D-02  0.160693D-03  0.411321D-02  0.889070D-03
     29 -0.765682D-03 -0.410431D-02  0.319120D-02 -0.396884D-02 -0.156788D-02
     30  0.910521D-03  0.412481D-02 -0.775654D-03  0.157177D-02 -0.255425D-02
     31  0.595563D-03  0.201180D-02  0.944908D-02 -0.220145D-02 -0.299672D-02
     32  0.768202D-03  0.203028D-02  0.635839D-02 -0.523632D-02 -0.361506D-02
     33  0.664945D-03  0.325638D-02 -0.316483D-03 -0.238831D-03 -0.177930D-02
     34  0.652043D-03 -0.854514D-03  0.421597D-02 -0.980856D-03 -0.176457D-02
     35 -0.329418D-03 -0.181236D-02  0.307074D-02 -0.334065D-01  0.398961D-01
     36 -0.146362D-03 -0.177532D-02 -0.329289D-02  0.333667D-02  0.678263D-02
               16            17            18            19            20 
     16 -0.372910D-01
     17  0.669310D-02  0.814680D-03
     18  0.761902D-02  0.121968D-02  0.191204D-01
     19 -0.972453D-02  0.133569D-02  0.672574D-03  0.100876D+00
     20  0.399961D-02 -0.345461D-03  0.508532D-03 -0.715913D-01  0.132004D+00
     21 -0.189641D-01  0.286889D-02  0.813412D-03 -0.169387D+00  0.193497D+00
     22 -0.684683D-02  0.101594D-02  0.381358D-03  0.858832D-02  0.955397D-02
     23  0.104069D-01 -0.908863D-03 -0.185142D-02  0.642860D-02 -0.143847D-01
     24 -0.473022D-02  0.176066D-02 -0.200817D-04  0.213638D-03 -0.409810D-01
     25 -0.309359D-03  0.946105D-04  0.849938D-04 -0.213215D-02 -0.199798D-02
     26  0.160445D-02 -0.107152D-03  0.252544D-03 -0.150963D-02  0.118764D-02
     27  0.294120D-02 -0.655000D-03 -0.816075D-04  0.296456D-03  0.164296D-02
     28 -0.941618D-03 -0.165042D-03 -0.246914D-03 -0.275528D-03 -0.241555D-02
     29  0.318835D-03  0.319164D-03  0.455172D-03 -0.152919D-02  0.178589D-02
     30  0.420163D-03 -0.487808D-03 -0.410824D-03  0.111260D-02  0.134265D-03
     31 -0.307063D-02  0.350524D-03  0.302746D-04 -0.172323D-02  0.543748D-03
     32 -0.966949D-03  0.282966D-03  0.128092D-03 -0.917883D-03  0.206242D-02
     33  0.804212D-03 -0.124536D-03 -0.119351D-03  0.545298D-03  0.529443D-03
     34  0.113966D-03 -0.117629D-03  0.953560D-03 -0.235546D-02 -0.624796D-03
     35  0.101201D-02  0.950015D-04 -0.540292D-03  0.122340D-03  0.797290D-02
     36  0.120448D-02  0.509640D-04 -0.622969D-03  0.101203D-02 -0.305348D-03
               21            22            23            24            25 
     21  0.451050D+00
     22  0.117455D-02  0.818762D-01
     23 -0.501333D-02 -0.145049D-01  0.317633D+00
     24  0.126026D-01  0.113661D+00 -0.143260D+00  0.482237D+00
     25 -0.320772D-02  0.644169D-03 -0.581665D-03  0.635587D-04  0.873080D-01
     26  0.190949D-02 -0.923350D-03 -0.970053D-03  0.277164D-03 -0.991035D-02
     27  0.716509D-02 -0.119299D-02 -0.197601D-02  0.145276D-02 -0.441167D-01
     28 -0.889722D-03  0.813325D-03 -0.476565D-03  0.840505D-03  0.946736D-02
     29  0.187402D-02 -0.130445D-02 -0.315606D-04 -0.365876D-03  0.350669D-02
     30  0.141042D-02  0.373662D-03 -0.394436D-03  0.105593D-02 -0.238615D-01
     31  0.400196D-03 -0.246572D-02 -0.362276D-02  0.386323D-04 -0.261210D-01
     32  0.260777D-02 -0.251450D-02 -0.216790D-02 -0.264611D-03  0.102123D-01
     33  0.187853D-02 -0.116637D-03 -0.237057D-03  0.380347D-03  0.621792D-01
     34  0.116713D-02 -0.401009D-01  0.407854D-01 -0.115527D+00 -0.841431D-04
     35 -0.532793D-02  0.330649D-01 -0.823263D-01  0.124807D+00  0.989957D-04
     36 -0.238817D-02 -0.111308D+00  0.156933D+00 -0.419972D+00 -0.645029D-05
               26            27            28            29            30 
     26  0.812918D-01
     27  0.516981D-01  0.419278D+00
     28  0.476161D-02 -0.178413D-01  0.154565D+00
     29  0.975795D-02  0.258016D-01 -0.116861D+00  0.249917D+00
     30  0.424371D-01 -0.653311D-01  0.788722D-01 -0.126469D+00  0.166033D+00
     31  0.423850D-02  0.457110D-01 -0.625463D-01  0.307988D-01 -0.139352D-01
     32  0.144962D-01 -0.448554D-02  0.476606D-01  0.324114D-02  0.320208D-02
     33 -0.227848D-03 -0.359104D-01 -0.223646D-01  0.369865D-02  0.120726D-01
     34  0.252521D-03  0.110427D-03 -0.478117D-03  0.827862D-03 -0.245616D-03
     35  0.233925D-03 -0.519173D-04 -0.183199D-03  0.441124D-03 -0.259130D-03
     36 -0.237572D-03 -0.699606D-03 -0.841891D-04 -0.944941D-04 -0.178186D-03
               31            32            33            34            35 
     31  0.400399D+00
     32  0.133115D-01  0.720244D-01
     33 -0.715861D-01 -0.493158D-02  0.972294D-01
     34  0.474788D-05  0.229621D-03  0.824440D-04  0.374234D-01
     35  0.766224D-03  0.519429D-03 -0.388113D-04 -0.382975D-01  0.106740D+00
     36 -0.478500D-03 -0.434569D-03 -0.138086D-03  0.113094D+00 -0.157719D+00
               36 
     36  0.417635D+00
 Red2BG is reusing G-inverse.
 Leave Link  716 at Fri May 23 07:42:30 2025, MaxMem=  3758096384 cpu:               0.1 elap:               0.0
 (Enter /apps/easybuild-2022/easybuild/software/Compiler/NVHPC/22.11-CUDA-11.7.0/Gaussian/g16c01-CUDA-11.7.0/g16/l9999.exe)

 ----------------------------------------------------------------------

 Electric dipole moment (input orientation):
 (Debye = 10**-18 statcoulomb cm , SI units = C m)
                  (au)            (Debye)         (10**-30 SI)
   Tot        0.730683D+00      0.185721D+01      0.619499D+01
   x         -0.200263D+00     -0.509018D+00     -0.169790D+01
   y          0.479756D+00      0.121942D+01      0.406754D+01
   z         -0.513446D+00     -0.130505D+01     -0.435318D+01

 Dipole polarizability, Alpha (input orientation).
 (esu units = cm**3 , SI units = C**2 m**2 J**-1)
 Alpha(0;0):
               (au)            (10**-24 esu)      (10**-40 SI)
   iso        0.725479D+02      0.107505D+02      0.119615D+02
   aniso      0.395775D+02      0.586478D+01      0.652545D+01
   xx         0.629100D+02      0.932230D+01      0.103725D+02
   yx         0.288798D+01      0.427954D+00      0.476163D+00
   yy         0.574080D+02      0.850699D+01      0.946531D+01
   zx        -0.490749D+01     -0.727216D+00     -0.809137D+00
   zy         0.465667D+01      0.690047D+00      0.767781D+00
   zz         0.973256D+02      0.144222D+02      0.160468D+02

 ----------------------------------------------------------------------

 Dipole orientation:
     6         -1.06336590          2.54467473         -0.73599272
     6          0.02466227         -0.01841691          0.14283695
     9         -0.24837920         -0.26482610          2.63874265
     9         -1.19969737         -1.90317180         -1.03204131
    16          3.47608301         -0.53944060         -0.81306144
     8          1.11609231         -4.05226653         -3.75953374
     8          4.85605541          1.72954476         -0.05106180
     8          3.95382486         -2.79702001          1.20970517
     9         -0.13244803          4.40647693          0.65077009
     9         -0.45359386          2.91530111         -3.14950040
     9         -3.56591321          2.54223672         -0.52321862
     1          4.04291365         -2.14339323          2.91816639

 Electric dipole moment (dipole orientation):
 (Debye = 10**-18 statcoulomb cm , SI units = C m)
                  (au)            (Debye)         (10**-30 SI)
   Tot        0.730683D+00      0.185721D+01      0.619499D+01
   x          0.000000D+00      0.000000D+00      0.000000D+00
   y          0.000000D+00      0.000000D+00      0.000000D+00
   z          0.730683D+00      0.185721D+01      0.619499D+01

 Dipole polarizability, Alpha (dipole orientation).
 (esu units = cm**3 , SI units = C**2 m**2 J**-1)
 Alpha(0;0):
               (au)            (10**-24 esu)      (10**-40 SI)
   iso        0.725479D+02      0.107505D+02      0.119615D+02
   aniso      0.395775D+02      0.586478D+01      0.652545D+01
   xx         0.683189D+02      0.101238D+02      0.112643D+02
   yx         0.810150D+01      0.120052D+01      0.133576D+01
   yy         0.790197D+02      0.117095D+02      0.130286D+02
   zx         0.971910D+01      0.144022D+01      0.160246D+01
   zy         0.181558D+02      0.269041D+01      0.299348D+01
   zz         0.703051D+02      0.104181D+02      0.115917D+02

 ----------------------------------------------------------------------
 Unable to Open any file for archive entry.
 1\1\GINC-SPARTAN-BM171\Freq\RwB97XD\6-311++G(d,p)\C2H1F5O3S1\AKHALILOV
 \23-May-2025\0\\#P wb97xd/6-311++G(d,p) Symm(None) scf(xqc) pop(None) 
 opt(NoFreeze,TS,CalcAll,NoEigentest,MaxCycle=999)\\Gaussian input prep
 ared by ASE\\0,1\C,-0.5734572327,-1.3208351047,-0.4562436999\C,-0.0072
 113883,0.058286277,-0.0502917472\F,-0.4935369289,1.0075978532,-0.85317
 68956\F,-0.3507223416,0.3264447577,1.2190189716\S,1.9064041809,0.12509
 5644,-0.014388805\O,1.3364528956,0.3576059129,2.644067365\O,2.36702165
 09,-0.4296604028,-1.2862411104\O,1.9809504876,1.7468090767,-0.05144626
 65\F,-0.4078253397,-1.5227150551,-1.7538092817\F,0.0642994263,-2.27177
 49021,0.224004822\F,-1.8700476954,-1.3859051859,-0.1715595331\H,1.7416
 718146,2.0870864855,-0.9267598798\\Version=ES64L-G16RevC.01\HF=-1199.5
 910395\RMSD=2.832e-09\RMSF=1.809e-06\ZeroPoint=0.0466354\Thermal=0.057
 8389\ETot=-1199.5332006\HTot=-1199.5322564\GTot=-1199.5826845\Dipole=-
 0.200263,0.4797559,-0.5134461\DipoleDeriv=1.7149032,-0.0404461,0.03795
 6,0.3146077,1.5085568,0.0706585,0.1281769,-0.0432628,1.5386552,0.63137
 22,-0.1092813,0.6685752,-0.3807371,0.7160915,-0.2110801,0.0347031,-0.2
 056022,0.3894632,-0.5244736,0.1323704,-0.3628176,0.298236,-0.5602705,0
 .304882,-0.2881396,0.1985796,-0.389367,-0.4703129,-0.0141233,0.1284956
 ,0.0074472,-0.2733117,0.023696,-0.0280471,-0.0338211,0.2578498,1.03283
 46,-0.0137865,0.5770501,0.075404,1.677156,-0.5629426,-0.4292204,0.1839
 816,1.0290291,0.0955968,-0.0039451,-0.7158991,-0.0222328,-0.1106691,0.
 126568,0.0153573,0.0082884,0.2226819,-0.5743128,0.084558,-0.0549032,0.
 148884,-0.5865297,-0.0186835,0.5728064,-0.3596162,-1.4014401,-0.483934
 4,-0.0047558,-0.0463521,-0.2936303,-1.2696985,0.3331695,0.1366583,0.26
 37714,-0.4660088,-0.2951235,-0.0413441,-0.0041358,-0.0670367,-0.352257
 4,-0.1685537,-0.010786,-0.097439,-0.8116769,-0.4277041,0.121458,-0.155
 9784,0.1370983,-0.6866202,0.2122524,-0.1567001,0.1825946,-0.3844476,-1
 .0578324,-0.1251462,0.0226954,-0.2279675,-0.3803031,-0.0433186,0.09466
 6,-0.007633,-0.27025,0.358987,0.014442,-0.094686,0.0099272,0.3178561,-
 0.0666479,-0.0694749,-0.0898413,0.2855114\Polar=62.9100182,2.8879777,5
 7.4080383,-4.9074948,4.6566681,97.3255529\PG=Unknown\NImag=1\\0.550170
 53,0.01768073,0.57770356,0.00628781,0.01176943,0.56756689,-0.08027189,
 -0.02854013,-0.00372227,0.38727123,-0.06714669,-0.15595711,-0.03279120
 ,-0.03016734,0.54021967,-0.01765320,-0.03266539,-0.04780074,0.03350109
 ,0.00209329,0.48136663,0.00061960,-0.00163640,-0.00005085,-0.09957405,
 0.07767143,-0.06077260,0.10067102,0.02965993,-0.02891915,0.03449834,0.
 06864304,-0.21197387,0.08751956,-0.08647967,0.24465041,-0.00541525,0.0
 0736424,-0.00731514,-0.05208555,0.09905302,-0.12613093,0.07519686,-0.1
 4510851,0.19427468,0.00051978,-0.00314498,-0.00521405,-0.09148644,0.02
 386005,0.07365542,0.01348593,-0.00425713,-0.01653533,0.09612290,0.0149
 5819,0.00034030,-0.03378129,0.01139030,-0.08841614,-0.04947621,-0.0060
 4616,0.01142570,0.03448668,-0.02320168,0.08061001,0.01316766,-0.003158
 22,-0.03536475,0.02877353,-0.06618872,-0.20653318,0.00664937,0.0230079
 2,-0.07123491,-0.08651281,0.05405424,0.30212048,-0.01129509,-0.0211264
 1,-0.00650876,-0.11651912,0.02370829,-0.01173939,-0.01719699,0.0048964
 4,-0.01091176,-0.01616959,-0.00697568,-0.03940555,0.24760979,-0.026718
 30,0.01315173,0.00115968,-0.00740625,-0.02774957,-0.02464152,0.0160343
 2,-0.01410066,0.01150332,0.01660186,0.00475354,0.02806026,-0.02927770,
 0.39443883,-0.01013747,0.00849314,0.01725785,-0.00441856,-0.00227794,-
 0.04654403,-0.03245609,0.01701820,-0.01107314,0.03767293,-0.00415008,-
 0.00917544,-0.09539576,0.09571776,0.62100232,0.00125316,0.00046459,-0.
 00050428,0.02283000,-0.00301367,-0.03480187,-0.00582070,-0.00004340,0.
 00601161,0.00135405,0.00769982,0.04814726,0.03845352,-0.02817535,-0.00
 814751,-0.03729104,0.00008121,-0.00083659,0.00069317,-0.00322688,-0.00
 022765,0.00314484,0.00102618,0.00024643,-0.00068515,-0.00080395,-0.001
 44989,-0.00738936,-0.00628375,0.00211736,-0.00039634,0.00669310,0.0008
 1468,0.00023445,-0.00074297,0.00084900,-0.00479466,-0.00122723,-0.0049
 2164,0.00046573,0.00020351,0.00023981,-0.00005166,-0.00149543,-0.00998
 843,-0.00534872,0.00308981,-0.00485770,0.00761902,0.00121968,0.0191203
 8,0.00287055,0.00403839,-0.00284599,0.01279340,0.00492294,0.02315945,0
 .00120516,-0.00060595,-0.00073214,-0.01075015,0.00301732,0.02002286,-0
 .09937271,0.05628867,0.12593022,-0.00972453,0.00133569,0.00067257,0.10
 087633,0.00577263,-0.00770920,-0.00339227,0.00349161,0.00325834,-0.000
 05478,0.00025462,0.00068288,0.00118531,-0.00093493,0.00054986,-0.00672
 196,0.05394836,-0.12706497,-0.14604269,0.00399961,-0.00034546,0.000508
 53,-0.07159129,0.13200440,0.00540199,-0.00906667,-0.01213437,0.0117555
 3,-0.00022167,-0.01482809,0.00698291,-0.00711049,0.01039038,0.00319153
 ,0.00479892,0.02265574,0.16237466,-0.18081649,-0.47861545,-0.01896406,
 0.00286889,0.00081341,-0.16938700,0.19349749,0.45104987,-0.00351019,0.
 00731257,0.00227552,-0.00318367,-0.02479185,-0.00548214,0.00121954,-0.
 00743913,0.00322407,0.00148092,0.00155801,0.00897545,-0.03851515,-0.00
 102721,-0.01196516,-0.00684683,0.00101594,0.00038136,0.00858832,0.0095
 5397,0.00117455,0.08187618,0.00145898,0.00624283,0.00295009,-0.0051201
 6,-0.03082514,0.00817277,0.00299569,0.00905260,-0.00390902,-0.00440199
 ,0.00030141,-0.00926139,-0.03336754,-0.20161486,-0.00215278,0.01040695
 ,-0.00090886,-0.00185142,0.00642860,-0.01438470,-0.00501333,-0.0145048
 9,0.31763255,-0.00157061,0.00058927,-0.00255126,-0.00260719,-0.0008403
 2,-0.00242611,0.00108772,-0.00482215,0.00275614,0.00002334,0.00173176,
 0.00893943,0.00850692,0.06136794,-0.08445481,-0.00473022,0.00176066,-0
 .00002008,0.00021364,-0.04098095,0.01260264,0.11366057,-0.14326033,0.4
 8223679,-0.07759956,-0.00060444,0.01489300,0.00881926,0.00158651,-0.00
 779420,0.00073389,-0.00209006,0.00112402,0.00009389,-0.00306368,-0.002
 14785,-0.00082039,0.00274906,0.00278962,-0.00030936,0.00009461,0.00008
 499,-0.00213215,-0.00199798,-0.00320772,0.00064417,-0.00058166,0.00006
 356,0.08730799,-0.00061419,-0.09896724,-0.05498487,0.00347795,0.001936
 04,-0.02976645,-0.00055829,0.00024844,-0.00191879,-0.00267688,-0.00778
 789,-0.00851638,0.00185766,-0.00131970,-0.00092242,0.00160445,-0.00010
 715,0.00025254,-0.00150963,0.00118764,0.00190949,-0.00092335,-0.000970
 05,0.00027716,-0.00991035,0.08129184,0.01195549,-0.06268038,-0.2842824
 7,0.00215957,0.00122513,-0.03415042,0.00095173,-0.00281087,0.00557279,
 -0.00378835,-0.00759768,-0.00702482,0.00281339,-0.00011036,-0.00598867
 ,0.00294120,-0.00065500,-0.00008161,0.00029646,0.00164296,0.00716509,-
 0.00119299,-0.00197601,0.00145276,-0.04411666,0.05169806,0.41927847,-0
 .10775452,0.06410304,-0.03758288,0.00409557,0.00153878,-0.00361610,0.0
 0179633,-0.00149221,0.00085110,0.00109766,-0.00058404,0.00117280,0.000
 16069,0.00411321,0.00088907,-0.00094162,-0.00016504,-0.00024691,-0.000
 27553,-0.00241555,-0.00088972,0.00081332,-0.00047656,0.00084051,0.0094
 6736,0.00476161,-0.01784126,0.15456512,0.06009175,-0.21773542,0.070249
 81,0.02601718,-0.02872315,0.03089208,-0.00342430,-0.01423751,-0.000369
 32,-0.00163379,-0.00076568,-0.00410431,0.00319120,-0.00396884,-0.00156
 788,0.00031884,0.00031916,0.00045517,-0.00152919,0.00178589,0.00187402
 ,-0.00130445,-0.00003156,-0.00036588,0.00350669,0.00975795,0.02580161,
 -0.11686060,0.24991691,-0.03771770,0.07422208,-0.11621918,-0.00594606,
 0.00510948,-0.00163942,0.00125249,0.00002355,0.00163584,0.00045064,0.0
 0091052,0.00412481,-0.00077565,0.00157177,-0.00255425,0.00042016,-0.00
 048781,-0.00041082,0.00111260,0.00013427,0.00141042,0.00037366,-0.0003
 9444,0.00105593,-0.02386149,0.04243709,-0.06533110,0.07887221,-0.12646
 946,0.16603337,-0.27537241,-0.03748680,0.03324063,-0.04805978,-0.00328
 732,0.00613531,0.00416532,-0.00400648,0.00142874,0.00534107,0.00059556
 ,0.00201180,0.00944908,-0.00220145,-0.00299672,-0.00307063,0.00035052,
 0.00003027,-0.00172323,0.00054375,0.00040020,-0.00246572,-0.00362276,0
 .00003863,-0.02612095,0.00423850,0.04571100,-0.06254627,0.03079881,-0.
 01393523,0.40039877,-0.03523965,-0.08570911,0.00343598,-0.03870087,-0.
 00236823,0.00300741,0.00027271,0.00208679,-0.00068025,0.00029479,0.000
 76820,0.00203028,0.00635839,-0.00523632,-0.00361506,-0.00096695,0.0002
 8297,0.00012809,-0.00091788,0.00206242,0.00260777,-0.00251450,-0.00216
 790,-0.00026461,0.01021232,0.01449619,-0.00448554,0.04766057,0.0032411
 4,0.00320208,0.01331146,0.07202442,0.03542293,0.00467932,-0.08108841,-
 0.00200756,-0.00176616,0.00275484,0.00033051,-0.00200752,0.00146350,-0
 .00297316,0.00066494,0.00325638,-0.00031648,-0.00023883,-0.00177930,0.
 00080421,-0.00012454,-0.00011935,0.00054530,0.00052944,0.00187853,-0.0
 0011664,-0.00023706,0.00038035,0.06217919,-0.00022785,-0.03591041,-0.0
 2236462,0.00369865,0.01207259,-0.07158613,-0.00493158,0.09722936,0.000
 37005,-0.00106015,-0.00026788,0.00328549,-0.00488113,0.00540823,-0.001
 30503,0.00321462,-0.00215636,-0.00109001,0.00065204,-0.00085451,0.0042
 1597,-0.00098086,-0.00176457,0.00011397,-0.00011763,0.00095356,-0.0023
 5546,-0.00062480,0.00116713,-0.04010089,0.04078536,-0.11552686,-0.0000
 8414,0.00025252,0.00011043,-0.00047812,0.00082786,-0.00024562,0.000004
 75,0.00022962,0.00008244,0.03742343,0.00001541,-0.00160460,0.00019315,
 0.00014155,0.00082681,0.00177441,-0.00011013,0.00083793,-0.00092152,0.
 00029863,-0.00032942,-0.00181236,0.00307074,-0.03340653,0.03989611,0.0
 0101201,0.00009500,-0.00054029,0.00012234,0.00797290,-0.00532793,0.033
 06490,-0.08232632,0.12480746,0.00009900,0.00023393,-0.00005192,-0.0001
 8320,0.00044112,-0.00025913,0.00076622,0.00051943,-0.00003881,-0.03829
 747,0.10673974,0.00002392,0.00119615,0.00108259,-0.00060786,-0.0021676
 6,0.00085311,0.00036222,-0.00041154,-0.00057902,0.00008149,-0.00014636
 ,-0.00177532,-0.00329289,0.00333667,0.00678263,0.00120448,0.00005096,-
 0.00062297,0.00101203,-0.00030535,-0.00238817,-0.11130824,0.15693292,-
 0.41997178,-0.00000645,-0.00023757,-0.00069961,-0.00008419,-0.00009449
 ,-0.00017819,-0.00047850,-0.00043457,-0.00013809,0.11309400,-0.1577191
 6,0.41763481\\-0.00000102,0.00000021,0.00000335,-0.00000204,0.00000128
 ,0.00000234,0.00000076,-0.00000013,-0.00000138,0.00000146,0.00000148,-
 0.00000331,-0.00000246,-0.00000090,-0.00000159,0.00000381,0.00000165,-
 0.00000059,0.00000159,-0.00000089,0.00000031,0.00000123,-0.00000201,-0
 .00000141,-0.00000221,-0.00000147,0.00000085,-0.00000103,0.00000088,0.
 00000254,-0.00000076,0.00000184,0.00000206,0.00000067,-0.00000194,-0.0
 0000317\\\@
 The archive entry for this job was punched.


 THE MOST BEAUTIFUL EXPERIENCE WE CAN HAVE IS THE MYSTERIOUS.
 IT IS THE FUNDAMENTAL EMOTION WHICH STANDS AT AT THE CRADLE 
 OF TRUE ART AND TRUE SCIENCE.

                                    -- ALBERT EINSTEIN
 Job cpu time:       0 days  1 hours  9 minutes 58.0 seconds.
 Elapsed time:       0 days  0 hours 10 minutes 26.5 seconds.
 File lengths (MBytes):  RWF=    104 Int=      0 D2E=      0 Chk=      6 Scr=      1
 Normal termination of Gaussian 16 at Fri May 23 07:42:30 2025.
done
