12
energy = -1199.55281485
C -0.67644200 0.89204000 0.79275600
C 0.14564500 -0.07328400 -0.11510800
F -0.21447900 -1.32518600 0.08743800
F -0.04031900 0.22983500 -1.45089700
S 2.03541000 -0.01989400 0.17347300
O -1.67048200 0.16482800 -1.89209900
O 2.59484400 -0.82441300 -0.90426400
O 2.03673800 1.58356900 -0.23911100
F -0.02033700 0.97318300 1.96594700
F -0.75835600 2.09717200 0.26962500
F -1.88269200 0.41880000 1.03492800
H 2.82344600 2.00740500 0.12077200
12
energy = -1199.5527526600001
C -0.81791600 0.81133800 0.86290200
C 0.07975100 -0.07075200 -0.05806400
F -0.23215000 -1.34545900 0.06780700
F -0.06913000 0.29206300 -1.38361800
S 1.95312700 0.04760000 0.30793900
O -1.67800700 0.18428500 -1.88924200
O 2.58813000 -0.67658300 -0.78465400
O 1.89913200 1.66856100 -0.02514900
F -0.21017100 0.86080900 2.06363700
F -0.93422600 2.03687800 0.39687900
F -2.00990400 0.27512000 1.03401500
H 2.65262400 2.10636000 0.38551500
12
energy = -1199.5563344099999
C -0.66731900 0.52863600 -1.37857000
C -0.09267100 0.13401000 0.01653100
F -0.56866900 0.93388300 0.94850900
F -0.60032100 -1.15745000 0.26132200
S 1.79820500 -0.04286700 0.24359900
O 0.10668800 -1.74422300 1.64080800
O 2.23435700 -1.09125100 -0.66386300
O 1.95768200 1.43895200 -0.50872000
F -0.56195200 1.83433800 -1.55471500
F -0.02951000 -0.10925700 -2.34428800
F -1.95884400 0.19956200 -1.42279300
H 2.75532800 1.87389000 -0.19081200
12
energy = -1199.5588076100003
C -0.73314800 0.39353000 -1.39023200
C -0.18851200 0.08200100 0.03170600
F -0.73870400 0.87981800 0.92341700
F -0.64230600 -1.22499200 0.29154600
S 1.73039100 0.06567400 0.26290600
O 0.18940400 -1.88904300 1.56846400
O 2.21849000 -0.60485900 -0.93995300
O 1.88967200 1.68972500 0.09531900
F -0.19240500 1.54097100 -1.82297400
F -0.43157900 -0.56914800 -2.23718600
F -2.05036900 0.54601300 -1.34788800
H 1.76528600 1.97796800 -0.81992000
12
energy = -1199.5563685500001
C -0.69379300 0.52435200 -1.35572900
C -0.21571300 0.07899000 0.06037500
F -0.83111100 0.77968300 0.99058000
F -0.64328400 -1.25844900 0.17963900
S 1.65584300 0.02136200 0.45026600
O -0.01665300 -1.88433200 1.58042800
O 2.24904600 -0.93116100 -0.47380000
O 1.76662700 1.55732600 -0.19459800
F -0.67455400 1.84314800 -1.44189000
F 0.07421200 0.00021700 -2.29473500
F -1.94704100 0.10748800 -1.53986200
H 2.49768100 2.02576500 0.22084400
12
energy = -1199.56168802
C -0.65190700 -1.21964700 0.37571300
C 0.01564300 0.00228800 -0.29159100
F -0.32490000 0.09534600 -1.55205500
F -0.56599000 1.16418500 0.33453300
S 1.95584100 0.09099700 -0.11408500
O 0.34627400 1.75889900 1.54858400
O 2.39775500 -0.68736100 -1.26095100
O 2.02086100 1.65618000 -0.57954700
F -0.19812200 -2.32057700 -0.21153800
F -0.34535200 -1.25535700 1.66530800
F -1.97157800 -1.16798700 0.24105700
H 1.69444900 2.19032400 0.17005800
12
energy = -1199.5652597700002
C -0.62941900 -1.31990700 0.48464000
C -0.13939000 -0.08965700 -0.30956400
F -0.68119600 -0.03999300 -1.49709600
F -0.65526300 1.02424100 0.43695000
S 1.82123100 -0.03646700 -0.45914500
O -0.10573700 2.46250700 -0.10829100
O 2.01167500 0.42367900 -1.82870100
O 2.02672700 1.13007200 0.62471500
F -0.24353800 -2.41043300 -0.17211100
F -0.07893600 -1.32195600 1.69296600
F -1.94891600 -1.32994500 0.60492300
H 1.43898300 1.90458400 0.42439800
12
energy = -1199.56162145
C -0.68861900 -1.28328100 0.36834400
C -0.06983500 0.00838000 -0.20836700
F -0.38355600 0.15860600 -1.47018700
F -0.72761900 1.10003100 0.46799800
S 1.85848700 0.18650700 0.02742700
O 0.12177000 1.66494400 1.73990000
O 2.36916300 -0.49381500 -1.15265200
O 1.85028000 1.77933200 -0.33787600
F -0.15843100 -2.32315600 -0.26461900
F -0.41813800 -1.37674900 1.66300000
F -2.00468400 -1.29388100 0.19447800
H 1.47244300 2.24653600 0.43255000
12
energy = -1199.5527897100003
C -0.63596300 1.01824700 1.04677100
C -0.03702700 0.16310400 -0.11158100
F -0.54829400 -1.05203200 -0.10775600
F -0.29377400 0.74710500 -1.33788800
S 1.85971900 -0.06745200 -0.03060700
O -1.94906400 0.96786100 -1.59741400
O 2.20756900 -0.70149700 -1.29494000
O 2.04720800 1.57436400 -0.13434600
F 0.12301000 0.78312100 2.13404000
F -0.59376900 2.30480500 0.77158300
F -1.87115900 0.65410700 1.32838700
H 2.91281300 1.82138900 0.20882500
12
energy = -1199.5527914000004
C -0.80525300 0.97667100 1.08492500
C -0.10424000 0.16478200 -0.04702700
F -0.57786800 -1.06431100 -0.10198100
F -0.29580600 0.76785000 -1.27605200
S 1.78889700 -0.01391100 0.15711600
O -1.93596200 0.94740600 -1.64153600
O 2.23875100 -0.61175400 -1.09257100
O 1.93480300 1.63424700 0.09691400
F -0.11442000 0.73953100 2.21630200
F -0.78342600 2.26966700 0.83905200
F -2.04505700 0.57109600 1.27456600
H 2.76913500 1.89801400 0.49987600
12
energy = -1199.5507402100002
C -0.68656900 0.42114800 -1.47719700
C 0.03587000 -0.02628000 -0.16678200
F -0.39988400 0.63166700 0.88219700
F -0.19704700 -1.39174800 0.04678500
S 1.94882500 -0.00842800 -0.18958700
O -1.82569400 -1.78351100 0.26265000
O 2.33978100 -0.42304400 -1.52989100
O 1.97342500 1.63696400 -0.07165800
F -0.07758400 1.50633900 -1.94876600
F -0.62298800 -0.54105200 -2.37940300
F -1.94912800 0.72637400 -1.23221100
H 2.68225900 1.89866700 0.52587800
12
energy = -1199.55539045
C -0.71212000 0.39906300 -1.43342200
C -0.05879200 -0.07722600 -0.10204300
F -0.59127400 0.53158100 0.93449300
F -0.24953500 -1.45264400 0.04609200
S 1.86345200 0.04698800 -0.00077600
O -1.87668600 -1.90508600 0.05646000
O 2.32942400 -0.32961400 -1.33324100
O 1.91597400 1.66291400 0.19855800
F -0.08788400 1.54038300 -1.80113700
F -0.54886500 -0.49392800 -2.38427700
F -1.98942100 0.67950000 -1.27970900
H 1.67024000 2.13459700 -0.61078700
12
energy = -1199.55633694
C -0.86893600 0.81034300 -1.32335900
C -0.28000000 -0.00217400 -0.12938400
F -0.74074300 0.46629700 1.01218800
F -0.79133900 -1.30489000 -0.29441500
S 1.61244400 -0.24313800 0.00655000
O -0.07065500 -2.29442200 0.82280300
O 2.03241200 -0.95598400 -1.18866100
O 1.77021700 1.39952900 -0.24696800
F -0.76380300 2.10531000 -1.08037300
F -0.24221000 0.51051600 -2.44746400
F -2.16127100 0.50926800 -1.45555600
H 2.57343400 1.71260500 0.18116100
12
energy = -1199.55093195
C -0.58662800 -1.40454300 0.38646100
C -0.03092100 -0.00125100 0.00773700
F -0.60864100 0.47370800 -1.06572700
F -0.22950500 0.88008300 1.06520600
S 1.88133300 -0.06567300 -0.25106500
O -1.83714600 1.01224900 1.55957700
O 2.03397300 -0.46613700 -1.64248800
O 1.95102900 1.58052400 -0.14787600
F 0.02396700 -2.30712700 -0.38942800
F -0.28302200 -1.67045400 1.65181400
F -1.88353700 -1.50204800 0.19744000
H 2.79036400 1.84002100 0.24721400
12
energy = -1199.55464813
C -0.62607600 -1.45089800 0.35066500
C -0.06021800 -0.02724400 0.09525900
F -0.60351400 0.53200200 -0.96526600
F -0.30745500 0.78150400 1.19982400
S 1.86849600 0.00055800 -0.10708400
O -1.94637400 0.95038300 1.57721900
O 2.05157000 -0.39053800 -1.50205100
O 1.97394000 1.62334000 0.02697600
F 0.01781900 -2.29985800 -0.45532800
F -0.37894800 -1.79788000 1.60823900
F -1.91508400 -1.53271600 0.10108900
H 1.59035800 2.07013100 -0.74248000
12
energy = -1199.56351726
C -0.72342400 0.97082900 0.99220500
C 0.05137700 0.07025700 -0.00253100
F -0.36814500 -1.17312800 0.11637600
F -0.34673500 0.42419800 -1.34030300
S 1.98122000 0.02627600 0.09589900
O 0.20462600 1.84066400 -1.94135500
O 2.31222400 -0.80325300 -1.05880600
O 2.19800900 1.59080700 -0.19409400
F -0.36994600 0.58355300 2.21953700
F -0.43731200 2.24893400 0.84385400
F -2.03043900 0.79517300 0.84385500
H 1.64926300 1.87859700 -0.96762600
12
energy = -1199.55635714
C -0.68270000 0.56988300 -1.34104300
C 0.07764500 -0.08548300 -0.14731200
F -0.33781900 0.42525700 0.99350700
F -0.30948400 -1.44004200 -0.17556100
S 1.98956700 -0.13267200 -0.15693200
O 0.59269000 -2.26545900 0.94330100
O 2.38576900 -0.89416400 -1.32997900
O 1.95861000 1.49231600 -0.53903600
F -0.69133900 1.88412100 -1.20063500
F -0.11864900 0.24323400 -2.49055800
F -1.94401100 0.13700500 -1.34019200
H 2.75719200 1.91370300 -0.20562400
12
energy = -1199.55869024
C -0.73550000 0.44228600 -1.39459800
C -0.00911700 -0.14323000 -0.15167000
F -0.50234800 0.36920800 0.95669600
F -0.34256600 -1.51064100 -0.17468000
S 1.92061800 -0.03779500 -0.12022500
O 0.67024800 -2.37498000 0.82072200
O 2.30767300 -0.36489800 -1.49065200
O 1.95348600 1.58848200 0.09180500
F -0.32697900 1.70471300 -1.58391600
F -0.47067600 -0.26111000 -2.47630300
F -2.04603000 0.45709600 -1.18894500
H 1.70190500 2.06800100 -0.71010400
12
energy = -1199.55634745
C -0.71430100 0.56086800 -1.34449700
C -0.04668500 -0.13310000 -0.11770800
F -0.61639600 0.26918500 0.99965300
F -0.33899100 -1.50229900 -0.27782200
S 1.85397900 -0.06910500 0.08592700
O 0.48910100 -2.35314900 0.87819600
O 2.42417600 -0.71586200 -1.08438600
O 1.75878500 1.57556400 -0.18469000
F -0.81823000 1.85996500 -1.12425700
F -0.01224700 0.34481800 -2.44300900
F -1.93969500 0.06136500 -1.50950600
H 2.48625800 2.01561400 0.26654400
12
energy = -1199.5616058
C -0.62889500 -1.28575700 0.38419200
C 0.08652400 0.00195700 -0.07828700
F -0.39910100 0.42783400 -1.21676800
F -0.27035900 1.02023700 0.87922600
S 2.03064000 -0.11659800 -0.18267300
O 0.85373200 1.22498900 2.04274300
O 2.22815300 -0.62418700 -1.53168100
O 2.21772800 1.50403600 -0.27845300
F -0.38312800 -2.24506100 -0.50025100
F -0.16889800 -1.65836700 1.57071700
F -1.94007400 -1.09399800 0.46387200
H 2.05114600 1.86331300 0.61456600
12
energy = -1199.5584007900002
C -0.59991300 -1.30832800 0.34901900
C -0.01063300 0.10721100 0.07483700
F -0.41553700 0.55201100 -1.10451200
F -0.55359500 1.01737100 1.00098000
S 1.90807600 0.19471500 0.16730500
O 0.16944300 0.72651600 2.46799800
O 2.27605600 -0.65269900 -0.96957200
O 1.95318400 1.76576000 -0.28443100
F -0.59459700 -1.99488200 -0.78564800
F 0.13505500 -1.95324900 1.24373500
F -1.84724400 -1.21361700 0.78972000
H 1.70042200 1.86702200 -1.21403100
12
energy = -1199.56133533
C -0.65882200 -1.35139300 0.35146300
C 0.00005600 0.00002300 -0.00017700
F -0.45019000 0.46121600 -1.13946200
F -0.46781700 0.93964800 0.98912600
S 1.95035400 0.00014900 -0.00201400
O 0.57777300 1.13824600 2.22525600
O 2.24900500 -0.41715500 -1.36328900
O 2.04358000 1.63175700 0.00022600
F -0.31084300 -2.24204500 -0.56972200
F -0.23825500 -1.76532200 1.53888900
F -1.98154500 -1.24015100 0.37024600
H 1.81245900 1.92958900 0.90117000
