12
energy = -1199.77420164
C -0.65041000 -1.40095900 -0.33013100
C -0.07841500 0.03625900 -0.16758300
F -0.57383900 0.81699000 -1.12368800
F -0.44472400 0.51488500 1.02983600
S 1.79352800 0.12289900 -0.25507500
O 2.30666500 -0.73812200 0.77359600
O 2.17929900 0.04529800 -1.62632100
O 1.97429200 1.65133100 0.19275600
F -0.17581400 -1.95923200 -1.43658100
F -0.32961700 -2.15151900 0.71263600
F -1.97488100 -1.32739300 -0.41613900
H 2.02434000 1.71692500 1.15551600
12
energy = -1199.7741872100003
C -0.62135200 -1.32138800 -0.30044000
C 0.06980400 0.05857100 -0.10728400
F -0.40772300 0.91839600 -1.00268400
F -0.19922900 0.50828800 1.12660400
S 1.93623700 0.00433900 -0.28791300
O 2.42816900 -0.94218800 0.67372800
O 2.24770400 -0.03683100 -1.67948900
O 2.25983000 1.49090600 0.21694800
F -0.24380700 -1.86446100 -1.45098500
F -0.31358800 -2.14049800 0.69348500
F -1.93834800 -1.14196200 -0.31799500
H 2.36070900 1.50611500 1.17783900
12
energy = -1199.7742169199998
C -0.64886700 -1.33456900 -0.42754400
C 0.02855700 0.00793800 -0.03021700
F -0.36564700 0.96133700 -0.88624100
F -0.34563400 0.34101300 1.20192400
S 1.90324400 -0.04394400 -0.07685500
O 2.35994000 -0.70794700 1.10031100
O 2.28438600 -0.41923000 -1.40977100
O 2.18172000 1.52044800 0.13433000
F -0.44978200 -1.59589800 -1.71036500
F -0.15989200 -2.32747600 0.30466700
F -1.95592300 -1.23642400 -0.20619500
H 2.18059900 1.98069100 -0.71531400
12
energy = -1199.77445204
C -0.70901500 0.28058100 1.33623400
C -0.05846700 -0.05125500 -0.03811300
F -0.38594800 -1.29656800 -0.38118500
F -0.51929600 0.79942500 -0.95394100
S 1.81726200 0.04083900 -0.04660800
O 2.28256200 -0.51306800 1.19466100
O 2.23201100 -0.42284300 -1.33087700
O 2.03184900 1.62700700 -0.03671200
F -0.49220900 -0.68576500 2.20933900
F -0.19929700 1.42318900 1.81638800
F -2.01601500 0.43921600 1.17827300
H 2.06698600 1.95727300 0.87083200
12
energy = -1199.77377435
C -0.57019700 0.32421400 1.37055100
C 0.03449400 0.00223800 -0.02690000
F -0.40730900 -1.19058400 -0.42403000
F -0.35641300 0.93414900 -0.89492200
S 1.91073200 -0.07388300 -0.05691000
O 2.33600900 -0.72600200 1.15054700
O 2.26979300 -0.51077600 -1.36709600
O 2.26756200 1.48438500 0.02450100
F -0.43417100 -0.69918500 2.19352200
F 0.04603800 1.39124700 1.89753300
F -1.85871600 0.60809800 1.23841500
H 2.34058400 1.76605300 0.94607300
12
energy = -1199.7741259700001
C -0.64458700 0.29683700 1.37267000
C 0.01348400 0.00839000 -0.00680600
F -0.41532300 -1.17027600 -0.45335100
F -0.34635400 0.96674500 -0.87120000
S 1.88919600 -0.05807800 -0.00672800
O 2.31931300 -0.68022100 1.20439700
O 2.26013100 -0.51300000 -1.31675500
O 2.22465100 1.50251200 0.12201200
F -0.46158100 -0.72141400 2.19658700
F -0.13502300 1.39925300 1.90890600
F -1.95103900 0.47402700 1.19101200
H 2.25983200 1.91183300 -0.75254300
12
energy = -1199.7741161700003
C -0.76501200 0.89762800 -1.15020000
C -0.02718900 0.10249600 -0.03536900
F -0.41715300 0.56353900 1.16067400
F -0.34899500 -1.18542400 -0.13648000
S 1.84648800 0.20148100 -0.08029000
O 2.30724700 -0.73873200 0.90169300
O 2.26652000 0.19865200 -1.44506300
O 2.06159100 1.68821200 0.47442700
F -0.35942300 2.16169000 -1.16522400
F -0.54734600 0.34901300 -2.33376100
F -2.07132000 0.87066700 -0.89709800
H 2.10501300 1.68366100 1.43968800
12
energy = -1199.7741220900002
C -0.65417600 0.97053900 -1.06231600
C 0.08257000 0.11111800 0.00441800
F -0.21686800 0.57823100 1.22396900
F -0.32919000 -1.15096200 -0.09652300
S 1.95429600 0.08633500 -0.13224900
O 2.39827800 -0.89709900 0.81451600
O 2.30631800 0.07619000 -1.51606300
O 2.29539100 1.54702700 0.42849500
F -0.17001400 2.20661900 -1.07811200
F -0.52735400 0.43027300 -2.26280400
F -1.94631100 1.02135200 -0.74762500
H 2.38546700 1.52518100 1.39028500
12
energy = -1199.77232681
C -0.66209000 1.07931000 -0.90768200
C -0.00001900 0.00007300 0.00064500
F -0.42106800 0.17454600 1.24959100
F -0.36365600 -1.20939100 -0.42847700
S 1.88443500 -0.00037800 -0.00029500
O 2.28449100 -0.50736200 1.27249200
O 2.31222800 -0.55749100 -1.25252600
O 2.18196600 1.57662900 -0.00051700
F -0.61074700 2.27154500 -0.32945800
F -0.03489000 1.14731000 -2.08327000
F -1.93054700 0.75850500 -1.11877100
H 2.37259600 1.87816500 -0.89882500
