 Entering Gaussian System, Link 0=g16
 Initial command:
 /apps/easybuild-2022/easybuild/software/Compiler/NVHPC/22.11-CUDA-11.7.0/Gaussian/g16c01-CUDA-11.7.0/g16/l1.exe "/tmp/Gau-101083.inp" -scrdir="/tmp/"
 Entering Link 1 = /apps/easybuild-2022/easybuild/software/Compiler/NVHPC/22.11-CUDA-11.7.0/Gaussian/g16c01-CUDA-11.7.0/g16/l1.exe PID=    101084.
  
 Copyright (c) 1988-2019, Gaussian, Inc.  All Rights Reserved.
  
 This is part of the Gaussian(R) 16 program.  It is based on
 the Gaussian(R) 09 system (copyright 2009, Gaussian, Inc.),
 the Gaussian(R) 03 system (copyright 2003, Gaussian, Inc.),
 the Gaussian(R) 98 system (copyright 1998, Gaussian, Inc.),
 the Gaussian(R) 94 system (copyright 1995, Gaussian, Inc.),
 the Gaussian 92(TM) system (copyright 1992, Gaussian, Inc.),
 the Gaussian 90(TM) system (copyright 1990, Gaussian, Inc.),
 the Gaussian 88(TM) system (copyright 1988, Gaussian, Inc.),
 the Gaussian 86(TM) system (copyright 1986, Carnegie Mellon
 University), and the Gaussian 82(TM) system (copyright 1983,
 Carnegie Mellon University). Gaussian is a federally registered
 trademark of Gaussian, Inc.
  
 This software contains proprietary and confidential information,
 including trade secrets, belonging to Gaussian, Inc.
  
 This software is provided under written license and may be
 used, copied, transmitted, or stored only in accord with that
 written license.
  
 The following legend is applicable only to US Government
 contracts under FAR:
  
                    RESTRICTED RIGHTS LEGEND
  
 Use, reproduction and disclosure by the US Government is
 subject to restrictions as set forth in subparagraphs (a)
 and (c) of the Commercial Computer Software - Restricted
 Rights clause in FAR 52.227-19.
  
 Gaussian, Inc.
 340 Quinnipiac St., Bldg. 40, Wallingford CT 06492
  
  
 ---------------------------------------------------------------
 Warning -- This program may not be used in any manner that
 competes with the business of Gaussian, Inc. or will provide
 assistance to any competitor of Gaussian, Inc.  The licensee
 of this program is prohibited from giving any competitor of
 Gaussian, Inc. access to this program.  By using this program,
 the user acknowledges that Gaussian, Inc. is engaged in the
 business of creating and licensing software in the field of
 computational chemistry and represents and warrants to the
 licensee that it is not a competitor of Gaussian, Inc. and that
 it will not use this program in any manner prohibited above.
 ---------------------------------------------------------------
  

 Cite this work as:
 Gaussian 16, Revision C.01,
 M. J. Frisch, G. W. Trucks, H. B. Schlegel, G. E. Scuseria, 
 M. A. Robb, J. R. Cheeseman, G. Scalmani, V. Barone, 
 G. A. Petersson, H. Nakatsuji, X. Li, M. Caricato, A. V. Marenich, 
 J. Bloino, B. G. Janesko, R. Gomperts, B. Mennucci, H. P. Hratchian, 
 J. V. Ortiz, A. F. Izmaylov, J. L. Sonnenberg, D. Williams-Young, 
 F. Ding, F. Lipparini, F. Egidi, J. Goings, B. Peng, A. Petrone, 
 T. Henderson, D. Ranasinghe, V. G. Zakrzewski, J. Gao, N. Rega, 
 G. Zheng, W. Liang, M. Hada, M. Ehara, K. Toyota, R. Fukuda, 
 J. Hasegawa, M. Ishida, T. Nakajima, Y. Honda, O. Kitao, H. Nakai, 
 T. Vreven, K. Throssell, J. A. Montgomery, Jr., J. E. Peralta, 
 F. Ogliaro, M. J. Bearpark, J. J. Heyd, E. N. Brothers, K. N. Kudin, 
 V. N. Staroverov, T. A. Keith, R. Kobayashi, J. Normand, 
 K. Raghavachari, A. P. Rendell, J. C. Burant, S. S. Iyengar, 
 J. Tomasi, M. Cossi, J. M. Millam, M. Klene, C. Adamo, R. Cammi, 
 J. W. Ochterski, R. L. Martin, K. Morokuma, O. Farkas, 
 J. B. Foresman, and D. J. Fox, Gaussian, Inc., Wallingford CT, 2019.
 
 ******************************************
 Gaussian 16:  ES64L-G16RevC.01  3-Jul-2019
                23-May-2025 
 ******************************************
 %mem=28GB
 %nprocshared=8
 Will use up to    8 processors via shared memory.
 ------------------------------------------
 #P am1 Symm(None) scf(xqc) pop(None) force
 ------------------------------------------
 1/10=7,30=1,38=1/1,3;
 2/12=2,15=3,17=6,18=5,40=1/2;
 3/5=2,25=1,41=700000,71=1/1,2,3;
 4/35=1/1;
 5/5=2,8=3,13=1,35=1,38=5/2,8;
 7/29=1,30=1/1,2,3,16;
 1/10=7,30=1/3;
 99//99;
 Leave Link    1 at Fri May 23 07:30:12 2025, MaxMem=  3758096384 cpu:               0.0 elap:               0.0
 (Enter /apps/easybuild-2022/easybuild/software/Compiler/NVHPC/22.11-CUDA-11.7.0/Gaussian/g16c01-CUDA-11.7.0/g16/l101.exe)
 ------------------------------
 Gaussian input prepared by ASE
 ------------------------------
 Symbolic Z-matrix:
 Charge =  0 Multiplicity = 1
 C                    -0.90805  -0.38963   1.1049 
 C                     0.08026   0.39401   0.2144 
 F                    -0.24779   0.30182  -1.06338 
 F                    -0.01035   1.71421   0.46486 
 S                     1.9118   -0.09915   0.55861 
 O                     1.75614   2.42829   1.43157 
 O                     2.12093  -1.39462  -0.06509 
 O                     2.61435   0.81467  -0.57056 
 F                    -1.09008  -1.6388    0.71017 
 F                    -0.509    -0.46802   2.37402 
 F                    -2.11891   0.15433   1.15531 
 H                     2.45112   1.78092  -0.49652 
 
 ITRead=  0  0  0  0  0  0  0  0  0  0  0  0
 MicOpt= -1 -1 -1 -1 -1 -1 -1 -1 -1 -1 -1 -1
 NAtoms=     12 NQM=       12 NQMF=       0 NMMI=      0 NMMIF=      0
                NMic=       0 NMicF=      0.
                    Isotopes and Nuclear Properties:
 (Nuclear quadrupole moments (NQMom) in fm**2, nuclear magnetic moments (NMagM)
  in nuclear magnetons)

  Atom         1           2           3           4           5           6           7           8           9          10
 IAtWgt=          12          12          19          19          32          16          16          16          19          19
 AtmWgt=  12.0000000  12.0000000  18.9984032  18.9984032  31.9720718  15.9949146  15.9949146  15.9949146  18.9984032  18.9984032
 NucSpn=           0           0           1           1           0           0           0           0           1           1
 AtZEff=  -0.0000000  -0.0000000  -0.0000000  -0.0000000  -0.0000000  -0.0000000  -0.0000000  -0.0000000  -0.0000000  -0.0000000
 NQMom=    0.0000000   0.0000000   0.0000000   0.0000000   0.0000000   0.0000000   0.0000000   0.0000000   0.0000000   0.0000000
 NMagM=    0.0000000   0.0000000   2.6288670   2.6288670   0.0000000   0.0000000   0.0000000   0.0000000   2.6288670   2.6288670
 AtZNuc=   6.0000000   6.0000000   9.0000000   9.0000000  16.0000000   8.0000000   8.0000000   8.0000000   9.0000000   9.0000000

  Atom        11          12
 IAtWgt=          19           1
 AtmWgt=  18.9984032   1.0078250
 NucSpn=           1           1
 AtZEff=  -0.0000000  -0.0000000
 NQMom=    0.0000000   0.0000000
 NMagM=    2.6288670   2.7928460
 AtZNuc=   9.0000000   1.0000000
 Leave Link  101 at Fri May 23 07:30:12 2025, MaxMem=  3758096384 cpu:               0.1 elap:               0.1
 (Enter /apps/easybuild-2022/easybuild/software/Compiler/NVHPC/22.11-CUDA-11.7.0/Gaussian/g16c01-CUDA-11.7.0/g16/l103.exe)

 GradGradGradGradGradGradGradGradGradGradGradGradGradGradGradGradGradGrad
 Berny optimization.
 Initialization pass.
 Trust Radius=3.00D-01 FncErr=1.00D-07 GrdErr=1.00D-07 EigMax=2.50D+02 EigMin=1.00D-04
 Number of steps in this run=      2 maximum allowed number of steps=      2.
 GradGradGradGradGradGradGradGradGradGradGradGradGradGradGradGradGradGrad

 Leave Link  103 at Fri May 23 07:30:12 2025, MaxMem=  3758096384 cpu:               0.0 elap:               0.0
 (Enter /apps/easybuild-2022/easybuild/software/Compiler/NVHPC/22.11-CUDA-11.7.0/Gaussian/g16c01-CUDA-11.7.0/g16/l202.exe)
                          Input orientation:                          
 ---------------------------------------------------------------------
 Center     Atomic      Atomic             Coordinates (Angstroms)
 Number     Number       Type             X           Y           Z
 ---------------------------------------------------------------------
      1          6           0       -0.908047   -0.389628    1.104903
      2          6           0        0.080265    0.394013    0.214403
      3          9           0       -0.247792    0.301823   -1.063376
      4          9           0       -0.010346    1.714215    0.464858
      5         16           0        1.911795   -0.099154    0.558612
      6          8           0        1.756141    2.428289    1.431574
      7          8           0        2.120929   -1.394619   -0.065095
      8          8           0        2.614346    0.814670   -0.570560
      9          9           0       -1.090079   -1.638801    0.710168
     10          9           0       -0.509000   -0.468024    2.374016
     11          9           0       -2.118908    0.154328    1.155309
     12          1           0        2.451117    1.780922   -0.496517
 ---------------------------------------------------------------------
                    Distance matrix (angstroms):
                    1          2          3          4          5
     1  C    0.000000
     2  C    1.543970   0.000000
     3  F    2.369700   1.322437   0.000000
     4  F    2.375222   1.346800   2.094453   0.000000
     5  S    2.886922   1.927744   2.730466   2.644187   0.000000
     6  O    3.891692   2.903162   3.842185   2.136567   2.678481
     7  O    3.399058   2.727936   3.079824   3.806314   1.452919
     8  O    4.082249   2.686017   2.949188   2.961466   1.613593
     9  F    1.322643   2.397461   2.760603   3.531106   3.377089
    10  F    1.332678   2.398806   3.532218   2.942058   3.048280
    11  F    1.328387   2.403978   2.906096   2.712195   4.082508
    12  H    4.308110   2.837228   3.129404   2.643387   2.222353
                    6          7          8          9         10
     6  O    0.000000
     7  O    4.121615   0.000000
     8  O    2.710871   2.319464   0.000000
     9  F    5.016235   3.312285   4.624127   0.000000
    10  F    3.795747   3.704641   4.480081   2.115836   0.000000
    11  F    4.501469   4.675985   5.081177   2.114698   2.112906
    12  H    2.149328   3.221678   0.982735   5.068596   4.696809
                   11         12
    11  F    0.000000
    12  H    5.124399   0.000000
 Symmetry turned off by external request.
 Stoichiometry    C2HF5O3S
 Rotational constants (GHZ):           1.3781792           0.8036259           0.6961041
 Leave Link  202 at Fri May 23 07:30:12 2025, MaxMem=  3758096384 cpu:               0.0 elap:               0.0
 (Enter /apps/easybuild-2022/easybuild/software/Compiler/NVHPC/22.11-CUDA-11.7.0/Gaussian/g16c01-CUDA-11.7.0/g16/l301.exe)
 Standard basis: VSTO-6G (5D, 7F)
 Ernie: Thresh=  0.10000D-02 Tol=  0.10000D-05 Strict=F.
  NNHCO=     0 NNPyr=     0 NCTC=     0               EPep=         0.000000000
    EC=       383.658264204  ECS=         2.341040081   EG=         0.741142846
   EHC=         0.000000000  EAt=      -139.813231795  AtH=         1.168761636
 EPDDG=         0.000000000  ECC=       386.740447130 EAtT=       140.981993432
    45 basis functions,   270 primitive gaussians,    45 cartesian basis functions
    34 alpha electrons       34 beta electrons
       nuclear repulsion energy       528.4453040035 Hartrees.



 Warning!  S  atom    5 may be hypervalent but has no d functions.



 IExCor=    0 DFT=F Ex=HF Corr=None ExCW=0 ScaHFX=  1.000000
 ScaDFX=  1.000000  1.000000  1.000000  1.000000 ScalE2=  1.000000  1.000000
 IRadAn=      5 IRanWt=     -1 IRanGd=            0 ICorTp=0 IEmpDi=  4
 Integral buffers will be    131072 words long.
 Regular integral format.
 Two-electron integral symmetry is turned off.
 Leave Link  301 at Fri May 23 07:30:12 2025, MaxMem=  3758096384 cpu:               0.0 elap:               0.0
 (Enter /apps/easybuild-2022/easybuild/software/Compiler/NVHPC/22.11-CUDA-11.7.0/Gaussian/g16c01-CUDA-11.7.0/g16/l302.exe)
 Do NDO integrals.
 NPDir=0 NMtPBC=     1 NCelOv=     1 NCel=       1 NClECP=     1 NCelD=      1
         NCelK=      1 NCelE2=     1 NClLst=     1 CellRange=     0.0.
 One-electron integrals computed using PRISM.
 NBasis=    45 RedAO= F EigKep=  0.00D+00  NBF=    45
 NBsUse=    45 1.00D-04 EigRej=  0.00D+00 NBFU=    45
 Leave Link  302 at Fri May 23 07:30:12 2025, MaxMem=  3758096384 cpu:               0.1 elap:               0.0
 (Enter /apps/easybuild-2022/easybuild/software/Compiler/NVHPC/22.11-CUDA-11.7.0/Gaussian/g16c01-CUDA-11.7.0/g16/l303.exe)
 DipDrv:  MaxL=1.
 Leave Link  303 at Fri May 23 07:30:12 2025, MaxMem=  3758096384 cpu:               0.0 elap:               0.0
 (Enter /apps/easybuild-2022/easybuild/software/Compiler/NVHPC/22.11-CUDA-11.7.0/Gaussian/g16c01-CUDA-11.7.0/g16/l401.exe)
 Simple Huckel Guess.
 JPrj=0 DoOrth=F DoCkMO=F.
 Leave Link  401 at Fri May 23 07:30:12 2025, MaxMem=  3758096384 cpu:               0.0 elap:               0.0
 (Enter /apps/easybuild-2022/easybuild/software/Compiler/NVHPC/22.11-CUDA-11.7.0/Gaussian/g16c01-CUDA-11.7.0/g16/l502.exe)
 Keep J ints in memory in canonical form, NReq=865860.
 FoFCou: FMM=F IPFlag=           0 FMFlag=           0 FMFlg1=           0
         NFxFlg=           0 DoJE=F BraDBF=F KetDBF=F FulRan=T
         wScrn=  0.000000 ICntrl=       600 IOpCl=  2 I1Cent=           0 NGrid=           0
         NMat0=    1 NMatS0=    111 NMatT0=    0 NMatD0=    1 NMtDS0=    0 NMtDT0=    0
 Symmetry not used in FoFCou.
 Two-electron integral symmetry not used.
 Closed shell SCF:
 Using DIIS extrapolation, IDIIS=  1040.
 Overlap will be assumed to be unity.
 NGot=  3758096384 LenX=  3758025843 LenY=  3758023377
 Requested convergence on RMS density matrix=1.00D-08 within  32 cycles.
 Requested convergence on MAX density matrix=1.00D-06.
 Requested convergence on             energy=1.00D-06.
 No special actions if energy rises.

 Cycle   1  Pass 1  IDiag  1:
 E=  2.07662751333544    
 DIIS: error= 1.12D-01 at cycle   1 NSaved=   1.
 NSaved= 1 IEnMin= 1 EnMin=  2.07662751333544     IErMin= 1 ErrMin= 1.12D-01
 ErrMax= 1.12D-01  0.00D+00 EMaxC= 1.00D-01 BMatC= 4.02D-01 BMatP= 4.02D-01
 IDIUse=3 WtCom= 0.00D+00 WtEn= 1.00D+00
 Coeff-Com:  0.100D+01
 Coeff-En:   0.100D+01
 Coeff:      0.100D+01
 GapD=    2.000 DampG=2.000 DampE=0.250 DampFc=0.5000 IDamp=-1.
 Damping current iteration by 5.00D-01
 RMSDP=5.71D-02 MaxDP=9.96D-01              OVMax= 0.00D+00

 Cycle   2  Pass 1  IDiag  1:
 E=  2.09810803008304     Delta-E=        0.021480516748 Rises=F Damp=T
 DIIS: error= 5.63D-02 at cycle   2 NSaved=   2.
 NSaved= 2 IEnMin= 1 EnMin=  2.07662751333544     IErMin= 2 ErrMin= 5.63D-02
 ErrMax= 5.63D-02  0.00D+00 EMaxC= 1.00D-01 BMatC= 1.54D-01 BMatP= 4.02D-01
 IDIUse=3 WtCom= 4.37D-01 WtEn= 5.63D-01
 Coeff-Com: -0.447D+00 0.145D+01
 Coeff-En:   0.508D+00 0.492D+00
 Coeff:      0.904D-01 0.910D+00
 RMSDP=3.14D-02 MaxDP=4.98D-01 DE= 2.15D-02 OVMax= 0.00D+00

 Cycle   3  Pass 1  IDiag  1:
 E=  1.19864952225566     Delta-E=       -0.899458507827 Rises=F Damp=F
 DIIS: error= 4.23D-02 at cycle   3 NSaved=   3.
 NSaved= 3 IEnMin= 3 EnMin=  1.19864952225566     IErMin= 3 ErrMin= 4.23D-02
 ErrMax= 4.23D-02  0.00D+00 EMaxC= 1.00D-01 BMatC= 8.12D-02 BMatP= 1.54D-01
 IDIUse=3 WtCom= 5.77D-01 WtEn= 4.23D-01
 Coeff-Com: -0.554D+00 0.817D+00 0.738D+00
 Coeff-En:   0.000D+00 0.173D+00 0.827D+00
 Coeff:     -0.320D+00 0.545D+00 0.775D+00
 RMSDP=1.22D-02 MaxDP=1.14D-01 DE=-8.99D-01 OVMax= 0.00D+00

 Cycle   4  Pass 1  IDiag  1:
 E= 0.881826999283703     Delta-E=       -0.316822522972 Rises=F Damp=F
 DIIS: error= 2.85D-02 at cycle   4 NSaved=   4.
 NSaved= 4 IEnMin= 4 EnMin= 0.881826999283703     IErMin= 4 ErrMin= 2.85D-02
 ErrMax= 2.85D-02  0.00D+00 EMaxC= 1.00D-01 BMatC= 3.57D-02 BMatP= 8.12D-02
 IDIUse=3 WtCom= 7.15D-01 WtEn= 2.85D-01
 Coeff-Com: -0.417D+00 0.609D+00 0.224D+00 0.583D+00
 Coeff-En:   0.000D+00 0.000D+00 0.000D+00 0.100D+01
 Coeff:     -0.298D+00 0.436D+00 0.160D+00 0.702D+00
 RMSDP=1.14D-02 MaxDP=2.64D-01 DE=-3.17D-01 OVMax= 0.00D+00

 Cycle   5  Pass 1  IDiag  1:
 E= 0.630100760068331     Delta-E=       -0.251726239215 Rises=F Damp=F
 DIIS: error= 3.41D-02 at cycle   5 NSaved=   5.
 NSaved= 5 IEnMin= 5 EnMin= 0.630100760068331     IErMin= 4 ErrMin= 2.85D-02
 ErrMax= 3.41D-02  0.00D+00 EMaxC= 1.00D-01 BMatC= 2.80D-02 BMatP= 3.57D-02
 IDIUse=3 WtCom= 6.59D-01 WtEn= 3.41D-01
 Coeff-Com: -0.357D+00 0.537D+00 0.317D+00-0.103D+00 0.606D+00
 Coeff-En:   0.000D+00 0.000D+00 0.000D+00 0.000D+00 0.100D+01
 Coeff:     -0.235D+00 0.354D+00 0.209D+00-0.677D-01 0.741D+00
 RMSDP=6.08D-03 MaxDP=1.61D-01 DE=-2.52D-01 OVMax= 0.00D+00

 Cycle   6  Pass 1  IDiag  1:
 E= 0.527695750326984     Delta-E=       -0.102405009741 Rises=F Damp=F
 DIIS: error= 2.61D-02 at cycle   6 NSaved=   6.
 NSaved= 6 IEnMin= 6 EnMin= 0.527695750326984     IErMin= 6 ErrMin= 2.61D-02
 ErrMax= 2.61D-02  0.00D+00 EMaxC= 1.00D-01 BMatC= 1.55D-02 BMatP= 2.80D-02
 IDIUse=3 WtCom= 7.39D-01 WtEn= 2.61D-01
 Coeff-Com: -0.915D-01 0.917D-01-0.242D-03 0.683D+00-0.313D+01 0.345D+01
 Coeff-En:   0.000D+00 0.000D+00 0.000D+00 0.000D+00 0.000D+00 0.100D+01
 Coeff:     -0.676D-01 0.678D-01-0.179D-03 0.504D+00-0.231D+01 0.281D+01
 RMSDP=1.21D-02 MaxDP=2.71D-01 DE=-1.02D-01 OVMax= 0.00D+00

 Cycle   7  Pass 1  IDiag  1:
 E= 0.420283422961006     Delta-E=       -0.107412327366 Rises=F Damp=F
 DIIS: error= 5.51D-03 at cycle   7 NSaved=   7.
 NSaved= 7 IEnMin= 7 EnMin= 0.420283422961006     IErMin= 7 ErrMin= 5.51D-03
 ErrMax= 5.51D-03  0.00D+00 EMaxC= 1.00D-01 BMatC= 7.65D-04 BMatP= 1.55D-02
 IDIUse=3 WtCom= 9.45D-01 WtEn= 5.51D-02
 Coeff-Com:  0.810D-02-0.120D-01 0.221D-01 0.149D-01 0.244D+00-0.643D+00
 Coeff-Com:  0.137D+01
 Coeff-En:   0.000D+00 0.000D+00 0.000D+00 0.000D+00 0.000D+00 0.000D+00
 Coeff-En:   0.100D+01
 Coeff:      0.766D-02-0.113D-01 0.209D-01 0.141D-01 0.231D+00-0.607D+00
 Coeff:      0.135D+01
 RMSDP=4.48D-03 MaxDP=5.42D-02 DE=-1.07D-01 OVMax= 0.00D+00

 Cycle   8  Pass 1  IDiag  3:
 E= 0.411084223074340     Delta-E=       -0.009199199887 Rises=F Damp=F
 DIIS: error= 1.17D-03 at cycle   8 NSaved=   8.
 NSaved= 8 IEnMin= 8 EnMin= 0.411084223074340     IErMin= 8 ErrMin= 1.17D-03
 ErrMax= 1.17D-03  0.00D+00 EMaxC= 1.00D-01 BMatC= 9.31D-05 BMatP= 7.65D-04
 IDIUse=3 WtCom= 9.88D-01 WtEn= 1.17D-02
 Coeff-Com: -0.381D-02-0.340D-02 0.495D-02 0.510D-01-0.348D+00 0.592D+00
 Coeff-Com: -0.130D+01 0.200D+01
 Coeff-En:   0.000D+00 0.000D+00 0.000D+00 0.000D+00 0.000D+00 0.000D+00
 Coeff-En:   0.000D+00 0.100D+01
 Coeff:     -0.376D-02-0.336D-02 0.489D-02 0.504D-01-0.344D+00 0.586D+00
 Coeff:     -0.128D+01 0.199D+01
 Gap=     0.259 Goal=   None    Shift=    0.000
 RMSDP=2.35D-03 MaxDP=2.62D-02 DE=-9.20D-03 OVMax= 6.80D-02

 Cycle   9  Pass 1  IDiag  3:
 E= 0.409949579758177     Delta-E=       -0.001134643316 Rises=F Damp=F
 DIIS: error= 1.21D-03 at cycle   9 NSaved=   9.
 NSaved= 9 IEnMin= 9 EnMin= 0.409949579758177     IErMin= 8 ErrMin= 1.17D-03
 ErrMax= 1.21D-03  0.00D+00 EMaxC= 1.00D-01 BMatC= 2.06D-05 BMatP= 9.31D-05
 IDIUse=3 WtCom= 9.88D-01 WtEn= 1.17D-02
 Coeff-Com:  0.153D-02-0.158D-02 0.421D-02-0.129D-01 0.268D-01-0.269D-01
 Coeff-Com:  0.219D+00-0.587D+00 0.138D+01
 Coeff-En:   0.000D+00 0.000D+00 0.000D+00 0.000D+00 0.000D+00 0.000D+00
 Coeff-En:   0.000D+00 0.000D+00 0.100D+01
 Coeff:      0.151D-02-0.156D-02 0.416D-02-0.128D-01 0.265D-01-0.266D-01
 Coeff:      0.216D+00-0.580D+00 0.137D+01
 Gap=     0.261 Goal=   None    Shift=    0.000
 RMSDP=4.12D-04 MaxDP=7.87D-03 DE=-1.13D-03 OVMax= 9.25D-03

 Cycle  10  Pass 1  IDiag  3:
 E= 0.409771541262899     Delta-E=       -0.000178038495 Rises=F Damp=F
 DIIS: error= 1.21D-03 at cycle  10 NSaved=  10.
 NSaved=10 IEnMin=10 EnMin= 0.409771541262899     IErMin= 8 ErrMin= 1.17D-03
 ErrMax= 1.21D-03  0.00D+00 EMaxC= 1.00D-01 BMatC= 9.73D-06 BMatP= 2.06D-05
 IDIUse=3 WtCom= 9.88D-01 WtEn= 1.17D-02
 Coeff-Com:  0.106D-02-0.232D-02-0.176D-02 0.822D-02-0.153D-01 0.143D-01
 Coeff-Com: -0.389D-01 0.141D+00-0.735D+00 0.163D+01
 Coeff-En:   0.000D+00 0.000D+00 0.000D+00 0.000D+00 0.000D+00 0.000D+00
 Coeff-En:   0.000D+00 0.000D+00 0.000D+00 0.100D+01
 Coeff:      0.105D-02-0.229D-02-0.174D-02 0.812D-02-0.151D-01 0.141D-01
 Coeff:     -0.385D-01 0.139D+00-0.727D+00 0.162D+01
 Gap=     0.262 Goal=   None    Shift=    0.000
 RMSDP=4.27D-04 MaxDP=8.90D-03 DE=-1.78D-04 OVMax= 1.11D-02

 Cycle  11  Pass 1  IDiag  3:
 E= 0.409626114166940     Delta-E=       -0.000145427096 Rises=F Damp=F
 DIIS: error= 1.21D-03 at cycle  11 NSaved=  11.
 NSaved=11 IEnMin=11 EnMin= 0.409626114166940     IErMin= 8 ErrMin= 1.17D-03
 ErrMax= 1.21D-03  0.00D+00 EMaxC= 1.00D-01 BMatC= 7.13D-06 BMatP= 9.73D-06
 IDIUse=3 WtCom= 9.88D-01 WtEn= 1.17D-02
 Coeff-Com:  0.315D-05-0.262D-03-0.303D-03 0.771D-02-0.251D-01 0.271D-01
 Coeff-Com: -0.211D-01 0.203D-01 0.727D-01-0.590D+00 0.151D+01
 Coeff-En:   0.000D+00 0.000D+00 0.000D+00 0.000D+00 0.000D+00 0.000D+00
 Coeff-En:   0.000D+00 0.000D+00 0.000D+00 0.000D+00 0.100D+01
 Coeff:      0.311D-05-0.259D-03-0.299D-03 0.762D-02-0.248D-01 0.268D-01
 Coeff:     -0.209D-01 0.201D-01 0.719D-01-0.583D+00 0.150D+01
 Gap=     0.262 Goal=   None    Shift=    0.000
 RMSDP=3.84D-04 MaxDP=9.05D-03 DE=-1.45D-04 OVMax= 1.11D-02

 Cycle  12  Pass 1  IDiag  3:
 E= 0.409501320103118     Delta-E=       -0.000124794064 Rises=F Damp=F
 DIIS: error= 1.21D-03 at cycle  12 NSaved=  12.
 NSaved=12 IEnMin=12 EnMin= 0.409501320103118     IErMin= 8 ErrMin= 1.17D-03
 ErrMax= 1.21D-03  0.00D+00 EMaxC= 1.00D-01 BMatC= 6.74D-06 BMatP= 7.13D-06
 IDIUse=3 WtCom= 9.88D-01 WtEn= 1.17D-02
 Coeff-Com: -0.629D-04-0.255D-03-0.373D-03 0.638D-02-0.196D-01 0.213D-01
 Coeff-Com: -0.219D-01 0.290D-01-0.365D-01-0.615D-01 0.116D+00 0.967D+00
 Coeff-En:   0.000D+00 0.000D+00 0.000D+00 0.000D+00 0.000D+00 0.000D+00
 Coeff-En:   0.000D+00 0.000D+00 0.000D+00 0.000D+00 0.000D+00 0.100D+01
 Coeff:     -0.622D-04-0.252D-03-0.368D-03 0.630D-02-0.194D-01 0.211D-01
 Coeff:     -0.216D-01 0.286D-01-0.360D-01-0.607D-01 0.115D+00 0.968D+00
 Gap=     0.262 Goal=   None    Shift=    0.000
 RMSDP=2.36D-04 MaxDP=5.70D-03 DE=-1.25D-04 OVMax= 6.91D-03

 Cycle  13  Pass 1  IDiag  3:
 E= 0.409424479221798     Delta-E=       -0.000076840881 Rises=F Damp=F
 DIIS: error= 1.21D-03 at cycle  13 NSaved=  13.
 NSaved=13 IEnMin=13 EnMin= 0.409424479221798     IErMin= 8 ErrMin= 1.17D-03
 ErrMax= 1.21D-03  0.00D+00 EMaxC= 1.00D-01 BMatC= 6.64D-06 BMatP= 6.74D-06
 IDIUse=3 WtCom= 9.88D-01 WtEn= 1.17D-02
 Coeff-Com: -0.102D-03-0.628D-04-0.974D-04 0.458D-02-0.113D-01 0.977D-02
 Coeff-Com: -0.209D-02 0.998D-03-0.150D-03-0.657D-01 0.116D+00-0.206D+00
 Coeff-Com:  0.115D+01
 Coeff-En:   0.000D+00 0.000D+00 0.000D+00 0.000D+00 0.000D+00 0.000D+00
 Coeff-En:   0.000D+00 0.000D+00 0.000D+00 0.000D+00 0.000D+00 0.000D+00
 Coeff-En:   0.100D+01
 Coeff:     -0.101D-03-0.620D-04-0.962D-04 0.453D-02-0.111D-01 0.966D-02
 Coeff:     -0.207D-02 0.986D-03-0.148D-03-0.650D-01 0.114D+00-0.204D+00
 Coeff:      0.115D+01
 Gap=     0.262 Goal=   None    Shift=    0.000
 RMSDP=2.53D-04 MaxDP=6.04D-03 DE=-7.68D-05 OVMax= 7.40D-03

 Cycle  14  Pass 1  IDiag  3:
 E= 0.409342457868433     Delta-E=       -0.000082021353 Rises=F Damp=F
 DIIS: error= 1.21D-03 at cycle  14 NSaved=  14.
 NSaved=14 IEnMin=14 EnMin= 0.409342457868433     IErMin= 8 ErrMin= 1.17D-03
 ErrMax= 1.21D-03  0.00D+00 EMaxC= 1.00D-01 BMatC= 6.66D-06 BMatP= 6.64D-06
 IDIUse=3 WtCom= 9.88D-01 WtEn= 1.17D-02
 Coeff-Com: -0.908D-04-0.774D-04-0.111D-03 0.465D-02-0.115D-01 0.101D-01
 Coeff-Com: -0.174D-02-0.446D-03 0.459D-03-0.651D-01 0.137D+00-0.248D+00
 Coeff-Com:  0.899D+00 0.276D+00
 Coeff-En:   0.000D+00 0.000D+00 0.000D+00 0.000D+00 0.000D+00 0.000D+00
 Coeff-En:   0.000D+00 0.000D+00 0.000D+00 0.000D+00 0.000D+00 0.000D+00
 Coeff-En:   0.000D+00 0.100D+01
 Coeff:     -0.897D-04-0.765D-04-0.110D-03 0.460D-02-0.114D-01 0.995D-02
 Coeff:     -0.172D-02-0.440D-03 0.454D-03-0.644D-01 0.136D+00-0.245D+00
 Coeff:      0.889D+00 0.284D+00
 Gap=     0.262 Goal=   None    Shift=    0.000
 RMSDP=6.87D-05 MaxDP=1.61D-03 DE=-8.20D-05 OVMax= 1.98D-03

 Cycle  15  Pass 1  IDiag  3:
 E= 0.409320271284741     Delta-E=       -0.000022186584 Rises=F Damp=F
 DIIS: error= 1.21D-03 at cycle  15 NSaved=  15.
 NSaved=15 IEnMin=15 EnMin= 0.409320271284741     IErMin= 8 ErrMin= 1.17D-03
 ErrMax= 1.21D-03  0.00D+00 EMaxC= 1.00D-01 BMatC= 6.58D-06 BMatP= 6.64D-06
 IDIUse=3 WtCom= 9.88D-01 WtEn= 1.17D-02
 Coeff-Com: -0.118D-03 0.317D-04 0.672D-06 0.336D-02-0.780D-02 0.662D-02
 Coeff-Com:  0.552D-03-0.785D-02 0.326D-01-0.111D+00 0.158D+00-0.965D-01
 Coeff-Com: -0.157D+00-0.170D+00 0.135D+01
 Coeff-En:   0.000D+00 0.000D+00 0.000D+00 0.000D+00 0.000D+00 0.000D+00
 Coeff-En:   0.000D+00 0.000D+00 0.000D+00 0.000D+00 0.000D+00 0.000D+00
 Coeff-En:   0.000D+00 0.000D+00 0.100D+01
 Coeff:     -0.116D-03 0.313D-04 0.664D-06 0.332D-02-0.771D-02 0.654D-02
 Coeff:      0.546D-03-0.776D-02 0.322D-01-0.109D+00 0.157D+00-0.954D-01
 Coeff:     -0.156D+00-0.168D+00 0.134D+01
 Gap=     0.262 Goal=   None    Shift=    0.000
 RMSDP=2.83D-04 MaxDP=6.66D-03 DE=-2.22D-05 OVMax= 8.27D-03

 Cycle  16  Pass 1  IDiag  3:
 E= 0.409228481062769     Delta-E=       -0.000091790222 Rises=F Damp=F
 DIIS: error= 1.21D-03 at cycle  16 NSaved=  16.
 NSaved=16 IEnMin=16 EnMin= 0.409228481062769     IErMin= 8 ErrMin= 1.17D-03
 ErrMax= 1.21D-03  0.00D+00 EMaxC= 1.00D-01 BMatC= 6.61D-06 BMatP= 6.58D-06
 IDIUse=3 WtCom= 9.88D-01 WtEn= 1.17D-02
 Coeff-Com: -0.107D-03 0.257D-04 0.107D-04 0.320D-02-0.766D-02 0.670D-02
 Coeff-Com: -0.303D-03-0.738D-02 0.338D-01-0.118D+00 0.167D+00-0.100D+00
 Coeff-Com: -0.263D+00 0.416D-01 0.175D+01-0.508D+00
 Coeff-En:   0.000D+00 0.000D+00 0.000D+00 0.000D+00 0.000D+00 0.000D+00
 Coeff-En:   0.000D+00 0.000D+00 0.000D+00 0.000D+00 0.000D+00 0.000D+00
 Coeff-En:   0.000D+00 0.000D+00 0.000D+00 0.100D+01
 Coeff:     -0.106D-03 0.254D-04 0.106D-04 0.316D-02-0.757D-02 0.662D-02
 Coeff:     -0.299D-03-0.729D-02 0.334D-01-0.116D+00 0.166D+00-0.989D-01
 Coeff:     -0.260D+00 0.411D-01 0.173D+01-0.490D+00
 Gap=     0.262 Goal=   None    Shift=    0.000
 RMSDP=1.23D-04 MaxDP=2.85D-03 DE=-9.18D-05 OVMax= 3.52D-03

 Cycle  17  Pass 1  IDiag  3:
 E= 0.409267813178303     Delta-E=        0.000039332116 Rises=F Damp=F
 DIIS: error= 1.21D-03 at cycle  17 NSaved=  17.
 NSaved=17 IEnMin=16 EnMin= 0.409228481062769     IErMin= 8 ErrMin= 1.17D-03
 ErrMax= 1.21D-03  0.00D+00 EMaxC= 1.00D-01 BMatC= 6.56D-06 BMatP= 6.58D-06
 IDIUse=3 WtCom= 9.88D-01 WtEn= 1.17D-02
 Rare condition: small coef for last iteration:  0.000D+00
 Coeff-Com: -0.924D-04 0.424D-05-0.255D-04 0.312D-02-0.745D-02 0.671D-02
 Coeff-Com: -0.117D-02-0.423D-02 0.282D-01-0.107D+00 0.186D+00-0.109D+00
 Coeff-Com:  0.127D-01-0.205D+00 0.876D+00-0.417D+00 0.737D+00
 Coeff-En:   0.000D+00 0.000D+00 0.000D+00 0.000D+00 0.000D+00 0.000D+00
 Coeff-En:   0.000D+00 0.000D+00 0.000D+00 0.000D+00 0.000D+00 0.000D+00
 Coeff-En:   0.000D+00 0.000D+00 0.000D+00 0.000D+00 0.100D+01
 Coeff:     -0.924D-04 0.424D-05-0.255D-04 0.312D-02-0.745D-02 0.671D-02
 Coeff:     -0.117D-02-0.423D-02 0.282D-01-0.107D+00 0.186D+00-0.109D+00
 Coeff:      0.127D-01-0.205D+00 0.876D+00-0.417D+00 0.737D+00
 Gap=     0.262 Goal=   None    Shift=    0.000
 RMSDP=4.84D-05 MaxDP=1.13D-03 DE= 3.93D-05 OVMax= 1.39D-03

 Cycle  18  Pass 1  IDiag  3:
 E= 0.409252177243616     Delta-E=       -0.000015635935 Rises=F Damp=F
 DIIS: error= 1.21D-03 at cycle  18 NSaved=  18.
 NSaved=18 IEnMin=16 EnMin= 0.409228481062769     IErMin= 8 ErrMin= 1.17D-03
 ErrMax= 1.21D-03  0.00D+00 EMaxC= 1.00D-01 BMatC= 6.56D-06 BMatP= 6.56D-06
 IDIUse=3 WtCom= 9.88D-01 WtEn= 1.17D-02
 Coeff-Com: -0.992D-04 0.186D-04-0.437D-04 0.305D-02-0.690D-02 0.609D-02
 Coeff-Com: -0.132D-02-0.217D-02 0.205D-01-0.870D-01 0.158D+00-0.869D-01
 Coeff-Com:  0.134D+00-0.191D+00 0.227D+00-0.327D+00 0.433D+00 0.722D+00
 Coeff-En:   0.000D+00 0.000D+00 0.000D+00 0.000D+00 0.000D+00 0.000D+00
 Coeff-En:   0.000D+00 0.000D+00 0.000D+00 0.000D+00 0.000D+00 0.000D+00
 Coeff-En:   0.000D+00 0.000D+00 0.000D+00 0.000D+00 0.000D+00 0.100D+01
 Coeff:     -0.981D-04 0.183D-04-0.432D-04 0.302D-02-0.682D-02 0.602D-02
 Coeff:     -0.131D-02-0.215D-02 0.202D-01-0.859D-01 0.156D+00-0.859D-01
 Coeff:      0.132D+00-0.189D+00 0.224D+00-0.323D+00 0.428D+00 0.725D+00
 Gap=     0.262 Goal=   None    Shift=    0.000
 RMSDP=8.77D-05 MaxDP=2.05D-03 DE=-1.56D-05 OVMax= 2.56D-03

 Cycle  19  Pass 1  IDiag  3:
 E= 0.409223775419605     Delta-E=       -0.000028401824 Rises=F Damp=F
 DIIS: error= 1.21D-03 at cycle  19 NSaved=  19.
 NSaved=19 IEnMin=19 EnMin= 0.409223775419605     IErMin= 8 ErrMin= 1.17D-03
 ErrMax= 1.21D-03  0.00D+00 EMaxC= 1.00D-01 BMatC= 6.56D-06 BMatP= 6.56D-06
 IDIUse=3 WtCom= 9.88D-01 WtEn= 1.17D-02
 Coeff-Com: -0.972D-04 0.137D-04-0.471D-04 0.307D-02-0.702D-02 0.628D-02
 Coeff-Com: -0.183D-02-0.128D-02 0.192D-01-0.851D-01 0.155D+00-0.805D-01
 Coeff-Com:  0.114D+00-0.177D+00 0.199D+00-0.262D+00 0.435D+00 0.112D+01
 Coeff-Com: -0.432D+00
 Coeff-En:   0.000D+00 0.000D+00 0.000D+00 0.000D+00 0.000D+00 0.000D+00
 Coeff-En:   0.000D+00 0.000D+00 0.000D+00 0.000D+00 0.000D+00 0.000D+00
 Coeff-En:   0.000D+00 0.000D+00 0.000D+00 0.000D+00 0.000D+00 0.000D+00
 Coeff-En:   0.100D+01
 Coeff:     -0.961D-04 0.135D-04-0.465D-04 0.303D-02-0.694D-02 0.621D-02
 Coeff:     -0.181D-02-0.127D-02 0.190D-01-0.841D-01 0.153D+00-0.796D-01
 Coeff:      0.112D+00-0.174D+00 0.197D+00-0.259D+00 0.430D+00 0.110D+01
 Coeff:     -0.416D+00
 Gap=     0.262 Goal=   None    Shift=    0.000
 RMSDP=2.42D-05 MaxDP=5.55D-04 DE=-2.84D-05 OVMax= 6.86D-04

 Cycle  20  Pass 1  IDiag  3:
 E= 0.409231475293268     Delta-E=        0.000007699874 Rises=F Damp=F
 DIIS: error= 1.21D-03 at cycle  20 NSaved=  20.
 NSaved=20 IEnMin=19 EnMin= 0.409223775419605     IErMin= 8 ErrMin= 1.17D-03
 ErrMax= 1.21D-03  0.00D+00 EMaxC= 1.00D-01 BMatC= 6.55D-06 BMatP= 6.56D-06
 IDIUse=3 WtCom= 9.88D-01 WtEn= 1.17D-02
 Rare condition: small coef for last iteration:  0.000D+00
 Coeff-Com: -0.966D-04 0.202D-04-0.510D-04 0.304D-02-0.668D-02 0.569D-02
 Coeff-Com: -0.166D-03-0.442D-02 0.237D-01-0.918D-01 0.159D+00-0.649D-01
 Coeff-Com:  0.131D+00-0.147D+00 0.160D+00-0.161D+00 0.197D+00 0.352D+00
 Coeff-Com: -0.595D+00 0.104D+01
 Coeff-En:   0.000D+00 0.000D+00 0.000D+00 0.000D+00 0.000D+00 0.000D+00
 Coeff-En:   0.000D+00 0.000D+00 0.000D+00 0.000D+00 0.000D+00 0.000D+00
 Coeff-En:   0.000D+00 0.000D+00 0.000D+00 0.000D+00 0.000D+00 0.000D+00
 Coeff-En:   0.000D+00 0.100D+01
 Coeff:     -0.966D-04 0.202D-04-0.510D-04 0.304D-02-0.668D-02 0.569D-02
 Coeff:     -0.166D-03-0.442D-02 0.237D-01-0.918D-01 0.159D+00-0.649D-01
 Coeff:      0.131D+00-0.147D+00 0.160D+00-0.161D+00 0.197D+00 0.352D+00
 Coeff:     -0.595D+00 0.104D+01
 Gap=     0.262 Goal=   None    Shift=    0.000
 RMSDP=4.90D-05 MaxDP=1.14D-03 DE= 7.70D-06 OVMax= 1.42D-03

 Cycle  21  Pass 1  IDiag  3:
 E= 0.409215623694422     Delta-E=       -0.000015851599 Rises=F Damp=F
 DIIS: error= 1.21D-03 at cycle  21 NSaved=  20.
 NSaved=20 IEnMin=20 EnMin= 0.409215623694422     IErMin= 7 ErrMin= 1.17D-03
 ErrMax= 1.21D-03  0.00D+00 EMaxC= 1.00D-01 BMatC= 6.56D-06 BMatP= 6.55D-06
 IDIUse=3 WtCom= 9.88D-01 WtEn= 1.17D-02
 Coeff-Com: -0.758D-04-0.123D-03 0.313D-02-0.709D-02 0.642D-02-0.156D-02
 Coeff-Com: -0.394D-02 0.281D-01-0.101D+00 0.182D+00-0.437D-01 0.833D-01
 Coeff-Com: -0.136D+00 0.187D+00 0.297D+00-0.217D+00-0.650D+00 0.343D+00
 Coeff-Com:  0.524D+01-0.420D+01
 Coeff-En:   0.000D+00 0.000D+00 0.000D+00 0.000D+00 0.000D+00 0.000D+00
 Coeff-En:   0.000D+00 0.000D+00 0.000D+00 0.000D+00 0.000D+00 0.000D+00
 Coeff-En:   0.000D+00 0.000D+00 0.000D+00 0.000D+00 0.000D+00 0.000D+00
 Coeff-En:   0.000D+00 0.100D+01
 Coeff:     -0.749D-04-0.121D-03 0.310D-02-0.700D-02 0.634D-02-0.154D-02
 Coeff:     -0.390D-02 0.278D-01-0.100D+00 0.180D+00-0.432D-01 0.823D-01
 Coeff:     -0.134D+00 0.185D+00 0.294D+00-0.215D+00-0.643D+00 0.339D+00
 Coeff:      0.517D+01-0.414D+01
 Gap=     0.262 Goal=   None    Shift=    0.000
 RMSDP=8.60D-05 MaxDP=2.00D-03 DE=-1.59D-05 OVMax= 2.50D-03

 Cycle  22  Pass 1  IDiag  3:
 E= 0.409243460074435     Delta-E=        0.000027836380 Rises=F Damp=F
 DIIS: error= 1.21D-03 at cycle  22 NSaved=  20.
 NSaved=20 IEnMin=19 EnMin= 0.409215623694422     IErMin= 6 ErrMin= 1.17D-03
 ErrMax= 1.21D-03  0.00D+00 EMaxC= 1.00D-01 BMatC= 6.55D-06 BMatP= 6.55D-06
 IDIUse=3 WtCom= 9.88D-01 WtEn= 1.17D-02
 Rare condition: small coef for last iteration:  0.000D+00
 Coeff-Com: -0.957D-04 0.250D-02-0.408D-02 0.201D-02 0.706D-02-0.178D-01
 Coeff-Com:  0.431D-01-0.119D+00 0.199D+00-0.629D-01 0.836D-01-0.126D+00
 Coeff-Com:  0.208D+00 0.296D+00-0.253D+00-0.721D+00 0.377D+00 0.502D+01
 Coeff-Com: -0.413D+01 0.199D+00
 Coeff-En:   0.000D+00 0.000D+00 0.000D+00 0.000D+00 0.000D+00 0.000D+00
 Coeff-En:   0.000D+00 0.000D+00 0.000D+00 0.000D+00 0.000D+00 0.000D+00
 Coeff-En:   0.000D+00 0.000D+00 0.000D+00 0.000D+00 0.000D+00 0.000D+00
 Coeff-En:   0.000D+00 0.100D+01
 Coeff:     -0.957D-04 0.250D-02-0.408D-02 0.201D-02 0.706D-02-0.178D-01
 Coeff:      0.431D-01-0.119D+00 0.199D+00-0.629D-01 0.836D-01-0.126D+00
 Coeff:      0.208D+00 0.296D+00-0.253D+00-0.721D+00 0.377D+00 0.502D+01
 Coeff:     -0.413D+01 0.199D+00
 Gap=     0.262 Goal=   None    Shift=    0.000
 RMSDP=4.56D-06 MaxDP=8.61D-05 DE= 2.78D-05 OVMax= 9.85D-05

 Cycle  23  Pass 1  IDiag  3:
 E= 0.409242268051230     Delta-E=       -0.000001192023 Rises=F Damp=F
 DIIS: error= 1.21D-03 at cycle  23 NSaved=  20.
 NSaved=20 IEnMin=18 EnMin= 0.409215623694422     IErMin= 5 ErrMin= 1.17D-03
 ErrMax= 1.21D-03  0.00D+00 EMaxC= 1.00D-01 BMatC= 6.55D-06 BMatP= 6.55D-06
 IDIUse=3 WtCom= 9.88D-01 WtEn= 1.17D-02
 Coeff-Com:  0.227D-02-0.381D-02 0.182D-02 0.774D-02-0.192D-01 0.488D-01
 Coeff-Com: -0.128D+00 0.206D+00-0.679D-01 0.639D-01-0.126D+00 0.284D+00
 Coeff-Com:  0.329D+00-0.334D+00-0.735D+00 0.401D+00 0.518D+01-0.415D+01
 Coeff-Com:  0.484D+00-0.443D+00
 Coeff-En:   0.000D+00 0.000D+00 0.000D+00 0.000D+00 0.000D+00 0.000D+00
 Coeff-En:   0.000D+00 0.000D+00 0.000D+00 0.000D+00 0.000D+00 0.000D+00
 Coeff-En:   0.000D+00 0.000D+00 0.000D+00 0.000D+00 0.000D+00 0.000D+00
 Coeff-En:   0.000D+00 0.100D+01
 Coeff:      0.224D-02-0.377D-02 0.180D-02 0.765D-02-0.190D-01 0.482D-01
 Coeff:     -0.127D+00 0.203D+00-0.671D-01 0.631D-01-0.125D+00 0.281D+00
 Coeff:      0.325D+00-0.330D+00-0.726D+00 0.396D+00 0.512D+01-0.410D+01
 Coeff:      0.478D+00-0.426D+00
 Gap=     0.262 Goal=   None    Shift=    0.000
 RMSDP=8.91D-06 MaxDP=2.05D-04 DE=-1.19D-06 OVMax= 2.60D-04

 Cycle  24  Pass 1  IDiag  3:
 E= 0.409239389752429     Delta-E=       -0.000002878299 Rises=F Damp=F
 DIIS: error= 1.21D-03 at cycle  24 NSaved=  20.
 NSaved=20 IEnMin=17 EnMin= 0.409215623694422     IErMin= 4 ErrMin= 1.17D-03
 ErrMax= 1.21D-03  0.00D+00 EMaxC= 1.00D-01 BMatC= 6.55D-06 BMatP= 6.55D-06
 IDIUse=3 WtCom= 9.88D-01 WtEn= 1.17D-02
 Coeff-Com:  0.367D-02-0.531D-02 0.100D-01-0.234D-01 0.271D-01-0.201D-01
 Coeff-Com: -0.931D-02 0.134D-01 0.337D+00-0.288D+00-0.195D+00-0.118D-02
 Coeff-Com:  0.152D+00-0.397D+00 0.253D+00 0.299D+01-0.282D+01-0.751D+00
 Coeff-Com:  0.356D+01-0.183D+01
 Coeff-En:   0.000D+00 0.000D+00 0.000D+00 0.000D+00 0.000D+00 0.000D+00
 Coeff-En:   0.000D+00 0.000D+00 0.000D+00 0.000D+00 0.000D+00 0.000D+00
 Coeff-En:   0.000D+00 0.000D+00 0.000D+00 0.000D+00 0.000D+00 0.000D+00
 Coeff-En:   0.000D+00 0.100D+01
 Coeff:      0.363D-02-0.525D-02 0.990D-02-0.231D-01 0.267D-01-0.199D-01
 Coeff:     -0.920D-02 0.133D-01 0.334D+00-0.284D+00-0.193D+00-0.116D-02
 Coeff:      0.150D+00-0.392D+00 0.250D+00 0.296D+01-0.279D+01-0.742D+00
 Coeff:      0.352D+01-0.180D+01
 Gap=     0.262 Goal=   None    Shift=    0.000
 RMSDP=3.43D-05 MaxDP=7.89D-04 DE=-2.88D-06 OVMax= 9.47D-04

 Cycle  25  Pass 1  IDiag  3:
 E= 0.409228756506764     Delta-E=       -0.000010633246 Rises=F Damp=F
 DIIS: error= 1.21D-03 at cycle  25 NSaved=  20.
 NSaved=20 IEnMin=16 EnMin= 0.409215623694422     IErMin= 3 ErrMin= 1.17D-03
 ErrMax= 1.21D-03  0.00D+00 EMaxC= 1.00D-01 BMatC= 6.54D-06 BMatP= 6.55D-06
 IDIUse=3 WtCom= 9.88D-01 WtEn= 1.17D-02
 Coeff-Com:  0.157D-02-0.363D-02 0.306D-02 0.288D-01-0.632D-01 0.116D+00
 Coeff-Com: -0.552D-01 0.500D-01-0.128D+00 0.488D+00 0.827D-01-0.126D+00
 Coeff-Com: -0.312D-01-0.117D+00 0.279D+01-0.357D+01 0.742D+00-0.399D+01
 Coeff-Com:  0.232D+01 0.246D+01
 Coeff-En:   0.000D+00 0.000D+00 0.000D+00 0.000D+00 0.000D+00 0.000D+00
 Coeff-En:   0.000D+00 0.000D+00 0.000D+00 0.000D+00 0.000D+00 0.000D+00
 Coeff-En:   0.000D+00 0.000D+00 0.000D+00 0.000D+00 0.000D+00 0.000D+00
 Coeff-En:   0.000D+00 0.100D+01
 Coeff:      0.156D-02-0.359D-02 0.303D-02 0.285D-01-0.625D-01 0.115D+00
 Coeff:     -0.546D-01 0.494D-01-0.126D+00 0.483D+00 0.817D-01-0.124D+00
 Coeff:     -0.308D-01-0.115D+00 0.276D+01-0.353D+01 0.733D+00-0.394D+01
 Coeff:      0.229D+01 0.244D+01
 Gap=     0.262 Goal=   None    Shift=    0.000
 RMSDP=5.67D-05 MaxDP=1.31D-03 DE=-1.06D-05 OVMax= 1.65D-03

 Cycle  26  Pass 1  IDiag  3:
 E= 0.409247092727810     Delta-E=        0.000018336221 Rises=F Damp=F
 DIIS: error= 1.21D-03 at cycle  26 NSaved=  20.
 NSaved=20 IEnMin=15 EnMin= 0.409215623694422     IErMin= 2 ErrMin= 1.17D-03
 ErrMax= 1.21D-03  0.00D+00 EMaxC= 1.00D-01 BMatC= 6.54D-06 BMatP= 6.54D-06
 IDIUse=3 WtCom= 9.88D-01 WtEn= 1.17D-02
 Rare condition: small coef for last iteration:  0.000D+00
 Coeff-Com:  0.713D-02-0.175D-01 0.327D-01-0.522D-01 0.626D-01 0.636D-02
 Coeff-Com: -0.166D-01-0.472D-01 0.761D+00-0.185D+00-0.452D-01 0.161D+00
 Coeff-Com: -0.386D+00-0.617D+00 0.895D-01 0.115D+00 0.622D+00-0.640D+00
 Coeff-Com: -0.157D+01 0.272D+01
 Coeff-En:   0.000D+00 0.000D+00 0.000D+00 0.000D+00 0.000D+00 0.000D+00
 Coeff-En:   0.000D+00 0.000D+00 0.000D+00 0.000D+00 0.000D+00 0.000D+00
 Coeff-En:   0.000D+00 0.000D+00 0.000D+00 0.000D+00 0.000D+00 0.000D+00
 Coeff-En:   0.000D+00 0.100D+01
 Coeff:      0.713D-02-0.175D-01 0.327D-01-0.522D-01 0.626D-01 0.636D-02
 Coeff:     -0.166D-01-0.472D-01 0.761D+00-0.185D+00-0.452D-01 0.161D+00
 Coeff:     -0.386D+00-0.617D+00 0.895D-01 0.115D+00 0.622D+00-0.640D+00
 Coeff:     -0.157D+01 0.272D+01
 Gap=     0.262 Goal=   None    Shift=    0.000
 RMSDP=1.29D-04 MaxDP=3.00D-03 DE= 1.83D-05 OVMax= 3.75D-03

 Cycle  27  Pass 1  IDiag  3:
 E= 0.409288618550818     Delta-E=        0.000041525823 Rises=F Damp=F
 DIIS: error= 1.21D-03 at cycle  27 NSaved=  20.
 NSaved=20 IEnMin=14 EnMin= 0.409215623694422     IErMin= 1 ErrMin= 1.17D-03
 ErrMax= 1.21D-03  0.00D+00 EMaxC= 1.00D-01 BMatC= 6.53D-06 BMatP= 6.54D-06
 IDIUse=3 WtCom= 9.88D-01 WtEn= 1.17D-02
 Rare condition: small coef for last iteration:  0.000D+00
 Coeff-Com:  0.165D-02-0.368D-02-0.261D-01 0.869D-01-0.144D-01 0.185D+00
 Coeff-Com: -0.236D+00 0.246D+00 0.188D+00 0.219D+00-0.248D-01-0.179D-01
 Coeff-Com: -0.494D+00-0.634D+00 0.195D+00-0.259D+01 0.261D+01 0.129D+00
 Coeff-Com: -0.753D+00 0.194D+01
 Coeff-En:   0.000D+00 0.000D+00 0.000D+00 0.000D+00 0.000D+00 0.000D+00
 Coeff-En:   0.000D+00 0.000D+00 0.000D+00 0.000D+00 0.000D+00 0.000D+00
 Coeff-En:   0.000D+00 0.000D+00 0.000D+00 0.000D+00 0.000D+00 0.000D+00
 Coeff-En:   0.000D+00 0.100D+01
 Coeff:      0.165D-02-0.368D-02-0.261D-01 0.869D-01-0.144D-01 0.185D+00
 Coeff:     -0.236D+00 0.246D+00 0.188D+00 0.219D+00-0.248D-01-0.179D-01
 Coeff:     -0.494D+00-0.634D+00 0.195D+00-0.259D+01 0.261D+01 0.129D+00
 Coeff:     -0.753D+00 0.194D+01
 Gap=     0.262 Goal=   None    Shift=    0.000
 RMSDP=1.01D-04 MaxDP=2.37D-03 DE= 4.15D-05 OVMax= 2.95D-03

 Cycle  28  Pass 1  IDiag  3:
 E= 0.409321198649423     Delta-E=        0.000032580099 Rises=F Damp=F
 DIIS: error= 1.21D-03 at cycle  28 NSaved=  20.
 NSaved=20 IEnMin=13 EnMin= 0.409215623694422     IErMin= 2 ErrMin= 1.21D-03
 ErrMax= 1.21D-03  0.00D+00 EMaxC= 1.00D-01 BMatC= 6.52D-06 BMatP= 6.53D-06
 IDIUse=3 WtCom= 9.88D-01 WtEn= 1.17D-02
 Rare condition: small coef for last iteration:  0.000D+00
 Coeff-Com: -0.228D-02-0.748D-02 0.107D+00-0.600D-01 0.560D-01-0.598D-01
 Coeff-Com:  0.472D+00-0.103D+00 0.267D+00-0.562D+00 0.653D+00 0.547D-02
 Coeff-Com: -0.176D+01 0.869D+00 0.603D+00-0.604D+00 0.690D+00-0.115D+01
 Coeff-Com: -0.728D-01 0.166D+01
 Coeff-En:   0.000D+00 0.000D+00 0.000D+00 0.000D+00 0.000D+00 0.000D+00
 Coeff-En:   0.000D+00 0.000D+00 0.000D+00 0.000D+00 0.000D+00 0.000D+00
 Coeff-En:   0.000D+00 0.000D+00 0.000D+00 0.000D+00 0.000D+00 0.000D+00
 Coeff-En:   0.000D+00 0.100D+01
 Coeff:     -0.228D-02-0.748D-02 0.107D+00-0.600D-01 0.560D-01-0.598D-01
 Coeff:      0.472D+00-0.103D+00 0.267D+00-0.562D+00 0.653D+00 0.547D-02
 Coeff:     -0.176D+01 0.869D+00 0.603D+00-0.604D+00 0.690D+00-0.115D+01
 Coeff:     -0.728D-01 0.166D+01
 Gap=     0.262 Goal=   None    Shift=    0.000
 RMSDP=2.10D-04 MaxDP=4.95D-03 DE= 3.26D-05 OVMax= 6.14D-03

 Cycle  29  Pass 1  IDiag  3:
 E= 0.409389166401411     Delta-E=        0.000067967752 Rises=F Damp=F
 DIIS: error= 1.21D-03 at cycle  29 NSaved=  20.
 NSaved=20 IEnMin=12 EnMin= 0.409215623694422     IErMin= 1 ErrMin= 1.21D-03
 ErrMax= 1.21D-03  0.00D+00 EMaxC= 1.00D-01 BMatC= 6.52D-06 BMatP= 6.52D-06
 IDIUse=3 WtCom= 9.88D-01 WtEn= 1.17D-02
 Rare condition: small coef for last iteration:  0.000D+00
 Coeff-Com: -0.303D-01 0.135D+00-0.801D-01 0.854D-01-0.455D-01-0.657D-01
 Coeff-Com:  0.604D+00 0.174D+00-0.352D+00 0.309D+00 0.903D+00-0.216D+01
 Coeff-Com:  0.432D+00-0.670D+01 0.632D+01 0.124D+01-0.540D+00-0.898D+00
 Coeff-Com: -0.659D-01 0.174D+01
 Coeff-En:   0.000D+00 0.000D+00 0.000D+00 0.000D+00 0.000D+00 0.000D+00
 Coeff-En:   0.000D+00 0.000D+00 0.000D+00 0.000D+00 0.000D+00 0.000D+00
 Coeff-En:   0.000D+00 0.000D+00 0.000D+00 0.000D+00 0.000D+00 0.000D+00
 Coeff-En:   0.000D+00 0.100D+01
 Coeff:     -0.303D-01 0.135D+00-0.801D-01 0.854D-01-0.455D-01-0.657D-01
 Coeff:      0.604D+00 0.174D+00-0.352D+00 0.309D+00 0.903D+00-0.216D+01
 Coeff:      0.432D+00-0.670D+01 0.632D+01 0.124D+01-0.540D+00-0.898D+00
 Coeff:     -0.659D-01 0.174D+01
 Gap=     0.262 Goal=   None    Shift=    0.000
 RMSDP=4.17D-05 MaxDP=9.39D-04 DE= 6.80D-05 OVMax= 1.23D-03

 Cycle  30  Pass 1  IDiag  3:
 E= 0.409402258751356     Delta-E=        0.000013092350 Rises=F Damp=F
 DIIS: error= 1.21D-03 at cycle  30 NSaved=  20.
 NSaved=20 IEnMin=11 EnMin= 0.409215623694422     IErMin= 1 ErrMin= 1.21D-03
 ErrMax= 1.21D-03  0.00D+00 EMaxC= 1.00D-01 BMatC= 6.51D-06 BMatP= 6.52D-06
 IDIUse=3 WtCom= 9.88D-01 WtEn= 1.17D-02
 Rare condition: small coef for last iteration:  0.000D+00
 Coeff-Com:  0.851D-01 0.123D+00 0.619D-01-0.344D+00 0.522D+00-0.142D+00
 Coeff-Com:  0.311D-02 0.819D+00-0.931D+00 0.178D+01-0.257D+01 0.113D+01
 Coeff-Com:  0.205D+01-0.315D+01 0.223D+00-0.635D+00 0.187D-01-0.153D+01
 Coeff-Com: -0.414D+00 0.390D+01
 Coeff-En:   0.000D+00 0.000D+00 0.000D+00 0.000D+00 0.000D+00 0.000D+00
 Coeff-En:   0.000D+00 0.000D+00 0.000D+00 0.000D+00 0.000D+00 0.000D+00
 Coeff-En:   0.000D+00 0.000D+00 0.000D+00 0.000D+00 0.000D+00 0.000D+00
 Coeff-En:   0.000D+00 0.100D+01
 Coeff:      0.851D-01 0.123D+00 0.619D-01-0.344D+00 0.522D+00-0.142D+00
 Coeff:      0.311D-02 0.819D+00-0.931D+00 0.178D+01-0.257D+01 0.113D+01
 Coeff:      0.205D+01-0.315D+01 0.223D+00-0.635D+00 0.187D-01-0.153D+01
 Coeff:     -0.414D+00 0.390D+01
 Gap=     0.262 Goal=   None    Shift=    0.000
 RMSDP=1.18D-03 MaxDP=2.86D-02 DE= 1.31D-05 OVMax= 3.45D-02

 Cycle  31  Pass 1  IDiag  3:
 E= 0.409782779584930     Delta-E=        0.000380520834 Rises=F Damp=F
 DIIS: error= 1.20D-03 at cycle  31 NSaved=  20.
 NSaved=20 IEnMin=10 EnMin= 0.409215623694422     IErMin=20 ErrMin= 1.20D-03
 ErrMax= 1.20D-03  0.00D+00 EMaxC= 1.00D-01 BMatC= 6.68D-06 BMatP= 6.51D-06
 IDIUse=3 WtCom= 9.88D-01 WtEn= 1.17D-02
 Large coefficients: NSaved= 20 BigCof=   21.01 CofMax=   10.00 Det=-1.03D-11
 Inversion failed.  Reducing to 19 matrices.
 Large coefficients: NSaved= 19 BigCof=   21.79 CofMax=   10.00 Det=-1.04D-11
 Inversion failed.  Reducing to 18 matrices.
 Large coefficients: NSaved= 18 BigCof=   22.00 CofMax=   10.00 Det=-1.05D-11
 Inversion failed.  Reducing to 17 matrices.
 Large coefficients: NSaved= 17 BigCof=   17.91 CofMax=   10.00 Det=-1.18D-11
 Inversion failed.  Reducing to 16 matrices.
 Large coefficients: NSaved= 16 BigCof=   18.21 CofMax=   10.00 Det=-1.18D-11
 Inversion failed.  Reducing to 15 matrices.
 Large coefficients: NSaved= 15 BigCof=   19.38 CofMax=   10.00 Det=-1.20D-11
 Inversion failed.  Reducing to 14 matrices.
 Large coefficients: NSaved= 14 BigCof=   19.37 CofMax=   10.00 Det=-1.21D-11
 Inversion failed.  Reducing to 13 matrices.
 Large coefficients: NSaved= 13 BigCof=   20.70 CofMax=   10.00 Det=-1.21D-11
 Inversion failed.  Reducing to 12 matrices.
 Large coefficients: NSaved= 12 BigCof=   19.26 CofMax=   10.00 Det=-1.33D-11
 Inversion failed.  Reducing to 11 matrices.
 Large coefficients: NSaved= 11 BigCof=   21.75 CofMax=   10.00 Det=-1.33D-11
 Inversion failed.  Reducing to 10 matrices.
 Large coefficients: NSaved= 10 BigCof=   18.71 CofMax=   10.00 Det=-1.30D-11
 Inversion failed.  Reducing to  9 matrices.
 Large coefficients: NSaved=  9 BigCof=   17.07 CofMax=   10.00 Det=-1.32D-11
 Inversion failed.  Reducing to  8 matrices.
 Large coefficients: NSaved=  8 BigCof=   17.47 CofMax=   10.00 Det=-6.27D-11
 Inversion failed.  Reducing to  7 matrices.
 Large coefficients: NSaved=  7 BigCof=   17.30 CofMax=   10.00 Det=-7.50D-11
 Inversion failed.  Reducing to  6 matrices.
 Rare condition: small coef for last iteration:  0.000D+00
 Coeff-Com:  0.964D+00 0.203D-01-0.452D+00-0.115D+01 0.120D+01 0.422D+00
 Coeff-En:   0.000D+00 0.000D+00 0.000D+00 0.000D+00 0.000D+00 0.100D+01
 Coeff:      0.964D+00 0.203D-01-0.452D+00-0.115D+01 0.120D+01 0.422D+00
 Gap=     0.262 Goal=   None    Shift=    0.000
 RMSDP=5.48D-04 MaxDP=1.35D-02 DE= 3.81D-04 OVMax= 1.58D-02

 Cycle  32  Pass 1  IDiag  3:
 E= 0.409606002289138     Delta-E=       -0.000176777296 Rises=F Damp=F
 DIIS: error= 1.21D-03 at cycle  32 NSaved=   7.
 NSaved= 7 IEnMin= 3 EnMin= 0.409215623694422     IErMin= 6 ErrMin= 1.20D-03
 ErrMax= 1.21D-03  0.00D+00 EMaxC= 1.00D-01 BMatC= 6.54D-06 BMatP= 6.51D-06
 IDIUse=3 WtCom= 9.88D-01 WtEn= 1.17D-02
 Coeff-Com:  0.939D+00 0.508D-01-0.451D+00-0.115D+01 0.113D+01 0.394D+00
 Coeff-Com:  0.832D-01
 Coeff-En:   0.000D+00 0.000D+00 0.000D+00 0.000D+00 0.000D+00 0.000D+00
 Coeff-En:   0.100D+01
 Coeff:      0.928D+00 0.502D-01-0.446D+00-0.113D+01 0.112D+01 0.389D+00
 Coeff:      0.939D-01
 Gap=     0.262 Goal=   None    Shift=    0.000
 RMSDP=2.76D-05 MaxDP=4.13D-04 DE=-1.77D-04 OVMax= 4.27D-04

 >>>>>>>>>> Convergence criterion not met.
 SCF Done:  E(RAM1) =  0.409606002289     A.U. after   33 cycles
            NFock= 32  Conv=0.28D-04     -V/T= 1.0017
 KE=-2.357706679504D+02 PE=-7.601361023911D+02 EE= 4.678710723403D+02
 Leave Link  502 at Fri May 23 07:30:12 2025, MaxMem=  3758096384 cpu:               0.2 elap:               0.0
 (Enter /apps/easybuild-2022/easybuild/software/Compiler/NVHPC/22.11-CUDA-11.7.0/Gaussian/g16c01-CUDA-11.7.0/g16/l508.exe)
 Keep J ints in memory in canonical form, NReq=866260.
 FoFCou: FMM=F IPFlag=           0 FMFlag=           0 FMFlg1=           0
         NFxFlg=           0 DoJE=F BraDBF=F KetDBF=F FulRan=T
         wScrn=  0.000000 ICntrl=       600 IOpCl=  2 I1Cent=           0 NGrid=           0
         NMat0=    1 NMatS0=    111 NMatT0=    0 NMatD0=    1 NMtDS0=    0 NMtDT0=    0
 Symmetry not used in FoFCou.
 Two-electron integral symmetry not used.
 Tight linear equation convergence will be used.
 RAM1 wavefunction.
 Quadratic Convergence SCF Method.
 Line search only if initial step raises energy.
 Iteration   1 EE= 0.409611098880760                                    Grad=3.598D-03 Max rot=    0.1314 deg.
 QCNR:  CnvC1=2.73D-09 CnvC2=2.73D-08
 LinEq1:  Iter=  0 NonCon=     1 RMS=3.44D-04 Max=4.85D-03 NDo=     1
 AX will form     1 AO Fock derivatives at one time.
 LinEq1:  Iter=  1 NonCon=     1 RMS=4.35D-06 Max=3.50D-05 NDo=     1
 LinEq1:  Iter=  2 NonCon=     1 RMS=1.07D-06 Max=1.08D-05 NDo=     1
 LinEq1:  Iter=  3 NonCon=     1 RMS=3.97D-07 Max=4.23D-06 NDo=     1
 LinEq1:  Iter=  4 NonCon=     1 RMS=1.41D-07 Max=1.00D-06 NDo=     1
 LinEq1:  Iter=  5 NonCon=     1 RMS=2.19D-08 Max=1.06D-07 NDo=     1
 LinEq1:  Iter=  6 NonCon=     1 RMS=3.15D-09 Max=1.78D-08 NDo=     1
 LinEq1:  Iter=  7 NonCon=     0 RMS=4.91D-10 Max=2.87D-09 NDo=     1
 Linear equations converged to 2.735D-09 2.735D-08 after     7 iterations.
 Angle between quadratic step and gradient= 157.31 degrees.
 Incorrect curvature in search direction -- initial direction reversed.
     ILin= 1 X=0.000D+00 Y= 4.096110988808D-01 DE= 0.00D+00 F= -2.58D-02
     ILin= 2 X=4.000D-01 Y= 4.046688516999D-01 DE=-4.94D-03 F=  1.42D-02 OKLS=T
     Accept linear search using points  1 and  2.
     An  expanding polynomial of degree  2 produced  0.2460
 Iteration   2 EE= 0.404370575228768     Delta-E=       -0.005240523652 Grad=4.727D-03 Max rot=    0.0583 deg.
 QCNR:  CnvC1=2.73D-09 CnvC2=2.73D-08
 LinEq1:  Iter=  0 NonCon=     1 RMS=3.27D-04 Max=2.59D-03 NDo=     1
 LinEq1:  Iter=  1 NonCon=     1 RMS=1.18D-04 Max=1.22D-03 NDo=     1
 LinEq1:  Iter=  2 NonCon=     1 RMS=3.95D-05 Max=2.62D-04 NDo=     1
 LinEq1:  Iter=  3 NonCon=     1 RMS=1.03D-05 Max=8.45D-05 NDo=     1
 LinEq1:  Iter=  4 NonCon=     1 RMS=2.01D-06 Max=1.41D-05 NDo=     1
 LinEq1:  Iter=  5 NonCon=     1 RMS=3.70D-07 Max=2.31D-06 NDo=     1
 LinEq1:  Iter=  6 NonCon=     1 RMS=8.57D-08 Max=7.51D-07 NDo=     1
 LinEq1:  Iter=  7 NonCon=     1 RMS=2.35D-08 Max=1.48D-07 NDo=     1
 LinEq1:  Iter=  8 NonCon=     1 RMS=4.21D-09 Max=3.20D-08 NDo=     1
 LinEq1:  Iter=  9 NonCon=     0 RMS=7.64D-10 Max=6.42D-09 NDo=     1
 Linear equations converged to 2.735D-09 2.735D-08 after     9 iterations.
 Angle between quadratic step and gradient=  64.89 degrees.
     ILin= 1 X=0.000D+00 Y= 4.043705752288D-01 DE= 0.00D+00 F= -1.37D-03
     ILin= 2 X=1.000D+00 Y= 4.037274510654D-01 DE=-6.43D-04 F=  1.17D-04 OKLS=T
     Accept linear search using points  1 and  2.
     An  expanding polynomial of degree  2 produced  0.9259
     Minimum is close to point  2 DX= -7.41D-02 DF= -4.32D-06 DXR=  8.01D-02 DFR=  6.71D-03 which will be used.
 Iteration   3 EE= 0.403727451065379     Delta-E=       -0.000643124163 Grad=1.735D-03 Max rot=    0.0152 deg.
 QCNR:  CnvC1=2.73D-09 CnvC2=2.73D-08
 LinEq1:  Iter=  0 NonCon=     1 RMS=9.07D-05 Max=7.44D-04 NDo=     1
 LinEq1:  Iter=  1 NonCon=     1 RMS=2.02D-05 Max=1.82D-04 NDo=     1
 LinEq1:  Iter=  2 NonCon=     1 RMS=6.16D-06 Max=7.33D-05 NDo=     1
 LinEq1:  Iter=  3 NonCon=     1 RMS=2.23D-06 Max=1.81D-05 NDo=     1
 LinEq1:  Iter=  4 NonCon=     1 RMS=6.45D-07 Max=6.83D-06 NDo=     1
 LinEq1:  Iter=  5 NonCon=     1 RMS=1.33D-07 Max=1.20D-06 NDo=     1
 LinEq1:  Iter=  6 NonCon=     1 RMS=1.92D-08 Max=8.25D-08 NDo=     1
 LinEq1:  Iter=  7 NonCon=     1 RMS=4.47D-09 Max=4.04D-08 NDo=     1
 LinEq1:  Iter=  8 NonCon=     0 RMS=1.42D-09 Max=1.17D-08 NDo=     1
 Linear equations converged to 2.735D-09 2.735D-08 after     8 iterations.
 Angle between quadratic step and gradient=  77.59 degrees.
     ILin= 1 X=0.000D+00 Y= 4.037274510654D-01 DE= 0.00D+00 F= -1.80D-05
     ILin= 2 X=1.000D+00 Y= 4.037183753672D-01 DE=-9.08D-06 F= -1.25D-07 OKLS=T
     Reject lnstep IMin12=  1  2 Big=T Turn=F Min= 1.007D+00 FVal= 4.037183749292D-01 Lims=  0.00D+00  1.00D+00
     ILin= 3 X=2.000D+00 Y= 4.037271521782D-01 DE=-2.99D-07 F=  1.77D-05
     An  expanding polynomial of degree  3 produced  1.0084
     Minimum is close to point  2 DX=  8.37D-03 DF= -6.25D-10 DXR=  8.30D-03 DFR=  6.89D-05 which will be used.
 Iteration   4 EE= 0.403718375367248     Delta-E=       -0.000009075698 Grad=6.028D-05 Max rot=    0.0006 deg.
 QCNR:  CnvC1=6.03D-10 CnvC2=6.03D-09
 LinEq1:  Iter=  0 NonCon=     1 RMS=3.12D-06 Max=2.65D-05 NDo=     1
 LinEq1:  Iter=  1 NonCon=     1 RMS=1.17D-06 Max=1.14D-05 NDo=     1
 LinEq1:  Iter=  2 NonCon=     1 RMS=2.74D-07 Max=1.93D-06 NDo=     1
 LinEq1:  Iter=  3 NonCon=     1 RMS=5.15D-08 Max=4.39D-07 NDo=     1
 LinEq1:  Iter=  4 NonCon=     1 RMS=1.44D-08 Max=1.23D-07 NDo=     1
 LinEq1:  Iter=  5 NonCon=     1 RMS=3.34D-09 Max=2.91D-08 NDo=     1
 LinEq1:  Iter=  6 NonCon=     1 RMS=8.04D-10 Max=1.03D-08 NDo=     1
 LinEq1:  Iter=  7 NonCon=     0 RMS=2.31D-10 Max=2.19D-09 NDo=     1
 Linear equations converged to 6.028D-10 6.028D-09 after     7 iterations.
 Angle between quadratic step and gradient=  67.96 degrees.
     ILin= 1 X=0.000D+00 Y= 4.037183753672D-01 DE= 0.00D+00 F= -1.79D-07
     ILin= 2 X=1.000D+00 Y= 4.037182855491D-01 DE=-8.98D-08
 Iteration   5 EE= 0.403718285549076     Delta-E=       -0.000000089818 Grad=1.140D-05 Max rot=    0.0001 deg.
 QCNR:  CnvC1=1.14D-10 CnvC2=1.14D-09
 LinEq1:  Iter=  0 NonCon=     1 RMS=5.74D-07 Max=5.45D-06 NDo=     1
 LinEq1:  Iter=  1 NonCon=     1 RMS=2.17D-07 Max=2.70D-06 NDo=     1
 LinEq1:  Iter=  2 NonCon=     1 RMS=5.98D-08 Max=4.58D-07 NDo=     1
 LinEq1:  Iter=  3 NonCon=     1 RMS=1.42D-08 Max=1.20D-07 NDo=     1
 LinEq1:  Iter=  4 NonCon=     1 RMS=4.18D-09 Max=3.76D-08 NDo=     1
 LinEq1:  Iter=  5 NonCon=     1 RMS=7.19D-10 Max=4.66D-09 NDo=     1
 LinEq1:  Iter=  6 NonCon=     1 RMS=1.57D-10 Max=1.25D-09 NDo=     1
 LinEq1:  Iter=  7 NonCon=     0 RMS=5.18D-11 Max=5.21D-10 NDo=     1
 Linear equations converged to 1.140D-10 1.140D-09 after     7 iterations.
 Angle between quadratic step and gradient=  71.34 degrees.
     ILin= 1 X=0.000D+00 Y= 4.037182855491D-01 DE= 0.00D+00 F= -3.58D-09
     ILin= 2 X=1.000D+00 Y= 4.037182837599D-01 DE=-1.79D-09
 Iteration   6 EE= 0.403718283759872     Delta-E=       -0.000000001789 Grad=9.843D-07 Max rot=    0.0000 deg.
 QCNR:  CnvC1=9.84D-12 CnvC2=9.84D-11
 LinEq1:  Iter=  0 NonCon=     1 RMS=5.51D-08 Max=5.53D-07 NDo=     1
 LinEq1:  Iter=  1 NonCon=     1 RMS=2.02D-08 Max=1.64D-07 NDo=     1
 LinEq1:  Iter=  2 NonCon=     1 RMS=4.45D-09 Max=3.09D-08 NDo=     1
 LinEq1:  Iter=  3 NonCon=     1 RMS=9.18D-10 Max=9.33D-09 NDo=     1
 LinEq1:  Iter=  4 NonCon=     1 RMS=2.55D-10 Max=2.03D-09 NDo=     1
 LinEq1:  Iter=  5 NonCon=     1 RMS=5.37D-11 Max=3.80D-10 NDo=     1
 LinEq1:  Iter=  6 NonCon=     1 RMS=1.41D-11 Max=1.70D-10 NDo=     1
 LinEq1:  Iter=  7 NonCon=     0 RMS=4.92D-12 Max=4.81D-11 NDo=     1
 Linear equations converged to 9.843D-12 9.843D-11 after     7 iterations.
 Angle between quadratic step and gradient=  62.41 degrees.
     ILin= 1 X=0.000D+00 Y= 4.037182837599D-01 DE= 0.00D+00 F= -7.40D-11
     ILin= 2 X=1.000D+00 Y= 4.037182837216D-01 DE=-3.83D-11
 Iteration   7 EE= 0.403718283721560     Delta-E=       -0.000000000038 Grad=2.277D-07 Max rot=    0.0000 deg.
 Rotation gradient small -- convergence achieved.
 SCF Done:  E(RAM1) =  0.403718283722     a.u. after    7 cycles
            Convg  =    0.2277D-06                    54 Fock formations.
              S**2 =  0.0000                  -V/T =  1.0017
 Leave Link  508 at Fri May 23 07:30:12 2025, MaxMem=  3758096384 cpu:               0.1 elap:               0.0
 (Enter /apps/easybuild-2022/easybuild/software/Compiler/NVHPC/22.11-CUDA-11.7.0/Gaussian/g16c01-CUDA-11.7.0/g16/l701.exe)
 ... and contract with generalized density number  0.
 Compute integral first derivatives.
 Leave Link  701 at Fri May 23 07:30:12 2025, MaxMem=  3758096384 cpu:               0.1 elap:               0.0
 (Enter /apps/easybuild-2022/easybuild/software/Compiler/NVHPC/22.11-CUDA-11.7.0/Gaussian/g16c01-CUDA-11.7.0/g16/l702.exe)
 L702 exits ... SP integral derivatives will be done elsewhere.
 Leave Link  702 at Fri May 23 07:30:12 2025, MaxMem=  3758096384 cpu:               0.0 elap:               0.0
 (Enter /apps/easybuild-2022/easybuild/software/Compiler/NVHPC/22.11-CUDA-11.7.0/Gaussian/g16c01-CUDA-11.7.0/g16/l703.exe)
 Integral derivatives from FoFJK, PRISM(SPDF).
 Compute integral first derivatives, UseDBF=F ICtDFT=           0.
 Calling FoFJK, ICntrl=      2127 FMM=F ISym2X=0 I1Cent= 0 IOpClX= 0 NMat=1 NMatS=1 NMatT=0.
 FoFJK:  IHMeth= 8 ICntrl=    2127 DoSepK=F KAlg= 0 I1Cent=           0 FoldK=F
 IRaf=         0 NMat=       1 IRICut=       1 DoRegI=T DoRafI=F ISym2E= 0 IDoP0=3 IntGTp=3.
 FoFCou: FMM=F IPFlag=           0 FMFlag=      100000 FMFlg1=         800
         NFxFlg=           0 DoJE=F BraDBF=F KetDBF=F FulRan=T
         wScrn=  0.000000 ICntrl=      2127 IOpCl=  0 I1Cent=           0 NGrid=           0
         NMat0=    1 NMatS0=      1 NMatT0=    0 NMatD0=    1 NMtDS0=    0 NMtDT0=    0
 Symmetry not used in FoFCou.
 Leave Link  703 at Fri May 23 07:30:12 2025, MaxMem=  3758096384 cpu:               0.0 elap:               0.0
 (Enter /apps/easybuild-2022/easybuild/software/Compiler/NVHPC/22.11-CUDA-11.7.0/Gaussian/g16c01-CUDA-11.7.0/g16/l716.exe)
 Dipole        = 8.28641825D-01 1.06514412D+00 1.01925208D+00
 -------------------------------------------------------------------
 Center     Atomic                   Forces (Hartrees/Bohr)
 Number     Number              X              Y              Z
 -------------------------------------------------------------------
      1        6           0.011163564    0.013546549   -0.008070049
      2        6           0.046440087   -0.018538489    0.021779485
      3        9          -0.017380545   -0.004880086   -0.067690059
      4        9           0.009468335    0.060987365    0.017982794
      5       16          -0.001616089   -0.041276686    0.019193407
      6        8          -0.013511516   -0.001863371   -0.006141566
      7        8          -0.002319852    0.014356822    0.006906862
      8        8           0.013067964    0.035349667   -0.023937513
      9        9          -0.009405301   -0.064610790   -0.020408630
     10        9           0.018598760   -0.003644335    0.059172576
     11        9          -0.057046226    0.025618694    0.002365169
     12        1           0.002540818   -0.015045340   -0.001152475
 -------------------------------------------------------------------
 Cartesian Forces:  Max     0.067690059 RMS     0.028688865
 Z-matrix is all fixed cartesians, so copy forces.
 Force constants in Cartesian coordinates: 
                1             2             3             4             5 
      1  0.909892D+00
      2 -0.639804D-01  0.951806D+00
      3  0.710776D-01  0.654872D-01  0.914584D+00
      4 -0.198610D+00 -0.453687D-01  0.525383D-01  0.551768D+00
      5 -0.550864D-01 -0.162307D+00  0.440059D-01  0.772916D-02  0.831796D+00
      6  0.601441D-01  0.413096D-01 -0.178262D+00  0.761341D-01  0.576433D-01
      7  0.140744D-01  0.703225D-02  0.218087D-01 -0.117023D+00 -0.132280D-01
      8  0.977963D-02  0.604682D-02  0.161750D-01 -0.987835D-02 -0.759859D-01
      9 -0.431903D-02 -0.224172D-02 -0.676614D-02 -0.126696D+00 -0.353689D-01
     10  0.762843D-02 -0.204812D-01 -0.955712D-02 -0.764301D-01  0.390599D-01
     11  0.182039D-02 -0.515745D-02 -0.251822D-02  0.316595D-01 -0.539257D+00
     12 -0.683583D-02  0.197763D-01  0.981647D-02  0.700725D-02 -0.798039D-01
     13 -0.553575D-02  0.343556D-02 -0.312050D-02 -0.169666D+00  0.199338D-01
     14 -0.117934D-01  0.759752D-02 -0.640290D-02  0.205124D-01 -0.756003D-01
     15  0.125587D-01 -0.739518D-02  0.743034D-02 -0.158530D-01  0.375843D-02
     16  0.000000D+00  0.000000D+00  0.000000D+00  0.000000D+00  0.000000D+00
     17  0.000000D+00  0.000000D+00  0.000000D+00  0.000000D+00  0.000000D+00
     18  0.000000D+00  0.000000D+00  0.000000D+00  0.000000D+00  0.000000D+00
     19  0.558147D-05  0.649356D-04  0.633379D-04  0.323697D-02  0.203057D-01
     20  0.899495D-05  0.104648D-03  0.102074D-03  0.365331D-04  0.102776D-03
     21 -0.168114D-04 -0.195586D-03 -0.190774D-03  0.100950D-02  0.659518D-02
     22  0.136262D-05  0.158529D-04  0.154628D-04 -0.576435D-02 -0.916998D-02
     23  0.129891D-04  0.151116D-03  0.147398D-03  0.238411D-02  0.530966D-02
     24  0.113597D-04  0.132160D-03  0.128908D-03 -0.165705D-02 -0.140836D-02
     25 -0.895976D-01 -0.783493D-01 -0.173888D-01  0.323806D-02 -0.180418D-01
     26 -0.718087D-01 -0.556334D+00 -0.151401D+00  0.442020D-03 -0.396650D-02
     27 -0.140203D-01 -0.142488D+00 -0.125637D+00 -0.289205D-02  0.208723D-01
     28 -0.123659D+00  0.274193D-02 -0.136312D+00  0.168548D-01  0.388539D-02
     29  0.507709D-02 -0.773292D-01  0.362550D-01  0.102828D-01  0.320317D-02
     30 -0.145933D+00  0.307311D-01 -0.543675D+00 -0.466446D-02 -0.102381D-02
     31 -0.514200D+00  0.194889D+00  0.208755D-01 -0.734772D-02  0.706785D-02
     32  0.185970D+00 -0.164579D+00 -0.185064D-02 -0.177701D-01  0.169856D-01
     33  0.273331D-01 -0.511550D-02 -0.774289D-01  0.152578D-01 -0.135155D-01
     34  0.000000D+00  0.000000D+00  0.000000D+00 -0.257600D-03 -0.245555D-02
     35  0.000000D+00  0.000000D+00  0.000000D+00 -0.294109D-04 -0.280357D-03
     36  0.000000D+00  0.000000D+00  0.000000D+00 -0.184076D-03 -0.175469D-02
                6             7             8             9            10 
      6  0.895578D+00
      7 -0.133167D+00  0.980081D-01
      8 -0.242407D-01  0.116198D-01  0.614256D-01
      9 -0.577343D+00  0.131453D+00  0.368323D-01  0.576875D+00
     10  0.901295D-02  0.151458D-02 -0.105657D-01  0.373450D-03  0.618177D-01
     11 -0.881843D-01 -0.799011D-03  0.629799D-02 -0.249253D-03 -0.328066D-01
     12 -0.889779D-01  0.475972D-02 -0.370206D-01  0.144898D-02 -0.624686D-02
     13 -0.472868D-01  0.346315D-02 -0.828639D-03 -0.829342D-03  0.544083D-02
     14  0.123862D-01 -0.450636D-02  0.261481D-02  0.968306D-03  0.247017D-01
     15 -0.744577D-01 -0.248839D-01  0.815557D-02  0.580027D-02  0.644089D-02
     16  0.000000D+00  0.000000D+00  0.000000D+00  0.000000D+00  0.000000D+00
     17  0.000000D+00  0.000000D+00  0.000000D+00  0.000000D+00  0.000000D+00
     18  0.000000D+00  0.000000D+00  0.000000D+00  0.000000D+00  0.000000D+00
     19  0.118692D-01 -0.301256D-04 -0.101378D-03  0.150487D-04  0.233465D-04
     20 -0.471396D-04 -0.485497D-04 -0.163378D-03  0.242521D-04  0.376246D-04
     21  0.407773D-02  0.907384D-04  0.305350D-03 -0.453266D-04 -0.703197D-04
     22  0.175337D-01 -0.735465D-05 -0.247496D-04  0.367387D-05  0.569964D-05
     23 -0.507838D-02 -0.701077D-04 -0.235924D-03  0.350209D-04  0.543314D-04
     24  0.679930D-02 -0.613132D-04 -0.206329D-03  0.306278D-04  0.475159D-04
     25 -0.122831D-01 -0.185709D-03  0.266539D-03  0.284483D-04  0.223815D-03
     26 -0.299995D-02  0.721325D-04 -0.103529D-03 -0.110498D-04 -0.869339D-04
     27  0.151580D-01 -0.142630D-03  0.204710D-03  0.218491D-04  0.171897D-03
     28  0.221253D-01  0.118113D-03 -0.169522D-03 -0.180934D-04 -0.142349D-03
     29  0.142311D-01 -0.205595D-03  0.295082D-03  0.314947D-04  0.247783D-03
     30 -0.607775D-02 -0.498382D-04  0.715305D-04  0.763459D-05  0.600648D-04
     31 -0.193507D-02  0.679825D-04 -0.975723D-04 -0.104141D-04 -0.819323D-04
     32 -0.477455D-02  0.133457D-03 -0.191545D-03 -0.204439D-04 -0.160842D-03
     33  0.504002D-02  0.192892D-03 -0.276849D-03 -0.295486D-04 -0.232473D-03
     34 -0.214752D-02  0.000000D+00  0.000000D+00  0.000000D+00  0.000000D+00
     35 -0.245189D-03  0.000000D+00  0.000000D+00  0.000000D+00  0.000000D+00
     36 -0.153458D-02  0.000000D+00  0.000000D+00  0.000000D+00  0.000000D+00
               11            12            13            14            15 
     11  0.537588D+00
     12  0.908636D-01  0.758554D-01
     13  0.101104D-03  0.143547D-02  0.345305D+00
     14  0.450455D-03  0.656226D-02 -0.416809D-01  0.996854D+00
     15  0.107420D-03  0.176399D-02 -0.169938D+00  0.174795D+00  0.543509D+00
     16  0.000000D+00  0.000000D+00  0.000000D+00  0.000000D+00  0.000000D+00
     17  0.000000D+00  0.000000D+00  0.000000D+00  0.000000D+00  0.000000D+00
     18  0.000000D+00  0.000000D+00  0.000000D+00  0.000000D+00  0.000000D+00
     19  0.197902D-04 -0.958720D-04 -0.645307D-01  0.105901D+00  0.551783D-01
     20  0.318934D-04 -0.154505D-03  0.111915D+00 -0.748443D+00 -0.343333D+00
     21 -0.596080D-04  0.288767D-03  0.632703D-01 -0.375813D+00 -0.214858D+00
     22  0.483143D-05 -0.234055D-04 -0.119728D+00 -0.837707D-01  0.140807D+00
     23  0.460553D-04 -0.223111D-03 -0.945075D-01 -0.180252D+00  0.165504D+00
     24  0.402780D-04 -0.195123D-03  0.166178D+00  0.166111D+00 -0.280460D+00
     25 -0.272183D-04  0.224447D-03 -0.138107D-04 -0.160676D-03 -0.156723D-03
     26  0.105721D-04 -0.871792D-04  0.536434D-05  0.624094D-04  0.608739D-04
     27 -0.209045D-04  0.172382D-03 -0.106071D-04 -0.123404D-03 -0.120368D-03
     28  0.173111D-04 -0.142750D-03  0.878377D-05  0.102192D-03  0.996772D-04
     29 -0.301330D-04  0.248482D-03 -0.152897D-04 -0.177882D-03 -0.173505D-03
     30 -0.730451D-05  0.602343D-04 -0.370635D-05 -0.431202D-04 -0.420593D-04
     31  0.996383D-05 -0.821635D-04  0.505571D-05  0.588188D-04  0.573716D-04
     32  0.195600D-04 -0.161295D-03  0.992489D-05  0.115467D-03  0.112626D-03
     33  0.282711D-04 -0.233128D-03  0.143449D-04  0.166891D-03  0.162785D-03
     34  0.000000D+00  0.000000D+00  0.525130D-02 -0.936358D-02 -0.431056D-02
     35  0.000000D+00  0.000000D+00  0.163114D-02 -0.322111D-02 -0.159193D-02
     36  0.000000D+00  0.000000D+00 -0.970970D-02  0.213930D-01  0.112719D-01
               16            17            18            19            20 
     16  0.100000D+01
     17  0.000000D+00  0.100000D+01
     18  0.000000D+00  0.000000D+00  0.100000D+01
     19  0.000000D+00  0.000000D+00  0.000000D+00  0.591131D-01
     20  0.000000D+00  0.000000D+00  0.000000D+00 -0.114774D+00  0.759227D+00
     21  0.000000D+00  0.000000D+00  0.000000D+00 -0.591491D-01  0.350440D+00
     22  0.000000D+00  0.000000D+00  0.000000D+00 -0.162014D-02  0.320204D-02
     23  0.000000D+00  0.000000D+00  0.000000D+00 -0.118494D-01 -0.108165D-01
     24  0.000000D+00  0.000000D+00  0.000000D+00 -0.105976D-01 -0.676144D-02
     25  0.000000D+00  0.000000D+00  0.000000D+00  0.000000D+00  0.000000D+00
     26  0.000000D+00  0.000000D+00  0.000000D+00  0.000000D+00  0.000000D+00
     27  0.000000D+00  0.000000D+00  0.000000D+00  0.000000D+00  0.000000D+00
     28  0.000000D+00  0.000000D+00  0.000000D+00  0.000000D+00  0.000000D+00
     29  0.000000D+00  0.000000D+00  0.000000D+00  0.000000D+00  0.000000D+00
     30  0.000000D+00  0.000000D+00  0.000000D+00  0.000000D+00  0.000000D+00
     31  0.000000D+00  0.000000D+00  0.000000D+00  0.000000D+00  0.000000D+00
     32  0.000000D+00  0.000000D+00  0.000000D+00  0.000000D+00  0.000000D+00
     33  0.000000D+00  0.000000D+00  0.000000D+00  0.000000D+00  0.000000D+00
     34  0.000000D+00  0.000000D+00  0.000000D+00  0.380193D-02 -0.377876D-03
     35  0.000000D+00  0.000000D+00  0.000000D+00  0.434077D-03 -0.431431D-04
     36  0.000000D+00  0.000000D+00  0.000000D+00  0.271679D-02 -0.270023D-03
               21            22            23            24            25 
     21  0.198765D+00
     22 -0.719402D-02  0.176014D+00
     23  0.184932D-01  0.141261D-01  0.675203D+00
     24  0.104903D-01 -0.177707D+00 -0.126825D+00  0.313711D+00
     25  0.000000D+00  0.000000D+00  0.000000D+00  0.000000D+00  0.709074D-01
     26  0.000000D+00  0.000000D+00  0.000000D+00  0.000000D+00  0.731966D-01
     27  0.000000D+00  0.000000D+00  0.000000D+00  0.000000D+00  0.182472D-01
     28  0.000000D+00  0.000000D+00  0.000000D+00  0.000000D+00 -0.365013D-03
     29  0.000000D+00  0.000000D+00  0.000000D+00  0.000000D+00 -0.109377D-01
     30  0.000000D+00  0.000000D+00  0.000000D+00  0.000000D+00 -0.560875D-03
     31  0.000000D+00  0.000000D+00  0.000000D+00  0.000000D+00  0.157928D-01
     32  0.000000D+00  0.000000D+00  0.000000D+00  0.000000D+00  0.340536D-01
     33  0.000000D+00  0.000000D+00  0.000000D+00  0.000000D+00  0.118895D-01
     34  0.205968D-02 -0.489017D-01  0.898495D-01  0.237860D-01  0.000000D+00
     35  0.235160D-03  0.756167D-01 -0.489406D+00 -0.310831D-01  0.000000D+00
     36  0.147181D-02  0.265645D-01 -0.520533D-01 -0.505045D-01  0.000000D+00
               26            27            28            29            30 
     26  0.552856D+00
     27  0.155870D+00  0.111099D+00
     28  0.717029D-03 -0.210077D-02  0.109361D+00
     29  0.129375D-01 -0.358977D-01 -0.560465D-02  0.600309D-01
     30  0.573721D-03 -0.155694D-02  0.150396D+00 -0.308995D-01  0.539578D+00
     31 -0.253751D-02  0.747288D-03 -0.217635D-02  0.115552D-02  0.755687D-03
     32 -0.546275D-02  0.158350D-02 -0.168967D-02  0.107062D-02  0.597418D-03
     33 -0.200531D-02  0.863141D-03 -0.340469D-01  0.162046D-01  0.117063D-01
     34  0.000000D+00  0.000000D+00  0.000000D+00  0.000000D+00  0.000000D+00
     35  0.000000D+00  0.000000D+00  0.000000D+00  0.000000D+00  0.000000D+00
     36  0.000000D+00  0.000000D+00  0.000000D+00  0.000000D+00  0.000000D+00
               31            32            33            34            35 
     31  0.507940D+00
     32 -0.200546D+00  0.152042D+00
     33 -0.204082D-01  0.451338D-02  0.599193D-01
     34  0.000000D+00  0.000000D+00  0.000000D+00  0.401060D-01
     35  0.000000D+00  0.000000D+00  0.000000D+00 -0.776525D-01  0.492950D+00
     36  0.000000D+00  0.000000D+00  0.000000D+00 -0.193875D-01  0.326850D-01
               36 
     36  0.392954D-01
 Leave Link  716 at Fri May 23 07:30:12 2025, MaxMem=  3758096384 cpu:               0.0 elap:               0.0
 (Enter /apps/easybuild-2022/easybuild/software/Compiler/NVHPC/22.11-CUDA-11.7.0/Gaussian/g16c01-CUDA-11.7.0/g16/l103.exe)

 GradGradGradGradGradGradGradGradGradGradGradGradGradGradGradGradGradGrad
 Berny optimization.
 Search for a local minimum.
 Step number   1 out of a maximum of    2
 All quantities printed in internal units (Hartrees-Bohrs-Radians)
 Second derivative matrix not updated -- first step.
 ITU=  0
     Eigenvalues ---    0.00078   0.00176   0.00934   0.01671   0.03307
     Eigenvalues ---    0.04703   0.04927   0.05445   0.06449   0.08303
     Eigenvalues ---    0.09270   0.10884   0.12436   0.13690   0.15841
     Eigenvalues ---    0.17569   0.22189   0.32736   0.59762   0.62149
     Eigenvalues ---    0.70452   0.86685   0.91750   1.09519   1.20754
     Eigenvalues ---    1.29344   1.39398   1.51411   1.56933   1.96341
 Quadratic step=2.420D+00 exceeds max=3.000D-01 adjusted using Lamda=-9.528D-02.
 Angle between NR and scaled steps=  69.75 degrees.
 Angle between quadratic step and forces=  35.81 degrees.
 Linear search not attempted -- first point.
 B after Tr=    -0.000250    0.000310    0.000418
         Rot=    1.000000   -0.000102    0.000108    0.000060 Ang=  -0.02 deg.
 Variable       Old X    -DE/DX   Delta X   Delta X   Delta X     New X
                                 (Linear)    (Quad)   (Total)
    X1       -1.71596   0.01116   0.00000  -0.03948  -0.04028  -1.75623
    Y1       -0.73629   0.01355   0.00000  -0.02885  -0.02876  -0.76505
    Z1        2.08796  -0.00807   0.00000   0.03263   0.03251   2.12048
    X2        0.15168   0.04644   0.00000   0.04862   0.04838   0.20006
    Y2        0.74458  -0.01854   0.00000   0.02974   0.02995   0.77452
    Z2        0.40516   0.02178   0.00000  -0.02612  -0.02550   0.37966
    X3       -0.46826  -0.01738   0.00000  -0.00619  -0.00591  -0.47417
    Y3        0.57036  -0.00488   0.00000   0.00252   0.00332   0.57368
    Z3       -2.00949  -0.06769   0.00000  -0.11308  -0.11265  -2.12214
    X4       -0.01955   0.00947   0.00000   0.08699   0.08695   0.06740
    Y4        3.23940   0.06099   0.00000   0.11469   0.11481   3.35420
    Z4        0.87845   0.01798   0.00000   0.03231   0.03343   0.91189
    X5        3.61277  -0.00162   0.00000   0.03988   0.03938   3.65215
    Y5       -0.18737  -0.04128   0.00000  -0.03010  -0.03045  -0.21782
    Z5        1.05562   0.01919   0.00000   0.01182   0.01298   1.06860
    X6        3.31863  -0.01351   0.00000  -0.01582  -0.01610   3.30253
    Y6        4.58880  -0.00186   0.00000   0.00048  -0.00015   4.58865
    Z6        2.70528  -0.00614   0.00000  -0.00817  -0.00611   2.69918
    X7        4.00798  -0.00232   0.00000   0.01383   0.01329   4.02127
    Y7       -2.63545   0.01436   0.00000  -0.00642  -0.00657  -2.64202
    Z7       -0.12301   0.00691   0.00000  -0.00075  -0.00000  -0.12302
    X8        4.94040   0.01307   0.00000   0.02327   0.02345   4.96384
    Y8        1.53950   0.03535   0.00000   0.03524   0.03518   1.57469
    Z8       -1.07820  -0.02394   0.00000  -0.03598  -0.03417  -1.11238
    X9       -2.05995  -0.00941   0.00000  -0.02251  -0.02343  -2.08338
    Y9       -3.09688  -0.06461   0.00000  -0.11973  -0.11944  -3.21633
    Z9        1.34202  -0.02041   0.00000  -0.00558  -0.00627   1.33576
   X10       -0.96187   0.01860   0.00000  -0.00187  -0.00321  -0.96509
   Y10       -0.88444  -0.00364   0.00000  -0.00836  -0.00887  -0.89331
   Z10        4.48624   0.05917   0.00000   0.11334   0.11337   4.59961
   X11       -4.00416  -0.05705   0.00000  -0.11862  -0.11930  -4.12345
   Y11        0.29164   0.02562   0.00000   0.01110   0.01146   0.30310
   Z11        2.18322   0.00237   0.00000   0.00357   0.00316   2.18638
   X12        4.63194   0.00254   0.00000  -0.00358  -0.00322   4.62872
   Y12        3.36545  -0.01505   0.00000  -0.00041  -0.00046   3.36499
   Z12       -0.93828  -0.00115   0.00000  -0.01286  -0.01076  -0.94904
         Item               Value     Threshold  Converged?
 Maximum Force            0.067690     0.000450     NO 
 RMS     Force            0.028689     0.000300     NO 
 Maximum Displacement     0.119441     0.001800     NO 
 RMS     Displacement     0.050112     0.001200     NO 
 Predicted change in Energy=-2.530725D-02
 GradGradGradGradGradGradGradGradGradGradGradGradGradGradGradGradGradGrad

 Leave Link  103 at Fri May 23 07:30:12 2025, MaxMem=  3758096384 cpu:               0.0 elap:               0.0
 (Enter /apps/easybuild-2022/easybuild/software/Compiler/NVHPC/22.11-CUDA-11.7.0/Gaussian/g16c01-CUDA-11.7.0/g16/l9999.exe)
 Unable to Open any file for archive entry.
 1\1\GINC-SPARTAN-BM175\Force\RAM1\ZDO\C2H1F5O3S1\AKHALILOV\23-May-2025
 \0\\#P am1 Symm(None) scf(xqc) pop(None) force\\Gaussian input prepare
 d by ASE\\0,1\C,-0.908046541,-0.3896281243,1.1049033366\C,0.0802646468
 ,0.3940126716,0.2144032711\F,-0.2477915149,0.3018228144,-1.0633764385\
 F,-0.0103462109,1.7142146524,0.464857974\S,1.9117954441,-0.099154149,0
 .558611751\O,1.7561412211,2.4282893206,1.4315737912\O,2.1209292151,-1.
 3946185657,-0.065094619\O,2.6143458139,0.8146704166,-0.5705600098\F,-1
 .0900791921,-1.6388006449,0.7101682836\F,-0.5090000503,-0.4680241074,2
 .3740161509\F,-2.1189076508,0.154327724,1.1553087994\H,2.4511168189,1.
 7809219918,-0.4965172904\\Version=ES64L-G16RevC.01\HF=0.4037183\RMSD=8
 .326e-09\RMSF=2.869e-02\Dipole=0.8286418,1.0651441,1.0192521\PG=Unknow
 n\\@
 The archive entry for this job was punched.


 HICKORY, DICKORY, DOCK
 TWO MICE RAN UP THE CLOCK
 THE CLOCK STRUCK ONE...
 THE OTHER ESCAPED WITH MINOR INJURIES.
 Job cpu time:       0 days  0 hours  0 minutes  0.9 seconds.
 Elapsed time:       0 days  0 hours  0 minutes  0.4 seconds.
 File lengths (MBytes):  RWF=      6 Int=      0 D2E=      0 Chk=      2 Scr=      1
 Normal termination of Gaussian 16 at Fri May 23 07:30:12 2025.
done
