 Entering Gaussian System, Link 0=g16
 Initial command:
 /apps/easybuild-2022/easybuild/software/Compiler/NVHPC/22.11-CUDA-11.7.0/Gaussian/g16c01-CUDA-11.7.0/g16/l1.exe "/tmp/Gau-63449.inp" -scrdir="/tmp/"
 Entering Link 1 = /apps/easybuild-2022/easybuild/software/Compiler/NVHPC/22.11-CUDA-11.7.0/Gaussian/g16c01-CUDA-11.7.0/g16/l1.exe PID=     63602.
  
 Copyright (c) 1988-2019, Gaussian, Inc.  All Rights Reserved.
  
 This is part of the Gaussian(R) 16 program.  It is based on
 the Gaussian(R) 09 system (copyright 2009, Gaussian, Inc.),
 the Gaussian(R) 03 system (copyright 2003, Gaussian, Inc.),
 the Gaussian(R) 98 system (copyright 1998, Gaussian, Inc.),
 the Gaussian(R) 94 system (copyright 1995, Gaussian, Inc.),
 the Gaussian 92(TM) system (copyright 1992, Gaussian, Inc.),
 the Gaussian 90(TM) system (copyright 1990, Gaussian, Inc.),
 the Gaussian 88(TM) system (copyright 1988, Gaussian, Inc.),
 the Gaussian 86(TM) system (copyright 1986, Carnegie Mellon
 University), and the Gaussian 82(TM) system (copyright 1983,
 Carnegie Mellon University). Gaussian is a federally registered
 trademark of Gaussian, Inc.
  
 This software contains proprietary and confidential information,
 including trade secrets, belonging to Gaussian, Inc.
  
 This software is provided under written license and may be
 used, copied, transmitted, or stored only in accord with that
 written license.
  
 The following legend is applicable only to US Government
 contracts under FAR:
  
                    RESTRICTED RIGHTS LEGEND
  
 Use, reproduction and disclosure by the US Government is
 subject to restrictions as set forth in subparagraphs (a)
 and (c) of the Commercial Computer Software - Restricted
 Rights clause in FAR 52.227-19.
  
 Gaussian, Inc.
 340 Quinnipiac St., Bldg. 40, Wallingford CT 06492
  
  
 ---------------------------------------------------------------
 Warning -- This program may not be used in any manner that
 competes with the business of Gaussian, Inc. or will provide
 assistance to any competitor of Gaussian, Inc.  The licensee
 of this program is prohibited from giving any competitor of
 Gaussian, Inc. access to this program.  By using this program,
 the user acknowledges that Gaussian, Inc. is engaged in the
 business of creating and licensing software in the field of
 computational chemistry and represents and warrants to the
 licensee that it is not a competitor of Gaussian, Inc. and that
 it will not use this program in any manner prohibited above.
 ---------------------------------------------------------------
  

 Cite this work as:
 Gaussian 16, Revision C.01,
 M. J. Frisch, G. W. Trucks, H. B. Schlegel, G. E. Scuseria, 
 M. A. Robb, J. R. Cheeseman, G. Scalmani, V. Barone, 
 G. A. Petersson, H. Nakatsuji, X. Li, M. Caricato, A. V. Marenich, 
 J. Bloino, B. G. Janesko, R. Gomperts, B. Mennucci, H. P. Hratchian, 
 J. V. Ortiz, A. F. Izmaylov, J. L. Sonnenberg, D. Williams-Young, 
 F. Ding, F. Lipparini, F. Egidi, J. Goings, B. Peng, A. Petrone, 
 T. Henderson, D. Ranasinghe, V. G. Zakrzewski, J. Gao, N. Rega, 
 G. Zheng, W. Liang, M. Hada, M. Ehara, K. Toyota, R. Fukuda, 
 J. Hasegawa, M. Ishida, T. Nakajima, Y. Honda, O. Kitao, H. Nakai, 
 T. Vreven, K. Throssell, J. A. Montgomery, Jr., J. E. Peralta, 
 F. Ogliaro, M. J. Bearpark, J. J. Heyd, E. N. Brothers, K. N. Kudin, 
 V. N. Staroverov, T. A. Keith, R. Kobayashi, J. Normand, 
 K. Raghavachari, A. P. Rendell, J. C. Burant, S. S. Iyengar, 
 J. Tomasi, M. Cossi, J. M. Millam, M. Klene, C. Adamo, R. Cammi, 
 J. W. Ochterski, R. L. Martin, K. Morokuma, O. Farkas, 
 J. B. Foresman, and D. J. Fox, Gaussian, Inc., Wallingford CT, 2019.
 
 ******************************************
 Gaussian 16:  ES64L-G16RevC.01  3-Jul-2019
                23-May-2025 
 ******************************************
 %mem=28GB
 %nprocshared=8
 Will use up to    8 processors via shared memory.
 ----------------------------------------------------------------------
 #P wb97xd/6-311++G(d,p) Symm(None) scf(xqc) pop(None) freq opt(CalcFC,
  Tight)
 ----------------------------------------------------------------------
 1/7=10,10=4,18=20,19=15,26=3,38=1/1,3;
 2/9=110,12=2,15=3,17=6,18=5,40=1/2;
 3/5=4,6=6,7=1111,11=2,25=1,30=1,71=2,74=-58,140=1/1,2,3;
 4//1;
 5/5=2,8=3,13=1,38=5/2,8;
 8/6=4,10=90,11=11/1;
 11/6=1,8=1,9=11,15=111,16=1,31=1/1,2,10;
 10/6=1,13=1,31=1/2;
 7/10=1,25=1,30=1/1,2,3,16;
 1/7=10,10=4,18=20,19=15,26=3/3(2);
 2/9=110,15=3/2;
 99//99;
 2/9=110,15=3/2;
 3/5=4,6=6,7=1111,11=2,25=1,30=1,71=1,74=-58/1,2,3;
 4/5=5,16=3,69=1/1;
 5/5=2,8=3,13=1,38=5/2,8;
 7/30=1/1,2,3,16;
 1/7=10,18=20,19=15,26=3/3(-5);
 2/9=110,15=3/2;
 99/9=1/99;
 Leave Link    1 at Fri May 23 07:31:36 2025, MaxMem=  3758096384 cpu:               0.1 elap:               0.0
 (Enter /apps/easybuild-2022/easybuild/software/Compiler/NVHPC/22.11-CUDA-11.7.0/Gaussian/g16c01-CUDA-11.7.0/g16/l101.exe)
 ------------------------------
 Gaussian input prepared by ASE
 ------------------------------
 Symbolic Z-matrix:
 Charge =  0 Multiplicity = 1
 C                    -0.65872  -1.35174   0.35075 
 C                     0.        0.        0. 
 F                    -0.44955   0.46159  -1.1394 
 F                    -0.46902   0.93905   0.98939 
 S                     1.95041   0.        0. 
 O                     0.57681   1.14168   2.22428 
 O                     2.25019  -0.41945  -1.36045 
 O                     2.04414   1.63158   0. 
 F                    -0.31448  -2.24066  -0.57341 
 F                    -0.23434  -1.76837   1.53598 
 F                    -1.9813   -1.23968   0.37431 
 H                     1.8116    1.93056   0.90027 
 
 ITRead=  0  0  0  0  0  0  0  0  0  0  0  0
 MicOpt= -1 -1 -1 -1 -1 -1 -1 -1 -1 -1 -1 -1
 NAtoms=     12 NQM=       12 NQMF=       0 NMMI=      0 NMMIF=      0
                NMic=       0 NMicF=      0.
                    Isotopes and Nuclear Properties:
 (Nuclear quadrupole moments (NQMom) in fm**2, nuclear magnetic moments (NMagM)
  in nuclear magnetons)

  Atom         1           2           3           4           5           6           7           8           9          10
 IAtWgt=          12          12          19          19          32          16          16          16          19          19
 AtmWgt=  12.0000000  12.0000000  18.9984032  18.9984032  31.9720718  15.9949146  15.9949146  15.9949146  18.9984032  18.9984032
 NucSpn=           0           0           1           1           0           0           0           0           1           1
 AtZEff=  -0.0000000  -0.0000000  -0.0000000  -0.0000000  -0.0000000  -0.0000000  -0.0000000  -0.0000000  -0.0000000  -0.0000000
 NQMom=    0.0000000   0.0000000   0.0000000   0.0000000   0.0000000   0.0000000   0.0000000   0.0000000   0.0000000   0.0000000
 NMagM=    0.0000000   0.0000000   2.6288670   2.6288670   0.0000000   0.0000000   0.0000000   0.0000000   2.6288670   2.6288670
 AtZNuc=   6.0000000   6.0000000   9.0000000   9.0000000  16.0000000   8.0000000   8.0000000   8.0000000   9.0000000   9.0000000

  Atom        11          12
 IAtWgt=          19           1
 AtmWgt=  18.9984032   1.0078250
 NucSpn=           1           1
 AtZEff=  -0.0000000  -0.0000000
 NQMom=    0.0000000   0.0000000
 NMagM=    2.6288670   2.7928460
 AtZNuc=   9.0000000   1.0000000
 Leave Link  101 at Fri May 23 07:31:36 2025, MaxMem=  3758096384 cpu:               0.2 elap:               0.2
 (Enter /apps/easybuild-2022/easybuild/software/Compiler/NVHPC/22.11-CUDA-11.7.0/Gaussian/g16c01-CUDA-11.7.0/g16/l103.exe)

 GradGradGradGradGradGradGradGradGradGradGradGradGradGradGradGradGradGrad
 Berny optimization.
 Initialization pass.
                           ----------------------------
                           !    Initial Parameters    !
                           ! (Angstroms and Degrees)  !
 --------------------------                            --------------------------
 ! Name  Definition              Value          Derivative Info.                !
 --------------------------------------------------------------------------------
 ! R1    R(1,2)                  1.5441         calculate D2E/DX2 analytically  !
 ! R2    R(1,9)                  1.3277         calculate D2E/DX2 analytically  !
 ! R3    R(1,10)                 1.3261         calculate D2E/DX2 analytically  !
 ! R4    R(1,11)                 1.3275         calculate D2E/DX2 analytically  !
 ! R5    R(2,3)                  1.309          calculate D2E/DX2 analytically  !
 ! R6    R(2,4)                  1.4425         calculate D2E/DX2 analytically  !
 ! R7    R(2,5)                  1.9504         calculate D2E/DX2 analytically  !
 ! R8    R(4,6)                  1.6309         calculate D2E/DX2 analytically  !
 ! R9    R(5,7)                  1.4549         calculate D2E/DX2 analytically  !
 ! R10   R(5,8)                  1.6343         calculate D2E/DX2 analytically  !
 ! R11   R(8,12)                 0.9767         calculate D2E/DX2 analytically  !
 ! A1    A(2,1,9)              108.5059         calculate D2E/DX2 analytically  !
 ! A2    A(2,1,10)             109.9717         calculate D2E/DX2 analytically  !
 ! A3    A(2,1,11)             110.8031         calculate D2E/DX2 analytically  !
 ! A4    A(9,1,10)             109.1968         calculate D2E/DX2 analytically  !
 ! A5    A(9,1,11)             109.0976         calculate D2E/DX2 analytically  !
 ! A6    A(10,1,11)            109.2379         calculate D2E/DX2 analytically  !
 ! A7    A(1,2,3)              111.0959         calculate D2E/DX2 analytically  !
 ! A8    A(1,2,4)              105.9857         calculate D2E/DX2 analytically  !
 ! A9    A(1,2,5)              115.2527         calculate D2E/DX2 analytically  !
 ! A10   A(3,2,4)              104.8218         calculate D2E/DX2 analytically  !
 ! A11   A(3,2,5)              110.0864         calculate D2E/DX2 analytically  !
 ! A12   A(4,2,5)              108.9748         calculate D2E/DX2 analytically  !
 ! A13   A(2,4,6)              113.0626         calculate D2E/DX2 analytically  !
 ! A14   A(2,5,7)              101.8911         calculate D2E/DX2 analytically  !
 ! A15   A(2,5,8)               93.288          calculate D2E/DX2 analytically  !
 ! A16   A(7,5,8)              106.0227         calculate D2E/DX2 analytically  !
 ! A17   A(5,8,12)             106.9747         calculate D2E/DX2 analytically  !
 ! D1    D(9,1,2,3)             63.4834         calculate D2E/DX2 analytically  !
 ! D2    D(9,1,2,4)            176.7954         calculate D2E/DX2 analytically  !
 ! D3    D(9,1,2,5)            -62.6009         calculate D2E/DX2 analytically  !
 ! D4    D(10,1,2,3)          -177.1387         calculate D2E/DX2 analytically  !
 ! D5    D(10,1,2,4)           -63.8268         calculate D2E/DX2 analytically  !
 ! D6    D(10,1,2,5)            56.777          calculate D2E/DX2 analytically  !
 ! D7    D(11,1,2,3)           -56.2686         calculate D2E/DX2 analytically  !
 ! D8    D(11,1,2,4)            57.0434         calculate D2E/DX2 analytically  !
 ! D9    D(11,1,2,5)           177.6471         calculate D2E/DX2 analytically  !
 ! D10   D(1,2,4,6)             96.6519         calculate D2E/DX2 analytically  !
 ! D11   D(3,2,4,6)           -145.7607         calculate D2E/DX2 analytically  !
 ! D12   D(5,2,4,6)            -27.9432         calculate D2E/DX2 analytically  !
 ! D13   D(1,2,5,7)             87.4107         calculate D2E/DX2 analytically  !
 ! D14   D(1,2,5,8)           -165.4538         calculate D2E/DX2 analytically  !
 ! D15   D(3,2,5,7)            -39.189          calculate D2E/DX2 analytically  !
 ! D16   D(3,2,5,8)             67.9465         calculate D2E/DX2 analytically  !
 ! D17   D(4,2,5,7)           -153.6307         calculate D2E/DX2 analytically  !
 ! D18   D(4,2,5,8)            -46.4952         calculate D2E/DX2 analytically  !
 ! D19   D(2,5,8,12)            74.5216         calculate D2E/DX2 analytically  !
 ! D20   D(7,5,8,12)           177.8912         calculate D2E/DX2 analytically  !
 --------------------------------------------------------------------------------
 Trust Radius=3.00D-01 FncErr=1.00D-07 GrdErr=1.00D-06 EigMax=2.50D+02 EigMin=1.00D-04
 Number of steps in this run=     58 maximum allowed number of steps=    100.
 GradGradGradGradGradGradGradGradGradGradGradGradGradGradGradGradGradGrad

 Leave Link  103 at Fri May 23 07:31:36 2025, MaxMem=  3758096384 cpu:               0.1 elap:               0.0
 (Enter /apps/easybuild-2022/easybuild/software/Compiler/NVHPC/22.11-CUDA-11.7.0/Gaussian/g16c01-CUDA-11.7.0/g16/l202.exe)
                          Input orientation:                          
 ---------------------------------------------------------------------
 Center     Atomic      Atomic             Coordinates (Angstroms)
 Number     Number       Type             X           Y           Z
 ---------------------------------------------------------------------
      1          6           0       -0.658716   -1.351740    0.350747
      2          6           0        0.000000    0.000000    0.000000
      3          9           0       -0.449548    0.461588   -1.139403
      4          9           0       -0.469018    0.939050    0.989386
      5         16           0        1.950409    0.000000    0.000000
      6          8           0        0.576814    1.141683    2.224279
      7          8           0        2.250186   -0.419451   -1.360447
      8          8           0        2.044141    1.631580    0.000000
      9          9           0       -0.314476   -2.240656   -0.573407
     10          9           0       -0.234342   -1.768366    1.535977
     11          9           0       -1.981299   -1.239685    0.374306
     12          1           0        1.811604    1.930559    0.900274
 ---------------------------------------------------------------------
                    Distance matrix (angstroms):
                    1          2          3          4          5
     1  C    0.000000
     2  C    1.544063   0.000000
     3  F    2.356365   1.308968   0.000000
     4  F    2.385700   1.442456   2.181764   0.000000
     5  S    2.959350   1.950409   2.696497   2.777468   0.000000
     6  O    3.354670   2.565847   3.581942   1.630885   2.852651
     7  O    3.501294   2.662723   2.848448   3.842046   1.454862
     8  O    4.040873   2.615448   2.980874   2.788271   1.634271
     9  F    1.327680   2.334144   2.764184   3.546370   3.237134
    10  F    1.326062   2.353988   3.489508   2.771992   3.203042
    11  F    1.327530   2.366953   2.744431   2.722536   4.139474
    12  H    4.144628   2.796329   3.380971   2.488427   2.134670
                    6          7          8          9         10
     6  O    0.000000
     7  O    4.252949   0.000000
     8  O    2.709329   2.469818   0.000000
     9  F    4.479025   3.242486   4.570130   0.000000
    10  F    3.098405   4.047434   4.371538   2.163095   0.000000
    11  F    3.954397   4.646247   4.958673   2.162961   2.163526
    12  H    1.974847   3.290252   0.976706   4.908257   4.274582
                   11         12
    11  F    0.000000
    12  H    4.971237   0.000000
 Symmetry turned off by external request.
 Stoichiometry    C2HF5O3S
 Rotational constants (GHZ):           1.3602904           0.8663826           0.7187709
 Leave Link  202 at Fri May 23 07:31:36 2025, MaxMem=  3758096384 cpu:               0.1 elap:               0.0
 (Enter /apps/easybuild-2022/easybuild/software/Compiler/NVHPC/22.11-CUDA-11.7.0/Gaussian/g16c01-CUDA-11.7.0/g16/l301.exe)
 Standard basis: 6-311++G(d,p) (5D, 7F)
 Ernie: Thresh=  0.10000D-02 Tol=  0.10000D-05 Strict=F.
   257 basis functions,   419 primitive gaussians,   268 cartesian basis functions
    49 alpha electrons       49 beta electrons
       nuclear repulsion energy       894.0362582175 Hartrees.
 IExCor= 4639 DFT=T Ex+Corr=wB97XD ExCW=0 ScaHFX=  1.000000
 ScaDFX=  1.000000  1.000000  1.000000  1.000000 ScalE2=  1.000000  1.000000
 IRadAn=      5 IRanWt=     -1 IRanGd=            0 ICorTp=0 IEmpDi=121
 HFx  wShort=  0.000000 wLong=  0.200000 cFull=  0.222036 cShort=  0.000000 cLong=  0.777964
 DFx  wShort=  0.000000 wLong=  0.200000 cFull=  0.000000 cShort=  0.000000 cLong=  1.000000
 NAtoms=   12 NActive=   12 NUniq=   12 SFac= 1.00D+00 NAtFMM=   60 NAOKFM=F Big=F
 Integral buffers will be    131072 words long.
 Raffenetti 2 integral format.
 Two-electron integral symmetry is turned off.
 R6Disp:  Grimme-D2 Dispersion energy=       -0.0054761316 Hartrees.
 Nuclear repulsion after empirical dispersion term =      894.0307820859 Hartrees.
 Leave Link  301 at Fri May 23 07:31:36 2025, MaxMem=  3758096384 cpu:               0.1 elap:               0.0
 (Enter /apps/easybuild-2022/easybuild/software/Compiler/NVHPC/22.11-CUDA-11.7.0/Gaussian/g16c01-CUDA-11.7.0/g16/l302.exe)
 NPDir=0 NMtPBC=     1 NCelOv=     1 NCel=       1 NClECP=     1 NCelD=      1
         NCelK=      1 NCelE2=     1 NClLst=     1 CellRange=     0.0.
 One-electron integrals computed using PRISM.
 NBasis=   257 RedAO= T EigKep=  4.68D-05  NBF=   257
 NBsUse=   257 1.00D-06 EigRej= -1.00D+00 NBFU=   257
 Precomputing XC quadrature grid using
 IXCGrd= 4 IRadAn=           5 IRanWt=          -1 IRanGd=           0 AccXCQ= 0.00D+00.
 Generated NRdTot=       0 NPtTot=           0 NUsed=           0 NTot=          32
 NSgBfM=   268   268   268   268   268 MxSgAt=    12 MxSgA2=    12.
 Leave Link  302 at Fri May 23 07:31:36 2025, MaxMem=  3758096384 cpu:               0.6 elap:               0.1
 (Enter /apps/easybuild-2022/easybuild/software/Compiler/NVHPC/22.11-CUDA-11.7.0/Gaussian/g16c01-CUDA-11.7.0/g16/l303.exe)
 DipDrv:  MaxL=1.
 Leave Link  303 at Fri May 23 07:31:36 2025, MaxMem=  3758096384 cpu:               0.1 elap:               0.0
 (Enter /apps/easybuild-2022/easybuild/software/Compiler/NVHPC/22.11-CUDA-11.7.0/Gaussian/g16c01-CUDA-11.7.0/g16/l401.exe)
 ExpMin= 3.60D-02 ExpMax= 9.34D+04 ExpMxC= 3.17D+03 IAcc=3 IRadAn=         5 AccDes= 0.00D+00
 Harris functional with IExCor= 4639 and IRadAn=       5 diagonalized for initial guess.
 HarFok:  IExCor= 4639 AccDes= 0.00D+00 IRadAn=         5 IDoV= 1 UseB2=F ITyADJ=14
 ICtDFT=  3500011 ScaDFX=  1.000000  1.000000  1.000000  1.000000
 FoFCou: FMM=F IPFlag=           0 FMFlag=      100000 FMFlg1=           0
         NFxFlg=           0 DoJE=T BraDBF=F KetDBF=T FulRan=T
         wScrn=  0.000000 ICntrl=       500 IOpCl=  0 I1Cent=   200000004 NGrid=           0
         NMat0=    1 NMatS0=      1 NMatT0=    0 NMatD0=    1 NMtDS0=    0 NMtDT0=    0
 Symmetry not used in FoFCou.
 Harris En= -1167.01246140106    
 JPrj=0 DoOrth=F DoCkMO=F.
 Leave Link  401 at Fri May 23 07:31:37 2025, MaxMem=  3758096384 cpu:               2.3 elap:               0.5
 (Enter /apps/easybuild-2022/easybuild/software/Compiler/NVHPC/22.11-CUDA-11.7.0/Gaussian/g16c01-CUDA-11.7.0/g16/l502.exe)
 Keep R1 ints in memory in canonical form, NReq=1117474609.
 FoFCou: FMM=F IPFlag=           0 FMFlag=           0 FMFlg1=           0
         NFxFlg=           0 DoJE=F BraDBF=F KetDBF=F FulRan=T
         wScrn=  0.000000 ICntrl=       600 IOpCl=  0 I1Cent=           0 NGrid=           0
         NMat0=    1 NMatS0=  33153 NMatT0=    0 NMatD0=    1 NMtDS0=    0 NMtDT0=    0
 Symmetry not used in FoFCou.
 Two-electron integral symmetry not used.
 Closed shell SCF:
 Using DIIS extrapolation, IDIIS=  1040.
 NGot=  3758096384 LenX=  2658793876 LenY=  2658721611
 Requested convergence on RMS density matrix=1.00D-08 within  32 cycles.
 Requested convergence on MAX density matrix=1.00D-06.
 Requested convergence on             energy=1.00D-06.
 No special actions if energy rises.

 Cycle   1  Pass 1  IDiag  1:
 E= -1198.72925545274    
 DIIS: error= 1.00D-01 at cycle   1 NSaved=   1.
 NSaved= 1 IEnMin= 1 EnMin= -1198.72925545274     IErMin= 1 ErrMin= 1.00D-01
 ErrMax= 1.00D-01  0.00D+00 EMaxC= 1.00D-01 BMatC= 3.57D+00 BMatP= 3.57D+00
 IDIUse=3 WtCom= 0.00D+00 WtEn= 1.00D+00
 Coeff-Com:  0.100D+01
 Coeff-En:   0.100D+01
 Coeff:      0.100D+01
 Gap=     0.229 Goal=   None    Shift=    0.000
 GapD=    0.229 DampG=1.000 DampE=0.250 DampFc=0.2500 IDamp=-1.
 Damping current iteration by 2.50D-01
 RMSDP=9.47D-03 MaxDP=6.48D-01              OVMax= 2.60D-01

 Cycle   2  Pass 1  IDiag  1:
 E= -1199.03011356815     Delta-E=       -0.300858115410 Rises=F Damp=T
 DIIS: error= 7.20D-02 at cycle   2 NSaved=   2.
 NSaved= 2 IEnMin= 2 EnMin= -1199.03011356815     IErMin= 2 ErrMin= 7.20D-02
 ErrMax= 7.20D-02  0.00D+00 EMaxC= 1.00D-01 BMatC= 1.54D+00 BMatP= 3.57D+00
 IDIUse=3 WtCom= 2.80D-01 WtEn= 7.20D-01
 Coeff-Com: -0.157D+01 0.257D+01
 Coeff-En:   0.000D+00 0.100D+01
 Coeff:     -0.439D+00 0.144D+01
 Gap=     0.292 Goal=   None    Shift=    0.000
 RMSDP=6.39D-03 MaxDP=6.77D-01 DE=-3.01D-01 OVMax= 1.17D-01

 Cycle   3  Pass 1  IDiag  1:
 E= -1199.55981541636     Delta-E=       -0.529701848206 Rises=F Damp=F
 DIIS: error= 1.84D-02 at cycle   3 NSaved=   3.
 NSaved= 3 IEnMin= 3 EnMin= -1199.55981541636     IErMin= 3 ErrMin= 1.84D-02
 ErrMax= 1.84D-02  0.00D+00 EMaxC= 1.00D-01 BMatC= 1.11D-01 BMatP= 1.54D+00
 IDIUse=3 WtCom= 8.16D-01 WtEn= 1.84D-01
 Coeff-Com:  0.380D+00-0.375D+00 0.995D+00
 Coeff-En:   0.000D+00 0.000D+00 0.100D+01
 Coeff:      0.310D+00-0.306D+00 0.996D+00
 Gap=     0.275 Goal=   None    Shift=    0.000
 RMSDP=1.98D-03 MaxDP=1.76D-01 DE=-5.30D-01 OVMax= 5.46D-02

 Cycle   4  Pass 1  IDiag  1:
 E= -1199.58741946151     Delta-E=       -0.027604045156 Rises=F Damp=F
 DIIS: error= 8.03D-03 at cycle   4 NSaved=   4.
 NSaved= 4 IEnMin= 4 EnMin= -1199.58741946151     IErMin= 4 ErrMin= 8.03D-03
 ErrMax= 8.03D-03  0.00D+00 EMaxC= 1.00D-01 BMatC= 3.40D-02 BMatP= 1.11D-01
 IDIUse=3 WtCom= 9.20D-01 WtEn= 8.03D-02
 Coeff-Com:  0.267D+00-0.328D+00 0.525D+00 0.536D+00
 Coeff-En:   0.000D+00 0.000D+00 0.226D+00 0.774D+00
 Coeff:      0.246D+00-0.302D+00 0.501D+00 0.555D+00
 Gap=     0.295 Goal=   None    Shift=    0.000
 RMSDP=1.32D-03 MaxDP=1.57D-01 DE=-2.76D-02 OVMax= 4.66D-02

 Cycle   5  Pass 1  IDiag  1:
 E= -1199.60687857903     Delta-E=       -0.019459117515 Rises=F Damp=F
 DIIS: error= 2.74D-03 at cycle   5 NSaved=   5.
 NSaved= 5 IEnMin= 5 EnMin= -1199.60687857903     IErMin= 5 ErrMin= 2.74D-03
 ErrMax= 2.74D-03  0.00D+00 EMaxC= 1.00D-01 BMatC= 3.78D-03 BMatP= 3.40D-02
 IDIUse=3 WtCom= 9.73D-01 WtEn= 2.74D-02
 Coeff-Com:  0.987D-01-0.132D+00 0.166D+00 0.300D+00 0.567D+00
 Coeff-En:   0.000D+00 0.000D+00 0.000D+00 0.494D-01 0.951D+00
 Coeff:      0.960D-01-0.128D+00 0.162D+00 0.293D+00 0.577D+00
 Gap=     0.281 Goal=   None    Shift=    0.000
 RMSDP=2.88D-04 MaxDP=1.63D-02 DE=-1.95D-02 OVMax= 1.09D-02

 Cycle   6  Pass 1  IDiag  1:
 E= -1199.60924462786     Delta-E=       -0.002366048830 Rises=F Damp=F
 DIIS: error= 5.07D-04 at cycle   6 NSaved=   6.
 NSaved= 6 IEnMin= 6 EnMin= -1199.60924462786     IErMin= 6 ErrMin= 5.07D-04
 ErrMax= 5.07D-04  0.00D+00 EMaxC= 1.00D-01 BMatC= 1.04D-04 BMatP= 3.78D-03
 IDIUse=3 WtCom= 9.95D-01 WtEn= 5.07D-03
 Coeff-Com:  0.500D-02-0.742D-02 0.131D-01 0.552D-01 0.198D+00 0.736D+00
 Coeff-En:   0.000D+00 0.000D+00 0.000D+00 0.000D+00 0.000D+00 0.100D+01
 Coeff:      0.497D-02-0.739D-02 0.130D-01 0.549D-01 0.197D+00 0.737D+00
 Gap=     0.283 Goal=   None    Shift=    0.000
 RMSDP=7.20D-05 MaxDP=5.84D-03 DE=-2.37D-03 OVMax= 3.17D-03

 Cycle   7  Pass 1  IDiag  1:
 E= -1199.60932218633     Delta-E=       -0.000077558466 Rises=F Damp=F
 DIIS: error= 1.38D-04 at cycle   7 NSaved=   7.
 NSaved= 7 IEnMin= 7 EnMin= -1199.60932218633     IErMin= 7 ErrMin= 1.38D-04
 ErrMax= 1.38D-04  0.00D+00 EMaxC= 1.00D-01 BMatC= 1.79D-05 BMatP= 1.04D-04
 IDIUse=3 WtCom= 9.99D-01 WtEn= 1.38D-03
 Coeff-Com: -0.834D-02 0.108D-01-0.123D-01-0.839D-02 0.214D-01 0.356D+00
 Coeff-Com:  0.641D+00
 Coeff-En:   0.000D+00 0.000D+00 0.000D+00 0.000D+00 0.000D+00 0.000D+00
 Coeff-En:   0.100D+01
 Coeff:     -0.833D-02 0.108D-01-0.123D-01-0.838D-02 0.213D-01 0.355D+00
 Coeff:      0.641D+00
 Gap=     0.282 Goal=   None    Shift=    0.000
 RMSDP=3.46D-05 MaxDP=2.30D-03 DE=-7.76D-05 OVMax= 1.39D-03

 Cycle   8  Pass 1  IDiag  1:
 E= -1199.60933813591     Delta-E=       -0.000015949589 Rises=F Damp=F
 DIIS: error= 4.56D-05 at cycle   8 NSaved=   8.
 NSaved= 8 IEnMin= 8 EnMin= -1199.60933813591     IErMin= 8 ErrMin= 4.56D-05
 ErrMax= 4.56D-05  0.00D+00 EMaxC= 1.00D-01 BMatC= 1.44D-06 BMatP= 1.79D-05
 IDIUse=1 WtCom= 1.00D+00 WtEn= 0.00D+00
 Coeff-Com: -0.323D-02 0.427D-02-0.667D-02-0.115D-01-0.256D-01 0.252D-01
 Coeff-Com:  0.184D+00 0.834D+00
 Coeff:     -0.323D-02 0.427D-02-0.667D-02-0.115D-01-0.256D-01 0.252D-01
 Coeff:      0.184D+00 0.834D+00
 Gap=     0.282 Goal=   None    Shift=    0.000
 RMSDP=1.73D-05 MaxDP=8.95D-04 DE=-1.59D-05 OVMax= 1.20D-03

 Cycle   9  Pass 1  IDiag  1:
 E= -1199.60934173049     Delta-E=       -0.000003594574 Rises=F Damp=F
 DIIS: error= 2.77D-05 at cycle   9 NSaved=   9.
 NSaved= 9 IEnMin= 9 EnMin= -1199.60934173049     IErMin= 9 ErrMin= 2.77D-05
 ErrMax= 2.77D-05  0.00D+00 EMaxC= 1.00D-01 BMatC= 2.76D-07 BMatP= 1.44D-06
 IDIUse=1 WtCom= 1.00D+00 WtEn= 0.00D+00
 Coeff-Com:  0.838D-03-0.112D-02 0.176D-03-0.201D-02-0.107D-01-0.432D-01
 Coeff-Com: -0.626D-01 0.207D+00 0.912D+00
 Coeff:      0.838D-03-0.112D-02 0.176D-03-0.201D-02-0.107D-01-0.432D-01
 Coeff:     -0.626D-01 0.207D+00 0.912D+00
 Gap=     0.282 Goal=   None    Shift=    0.000
 RMSDP=7.99D-06 MaxDP=2.17D-04 DE=-3.59D-06 OVMax= 8.29D-04

 Cycle  10  Pass 1  IDiag  1:
 E= -1199.60934301293     Delta-E=       -0.000001282438 Rises=F Damp=F
 DIIS: error= 1.54D-05 at cycle  10 NSaved=  10.
 NSaved=10 IEnMin=10 EnMin= -1199.60934301293     IErMin=10 ErrMin= 1.54D-05
 ErrMax= 1.54D-05  0.00D+00 EMaxC= 1.00D-01 BMatC= 6.49D-08 BMatP= 2.76D-07
 IDIUse=1 WtCom= 1.00D+00 WtEn= 0.00D+00
 Coeff-Com:  0.955D-03-0.127D-02 0.156D-02 0.232D-02 0.494D-02-0.110D-01
 Coeff-Com: -0.541D-01-0.162D+00 0.148D+00 0.107D+01
 Coeff:      0.955D-03-0.127D-02 0.156D-02 0.232D-02 0.494D-02-0.110D-01
 Coeff:     -0.541D-01-0.162D+00 0.148D+00 0.107D+01
 Gap=     0.282 Goal=   None    Shift=    0.000
 RMSDP=5.40D-06 MaxDP=1.75D-04 DE=-1.28D-06 OVMax= 6.15D-04

 Cycle  11  Pass 1  IDiag  1:
 E= -1199.60934359154     Delta-E=       -0.000000578618 Rises=F Damp=F
 DIIS: error= 1.01D-05 at cycle  11 NSaved=  11.
 NSaved=11 IEnMin=11 EnMin= -1199.60934359154     IErMin=11 ErrMin= 1.01D-05
 ErrMax= 1.01D-05  0.00D+00 EMaxC= 1.00D-01 BMatC= 2.18D-08 BMatP= 6.49D-08
 IDIUse=1 WtCom= 1.00D+00 WtEn= 0.00D+00
 Coeff-Com: -0.170D-03 0.237D-03 0.196D-03 0.961D-03 0.412D-02 0.113D-01
 Coeff-Com:  0.133D-01-0.766D-01-0.260D+00 0.124D+00 0.118D+01
 Coeff:     -0.170D-03 0.237D-03 0.196D-03 0.961D-03 0.412D-02 0.113D-01
 Coeff:      0.133D-01-0.766D-01-0.260D+00 0.124D+00 0.118D+01
 Gap=     0.282 Goal=   None    Shift=    0.000
 RMSDP=3.94D-06 MaxDP=1.85D-04 DE=-5.79D-07 OVMax= 5.26D-04

 Cycle  12  Pass 1  IDiag  1:
 E= -1199.60934383017     Delta-E=       -0.000000238623 Rises=F Damp=F
 DIIS: error= 5.86D-06 at cycle  12 NSaved=  12.
 NSaved=12 IEnMin=12 EnMin= -1199.60934383017     IErMin=12 ErrMin= 5.86D-06
 ErrMax= 5.86D-06  0.00D+00 EMaxC= 1.00D-01 BMatC= 7.87D-09 BMatP= 2.18D-08
 IDIUse=1 WtCom= 1.00D+00 WtEn= 0.00D+00
 Coeff-Com: -0.312D-03 0.420D-03-0.312D-03-0.235D-03 0.983D-04 0.732D-02
 Coeff-Com:  0.194D-01 0.215D-01-0.144D+00-0.304D+00 0.450D+00 0.950D+00
 Coeff:     -0.312D-03 0.420D-03-0.312D-03-0.235D-03 0.983D-04 0.732D-02
 Coeff:      0.194D-01 0.215D-01-0.144D+00-0.304D+00 0.450D+00 0.950D+00
 Gap=     0.282 Goal=   None    Shift=    0.000
 RMSDP=2.32D-06 MaxDP=1.09D-04 DE=-2.39D-07 OVMax= 3.37D-04

 Cycle  13  Pass 1  IDiag  1:
 E= -1199.60934389849     Delta-E=       -0.000000068319 Rises=F Damp=F
 DIIS: error= 3.16D-06 at cycle  13 NSaved=  13.
 NSaved=13 IEnMin=13 EnMin= -1199.60934389849     IErMin=13 ErrMin= 3.16D-06
 ErrMax= 3.16D-06  0.00D+00 EMaxC= 1.00D-01 BMatC= 1.80D-09 BMatP= 7.87D-09
 IDIUse=1 WtCom= 1.00D+00 WtEn= 0.00D+00
 Coeff-Com: -0.306D-04 0.364D-04-0.171D-03-0.373D-03-0.127D-02-0.114D-02
 Coeff-Com:  0.362D-03 0.281D-01 0.464D-01-0.120D+00-0.279D+00 0.281D+00
 Coeff-Com:  0.105D+01
 Coeff:     -0.306D-04 0.364D-04-0.171D-03-0.373D-03-0.127D-02-0.114D-02
 Coeff:      0.362D-03 0.281D-01 0.464D-01-0.120D+00-0.279D+00 0.281D+00
 Coeff:      0.105D+01
 Gap=     0.282 Goal=   None    Shift=    0.000
 RMSDP=1.30D-06 MaxDP=9.40D-05 DE=-6.83D-08 OVMax= 1.96D-04

 Cycle  14  Pass 1  IDiag  1:
 E= -1199.60934391395     Delta-E=       -0.000000015461 Rises=F Damp=F
 DIIS: error= 1.06D-06 at cycle  14 NSaved=  14.
 NSaved=14 IEnMin=14 EnMin= -1199.60934391395     IErMin=14 ErrMin= 1.06D-06
 ErrMax= 1.06D-06  0.00D+00 EMaxC= 1.00D-01 BMatC= 2.39D-10 BMatP= 1.80D-09
 IDIUse=1 WtCom= 1.00D+00 WtEn= 0.00D+00
 Coeff-Com:  0.206D-04-0.292D-04-0.147D-04-0.517D-04-0.217D-03-0.114D-02
 Coeff-Com: -0.123D-02 0.892D-03 0.200D-01 0.285D-01-0.843D-01-0.999D-01
 Coeff-Com:  0.991D-01 0.104D+01
 Coeff:      0.206D-04-0.292D-04-0.147D-04-0.517D-04-0.217D-03-0.114D-02
 Coeff:     -0.123D-02 0.892D-03 0.200D-01 0.285D-01-0.843D-01-0.999D-01
 Coeff:      0.991D-01 0.104D+01
 Gap=     0.282 Goal=   None    Shift=    0.000
 RMSDP=3.58D-07 MaxDP=1.24D-05 DE=-1.55D-08 OVMax= 5.02D-05

 Cycle  15  Pass 1  IDiag  1:
 E= -1199.60934391562     Delta-E=       -0.000000001677 Rises=F Damp=F
 DIIS: error= 4.67D-07 at cycle  15 NSaved=  15.
 NSaved=15 IEnMin=15 EnMin= -1199.60934391562     IErMin=15 ErrMin= 4.67D-07
 ErrMax= 4.67D-07  0.00D+00 EMaxC= 1.00D-01 BMatC= 1.05D-10 BMatP= 2.39D-10
 IDIUse=1 WtCom= 1.00D+00 WtEn= 0.00D+00
 Coeff-Com:  0.154D-04-0.202D-04 0.348D-04 0.716D-04 0.229D-03-0.240D-03
 Coeff-Com: -0.441D-03-0.669D-02-0.313D-02 0.474D-01 0.288D-01-0.127D+00
 Coeff-Com: -0.216D+00 0.540D+00 0.737D+00
 Coeff:      0.154D-04-0.202D-04 0.348D-04 0.716D-04 0.229D-03-0.240D-03
 Coeff:     -0.441D-03-0.669D-02-0.313D-02 0.474D-01 0.288D-01-0.127D+00
 Coeff:     -0.216D+00 0.540D+00 0.737D+00
 Gap=     0.282 Goal=   None    Shift=    0.000
 RMSDP=1.45D-07 MaxDP=4.77D-06 DE=-1.68D-09 OVMax= 1.86D-05

 Cycle  16  Pass 1  IDiag  1:
 E= -1199.60934391594     Delta-E=       -0.000000000320 Rises=F Damp=F
 DIIS: error= 1.46D-07 at cycle  16 NSaved=  16.
 NSaved=16 IEnMin=16 EnMin= -1199.60934391594     IErMin=16 ErrMin= 1.46D-07
 ErrMax= 1.46D-07  0.00D+00 EMaxC= 1.00D-01 BMatC= 9.44D-12 BMatP= 1.05D-10
 IDIUse=1 WtCom= 1.00D+00 WtEn= 0.00D+00
 Coeff-Com:  0.345D-05-0.405D-05 0.190D-04 0.374D-04 0.112D-03 0.919D-04
 Coeff-Com: -0.648D-04-0.205D-02-0.459D-02 0.932D-02 0.235D-01-0.195D-01
 Coeff-Com: -0.788D-01-0.373D-01 0.188D+00 0.921D+00
 Coeff:      0.345D-05-0.405D-05 0.190D-04 0.374D-04 0.112D-03 0.919D-04
 Coeff:     -0.648D-04-0.205D-02-0.459D-02 0.932D-02 0.235D-01-0.195D-01
 Coeff:     -0.788D-01-0.373D-01 0.188D+00 0.921D+00
 Gap=     0.282 Goal=   None    Shift=    0.000
 RMSDP=6.50D-08 MaxDP=5.28D-06 DE=-3.20D-10 OVMax= 7.26D-06

 Cycle  17  Pass 1  IDiag  1:
 E= -1199.60934391602     Delta-E=       -0.000000000075 Rises=F Damp=F
 DIIS: error= 5.22D-08 at cycle  17 NSaved=  17.
 NSaved=17 IEnMin=17 EnMin= -1199.60934391602     IErMin=17 ErrMin= 5.22D-08
 ErrMax= 5.22D-08  0.00D+00 EMaxC= 1.00D-01 BMatC= 1.82D-12 BMatP= 9.44D-12
 IDIUse=1 WtCom= 1.00D+00 WtEn= 0.00D+00
 Coeff-Com: -0.147D-05 0.212D-05 0.380D-06-0.534D-06-0.620D-06 0.764D-04
 Coeff-Com:  0.774D-05 0.428D-03-0.567D-03-0.471D-02 0.822D-03 0.151D-01
 Coeff-Com:  0.138D-01-0.934D-01-0.723D-01 0.284D+00 0.857D+00
 Coeff:     -0.147D-05 0.212D-05 0.380D-06-0.534D-06-0.620D-06 0.764D-04
 Coeff:      0.774D-05 0.428D-03-0.567D-03-0.471D-02 0.822D-03 0.151D-01
 Coeff:      0.138D-01-0.934D-01-0.723D-01 0.284D+00 0.857D+00
 Gap=     0.282 Goal=   None    Shift=    0.000
 RMSDP=2.19D-08 MaxDP=6.97D-07 DE=-7.55D-11 OVMax= 2.27D-06

 Cycle  18  Pass 1  IDiag  1:
 E= -1199.60934391603     Delta-E=       -0.000000000005 Rises=F Damp=F
 DIIS: error= 2.28D-08 at cycle  18 NSaved=  18.
 NSaved=18 IEnMin=18 EnMin= -1199.60934391603     IErMin=18 ErrMin= 2.28D-08
 ErrMax= 2.28D-08  0.00D+00 EMaxC= 1.00D-01 BMatC= 3.13D-13 BMatP= 1.82D-12
 IDIUse=1 WtCom= 1.00D+00 WtEn= 0.00D+00
 Coeff-Com: -0.663D-06 0.873D-06-0.183D-05-0.463D-05-0.129D-04 0.137D-04
 Coeff-Com:  0.664D-05 0.393D-03 0.347D-03-0.285D-02-0.232D-02 0.772D-02
 Coeff-Com:  0.139D-01-0.289D-01-0.510D-01-0.518D-02 0.331D+00 0.737D+00
 Coeff:     -0.663D-06 0.873D-06-0.183D-05-0.463D-05-0.129D-04 0.137D-04
 Coeff:      0.664D-05 0.393D-03 0.347D-03-0.285D-02-0.232D-02 0.772D-02
 Coeff:      0.139D-01-0.289D-01-0.510D-01-0.518D-02 0.331D+00 0.737D+00
 Gap=     0.282 Goal=   None    Shift=    0.000
 RMSDP=6.17D-09 MaxDP=1.98D-07 DE=-5.46D-12 OVMax= 6.23D-07

 SCF Done:  E(RwB97XD) =  -1199.60934392     A.U. after   18 cycles
            NFock= 18  Conv=0.62D-08     -V/T= 2.0020
 KE= 1.197241603817D+03 PE=-4.635134238521D+03 EE= 1.344252508702D+03
 Leave Link  502 at Fri May 23 07:31:53 2025, MaxMem=  3758096384 cpu:              76.7 elap:              16.0
 (Enter /apps/easybuild-2022/easybuild/software/Compiler/NVHPC/22.11-CUDA-11.7.0/Gaussian/g16c01-CUDA-11.7.0/g16/l508.exe)
 QCSCF skips out because SCF is already converged.
 Leave Link  508 at Fri May 23 07:31:53 2025, MaxMem=  3758096384 cpu:               0.0 elap:               0.0
 (Enter /apps/easybuild-2022/easybuild/software/Compiler/NVHPC/22.11-CUDA-11.7.0/Gaussian/g16c01-CUDA-11.7.0/g16/l801.exe)
 DoSCS=F DFT=T ScalE2(SS,OS)=  1.000000  1.000000
 Range of M.O.s used for correlation:     1   257
 NBasis=   257 NAE=    49 NBE=    49 NFC=     0 NFV=     0
 NROrb=    257 NOA=    49 NOB=    49 NVA=   208 NVB=   208

 **** Warning!!: The largest alpha MO coefficient is  0.44406871D+02

 Leave Link  801 at Fri May 23 07:31:53 2025, MaxMem=  3758096384 cpu:               0.1 elap:               0.0
 (Enter /apps/easybuild-2022/easybuild/software/Compiler/NVHPC/22.11-CUDA-11.7.0/Gaussian/g16c01-CUDA-11.7.0/g16/l1101.exe)
 Using compressed storage, NAtomX=    12.
 Will process     13 centers per pass.
 R6Disp: Adding Grimme-D2 dispersion energy 1st derivatives to the gradient.
 Leave Link 1101 at Fri May 23 07:31:53 2025, MaxMem=  3758096384 cpu:               0.6 elap:               0.2
 (Enter /apps/easybuild-2022/easybuild/software/Compiler/NVHPC/22.11-CUDA-11.7.0/Gaussian/g16c01-CUDA-11.7.0/g16/l1102.exe)
 Symmetrizing basis deriv contribution to polar:
 IMax=3 JMax=2 DiffMx= 0.00D+00
 Leave Link 1102 at Fri May 23 07:31:53 2025, MaxMem=  3758096384 cpu:               0.1 elap:               0.0
 (Enter /apps/easybuild-2022/easybuild/software/Compiler/NVHPC/22.11-CUDA-11.7.0/Gaussian/g16c01-CUDA-11.7.0/g16/l1110.exe)
 Forming Gx(P) for the SCF density, NAtomX=    12.
 Integral derivatives from FoFJK, PRISM(SPDF).
 Do as many integral derivatives as possible in FoFJK.
 G2DrvN: MDV=    3758095012.
 G2DrvN: will do    13 centers at a time, making    1 passes.
 Calling FoFCou, ICntrl=  3107 FMM=F I1Cent=   0 AccDes= 0.00D+00.
 FoFJK:  IHMeth= 1 ICntrl=    3107 DoSepK=T KAlg= 0 I1Cent=           0 FoldK=F
 IRaf=         1 NMat=       1 IRICut=       1 DoRegI=T DoRafI=F ISym2E= 0 IDoP0=0 IntGTp=1.
 FoFCou: FMM=F IPFlag=           0 FMFlag=      100000 FMFlg1=           0
         NFxFlg=           0 DoJE=F BraDBF=F KetDBF=F FulRan=T
         wScrn=  0.000000 ICntrl=      3507 IOpCl=  0 I1Cent=           0 NGrid=           0
         NMat0=    1 NMatS0=      1 NMatT0=    0 NMatD0=    1 NMtDS0=    0 NMtDT0=    0
 Symmetry not used in FoFCou.
 End of G2Drv F.D. properties file   721 does not exist.
 End of G2Drv F.D. properties file   722 does not exist.
 End of G2Drv F.D. properties file   788 does not exist.
 Leave Link 1110 at Fri May 23 07:32:05 2025, MaxMem=  3758096384 cpu:              93.7 elap:              12.0
 (Enter /apps/easybuild-2022/easybuild/software/Compiler/NVHPC/22.11-CUDA-11.7.0/Gaussian/g16c01-CUDA-11.7.0/g16/l1002.exe)
 Minotr:  Closed shell wavefunction.
          IDoAtm=111111111111
          Direct CPHF calculation.
          Differentiating once with respect to nuclear coordinates.
          Requested convergence is 1.0D-08 RMS, and 1.0D-07 maximum.
          Secondary convergence is 1.0D-12 RMS, and 1.0D-12 maximum.
          NewPWx=T KeepS1=F KeepF1=F KeepIn=T MapXYZ=F SortEE=F KeepMc=T.
         3710 words used for storage of precomputed grid.
 Keep R1 ints in memory in canonical form, NReq=1117480302.
 FoFCou: FMM=F IPFlag=           0 FMFlag=           0 FMFlg1=           0
         NFxFlg=           0 DoJE=F BraDBF=F KetDBF=F FulRan=T
         wScrn=  0.000000 ICntrl=       600 IOpCl=  0 I1Cent=           0 NGrid=           0
         NMat0=    1 NMatS0=  33153 NMatT0=    0 NMatD0=    1 NMtDS0=    0 NMtDT0=    0
 Symmetry not used in FoFCou.
 Two-electron integral symmetry not used.
          MDV=    3758096384 using IRadAn=       1.
          Solving linear equations simultaneously, MaxMat=       0.
          There are    39 degrees of freedom in the 1st order CPHF.  IDoFFX=6 NUNeed=     0.
     33 vectors produced by pass  0 Test12= 2.61D-14 2.56D-09 XBig12= 1.45D-01 8.14D-02.
 AX will form    33 AO Fock derivatives at one time.
     33 vectors produced by pass  1 Test12= 2.61D-14 2.56D-09 XBig12= 2.31D-02 2.77D-02.
     33 vectors produced by pass  2 Test12= 2.61D-14 2.56D-09 XBig12= 1.87D-03 7.46D-03.
     33 vectors produced by pass  3 Test12= 2.61D-14 2.56D-09 XBig12= 3.79D-05 8.90D-04.
     33 vectors produced by pass  4 Test12= 2.61D-14 2.56D-09 XBig12= 7.10D-07 9.74D-05.
     33 vectors produced by pass  5 Test12= 2.61D-14 2.56D-09 XBig12= 1.15D-08 1.68D-05.
     33 vectors produced by pass  6 Test12= 2.61D-14 2.56D-09 XBig12= 1.14D-10 1.34D-06.
     27 vectors produced by pass  7 Test12= 2.61D-14 2.56D-09 XBig12= 8.70D-13 1.02D-07.
      9 vectors produced by pass  8 Test12= 2.61D-14 2.56D-09 XBig12= 5.96D-15 8.04D-09.
 InvSVY:  IOpt=1 It=  1 EMax= 9.99D-16
 Solved reduced A of dimension   267 with    33 vectors.
 End of Minotr F.D. properties file   721 does not exist.
 End of Minotr F.D. properties file   722 does not exist.
 End of Minotr F.D. properties file   788 does not exist.
 Leave Link 1002 at Fri May 23 07:32:31 2025, MaxMem=  3758096384 cpu:             195.9 elap:              25.7
 (Enter /apps/easybuild-2022/easybuild/software/Compiler/NVHPC/22.11-CUDA-11.7.0/Gaussian/g16c01-CUDA-11.7.0/g16/l701.exe)
 ... and contract with generalized density number  0.
 Compute integral second derivatives.
 R6Disp: Adding Grimme-D2 dispersion energy 2nd derivatives to the Hessian.
 Leave Link  701 at Fri May 23 07:32:31 2025, MaxMem=  3758096384 cpu:               1.0 elap:               0.3
 (Enter /apps/easybuild-2022/easybuild/software/Compiler/NVHPC/22.11-CUDA-11.7.0/Gaussian/g16c01-CUDA-11.7.0/g16/l702.exe)
 L702 exits ... SP integral derivatives will be done elsewhere.
 Leave Link  702 at Fri May 23 07:32:31 2025, MaxMem=  3758096384 cpu:               0.1 elap:               0.0
 (Enter /apps/easybuild-2022/easybuild/software/Compiler/NVHPC/22.11-CUDA-11.7.0/Gaussian/g16c01-CUDA-11.7.0/g16/l703.exe)
 Integral derivatives from FoFJK, PRISM(SPDF).
 Compute integral second derivatives, UseDBF=F ICtDFT=           0.
 Calling FoFJK, ICntrl=    100127 FMM=F ISym2X=0 I1Cent= 0 IOpClX= 0 NMat=1 NMatS=1 NMatT=0.
 FoFJK:  IHMeth= 1 ICntrl=  100127 DoSepK=T KAlg= 0 I1Cent=           0 FoldK=F
 IRaf=         1 NMat=       1 IRICut=       1 DoRegI=T DoRafI=F ISym2E= 0 IDoP0=0 IntGTp=1.
 FoFCou: FMM=F IPFlag=           0 FMFlag=      100000 FMFlg1=         800
         NFxFlg=           0 DoJE=F BraDBF=F KetDBF=F FulRan=T
         wScrn=  0.000000 ICntrl=    100527 IOpCl=  0 I1Cent=           0 NGrid=           0
         NMat0=    1 NMatS0=      1 NMatT0=    0 NMatD0=    1 NMtDS0=    0 NMtDT0=    0
 Symmetry not used in FoFCou.
 Leave Link  703 at Fri May 23 07:33:04 2025, MaxMem=  3758096384 cpu:             254.7 elap:              32.2
 (Enter /apps/easybuild-2022/easybuild/software/Compiler/NVHPC/22.11-CUDA-11.7.0/Gaussian/g16c01-CUDA-11.7.0/g16/l716.exe)
 Dipole        =-2.54311863D-01-1.61797877D-02 5.82208644D-01
 Polarizability= 0.00000000D+00 0.00000000D+00 0.00000000D+00
                 0.00000000D+00 0.00000000D+00 0.00000000D+00
 -------------------------------------------------------------------
 Center     Atomic                   Forces (Hartrees/Bohr)
 Number     Number              X              Y              Z
 -------------------------------------------------------------------
      1        6          -0.000010043    0.000010837    0.000005793
      2        6           0.000018588    0.000007412   -0.000000318
      3        9           0.000007798   -0.000009613    0.000004433
      4        9           0.000004544    0.000005308   -0.000029710
      5       16           0.000013268   -0.000005641   -0.000099226
      6        8           0.000027869   -0.000026316    0.000031285
      7        8          -0.000016473    0.000020339    0.000070932
      8        8          -0.000030733   -0.000024251    0.000019172
      9        9           0.000003874   -0.000004870    0.000013861
     10        9          -0.000017337    0.000019655   -0.000000395
     11        9           0.000004393    0.000000673   -0.000001923
     12        1          -0.000005749    0.000006468   -0.000013905
 -------------------------------------------------------------------
 Cartesian Forces:  Max     0.000099226 RMS     0.000025323
 Force constants in Cartesian coordinates: 
                1             2             3             4             5 
      1  0.558616D+00
      2  0.147730D-01  0.576426D+00
      3 -0.239396D-03 -0.114189D-01  0.560283D+00
      4 -0.870952D-01 -0.248379D-01  0.508146D-02  0.396195D+00
      5 -0.784455D-01 -0.153657D+00  0.298418D-01 -0.124562D-01  0.464893D+00
      6  0.134518D-01  0.260656D-01 -0.421921D-01  0.786406D-01 -0.104666D+00
      7  0.234494D-02 -0.423634D-02  0.409775D-02 -0.106771D+00  0.468792D-01
      8  0.216738D-01 -0.555909D-02  0.373732D-01  0.412693D-01 -0.123760D+00
      9 -0.158001D-01  0.861662D-02 -0.309570D-01 -0.971434D-01  0.119341D+00
     10  0.342105D-03 -0.368004D-02 -0.222885D-02 -0.844087D-01  0.502005D-01
     11  0.244468D-01 -0.187745D-01 -0.395046D-01  0.237046D-01 -0.103012D+00
     12  0.103428D-01 -0.231251D-02 -0.155869D-01  0.545756D-02 -0.242910D-01
     13 -0.547240D-02 -0.240385D-01  0.573188D-02 -0.813726D-01  0.398338D-01
     14 -0.219013D-01  0.112098D-01  0.295045D-02 -0.152352D-01 -0.217723D-01
     15  0.158847D-02  0.119031D-01  0.124748D-01 -0.366974D-02  0.491116D-02
     16 -0.123009D-02 -0.281068D-02  0.347186D-02  0.101259D-01 -0.139466D-01
     17  0.210044D-02 -0.175929D-02  0.308201D-02 -0.195199D-02 -0.587128D-02
     18  0.315256D-04 -0.256176D-02  0.238351D-02  0.703091D-02 -0.193913D-01
     19  0.379540D-03  0.322731D-02 -0.419879D-02 -0.179198D-02  0.126596D-02
     20  0.367929D-02 -0.724413D-02 -0.141596D-02  0.756486D-02  0.326352D-02
     21  0.196582D-02 -0.131653D-01 -0.339653D-02  0.474782D-02  0.744366D-03
     22 -0.391329D-02  0.718679D-02 -0.929164D-03 -0.422586D-02 -0.265467D-01
     23  0.232720D-02  0.740057D-02 -0.276462D-02 -0.145321D-02 -0.324748D-01
     24 -0.147004D-02  0.154180D-02 -0.345878D-02 -0.569966D-03 -0.908592D-02
     25 -0.838338D-01  0.264046D-01  0.259306D-01  0.831434D-02 -0.144646D-02
     26  0.248162D-01 -0.207031D+00 -0.997158D-01  0.977573D-02 -0.250064D-01
     27  0.254067D-01 -0.103700D+00 -0.161599D+00  0.345188D-02 -0.948925D-02
     28 -0.903857D-01  0.193562D-01 -0.468822D-01  0.772176D-02 -0.118207D-02
     29  0.159040D-01 -0.120102D+00  0.794103D-01  0.113318D-01 -0.248557D-02
     30 -0.447774D-01  0.846244D-01 -0.244370D+00 -0.108631D-01  0.497365D-02
     31 -0.289716D+00 -0.110506D-01  0.107895D-01 -0.561025D-01  0.224317D-02
     32 -0.870110D-02 -0.800214D-01  0.263014D-02 -0.356433D-01  0.856124D-03
     33  0.934787D-02  0.200383D-02 -0.751712D-01  0.109340D-01  0.110547D-02
     34 -0.362814D-04 -0.293889D-03 -0.624664D-03 -0.589761D-03 -0.639903D-02
     35 -0.672747D-03 -0.887734D-03 -0.467953D-03 -0.206843D-02 -0.973591D-03
     36  0.151859D-03 -0.159708D-02  0.158992D-02 -0.309810D-02  0.600572D-02
                6             7             8             9            10 
      6  0.456140D+00
      7 -0.974855D-01  0.984535D-01
      8  0.982384D-01 -0.460363D-01  0.118705D+00
      9 -0.272045D+00  0.111913D+00 -0.122342D+00  0.376506D+00
     10  0.277597D-01  0.104691D-01 -0.116771D-01 -0.110578D-01  0.139513D+00
     11 -0.143899D-01 -0.407368D-02  0.155976D-01 -0.164650D-01 -0.427400D-01
     12 -0.377045D-01  0.609026D-02 -0.215898D-01 -0.750363D-01  0.205753D-01
     13 -0.449919D-01 -0.245739D-01  0.122859D-02 -0.709553D-02 -0.539034D-02
     14  0.129356D-01  0.173105D-01 -0.289749D-02  0.683076D-02  0.160843D-01
     15 -0.222620D-01 -0.366807D-01  0.861887D-02 -0.259762D-01  0.107572D-01
     16 -0.117856D-01 -0.494216D-03  0.123842D-02  0.576307D-02 -0.592306D-01
     17 -0.771809D-02 -0.109332D-02  0.294457D-03  0.121323D-03 -0.183997D-02
     18 -0.291877D-01 -0.234032D-02 -0.172759D-03  0.330909D-02 -0.440269D-01
     19  0.299804D-01  0.857137D-02 -0.225304D-02  0.485454D-02 -0.622426D-02
     20 -0.823800D-02 -0.254269D-02  0.441614D-03  0.284291D-03  0.220807D-02
     21 -0.177335D-01  0.651579D-02 -0.299021D-02  0.138974D-01  0.529479D-02
     22  0.837288D-02  0.476662D-02 -0.356546D-03  0.181325D-02  0.588657D-02
     23 -0.137406D-02 -0.443446D-02  0.647251D-02 -0.488599D-02 -0.777892D-03
     24 -0.173565D-02  0.253404D-02 -0.652763D-03  0.376836D-02  0.255950D-03
     25 -0.316166D-02  0.468139D-03 -0.141047D-02  0.111714D-02  0.854848D-03
     26 -0.362151D-01 -0.185878D-03 -0.240018D-03  0.272753D-02 -0.395671D-02
     27 -0.969257D-02  0.202620D-03 -0.904014D-03  0.557448D-02 -0.160705D-02
     28  0.326424D-02  0.991243D-03 -0.266794D-02  0.193738D-02  0.221050D-03
     29  0.351355D-01 -0.283791D-02 -0.101102D-01  0.586373D-02 -0.121091D-02
     30 -0.311965D-01  0.329676D-02  0.725735D-02 -0.181679D-02  0.133268D-03
     31  0.138004D-03  0.601360D-02 -0.167298D-02  0.267928D-02  0.328372D-02
     32  0.139788D-02  0.450168D-03  0.121218D-02 -0.111748D-02 -0.136104D-02
     33  0.243228D-02  0.105902D-02 -0.219652D-02  0.360341D-02 -0.134531D-02
     34 -0.418312D-02 -0.239633D-03  0.664261D-03  0.101906D-02 -0.531642D-02
     35 -0.117177D-02  0.800699D-03 -0.156622D-03  0.102518D-02 -0.124929D-02
     36  0.517675D-02  0.797114D-03 -0.639590D-03 -0.827643D-03 -0.451030D-02
               11            12            13            14            15 
     11  0.122577D+00
     12  0.659455D-01  0.164553D+00
     13 -0.497482D-02 -0.567486D-02  0.221493D+00
     14 -0.116227D-01 -0.143768D-01 -0.437091D-01  0.359176D+00
     15 -0.976698D-02 -0.958923D-02 -0.587698D-01  0.110055D+00  0.672083D+00
     16  0.748906D-02 -0.429734D-01  0.136664D-02 -0.811509D-03  0.234703D-02
     17  0.354749D-04 -0.432810D-02  0.441220D-03 -0.700213D-02  0.251943D-02
     18  0.826163D-02 -0.334446D-01  0.620714D-02  0.852987D-02  0.637436D-02
     19  0.470234D-02  0.621936D-02 -0.752053D-01  0.353322D-01  0.844951D-01
     20 -0.653636D-03 -0.198009D-02  0.241588D-01 -0.912787D-01 -0.108342D+00
     21 -0.318884D-03 -0.232590D-02  0.969215D-01 -0.143347D+00 -0.551621D+00
     22 -0.361357D-02 -0.324631D-02 -0.415777D-01  0.471201D-02  0.112603D-02
     23  0.698110D-02  0.782074D-02 -0.142123D-01 -0.214278D+00  0.229733D-01
     24  0.443542D-02  0.793857D-02  0.960074D-02  0.344044D-01 -0.703357D-01
     25 -0.421002D-02 -0.153419D-02 -0.844993D-03  0.370710D-02  0.249945D-02
     26 -0.126084D-01 -0.453308D-02  0.489911D-02 -0.302495D-02 -0.342610D-02
     27 -0.902194D-03  0.924454D-03  0.230995D-02 -0.255975D-02 -0.517544D-02
     28 -0.401561D-03  0.128759D-03 -0.939820D-03  0.187334D-02 -0.101103D-02
     29 -0.164761D-03 -0.234152D-02  0.272340D-02 -0.139543D-02 -0.124267D-02
     30  0.518456D-02  0.676730D-02 -0.241132D-02  0.268610D-04 -0.225083D-02
     31 -0.175884D-02 -0.770857D-03  0.965306D-02 -0.373759D-03 -0.217033D-02
     32  0.112119D-02  0.299518D-03  0.642792D-02 -0.360081D-02 -0.233529D-02
     33  0.196262D-02  0.203202D-02 -0.190979D-02  0.341951D-03 -0.102038D-02
     34  0.142964D-02  0.538557D-02  0.286415D-02  0.301132D-02 -0.511692D-03
     35  0.523975D-03  0.168727D-02  0.722175D-02 -0.135133D-01 -0.358676D-01
     36 -0.444201D-02 -0.852821D-02  0.819892D-04 -0.157908D-01 -0.270154D-02
               16            17            18            19            20 
     16  0.576913D-01
     17  0.422613D-02  0.964540D-02
     18  0.309195D-01  0.101171D-01  0.713071D-01
     19 -0.114899D-02 -0.957007D-03 -0.284275D-02  0.712701D-01
     20  0.697032D-03  0.201724D-02  0.417348D-03 -0.404755D-01  0.101379D+00
     21  0.165566D-02 -0.104320D-02 -0.458479D-03 -0.123487D+00  0.162882D+00
     22 -0.433757D-02 -0.421610D-02  0.981626D-02  0.506234D-02  0.752838D-02
     23 -0.116909D-02  0.698796D-02 -0.311038D-02  0.145699D-02 -0.280087D-02
     24  0.773416D-02  0.666388D-02 -0.161858D-01  0.241544D-02 -0.495192D-01
     25  0.362528D-03  0.946850D-05  0.650202D-04 -0.121767D-02 -0.219277D-02
     26  0.105969D-02  0.467673D-04  0.245024D-02 -0.185958D-02  0.177872D-02
     27 -0.343132D-03 -0.643106D-03  0.587632D-03  0.829713D-03  0.211106D-02
     28 -0.324732D-03 -0.172408D-02 -0.977716D-03  0.329517D-03 -0.463492D-03
     29  0.621209D-03 -0.196815D-02  0.445037D-03 -0.524468D-03  0.753696D-03
     30 -0.205571D-02 -0.249884D-02 -0.118399D-02  0.102785D-02 -0.181559D-03
     31  0.603529D-03 -0.578119D-03 -0.124844D-02 -0.160644D-02  0.874496D-03
     32  0.675928D-03  0.502282D-03  0.506357D-03 -0.100545D-02  0.184766D-02
     33 -0.367486D-03 -0.251894D-03  0.329733D-04  0.612303D-03 -0.166913D-03
     34 -0.338372D-02  0.558333D-02 -0.263428D-02  0.158179D-02 -0.103651D-02
     35  0.273041D-02 -0.292874D-02 -0.549142D-02  0.109022D-02 -0.950451D-02
     36  0.563405D-02 -0.602050D-02 -0.353405D-02  0.942733D-04  0.414856D-02
               21            22            23            24            25 
     21  0.552877D+00
     22  0.477365D-02  0.744028D-01
     23 -0.115971D-01 -0.489694D-02  0.299432D+00
     24  0.953837D-03 -0.118975D+00  0.116415D+00  0.480152D+00
     25 -0.158247D-02  0.653588D-03 -0.737166D-03 -0.172500D-03  0.101094D+00
     26  0.399483D-02 -0.138717D-02 -0.426550D-03  0.398737D-03 -0.623833D-01
     27  0.361542D-02 -0.717500D-03  0.285635D-03  0.948833D-03 -0.594526D-01
     28  0.226086D-03  0.562468D-03 -0.564021D-03  0.744672D-03  0.143754D-01
     29  0.151974D-02 -0.104387D-02 -0.870510D-03 -0.157081D-03 -0.468681D-02
     30  0.406566D-03  0.663170D-03  0.129769D-02  0.137509D-02 -0.515665D-02
     31  0.364011D-02 -0.224723D-02 -0.521181D-02 -0.973962D-03 -0.401631D-01
     32  0.329920D-02 -0.212001D-02 -0.217041D-02 -0.635258D-03  0.468686D-01
     33 -0.696168D-04  0.448832D-03  0.836002D-03  0.619252D-03  0.413186D-01
     34 -0.671322D-03 -0.350327D-01  0.296727D-01  0.988769D-01 -0.637172D-04
     35  0.212859D-04  0.247537D-01 -0.742529D-01 -0.103809D+00  0.772434D-04
     36  0.385447D-02  0.968543D-01 -0.125896D+00 -0.404040D+00  0.129205D-03
               26            27            28            29            30 
     26  0.230592D+00
     27  0.164545D+00  0.247636D+00
     28 -0.313203D-02 -0.647122D-03  0.113945D+00
     29  0.188105D-01 -0.313626D-01 -0.376395D-01  0.108631D+00
     30 -0.140595D-01 -0.790560D-01  0.981884D-01 -0.970479D-01  0.361562D+00
     31  0.316786D-01  0.301972D-01 -0.464598D-01  0.171139D-01 -0.382635D-01
     32 -0.323641D-02 -0.176344D-01  0.263082D-01  0.868416D-02  0.103255D-01
     33 -0.158129D-01 -0.325556D-02 -0.549301D-01  0.955641D-02 -0.936352D-02
     34  0.675390D-03  0.369372D-03 -0.361506D-04  0.249276D-03  0.218156D-03
     35  0.345882D-03  0.253920D-03  0.236981D-03  0.217667D-03  0.978272D-04
     36 -0.353300D-03 -0.508086D-03 -0.414363D-04  0.221074D-03 -0.872500D-03
               31            32            33            34            35 
     31  0.417195D+00
     32 -0.318432D-01  0.745846D-01
     33 -0.531816D-02  0.263803D-02  0.805399D-01
     34 -0.454527D-03 -0.566813D-04  0.150170D-03  0.407070D-01
     35  0.579200D-03  0.220808D-03 -0.160662D-04 -0.334998D-01  0.100909D+00
     36  0.130118D-02  0.625860D-03 -0.379553D-03 -0.973942D-01  0.143738D+00
               36 
     36  0.410770D+00
 FormGI is forming the generalized inverse of G from B-inverse, IUseBI=4.
 Leave Link  716 at Fri May 23 07:33:04 2025, MaxMem=  3758096384 cpu:               0.1 elap:               0.0
 (Enter /apps/easybuild-2022/easybuild/software/Compiler/NVHPC/22.11-CUDA-11.7.0/Gaussian/g16c01-CUDA-11.7.0/g16/l103.exe)

 GradGradGradGradGradGradGradGradGradGradGradGradGradGradGradGradGradGrad
 Berny optimization.
 Red2BG is reusing G-inverse.
 Internal  Forces:  Max     0.000115199 RMS     0.000029980
 Search for a local minimum.
 Step number   1 out of a maximum of   58
 All quantities printed in internal units (Hartrees-Bohrs-Radians)
 RMS Force = .29980D-04 SwitMx=.10000D-02 MixMth= 2
 Mixed Optimization -- En-DIIS/RFO-DIIS
 Second derivative matrix not updated -- analytic derivatives used.
 ITU=  0
     Eigenvalues ---    0.00197   0.00343   0.01206   0.03862   0.04261
     Eigenvalues ---    0.06967   0.08510   0.09369   0.10170   0.10481
     Eigenvalues ---    0.11538   0.12374   0.13034   0.15727   0.16089
     Eigenvalues ---    0.20379   0.21611   0.22924   0.23797   0.24261
     Eigenvalues ---    0.26664   0.30976   0.38702   0.39361   0.39573
     Eigenvalues ---    0.48535   0.48853   0.55889   0.57670   0.64215
 RFO step:  Lambda=-8.03977708D-07 EMin= 1.96873040D-03
 Linear search not attempted -- first point.
 Iteration  1 RMS(Cart)=  0.00286911 RMS(Int)=  0.00000470
 Iteration  2 RMS(Cart)=  0.00000520 RMS(Int)=  0.00000002
 Iteration  3 RMS(Cart)=  0.00000000 RMS(Int)=  0.00000002
 ITry= 1 IFail=0 DXMaxC= 7.36D-03 DCOld= 1.00D+10 DXMaxT= 3.00D-01 DXLimC= 3.00D+00 Rises=F
 Variable       Old X    -DE/DX   Delta X   Delta X   Delta X     New X
                                 (Linear)    (Quad)   (Total)
    R1        2.91786  -0.00001   0.00000  -0.00003  -0.00003   2.91783
    R2        2.50895  -0.00000   0.00000   0.00014   0.00014   2.50909
    R3        2.50589  -0.00001   0.00000  -0.00017  -0.00017   2.50572
    R4        2.50867  -0.00001   0.00000  -0.00001  -0.00001   2.50866
    R5        2.47359  -0.00001   0.00000  -0.00000  -0.00000   2.47359
    R6        2.72585  -0.00002   0.00000  -0.00011  -0.00011   2.72574
    R7        3.68574  -0.00004   0.00000  -0.00021  -0.00021   3.68553
    R8        3.08193   0.00004   0.00000   0.00054   0.00054   3.08246
    R9        2.74929  -0.00008   0.00000  -0.00014  -0.00014   2.74915
   R10        3.08832  -0.00002   0.00000   0.00000   0.00000   3.08832
   R11        1.84571  -0.00001   0.00000  -0.00013  -0.00013   1.84558
    A1        1.89379   0.00002   0.00000  -0.00014  -0.00014   1.89365
    A2        1.91937  -0.00001   0.00000   0.00027   0.00027   1.91964
    A3        1.93388  -0.00000   0.00000  -0.00011  -0.00011   1.93377
    A4        1.90584   0.00000   0.00000  -0.00004  -0.00004   1.90580
    A5        1.90411  -0.00000   0.00000  -0.00002  -0.00002   1.90409
    A6        1.90656  -0.00000   0.00000   0.00003   0.00003   1.90659
    A7        1.93899  -0.00000   0.00000  -0.00012  -0.00012   1.93887
    A8        1.84980  -0.00003   0.00000   0.00015   0.00015   1.84994
    A9        2.01154   0.00007   0.00000   0.00042   0.00042   2.01196
   A10        1.82949   0.00003   0.00000   0.00006   0.00006   1.82954
   A11        1.92137  -0.00003   0.00000  -0.00032  -0.00032   1.92105
   A12        1.90197  -0.00003   0.00000  -0.00019  -0.00019   1.90178
   A13        1.97331  -0.00006   0.00000  -0.00062  -0.00062   1.97269
   A14        1.77834   0.00002   0.00000   0.00010   0.00010   1.77844
   A15        1.62818  -0.00012   0.00000  -0.00025  -0.00025   1.62793
   A16        1.85044   0.00002   0.00000  -0.00006  -0.00006   1.85038
   A17        1.86706   0.00002   0.00000   0.00028   0.00028   1.86734
    D1        1.10799   0.00001   0.00000   0.00427   0.00427   1.11226
    D2        3.08566   0.00003   0.00000   0.00436   0.00436   3.09002
    D3       -1.09259   0.00000   0.00000   0.00447   0.00447  -1.08812
    D4       -3.09165   0.00001   0.00000   0.00430   0.00430  -3.08736
    D5       -1.11399   0.00003   0.00000   0.00438   0.00438  -1.10960
    D6        0.99095   0.00000   0.00000   0.00450   0.00450   0.99545
    D7       -0.98207  -0.00000   0.00000   0.00444   0.00444  -0.97763
    D8        0.99559   0.00002   0.00000   0.00453   0.00453   1.00013
    D9        3.10053  -0.00001   0.00000   0.00465   0.00465   3.10517
   D10        1.68689  -0.00001   0.00000  -0.00313  -0.00313   1.68376
   D11       -2.54400  -0.00001   0.00000  -0.00317  -0.00317  -2.54718
   D12       -0.48770  -0.00005   0.00000  -0.00361  -0.00361  -0.49131
   D13        1.52560   0.00002   0.00000   0.00179   0.00179   1.52740
   D14       -2.88771   0.00001   0.00000   0.00168   0.00168  -2.88603
   D15       -0.68398  -0.00000   0.00000   0.00190   0.00190  -0.68208
   D16        1.18589  -0.00001   0.00000   0.00179   0.00179   1.18768
   D17       -2.68136  -0.00000   0.00000   0.00211   0.00211  -2.67925
   D18       -0.81149  -0.00001   0.00000   0.00200   0.00200  -0.80949
   D19        1.30065  -0.00001   0.00000   0.00068   0.00068   1.30133
   D20        3.10479  -0.00002   0.00000   0.00070   0.00070   3.10549
         Item               Value     Threshold  Converged?
 Maximum Force            0.000115     0.000015     NO 
 RMS     Force            0.000030     0.000010     NO 
 Maximum Displacement     0.007358     0.000060     NO 
 RMS     Displacement     0.002869     0.000040     NO 
 Predicted change in Energy=-4.019888D-07
 Lowest energy point so far.  Saving SCF results.
 GradGradGradGradGradGradGradGradGradGradGradGradGradGradGradGradGradGrad

 Leave Link  103 at Fri May 23 07:33:04 2025, MaxMem=  3758096384 cpu:               0.1 elap:               0.0
 (Enter /apps/easybuild-2022/easybuild/software/Compiler/NVHPC/22.11-CUDA-11.7.0/Gaussian/g16c01-CUDA-11.7.0/g16/l202.exe)
                          Input orientation:                          
 ---------------------------------------------------------------------
 Center     Atomic      Atomic             Coordinates (Angstroms)
 Number     Number       Type             X           Y           Z
 ---------------------------------------------------------------------
      1          6           0       -0.658819   -1.351393    0.351455
      2          6           0        0.000063    0.000016   -0.000195
      3          9           0       -0.450157    0.461191   -1.139497
      4          9           0       -0.467838    0.939651    0.989084
      5         16           0        1.950361    0.000149   -0.001970
      6          8           0        0.577712    1.138285    2.225239
      7          8           0        2.249058   -0.417188   -1.363226
      8          8           0        2.043580    1.631757    0.000239
      9          9           0       -0.310985   -2.242013   -0.569814
     10          9           0       -0.238115   -1.765390    1.538812
     11          9           0       -1.981535   -1.240108    0.370412
     12          1           0        1.812430    1.929603    0.901172
 ---------------------------------------------------------------------
                    Distance matrix (angstroms):
                    1          2          3          4          5
     1  C    0.000000
     2  C    1.544050   0.000000
     3  F    2.356255   1.308965   0.000000
     4  F    2.385776   1.442400   2.181763   0.000000
     5  S    2.959627   1.950299   2.696111   2.777146   0.000000
     6  O    3.352398   2.565520   3.582795   1.631169   2.853065
     7  O    3.502658   2.662684   2.847343   3.841340   1.454788
     8  O    4.040482   2.615060   2.981266   2.786403   1.634271
     9  F    1.327753   2.334076   2.766084   3.546512   3.234721
    10  F    1.325972   2.354130   3.489407   2.769878   3.206331
    11  F    1.327525   2.366852   2.742146   2.724956   4.139651
    12  H    4.144176   2.796505   3.382287   2.487440   2.134827
                    6          7          8          9         10
     6  O    0.000000
     7  O    4.253231   0.000000
     8  O    2.709780   2.469703   0.000000
     9  F    4.475323   3.242423   4.568920   0.000000
    10  F    3.093232   4.052838   4.371949   2.163049   0.000000
    11  F    3.955615   4.645494   4.958446   2.163001   2.163468
    12  H    1.975820   3.290224   0.976638   4.906636   4.273674
                   11         12
    11  F    0.000000
    12  H    4.972217   0.000000
 Symmetry turned off by external request.
 Stoichiometry    C2HF5O3S
 Rotational constants (GHZ):           1.3604719           0.8663655           0.7188449
 Leave Link  202 at Fri May 23 07:33:04 2025, MaxMem=  3758096384 cpu:               0.1 elap:               0.0
 (Enter /apps/easybuild-2022/easybuild/software/Compiler/NVHPC/22.11-CUDA-11.7.0/Gaussian/g16c01-CUDA-11.7.0/g16/l301.exe)
 Standard basis: 6-311++G(d,p) (5D, 7F)
 Ernie: Thresh=  0.10000D-02 Tol=  0.10000D-05 Strict=F.
   257 basis functions,   419 primitive gaussians,   268 cartesian basis functions
    49 alpha electrons       49 beta electrons
       nuclear repulsion energy       894.0634840799 Hartrees.
 IExCor= 4639 DFT=T Ex+Corr=wB97XD ExCW=0 ScaHFX=  1.000000
 ScaDFX=  1.000000  1.000000  1.000000  1.000000 ScalE2=  1.000000  1.000000
 IRadAn=      5 IRanWt=     -1 IRanGd=            0 ICorTp=0 IEmpDi=121
 HFx  wShort=  0.000000 wLong=  0.200000 cFull=  0.222036 cShort=  0.000000 cLong=  0.777964
 DFx  wShort=  0.000000 wLong=  0.200000 cFull=  0.000000 cShort=  0.000000 cLong=  1.000000
 NAtoms=   12 NActive=   12 NUniq=   12 SFac= 1.00D+00 NAtFMM=   60 NAOKFM=F Big=F
 Integral buffers will be    131072 words long.
 Raffenetti 2 integral format.
 Two-electron integral symmetry is turned off.
 R6Disp:  Grimme-D2 Dispersion energy=       -0.0054754419 Hartrees.
 Nuclear repulsion after empirical dispersion term =      894.0580086379 Hartrees.
 Leave Link  301 at Fri May 23 07:33:04 2025, MaxMem=  3758096384 cpu:               0.0 elap:               0.0
 (Enter /apps/easybuild-2022/easybuild/software/Compiler/NVHPC/22.11-CUDA-11.7.0/Gaussian/g16c01-CUDA-11.7.0/g16/l302.exe)
 NPDir=0 NMtPBC=     1 NCelOv=     1 NCel=       1 NClECP=     1 NCelD=      1
         NCelK=      1 NCelE2=     1 NClLst=     1 CellRange=     0.0.
 One-electron integrals computed using PRISM.
 NBasis=   257 RedAO= T EigKep=  4.68D-05  NBF=   257
 NBsUse=   257 1.00D-06 EigRej= -1.00D+00 NBFU=   257
 Precomputing XC quadrature grid using
 IXCGrd= 4 IRadAn=           5 IRanWt=          -1 IRanGd=           0 AccXCQ= 0.00D+00.
 Generated NRdTot=       0 NPtTot=           0 NUsed=           0 NTot=          32
 NSgBfM=   268   268   268   268   268 MxSgAt=    12 MxSgA2=    12.
 Leave Link  302 at Fri May 23 07:33:04 2025, MaxMem=  3758096384 cpu:               0.7 elap:               0.2
 (Enter /apps/easybuild-2022/easybuild/software/Compiler/NVHPC/22.11-CUDA-11.7.0/Gaussian/g16c01-CUDA-11.7.0/g16/l303.exe)
 DipDrv:  MaxL=1.
 Leave Link  303 at Fri May 23 07:33:04 2025, MaxMem=  3758096384 cpu:               0.1 elap:               0.0
 (Enter /apps/easybuild-2022/easybuild/software/Compiler/NVHPC/22.11-CUDA-11.7.0/Gaussian/g16c01-CUDA-11.7.0/g16/l401.exe)
 Initial guess from the checkpoint file:  "/tmp/Gau-63602.chk"
 B after Tr=    -0.000170    0.000039   -0.000441
         Rot=    1.000000    0.000072   -0.000017   -0.000048 Ang=   0.01 deg.
 Guess basis will be translated and rotated to current coordinates.
 JPrj=2 DoOrth=T DoCkMO=T.
 Leave Link  401 at Fri May 23 07:33:04 2025, MaxMem=  3758096384 cpu:               0.2 elap:               0.1
 (Enter /apps/easybuild-2022/easybuild/software/Compiler/NVHPC/22.11-CUDA-11.7.0/Gaussian/g16c01-CUDA-11.7.0/g16/l502.exe)
 Keep R1 ints in memory in canonical form, NReq=1117474609.
 FoFCou: FMM=F IPFlag=           0 FMFlag=           0 FMFlg1=           0
         NFxFlg=           0 DoJE=F BraDBF=F KetDBF=F FulRan=T
         wScrn=  0.000000 ICntrl=       600 IOpCl=  0 I1Cent=           0 NGrid=           0
         NMat0=    1 NMatS0=  33153 NMatT0=    0 NMatD0=    1 NMtDS0=    0 NMtDT0=    0
 Symmetry not used in FoFCou.
 Two-electron integral symmetry not used.
 Closed shell SCF:
 Using DIIS extrapolation, IDIIS=  1040.
 NGot=  3758096384 LenX=  2658793876 LenY=  2658721611
 Requested convergence on RMS density matrix=1.00D-08 within  32 cycles.
 Requested convergence on MAX density matrix=1.00D-06.
 Requested convergence on             energy=1.00D-06.
 No special actions if energy rises.

 Cycle   1  Pass 1  IDiag  1:
 E= -1199.60931566462    
 DIIS: error= 2.20D-04 at cycle   1 NSaved=   1.
 NSaved= 1 IEnMin= 1 EnMin= -1199.60931566462     IErMin= 1 ErrMin= 2.20D-04
 ErrMax= 2.20D-04  0.00D+00 EMaxC= 1.00D-01 BMatC= 1.80D-05 BMatP= 1.80D-05
 IDIUse=3 WtCom= 9.98D-01 WtEn= 2.20D-03
 Coeff-Com:  0.100D+01
 Coeff-En:   0.100D+01
 Coeff:      0.100D+01
 Gap=     0.705 Goal=   None    Shift=    0.000
 RMSDP=3.98D-05 MaxDP=1.84D-03              OVMax= 1.24D-03

 Cycle   2  Pass 1  IDiag  1:
 E= -1199.60934239311     Delta-E=       -0.000026728492 Rises=F Damp=F
 DIIS: error= 4.07D-05 at cycle   2 NSaved=   2.
 NSaved= 2 IEnMin= 2 EnMin= -1199.60934239311     IErMin= 2 ErrMin= 4.07D-05
 ErrMax= 4.07D-05  0.00D+00 EMaxC= 1.00D-01 BMatC= 8.74D-07 BMatP= 1.80D-05
 IDIUse=1 WtCom= 1.00D+00 WtEn= 0.00D+00
 Coeff-Com: -0.156D+00 0.116D+01
 Coeff:     -0.156D+00 0.116D+01
 Gap=     0.282 Goal=   None    Shift=    0.000
 RMSDP=1.16D-05 MaxDP=1.02D-03 DE=-2.67D-05 OVMax= 4.17D-04

 Cycle   3  Pass 1  IDiag  1:
 E= -1199.60934367080     Delta-E=       -0.000001277690 Rises=F Damp=F
 DIIS: error= 4.18D-05 at cycle   3 NSaved=   3.
 NSaved= 3 IEnMin= 3 EnMin= -1199.60934367080     IErMin= 2 ErrMin= 4.07D-05
 ErrMax= 4.18D-05  0.00D+00 EMaxC= 1.00D-01 BMatC= 6.37D-07 BMatP= 8.74D-07
 IDIUse=1 WtCom= 1.00D+00 WtEn= 0.00D+00
 Coeff-Com: -0.104D+00 0.617D+00 0.487D+00
 Coeff:     -0.104D+00 0.617D+00 0.487D+00
 Gap=     0.282 Goal=   None    Shift=    0.000
 RMSDP=5.42D-06 MaxDP=5.76D-04 DE=-1.28D-06 OVMax= 2.13D-04

 Cycle   4  Pass 1  IDiag  1:
 E= -1199.60934414133     Delta-E=       -0.000000470531 Rises=F Damp=F
 DIIS: error= 1.20D-05 at cycle   4 NSaved=   4.
 NSaved= 4 IEnMin= 4 EnMin= -1199.60934414133     IErMin= 4 ErrMin= 1.20D-05
 ErrMax= 1.20D-05  0.00D+00 EMaxC= 1.00D-01 BMatC= 4.97D-08 BMatP= 6.37D-07
 IDIUse=1 WtCom= 1.00D+00 WtEn= 0.00D+00
 Coeff-Com:  0.408D-02-0.709D-01 0.180D+00 0.887D+00
 Coeff:      0.408D-02-0.709D-01 0.180D+00 0.887D+00
 Gap=     0.282 Goal=   None    Shift=    0.000
 RMSDP=1.51D-06 MaxDP=3.61D-05 DE=-4.71D-07 OVMax= 2.31D-04

 Cycle   5  Pass 1  IDiag  1:
 E= -1199.60934424610     Delta-E=       -0.000000104771 Rises=F Damp=F
 DIIS: error= 4.71D-06 at cycle   5 NSaved=   5.
 NSaved= 5 IEnMin= 5 EnMin= -1199.60934424610     IErMin= 5 ErrMin= 4.71D-06
 ErrMax= 4.71D-06  0.00D+00 EMaxC= 1.00D-01 BMatC= 6.10D-09 BMatP= 4.97D-08
 IDIUse=1 WtCom= 1.00D+00 WtEn= 0.00D+00
 Coeff-Com:  0.763D-02-0.599D-01 0.152D-01 0.207D+00 0.830D+00
 Coeff:      0.763D-02-0.599D-01 0.152D-01 0.207D+00 0.830D+00
 Gap=     0.282 Goal=   None    Shift=    0.000
 RMSDP=8.05D-07 MaxDP=2.35D-05 DE=-1.05D-07 OVMax= 1.53D-04

 Cycle   6  Pass 1  IDiag  1:
 E= -1199.60934428046     Delta-E=       -0.000000034360 Rises=F Damp=F
 DIIS: error= 5.40D-06 at cycle   6 NSaved=   6.
 NSaved= 6 IEnMin= 6 EnMin= -1199.60934428046     IErMin= 5 ErrMin= 4.71D-06
 ErrMax= 5.40D-06  0.00D+00 EMaxC= 1.00D-01 BMatC= 3.55D-09 BMatP= 6.10D-09
 IDIUse=1 WtCom= 1.00D+00 WtEn= 0.00D+00
 Coeff-Com:  0.208D-02 0.257D-02-0.825D-01-0.338D+00 0.404D+00 0.101D+01
 Coeff:      0.208D-02 0.257D-02-0.825D-01-0.338D+00 0.404D+00 0.101D+01
 Gap=     0.282 Goal=   None    Shift=    0.000
 RMSDP=9.42D-07 MaxDP=4.32D-05 DE=-3.44D-08 OVMax= 2.06D-04

 Cycle   7  Pass 1  IDiag  1:
 E= -1199.60934431148     Delta-E=       -0.000000031016 Rises=F Damp=F
 DIIS: error= 2.16D-06 at cycle   7 NSaved=   7.
 NSaved= 7 IEnMin= 7 EnMin= -1199.60934431148     IErMin= 7 ErrMin= 2.16D-06
 ErrMax= 2.16D-06  0.00D+00 EMaxC= 1.00D-01 BMatC= 1.17D-09 BMatP= 3.55D-09
 IDIUse=1 WtCom= 1.00D+00 WtEn= 0.00D+00
 Coeff-Com: -0.338D-02 0.346D-01-0.330D-01-0.207D+00-0.292D+00 0.322D+00
 Coeff-Com:  0.118D+01
 Coeff:     -0.338D-02 0.346D-01-0.330D-01-0.207D+00-0.292D+00 0.322D+00
 Coeff:      0.118D+01
 Gap=     0.282 Goal=   None    Shift=    0.000
 RMSDP=8.37D-07 MaxDP=3.98D-05 DE=-3.10D-08 OVMax= 1.87D-04

 Cycle   8  Pass 1  IDiag  1:
 E= -1199.60934432526     Delta-E=       -0.000000013781 Rises=F Damp=F
 DIIS: error= 1.05D-06 at cycle   8 NSaved=   8.
 NSaved= 8 IEnMin= 8 EnMin= -1199.60934432526     IErMin= 8 ErrMin= 1.05D-06
 ErrMax= 1.05D-06  0.00D+00 EMaxC= 1.00D-01 BMatC= 4.32D-10 BMatP= 1.17D-09
 IDIUse=1 WtCom= 1.00D+00 WtEn= 0.00D+00
 Coeff-Com: -0.264D-02 0.202D-01 0.644D-02-0.161D-01-0.297D+00-0.117D+00
 Coeff-Com:  0.678D+00 0.728D+00
 Coeff:     -0.264D-02 0.202D-01 0.644D-02-0.161D-01-0.297D+00-0.117D+00
 Coeff:      0.678D+00 0.728D+00
 Gap=     0.282 Goal=   None    Shift=    0.000
 RMSDP=3.52D-07 MaxDP=1.84D-05 DE=-1.38D-08 OVMax= 7.61D-05

 Cycle   9  Pass 1  IDiag  1:
 E= -1199.60934432721     Delta-E=       -0.000000001955 Rises=F Damp=F
 DIIS: error= 2.43D-07 at cycle   9 NSaved=   9.
 NSaved= 9 IEnMin= 9 EnMin= -1199.60934432721     IErMin= 9 ErrMin= 2.43D-07
 ErrMax= 2.43D-07  0.00D+00 EMaxC= 1.00D-01 BMatC= 3.28D-11 BMatP= 4.32D-10
 IDIUse=1 WtCom= 1.00D+00 WtEn= 0.00D+00
 Coeff-Com:  0.148D-03-0.303D-02 0.772D-02 0.375D-01-0.277D-02-0.880D-01
 Coeff-Com: -0.969D-01 0.152D+00 0.993D+00
 Coeff:      0.148D-03-0.303D-02 0.772D-02 0.375D-01-0.277D-02-0.880D-01
 Coeff:     -0.969D-01 0.152D+00 0.993D+00
 Gap=     0.282 Goal=   None    Shift=    0.000
 RMSDP=1.16D-07 MaxDP=5.59D-06 DE=-1.96D-09 OVMax= 2.30D-05

 Cycle  10  Pass 1  IDiag  1:
 E= -1199.60934432752     Delta-E=       -0.000000000309 Rises=F Damp=F
 DIIS: error= 1.01D-07 at cycle  10 NSaved=  10.
 NSaved=10 IEnMin=10 EnMin= -1199.60934432752     IErMin=10 ErrMin= 1.01D-07
 ErrMax= 1.01D-07  0.00D+00 EMaxC= 1.00D-01 BMatC= 6.34D-12 BMatP= 3.28D-11
 IDIUse=1 WtCom= 1.00D+00 WtEn= 0.00D+00
 Coeff-Com:  0.415D-03-0.401D-02 0.217D-02 0.178D-01 0.364D-01-0.213D-01
 Coeff-Com: -0.122D+00-0.308D-01 0.395D+00 0.726D+00
 Coeff:      0.415D-03-0.401D-02 0.217D-02 0.178D-01 0.364D-01-0.213D-01
 Coeff:     -0.122D+00-0.308D-01 0.395D+00 0.726D+00
 Gap=     0.282 Goal=   None    Shift=    0.000
 RMSDP=2.42D-08 MaxDP=6.68D-07 DE=-3.09D-10 OVMax= 3.58D-06

 Cycle  11  Pass 1  IDiag  1:
 E= -1199.60934432749     Delta-E=        0.000000000031 Rises=F Damp=F
 DIIS: error= 3.58D-08 at cycle  11 NSaved=  11.
 NSaved=11 IEnMin=10 EnMin= -1199.60934432752     IErMin=11 ErrMin= 3.58D-08
 ErrMax= 3.58D-08  0.00D+00 EMaxC= 1.00D-01 BMatC= 6.51D-13 BMatP= 6.34D-12
 IDIUse=1 WtCom= 1.00D+00 WtEn= 0.00D+00
 Coeff-Com:  0.127D-03-0.102D-02-0.229D-03 0.171D-02 0.120D-01 0.323D-02
 Coeff-Com: -0.271D-01-0.289D-01-0.185D-02 0.221D+00 0.821D+00
 Coeff:      0.127D-03-0.102D-02-0.229D-03 0.171D-02 0.120D-01 0.323D-02
 Coeff:     -0.271D-01-0.289D-01-0.185D-02 0.221D+00 0.821D+00
 Gap=     0.282 Goal=   None    Shift=    0.000
 RMSDP=1.28D-08 MaxDP=1.61D-06 DE= 3.09D-11 OVMax= 8.17D-07

 Cycle  12  Pass 1  IDiag  1:
 E= -1199.60934432751     Delta-E=       -0.000000000016 Rises=F Damp=F
 DIIS: error= 1.54D-08 at cycle  12 NSaved=  12.
 NSaved=12 IEnMin=10 EnMin= -1199.60934432752     IErMin=12 ErrMin= 1.54D-08
 ErrMax= 1.54D-08  0.00D+00 EMaxC= 1.00D-01 BMatC= 1.45D-13 BMatP= 6.51D-13
 IDIUse=1 WtCom= 1.00D+00 WtEn= 0.00D+00
 Coeff-Com: -0.158D-04 0.240D-03-0.381D-03-0.197D-02-0.137D-02 0.392D-02
 Coeff-Com:  0.993D-02-0.632D-02-0.621D-01-0.339D-01 0.328D+00 0.764D+00
 Coeff:     -0.158D-04 0.240D-03-0.381D-03-0.197D-02-0.137D-02 0.392D-02
 Coeff:      0.993D-02-0.632D-02-0.621D-01-0.339D-01 0.328D+00 0.764D+00
 Gap=     0.282 Goal=   None    Shift=    0.000
 RMSDP=4.52D-09 MaxDP=1.96D-07 DE=-1.64D-11 OVMax= 4.52D-07

 SCF Done:  E(RwB97XD) =  -1199.60934433     A.U. after   12 cycles
            NFock= 12  Conv=0.45D-08     -V/T= 2.0020
 KE= 1.197241978519D+03 PE=-4.635190484228D+03 EE= 1.344281152743D+03
 Leave Link  502 at Fri May 23 07:33:17 2025, MaxMem=  3758096384 cpu:              58.7 elap:              12.5
 (Enter /apps/easybuild-2022/easybuild/software/Compiler/NVHPC/22.11-CUDA-11.7.0/Gaussian/g16c01-CUDA-11.7.0/g16/l508.exe)
 QCSCF skips out because SCF is already converged.
 Leave Link  508 at Fri May 23 07:33:17 2025, MaxMem=  3758096384 cpu:               0.0 elap:               0.0
 (Enter /apps/easybuild-2022/easybuild/software/Compiler/NVHPC/22.11-CUDA-11.7.0/Gaussian/g16c01-CUDA-11.7.0/g16/l701.exe)
 ... and contract with generalized density number  0.
 Compute integral first derivatives.
 R6Disp: Adding Grimme-D2 dispersion energy 1st derivatives to the gradient.
 Leave Link  701 at Fri May 23 07:33:17 2025, MaxMem=  3758096384 cpu:               0.4 elap:               0.1
 (Enter /apps/easybuild-2022/easybuild/software/Compiler/NVHPC/22.11-CUDA-11.7.0/Gaussian/g16c01-CUDA-11.7.0/g16/l702.exe)
 L702 exits ... SP integral derivatives will be done elsewhere.
 Leave Link  702 at Fri May 23 07:33:17 2025, MaxMem=  3758096384 cpu:               0.0 elap:               0.0
 (Enter /apps/easybuild-2022/easybuild/software/Compiler/NVHPC/22.11-CUDA-11.7.0/Gaussian/g16c01-CUDA-11.7.0/g16/l703.exe)
 Integral derivatives from FoFJK, PRISM(SPDF).
 Compute integral first derivatives, UseDBF=F ICtDFT=           0.
 Calling FoFJK, ICntrl=      2127 FMM=F ISym2X=0 I1Cent= 0 IOpClX= 0 NMat=1 NMatS=1 NMatT=0.
 FoFJK:  IHMeth= 1 ICntrl=    2127 DoSepK=T KAlg= 0 I1Cent=           0 FoldK=F
 IRaf=         1 NMat=       1 IRICut=       1 DoRegI=T DoRafI=F ISym2E= 0 IDoP0=0 IntGTp=1.
 FoFCou: FMM=F IPFlag=           0 FMFlag=      100000 FMFlg1=         800
         NFxFlg=           0 DoJE=F BraDBF=F KetDBF=F FulRan=T
         wScrn=  0.000000 ICntrl=      2527 IOpCl=  0 I1Cent=           0 NGrid=           0
         NMat0=    1 NMatS0=      1 NMatT0=    0 NMatD0=    1 NMtDS0=    0 NMtDT0=    0
 Symmetry not used in FoFCou.
 Leave Link  703 at Fri May 23 07:33:21 2025, MaxMem=  3758096384 cpu:              31.5 elap:               4.3
 (Enter /apps/easybuild-2022/easybuild/software/Compiler/NVHPC/22.11-CUDA-11.7.0/Gaussian/g16c01-CUDA-11.7.0/g16/l716.exe)
 Dipole        =-2.52800139D-01-1.65829047D-02 5.82933655D-01
 -------------------------------------------------------------------
 Center     Atomic                   Forces (Hartrees/Bohr)
 Number     Number              X              Y              Z
 -------------------------------------------------------------------
      1        6          -0.000001091    0.000000824    0.000003112
      2        6          -0.000000251    0.000000436    0.000000298
      3        9          -0.000000496   -0.000000548    0.000000205
      4        9           0.000002057    0.000003083   -0.000000451
      5       16          -0.000000247   -0.000002494   -0.000001316
      6        8           0.000004015    0.000001946   -0.000001883
      7        8          -0.000002124   -0.000004842   -0.000001586
      8        8           0.000002201   -0.000003036   -0.000003645
      9        9          -0.000003771   -0.000000085    0.000003980
     10        9          -0.000002114    0.000002557    0.000002372
     11        9          -0.000001904    0.000003461    0.000003301
     12        1           0.000003728   -0.000001303   -0.000004387
 -------------------------------------------------------------------
 Cartesian Forces:  Max     0.000004842 RMS     0.000002493
 Leave Link  716 at Fri May 23 07:33:21 2025, MaxMem=  3758096384 cpu:               0.1 elap:               0.0
 (Enter /apps/easybuild-2022/easybuild/software/Compiler/NVHPC/22.11-CUDA-11.7.0/Gaussian/g16c01-CUDA-11.7.0/g16/l103.exe)

 GradGradGradGradGradGradGradGradGradGradGradGradGradGradGradGradGradGrad
 Berny optimization.
 Using GEDIIS/GDIIS optimizer.
 FormGI is forming the generalized inverse of G from B-inverse, IUseBI=4.
 Internal  Forces:  Max     0.000001550 RMS     0.000000417
 Search for a local minimum.
 Step number   2 out of a maximum of   58
 All quantities printed in internal units (Hartrees-Bohrs-Radians)
 RMS Force = .41679D-06 SwitMx=.10000D-02 MixMth= 2
 Mixed Optimization -- En-DIIS/RFO-DIIS
 Swapping is turned off.
 Update second derivatives using D2CorX and points    1    2
 DE= -4.11D-07 DEPred=-4.02D-07 R= 1.02D+00
 Trust test= 1.02D+00 RLast= 1.53D-02 DXMaxT set to 3.00D-01
 ITU=  0  0
     Eigenvalues ---    0.00193   0.00343   0.01205   0.03859   0.04260
     Eigenvalues ---    0.06967   0.08510   0.09378   0.10170   0.10480
     Eigenvalues ---    0.11533   0.12376   0.13033   0.15736   0.16089
     Eigenvalues ---    0.20389   0.21624   0.22938   0.23799   0.24266
     Eigenvalues ---    0.26664   0.30989   0.38702   0.39361   0.39576
     Eigenvalues ---    0.48534   0.48852   0.55890   0.57674   0.64233
 En-DIIS/RFO-DIIS/Sim-DIIS IScMMF=       -3 using points:     2    1
 RFO step:  Lambda=-5.53201354D-11.
 NNeg= 0 NGDIIS= 2 SimSw=  2.50D-03 Rises=F DC= -4.11D-07 SmlDif=  1.00D-05
 NRisDI= 0 DoIntr=F SqrtH=F CThrHd= 10.0 CDAdj=  3.0
 RMS Error=  0.7311246680D-04 NUsed= 2 OKEnD=F EnDIS=F
 InvSVX:  RCond= 5.84D-05 Info=           0 Equed=N FErr=  9.44D-16 BErr=  2.55D-17
 DidBck=F Rises=F RFO-DIIS coefs:    1.02940   -0.02940
 Iteration  1 RMS(Cart)=  0.00009109 RMS(Int)=  0.00000001
 Iteration  2 RMS(Cart)=  0.00000001 RMS(Int)=  0.00000000
 ITry= 1 IFail=0 DXMaxC= 3.13D-04 DCOld= 1.00D+10 DXMaxT= 3.00D-01 DXLimC= 3.00D+00 Rises=F
 Variable       Old X    -DE/DX   Delta X   Delta X   Delta X     New X
                                 (Linear)    (Quad)   (Total)
    R1        2.91783   0.00000  -0.00000   0.00000   0.00000   2.91783
    R2        2.50909  -0.00000   0.00000  -0.00000   0.00000   2.50909
    R3        2.50572  -0.00000  -0.00000  -0.00000  -0.00001   2.50572
    R4        2.50866   0.00000  -0.00000   0.00000   0.00000   2.50866
    R5        2.47359  -0.00000  -0.00000  -0.00000  -0.00000   2.47359
    R6        2.72574   0.00000  -0.00000   0.00000   0.00000   2.72574
    R7        3.68553  -0.00000  -0.00001   0.00001   0.00000   3.68553
    R8        3.08246   0.00000   0.00002  -0.00001   0.00000   3.08247
    R9        2.74915   0.00000  -0.00000   0.00000  -0.00000   2.74915
   R10        3.08832  -0.00000   0.00000  -0.00000  -0.00000   3.08832
   R11        1.84558  -0.00000  -0.00000   0.00000  -0.00000   1.84558
    A1        1.89365  -0.00000  -0.00000   0.00000  -0.00000   1.89364
    A2        1.91964   0.00000   0.00001   0.00000   0.00001   1.91965
    A3        1.93377   0.00000  -0.00000  -0.00000  -0.00000   1.93377
    A4        1.90580  -0.00000  -0.00000   0.00000  -0.00000   1.90580
    A5        1.90409  -0.00000  -0.00000  -0.00000  -0.00000   1.90409
    A6        1.90659  -0.00000   0.00000   0.00000   0.00000   1.90659
    A7        1.93887  -0.00000  -0.00000   0.00000  -0.00000   1.93887
    A8        1.84994   0.00000   0.00000   0.00000   0.00001   1.84995
    A9        2.01196  -0.00000   0.00001  -0.00001   0.00000   2.01196
   A10        1.82954   0.00000   0.00000  -0.00000   0.00000   1.82954
   A11        1.92105  -0.00000  -0.00001   0.00000  -0.00001   1.92104
   A12        1.90178  -0.00000  -0.00001   0.00001   0.00000   1.90178
   A13        1.97269  -0.00000  -0.00002   0.00001  -0.00001   1.97268
[...]
   D15       -0.68207   0.00000   0.00000   0.00000   0.00000  -0.68207
   D16        1.18768   0.00000   0.00000   0.00000   0.00000   1.18768
   D17       -2.67923   0.00000   0.00000  -0.00000  -0.00000  -2.67923
   D18       -0.80948   0.00000   0.00000   0.00000   0.00000  -0.80948
   D19        1.30132   0.00000   0.00000  -0.00000  -0.00000   1.30132
   D20        3.10549   0.00000   0.00000  -0.00000  -0.00000   3.10548
         Item               Value     Threshold  Converged?
 Maximum Force            0.000000     0.000015     YES
 RMS     Force            0.000000     0.000010     YES
 Maximum Displacement     0.000007     0.000060     YES
 RMS     Displacement     0.000001     0.000040     YES
 Predicted change in Energy=-3.936519D-13
 Optimization completed.
    -- Stationary point found.
                           ----------------------------
                           !   Optimized Parameters   !
                           ! (Angstroms and Degrees)  !
 --------------------------                            --------------------------
 ! Name  Definition              Value          Derivative Info.                !
 --------------------------------------------------------------------------------
 ! R1    R(1,2)                  1.5441         -DE/DX =    0.0                 !
 ! R2    R(1,9)                  1.3278         -DE/DX =    0.0                 !
 ! R3    R(1,10)                 1.326          -DE/DX =    0.0                 !
 ! R4    R(1,11)                 1.3275         -DE/DX =    0.0                 !
 ! R5    R(2,3)                  1.309          -DE/DX =    0.0                 !
 ! R6    R(2,4)                  1.4424         -DE/DX =    0.0                 !
 ! R7    R(2,5)                  1.9503         -DE/DX =    0.0                 !
 ! R8    R(4,6)                  1.6312         -DE/DX =    0.0                 !
 ! R9    R(5,7)                  1.4548         -DE/DX =    0.0                 !
 ! R10   R(5,8)                  1.6343         -DE/DX =    0.0                 !
 ! R11   R(8,12)                 0.9766         -DE/DX =    0.0                 !
 ! A1    A(2,1,9)              108.4979         -DE/DX =    0.0                 !
 ! A2    A(2,1,10)             109.9879         -DE/DX =    0.0                 !
 ! A3    A(2,1,11)             110.7969         -DE/DX =    0.0                 !
 ! A4    A(9,1,10)             109.1943         -DE/DX =    0.0                 !
 ! A5    A(9,1,11)             109.0965         -DE/DX =    0.0                 !
 ! A6    A(10,1,11)            109.2395         -DE/DX =    0.0                 !
 ! A7    A(1,2,3)              111.0888         -DE/DX =    0.0                 !
 ! A8    A(1,2,4)              105.9944         -DE/DX =    0.0                 !
 ! A9    A(1,2,5)              115.2768         -DE/DX =    0.0                 !
 ! A10   A(3,2,4)              104.825          -DE/DX =    0.0                 !
 ! A11   A(3,2,5)              110.0676         -DE/DX =    0.0                 !
 ! A12   A(4,2,5)              108.964          -DE/DX =    0.0                 !
 ! A13   A(2,4,6)              113.0265         -DE/DX =    0.0                 !
 ! A14   A(2,5,7)              101.8969         -DE/DX =    0.0                 !
 ! A15   A(2,5,8)               93.2738         -DE/DX =    0.0                 !
 ! A16   A(7,5,8)              106.0188         -DE/DX =    0.0                 !
 ! A17   A(5,8,12)             106.9911         -DE/DX =    0.0                 !
 ! D1    D(9,1,2,3)             63.7373         -DE/DX =    0.0                 !
 ! D2    D(9,1,2,4)            177.0544         -DE/DX =    0.0                 !
 ! D3    D(9,1,2,5)            -62.3346         -DE/DX =    0.0                 !
 ! D4    D(10,1,2,3)          -176.8832         -DE/DX =    0.0                 !
 ! D5    D(10,1,2,4)           -63.5661         -DE/DX =    0.0                 !
 ! D6    D(10,1,2,5)            57.0449         -DE/DX =    0.0                 !
 ! D7    D(11,1,2,3)           -56.0045         -DE/DX =    0.0                 !
 ! D8    D(11,1,2,4)            57.3127         -DE/DX =    0.0                 !
 ! D9    D(11,1,2,5)           177.9237         -DE/DX =    0.0                 !
 ! D10   D(1,2,4,6)             96.4724         -DE/DX =    0.0                 !
 ! D11   D(3,2,4,6)           -145.9428         -DE/DX =    0.0                 !
 ! D12   D(5,2,4,6)            -28.1507         -DE/DX =    0.0                 !
 ! D13   D(1,2,5,7)             87.5136         -DE/DX =    0.0                 !
 ! D14   D(1,2,5,8)           -165.3575         -DE/DX =    0.0                 !
 ! D15   D(3,2,5,7)            -39.0796         -DE/DX =    0.0                 !
 ! D16   D(3,2,5,8)             68.0493         -DE/DX =    0.0                 !
 ! D17   D(4,2,5,7)           -153.5088         -DE/DX =    0.0                 !
 ! D18   D(4,2,5,8)            -46.3799         -DE/DX =    0.0                 !
 ! D19   D(2,5,8,12)            74.5604         -DE/DX =    0.0                 !
 ! D20   D(7,5,8,12)           177.9312         -DE/DX =    0.0                 !
 --------------------------------------------------------------------------------
 GradGradGradGradGradGradGradGradGradGradGradGradGradGradGradGradGradGrad

 Leave Link  103 at Fri May 23 07:34:54 2025, MaxMem=  3758096384 cpu:               0.1 elap:               0.0
 (Enter /apps/easybuild-2022/easybuild/software/Compiler/NVHPC/22.11-CUDA-11.7.0/Gaussian/g16c01-CUDA-11.7.0/g16/l9999.exe)

 ----------------------------------------------------------------------

 Electric dipole moment (input orientation):
 (Debye = 10**-18 statcoulomb cm , SI units = C m)
                  (au)            (Debye)         (10**-30 SI)
   Tot        0.635617D+00      0.161558D+01      0.538898D+01
   x         -0.252777D+00     -0.642495D+00     -0.214313D+01
   y         -0.165937D-01     -0.421770D-01     -0.140687D+00
   z          0.582955D+00      0.148172D+01      0.494250D+01

 Dipole polarizability, Alpha (input orientation).
 (esu units = cm**3 , SI units = C**2 m**2 J**-1)
 Alpha(0;0):
               (au)            (10**-24 esu)      (10**-40 SI)
   iso        0.615905D+02      0.912678D+01      0.101549D+02
   aniso      0.166225D+02      0.246320D+01      0.274068D+01
   xx         0.641081D+02      0.949984D+01      0.105700D+02
   yx         0.383846D+01      0.568801D+00      0.632876D+00
   yy         0.577226D+02      0.855361D+01      0.951717D+01
   zx        -0.368294D+01     -0.545755D+00     -0.607235D+00
   zy         0.722798D+01      0.107108D+01      0.119173D+01
   zz         0.629409D+02      0.932688D+01      0.103776D+02

 ----------------------------------------------------------------------

 Dipole orientation:
     6         -0.86432575         -2.52877282          1.17092929
     6         -0.00003728          0.00003381         -0.00035047
     9         -1.64160287          0.81965440         -1.65929817
     9         -0.07738358          1.82863049          2.01953239
    16          3.38007261         -0.01977632         -1.46922854
     8          2.66244028          2.25407663          3.36636434
     8          2.87912739         -0.87830078         -4.03239387
     8          3.52669615          3.06157497         -1.61590246
     9         -0.94416331         -4.26026973         -0.64320556
     9          0.76147858         -3.25643096          2.93328569
     9         -3.14472881         -2.30416791          2.19204998
     1          3.80000220          3.67100784          0.10457778

 Electric dipole moment (dipole orientation):
 (Debye = 10**-18 statcoulomb cm , SI units = C m)
                  (au)            (Debye)         (10**-30 SI)
   Tot        0.635617D+00      0.161558D+01      0.538898D+01
   x          0.000000D+00      0.000000D+00      0.000000D+00
   y          0.000000D+00      0.000000D+00      0.000000D+00
   z          0.635617D+00      0.161558D+01      0.538898D+01

 Dipole polarizability, Alpha (dipole orientation).
 (esu units = cm**3 , SI units = C**2 m**2 J**-1)
 Alpha(0;0):
               (au)            (10**-24 esu)      (10**-40 SI)
   iso        0.615905D+02      0.912678D+01      0.101549D+02
   aniso      0.166225D+02      0.246320D+01      0.274068D+01
   xx         0.611664D+02      0.906392D+01      0.100850D+02
   yx         0.633526D+01      0.938789D+00      0.104454D+01
   yy         0.580631D+02      0.860406D+01      0.957331D+01
   zx        -0.313792D+01     -0.464991D+00     -0.517372D+00
   zy         0.529166D+01      0.784143D+00      0.872477D+00
   zz         0.655422D+02      0.971235D+01      0.108064D+02

 ----------------------------------------------------------------------
 Unable to Open any file for archive entry.
 1\1\GINC-SPARTAN-BM163\Freq\RwB97XD\6-311++G(d,p)\C2H1F5O3S1\AKHALILOV
 \23-May-2025\0\\#P Geom=AllCheck Guess=TCheck SCRF=Check GenChk RwB97X
 D/6-311++G(d,p) Freq\\Gaussian input prepared by ASE\\0,1\C,-0.6588218
 238,-1.3513926352,0.3514625553\C,0.0000555568,0.0000228335,-0.00017747
 3\F,-0.4501895397,0.4612157547,-1.1394620635\F,-0.4678169182,0.9396475
 913,0.989126103\S,1.9503536593,0.000149482,-0.0020135187\O,0.577773334
 8,1.1382459343,2.2252561331\O,2.2490048401,-0.4171550042,-1.3632892113
 \O,2.0435795084,1.6317567997,0.0002258087\F,-0.3108430395,-2.242044624
 1,-0.5697218905\F,-0.2382547938,-1.7653218417,1.5388885061\F,-1.981544
 9059,-1.2401507966,0.3702460118\H,1.8124589495,1.9295885657,0.90117008
 89\\Version=ES64L-G16RevC.01\HF=-1199.6093443\RMSD=1.605e-09\RMSF=2.47
 5e-06\ZeroPoint=0.0480091\Thermal=0.0592019\ETot=-1199.5501424\HTot=-1
 199.5491982\GTot=-1199.5991773\Dipole=-0.2527769,-0.0165937,0.5829553\
 DipoleDeriv=1.7163523,-0.0530258,0.0624,0.3147054,1.5354894,0.0351988,
 -0.0625206,0.0125802,1.5780859,0.433834,-0.1928156,-0.038021,-0.228775
 7,0.7753566,0.2585026,0.2777503,0.1651431,1.3099168,-0.4699635,0.05200
 78,-0.2171388,0.1396568,-0.3097003,0.2079928,-0.4079432,0.113591,-0.68
 83104,-0.4618072,0.0320503,-0.0680248,-0.0324096,-0.4612361,-0.5430737
 ,-0.1812259,-0.4180127,-1.0372602,1.2824399,-0.0619759,-0.3037496,-0.0
 137816,1.4949007,0.2973414,-0.4975212,0.3875658,1.2739558,-0.0478642,0
 .1349486,0.479939,0.0603771,-0.2222979,0.0511633,0.3631603,0.1223237,0
 .1848613,-0.5249719,0.0688163,0.0893736,0.1333306,-0.4540532,-0.048664
 ,0.5119377,-0.3455341,-0.9737956,-0.5307221,0.0063065,0.0415607,-0.277
 4403,-1.2716556,-0.2334957,0.0305411,-0.0923525,-0.4905979,-0.3282732,
 0.0309951,0.0808595,0.0138002,-0.6458082,-0.3333412,0.0879315,-0.24311
 72,-0.5413142,-0.3491435,0.0027757,-0.1252329,-0.0071683,-0.4127742,0.
 2385524,-0.1281727,0.1833209,-0.7361823,-1.110625,-0.0439462,0.0424161
 ,-0.1399716,-0.3669873,0.0295162,0.0537292,0.0222326,-0.2718516,0.3907
 445,0.0238633,-0.0443818,0.037677,0.3387662,0.0403071,-0.0476665,0.092
 2593,0.3924924\Polar=64.1081006,3.8384569,57.7226063,-3.6829406,7.2279
 832,62.9409128\PG=Unknown\NImag=0\\0.55862523,0.01478692,0.57636950,-0
 .00019558,-0.01159104,0.56040237,-0.08711086,-0.02485607,0.00511774,0.
 39638296,-0.07847268,-0.15362669,0.02992998,-0.01250484,0.46494500,0.0
 1352615,0.02609386,-0.04222745,0.07861520,-0.10456219,0.45620121,0.002
 31056,-0.00424632,0.00407952,-0.10688246,0.04693720,-0.09760782,0.0986
 7151,0.02167214,-0.00552354,0.03738183,0.04128380,-0.12370882,0.098171
 01,-0.04606075,0.11861295,-0.01581187,0.00861888,-0.03097282,-0.097230
 56,0.11924701,-0.27199504,0.11210909,-0.12224938,0.37646332,0.00036612
 ,-0.00367319,-0.00225748,-0.08428484,0.05019115,0.02774453,0.01045452,
 -0.01170051,-0.01112854,0.13930786,0.02445489,-0.01881765,-0.03952014,
 0.02377413,-0.10321837,-0.01448562,-0.00409651,0.01559838,-0.01644380,
 -0.04293546,0.12288910,0.01033686,-0.00229659,-0.01560464,0.00548567,-
 0.02431278,-0.03776316,0.00602024,-0.02162191,-0.07502262,0.02062577,0
 .06584016,0.16468302,-0.00545603,-0.02402796,0.00575658,-0.08145191,0.
 03993641,-0.04492929,-0.02465348,0.00124086,-0.00711868,-0.00542181,-0
 .00494852,-0.00565465,0.22146518,-0.02187447,0.01119872,0.00297046,-0.
 01521277,-0.02176052,0.01295254,0.01733536,-0.00289321,0.00683252,0.01
 608999,-0.01163509,-0.01439194,-0.04361029,0.35880690,0.00159364,0.011
 91533,0.01244442,-0.00357629,0.00491247,-0.02218843,-0.03667698,0.0086
 0638,-0.02596020,0.01073237,-0.00976035,-0.00960842,-0.05850700,0.1097
 2458,0.67288907,-0.00122456,-0.00281412,0.00349739,0.01006665,-0.01396
 082,-0.01177542,-0.00048862,0.00124647,0.00576085,-0.05912233,0.007670
 30,-0.04296982,0.00138446,-0.00082551,0.00230794,0.05760704,0.00209777
 ,-0.00175045,0.00309882,-0.00197845,-0.00579867,-0.00767615,-0.0010853
 9,0.00028800,0.00009141,-0.00164734,-0.00004402,-0.00418736,0.00038771
 ,-0.00698356,0.00254249,0.00408694,0.00973408,0.00002875,-0.00256578,0
 .00241119,0.00702837,-0.01941895,-0.02920794,-0.00234031,-0.00016666,0
 .00332025,-0.04401137,0.00841780,-0.03351176,0.00615342,0.00853541,0.0
 0646199,0.03092114,0.00998208,0.07139815,0.00036800,0.00323555,-0.0041
 9214,-0.00179871,0.00119413,0.02996355,0.00857925,-0.00225079,0.004880
 75,-0.00619760,0.00469291,0.00622082,-0.07502838,0.03508083,0.08414830
 ,-0.00114592,-0.00094462,-0.00284165,0.07107215,0.00367149,-0.00722745
 ,-0.00141404,0.00754999,0.00328206,-0.00821482,-0.00254971,0.00044231,
 0.00026267,0.00219599,-0.00065622,-0.00197898,0.02393776,-0.09087682,-
 0.10774441,0.00069523,0.00201182,0.00041973,-0.04015745,0.10088132,0.0
 0197011,-0.01317439,-0.00337997,0.00472549,0.00077372,-0.01779946,0.00
 649678,-0.00298715,0.01389453,0.00531497,-0.00034119,-0.00234991,0.096
 61098,-0.14275080,-0.55241686,0.00165743,-0.00103764,-0.00045575,-0.12
 317200,0.16230416,0.55384441,-0.00390966,0.00718633,-0.00093123,-0.004
 22540,-0.02654739,0.00836562,0.00476258,-0.00035255,0.00180401,0.00588
 497,-0.00364120,-0.00324148,-0.04154188,0.00479937,0.00109071,-0.00432
 633,-0.00420763,0.00977518,0.00506636,0.00746443,0.00478085,0.07403796
 ,0.00232457,0.00740001,-0.00277985,-0.00146067,-0.03249153,-0.00139657
 ,-0.00444502,0.00646633,-0.00487799,-0.00077080,0.00697820,0.00780406,
 -0.01415840,-0.21440036,0.02276243,-0.00117536,0.00697296,-0.00306963,
 0.00144473,-0.00271805,-0.01160598,-0.00464326,0.29922234,-0.00146664,
 0.00154748,-0.00345677,-0.00057249,-0.00912095,-0.00173653,0.00252768,
 -0.00063977,0.00375791,0.00024599,0.00443089,0.00794767,0.00953724,0.0
 3415639,-0.07027266,0.00771962,0.00668411,-0.01618451,0.00242989,-0.04
 953892,0.00085024,-0.11840762,0.11636992,0.48101560,-0.08402904,0.0268
 7392,0.02616303,0.00829154,-0.00141846,-0.00308384,0.00047059,-0.00140
 722,0.00110678,0.00086524,-0.00419538,-0.00153167,-0.00084770,0.003713
 07,0.00250451,0.00036315,0.00001061,0.00006170,-0.00121089,-0.00219688
 ,-0.00158979,0.00065435,-0.00074051,-0.00017240,0.10156062,0.02525301,
 -0.20736397,-0.09946699,0.00993781,-0.02507182,-0.03614817,-0.00019647
 ,-0.00025374,0.00275664,-0.00395907,-0.01263451,-0.00453676,0.00489057
 ,-0.00302268,-0.00343161,0.00106068,0.00004330,0.00245652,-0.00185830,
 0.00177240,0.00399621,-0.00138391,-0.00041883,0.00039841,-0.06310512,0
 .23114525,0.02564849,-0.10340899,-0.16092933,0.00348890,-0.00946714,-0
 .00956505,0.00019178,-0.00093118,0.00555430,-0.00159614,-0.00088314,0.
 00093279,0.00229303,-0.00256138,-0.00517111,-0.00034888,-0.00064600,0.
 00058130,0.00083312,0.00211021,0.00360357,-0.00071381,0.00029363,0.000
 94713,-0.05987882,0.16428163,0.24649128,-0.09012507,0.01900004,-0.0465
 0235,0.00776205,-0.00117086,0.00335677,0.00097976,-0.00269295,0.001948
 17,0.00021631,-0.00040357,0.00011737,-0.00093077,0.00187390,-0.0010081
 7,-0.00032361,-0.00174227,-0.00098033,0.00032781,-0.00046041,0.0002245
 4,0.00056017,-0.00055824,0.00073760,0.01440151,-0.00308000,-0.00029599
 ,0.11334258,0.01557997,-0.11975083,0.07923279,0.01120658,-0.00240191,0
 .03508704,-0.00282617,-0.01008883,0.00586774,-0.00121470,-0.00012929,-
 0.00231295,0.00272193,-0.00139391,-0.00125249,0.00060569,-0.00204867,0
 .00043066,-0.00052073,0.00075187,0.00152085,-0.00104707,-0.00087195,-0
 .00015550,-0.00459639,0.01871162,-0.03158742,-0.03713164,0.10825279,-0
 .04439026,0.08447454,-0.24516637,-0.01077810,0.00488389,-0.03130878,0.
 00330031,0.00727089,-0.00183217,0.00012975,0.00516872,0.00678406,-0.00
 242063,0.00000941,-0.00224505,-0.00207296,-0.00252134,-0.00118943,0.00
 102792,-0.00017707,0.00040399,0.00066567,0.00131401,0.00137971,-0.0048
 1448,-0.01427945,-0.07899288,0.09756800,-0.09659593,0.36276648,-0.2897
 7511,-0.01117143,0.01009307,-0.05614326,0.00221018,-0.00000083,0.00603
 059,-0.00163930,0.00265987,0.00327652,-0.00178165,-0.00077768,0.009666
 83,-0.00037336,-0.00217216,0.00060018,-0.00057876,-0.00124186,-0.00161
 179,0.00087112,0.00364873,-0.00224866,-0.00520816,-0.00097787,-0.04045
 420,0.03176471,0.03000950,-0.04617772,0.01697234,-0.03843707,0.4172872
 7,-0.00881814,-0.08002392,0.00262724,-0.03567645,0.00084176,0.00135725
 ,0.00043269,0.00121465,-0.00113240,-0.00133268,0.00113471,0.00029175,0
 .00643364,-0.00359501,-0.00233649,0.00067698,0.00050064,0.00050543,-0.
 00101032,0.00184386,0.00330200,-0.00211991,-0.00217307,-0.00063854,0.0
 4698410,-0.00325313,-0.01745345,0.02613026,0.00875170,0.01035348,-0.03
 164294,0.07453857,0.00860928,0.00198360,-0.07511643,0.01077819,0.00113
 639,0.00243936,0.00110252,-0.00219269,0.00361618,-0.00131814,0.0019755
 2,0.00203217,-0.00188317,0.00033966,-0.00102157,-0.00036896,-0.0002559
 7,0.00002494,0.00060772,-0.00016440,-0.00006211,0.00044299,0.00082232,
 0.00061621,0.04110391,-0.01567347,-0.00294454,-0.05512228,0.00954587,-
 0.00972122,-0.00410051,0.00249747,0.08051303,-0.00003957,-0.00029367,-
 0.00062855,-0.00060577,-0.00639402,-0.00417462,-0.00023481,0.00066080,
 0.00102012,-0.00534496,0.00141007,0.00536858,0.00281548,0.00300387,-0.
 00043688,-0.00339011,0.00560143,-0.00255304,0.00157972,-0.00102156,-0.
 00066810,-0.03471444,0.02939112,0.09839900,-0.00006518,0.00067609,0.00
 036881,-0.00003303,0.00025019,0.00022185,-0.00045063,-0.00005723,0.000
 14845,0.04048330,-0.00067546,-0.00088374,-0.00046905,-0.00206306,-0.00
 099050,-0.00117816,0.00080110,-0.00015446,0.00102670,-0.00124338,0.000
 53476,0.00170330,0.00719629,-0.01344444,-0.03593834,0.00273351,-0.0029
 2543,-0.00552660,0.00109406,-0.00950710,0.00000021,0.02449280,-0.07396
 605,-0.10349353,0.00007825,0.00034611,0.00025324,0.00023574,0.00021741
 ,0.00009883,0.00057724,0.00021924,-0.00001431,-0.03322710,0.10055420,0
 .00015107,-0.00159690,0.00159581,-0.00308214,0.00599855,0.00515128,0.0
 0079718,-0.00064137,-0.00082363,-0.00448171,-0.00439885,-0.00851920,0.
 00016216,-0.01581686,-0.00291117,0.00567167,-0.00607444,-0.00364842,0.
 00009371,0.00413586,0.00386734,0.09636912,-0.12563634,-0.40486400,0.00
 013108,-0.00035296,-0.00050747,-0.00004332,0.00021933,-0.00087834,0.00
 129682,0.00062627,-0.00037602,-0.09706563,0.14353770,0.41191382\\0.000
 00181,-0.00000164,-0.00000267,0.00000021,-0.00000024,-0.00000027,0.000
 00050,0.00000064,-0.00000005,-0.00000229,-0.00000213,0.00000061,0.0000
 0014,0.00000275,0.00000156,-0.00000356,-0.00000238,0.00000180,0.000002
 03,0.00000499,0.00000129,-0.00000231,0.00000285,0.00000386,0.00000403,
 0.00000010,-0.00000354,0.00000137,-0.00000260,-0.00000282,0.00000166,-
 0.00000364,-0.00000374,-0.00000359,0.00000131,0.00000398\\\@
 The archive entry for this job was punched.


 "WOULD YOU TELL ME PLEASE, WHICH WAY I OUGHT TO WALK FROM HERE?"
 "THAT DEPENDS A GREAT DEAL ON WHERE YOU WANT TO GO," SAID THE CAT.
 "I DON'T MUCH CARE WHERE -- ", SAID ALICE.
 "THEN IT DOESN'T MATTER WHICH WAY YOU WALK," SAID THE CAT.

                                      -- LEWIS CARROLL
 Job cpu time:       0 days  0 hours  9 minutes 50.4 seconds.
 Elapsed time:       0 days  0 hours  1 minutes 18.3 seconds.
 File lengths (MBytes):  RWF=     99 Int=      0 D2E=      0 Chk=      6 Scr=      1
 Normal termination of Gaussian 16 at Fri May 23 07:34:54 2025.
done
