 Entering Gaussian System, Link 0=g16
 Initial command:
 /apps/easybuild-2022/easybuild/software/Compiler/NVHPC/22.11-CUDA-11.7.0/Gaussian/g16c01-CUDA-11.7.0/g16/l1.exe "/tmp/Gau-127664.inp" -scrdir="/tmp/"
 Entering Link 1 = /apps/easybuild-2022/easybuild/software/Compiler/NVHPC/22.11-CUDA-11.7.0/Gaussian/g16c01-CUDA-11.7.0/g16/l1.exe PID=    127665.
  
 Copyright (c) 1988-2019, Gaussian, Inc.  All Rights Reserved.
  
 This is part of the Gaussian(R) 16 program.  It is based on
 the Gaussian(R) 09 system (copyright 2009, Gaussian, Inc.),
 the Gaussian(R) 03 system (copyright 2003, Gaussian, Inc.),
 the Gaussian(R) 98 system (copyright 1998, Gaussian, Inc.),
 the Gaussian(R) 94 system (copyright 1995, Gaussian, Inc.),
 the Gaussian 92(TM) system (copyright 1992, Gaussian, Inc.),
 the Gaussian 90(TM) system (copyright 1990, Gaussian, Inc.),
 the Gaussian 88(TM) system (copyright 1988, Gaussian, Inc.),
 the Gaussian 86(TM) system (copyright 1986, Carnegie Mellon
 University), and the Gaussian 82(TM) system (copyright 1983,
 Carnegie Mellon University). Gaussian is a federally registered
 trademark of Gaussian, Inc.
  
 This software contains proprietary and confidential information,
 including trade secrets, belonging to Gaussian, Inc.
  
 This software is provided under written license and may be
 used, copied, transmitted, or stored only in accord with that
 written license.
  
 The following legend is applicable only to US Government
 contracts under FAR:
  
                    RESTRICTED RIGHTS LEGEND
  
 Use, reproduction and disclosure by the US Government is
 subject to restrictions as set forth in subparagraphs (a)
 and (c) of the Commercial Computer Software - Restricted
 Rights clause in FAR 52.227-19.
  
 Gaussian, Inc.
 340 Quinnipiac St., Bldg. 40, Wallingford CT 06492
  
  
 ---------------------------------------------------------------
 Warning -- This program may not be used in any manner that
 competes with the business of Gaussian, Inc. or will provide
 assistance to any competitor of Gaussian, Inc.  The licensee
 of this program is prohibited from giving any competitor of
 Gaussian, Inc. access to this program.  By using this program,
 the user acknowledges that Gaussian, Inc. is engaged in the
 business of creating and licensing software in the field of
 computational chemistry and represents and warrants to the
 licensee that it is not a competitor of Gaussian, Inc. and that
 it will not use this program in any manner prohibited above.
 ---------------------------------------------------------------
  

 Cite this work as:
 Gaussian 16, Revision C.01,
 M. J. Frisch, G. W. Trucks, H. B. Schlegel, G. E. Scuseria, 
 M. A. Robb, J. R. Cheeseman, G. Scalmani, V. Barone, 
 G. A. Petersson, H. Nakatsuji, X. Li, M. Caricato, A. V. Marenich, 
 J. Bloino, B. G. Janesko, R. Gomperts, B. Mennucci, H. P. Hratchian, 
 J. V. Ortiz, A. F. Izmaylov, J. L. Sonnenberg, D. Williams-Young, 
 F. Ding, F. Lipparini, F. Egidi, J. Goings, B. Peng, A. Petrone, 
 T. Henderson, D. Ranasinghe, V. G. Zakrzewski, J. Gao, N. Rega, 
 G. Zheng, W. Liang, M. Hada, M. Ehara, K. Toyota, R. Fukuda, 
 J. Hasegawa, M. Ishida, T. Nakajima, Y. Honda, O. Kitao, H. Nakai, 
 T. Vreven, K. Throssell, J. A. Montgomery, Jr., J. E. Peralta, 
 F. Ogliaro, M. J. Bearpark, J. J. Heyd, E. N. Brothers, K. N. Kudin, 
 V. N. Staroverov, T. A. Keith, R. Kobayashi, J. Normand, 
 K. Raghavachari, A. P. Rendell, J. C. Burant, S. S. Iyengar, 
 J. Tomasi, M. Cossi, J. M. Millam, M. Klene, C. Adamo, R. Cammi, 
 J. W. Ochterski, R. L. Martin, K. Morokuma, O. Farkas, 
 J. B. Foresman, and D. J. Fox, Gaussian, Inc., Wallingford CT, 2019.
 
 ******************************************
 Gaussian 16:  ES64L-G16RevC.01  3-Jul-2019
                23-May-2025 
 ******************************************
 %mem=28GB
 %nprocshared=8
 Will use up to    8 processors via shared memory.
 ----------------------------------------------------------------------
 #P wb97xd/6-311++G(d,p) Symm(None) scf(xqc) pop(None) freq opt(CalcFC,
  Tight)
 ----------------------------------------------------------------------
 1/7=10,10=4,18=20,19=15,26=3,38=1/1,3;
 2/9=110,12=2,15=3,17=6,18=5,40=1/2;
 3/5=4,6=6,7=1111,11=2,25=1,30=1,71=2,74=-58,140=1/1,2,3;
 4//1;
 5/5=2,8=3,13=1,38=5/2,8;
 8/6=4,10=90,11=11/1;
 11/6=1,8=1,9=11,15=111,16=1,31=1/1,2,10;
 10/6=1,13=1,31=1/2;
 7/10=1,25=1,30=1/1,2,3,16;
 1/7=10,10=4,18=20,19=15,26=3/3(2);
 2/9=110,15=3/2;
 99//99;
 2/9=110,15=3/2;
 3/5=4,6=6,7=1111,11=2,25=1,30=1,71=1,74=-58/1,2,3;
 4/5=5,16=3,69=1/1;
 5/5=2,8=3,13=1,38=5/2,8;
 7/30=1/1,2,3,16;
 1/7=10,18=20,19=15,26=3/3(-5);
 2/9=110,15=3/2;
 99/9=1/99;
 Leave Link    1 at Fri May 23 05:15:01 2025, MaxMem=  3758096384 cpu:               0.0 elap:               0.0
 (Enter /apps/easybuild-2022/easybuild/software/Compiler/NVHPC/22.11-CUDA-11.7.0/Gaussian/g16c01-CUDA-11.7.0/g16/l101.exe)
 ------------------------------
 Gaussian input prepared by ASE
 ------------------------------
 Symbolic Z-matrix:
 Charge =  0 Multiplicity = 1
 C                     2.66819   0.07717  -2.62501 
 C                     2.6494   -0.51048  -1.24315 
 F                    -0.41434  -1.33839   0.1468 
 F                     2.86752  -1.84101  -1.24241 
 S                     1.70995   0.        0. 
 O                     0.        0.        0. 
 O                     1.91079  -0.67951   1.24248 
 O                     1.81638   1.5768    0. 
 F                     2.56153   1.4153   -2.59627 
 F                     3.82979  -0.23204  -3.20756 
 F                     1.69572  -0.38739  -3.41853 
 H                     2.72408   1.85651  -0.18129 
 
 ITRead=  0  0  0  0  0  0  0  0  0  0  0  0
 MicOpt= -1 -1 -1 -1 -1 -1 -1 -1 -1 -1 -1 -1
 NAtoms=     12 NQM=       12 NQMF=       0 NMMI=      0 NMMIF=      0
                NMic=       0 NMicF=      0.
                    Isotopes and Nuclear Properties:
 (Nuclear quadrupole moments (NQMom) in fm**2, nuclear magnetic moments (NMagM)
  in nuclear magnetons)

  Atom         1           2           3           4           5           6           7           8           9          10
 IAtWgt=          12          12          19          19          32          16          16          16          19          19
 AtmWgt=  12.0000000  12.0000000  18.9984032  18.9984032  31.9720718  15.9949146  15.9949146  15.9949146  18.9984032  18.9984032
 NucSpn=           0           0           1           1           0           0           0           0           1           1
 AtZEff=  -0.0000000  -0.0000000  -0.0000000  -0.0000000  -0.0000000  -0.0000000  -0.0000000  -0.0000000  -0.0000000  -0.0000000
 NQMom=    0.0000000   0.0000000   0.0000000   0.0000000   0.0000000   0.0000000   0.0000000   0.0000000   0.0000000   0.0000000
 NMagM=    0.0000000   0.0000000   2.6288670   2.6288670   0.0000000   0.0000000   0.0000000   0.0000000   2.6288670   2.6288670
 AtZNuc=   6.0000000   6.0000000   9.0000000   9.0000000  16.0000000   8.0000000   8.0000000   8.0000000   9.0000000   9.0000000

  Atom        11          12
 IAtWgt=          19           1
 AtmWgt=  18.9984032   1.0078250
 NucSpn=           1           1
 AtZEff=  -0.0000000  -0.0000000
 NQMom=    0.0000000   0.0000000
 NMagM=    2.6288670   2.7928460
 AtZNuc=   9.0000000   1.0000000
 Leave Link  101 at Fri May 23 05:15:01 2025, MaxMem=  3758096384 cpu:               0.2 elap:               0.2
 (Enter /apps/easybuild-2022/easybuild/software/Compiler/NVHPC/22.11-CUDA-11.7.0/Gaussian/g16c01-CUDA-11.7.0/g16/l103.exe)

 GradGradGradGradGradGradGradGradGradGradGradGradGradGradGradGradGradGrad
 Berny optimization.
 Initialization pass.
                           ----------------------------
                           !    Initial Parameters    !
                           ! (Angstroms and Degrees)  !
 --------------------------                            --------------------------
 ! Name  Definition              Value          Derivative Info.                !
 --------------------------------------------------------------------------------
 ! R1    R(1,2)                  1.5017         calculate D2E/DX2 analytically  !
 ! R2    R(1,9)                  1.3427         calculate D2E/DX2 analytically  !
 ! R3    R(1,10)                 1.3358         calculate D2E/DX2 analytically  !
 ! R4    R(1,11)                 1.3384         calculate D2E/DX2 analytically  !
 ! R5    R(2,4)                  1.3483         calculate D2E/DX2 analytically  !
 ! R6    R(2,5)                  1.6397         calculate D2E/DX2 analytically  !
 ! R7    R(3,6)                  1.4087         calculate D2E/DX2 analytically  !
 ! R8    R(5,6)                  1.71           calculate D2E/DX2 analytically  !
 ! R9    R(5,7)                  1.4303         calculate D2E/DX2 analytically  !
 ! R10   R(5,8)                  1.5804         calculate D2E/DX2 analytically  !
 ! R11   R(8,12)                 0.967          calculate D2E/DX2 analytically  !
 ! A1    A(2,1,9)              111.6724         calculate D2E/DX2 analytically  !
 ! A2    A(2,1,10)             108.7597         calculate D2E/DX2 analytically  !
 ! A3    A(2,1,11)             113.62           calculate D2E/DX2 analytically  !
 ! A4    A(9,1,10)             108.0052         calculate D2E/DX2 analytically  !
 ! A5    A(9,1,11)             107.5117         calculate D2E/DX2 analytically  !
 ! A6    A(10,1,11)            107.0343         calculate D2E/DX2 analytically  !
 ! A7    A(1,2,4)              112.6214         calculate D2E/DX2 analytically  !
 ! A8    A(1,2,5)              125.6607         calculate D2E/DX2 analytically  !
 ! A9    A(4,2,5)              113.5464         calculate D2E/DX2 analytically  !
 ! A10   A(2,5,6)              124.9558         calculate D2E/DX2 analytically  !
 ! A11   A(2,5,7)              115.4828         calculate D2E/DX2 analytically  !
 ! A12   A(2,5,8)              105.7854         calculate D2E/DX2 analytically  !
 ! A13   A(6,5,7)               98.0719         calculate D2E/DX2 analytically  !
 ! A14   A(6,5,8)               93.8613         calculate D2E/DX2 analytically  !
 ! A15   A(7,5,8)              117.6805         calculate D2E/DX2 analytically  !
 ! A16   A(3,6,5)              107.1049         calculate D2E/DX2 analytically  !
 ! A17   A(5,8,12)             110.5985         calculate D2E/DX2 analytically  !
 ! D1    D(9,1,2,4)           -174.792          calculate D2E/DX2 analytically  !
 ! D2    D(9,1,2,5)             38.9377         calculate D2E/DX2 analytically  !
 ! D3    D(10,1,2,4)           -55.6976         calculate D2E/DX2 analytically  !
 ! D4    D(10,1,2,5)           158.0321         calculate D2E/DX2 analytically  !
 ! D5    D(11,1,2,4)            63.3932         calculate D2E/DX2 analytically  !
 ! D6    D(11,1,2,5)           -82.8771         calculate D2E/DX2 analytically  !
 ! D7    D(1,2,5,6)             61.1306         calculate D2E/DX2 analytically  !
 ! D8    D(1,2,5,7)           -177.3381         calculate D2E/DX2 analytically  !
 ! D9    D(1,2,5,8)            -45.3091         calculate D2E/DX2 analytically  !
 ! D10   D(4,2,5,6)            -84.8752         calculate D2E/DX2 analytically  !
 ! D11   D(4,2,5,7)             36.6561         calculate D2E/DX2 analytically  !
 ! D12   D(4,2,5,8)            168.6851         calculate D2E/DX2 analytically  !
 ! D13   D(2,5,6,3)             73.9347         calculate D2E/DX2 analytically  !
 ! D14   D(7,5,6,3)            -55.0665         calculate D2E/DX2 analytically  !
 ! D15   D(8,5,6,3)           -173.7408         calculate D2E/DX2 analytically  !
 ! D16   D(2,5,8,12)           -40.4338         calculate D2E/DX2 analytically  !
 ! D17   D(6,5,8,12)          -168.4464         calculate D2E/DX2 analytically  !
 ! D18   D(7,5,8,12)            90.348          calculate D2E/DX2 analytically  !
 --------------------------------------------------------------------------------
 Trust Radius=3.00D-01 FncErr=1.00D-07 GrdErr=1.00D-06 EigMax=2.50D+02 EigMin=1.00D-04
 Number of steps in this run=     56 maximum allowed number of steps=    100.
 GradGradGradGradGradGradGradGradGradGradGradGradGradGradGradGradGradGrad

 Leave Link  103 at Fri May 23 05:15:01 2025, MaxMem=  3758096384 cpu:               0.0 elap:               0.0
 (Enter /apps/easybuild-2022/easybuild/software/Compiler/NVHPC/22.11-CUDA-11.7.0/Gaussian/g16c01-CUDA-11.7.0/g16/l202.exe)
                          Input orientation:                          
 ---------------------------------------------------------------------
 Center     Atomic      Atomic             Coordinates (Angstroms)
 Number     Number       Type             X           Y           Z
 ---------------------------------------------------------------------
      1          6           0        2.668188    0.077166   -2.625006
      2          6           0        2.649405   -0.510476   -1.243153
      3          9           0       -0.414338   -1.338386    0.146795
      4          9           0        2.867520   -1.841015   -1.242409
      5         16           0        1.709953    0.000000    0.000000
      6          8           0        0.000000    0.000000    0.000000
      7          8           0        1.910794   -0.679510    1.242476
      8          8           0        1.816379    1.576805    0.000000
      9          9           0        2.561534    1.415304   -2.596275
     10          9           0        3.829785   -0.232039   -3.207558
     11          9           0        1.695719   -0.387386   -3.418533
     12          1           0        2.724075    1.856506   -0.181286
 ---------------------------------------------------------------------
                    Distance matrix (angstroms):
                    1          2          3          4          5
     1  C    0.000000
     2  C    1.501730   0.000000
     3  F    4.380483   3.464666   0.000000
     4  F    2.372915   1.348298   3.599044   0.000000
     5  S    2.795501   1.639690   2.515042   2.504571   0.000000
     6  O    3.743773   2.970751   1.408724   3.627063   1.709953
     7  O    4.012932   2.598551   2.653464   2.905008   1.430321
     8  O    3.140884   2.568288   3.673688   3.785494   1.580392
     9  F    1.342689   2.355268   4.895207   3.539801   3.077160
    10  F    1.335771   2.308617   5.521618   2.715984   3.851748
    11  F    1.338353   2.378434   4.250683   2.867346   3.440442
    12  H    3.023399   2.595331   4.490502   3.849444   2.123187
                    6          7          8          9         10
     6  O    0.000000
     7  O    2.378363   0.000000
     8  O    2.405316   2.577522   0.000000
     9  F    3.912184   4.421280   2.705915   0.000000
    10  F    5.000953   4.866781   4.196921   2.166995   0.000000
    11  F    3.835609   4.675104   3.944486   2.162275   2.150089
    12  H    3.301525   3.019918   0.966959   2.460335   3.839653
                   11         12
    11  F    0.000000
    12  H    4.070914   0.000000
 Symmetry turned off by external request.
 Stoichiometry    C2HF5O3S
 Rotational constants (GHZ):           1.5511778           0.6913178           0.6548200
 Leave Link  202 at Fri May 23 05:15:01 2025, MaxMem=  3758096384 cpu:               0.1 elap:               0.0
 (Enter /apps/easybuild-2022/easybuild/software/Compiler/NVHPC/22.11-CUDA-11.7.0/Gaussian/g16c01-CUDA-11.7.0/g16/l301.exe)
 Standard basis: 6-311++G(d,p) (5D, 7F)
 Ernie: Thresh=  0.10000D-02 Tol=  0.10000D-05 Strict=F.
   257 basis functions,   419 primitive gaussians,   268 cartesian basis functions
    49 alpha electrons       49 beta electrons
       nuclear repulsion energy       889.5466971691 Hartrees.
 IExCor= 4639 DFT=T Ex+Corr=wB97XD ExCW=0 ScaHFX=  1.000000
 ScaDFX=  1.000000  1.000000  1.000000  1.000000 ScalE2=  1.000000  1.000000
 IRadAn=      5 IRanWt=     -1 IRanGd=            0 ICorTp=0 IEmpDi=121
 HFx  wShort=  0.000000 wLong=  0.200000 cFull=  0.222036 cShort=  0.000000 cLong=  0.777964
 DFx  wShort=  0.000000 wLong=  0.200000 cFull=  0.000000 cShort=  0.000000 cLong=  1.000000
 NAtoms=   12 NActive=   12 NUniq=   12 SFac= 1.00D+00 NAtFMM=   60 NAOKFM=F Big=F
 Integral buffers will be    131072 words long.
 Raffenetti 2 integral format.
 Two-electron integral symmetry is turned off.
 R6Disp:  Grimme-D2 Dispersion energy=       -0.0051110740 Hartrees.
 Nuclear repulsion after empirical dispersion term =      889.5415860951 Hartrees.
 Leave Link  301 at Fri May 23 05:15:01 2025, MaxMem=  3758096384 cpu:               0.1 elap:               0.0
 (Enter /apps/easybuild-2022/easybuild/software/Compiler/NVHPC/22.11-CUDA-11.7.0/Gaussian/g16c01-CUDA-11.7.0/g16/l302.exe)
 NPDir=0 NMtPBC=     1 NCelOv=     1 NCel=       1 NClECP=     1 NCelD=      1
         NCelK=      1 NCelE2=     1 NClLst=     1 CellRange=     0.0.
 One-electron integrals computed using PRISM.
 NBasis=   257 RedAO= T EigKep=  6.63D-05  NBF=   257
 NBsUse=   257 1.00D-06 EigRej= -1.00D+00 NBFU=   257
 Precomputing XC quadrature grid using
 IXCGrd= 4 IRadAn=           5 IRanWt=          -1 IRanGd=           0 AccXCQ= 0.00D+00.
 Generated NRdTot=       0 NPtTot=           0 NUsed=           0 NTot=          32
 NSgBfM=   268   268   268   268   268 MxSgAt=    12 MxSgA2=    12.
 Leave Link  302 at Fri May 23 05:15:01 2025, MaxMem=  3758096384 cpu:               0.5 elap:               0.1
 (Enter /apps/easybuild-2022/easybuild/software/Compiler/NVHPC/22.11-CUDA-11.7.0/Gaussian/g16c01-CUDA-11.7.0/g16/l303.exe)
 DipDrv:  MaxL=1.
 Leave Link  303 at Fri May 23 05:15:01 2025, MaxMem=  3758096384 cpu:               0.1 elap:               0.0
 (Enter /apps/easybuild-2022/easybuild/software/Compiler/NVHPC/22.11-CUDA-11.7.0/Gaussian/g16c01-CUDA-11.7.0/g16/l401.exe)
 ExpMin= 3.60D-02 ExpMax= 9.34D+04 ExpMxC= 3.17D+03 IAcc=3 IRadAn=         5 AccDes= 0.00D+00
 Harris functional with IExCor= 4639 and IRadAn=       5 diagonalized for initial guess.
 HarFok:  IExCor= 4639 AccDes= 0.00D+00 IRadAn=         5 IDoV= 1 UseB2=F ITyADJ=14
 ICtDFT=  3500011 ScaDFX=  1.000000  1.000000  1.000000  1.000000
 FoFCou: FMM=F IPFlag=           0 FMFlag=      100000 FMFlg1=           0
         NFxFlg=           0 DoJE=T BraDBF=F KetDBF=T FulRan=T
         wScrn=  0.000000 ICntrl=       500 IOpCl=  0 I1Cent=   200000004 NGrid=           0
         NMat0=    1 NMatS0=      1 NMatT0=    0 NMatD0=    1 NMtDS0=    0 NMtDT0=    0
 Symmetry not used in FoFCou.
 Harris En= -1166.97517758129    
 JPrj=0 DoOrth=F DoCkMO=F.
 Leave Link  401 at Fri May 23 05:15:02 2025, MaxMem=  3758096384 cpu:               2.6 elap:               0.4
 (Enter /apps/easybuild-2022/easybuild/software/Compiler/NVHPC/22.11-CUDA-11.7.0/Gaussian/g16c01-CUDA-11.7.0/g16/l502.exe)
 Keep R1 ints in memory in canonical form, NReq=1117474609.
 FoFCou: FMM=F IPFlag=           0 FMFlag=           0 FMFlg1=           0
         NFxFlg=           0 DoJE=F BraDBF=F KetDBF=F FulRan=T
         wScrn=  0.000000 ICntrl=       600 IOpCl=  0 I1Cent=           0 NGrid=           0
         NMat0=    1 NMatS0=  33153 NMatT0=    0 NMatD0=    1 NMtDS0=    0 NMtDT0=    0
 Symmetry not used in FoFCou.
 Two-electron integral symmetry not used.
 Closed shell SCF:
 Using DIIS extrapolation, IDIIS=  1040.
 NGot=  3758096384 LenX=  2658793876 LenY=  2658721611
 Requested convergence on RMS density matrix=1.00D-08 within  32 cycles.
 Requested convergence on MAX density matrix=1.00D-06.
 Requested convergence on             energy=1.00D-06.
 No special actions if energy rises.

 Cycle   1  Pass 1  IDiag  1:
 E= -1198.82602251730    
 DIIS: error= 9.45D-02 at cycle   1 NSaved=   1.
 NSaved= 1 IEnMin= 1 EnMin= -1198.82602251730     IErMin= 1 ErrMin= 9.45D-02
 ErrMax= 9.45D-02  0.00D+00 EMaxC= 1.00D-01 BMatC= 3.48D+00 BMatP= 3.48D+00
 IDIUse=3 WtCom= 5.53D-02 WtEn= 9.45D-01
 Coeff-Com:  0.100D+01
 Coeff-En:   0.100D+01
 Coeff:      0.100D+01
 Gap=     0.506 Goal=   None    Shift=    0.000
 GapD=    0.506 DampG=2.000 DampE=0.500 DampFc=1.0000 IDamp=-1.
 RMSDP=8.07D-03 MaxDP=4.89D-01              OVMax= 2.29D-01

 Cycle   2  Pass 1  IDiag  1:
 E= -1199.07141009928     Delta-E=       -0.245387581975 Rises=F Damp=F
 DIIS: error= 6.34D-02 at cycle   2 NSaved=   2.
 NSaved= 2 IEnMin= 2 EnMin= -1199.07141009928     IErMin= 2 ErrMin= 6.34D-02
 ErrMax= 6.34D-02  0.00D+00 EMaxC= 1.00D-01 BMatC= 1.05D+00 BMatP= 3.48D+00
 IDIUse=3 WtCom= 3.66D-01 WtEn= 6.34D-01
 Coeff-Com:  0.328D+00 0.672D+00
 Coeff-En:   0.384D+00 0.616D+00
 Coeff:      0.364D+00 0.636D+00
 Gap=     0.456 Goal=   None    Shift=    0.000
 RMSDP=5.01D-03 MaxDP=3.38D-01 DE=-2.45D-01 OVMax= 1.73D-01

 Cycle   3  Pass 1  IDiag  1:
 E= -1199.51218384061     Delta-E=       -0.440773741329 Rises=F Damp=F
 DIIS: error= 1.43D-02 at cycle   3 NSaved=   3.
 NSaved= 3 IEnMin= 3 EnMin= -1199.51218384061     IErMin= 3 ErrMin= 1.43D-02
 ErrMax= 1.43D-02  0.00D+00 EMaxC= 1.00D-01 BMatC= 1.32D-01 BMatP= 1.05D+00
 IDIUse=3 WtCom= 8.57D-01 WtEn= 1.43D-01
 Coeff-Com:  0.718D-01 0.280D+00 0.648D+00
 Coeff-En:   0.000D+00 0.670D-01 0.933D+00
 Coeff:      0.615D-01 0.249D+00 0.689D+00
 Gap=     0.353 Goal=   None    Shift=    0.000
 RMSDP=2.86D-03 MaxDP=2.28D-01 DE=-4.41D-01 OVMax= 9.44D-02

 Cycle   4  Pass 1  IDiag  1:
 E= -1199.58067396288     Delta-E=       -0.068490122278 Rises=F Damp=F
 DIIS: error= 6.75D-03 at cycle   4 NSaved=   4.
 NSaved= 4 IEnMin= 4 EnMin= -1199.58067396288     IErMin= 4 ErrMin= 6.75D-03
 ErrMax= 6.75D-03  0.00D+00 EMaxC= 1.00D-01 BMatC= 2.71D-02 BMatP= 1.32D-01
 IDIUse=3 WtCom= 9.33D-01 WtEn= 6.75D-02
 Coeff-Com:  0.893D-02 0.740D-01 0.362D+00 0.555D+00
 Coeff-En:   0.000D+00 0.000D+00 0.157D+00 0.843D+00
 Coeff:      0.833D-02 0.690D-01 0.348D+00 0.575D+00
 Gap=     0.320 Goal=   None    Shift=    0.000
 RMSDP=1.42D-03 MaxDP=1.52D-01 DE=-6.85D-02 OVMax= 3.74D-02

 Cycle   5  Pass 1  IDiag  1:
 E= -1199.59716210777     Delta-E=       -0.016488144888 Rises=F Damp=F
 DIIS: error= 4.57D-03 at cycle   5 NSaved=   5.
 NSaved= 5 IEnMin= 5 EnMin= -1199.59716210777     IErMin= 5 ErrMin= 4.57D-03
 ErrMax= 4.57D-03  0.00D+00 EMaxC= 1.00D-01 BMatC= 2.79D-03 BMatP= 2.71D-02
 IDIUse=3 WtCom= 9.54D-01 WtEn= 4.57D-02
 Coeff-Com: -0.446D-03 0.172D-01 0.152D+00 0.339D+00 0.492D+00
 Coeff-En:   0.000D+00 0.000D+00 0.000D+00 0.000D+00 0.100D+01
 Coeff:     -0.425D-03 0.164D-01 0.145D+00 0.324D+00 0.516D+00
 Gap=     0.322 Goal=   None    Shift=    0.000
 RMSDP=2.59D-04 MaxDP=1.71D-02 DE=-1.65D-02 OVMax= 9.02D-03

 Cycle   6  Pass 1  IDiag  1:
 E= -1199.59886628780     Delta-E=       -0.001704180027 Rises=F Damp=F
 DIIS: error= 7.92D-04 at cycle   6 NSaved=   6.
 NSaved= 6 IEnMin= 6 EnMin= -1199.59886628780     IErMin= 6 ErrMin= 7.92D-04
 ErrMax= 7.92D-04  0.00D+00 EMaxC= 1.00D-01 BMatC= 8.70D-05 BMatP= 2.79D-03
 IDIUse=3 WtCom= 9.92D-01 WtEn= 7.92D-03
 Coeff-Com: -0.709D-03-0.270D-02 0.233D-02 0.309D-01 0.176D+00 0.794D+00
 Coeff-En:   0.000D+00 0.000D+00 0.000D+00 0.000D+00 0.000D+00 0.100D+01
 Coeff:     -0.703D-03-0.268D-02 0.231D-02 0.306D-01 0.175D+00 0.795D+00
 Gap=     0.323 Goal=   None    Shift=    0.000
 RMSDP=1.03D-04 MaxDP=6.24D-03 DE=-1.70D-03 OVMax= 2.76D-03

 Cycle   7  Pass 1  IDiag  1:
 E= -1199.59892724869     Delta-E=       -0.000060960888 Rises=F Damp=F
 DIIS: error= 2.15D-04 at cycle   7 NSaved=   7.
 NSaved= 7 IEnMin= 7 EnMin= -1199.59892724869     IErMin= 7 ErrMin= 2.15D-04
 ErrMax= 2.15D-04  0.00D+00 EMaxC= 1.00D-01 BMatC= 1.41D-05 BMatP= 8.70D-05
 IDIUse=3 WtCom= 9.98D-01 WtEn= 2.15D-03
 Coeff-Com: -0.325D-03-0.287D-02-0.116D-01-0.125D-01 0.490D-01 0.422D+00
 Coeff-Com:  0.556D+00
 Coeff-En:   0.000D+00 0.000D+00 0.000D+00 0.000D+00 0.000D+00 0.000D+00
 Coeff-En:   0.100D+01
 Coeff:     -0.325D-03-0.286D-02-0.116D-01-0.125D-01 0.489D-01 0.421D+00
 Coeff:      0.557D+00
 Gap=     0.322 Goal=   None    Shift=    0.000
 RMSDP=3.80D-05 MaxDP=3.12D-03 DE=-6.10D-05 OVMax= 1.39D-03

 Cycle   8  Pass 1  IDiag  1:
 E= -1199.59893904031     Delta-E=       -0.000011791618 Rises=F Damp=F
 DIIS: error= 3.88D-05 at cycle   8 NSaved=   8.
 NSaved= 8 IEnMin= 8 EnMin= -1199.59893904031     IErMin= 8 ErrMin= 3.88D-05
 ErrMax= 3.88D-05  0.00D+00 EMaxC= 1.00D-01 BMatC= 1.12D-06 BMatP= 1.41D-05
 IDIUse=1 WtCom= 1.00D+00 WtEn= 0.00D+00
 Coeff-Com: -0.340D-04-0.101D-02-0.667D-02-0.128D-01-0.108D-01 0.514D-01
 Coeff-Com:  0.226D+00 0.754D+00
 Coeff:     -0.340D-04-0.101D-02-0.667D-02-0.128D-01-0.108D-01 0.514D-01
 Coeff:      0.226D+00 0.754D+00
 Gap=     0.322 Goal=   None    Shift=    0.000
 RMSDP=1.71D-05 MaxDP=5.13D-04 DE=-1.18D-05 OVMax= 7.98D-04

 Cycle   9  Pass 1  IDiag  1:
 E= -1199.59894073231     Delta-E=       -0.000001692006 Rises=F Damp=F
 DIIS: error= 1.45D-05 at cycle   9 NSaved=   9.
 NSaved= 9 IEnMin= 9 EnMin= -1199.59894073231     IErMin= 9 ErrMin= 1.45D-05
 ErrMax= 1.45D-05  0.00D+00 EMaxC= 1.00D-01 BMatC= 1.52D-07 BMatP= 1.12D-06
 IDIUse=1 WtCom= 1.00D+00 WtEn= 0.00D+00
 Coeff-Com:  0.117D-04-0.119D-03-0.148D-02-0.384D-02-0.932D-02-0.222D-01
 Coeff-Com:  0.296D-01 0.289D+00 0.719D+00
 Coeff:      0.117D-04-0.119D-03-0.148D-02-0.384D-02-0.932D-02-0.222D-01
 Coeff:      0.296D-01 0.289D+00 0.719D+00
 Gap=     0.322 Goal=   None    Shift=    0.000
 RMSDP=8.28D-06 MaxDP=3.00D-04 DE=-1.69D-06 OVMax= 3.95D-04

 Cycle  10  Pass 1  IDiag  1:
 E= -1199.59894103843     Delta-E=       -0.000000306119 Rises=F Damp=F
 DIIS: error= 7.87D-06 at cycle  10 NSaved=  10.
 NSaved=10 IEnMin=10 EnMin= -1199.59894103843     IErMin=10 ErrMin= 7.87D-06
 ErrMax= 7.87D-06  0.00D+00 EMaxC= 1.00D-01 BMatC= 3.06D-08 BMatP= 1.52D-07
 IDIUse=1 WtCom= 1.00D+00 WtEn= 0.00D+00
 Coeff-Com:  0.715D-05 0.199D-03 0.112D-02 0.191D-02-0.840D-03-0.229D-01
 Coeff-Com: -0.530D-01-0.103D+00 0.251D+00 0.925D+00
 Coeff:      0.715D-05 0.199D-03 0.112D-02 0.191D-02-0.840D-03-0.229D-01
 Coeff:     -0.530D-01-0.103D+00 0.251D+00 0.925D+00
 Gap=     0.322 Goal=   None    Shift=    0.000
 RMSDP=5.49D-06 MaxDP=1.91D-04 DE=-3.06D-07 OVMax= 3.28D-04

 Cycle  11  Pass 1  IDiag  1:
 E= -1199.59894113787     Delta-E=       -0.000000099441 Rises=F Damp=F
 DIIS: error= 2.86D-06 at cycle  11 NSaved=  11.
 NSaved=11 IEnMin=11 EnMin= -1199.59894113787     IErMin=11 ErrMin= 2.86D-06
 ErrMax= 2.86D-06  0.00D+00 EMaxC= 1.00D-01 BMatC= 2.36D-09 BMatP= 3.06D-08
 IDIUse=1 WtCom= 1.00D+00 WtEn= 0.00D+00
 Coeff-Com:  0.691D-06 0.346D-04 0.226D-03 0.593D-03 0.103D-02 0.120D-02
 Coeff-Com: -0.721D-02-0.403D-01-0.491D-01 0.945D-01 0.999D+00
 Coeff:      0.691D-06 0.346D-04 0.226D-03 0.593D-03 0.103D-02 0.120D-02
 Coeff:     -0.721D-02-0.403D-01-0.491D-01 0.945D-01 0.999D+00
 Gap=     0.322 Goal=   None    Shift=    0.000
 RMSDP=1.77D-06 MaxDP=6.60D-05 DE=-9.94D-08 OVMax= 1.10D-04

 Cycle  12  Pass 1  IDiag  1:
 E= -1199.59894114785     Delta-E=       -0.000000009984 Rises=F Damp=F
 DIIS: error= 1.83D-06 at cycle  12 NSaved=  12.
 NSaved=12 IEnMin=12 EnMin= -1199.59894114785     IErMin=12 ErrMin= 1.83D-06
 ErrMax= 1.83D-06  0.00D+00 EMaxC= 1.00D-01 BMatC= 9.32D-10 BMatP= 2.36D-09
 IDIUse=1 WtCom= 1.00D+00 WtEn= 0.00D+00
 Coeff-Com: -0.378D-06-0.163D-04-0.855D-04-0.510D-04 0.662D-03 0.461D-02
 Coeff-Com:  0.550D-02-0.894D-03-0.659D-01-0.110D+00 0.479D+00 0.688D+00
 Coeff:     -0.378D-06-0.163D-04-0.855D-04-0.510D-04 0.662D-03 0.461D-02
 Coeff:      0.550D-02-0.894D-03-0.659D-01-0.110D+00 0.479D+00 0.688D+00
 Gap=     0.322 Goal=   None    Shift=    0.000
 RMSDP=6.22D-07 MaxDP=2.68D-05 DE=-9.98D-09 OVMax= 3.82D-05

 Cycle  13  Pass 1  IDiag  1:
 E= -1199.59894114965     Delta-E=       -0.000000001793 Rises=F Damp=F
 DIIS: error= 5.37D-07 at cycle  13 NSaved=  13.
 NSaved=13 IEnMin=13 EnMin= -1199.59894114965     IErMin=13 ErrMin= 5.37D-07
 ErrMax= 5.37D-07  0.00D+00 EMaxC= 1.00D-01 BMatC= 7.05D-11 BMatP= 9.32D-10
 IDIUse=1 WtCom= 1.00D+00 WtEn= 0.00D+00
 Coeff-Com: -0.287D-06-0.731D-05-0.407D-04-0.113D-03-0.128D-03 0.151D-03
 Coeff-Com:  0.109D-02 0.750D-02 0.303D-02-0.204D-01-0.159D+00 0.315D-01
 Coeff-Com:  0.114D+01
 Coeff:     -0.287D-06-0.731D-05-0.407D-04-0.113D-03-0.128D-03 0.151D-03
 Coeff:      0.109D-02 0.750D-02 0.303D-02-0.204D-01-0.159D+00 0.315D-01
 Coeff:      0.114D+01
 Gap=     0.322 Goal=   None    Shift=    0.000
 RMSDP=3.28D-07 MaxDP=1.39D-05 DE=-1.79D-09 OVMax= 2.20D-05

 Cycle  14  Pass 1  IDiag  1:
 E= -1199.59894115001     Delta-E=       -0.000000000362 Rises=F Damp=F
 DIIS: error= 1.27D-07 at cycle  14 NSaved=  14.
 NSaved=14 IEnMin=14 EnMin= -1199.59894115001     IErMin=14 ErrMin= 1.27D-07
 ErrMax= 1.27D-07  0.00D+00 EMaxC= 1.00D-01 BMatC= 1.06D-11 BMatP= 7.05D-11
 IDIUse=1 WtCom= 1.00D+00 WtEn= 0.00D+00
 Coeff-Com: -0.119D-06-0.140D-05-0.760D-05-0.335D-04-0.110D-03-0.329D-03
 Coeff-Com: -0.711D-04 0.235D-02 0.660D-02 0.616D-03-0.827D-01-0.436D-01
 Coeff-Com:  0.324D+00 0.793D+00
 Coeff:     -0.119D-06-0.140D-05-0.760D-05-0.335D-04-0.110D-03-0.329D-03
 Coeff:     -0.711D-04 0.235D-02 0.660D-02 0.616D-03-0.827D-01-0.436D-01
 Coeff:      0.324D+00 0.793D+00
 Gap=     0.322 Goal=   None    Shift=    0.000
 RMSDP=6.28D-08 MaxDP=2.25D-06 DE=-3.62D-10 OVMax= 4.07D-06

 Cycle  15  Pass 1  IDiag  1:
 E= -1199.59894114999     Delta-E=        0.000000000019 Rises=F Damp=F
 DIIS: error= 6.87D-08 at cycle  15 NSaved=  15.
 NSaved=15 IEnMin=14 EnMin= -1199.59894115001     IErMin=15 ErrMin= 6.87D-08
 ErrMax= 6.87D-08  0.00D+00 EMaxC= 1.00D-01 BMatC= 2.78D-12 BMatP= 1.06D-11
 IDIUse=1 WtCom= 1.00D+00 WtEn= 0.00D+00
 Coeff-Com: -0.305D-07 0.714D-06 0.470D-05 0.993D-05-0.194D-04-0.141D-03
 Coeff-Com: -0.221D-03-0.649D-03 0.244D-02 0.394D-02-0.270D-02-0.260D-01
 Coeff-Com: -0.101D+00 0.337D+00 0.787D+00
 Coeff:     -0.305D-07 0.714D-06 0.470D-05 0.993D-05-0.194D-04-0.141D-03
 Coeff:     -0.221D-03-0.649D-03 0.244D-02 0.394D-02-0.270D-02-0.260D-01
 Coeff:     -0.101D+00 0.337D+00 0.787D+00
 Gap=     0.322 Goal=   None    Shift=    0.000
 RMSDP=2.61D-08 MaxDP=1.44D-06 DE= 1.86D-11 OVMax= 1.64D-06

 Cycle  16  Pass 1  IDiag  1:
 E= -1199.59894115003     Delta-E=       -0.000000000043 Rises=F Damp=F
 DIIS: error= 2.72D-08 at cycle  16 NSaved=  16.
 NSaved=16 IEnMin=16 EnMin= -1199.59894115003     IErMin=16 ErrMin= 2.72D-08
 ErrMax= 2.72D-08  0.00D+00 EMaxC= 1.00D-01 BMatC= 1.92D-13 BMatP= 2.78D-12
 IDIUse=1 WtCom= 1.00D+00 WtEn= 0.00D+00
 Coeff-Com:  0.119D-07 0.278D-06 0.148D-05 0.537D-05 0.916D-05 0.844D-05
 Coeff-Com: -0.345D-04-0.358D-03-0.237D-03 0.547D-03 0.863D-02 0.103D-02
 Coeff-Com: -0.519D-01-0.412D-01 0.143D+00 0.940D+00
 Coeff:      0.119D-07 0.278D-06 0.148D-05 0.537D-05 0.916D-05 0.844D-05
 Coeff:     -0.345D-04-0.358D-03-0.237D-03 0.547D-03 0.863D-02 0.103D-02
 Coeff:     -0.519D-01-0.412D-01 0.143D+00 0.940D+00
 Gap=     0.322 Goal=   None    Shift=    0.000
 RMSDP=7.21D-09 MaxDP=2.82D-07 DE=-4.32D-11 OVMax= 5.17D-07

 SCF Done:  E(RwB97XD) =  -1199.59894115     A.U. after   16 cycles
            NFock= 16  Conv=0.72D-08     -V/T= 2.0020
 KE= 1.197258424104D+03 PE=-4.625725836046D+03 EE= 1.339326884697D+03
 Leave Link  502 at Fri May 23 05:15:18 2025, MaxMem=  3758096384 cpu:              75.3 elap:              16.2
 (Enter /apps/easybuild-2022/easybuild/software/Compiler/NVHPC/22.11-CUDA-11.7.0/Gaussian/g16c01-CUDA-11.7.0/g16/l508.exe)
 QCSCF skips out because SCF is already converged.
 Leave Link  508 at Fri May 23 05:15:18 2025, MaxMem=  3758096384 cpu:               0.0 elap:               0.0
 (Enter /apps/easybuild-2022/easybuild/software/Compiler/NVHPC/22.11-CUDA-11.7.0/Gaussian/g16c01-CUDA-11.7.0/g16/l801.exe)
 DoSCS=F DFT=T ScalE2(SS,OS)=  1.000000  1.000000
 Range of M.O.s used for correlation:     1   257
 NBasis=   257 NAE=    49 NBE=    49 NFC=     0 NFV=     0
 NROrb=    257 NOA=    49 NOB=    49 NVA=   208 NVB=   208

 **** Warning!!: The largest alpha MO coefficient is  0.31364609D+02

 Leave Link  801 at Fri May 23 05:15:18 2025, MaxMem=  3758096384 cpu:               0.1 elap:               0.0
 (Enter /apps/easybuild-2022/easybuild/software/Compiler/NVHPC/22.11-CUDA-11.7.0/Gaussian/g16c01-CUDA-11.7.0/g16/l1101.exe)
 Using compressed storage, NAtomX=    12.
 Will process     13 centers per pass.
 R6Disp: Adding Grimme-D2 dispersion energy 1st derivatives to the gradient.
 Leave Link 1101 at Fri May 23 05:15:18 2025, MaxMem=  3758096384 cpu:               0.5 elap:               0.1
 (Enter /apps/easybuild-2022/easybuild/software/Compiler/NVHPC/22.11-CUDA-11.7.0/Gaussian/g16c01-CUDA-11.7.0/g16/l1102.exe)
 Symmetrizing basis deriv contribution to polar:
 IMax=3 JMax=2 DiffMx= 0.00D+00
 Leave Link 1102 at Fri May 23 05:15:18 2025, MaxMem=  3758096384 cpu:               0.1 elap:               0.0
 (Enter /apps/easybuild-2022/easybuild/software/Compiler/NVHPC/22.11-CUDA-11.7.0/Gaussian/g16c01-CUDA-11.7.0/g16/l1110.exe)
 Forming Gx(P) for the SCF density, NAtomX=    12.
 Integral derivatives from FoFJK, PRISM(SPDF).
 Do as many integral derivatives as possible in FoFJK.
 G2DrvN: MDV=    3758095012.
 G2DrvN: will do    13 centers at a time, making    1 passes.
 Calling FoFCou, ICntrl=  3107 FMM=F I1Cent=   0 AccDes= 0.00D+00.
 FoFJK:  IHMeth= 1 ICntrl=    3107 DoSepK=T KAlg= 0 I1Cent=           0 FoldK=F
 IRaf=         1 NMat=       1 IRICut=       1 DoRegI=T DoRafI=F ISym2E= 0 IDoP0=0 IntGTp=1.
 FoFCou: FMM=F IPFlag=           0 FMFlag=      100000 FMFlg1=           0
         NFxFlg=           0 DoJE=F BraDBF=F KetDBF=F FulRan=T
         wScrn=  0.000000 ICntrl=      3507 IOpCl=  0 I1Cent=           0 NGrid=           0
         NMat0=    1 NMatS0=      1 NMatT0=    0 NMatD0=    1 NMtDS0=    0 NMtDT0=    0
 Symmetry not used in FoFCou.
 End of G2Drv F.D. properties file   721 does not exist.
 End of G2Drv F.D. properties file   722 does not exist.
 End of G2Drv F.D. properties file   788 does not exist.
 Leave Link 1110 at Fri May 23 05:15:32 2025, MaxMem=  3758096384 cpu:             106.4 elap:              13.6
 (Enter /apps/easybuild-2022/easybuild/software/Compiler/NVHPC/22.11-CUDA-11.7.0/Gaussian/g16c01-CUDA-11.7.0/g16/l1002.exe)
 Minotr:  Closed shell wavefunction.
          IDoAtm=111111111111
          Direct CPHF calculation.
          Differentiating once with respect to nuclear coordinates.
          Requested convergence is 1.0D-08 RMS, and 1.0D-07 maximum.
          Secondary convergence is 1.0D-12 RMS, and 1.0D-12 maximum.
          NewPWx=T KeepS1=F KeepF1=F KeepIn=T MapXYZ=F SortEE=F KeepMc=T.
         3710 words used for storage of precomputed grid.
 Keep R1 ints in memory in canonical form, NReq=1117480302.
 FoFCou: FMM=F IPFlag=           0 FMFlag=           0 FMFlg1=           0
         NFxFlg=           0 DoJE=F BraDBF=F KetDBF=F FulRan=T
         wScrn=  0.000000 ICntrl=       600 IOpCl=  0 I1Cent=           0 NGrid=           0
         NMat0=    1 NMatS0=  33153 NMatT0=    0 NMatD0=    1 NMtDS0=    0 NMtDT0=    0
 Symmetry not used in FoFCou.
 Two-electron integral symmetry not used.
          MDV=    3758096384 using IRadAn=       1.
          Solving linear equations simultaneously, MaxMat=       0.
          There are    39 degrees of freedom in the 1st order CPHF.  IDoFFX=6 NUNeed=     0.
     33 vectors produced by pass  0 Test12= 2.61D-14 2.56D-09 XBig12= 1.77D-01 1.16D-01.
 AX will form    33 AO Fock derivatives at one time.
     33 vectors produced by pass  1 Test12= 2.61D-14 2.56D-09 XBig12= 2.74D-02 2.93D-02.
     33 vectors produced by pass  2 Test12= 2.61D-14 2.56D-09 XBig12= 2.05D-03 6.21D-03.
     33 vectors produced by pass  3 Test12= 2.61D-14 2.56D-09 XBig12= 4.11D-05 8.27D-04.
     33 vectors produced by pass  4 Test12= 2.61D-14 2.56D-09 XBig12= 6.17D-07 1.07D-04.
     33 vectors produced by pass  5 Test12= 2.61D-14 2.56D-09 XBig12= 7.91D-09 1.02D-05.
     33 vectors produced by pass  6 Test12= 2.61D-14 2.56D-09 XBig12= 9.13D-11 1.31D-06.
     26 vectors produced by pass  7 Test12= 2.61D-14 2.56D-09 XBig12= 6.83D-13 1.23D-07.
      9 vectors produced by pass  8 Test12= 2.61D-14 2.56D-09 XBig12= 4.69D-15 9.65D-09.
 InvSVY:  IOpt=1 It=  1 EMax= 1.22D-15
 Solved reduced A of dimension   266 with    33 vectors.
 End of Minotr F.D. properties file   721 does not exist.
 End of Minotr F.D. properties file   722 does not exist.
 End of Minotr F.D. properties file   788 does not exist.
 Leave Link 1002 at Fri May 23 05:15:57 2025, MaxMem=  3758096384 cpu:             199.1 elap:              25.7
 (Enter /apps/easybuild-2022/easybuild/software/Compiler/NVHPC/22.11-CUDA-11.7.0/Gaussian/g16c01-CUDA-11.7.0/g16/l701.exe)
 ... and contract with generalized density number  0.
 Compute integral second derivatives.
 R6Disp: Adding Grimme-D2 dispersion energy 2nd derivatives to the Hessian.
 Leave Link  701 at Fri May 23 05:15:58 2025, MaxMem=  3758096384 cpu:               0.6 elap:               0.1
 (Enter /apps/easybuild-2022/easybuild/software/Compiler/NVHPC/22.11-CUDA-11.7.0/Gaussian/g16c01-CUDA-11.7.0/g16/l702.exe)
 L702 exits ... SP integral derivatives will be done elsewhere.
 Leave Link  702 at Fri May 23 05:15:58 2025, MaxMem=  3758096384 cpu:               0.1 elap:               0.0
 (Enter /apps/easybuild-2022/easybuild/software/Compiler/NVHPC/22.11-CUDA-11.7.0/Gaussian/g16c01-CUDA-11.7.0/g16/l703.exe)
 Integral derivatives from FoFJK, PRISM(SPDF).
 Compute integral second derivatives, UseDBF=F ICtDFT=           0.
 Calling FoFJK, ICntrl=    100127 FMM=F ISym2X=0 I1Cent= 0 IOpClX= 0 NMat=1 NMatS=1 NMatT=0.
 FoFJK:  IHMeth= 1 ICntrl=  100127 DoSepK=T KAlg= 0 I1Cent=           0 FoldK=F
 IRaf=         1 NMat=       1 IRICut=       1 DoRegI=T DoRafI=F ISym2E= 0 IDoP0=0 IntGTp=1.
 FoFCou: FMM=F IPFlag=           0 FMFlag=      100000 FMFlg1=         800
         NFxFlg=           0 DoJE=F BraDBF=F KetDBF=F FulRan=T
         wScrn=  0.000000 ICntrl=    100527 IOpCl=  0 I1Cent=           0 NGrid=           0
         NMat0=    1 NMatS0=      1 NMatT0=    0 NMatD0=    1 NMtDS0=    0 NMtDT0=    0
 Symmetry not used in FoFCou.
 Leave Link  703 at Fri May 23 05:16:35 2025, MaxMem=  3758096384 cpu:             294.1 elap:              37.2
 (Enter /apps/easybuild-2022/easybuild/software/Compiler/NVHPC/22.11-CUDA-11.7.0/Gaussian/g16c01-CUDA-11.7.0/g16/l716.exe)
 Dipole        = 5.16555163D-01 1.08543344D+00-2.03331984D-02
 Polarizability= 0.00000000D+00 0.00000000D+00 0.00000000D+00
                 0.00000000D+00 0.00000000D+00 0.00000000D+00
 -------------------------------------------------------------------
 Center     Atomic                   Forces (Hartrees/Bohr)
 Number     Number              X              Y              Z
 -------------------------------------------------------------------
      1        6           0.001079213   -0.002310019    0.001587411
      2        6           0.001382400    0.000762483   -0.001191445
      3        9           0.008913230    0.008126392   -0.001277192
      4        9           0.001150329   -0.000115428    0.000103882
      5       16           0.010154067   -0.019502298    0.013635706
      6        8          -0.022735537    0.018768957   -0.013522227
      7        8           0.018213430   -0.002220096    0.001923646
      8        8          -0.015604195   -0.003112030    0.000438655
      9        9          -0.000628050    0.000912187    0.000030648
     10        9          -0.000335182    0.000200911   -0.000202519
     11        9          -0.001322942    0.000357080   -0.000392604
     12        1          -0.000266764   -0.001868139   -0.001133960
 -------------------------------------------------------------------
 Cartesian Forces:  Max     0.022735537 RMS     0.008308008
 Force constants in Cartesian coordinates: 
                1             2             3             4             5 
      1  0.496417D+00
      2 -0.620606D-02  0.533552D+00
      3 -0.130764D-01 -0.277678D-01  0.560953D+00
      4 -0.445124D-01  0.507414D-02  0.112762D-01  0.146565D+00
      5 -0.384383D-02 -0.824897D-01  0.677663D-01 -0.962123D-01  0.522125D+00
      6 -0.583592D-02  0.336191D-01 -0.170555D+00 -0.122933D+00 -0.243873D-02
      7  0.390822D-03  0.000000D+00 -0.466216D-03  0.119956D-02  0.235473D-02
      8 -0.395468D-03 -0.378490D-03 -0.311625D-02 -0.674697D-03 -0.117450D-02
      9 -0.382607D-03  0.363331D-04  0.000000D+00 -0.105039D-02 -0.103686D-02
     10 -0.350399D-02  0.719570D-02 -0.119697D-02 -0.259807D-01  0.463482D-01
     11  0.100505D-01 -0.425888D-01 -0.104824D-01  0.516183D-01 -0.326286D+00
     12 -0.516723D-02  0.301094D-01  0.680266D-03  0.166123D-01 -0.631224D-02
     13 -0.858406D-02 -0.177081D-01  0.208054D-01 -0.614686D-01  0.601477D-01
     14 -0.829505D-02  0.369330D-01 -0.152249D-01  0.317094D-01 -0.928166D-01
     15  0.284288D-01  0.120929D-02 -0.409012D-01  0.832846D-01 -0.804634D-01
     16 -0.518064D-02  0.617660D-02 -0.190173D-01  0.409101D-02 -0.243717D-01
     17  0.257586D-02 -0.227815D-02  0.792487D-02  0.498419D-02  0.126752D-01
     18  0.555125D-03 -0.287682D-02  0.891571D-02  0.585307D-02  0.107066D-01
     19  0.329573D-02  0.673032D-02 -0.175659D-02 -0.294648D-02 -0.707456D-02
     20  0.456971D-02 -0.148252D-02 -0.126248D-02 -0.455431D-02 -0.259871D-03
     21 -0.469182D-04 -0.906196D-02  0.127386D-01 -0.426011D-04  0.300996D-01
     22 -0.121110D-02 -0.282028D-02 -0.653316D-03 -0.894820D-02  0.154025D-01
     23 -0.116312D-02 -0.175400D-01  0.885777D-02  0.258325D-02 -0.103053D-01
     24 -0.105425D-02  0.992024D-02  0.978538D-03 -0.579798D-02 -0.198606D-01
     25 -0.730811D-01  0.113165D-01  0.186197D-02  0.713147D-02  0.368084D-02
     26  0.105803D-01 -0.255779D+00  0.234146D-01  0.616697D-02 -0.350897D-01
     27 -0.227741D-02  0.258614D-01 -0.839450D-01 -0.387830D-02  0.306211D-01
     28 -0.207940D+00  0.255975D-01  0.846171D-01 -0.150762D-01  0.973536D-02
     29  0.297152D-01 -0.810230D-01 -0.132730D-01 -0.241970D-02  0.603047D-02
     30  0.871367D-01 -0.156382D-01 -0.131432D+00  0.396088D-01 -0.993124D-02
     31 -0.158274D+00 -0.364559D-01 -0.802422D-01  0.152158D-02 -0.748330D-02
     32 -0.374903D-01 -0.886588D-01 -0.322493D-01  0.215217D-02  0.668997D-02
     33 -0.875845D-01 -0.346512D-01 -0.157086D+00 -0.234767D-01 -0.190816D-01
     34  0.218451D-02  0.109965D-02 -0.215183D-02 -0.157651D-02  0.131640D-02
     35 -0.977165D-04  0.173277D-02 -0.458740D-02 -0.427473D-03  0.901451D-03
     36 -0.695423D-03 -0.107597D-01 -0.346531D-03  0.544213D-03 -0.688584D-04
                6             7             8             9            10 
      6  0.542976D+00
      7 -0.219770D-03  0.703047D-01
      8  0.101424D-02  0.897725D-01  0.282831D+00
      9  0.654409D-04 -0.500367D-02 -0.319215D-01  0.788304D-02
     10  0.373782D-02 -0.168808D-02 -0.154779D-02  0.123765D-02  0.376205D-01
     11  0.212977D-02  0.765207D-03  0.345747D-02 -0.403481D-03 -0.795934D-01
     12 -0.561716D-01  0.432181D-03  0.197906D-03  0.282451D-04 -0.159951D-01
     13  0.108581D+00 -0.579280D-02  0.273438D-02  0.664212D-03 -0.150132D-01
     14 -0.437554D-01 -0.349940D-01 -0.184747D-01 -0.199482D-03  0.324401D-01
     15 -0.225166D+00  0.106011D-02  0.411296D-02 -0.616394D-02  0.884557D-02
     16 -0.169793D-02 -0.575112D-01 -0.893963D-01  0.706042D-02 -0.149440D-02
     17 -0.249739D-02 -0.546401D-01 -0.275514D+00  0.358360D-01 -0.987219D-03
     18  0.385980D-02  0.230117D-02  0.301111D-01 -0.519821D-02  0.901091D-03
     19  0.211028D-01 -0.158493D-02  0.398724D-03 -0.144321D-02 -0.113375D-02
     20  0.137918D-02 -0.228076D-02  0.596881D-02 -0.133127D-02 -0.735767D-03
     21 -0.259660D-01  0.857920D-03 -0.309107D-02  0.160806D-02 -0.229380D-02
     22  0.967041D-03 -0.599110D-02 -0.180327D-02 -0.127356D-02  0.630185D-02
     23  0.139690D-02 -0.596676D-03  0.143345D-02 -0.627004D-03  0.615083D-03
     24  0.139593D-01  0.131994D-02  0.573144D-03  0.101911D-02  0.341356D-02
     25 -0.453405D-02  0.633238D-04  0.336061D-04  0.138041D-04  0.246292D-02
     26  0.444474D-02  0.130127D-03  0.193699D-03 -0.896488D-04 -0.118943D-02
     27  0.606298D-02  0.308320D-03  0.505145D-03 -0.370464D-04  0.915827D-03
     28  0.232313D-01  0.260940D-04 -0.305930D-03  0.167022D-04  0.162354D-02
     29  0.131891D-02  0.503458D-04  0.187758D-03 -0.337627D-04 -0.200999D-02
     30 -0.331003D-01 -0.993218D-04  0.794656D-03  0.851705D-04 -0.158817D-02
     31 -0.227058D-01  0.306768D-03  0.768674D-03 -0.821558D-04  0.108697D-02
     32  0.396532D-02  0.316102D-04  0.356521D-03  0.705816D-05 -0.148904D-02
     33 -0.533791D-01  0.503925D-03  0.126597D-02 -0.110413D-03  0.113575D-02
     34  0.306689D-03  0.276858D-03  0.415548D-03  0.242806D-03 -0.281647D-03
     35 -0.576720D-03 -0.592878D-03  0.111269D-02 -0.236388D-03  0.953514D-03
     36 -0.258517D-02 -0.994590D-03 -0.446270D-03  0.820776D-03  0.886780D-03
               11            12            13            14            15 
     11  0.401355D+00
     12 -0.187230D-03  0.574555D-01
     13 -0.813398D-03 -0.219433D-02  0.429425D+00
     14 -0.415178D-01 -0.256660D-01 -0.783370D-01  0.686237D+00
     15  0.167592D-01 -0.105944D-02 -0.561828D-01 -0.179337D+00  0.868790D+00
     16  0.158460D-01 -0.121174D-02 -0.153912D+00  0.417139D-01 -0.127936D-01
     17 -0.530760D-02  0.549018D-03  0.186549D-01 -0.465907D-01 -0.303267D-02
     18 -0.825009D-02  0.126248D-02  0.190531D-01  0.425597D-02 -0.340523D-01
     19 -0.132556D-02  0.365293D-03 -0.829451D-01  0.379181D-01 -0.637520D-01
     20  0.919081D-02 -0.196149D-02  0.480449D-01 -0.200980D+00  0.230820D+00
     21 -0.724813D-02  0.210105D-02 -0.780972D-01  0.244896D+00 -0.518907D+00
     22  0.321167D-02  0.542442D-02 -0.899858D-01 -0.233565D-01  0.943410D-02
     23 -0.760865D-02 -0.629952D-02  0.256971D-02 -0.274464D+00  0.409922D-02
     24 -0.390352D-02 -0.432874D-02  0.181493D-01  0.753327D-03 -0.634023D-01
     25 -0.226159D-03  0.884931D-03 -0.220258D-02  0.339868D-02 -0.251221D-03
     26 -0.292622D-02  0.738579D-02  0.403668D-02 -0.161120D-01 -0.526714D-02
     27  0.715230D-02 -0.516614D-02 -0.304497D-02 -0.341828D-02  0.256291D-02
     28 -0.309184D-02 -0.203244D-02  0.632790D-03 -0.265290D-02 -0.138582D-02
     29  0.455180D-02  0.156884D-02  0.397426D-03 -0.365619D-02  0.214139D-02
     30  0.108748D-02  0.149714D-02 -0.138681D-03  0.949746D-02  0.221098D-02
     31  0.115347D-02  0.169842D-02 -0.116995D-01  0.275884D-02  0.407677D-02
     32  0.514001D-02 -0.101673D-02  0.361306D-03 -0.317774D-02  0.494191D-03
     33  0.359931D-02  0.366690D-02 -0.230658D-01  0.782319D-02  0.138501D-01
     34  0.240518D-02  0.118326D-02  0.154520D-02 -0.230355D-02 -0.764511D-03
     35  0.253957D-02  0.163219D-02 -0.400885D-01 -0.253806D-01  0.846395D-02
     36 -0.253195D-03  0.343740D-04 -0.452930D-02  0.375097D-03  0.223812D-02
               16            17            18            19            20 
     16  0.227441D+00
     17  0.416730D-01  0.326945D+00
     18  0.176425D-01 -0.468938D-01  0.378181D-01
     19 -0.272499D-01  0.179062D-01 -0.429142D-01  0.978298D-01
     20  0.702219D-02 -0.123396D-03  0.137763D-01 -0.535407D-01  0.191708D+00
     21 -0.562347D-02  0.122685D-01 -0.874523D-02  0.845371D-01 -0.267407D+00
     22  0.956141D-02 -0.300343D-01 -0.353634D-02  0.133706D-01 -0.167798D-02
     23  0.178276D-02 -0.682142D-02 -0.178554D-02 -0.228369D-02 -0.547177D-02
     24 -0.824337D-03  0.261630D-02  0.267812D-02 -0.258027D-03  0.219714D-01
     25  0.137172D-02 -0.398320D-03 -0.512717D-03  0.239855D-03 -0.474825D-03
     26 -0.441652D-02  0.175427D-02  0.229343D-02 -0.711033D-03  0.143481D-02
     27  0.205446D-02 -0.547323D-03 -0.703151D-03  0.144605D-03  0.815149D-03
     28 -0.612405D-03  0.617865D-03  0.490317D-03 -0.376663D-03 -0.101041D-03
     29 -0.161757D-03  0.218797D-04 -0.793664D-04 -0.413472D-03  0.701871D-03
     30  0.476766D-02 -0.256084D-02 -0.223309D-02 -0.410100D-03 -0.100050D-02
     31  0.347312D-02 -0.110034D-02 -0.816763D-03  0.249977D-02  0.633340D-03
     32  0.350258D-03 -0.313214D-03 -0.795893D-04 -0.388029D-03  0.279706D-03
     33  0.634105D-02 -0.207704D-02 -0.204025D-02  0.477071D-02  0.194121D-02
     34  0.215907D-04  0.748267D-03  0.983708D-03 -0.999000D-03  0.309523D-02
     35  0.378166D-02 -0.444827D-02 -0.117811D-02  0.278375D-02 -0.966759D-03
     36  0.330235D-02 -0.158570D-02 -0.156204D-02 -0.386408D-03  0.225991D-02
               21            22            23            24            25 
     21  0.540066D+00
     22  0.231039D-02  0.535811D+00
     23 -0.407009D-02  0.144542D+00  0.366746D+00
     24  0.104590D-01 -0.110123D+00 -0.231626D-01  0.661825D-01
     25 -0.369751D-03  0.306943D-03 -0.102576D-02  0.388762D-02  0.809828D-01
     26  0.289716D-02  0.168640D-02  0.100199D-01 -0.518796D-02 -0.271700D-01
     27 -0.115793D-02  0.255187D-02  0.723712D-03 -0.105020D-01 -0.720974D-04
     28  0.271270D-02  0.706990D-04  0.566507D-03  0.119655D-02 -0.160404D-01
     29  0.406743D-03  0.336519D-03  0.180531D-02 -0.121518D-02  0.526943D-01
     30 -0.434444D-02 -0.234056D-03 -0.233599D-02 -0.312007D-03  0.105370D-01
     31 -0.235935D-02  0.120159D-02 -0.114107D-02 -0.411766D-03 -0.167410D-03
     32  0.129660D-03  0.718006D-03  0.215500D-02 -0.122973D-02 -0.416501D-01
     33 -0.558324D-02  0.119975D-02 -0.455274D-02  0.290151D-03 -0.115793D-01
     34 -0.158506D-02 -0.460488D+00 -0.146449D+00  0.905021D-01 -0.106759D-02
     35  0.181028D-03 -0.106205D+00 -0.599485D-01  0.187252D-01 -0.178718D-03
     36 -0.226931D-02  0.939324D-01  0.277559D-01 -0.170217D-01  0.133825D-03
               26            27            28            29            30 
     26  0.388070D+00
     27  0.862024D-02  0.837391D-01
     28  0.400554D-01  0.140777D-01  0.326713D+00
     29 -0.378472D-01 -0.296377D-01 -0.662940D-01  0.954044D-01
     30 -0.183701D-01  0.783114D-02 -0.120155D+00  0.363621D-01  0.140008D+00
     31 -0.287854D-01 -0.124050D-01 -0.880713D-01 -0.119161D-01 -0.202171D-01
     32 -0.520556D-01 -0.415692D-01 -0.363682D-02  0.140677D-01  0.117672D-02
     33 -0.255910D-01  0.141864D-02 -0.197999D-02  0.128027D-02  0.196457D-01
     34 -0.383443D-03  0.162505D-02 -0.948875D-03  0.212707D-04  0.792194D-03
     35 -0.166274D-02  0.873478D-03 -0.490140D-03 -0.244821D-03  0.918457D-03
     36  0.544990D-02 -0.103424D-03 -0.789217D-03  0.116071D-02  0.144000D-03
               31            32            33            34            35 
     31  0.248120D+00
     32  0.811865D-01  0.115773D+00
     33  0.132982D+00  0.687504D-01  0.179789D+00
     34  0.258961D-05 -0.145500D-03  0.752642D-03  0.461331D+00
     35  0.381336D-03 -0.256279D-03  0.129332D-02  0.140180D+00  0.866215D-01
     36  0.482454D-03  0.162127D-02 -0.461333D-03 -0.918871D-01 -0.255090D-01
               36 
     36  0.211122D-01
 FormGI is forming the generalized inverse of G from B-inverse, IUseBI=4.
 Leave Link  716 at Fri May 23 05:16:35 2025, MaxMem=  3758096384 cpu:               0.1 elap:               0.0
 (Enter /apps/easybuild-2022/easybuild/software/Compiler/NVHPC/22.11-CUDA-11.7.0/Gaussian/g16c01-CUDA-11.7.0/g16/l103.exe)

 GradGradGradGradGradGradGradGradGradGradGradGradGradGradGradGradGradGrad
 Berny optimization.
 Red2BG is reusing G-inverse.
 Internal  Forces:  Max     0.024713951 RMS     0.008028737
 Search for a local minimum.
 Step number   1 out of a maximum of   56
 All quantities printed in internal units (Hartrees-Bohrs-Radians)
 RMS Force = .80287D-02 SwitMx=.10000D-02 MixMth= 1
 Mixed Optimization -- RFO/linear search
 Second derivative matrix not updated -- analytic derivatives used.
 ITU=  0
     Eigenvalues ---   -0.00058   0.00174   0.00200   0.00596   0.01267
     Eigenvalues ---    0.06937   0.09358   0.10390   0.11906   0.12352
     Eigenvalues ---    0.13123   0.14711   0.17353   0.18860   0.20937
     Eigenvalues ---    0.23469   0.23945   0.25415   0.26222   0.29400
     Eigenvalues ---    0.34083   0.35627   0.37147   0.37609   0.39002
     Eigenvalues ---    0.44443   0.47823   0.52904   0.54258   0.70485
 Eigenvalue     1 is  -5.77D-04 should be greater than     0.000000 Eigenvector:
                          D13       D14       D15       D17       D16
   1                    0.50939   0.50662   0.50148   0.24583   0.23658
                          D18       D6        D2        D4        A16
   1                    0.23276   0.09513   0.09221   0.08526   0.07595
 RFO step:  Lambda=-1.52135327D-02 EMin=-5.77373804D-04
 Linear search not attempted -- first point.
 Iteration  1 RMS(Cart)=  0.17488828 RMS(Int)=  0.08352914
 Iteration  2 RMS(Cart)=  0.07768987 RMS(Int)=  0.03099326
 Iteration  3 RMS(Cart)=  0.03995261 RMS(Int)=  0.00259999
 Iteration  4 RMS(Cart)=  0.00217329 RMS(Int)=  0.00107098
 Iteration  5 RMS(Cart)=  0.00000417 RMS(Int)=  0.00107098
 Iteration  6 RMS(Cart)=  0.00000000 RMS(Int)=  0.00107098
 ITry= 1 IFail=0 DXMaxC= 1.29D+00 DCOld= 1.00D+10 DXMaxT= 3.00D-01 DXLimC= 3.00D+00 Rises=F
 Variable       Old X    -DE/DX   Delta X   Delta X   Delta X     New X
                                 (Linear)    (Quad)   (Total)
    R1        2.83786  -0.00128   0.00000  -0.00320  -0.00320   2.83466
    R2        2.53731   0.00096   0.00000  -0.00740  -0.00740   2.52991
    R3        2.52424  -0.00025   0.00000   0.00183   0.00183   2.52607
    R4        2.52912   0.00107   0.00000   0.00448   0.00448   2.53360
    R5        2.54791   0.00030   0.00000  -0.00602  -0.00602   2.54190
    R6        3.09857   0.00087   0.00000  -0.00546  -0.00546   3.09310
    R7        2.66210  -0.01047   0.00000  -0.01068  -0.01068   2.65142
    R8        3.23134   0.01382   0.00000   0.03047   0.03047   3.26181
    R9        2.70291   0.00528   0.00000   0.00311   0.00311   2.70602
   R10        2.98651  -0.00604   0.00000  -0.01007  -0.01007   2.97644
   R11        1.82729  -0.00058   0.00000  -0.00086  -0.00086   1.82643
    A1        1.94905  -0.00042   0.00000   0.00121   0.00118   1.95023
    A2        1.89821   0.00100   0.00000   0.00797   0.00796   1.90617
    A3        1.98304  -0.00013   0.00000  -0.01217  -0.01217   1.97087
    A4        1.88505   0.00006   0.00000   0.00382   0.00379   1.88884
    A5        1.87643  -0.00061   0.00000   0.00036   0.00033   1.87677
    A6        1.86810   0.00011   0.00000  -0.00063  -0.00061   1.86749
    A7        1.96561   0.00079   0.00000   0.00934   0.00932   1.97494
    A8        2.19319  -0.00319   0.00000  -0.02361  -0.02362   2.16958
    A9        1.98176   0.00190   0.00000   0.02531   0.02532   2.00707
   A10        2.18089  -0.00261   0.00000  -0.01094  -0.01262   2.16827
   A11        2.01555  -0.01355   0.00000  -0.01962  -0.02104   1.99452
   A12        1.84630   0.01345   0.00000   0.03428   0.03197   1.87828
   A13        1.71168   0.02404   0.00000   0.11558   0.11538   1.82706
   A14        1.63819  -0.02471   0.00000  -0.15957  -0.16005   1.47814
   A15        2.05391   0.00132   0.00000   0.01780   0.02029   2.07420
   A16        1.86933  -0.01625   0.00000  -0.13064  -0.13064   1.73869
   A17        1.93031  -0.00328   0.00000  -0.01323  -0.01323   1.91707
    D1       -3.05070  -0.00045   0.00000  -0.05051  -0.05053  -3.10123
    D2        0.67959  -0.00034   0.00000  -0.08106  -0.08104   0.59855
    D3       -0.97211   0.00001   0.00000  -0.03992  -0.03992  -1.01203
    D4        2.75818   0.00012   0.00000  -0.07047  -0.07043   2.68775
    D5        1.10642   0.00076   0.00000  -0.04291  -0.04295   1.06347
    D6       -1.44648   0.00087   0.00000  -0.07346  -0.07346  -1.51994
    D7        1.06693  -0.01536   0.00000  -0.23315  -0.23299   0.83394
    D8       -3.09513   0.00474   0.00000  -0.08433  -0.08461   3.10344
    D9       -0.79079   0.00762   0.00000  -0.04505  -0.04488  -0.83568
   D10       -1.48135  -0.01491   0.00000  -0.25919  -0.25906  -1.74041
   D11        0.63977   0.00518   0.00000  -0.11037  -0.11068   0.52909
   D12        2.94411   0.00807   0.00000  -0.07109  -0.07095   2.87316
   D13        1.29040   0.00175   0.00000  -0.45650  -0.45713   0.83327
   D14       -0.96109  -0.00129   0.00000  -0.53746  -0.54123  -1.50232
   D15       -3.03235  -0.00144   0.00000  -0.54183  -0.53743   2.71341
   D16       -0.70570  -0.00055   0.00000  -0.22307  -0.22227  -0.92797
   D17       -2.93994   0.00832   0.00000  -0.15605  -0.15717  -3.09711
   D18        1.57687  -0.00582   0.00000  -0.20369  -0.20338   1.37349
         Item               Value     Threshold  Converged?
 Maximum Force            0.024714     0.000015     NO 
 RMS     Force            0.008029     0.000010     NO 
 Maximum Displacement     1.289411     0.000060     NO 
 RMS     Displacement     0.271831     0.000040     NO 
 Predicted change in Energy=-1.041056D-02
 Lowest energy point so far.  Saving SCF results.
 GradGradGradGradGradGradGradGradGradGradGradGradGradGradGradGradGradGrad

 Leave Link  103 at Fri May 23 05:16:35 2025, MaxMem=  3758096384 cpu:               0.1 elap:               0.0
 (Enter /apps/easybuild-2022/easybuild/software/Compiler/NVHPC/22.11-CUDA-11.7.0/Gaussian/g16c01-CUDA-11.7.0/g16/l202.exe)
                          Input orientation:                          
 ---------------------------------------------------------------------
 Center     Atomic      Atomic             Coordinates (Angstroms)
 Number     Number       Type             X           Y           Z
 ---------------------------------------------------------------------
      1          6           0        2.552579   -0.002824   -2.595173
      2          6           0        2.681457   -0.535482   -1.198829
      3          9           0       -0.288241   -1.055331   -0.535532
      4          9           0        3.029371   -1.834185   -1.158138
      5         16           0        1.788623   -0.018475    0.071866
      6          8           0        0.073400    0.172142    0.039917
      7          8           0        2.054297   -0.709002    1.297883
      8          8           0        1.817107    1.556316    0.065200
      9          9           0        2.254557    1.302336   -2.602487
     10          9           0        3.712138   -0.170424   -3.238758
     11          9           0        1.612015   -0.635856   -3.310816
     12          1           0        2.731711    1.867753    0.039919
 ---------------------------------------------------------------------
                    Distance matrix (angstroms):
                    1          2          3          4          5
     1  C    0.000000
     2  C    1.500036   0.000000
     3  F    3.663352   3.086959   0.000000
     4  F    2.376191   1.345113   3.464218   0.000000
     5  S    2.774341   1.636800   2.399451   2.519756   0.000000
     6  O    3.622242   2.972740   1.403073   3.768083   1.726078
     7  O    3.987838   2.580118   2.994801   2.872081   1.431966
     8  O    3.170082   2.592391   3.407942   3.802846   1.575063
     9  F    1.338773   2.351611   4.036919   3.538961   3.018907
    10  F    1.336739   2.314493   4.908515   2.750136   3.831870
    11  F    1.340722   2.369446   3.389562   2.842344   3.443093
    12  H    3.236488   2.704174   4.242131   3.902344   2.109098
                    6          7          8          9         10
     6  O    0.000000
     7  O    2.506560   0.000000
     8  O    2.226453   2.589871   0.000000
     9  F    3.607919   4.393002   2.715220   0.000000
    10  F    4.909936   4.860001   4.181975   2.167581   0.000000
    11  F    3.774600   4.630450   4.030529   2.161291   2.152287
    12  H    3.153049   2.946358   0.966505   2.744027   3.983105
                   11         12
    11  F    0.000000
    12  H    4.330035   0.000000
 Symmetry turned off by external request.
 Stoichiometry    C2HF5O3S
 Rotational constants (GHZ):           1.4574228           0.7427915           0.7337615
 Leave Link  202 at Fri May 23 05:16:35 2025, MaxMem=  3758096384 cpu:               0.1 elap:               0.0
 (Enter /apps/easybuild-2022/easybuild/software/Compiler/NVHPC/22.11-CUDA-11.7.0/Gaussian/g16c01-CUDA-11.7.0/g16/l301.exe)
 Standard basis: 6-311++G(d,p) (5D, 7F)
 Ernie: Thresh=  0.10000D-02 Tol=  0.10000D-05 Strict=F.
   257 basis functions,   419 primitive gaussians,   268 cartesian basis functions
    49 alpha electrons       49 beta electrons
       nuclear repulsion energy       899.7346247774 Hartrees.
 IExCor= 4639 DFT=T Ex+Corr=wB97XD ExCW=0 ScaHFX=  1.000000
 ScaDFX=  1.000000  1.000000  1.000000  1.000000 ScalE2=  1.000000  1.000000
 IRadAn=      5 IRanWt=     -1 IRanGd=            0 ICorTp=0 IEmpDi=121
 HFx  wShort=  0.000000 wLong=  0.200000 cFull=  0.222036 cShort=  0.000000 cLong=  0.777964
 DFx  wShort=  0.000000 wLong=  0.200000 cFull=  0.000000 cShort=  0.000000 cLong=  1.000000
 NAtoms=   12 NActive=   12 NUniq=   12 SFac= 1.00D+00 NAtFMM=   60 NAOKFM=F Big=F
 Integral buffers will be    131072 words long.
 Raffenetti 2 integral format.
 Two-electron integral symmetry is turned off.
 R6Disp:  Grimme-D2 Dispersion energy=       -0.0055242821 Hartrees.
 Nuclear repulsion after empirical dispersion term =      899.7291004952 Hartrees.
 Leave Link  301 at Fri May 23 05:16:35 2025, MaxMem=  3758096384 cpu:               0.0 elap:               0.0
 (Enter /apps/easybuild-2022/easybuild/software/Compiler/NVHPC/22.11-CUDA-11.7.0/Gaussian/g16c01-CUDA-11.7.0/g16/l302.exe)
 NPDir=0 NMtPBC=     1 NCelOv=     1 NCel=       1 NClECP=     1 NCelD=      1
         NCelK=      1 NCelE2=     1 NClLst=     1 CellRange=     0.0.
 One-electron integrals computed using PRISM.
 NBasis=   257 RedAO= T EigKep=  6.51D-05  NBF=   257
 NBsUse=   257 1.00D-06 EigRej= -1.00D+00 NBFU=   257
 Precomputing XC quadrature grid using
 IXCGrd= 4 IRadAn=           5 IRanWt=          -1 IRanGd=           0 AccXCQ= 0.00D+00.
 Generated NRdTot=       0 NPtTot=           0 NUsed=           0 NTot=          32
 NSgBfM=   268   268   268   268   268 MxSgAt=    12 MxSgA2=    12.
 Leave Link  302 at Fri May 23 05:16:35 2025, MaxMem=  3758096384 cpu:               1.2 elap:               0.3
 (Enter /apps/easybuild-2022/easybuild/software/Compiler/NVHPC/22.11-CUDA-11.7.0/Gaussian/g16c01-CUDA-11.7.0/g16/l303.exe)
 DipDrv:  MaxL=1.
 Leave Link  303 at Fri May 23 05:16:35 2025, MaxMem=  3758096384 cpu:               0.2 elap:               0.1
 (Enter /apps/easybuild-2022/easybuild/software/Compiler/NVHPC/22.11-CUDA-11.7.0/Gaussian/g16c01-CUDA-11.7.0/g16/l401.exe)
 Initial guess from the checkpoint file:  "/tmp/Gau-127665.chk"
 B after Tr=     0.015069    0.000866   -0.023263
         Rot=    0.999978    0.005625   -0.001642   -0.003021 Ang=   0.76 deg.
 Guess basis will be translated and rotated to current coordinates.
 JPrj=2 DoOrth=T DoCkMO=T.
 Generating alternative initial guess.
 ExpMin= 3.60D-02 ExpMax= 9.34D+04 ExpMxC= 3.17D+03 IAcc=3 IRadAn=         5 AccDes= 0.00D+00
 Harris functional with IExCor= 4639 and IRadAn=       5 diagonalized for initial guess.
 HarFok:  IExCor= 4639 AccDes= 0.00D+00 IRadAn=         5 IDoV= 1 UseB2=F ITyADJ=14
 ICtDFT=  3500011 ScaDFX=  1.000000  1.000000  1.000000  1.000000
 FoFCou: FMM=F IPFlag=           0 FMFlag=      100000 FMFlg1=           0
         NFxFlg=           0 DoJE=T BraDBF=F KetDBF=T FulRan=T
         wScrn=  0.000000 ICntrl=       500 IOpCl=  0 I1Cent=   200000004 NGrid=           0
         NMat0=    1 NMatS0=      1 NMatT0=    0 NMatD0=    1 NMtDS0=    0 NMtDT0=    0
 Symmetry not used in FoFCou.
 Harris En= -1166.96999354313    
 Leave Link  401 at Fri May 23 05:16:36 2025, MaxMem=  3758096384 cpu:               2.9 elap:               0.5
 (Enter /apps/easybuild-2022/easybuild/software/Compiler/NVHPC/22.11-CUDA-11.7.0/Gaussian/g16c01-CUDA-11.7.0/g16/l502.exe)
 Keep R1 ints in memory in canonical form, NReq=1117474609.
 FoFCou: FMM=F IPFlag=           0 FMFlag=           0 FMFlg1=           0
         NFxFlg=           0 DoJE=F BraDBF=F KetDBF=F FulRan=T
         wScrn=  0.000000 ICntrl=       600 IOpCl=  0 I1Cent=           0 NGrid=           0
         NMat0=    1 NMatS0=  33153 NMatT0=    0 NMatD0=    1 NMtDS0=    0 NMtDT0=    0
 Symmetry not used in FoFCou.
 Two-electron integral symmetry not used.
 Closed shell SCF:
 Using DIIS extrapolation, IDIIS=  1040.
 NGot=  3758096384 LenX=  2658793876 LenY=  2658721611
 Requested convergence on RMS density matrix=1.00D-08 within  32 cycles.
 Requested convergence on MAX density matrix=1.00D-06.
 Requested convergence on             energy=1.00D-06.
 No special actions if energy rises.

 Cycle   1  Pass 1  IDiag  1:
 E= -1199.39219297041    
 DIIS: error= 1.84D-02 at cycle   1 NSaved=   1.
 NSaved= 1 IEnMin= 1 EnMin= -1199.39219297041     IErMin= 1 ErrMin= 1.84D-02
 ErrMax= 1.84D-02  0.00D+00 EMaxC= 1.00D-01 BMatC= 1.13D-01 BMatP= 1.13D-01
 IDIUse=3 WtCom= 8.16D-01 WtEn= 1.84D-01
 Coeff-Com:  0.100D+01
 Coeff-En:   0.100D+01
 Coeff:      0.100D+01
 Recover alternate guess density for next cycle.
 RMSDP=1.14D-02 MaxDP=9.65D-01              OVMax= 0.00D+00

 Cycle   2  Pass 1  IDiag  1:
 E= -1198.84311908144     Delta-E=        0.549073888966 Rises=F Damp=F
 Switch densities from cycles 1 and 2 for lowest energy.
 DIIS: error= 7.38D-02 at cycle   2 NSaved=   2.
 NSaved= 2 IEnMin= 1 EnMin= -1199.39219297041     IErMin= 1 ErrMin= 1.84D-02
 ErrMax= 7.38D-02  0.00D+00 EMaxC= 1.00D+00 BMatC= 3.47D+00 BMatP= 1.13D-01
 IDIUse=1 WtCom= 1.00D+00 WtEn= 0.00D+00
 Coeff-Com:  0.962D+00 0.375D-01
 Coeff:      0.962D+00 0.375D-01
 Gap=     0.386 Goal=   None    Shift=    0.000
 RMSDP=4.33D-03 MaxDP=8.81D-02 DE= 5.49D-01 OVMax= 1.56D-01

 Cycle   3  Pass 1  IDiag  1:
 E= -1199.58055902114     Delta-E=       -0.737439939699 Rises=F Damp=F
 DIIS: error= 5.48D-03 at cycle   3 NSaved=   3.
 NSaved= 3 IEnMin= 3 EnMin= -1199.58055902114     IErMin= 3 ErrMin= 5.48D-03
 ErrMax= 5.48D-03  0.00D+00 EMaxC= 1.00D+00 BMatC= 9.02D-03 BMatP= 1.13D-01
 IDIUse=1 WtCom= 1.00D+00 WtEn= 0.00D+00
 Coeff-Com: -0.637D-01 0.329D-02 0.106D+01
 Coeff:     -0.637D-01 0.329D-02 0.106D+01
 Gap=     0.326 Goal=   None    Shift=    0.000
 RMSDP=9.92D-04 MaxDP=2.77D-02 DE=-7.37D-01 OVMax= 6.86D-02

 Cycle   4  Pass 1  IDiag  1:
 E= -1199.59885747343     Delta-E=       -0.018298452288 Rises=F Damp=F
 DIIS: error= 4.38D-03 at cycle   4 NSaved=   4.
 NSaved= 4 IEnMin= 4 EnMin= -1199.59885747343     IErMin= 4 ErrMin= 4.38D-03
 ErrMax= 4.38D-03  0.00D+00 EMaxC= 1.00D+00 BMatC= 6.25D-03 BMatP= 9.02D-03
 IDIUse=1 WtCom= 1.00D+00 WtEn= 0.00D+00
 Coeff-Com: -0.947D-01 0.231D-02 0.506D+00 0.587D+00
 Coeff:     -0.947D-01 0.231D-02 0.506D+00 0.587D+00
 Gap=     0.354 Goal=   None    Shift=    0.000
 RMSDP=3.49D-04 MaxDP=1.09D-02 DE=-1.83D-02 OVMax= 2.32D-02

 Cycle   5  Pass 1  IDiag  1:
 E= -1199.60378609738     Delta-E=       -0.004928623955 Rises=F Damp=F
 DIIS: error= 1.70D-03 at cycle   5 NSaved=   5.
 NSaved= 5 IEnMin= 5 EnMin= -1199.60378609738     IErMin= 5 ErrMin= 1.70D-03
 ErrMax= 1.70D-03  0.00D+00 EMaxC= 1.00D+00 BMatC= 5.44D-04 BMatP= 6.25D-03
 IDIUse=1 WtCom= 1.00D+00 WtEn= 0.00D+00
 Coeff-Com: -0.174D-01 0.213D-03-0.244D-01 0.160D+00 0.882D+00
 Coeff:     -0.174D-01 0.213D-03-0.244D-01 0.160D+00 0.882D+00
 Gap=     0.358 Goal=   None    Shift=    0.000
 RMSDP=2.32D-04 MaxDP=1.20D-02 DE=-4.93D-03 OVMax= 1.32D-02

 Cycle   6  Pass 1  IDiag  1:
 E= -1199.60457076258     Delta-E=       -0.000784665198 Rises=F Damp=F
 DIIS: error= 1.28D-03 at cycle   6 NSaved=   6.
 NSaved= 6 IEnMin= 6 EnMin= -1199.60457076258     IErMin= 6 ErrMin= 1.28D-03
 ErrMax= 1.28D-03  0.00D+00 EMaxC= 1.00D+00 BMatC= 3.11D-04 BMatP= 5.44D-04
 IDIUse=1 WtCom= 1.00D+00 WtEn= 0.00D+00
 Coeff-Com:  0.963D-02-0.408D-03-0.130D+00-0.447D-01 0.552D+00 0.613D+00
 Coeff:      0.963D-02-0.408D-03-0.130D+00-0.447D-01 0.552D+00 0.613D+00
 Gap=     0.354 Goal=   None    Shift=    0.000
 RMSDP=1.33D-04 MaxDP=7.77D-03 DE=-7.85D-04 OVMax= 7.09D-03

 Cycle   7  Pass 1  IDiag  1:
 E= -1199.60487599059     Delta-E=       -0.000305228004 Rises=F Damp=F
 DIIS: error= 1.79D-04 at cycle   7 NSaved=   7.
 NSaved= 7 IEnMin= 7 EnMin= -1199.60487599059     IErMin= 7 ErrMin= 1.79D-04
 ErrMax= 1.79D-04  0.00D+00 EMaxC= 1.00D+00 BMatC= 9.60D-06 BMatP= 3.11D-04
 IDIUse=1 WtCom= 1.00D+00 WtEn= 0.00D+00
 Coeff-Com:  0.348D-02 0.102D-04-0.260D-01-0.258D-01 0.560D-01 0.164D+00
 Coeff-Com:  0.829D+00
 Coeff:      0.348D-02 0.102D-04-0.260D-01-0.258D-01 0.560D-01 0.164D+00
 Coeff:      0.829D+00
 Gap=     0.354 Goal=   None    Shift=    0.000
 RMSDP=4.43D-05 MaxDP=1.76D-03 DE=-3.05D-04 OVMax= 2.04D-03

 Cycle   8  Pass 1  IDiag  1:
 E= -1199.60488979935     Delta-E=       -0.000013808768 Rises=F Damp=F
 DIIS: error= 1.07D-04 at cycle   8 NSaved=   8.
 NSaved= 8 IEnMin= 8 EnMin= -1199.60488979935     IErMin= 8 ErrMin= 1.07D-04
 ErrMax= 1.07D-04  0.00D+00 EMaxC= 1.00D+00 BMatC= 4.20D-06 BMatP= 9.60D-06
 IDIUse=1 WtCom= 1.00D+00 WtEn= 0.00D+00
 Coeff-Com:  0.484D-03 0.503D-04 0.484D-02-0.786D-02-0.509D-01 0.413D-02
 Coeff-Com:  0.460D+00 0.589D+00
 Coeff:      0.484D-03 0.503D-04 0.484D-02-0.786D-02-0.509D-01 0.413D-02
 Coeff:      0.460D+00 0.589D+00
 Gap=     0.354 Goal=   None    Shift=    0.000
 RMSDP=1.99D-05 MaxDP=1.72D-03 DE=-1.38D-05 OVMax= 8.73D-04

 Cycle   9  Pass 1  IDiag  1:
 E= -1199.60489430902     Delta-E=       -0.000004509666 Rises=F Damp=F
 DIIS: error= 6.63D-05 at cycle   9 NSaved=   9.
 NSaved= 9 IEnMin= 9 EnMin= -1199.60489430902     IErMin= 9 ErrMin= 6.63D-05
 ErrMax= 6.63D-05  0.00D+00 EMaxC= 1.00D+00 BMatC= 4.49D-07 BMatP= 4.20D-06
 IDIUse=1 WtCom= 1.00D+00 WtEn= 0.00D+00
 Coeff-Com: -0.576D-03 0.575D-05 0.719D-02 0.310D-02-0.313D-01-0.345D-01
 Coeff-Com: -0.145D-01 0.221D+00 0.850D+00
 Coeff:     -0.576D-03 0.575D-05 0.719D-02 0.310D-02-0.313D-01-0.345D-01
 Coeff:     -0.145D-01 0.221D+00 0.850D+00
 Gap=     0.354 Goal=   None    Shift=    0.000
 RMSDP=1.04D-05 MaxDP=3.88D-04 DE=-4.51D-06 OVMax= 6.81D-04

 Cycle  10  Pass 1  IDiag  1:
 E= -1199.60489540701     Delta-E=       -0.000001097993 Rises=F Damp=F
 DIIS: error= 2.96D-05 at cycle  10 NSaved=  10.
 NSaved=10 IEnMin=10 EnMin= -1199.60489540701     IErMin=10 ErrMin= 2.96D-05
 ErrMax= 2.96D-05  0.00D+00 EMaxC= 1.00D+00 BMatC= 5.93D-08 BMatP= 4.49D-07
 IDIUse=1 WtCom= 1.00D+00 WtEn= 0.00D+00
 Coeff-Com: -0.183D-03-0.681D-05 0.507D-03 0.193D-02 0.262D-02-0.822D-02
 Coeff-Com: -0.838D-01-0.631D-01 0.183D+00 0.967D+00
 Coeff:     -0.183D-03-0.681D-05 0.507D-03 0.193D-02 0.262D-02-0.822D-02
 Coeff:     -0.838D-01-0.631D-01 0.183D+00 0.967D+00
 Gap=     0.354 Goal=   None    Shift=    0.000
 RMSDP=4.68D-06 MaxDP=1.04D-04 DE=-1.10D-06 OVMax= 3.68D-04

 Cycle  11  Pass 1  IDiag  1:
 E= -1199.60489561741     Delta-E=       -0.000000210400 Rises=F Damp=F
 DIIS: error= 9.94D-06 at cycle  11 NSaved=  11.
 NSaved=11 IEnMin=11 EnMin= -1199.60489561741     IErMin=11 ErrMin= 9.94D-06
 ErrMax= 9.94D-06  0.00D+00 EMaxC= 1.00D+00 BMatC= 1.38D-08 BMatP= 5.93D-08
 IDIUse=1 WtCom= 1.00D+00 WtEn= 0.00D+00
 Coeff-Com:  0.387D-04-0.266D-05-0.117D-02 0.176D-03 0.737D-02 0.322D-02
 Coeff-Com: -0.327D-01-0.694D-01-0.793D-01 0.388D+00 0.783D+00
 Coeff:      0.387D-04-0.266D-05-0.117D-02 0.176D-03 0.737D-02 0.322D-02
 Coeff:     -0.327D-01-0.694D-01-0.793D-01 0.388D+00 0.783D+00
 Gap=     0.354 Goal=   None    Shift=    0.000
 RMSDP=1.60D-06 MaxDP=5.47D-05 DE=-2.10D-07 OVMax= 1.30D-04

 Cycle  12  Pass 1  IDiag  1:
 E= -1199.60489564427     Delta-E=       -0.000000026861 Rises=F Damp=F
 DIIS: error= 2.94D-06 at cycle  12 NSaved=  12.
 NSaved=12 IEnMin=12 EnMin= -1199.60489564427     IErMin=12 ErrMin= 2.94D-06
 ErrMax= 2.94D-06  0.00D+00 EMaxC= 1.00D+00 BMatC= 1.85D-09 BMatP= 1.38D-08
 IDIUse=1 WtCom= 1.00D+00 WtEn= 0.00D+00
 Coeff-Com:  0.411D-04-0.384D-06-0.594D-03-0.198D-03 0.304D-02 0.274D-02
 Coeff-Com: -0.345D-02-0.220D-01-0.571D-01 0.375D-01 0.317D+00 0.723D+00
 Coeff:      0.411D-04-0.384D-06-0.594D-03-0.198D-03 0.304D-02 0.274D-02
 Coeff:     -0.345D-02-0.220D-01-0.571D-01 0.375D-01 0.317D+00 0.723D+00
 Gap=     0.354 Goal=   None    Shift=    0.000
 RMSDP=3.71D-07 MaxDP=7.70D-06 DE=-2.69D-08 OVMax= 3.08D-05

 Cycle  13  Pass 1  IDiag  1:
 E= -1199.60489564664     Delta-E=       -0.000000002363 Rises=F Damp=F
 DIIS: error= 7.30D-07 at cycle  13 NSaved=  13.
 NSaved=13 IEnMin=13 EnMin= -1199.60489564664     IErMin=13 ErrMin= 7.30D-07
 ErrMax= 7.30D-07  0.00D+00 EMaxC= 1.00D+00 BMatC= 1.24D-10 BMatP= 1.85D-09
 IDIUse=1 WtCom= 1.00D+00 WtEn= 0.00D+00
 Coeff-Com:  0.222D-05 0.234D-06 0.376D-04-0.688D-04-0.364D-03 0.190D-03
 Coeff-Com:  0.354D-02 0.534D-02 0.841D-03-0.461D-01-0.522D-01 0.140D+00
 Coeff-Com:  0.949D+00
 Coeff:      0.222D-05 0.234D-06 0.376D-04-0.688D-04-0.364D-03 0.190D-03
 Coeff:      0.354D-02 0.534D-02 0.841D-03-0.461D-01-0.522D-01 0.140D+00
 Coeff:      0.949D+00
 Gap=     0.354 Goal=   None    Shift=    0.000
 RMSDP=1.62D-07 MaxDP=7.04D-06 DE=-2.36D-09 OVMax= 8.91D-06

 Cycle  14  Pass 1  IDiag  1:
 E= -1199.60489564691     Delta-E=       -0.000000000276 Rises=F Damp=F
 DIIS: error= 1.94D-07 at cycle  14 NSaved=  14.
 NSaved=14 IEnMin=14 EnMin= -1199.60489564691     IErMin=14 ErrMin= 1.94D-07
 ErrMax= 1.94D-07  0.00D+00 EMaxC= 1.00D+00 BMatC= 1.36D-11 BMatP= 1.24D-10
 IDIUse=1 WtCom= 1.00D+00 WtEn= 0.00D+00
 Coeff-Com: -0.251D-05 0.117D-06 0.512D-04-0.197D-05-0.313D-03-0.161D-03
 Coeff-Com:  0.113D-02 0.303D-02 0.451D-02-0.142D-01-0.370D-01-0.125D-01
 Coeff-Com:  0.268D+00 0.787D+00
 Coeff:     -0.251D-05 0.117D-06 0.512D-04-0.197D-05-0.313D-03-0.161D-03
 Coeff:      0.113D-02 0.303D-02 0.451D-02-0.142D-01-0.370D-01-0.125D-01
 Coeff:      0.268D+00 0.787D+00
 Gap=     0.354 Goal=   None    Shift=    0.000
 RMSDP=5.04D-08 MaxDP=1.38D-06 DE=-2.76D-10 OVMax= 2.40D-06

 Cycle  15  Pass 1  IDiag  1:
 E= -1199.60489564698     Delta-E=       -0.000000000068 Rises=F Damp=F
 DIIS: error= 1.24D-07 at cycle  15 NSaved=  15.
 NSaved=15 IEnMin=15 EnMin= -1199.60489564698     IErMin=15 ErrMin= 1.24D-07
 ErrMax= 1.24D-07  0.00D+00 EMaxC= 1.00D+00 BMatC= 3.47D-12 BMatP= 1.36D-11
 IDIUse=1 WtCom= 1.00D+00 WtEn= 0.00D+00
 Coeff-Com: -0.107D-05-0.207D-07 0.128D-04 0.999D-05-0.633D-04-0.923D-04
 Coeff-Com: -0.120D-03 0.348D-03 0.160D-02 0.188D-02-0.667D-02-0.270D-01
 Coeff-Com: -0.357D-01 0.324D+00 0.742D+00
 Coeff:     -0.107D-05-0.207D-07 0.128D-04 0.999D-05-0.633D-04-0.923D-04
 Coeff:     -0.120D-03 0.348D-03 0.160D-02 0.188D-02-0.667D-02-0.270D-01
 Coeff:     -0.357D-01 0.324D+00 0.742D+00
 Gap=     0.354 Goal=   None    Shift=    0.000
 RMSDP=2.60D-08 MaxDP=7.68D-07 DE=-6.82D-11 OVMax= 1.34D-06

 Cycle  16  Pass 1  IDiag  1:
 E= -1199.60489564692     Delta-E=        0.000000000065 Rises=F Damp=F
 DIIS: error= 3.17D-08 at cycle  16 NSaved=  16.
 NSaved=16 IEnMin=15 EnMin= -1199.60489564698     IErMin=16 ErrMin= 3.17D-08
 ErrMax= 3.17D-08  0.00D+00 EMaxC= 1.00D+00 BMatC= 2.78D-13 BMatP= 3.47D-12
 IDIUse=1 WtCom= 1.00D+00 WtEn= 0.00D+00
 Coeff-Com:  0.317D-06-0.182D-07-0.743D-05 0.151D-05 0.476D-04 0.196D-04
 Coeff-Com: -0.206D-03-0.480D-03-0.627D-03 0.266D-02 0.547D-02-0.170D-02
 Coeff-Com: -0.545D-01-0.107D+00 0.107D+00 0.105D+01
 Coeff:      0.317D-06-0.182D-07-0.743D-05 0.151D-05 0.476D-04 0.196D-04
 Coeff:     -0.206D-03-0.480D-03-0.627D-03 0.266D-02 0.547D-02-0.170D-02
 Coeff:     -0.545D-01-0.107D+00 0.107D+00 0.105D+01
 Gap=     0.354 Goal=   None    Shift=    0.000
 RMSDP=1.62D-08 MaxDP=6.31D-07 DE= 6.55D-11 OVMax= 8.79D-07

 Cycle  17  Pass 1  IDiag  1:
 E= -1199.60489564690     Delta-E=        0.000000000015 Rises=F Damp=F
 DIIS: error= 7.46D-09 at cycle  17 NSaved=  17.
 NSaved=17 IEnMin=15 EnMin= -1199.60489564698     IErMin=17 ErrMin= 7.46D-09
 ErrMax= 7.46D-09  0.00D+00 EMaxC= 1.00D+00 BMatC= 4.12D-14 BMatP= 2.78D-13
 IDIUse=1 WtCom= 1.00D+00 WtEn= 0.00D+00
 Coeff-Com:  0.172D-06-0.288D-08-0.347D-05-0.860D-07 0.221D-04 0.133D-04
 Coeff-Com: -0.738D-04-0.204D-03-0.338D-03 0.939D-03 0.250D-02 0.107D-02
 Coeff-Com: -0.193D-01-0.610D-01-0.613D-02 0.411D+00 0.672D+00
 Coeff:      0.172D-06-0.288D-08-0.347D-05-0.860D-07 0.221D-04 0.133D-04
 Coeff:     -0.738D-04-0.204D-03-0.338D-03 0.939D-03 0.250D-02 0.107D-02
 Coeff:     -0.193D-01-0.610D-01-0.613D-02 0.411D+00 0.672D+00
 Gap=     0.354 Goal=   None    Shift=    0.000
 RMSDP=2.91D-09 MaxDP=9.76D-08 DE= 1.46D-11 OVMax= 1.52D-07

 SCF Done:  E(RwB97XD) =  -1199.60489565     A.U. after   17 cycles
            NFock= 17  Conv=0.29D-08     -V/T= 2.0019
 KE= 1.197324859454D+03 PE=-4.646288015575D+03 EE= 1.349629159979D+03
 Leave Link  502 at Fri May 23 05:16:54 2025, MaxMem=  3758096384 cpu:              82.7 elap:              18.2
 (Enter /apps/easybuild-2022/easybuild/software/Compiler/NVHPC/22.11-CUDA-11.7.0/Gaussian/g16c01-CUDA-11.7.0/g16/l508.exe)
 QCSCF skips out because SCF is already converged.
 Leave Link  508 at Fri May 23 05:16:54 2025, MaxMem=  3758096384 cpu:               0.1 elap:               0.0
 (Enter /apps/easybuild-2022/easybuild/software/Compiler/NVHPC/22.11-CUDA-11.7.0/Gaussian/g16c01-CUDA-11.7.0/g16/l701.exe)
 ... and contract with generalized density number  0.
 Compute integral first derivatives.
 R6Disp: Adding Grimme-D2 dispersion energy 1st derivatives to the gradient.
 Leave Link  701 at Fri May 23 05:16:54 2025, MaxMem=  3758096384 cpu:               0.4 elap:               0.1
 (Enter /apps/easybuild-2022/easybuild/software/Compiler/NVHPC/22.11-CUDA-11.7.0/Gaussian/g16c01-CUDA-11.7.0/g16/l702.exe)
 L702 exits ... SP integral derivatives will be done elsewhere.
 Leave Link  702 at Fri May 23 05:16:54 2025, MaxMem=  3758096384 cpu:               0.1 elap:               0.0
 (Enter /apps/easybuild-2022/easybuild/software/Compiler/NVHPC/22.11-CUDA-11.7.0/Gaussian/g16c01-CUDA-11.7.0/g16/l703.exe)
 Integral derivatives from FoFJK, PRISM(SPDF).
 Compute integral first derivatives, UseDBF=F ICtDFT=           0.
 Calling FoFJK, ICntrl=      2127 FMM=F ISym2X=0 I1Cent= 0 IOpClX= 0 NMat=1 NMatS=1 NMatT=0.
 FoFJK:  IHMeth= 1 ICntrl=    2127 DoSepK=T KAlg= 0 I1Cent=           0 FoldK=F
 IRaf=         1 NMat=       1 IRICut=       1 DoRegI=T DoRafI=F ISym2E= 0 IDoP0=0 IntGTp=1.
 FoFCou: FMM=F IPFlag=           0 FMFlag=      100000 FMFlg1=         800
         NFxFlg=           0 DoJE=F BraDBF=F KetDBF=F FulRan=T
         wScrn=  0.000000 ICntrl=      2527 IOpCl=  0 I1Cent=           0 NGrid=           0
         NMat0=    1 NMatS0=      1 NMatT0=    0 NMatD0=    1 NMtDS0=    0 NMtDT0=    0
 Symmetry not used in FoFCou.
 Leave Link  703 at Fri May 23 05:16:59 2025, MaxMem=  3758096384 cpu:              35.5 elap:               4.5
 (Enter /apps/easybuild-2022/easybuild/software/Compiler/NVHPC/22.11-CUDA-11.7.0/Gaussian/g16c01-CUDA-11.7.0/g16/l716.exe)
 Dipole        = 6.17863687D-01 1.06775174D+00 1.69120352D-01
 -------------------------------------------------------------------
 Center     Atomic                   Forces (Hartrees/Bohr)
 Number     Number              X              Y              Z
 -------------------------------------------------------------------
      1        6          -0.000701643   -0.001389725   -0.001915939
      2        6           0.001046576    0.001804893   -0.001379212
      3        9          -0.010275246   -0.005877761    0.000161582
      4        9          -0.000825558    0.002062310    0.000647122
      5       16          -0.005419788   -0.000750022    0.005564218
      6        8          -0.001140372   -0.004409939   -0.008129113
      7        8           0.005627648    0.000475660    0.001562360
      8        8           0.010842766    0.005580941    0.002217975
      9        9           0.000080448    0.000152568    0.000017704
     10        9          -0.000161739    0.000071063    0.000198041
     11        9           0.000566168    0.000414252    0.000464555
     12        1           0.000360740    0.001865759    0.000590708
 -------------------------------------------------------------------
 Cartesian Forces:  Max     0.010842766 RMS     0.003720527
 Leave Link  716 at Fri May 23 05:16:59 2025, MaxMem=  3758096384 cpu:               0.1 elap:               0.0
 (Enter /apps/easybuild-2022/easybuild/software/Compiler/NVHPC/22.11-CUDA-11.7.0/Gaussian/g16c01-CUDA-11.7.0/g16/l103.exe)

 GradGradGradGradGradGradGradGradGradGradGradGradGradGradGradGradGradGrad
 Berny optimization.
 Using GEDIIS/GDIIS optimizer.
 FormGI is forming the generalized inverse of G from B-inverse, IUseBI=4.
 Internal  Forces:  Max     0.022237900 RMS     0.005107611
[...]
    D7        0.62649   0.00000   0.00000   0.00002   0.00002   0.62651
    D8        2.96077  -0.00000   0.00000   0.00001   0.00001   2.96077
    D9       -1.04596   0.00000   0.00000   0.00001   0.00001  -1.04595
   D10       -1.83141   0.00000   0.00000  -0.00000  -0.00000  -1.83141
   D11        0.50286  -0.00000   0.00000  -0.00001  -0.00001   0.50285
   D12        2.77932  -0.00000   0.00000  -0.00001  -0.00001   2.77931
   D13        1.26535  -0.00000   0.00000  -0.00003  -0.00003   1.26532
   D14       -1.11111  -0.00000   0.00000  -0.00002  -0.00002  -1.11113
   D15        3.13450  -0.00000   0.00000  -0.00002  -0.00002   3.13448
   D16       -0.63222  -0.00000   0.00000   0.00002   0.00002  -0.63220
   D17       -2.77101   0.00000   0.00000   0.00003   0.00003  -2.77098
   D18        1.62148   0.00000   0.00000   0.00003   0.00003   1.62151
         Item               Value     Threshold  Converged?
 Maximum Force            0.000001     0.000015     YES
 RMS     Force            0.000000     0.000010     YES
 Maximum Displacement     0.000043     0.000060     YES
 RMS     Displacement     0.000011     0.000040     YES
 Predicted change in Energy=-2.360419D-11
 Optimization completed.
    -- Stationary point found.
                           ----------------------------
                           !   Optimized Parameters   !
                           ! (Angstroms and Degrees)  !
 --------------------------                            --------------------------
 ! Name  Definition              Value          Derivative Info.                !
 --------------------------------------------------------------------------------
 ! R1    R(1,2)                  1.501          -DE/DX =    0.0                 !
 ! R2    R(1,9)                  1.3424         -DE/DX =    0.0                 !
 ! R3    R(1,10)                 1.335          -DE/DX =    0.0                 !
 ! R4    R(1,11)                 1.3402         -DE/DX =    0.0                 !
 ! R5    R(2,4)                  1.3466         -DE/DX =    0.0                 !
 ! R6    R(2,5)                  1.6535         -DE/DX =    0.0                 !
 ! R7    R(3,6)                  1.4026         -DE/DX =    0.0                 !
 ! R8    R(5,6)                  1.7333         -DE/DX =    0.0                 !
 ! R9    R(5,7)                  1.4302         -DE/DX =    0.0                 !
 ! R10   R(5,8)                  1.582          -DE/DX =    0.0                 !
 ! R11   R(8,12)                 0.967          -DE/DX =    0.0                 !
 ! A1    A(2,1,9)              110.9285         -DE/DX =    0.0                 !
 ! A2    A(2,1,10)             109.6072         -DE/DX =    0.0                 !
 ! A3    A(2,1,11)             113.2833         -DE/DX =    0.0                 !
 ! A4    A(9,1,10)             108.2874         -DE/DX =    0.0                 !
 ! A5    A(9,1,11)             107.4814         -DE/DX =    0.0                 !
 ! A6    A(10,1,11)            107.0601         -DE/DX =    0.0                 !
 ! A7    A(1,2,4)              112.8047         -DE/DX =    0.0                 !
 ! A8    A(1,2,5)              122.0081         -DE/DX =    0.0                 !
 ! A9    A(4,2,5)              113.8            -DE/DX =    0.0                 !
 ! A10   A(2,5,6)              122.2998         -DE/DX =    0.0                 !
 ! A11   A(2,5,7)              114.3678         -DE/DX =    0.0                 !
 ! A12   A(2,5,8)              106.5834         -DE/DX =    0.0                 !
 ! A13   A(6,5,7)              108.1746         -DE/DX =    0.0                 !
 ! A14   A(6,5,8)               85.9688         -DE/DX =    0.0                 !
 ! A15   A(7,5,8)              116.6432         -DE/DX =    0.0                 !
 ! A16   A(3,6,5)              103.687          -DE/DX =    0.0                 !
 ! A17   A(5,8,12)             109.3952         -DE/DX =    0.0                 !
 ! D1    D(9,1,2,4)           -179.7521         -DE/DX =    0.0                 !
 ! D2    D(9,1,2,5)             39.0732         -DE/DX =    0.0                 !
 ! D3    D(10,1,2,4)           -60.2236         -DE/DX =    0.0                 !
 ! D4    D(10,1,2,5)           158.6017         -DE/DX =    0.0                 !
 ! D5    D(11,1,2,4)            59.2707         -DE/DX =    0.0                 !
 ! D6    D(11,1,2,5)           -81.904          -DE/DX =    0.0                 !
 ! D7    D(1,2,5,6)             35.8955         -DE/DX =    0.0                 !
 ! D8    D(1,2,5,7)            169.6395         -DE/DX =    0.0                 !
 ! D9    D(1,2,5,8)            -59.929          -DE/DX =    0.0                 !
 ! D10   D(4,2,5,6)           -104.9321         -DE/DX =    0.0                 !
 ! D11   D(4,2,5,7)             28.8119         -DE/DX =    0.0                 !
 ! D12   D(4,2,5,8)            159.2434         -DE/DX =    0.0                 !
 ! D13   D(2,5,6,3)             72.4991         -DE/DX =    0.0                 !
 ! D14   D(7,5,6,3)            -63.6619         -DE/DX =    0.0                 !
 ! D15   D(8,5,6,3)            179.5934         -DE/DX =    0.0                 !
 ! D16   D(2,5,8,12)           -36.2237         -DE/DX =    0.0                 !
 ! D17   D(6,5,8,12)          -158.7669         -DE/DX =    0.0                 !
 ! D18   D(7,5,8,12)            92.9038         -DE/DX =    0.0                 !
 --------------------------------------------------------------------------------
 GradGradGradGradGradGradGradGradGradGradGradGradGradGradGradGradGradGrad

 Leave Link  103 at Fri May 23 05:21:43 2025, MaxMem=  3758096384 cpu:               0.1 elap:               0.0
 (Enter /apps/easybuild-2022/easybuild/software/Compiler/NVHPC/22.11-CUDA-11.7.0/Gaussian/g16c01-CUDA-11.7.0/g16/l9999.exe)

 ----------------------------------------------------------------------

 Electric dipole moment (input orientation):
 (Debye = 10**-18 statcoulomb cm , SI units = C m)
                  (au)            (Debye)         (10**-30 SI)
   Tot        0.114210D+01      0.290292D+01      0.968309D+01
   x          0.560574D+00      0.142484D+01      0.475274D+01
   y          0.985794D+00      0.250564D+01      0.835791D+01
   z          0.135465D+00      0.344318D+00      0.114852D+01

 Dipole polarizability, Alpha (input orientation).
 (esu units = cm**3 , SI units = C**2 m**2 J**-1)
 Alpha(0;0):
               (au)            (10**-24 esu)      (10**-40 SI)
   iso        0.628461D+02      0.931283D+01      0.103619D+02
   aniso      0.182794D+02      0.270872D+01      0.301386D+01
   xx         0.661000D+02      0.979500D+01      0.108984D+02
   yx         0.923265D+00      0.136814D+00      0.152226D+00
   yy         0.576568D+02      0.854386D+01      0.950633D+01
   zx        -0.947553D+01     -0.140413D+01     -0.156230D+01
   zy         0.330705D+00      0.490054D-01      0.545259D-01
   zz         0.647814D+02      0.959962D+01      0.106810D+02

 ----------------------------------------------------------------------

 Dipole orientation:
     6          6.20265384          2.39739544          1.80333864
     6          5.55208129         -0.34647968          1.49751758
     9          0.41692775          0.16513683         -2.23553864
     9          6.98111401         -1.50925440         -0.25788270
    16          2.60188835         -1.37077890          1.60227875
     8          0.10267214          0.36409374          0.38868147
     8          2.28785584         -3.94567300          0.84336577
     8          1.53553647         -0.62701529          4.29428042
     9          4.74541187          3.48231848          3.57394316
     9          8.61259855          2.62183535          2.51503507
     9          5.93036581          3.73460372         -0.33014033
     1          2.86376227         -0.78827697          5.53886204

 Electric dipole moment (dipole orientation):
 (Debye = 10**-18 statcoulomb cm , SI units = C m)
                  (au)            (Debye)         (10**-30 SI)
   Tot        0.114210D+01      0.290292D+01      0.968309D+01
   x          0.000000D+00      0.000000D+00      0.000000D+00
   y          0.000000D+00      0.000000D+00      0.000000D+00
   z          0.114210D+01      0.290292D+01      0.968309D+01

 Dipole polarizability, Alpha (dipole orientation).
 (esu units = cm**3 , SI units = C**2 m**2 J**-1)
 Alpha(0;0):
               (au)            (10**-24 esu)      (10**-40 SI)
   iso        0.628461D+02      0.931283D+01      0.103619D+02
   aniso      0.182794D+02      0.270872D+01      0.301386D+01
   xx         0.714439D+02      0.105869D+02      0.117795D+02
   yx         0.559350D+01      0.828872D+00      0.922244D+00
   yy         0.575565D+02      0.852899D+01      0.948978D+01
   zx         0.453646D+01      0.672235D+00      0.747962D+00
   zy         0.175735D+01      0.260412D+00      0.289747D+00
   zz         0.595378D+02      0.882260D+01      0.981647D+01

 ----------------------------------------------------------------------
 Unable to Open any file for archive entry.
 1\1\GINC-SPARTAN-BM178\Freq\RwB97XD\6-311++G(d,p)\C2H1F5O3S1\AKHALILOV
 \23-May-2025\0\\#P Geom=AllCheck Guess=TCheck SCRF=Check GenChk RwB97X
 D/6-311++G(d,p) Freq\\Gaussian input prepared by ASE\\0,1\C,2.56331096
 89,0.0042674812,-2.5928861438\C,2.7636752099,-0.4899684025,-1.18982212
 45\F,-0.440632709,-1.0754708679,-0.3240346221\F,3.1341236669,-1.783663
 8255,-1.1400677513\S,1.7712251621,-0.0318763258,0.0508783342\O,0.07061
 40395,0.2213032306,-0.1685736577\O,1.9597731781,-0.7706486488,1.260908
 9192\O,1.8786109631,1.5428766216,0.1570958398\F,2.2007016826,1.2968021
 194,-2.5988000154\F,3.703813709,-0.1139895779,-3.2766781368\F,1.628114
 2749,-0.6793110767,-3.2668521918\H,2.7856844323,1.816647071,-0.0361164
 977\\Version=ES64L-G16RevC.01\HF=-1199.6083091\RMSD=6.398e-09\RMSF=1.1
 20e-06\ZeroPoint=0.048646\Thermal=0.0598501\ETot=-1199.548459\HTot=-11
 99.5475148\GTot=-1199.5978703\Dipole=0.5605737,0.9857937,0.1354652\Dip
 oleDeriv=1.644718,0.0903775,0.0506756,0.1975383,1.5281827,-0.1111933,-
 0.4306336,0.1629604,2.2456385,-0.1912765,-0.3732598,-0.0338635,-0.7040
 289,0.5147152,0.416344,0.1985653,0.0044724,-0.5551829,-0.1387559,-0.06
 62817,-0.0507302,-0.2969323,-0.3067066,-0.0274925,-0.04458,-0.0221669,
 -0.0406399,-0.2100679,0.1940725,0.0578403,0.5917606,-0.8362479,-0.2494
 901,0.0152074,-0.00878,-0.2169679,2.2638529,0.1576294,-0.3065825,-0.37
 16384,1.931361,0.1315584,-0.3277511,-0.1425356,2.1503583,-1.1055357,0.
 0929313,0.2879621,0.6628364,0.0789369,-0.1216479,0.1132557,0.0120593,-
 0.3569897,-0.4886889,0.0040137,-0.0158393,0.0733932,-0.5422321,0.24789
 67,0.1075881,0.1775007,-1.1154518,-0.4870818,-0.216758,0.0194527,-0.17
 81538,-1.2379609,-0.1763555,-0.0218411,-0.0363868,-0.4712051,-0.293079
 4,0.1456563,-0.03559,0.0949952,-0.8488297,0.0600528,0.0266711,0.083533
 7,-0.431868,-0.7747821,0.0583422,0.3288996,0.0181,-0.2716971,-0.010808
 8,0.448686,-0.044758,-0.7250722,-0.5068001,-0.2346665,-0.3568505,-0.18
 20816,-0.4337224,-0.187839,-0.1190588,-0.1940052,-0.8286148,0.2874975,
 0.1479431,0.0546257,0.0942113,0.4242009,0.0289752,0.033891,0.008106,0.
 3459954\Polar=66.0999681,0.9232655,57.6568332,-9.4755328,0.3307049,64.
 7814325\PG=Unknown\NImag=0\\0.49845699,-0.01552020,0.52600438,-0.00663
 476,-0.02776560,0.57035146,-0.04643857,0.01277699,-0.00757024,0.153858
 45,0.00640833,-0.07477131,0.06126021,-0.14341913,0.49122759,-0.0277566
 4,0.02332195,-0.17857823,-0.07447504,-0.00977645,0.53018019,0.00041242
 ,-0.00090404,0.00103666,0.00106079,0.00386166,0.00002307,0.09294386,-0
 .00124125,-0.00169598,-0.00261984,0.00103530,0.00117832,0.00118041,0.1
 2223790,0.28297306,-0.00051288,0.00002860,-0.00105506,-0.00055686,-0.0
 0034975,-0.00000804,0.02134252,0.03370923,0.00916902,-0.00732439,0.013
 69657,-0.00151258,-0.03804254,0.07603979,-0.00121864,-0.00031692,-0.00
 205408,-0.00031317,0.06149065,0.01363287,-0.03858086,-0.00985284,0.086
 07011,-0.31106402,0.01407111,-0.00116698,0.00228557,0.00072135,-0.1204
 5912,0.37658179,-0.00874842,0.03151756,0.00087399,0.01198225,0.0052404
 9,-0.05739529,0.00067749,0.00039356,0.00001033,-0.00821679,-0.01422114
 ,0.05896682,-0.00071259,-0.02204622,0.01929778,-0.05710821,0.05889721,
 0.09121296,-0.00631523,0.00044971,-0.00199349,-0.01918415,0.00441610,0
 .00050384,0.39874643,-0.01488542,0.03300481,-0.02034289,0.03069514,-0.
 09307755,-0.03492545,-0.04117902,-0.02428597,-0.00716764,0.03457669,-0
 .03081317,-0.02467601,-0.08181900,0.69476195,0.02996644,0.00195162,-0.
 04146861,0.06869461,-0.07676319,-0.20291228,-0.00510785,0.00181819,-0.
 00282261,0.00861547,0.01703288,-0.00105090,-0.04001493,-0.18692702,0.8
 4116792,-0.00772154,0.00599683,-0.01889786,0.00686876,-0.02057727,-0.0
 0209370,-0.07500907,-0.11505747,-0.01807465,-0.00546760,0.01589905,-0.
 00212837,-0.13037355,0.04764705,-0.01034679,0.21096306,0.00571082,-0.0
 0253417,0.01253757,-0.00086385,0.01397787,-0.00015960,-0.07910489,-0.2
 6823316,-0.02680329,0.00349352,-0.00978399,0.00091508,0.03605778,-0.04
 477014,-0.00309054,0.07278224,0.33350629,-0.00070203,-0.00167964,0.006
 23914,0.00312264,0.00485119,0.00417250,-0.01598239,-0.03239674,-0.0094
 1580,0.00455249,-0.00631936,0.00143006,0.00845824,0.00455901,-0.043318
 39,0.03525201,0.02540945,0.04061961,0.00095638,0.00708005,-0.00038677,
 -0.00051583,-0.00514477,0.02198631,0.00002708,-0.00018046,0.00058946,-
 0.00112503,-0.00435385,0.00090868,-0.07824198,0.04109089,-0.06034566,-
 0.00366588,0.01103648,-0.02618195,0.06836280,0.00479536,0.00001422,-0.
 00094005,-0.00321010,-0.00116160,0.00420033,0.00098697,0.00626185,0.00
 020493,-0.00220661,0.00823604,-0.00238194,0.04858116,-0.22451360,0.246
 64736,-0.00151113,-0.00234706,0.00847273,-0.04842558,0.22123561,0.0050
 0887,-0.00759442,0.01544463,-0.00453388,0.03407972,-0.02656542,0.00002
 484,-0.00319547,0.00069826,-0.00250635,-0.00928703,0.00284938,-0.06095
 532,0.26497871,-0.50625300,0.00527427,0.00498275,0.00024288,0.06029575
 ,-0.28151676,0.51746647,-0.00154201,0.00061914,-0.00238945,-0.00827058
 ,0.01412685,0.00387656,-0.01308204,-0.00707510,-0.00154709,0.00409428,
 0.00566302,0.00471539,-0.08889419,-0.01861048,0.00732614,-0.00290390,-
 0.04419119,-0.00894342,0.01241436,-0.00264138,0.00046096,0.55219952,0.
 00079224,-0.01510502,0.00766733,0.00788542,-0.00569123,-0.00138459,-0.
 00384059,-0.00122199,-0.00045331,-0.00101225,-0.00711838,-0.00601976,-
 0.00541907,-0.26752287,-0.00975503,-0.00460204,-0.01408739,-0.00195783
 ,-0.00259158,-0.00864429,-0.00489214,0.15353694,0.37077363,-0.00141654
 ,0.00846068,0.00073640,0.00003804,-0.01904821,0.01285638,0.00095681,0.
 00038604,0.00203991,0.00115613,-0.00430680,-0.00518328,0.01476038,-0.0
 1121734,-0.06396079,-0.00573539,-0.00198871,0.00510490,0.00044739,0.02
 177037,0.01090281,-0.10866047,-0.00615509,0.06923907,-0.08565283,0.047
 10450,-0.00547374,0.00226604,0.01419380,-0.00459379,-0.00015055,-0.000
 10992,0.00013189,0.00259722,0.00126460,-0.00150361,-0.00435083,0.00519
 204,-0.00020705,0.00270648,-0.00154654,-0.00004284,0.00039466,-0.00057
 045,-0.00127072,0.00104543,-0.00179948,0.00211122,0.10232724,0.0466965
 2,-0.24348688,0.02886527,0.01364627,-0.03186548,0.00388694,0.00069311,
 0.00075645,-0.00010589,0.00077703,-0.00198216,0.00761783,0.00404322,-0
 .01567824,-0.00364219,-0.00456858,0.00241847,0.00123059,-0.00042921,0.
 00142107,0.00297632,-0.00006666,0.00808182,-0.00431627,-0.08191268,0.3
 6968861,-0.00915215,0.02930228,-0.08601077,-0.01060839,0.03144215,0.00
 587534,0.00011051,0.00056813,0.00014229,-0.00105392,0.00684618,-0.0063
 6556,-0.00211614,-0.00206913,0.00295662,0.00223926,-0.00142503,-0.0007
 2110,-0.00021235,0.00049289,-0.00135910,0.00097761,0.00028794,-0.00855
 133,0.00184156,-0.00020921,0.08053264,-0.19859194,0.00506913,0.0925636
 5,-0.00919843,0.00664278,0.01910023,-0.00000594,-0.00006611,0.00007763
 ,0.00171223,-0.00383484,-0.00157331,0.00028251,-0.00116551,-0.00146776
 ,0.00028790,0.00000056,0.00028388,-0.00041129,-0.00037718,0.00217774,0
 .00015386,0.00056986,0.00123256,-0.03097341,0.03960651,0.02073323,0.31
 987006,0.00926598,-0.07530796,-0.00108369,-0.00431833,0.00697356,0.003
 66750,0.00006784,0.00022945,0.00000329,-0.00162033,0.00390445,0.000455
 09,0.00104514,-0.00334680,0.00213507,-0.00015637,0.00002755,-0.0001724
 7,-0.00062588,0.00048406,0.00067649,-0.00000356,0.00154611,-0.00082238
 ,0.05119513,-0.02143102,-0.02952307,-0.02399980,0.07962013,0.09495761,
 -0.00274304,-0.14867458,0.03760688,-0.00583533,-0.03583501,-0.00035887
 ,0.00060616,0.00019439,-0.00149570,0.00154383,0.00162636,-0.00025195,0
 .01080155,0.00028173,0.00440023,-0.00335239,-0.00123814,-0.00033489,-0
 .00118619,-0.00572067,0.00009496,-0.00226624,-0.00050400,0.01466360,-0
 .01811402,0.00717486,-0.14103579,0.01944006,0.16196512,-0.15367189,-0.
 05357162,-0.06830771,-0.00170464,-0.01211347,-0.02674602,0.00002510,0.
 00127843,0.00053030,0.00159260,0.00070194,0.00221532,-0.01451571,0.003
 56655,0.00487531,0.00442162,-0.00301518,-0.00064219,0.00263681,0.00097
 846,-0.00299479,0.00184461,-0.00138390,-0.00025843,0.01034572,-0.01895
 304,-0.00387728,-0.08225365,-0.03088156,-0.00892777,0.23117061,-0.0551
 0625,-0.10970628,-0.04346728,-0.00041869,0.00313117,-0.00399119,0.0000
 1249,0.00081253,0.00028615,-0.00156193,0.00555947,-0.00027208,-0.00299
 243,-0.00209505,0.00225759,0.00119603,-0.00118173,-0.00039258,0.000216
 02,0.00057042,-0.00086507,0.00078685,0.00147982,-0.00124201,-0.0331415
 9,-0.06638251,-0.03651141,-0.02198335,0.00758483,0.00007624,0.11281175
 ,0.16034163,-0.07479309,-0.04719008,-0.13714503,-0.02462942,-0.0256721
 3,-0.04853697,-0.00007254,0.00126868,0.00023171,0.00156035,0.00322961,
 0.00401678,-0.02213166,0.00718794,0.01310780,0.00649365,-0.00407312,-0
 .00165422,0.00360347,0.00209615,-0.00540952,0.00223342,-0.00394055,0.0
 0012230,-0.00520871,-0.02183668,0.00587564,0.00842180,0.00451905,0.020
 50602,0.10392920,0.08292619,0.14914513,0.00182996,-0.00030113,-0.00172
 497,-0.00277524,0.00108423,0.00068470,0.00041051,0.00078306,0.00032635
 ,-0.00002635,0.00216710,0.00116753,0.00066749,-0.00510893,-0.00198793,
 -0.00010628,-0.00035973,0.00082554,-0.00083208,0.00360049,-0.00098138,
 -0.45705934,-0.14213557,0.09536829,-0.00055517,0.00046751,0.00111807,-
 0.00087192,0.00003175,0.00068170,0.00010883,0.00018110,0.00059353,0.45
 920960,-0.00054900,0.00216507,-0.00425822,0.00012087,0.00114267,-0.000
 09094,-0.00166444,0.00093986,-0.00007367,0.00033073,0.00277526,0.00143
 131,-0.04121360,-0.02166338,0.00833527,0.00295167,-0.00699253,-0.00160
 435,0.00232790,-0.00155674,-0.00034312,-0.10214443,-0.06249022,0.01847
 973,0.00013060,-0.00154013,0.00079828,-0.00046205,-0.00028437,0.001029
 36,0.00058163,-0.00011431,0.00148494,0.13959012,0.08761883,-0.00021640
 ,-0.00760991,-0.00071334,0.00092941,0.00057131,-0.00325319,-0.00265025
 ,-0.00171836,0.00081560,0.00043271,0.00054219,0.00022132,-0.00676971,-
 0.00020174,0.00427251,0.00361736,-0.00295217,-0.00146145,-0.00036945,0
 .00214018,-0.00229672,0.10185538,0.02886926,-0.02280237,-0.00044781,0.
 00364733,0.00045047,-0.00051385,0.00070505,0.00022392,0.00020405,0.001
 19546,-0.00025965,-0.09607144,-0.02518859,0.02480289\\0.00000053,0.000
 00116,0.00000021,0.00000065,-0.00000013,-0.00000038,-0.00000101,0.0000
 0066,-0.00000192,-0.00000103,-0.00000036,-0.00000109,-0.00000159,-0.00
 000157,-0.00000005,-0.00000005,0.00000006,-0.00000087,-0.00000127,-0.0
 0000208,-0.00000053,0.00000028,-0.00000083,0.00000100,0.00000140,0.000
 00120,0.00000147,0.00000097,0.00000117,0.00000073,0.00000066,0.0000021
 7,-0.00000081,0.00000046,-0.00000144,0.00000226\\\@
 The archive entry for this job was punched.


 REPARTEE - WHAT YOU THINK OF AFTER YOU BECOME A DEPARTEE.
 Job cpu time:       0 days  0 hours 11 minutes  8.5 seconds.
 Elapsed time:       0 days  0 hours  1 minutes 29.0 seconds.
 File lengths (MBytes):  RWF=     99 Int=      0 D2E=      0 Chk=      6 Scr=      1
 Normal termination of Gaussian 16 at Fri May 23 05:21:43 2025.
done
