 Entering Gaussian System, Link 0=g16
 Initial command:
 /apps/easybuild-2022/easybuild/software/Compiler/NVHPC/22.11-CUDA-11.7.0/Gaussian/g16c01-CUDA-11.7.0/g16/l1.exe "/tmp/Gau-2937.inp" -scrdir="/tmp/"
 Entering Link 1 = /apps/easybuild-2022/easybuild/software/Compiler/NVHPC/22.11-CUDA-11.7.0/Gaussian/g16c01-CUDA-11.7.0/g16/l1.exe PID=      2941.
  
 Copyright (c) 1988-2019, Gaussian, Inc.  All Rights Reserved.
  
 This is part of the Gaussian(R) 16 program.  It is based on
 the Gaussian(R) 09 system (copyright 2009, Gaussian, Inc.),
 the Gaussian(R) 03 system (copyright 2003, Gaussian, Inc.),
 the Gaussian(R) 98 system (copyright 1998, Gaussian, Inc.),
 the Gaussian(R) 94 system (copyright 1995, Gaussian, Inc.),
 the Gaussian 92(TM) system (copyright 1992, Gaussian, Inc.),
 the Gaussian 90(TM) system (copyright 1990, Gaussian, Inc.),
 the Gaussian 88(TM) system (copyright 1988, Gaussian, Inc.),
 the Gaussian 86(TM) system (copyright 1986, Carnegie Mellon
 University), and the Gaussian 82(TM) system (copyright 1983,
 Carnegie Mellon University). Gaussian is a federally registered
 trademark of Gaussian, Inc.
  
 This software contains proprietary and confidential information,
 including trade secrets, belonging to Gaussian, Inc.
  
 This software is provided under written license and may be
 used, copied, transmitted, or stored only in accord with that
 written license.
  
 The following legend is applicable only to US Government
 contracts under FAR:
  
                    RESTRICTED RIGHTS LEGEND
  
 Use, reproduction and disclosure by the US Government is
 subject to restrictions as set forth in subparagraphs (a)
 and (c) of the Commercial Computer Software - Restricted
 Rights clause in FAR 52.227-19.
  
 Gaussian, Inc.
 340 Quinnipiac St., Bldg. 40, Wallingford CT 06492
  
  
 ---------------------------------------------------------------
 Warning -- This program may not be used in any manner that
 competes with the business of Gaussian, Inc. or will provide
 assistance to any competitor of Gaussian, Inc.  The licensee
 of this program is prohibited from giving any competitor of
 Gaussian, Inc. access to this program.  By using this program,
 the user acknowledges that Gaussian, Inc. is engaged in the
 business of creating and licensing software in the field of
 computational chemistry and represents and warrants to the
 licensee that it is not a competitor of Gaussian, Inc. and that
 it will not use this program in any manner prohibited above.
 ---------------------------------------------------------------
  

 Cite this work as:
 Gaussian 16, Revision C.01,
 M. J. Frisch, G. W. Trucks, H. B. Schlegel, G. E. Scuseria, 
 M. A. Robb, J. R. Cheeseman, G. Scalmani, V. Barone, 
 G. A. Petersson, H. Nakatsuji, X. Li, M. Caricato, A. V. Marenich, 
 J. Bloino, B. G. Janesko, R. Gomperts, B. Mennucci, H. P. Hratchian, 
 J. V. Ortiz, A. F. Izmaylov, J. L. Sonnenberg, D. Williams-Young, 
 F. Ding, F. Lipparini, F. Egidi, J. Goings, B. Peng, A. Petrone, 
 T. Henderson, D. Ranasinghe, V. G. Zakrzewski, J. Gao, N. Rega, 
 G. Zheng, W. Liang, M. Hada, M. Ehara, K. Toyota, R. Fukuda, 
 J. Hasegawa, M. Ishida, T. Nakajima, Y. Honda, O. Kitao, H. Nakai, 
 T. Vreven, K. Throssell, J. A. Montgomery, Jr., J. E. Peralta, 
 F. Ogliaro, M. J. Bearpark, J. J. Heyd, E. N. Brothers, K. N. Kudin, 
 V. N. Staroverov, T. A. Keith, R. Kobayashi, J. Normand, 
 K. Raghavachari, A. P. Rendell, J. C. Burant, S. S. Iyengar, 
 J. Tomasi, M. Cossi, J. M. Millam, M. Klene, C. Adamo, R. Cammi, 
 J. W. Ochterski, R. L. Martin, K. Morokuma, O. Farkas, 
 J. B. Foresman, and D. J. Fox, Gaussian, Inc., Wallingford CT, 2019.
 
 ******************************************
 Gaussian 16:  ES64L-G16RevC.01  3-Jul-2019
                23-May-2025 
 ******************************************
 %mem=28GB
 %nprocshared=8
 Will use up to    8 processors via shared memory.
 ----------------------------------------------------------------------
 #P wb97xd/6-311++G(d,p) Symm(None) scf(xqc) pop(None) freq opt(CalcFC,
  Tight)
 ----------------------------------------------------------------------
 1/7=10,10=4,18=20,19=15,26=3,38=1/1,3;
 2/9=110,12=2,15=3,17=6,18=5,40=1/2;
 3/5=4,6=6,7=1111,11=2,25=1,30=1,71=2,74=-58,140=1/1,2,3;
 4//1;
 5/5=2,8=3,13=1,38=5/2,8;
 8/6=4,10=90,11=11/1;
 11/6=1,8=1,9=11,15=111,16=1,31=1/1,2,10;
 10/6=1,13=1,31=1/2;
 7/10=1,25=1,30=1/1,2,3,16;
 1/7=10,10=4,18=20,19=15,26=3/3(2);
 2/9=110,15=3/2;
 99//99;
 2/9=110,15=3/2;
 3/5=4,6=6,7=1111,11=2,25=1,30=1,71=1,74=-58/1,2,3;
 4/5=5,16=3,69=1/1;
 5/5=2,8=3,13=1,38=5/2,8;
 7/30=1/1,2,3,16;
 1/7=10,18=20,19=15,26=3/3(-5);
 2/9=110,15=3/2;
 99/9=1/99;
 Leave Link    1 at Fri May 23 01:53:05 2025, MaxMem=  3758096384 cpu:               0.1 elap:               0.0
 (Enter /apps/easybuild-2022/easybuild/software/Compiler/NVHPC/22.11-CUDA-11.7.0/Gaussian/g16c01-CUDA-11.7.0/g16/l101.exe)
 ------------------------------
 Gaussian input prepared by ASE
 ------------------------------
 Symbolic Z-matrix:
 Charge =  0 Multiplicity = 1
 C                    -0.66268   1.07924  -0.90783 
 C                     0.        0.        0. 
 F                    -0.42163   0.17347   1.24891 
 F                    -0.36291  -1.20937  -0.43004 
 S                     1.88451   0.        0. 
 O                     2.284    -0.50698   1.27299 
 O                     2.31319  -0.55698  -1.25198 
 O                     2.18183   1.57703   0. 
 F                    -0.60909   2.27198  -0.33085 
 F                    -0.03805   1.14538  -2.08482 
 F                    -1.93197   0.75943  -1.11575 
 H                     2.37551   1.87828  -0.89772 
 
 ITRead=  0  0  0  0  0  0  0  0  0  0  0  0
 MicOpt= -1 -1 -1 -1 -1 -1 -1 -1 -1 -1 -1 -1
 NAtoms=     12 NQM=       12 NQMF=       0 NMMI=      0 NMMIF=      0
                NMic=       0 NMicF=      0.
                    Isotopes and Nuclear Properties:
 (Nuclear quadrupole moments (NQMom) in fm**2, nuclear magnetic moments (NMagM)
  in nuclear magnetons)

  Atom         1           2           3           4           5           6           7           8           9          10
 IAtWgt=          12          12          19          19          32          16          16          16          19          19
 AtmWgt=  12.0000000  12.0000000  18.9984032  18.9984032  31.9720718  15.9949146  15.9949146  15.9949146  18.9984032  18.9984032
 NucSpn=           0           0           1           1           0           0           0           0           1           1
 AtZEff=  -0.0000000  -0.0000000  -0.0000000  -0.0000000  -0.0000000  -0.0000000  -0.0000000  -0.0000000  -0.0000000  -0.0000000
 NQMom=    0.0000000   0.0000000   0.0000000   0.0000000   0.0000000   0.0000000   0.0000000   0.0000000   0.0000000   0.0000000
 NMagM=    0.0000000   0.0000000   2.6288670   2.6288670   0.0000000   0.0000000   0.0000000   0.0000000   2.6288670   2.6288670
 AtZNuc=   6.0000000   6.0000000   9.0000000   9.0000000  16.0000000   8.0000000   8.0000000   8.0000000   9.0000000   9.0000000

  Atom        11          12
 IAtWgt=          19           1
 AtmWgt=  18.9984032   1.0078250
 NucSpn=           1           1
 AtZEff=  -0.0000000  -0.0000000
 NQMom=    0.0000000   0.0000000
 NMagM=    2.6288670   2.7928460
 AtZNuc=   9.0000000   1.0000000
 Leave Link  101 at Fri May 23 01:53:05 2025, MaxMem=  3758096384 cpu:               0.3 elap:               0.2
 (Enter /apps/easybuild-2022/easybuild/software/Compiler/NVHPC/22.11-CUDA-11.7.0/Gaussian/g16c01-CUDA-11.7.0/g16/l103.exe)

 GradGradGradGradGradGradGradGradGradGradGradGradGradGradGradGradGradGrad
 Berny optimization.
 Initialization pass.
                           ----------------------------
                           !    Initial Parameters    !
                           ! (Angstroms and Degrees)  !
 --------------------------                            --------------------------
 ! Name  Definition              Value          Derivative Info.                !
 --------------------------------------------------------------------------------
 ! R1    R(1,2)                  1.5582         calculate D2E/DX2 analytically  !
 ! R2    R(1,9)                  1.3261         calculate D2E/DX2 analytically  !
 ! R3    R(1,10)                 1.3341         calculate D2E/DX2 analytically  !
 ! R4    R(1,11)                 1.3254         calculate D2E/DX2 analytically  !
 ! R5    R(2,3)                  1.3295         calculate D2E/DX2 analytically  !
 ! R6    R(2,4)                  1.3339         calculate D2E/DX2 analytically  !
 ! R7    R(2,5)                  1.8845         calculate D2E/DX2 analytically  !
 ! R8    R(5,6)                  1.4273         calculate D2E/DX2 analytically  !
 ! R9    R(5,7)                  1.4358         calculate D2E/DX2 analytically  !
 ! R10   R(5,8)                  1.6048         calculate D2E/DX2 analytically  !
 ! R11   R(8,12)                 0.9665         calculate D2E/DX2 analytically  !
 ! A1    A(2,1,9)              110.6276         calculate D2E/DX2 analytically  !
 ! A2    A(2,1,10)             110.4392         calculate D2E/DX2 analytically  !
 ! A3    A(2,1,11)             109.3638         calculate D2E/DX2 analytically  !
 ! A4    A(9,1,10)             108.6839         calculate D2E/DX2 analytically  !
 ! A5    A(9,1,11)             108.905          calculate D2E/DX2 analytically  !
 ! A6    A(10,1,11)            108.7811         calculate D2E/DX2 analytically  !
 ! A7    A(1,2,3)              108.7867         calculate D2E/DX2 analytically  !
 ! A8    A(1,2,4)              108.9306         calculate D2E/DX2 analytically  !
 ! A9    A(1,2,5)              115.1686         calculate D2E/DX2 analytically  !
 ! A10   A(3,2,4)              109.5642         calculate D2E/DX2 analytically  !
 ! A11   A(3,2,5)              108.4891         calculate D2E/DX2 analytically  !
 ! A12   A(4,2,5)              105.7876         calculate D2E/DX2 analytically  !
 ! A13   A(2,5,6)              106.2542         calculate D2E/DX2 analytically  !
 ! A14   A(2,5,7)              107.3718         calculate D2E/DX2 analytically  !
 ! A15   A(2,5,8)              100.6769         calculate D2E/DX2 analytically  !
 ! A16   A(6,5,7)              123.8044         calculate D2E/DX2 analytically  !
 ! A17   A(6,5,8)              107.2897         calculate D2E/DX2 analytically  !
 ! A18   A(7,5,8)              109.02           calculate D2E/DX2 analytically  !
 ! A19   A(5,8,12)             110.0851         calculate D2E/DX2 analytically  !
 ! D1    D(9,1,2,3)             44.9811         calculate D2E/DX2 analytically  !
 ! D2    D(9,1,2,4)            164.3612         calculate D2E/DX2 analytically  !
 ! D3    D(9,1,2,5)            -77.021          calculate D2E/DX2 analytically  !
 ! D4    D(10,1,2,3)           165.3506         calculate D2E/DX2 analytically  !
 ! D5    D(10,1,2,4)           -75.2693         calculate D2E/DX2 analytically  !
 ! D6    D(10,1,2,5)            43.3484         calculate D2E/DX2 analytically  !
 ! D7    D(11,1,2,3)           -74.969          calculate D2E/DX2 analytically  !
 ! D8    D(11,1,2,4)            44.4111         calculate D2E/DX2 analytically  !
 ! D9    D(11,1,2,5)           163.0289         calculate D2E/DX2 analytically  !
 ! D10   D(1,2,5,6)            151.7853         calculate D2E/DX2 analytically  !
 ! D11   D(1,2,5,7)            -73.9135         calculate D2E/DX2 analytically  !
 ! D12   D(1,2,5,8)             40.0698         calculate D2E/DX2 analytically  !
 ! D13   D(3,2,5,6)             29.623          calculate D2E/DX2 analytically  !
 ! D14   D(3,2,5,7)            163.9242         calculate D2E/DX2 analytically  !
 ! D15   D(3,2,5,8)            -82.0925         calculate D2E/DX2 analytically  !
 ! D16   D(4,2,5,6)            -87.8592         calculate D2E/DX2 analytically  !
 ! D17   D(4,2,5,7)             46.442          calculate D2E/DX2 analytically  !
 ! D18   D(4,2,5,8)            160.4253         calculate D2E/DX2 analytically  !
 ! D19   D(2,5,8,12)           -98.5221         calculate D2E/DX2 analytically  !
 ! D20   D(6,5,8,12)           150.5622         calculate D2E/DX2 analytically  !
 ! D21   D(7,5,8,12)            14.2066         calculate D2E/DX2 analytically  !
 --------------------------------------------------------------------------------
 Trust Radius=3.00D-01 FncErr=1.00D-07 GrdErr=1.00D-06 EigMax=2.50D+02 EigMin=1.00D-04
 Number of steps in this run=     61 maximum allowed number of steps=    100.
 GradGradGradGradGradGradGradGradGradGradGradGradGradGradGradGradGradGrad

 Leave Link  103 at Fri May 23 01:53:05 2025, MaxMem=  3758096384 cpu:               0.1 elap:               0.0
 (Enter /apps/easybuild-2022/easybuild/software/Compiler/NVHPC/22.11-CUDA-11.7.0/Gaussian/g16c01-CUDA-11.7.0/g16/l202.exe)
                          Input orientation:                          
 ---------------------------------------------------------------------
 Center     Atomic      Atomic             Coordinates (Angstroms)
 Number     Number       Type             X           Y           Z
 ---------------------------------------------------------------------
      1          6           0       -0.662684    1.079235   -0.907828
      2          6           0        0.000000    0.000000    0.000000
      3          9           0       -0.421625    0.173468    1.248913
      4          9           0       -0.362911   -1.209373   -0.430037
      5         16           0        1.884505    0.000000    0.000000
      6          8           0        2.283999   -0.506982    1.272987
      7          8           0        2.313186   -0.556982   -1.251982
      8          8           0        2.181829    1.577025    0.000000
      9          9           0       -0.609092    2.271978   -0.330848
     10          9           0       -0.038047    1.145383   -2.084821
     11          9           0       -1.931974    0.759433   -1.115751
     12          1           0        2.375514    1.878276   -0.897724
 ---------------------------------------------------------------------
                    Distance matrix (angstroms):
                    1          2          3          4          5
     1  C    0.000000
     2  C    1.558220   0.000000
     3  F    2.351607   1.329528   0.000000
     4  F    2.357091   1.333874   2.175907   0.000000
     5  S    2.911541   1.884505   2.628329   2.588125   0.000000
     6  O    3.994368   2.663490   2.789981   3.224868   1.427278
     7  O    3.413422   2.688591   3.777199   2.874492   1.435777
     8  O    3.027078   2.692097   3.210565   3.797979   1.604808
     9  F    1.326052   2.375360   2.633350   3.491453   3.389597
    10  F    1.334114   2.379040   3.493643   2.896330   3.058527
    11  F    1.325368   2.356727   2.866382   2.609284   4.048105
    12  H    3.141531   3.158622   3.916428   4.153466   2.138906
                    6          7          8          9         10
     6  O    0.000000
     7  O    2.525633   0.000000
     8  O    2.444181   2.477640   0.000000
     9  F    4.320287   4.170277   2.895109   0.000000
    10  F    4.404212   3.019928   3.075816   2.161419   0.000000
    11  F    5.008423   4.446672   4.340130   2.157285   2.162178
    12  H    3.226425   2.461679   0.966527   3.063368   2.787760
                   11         12
    11  F    0.000000
    12  H    4.455760   0.000000
 Symmetry turned off by external request.
 Stoichiometry    C2HF5O3S
 Rotational constants (GHZ):           1.5570604           0.8457280           0.7871859
 Leave Link  202 at Fri May 23 01:53:05 2025, MaxMem=  3758096384 cpu:               0.0 elap:               0.0
 (Enter /apps/easybuild-2022/easybuild/software/Compiler/NVHPC/22.11-CUDA-11.7.0/Gaussian/g16c01-CUDA-11.7.0/g16/l301.exe)
 Standard basis: 6-311++G(d,p) (5D, 7F)
 Ernie: Thresh=  0.10000D-02 Tol=  0.10000D-05 Strict=F.
   257 basis functions,   419 primitive gaussians,   268 cartesian basis functions
    49 alpha electrons       49 beta electrons
       nuclear repulsion energy       924.3026163706 Hartrees.
 IExCor= 4639 DFT=T Ex+Corr=wB97XD ExCW=0 ScaHFX=  1.000000
 ScaDFX=  1.000000  1.000000  1.000000  1.000000 ScalE2=  1.000000  1.000000
 IRadAn=      5 IRanWt=     -1 IRanGd=            0 ICorTp=0 IEmpDi=121
 HFx  wShort=  0.000000 wLong=  0.200000 cFull=  0.222036 cShort=  0.000000 cLong=  0.777964
 DFx  wShort=  0.000000 wLong=  0.200000 cFull=  0.000000 cShort=  0.000000 cLong=  1.000000
 NAtoms=   12 NActive=   12 NUniq=   12 SFac= 1.00D+00 NAtFMM=   60 NAOKFM=F Big=F
 Integral buffers will be    131072 words long.
 Raffenetti 2 integral format.
 Two-electron integral symmetry is turned off.
 R6Disp:  Grimme-D2 Dispersion energy=       -0.0058475881 Hartrees.
 Nuclear repulsion after empirical dispersion term =      924.2967687825 Hartrees.
 Leave Link  301 at Fri May 23 01:53:05 2025, MaxMem=  3758096384 cpu:               0.1 elap:               0.0
 (Enter /apps/easybuild-2022/easybuild/software/Compiler/NVHPC/22.11-CUDA-11.7.0/Gaussian/g16c01-CUDA-11.7.0/g16/l302.exe)
 NPDir=0 NMtPBC=     1 NCelOv=     1 NCel=       1 NClECP=     1 NCelD=      1
         NCelK=      1 NCelE2=     1 NClLst=     1 CellRange=     0.0.
 One-electron integrals computed using PRISM.
 NBasis=   257 RedAO= T EigKep=  5.60D-05  NBF=   257
 NBsUse=   257 1.00D-06 EigRej= -1.00D+00 NBFU=   257
 Precomputing XC quadrature grid using
 IXCGrd= 4 IRadAn=           5 IRanWt=          -1 IRanGd=           0 AccXCQ= 0.00D+00.
 Generated NRdTot=       0 NPtTot=           0 NUsed=           0 NTot=          32
 NSgBfM=   268   268   268   268   268 MxSgAt=    12 MxSgA2=    12.
 Leave Link  302 at Fri May 23 01:53:05 2025, MaxMem=  3758096384 cpu:               0.7 elap:               0.1
 (Enter /apps/easybuild-2022/easybuild/software/Compiler/NVHPC/22.11-CUDA-11.7.0/Gaussian/g16c01-CUDA-11.7.0/g16/l303.exe)
 DipDrv:  MaxL=1.
 Leave Link  303 at Fri May 23 01:53:05 2025, MaxMem=  3758096384 cpu:               0.1 elap:               0.0
 (Enter /apps/easybuild-2022/easybuild/software/Compiler/NVHPC/22.11-CUDA-11.7.0/Gaussian/g16c01-CUDA-11.7.0/g16/l401.exe)
 ExpMin= 3.60D-02 ExpMax= 9.34D+04 ExpMxC= 3.17D+03 IAcc=3 IRadAn=         5 AccDes= 0.00D+00
 Harris functional with IExCor= 4639 and IRadAn=       5 diagonalized for initial guess.
 HarFok:  IExCor= 4639 AccDes= 0.00D+00 IRadAn=         5 IDoV= 1 UseB2=F ITyADJ=14
 ICtDFT=  3500011 ScaDFX=  1.000000  1.000000  1.000000  1.000000
 FoFCou: FMM=F IPFlag=           0 FMFlag=      100000 FMFlg1=           0
         NFxFlg=           0 DoJE=T BraDBF=F KetDBF=T FulRan=T
         wScrn=  0.000000 ICntrl=       500 IOpCl=  0 I1Cent=   200000004 NGrid=           0
         NMat0=    1 NMatS0=      1 NMatT0=    0 NMatD0=    1 NMtDS0=    0 NMtDT0=    0
 Symmetry not used in FoFCou.
 Harris En= -1167.10285807805    
 JPrj=0 DoOrth=F DoCkMO=F.
 Leave Link  401 at Fri May 23 01:53:06 2025, MaxMem=  3758096384 cpu:               2.6 elap:               0.4
 (Enter /apps/easybuild-2022/easybuild/software/Compiler/NVHPC/22.11-CUDA-11.7.0/Gaussian/g16c01-CUDA-11.7.0/g16/l502.exe)
 Keep R1 ints in memory in canonical form, NReq=1117474609.
 FoFCou: FMM=F IPFlag=           0 FMFlag=           0 FMFlg1=           0
         NFxFlg=           0 DoJE=F BraDBF=F KetDBF=F FulRan=T
         wScrn=  0.000000 ICntrl=       600 IOpCl=  0 I1Cent=           0 NGrid=           0
         NMat0=    1 NMatS0=  33153 NMatT0=    0 NMatD0=    1 NMtDS0=    0 NMtDT0=    0
 Symmetry not used in FoFCou.
 Two-electron integral symmetry not used.
 Closed shell SCF:
 Using DIIS extrapolation, IDIIS=  1040.
 NGot=  3758096384 LenX=  2658793876 LenY=  2658721611
 Requested convergence on RMS density matrix=1.00D-08 within  32 cycles.
 Requested convergence on MAX density matrix=1.00D-06.
 Requested convergence on             energy=1.00D-06.
 No special actions if energy rises.

 Cycle   1  Pass 1  IDiag  1:
 E= -1199.14540027297    
 DIIS: error= 1.13D-01 at cycle   1 NSaved=   1.
 NSaved= 1 IEnMin= 1 EnMin= -1199.14540027297     IErMin= 1 ErrMin= 1.13D-01
 ErrMax= 1.13D-01  0.00D+00 EMaxC= 1.00D-01 BMatC= 3.33D+00 BMatP= 3.33D+00
 IDIUse=3 WtCom= 0.00D+00 WtEn= 1.00D+00
 Coeff-Com:  0.100D+01
 Coeff-En:   0.100D+01
 Coeff:      0.100D+01
 Gap=     0.668 Goal=   None    Shift=    0.000
 GapD=    0.668 DampG=2.000 DampE=0.250 DampFc=0.5000 IDamp=-1.
 Damping current iteration by 5.00D-01
 RMSDP=8.17D-03 MaxDP=4.60D-01              OVMax= 1.81D-01

 Cycle   2  Pass 1  IDiag  1:
 E= -1199.49567310706     Delta-E=       -0.350272834091 Rises=F Damp=T
 DIIS: error= 4.90D-02 at cycle   2 NSaved=   2.
 NSaved= 2 IEnMin= 2 EnMin= -1199.49567310706     IErMin= 2 ErrMin= 4.90D-02
 ErrMax= 4.90D-02  0.00D+00 EMaxC= 1.00D-01 BMatC= 4.80D-01 BMatP= 3.33D+00
 IDIUse=3 WtCom= 5.10D-01 WtEn= 4.90D-01
 Coeff-Com: -0.398D+00 0.140D+01
 Coeff-En:   0.000D+00 0.100D+01
 Coeff:     -0.203D+00 0.120D+01
 Gap=     0.546 Goal=   None    Shift=    0.000
 RMSDP=2.98D-03 MaxDP=2.22D-01 DE=-3.50D-01 OVMax= 9.78D-02

 Cycle   3  Pass 1  IDiag  1:
 E= -1199.78427447171     Delta-E=       -0.288601364651 Rises=F Damp=F
 DIIS: error= 1.16D-02 at cycle   3 NSaved=   3.
 NSaved= 3 IEnMin= 3 EnMin= -1199.78427447171     IErMin= 3 ErrMin= 1.16D-02
 ErrMax= 1.16D-02  0.00D+00 EMaxC= 1.00D-01 BMatC= 6.44D-02 BMatP= 4.80D-01
 IDIUse=3 WtCom= 8.84D-01 WtEn= 1.16D-01
 Coeff-Com: -0.164D+00 0.470D+00 0.695D+00
 Coeff-En:   0.000D+00 0.000D+00 0.100D+01
 Coeff:     -0.145D+00 0.415D+00 0.730D+00
 Gap=     0.478 Goal=   None    Shift=    0.000
 RMSDP=2.76D-03 MaxDP=1.65D-01 DE=-2.89D-01 OVMax= 5.75D-02

 Cycle   4  Pass 1  IDiag  1:
 E= -1199.81366961135     Delta-E=       -0.029395139640 Rises=F Damp=F
 DIIS: error= 6.21D-03 at cycle   4 NSaved=   4.
 NSaved= 4 IEnMin= 4 EnMin= -1199.81366961135     IErMin= 4 ErrMin= 6.21D-03
 ErrMax= 6.21D-03  0.00D+00 EMaxC= 1.00D-01 BMatC= 1.61D-02 BMatP= 6.44D-02
 IDIUse=3 WtCom= 9.38D-01 WtEn= 6.21D-02
 Coeff-Com: -0.355D-01 0.873D-01 0.360D+00 0.589D+00
 Coeff-En:   0.000D+00 0.000D+00 0.202D+00 0.798D+00
 Coeff:     -0.333D-01 0.819D-01 0.350D+00 0.602D+00
 Gap=     0.483 Goal=   None    Shift=    0.000
 RMSDP=1.22D-03 MaxDP=7.97D-02 DE=-2.94D-02 OVMax= 2.25D-02

 Cycle   5  Pass 1  IDiag  1:
 E= -1199.82363699765     Delta-E=       -0.009967386292 Rises=F Damp=F
 DIIS: error= 1.21D-03 at cycle   5 NSaved=   5.
 NSaved= 5 IEnMin= 5 EnMin= -1199.82363699765     IErMin= 5 ErrMin= 1.21D-03
 ErrMax= 1.21D-03  0.00D+00 EMaxC= 1.00D-01 BMatC= 8.41D-04 BMatP= 1.61D-02
 IDIUse=3 WtCom= 9.88D-01 WtEn= 1.21D-02
 Coeff-Com: -0.896D-02 0.197D-01 0.152D+00 0.320D+00 0.517D+00
 Coeff-En:   0.000D+00 0.000D+00 0.000D+00 0.000D+00 0.100D+01
 Coeff:     -0.885D-02 0.194D-01 0.150D+00 0.317D+00 0.523D+00
 Gap=     0.474 Goal=   None    Shift=    0.000
 RMSDP=1.88D-04 MaxDP=9.96D-03 DE=-9.97D-03 OVMax= 4.21D-03

 Cycle   6  Pass 1  IDiag  1:
 E= -1199.82413590226     Delta-E=       -0.000498904611 Rises=F Damp=F
 DIIS: error= 1.69D-04 at cycle   6 NSaved=   6.
 NSaved= 6 IEnMin= 6 EnMin= -1199.82413590226     IErMin= 6 ErrMin= 1.69D-04
 ErrMax= 1.69D-04  0.00D+00 EMaxC= 1.00D-01 BMatC= 1.58D-05 BMatP= 8.41D-04
 IDIUse=3 WtCom= 9.98D-01 WtEn= 1.69D-03
 Coeff-Com:  0.195D-02-0.508D-02 0.250D-03 0.232D-01 0.125D+00 0.854D+00
 Coeff-En:   0.000D+00 0.000D+00 0.000D+00 0.000D+00 0.000D+00 0.100D+01
 Coeff:      0.194D-02-0.507D-02 0.250D-03 0.231D-01 0.125D+00 0.855D+00
 Gap=     0.473 Goal=   None    Shift=    0.000
 RMSDP=4.23D-05 MaxDP=2.57D-03 DE=-4.99D-04 OVMax= 9.31D-04

 Cycle   7  Pass 1  IDiag  1:
 E= -1199.82415152070     Delta-E=       -0.000015618438 Rises=F Damp=F
 DIIS: error= 3.98D-05 at cycle   7 NSaved=   7.
 NSaved= 7 IEnMin= 7 EnMin= -1199.82415152070     IErMin= 7 ErrMin= 3.98D-05
 ErrMax= 3.98D-05  0.00D+00 EMaxC= 1.00D-01 BMatC= 9.19D-07 BMatP= 1.58D-05
 IDIUse=1 WtCom= 1.00D+00 WtEn= 0.00D+00
 Coeff-Com:  0.107D-02-0.239D-02-0.120D-01-0.216D-01-0.342D-01 0.118D+00
 Coeff-Com:  0.952D+00
 Coeff:      0.107D-02-0.239D-02-0.120D-01-0.216D-01-0.342D-01 0.118D+00
 Coeff:      0.952D+00
 Gap=     0.473 Goal=   None    Shift=    0.000
 RMSDP=1.31D-05 MaxDP=6.73D-04 DE=-1.56D-05 OVMax= 3.32D-04

 Cycle   8  Pass 1  IDiag  1:
 E= -1199.82415248493     Delta-E=       -0.000000964235 Rises=F Damp=F
 DIIS: error= 1.49D-05 at cycle   8 NSaved=   8.
 NSaved= 8 IEnMin= 8 EnMin= -1199.82415248493     IErMin= 8 ErrMin= 1.49D-05
 ErrMax= 1.49D-05  0.00D+00 EMaxC= 1.00D-01 BMatC= 1.08D-07 BMatP= 9.19D-07
 IDIUse=1 WtCom= 1.00D+00 WtEn= 0.00D+00
 Coeff-Com:  0.426D-03-0.939D-03-0.526D-02-0.101D-01-0.174D-01 0.360D-01
 Coeff-Com:  0.412D+00 0.585D+00
 Coeff:      0.426D-03-0.939D-03-0.526D-02-0.101D-01-0.174D-01 0.360D-01
 Coeff:      0.412D+00 0.585D+00
 Gap=     0.473 Goal=   None    Shift=    0.000
 RMSDP=2.87D-06 MaxDP=1.80D-04 DE=-9.64D-07 OVMax= 4.67D-05

 Cycle   9  Pass 1  IDiag  1:
 E= -1199.82415255489     Delta-E=       -0.000000069961 Rises=F Damp=F
 DIIS: error= 4.25D-06 at cycle   9 NSaved=   9.
 NSaved= 9 IEnMin= 9 EnMin= -1199.82415255489     IErMin= 9 ErrMin= 4.25D-06
 ErrMax= 4.25D-06  0.00D+00 EMaxC= 1.00D-01 BMatC= 1.05D-08 BMatP= 1.08D-07
 IDIUse=1 WtCom= 1.00D+00 WtEn= 0.00D+00
 Coeff-Com: -0.687D-04 0.160D-03 0.535D-03 0.613D-03 0.758D-03-0.105D-01
 Coeff-Com: -0.509D-01 0.192D+00 0.867D+00
 Coeff:     -0.687D-04 0.160D-03 0.535D-03 0.613D-03 0.758D-03-0.105D-01
 Coeff:     -0.509D-01 0.192D+00 0.867D+00
 Gap=     0.473 Goal=   None    Shift=    0.000
 RMSDP=2.12D-06 MaxDP=1.37D-04 DE=-7.00D-08 OVMax= 4.00D-05

 Cycle  10  Pass 1  IDiag  1:
 E= -1199.82415256540     Delta-E=       -0.000000010506 Rises=F Damp=F
 DIIS: error= 2.21D-06 at cycle  10 NSaved=  10.
 NSaved=10 IEnMin=10 EnMin= -1199.82415256540     IErMin=10 ErrMin= 2.21D-06
 ErrMax= 2.21D-06  0.00D+00 EMaxC= 1.00D-01 BMatC= 1.64D-09 BMatP= 1.05D-08
 IDIUse=1 WtCom= 1.00D+00 WtEn= 0.00D+00
 Coeff-Com: -0.587D-04 0.132D-03 0.545D-03 0.896D-03 0.139D-02-0.669D-02
 Coeff-Com: -0.488D-01 0.495D-01 0.391D+00 0.613D+00
 Coeff:     -0.587D-04 0.132D-03 0.545D-03 0.896D-03 0.139D-02-0.669D-02
 Coeff:     -0.488D-01 0.495D-01 0.391D+00 0.613D+00
 Gap=     0.473 Goal=   None    Shift=    0.000
 RMSDP=4.59D-07 MaxDP=2.78D-05 DE=-1.05D-08 OVMax= 1.29D-05

 Cycle  11  Pass 1  IDiag  1:
 E= -1199.82415256665     Delta-E=       -0.000000001255 Rises=F Damp=F
 DIIS: error= 8.16D-07 at cycle  11 NSaved=  11.
 NSaved=11 IEnMin=11 EnMin= -1199.82415256665     IErMin=11 ErrMin= 8.16D-07
 ErrMax= 8.16D-07  0.00D+00 EMaxC= 1.00D-01 BMatC= 3.21D-10 BMatP= 1.64D-09
 IDIUse=1 WtCom= 1.00D+00 WtEn= 0.00D+00
 Coeff-Com: -0.141D-04 0.306D-04 0.140D-03 0.315D-03 0.528D-03-0.757D-03
 Coeff-Com: -0.131D-01-0.201D-01-0.539D-02 0.309D+00 0.729D+00
 Coeff:     -0.141D-04 0.306D-04 0.140D-03 0.315D-03 0.528D-03-0.757D-03
 Coeff:     -0.131D-01-0.201D-01-0.539D-02 0.309D+00 0.729D+00
 Gap=     0.473 Goal=   None    Shift=    0.000
 RMSDP=2.36D-07 MaxDP=1.07D-05 DE=-1.26D-09 OVMax= 5.23D-06

 Cycle  12  Pass 1  IDiag  1:
 E= -1199.82415256685     Delta-E=       -0.000000000197 Rises=F Damp=F
 DIIS: error= 1.96D-07 at cycle  12 NSaved=  12.
 NSaved=12 IEnMin=12 EnMin= -1199.82415256685     IErMin=12 ErrMin= 1.96D-07
 ErrMax= 1.96D-07  0.00D+00 EMaxC= 1.00D-01 BMatC= 1.54D-11 BMatP= 3.21D-10
 IDIUse=1 WtCom= 1.00D+00 WtEn= 0.00D+00
 Coeff-Com:  0.399D-06-0.122D-05-0.572D-06 0.315D-04 0.743D-04 0.278D-03
 Coeff-Com: -0.817D-03-0.113D-01-0.331D-01 0.645D-01 0.266D+00 0.714D+00
 Coeff:      0.399D-06-0.122D-05-0.572D-06 0.315D-04 0.743D-04 0.278D-03
 Coeff:     -0.817D-03-0.113D-01-0.331D-01 0.645D-01 0.266D+00 0.714D+00
 Gap=     0.473 Goal=   None    Shift=    0.000
 RMSDP=4.71D-08 MaxDP=1.94D-06 DE=-1.97D-10 OVMax= 1.05D-06

 Cycle  13  Pass 1  IDiag  1:
 E= -1199.82415256686     Delta-E=       -0.000000000005 Rises=F Damp=F
 DIIS: error= 7.73D-08 at cycle  13 NSaved=  13.
 NSaved=13 IEnMin=13 EnMin= -1199.82415256686     IErMin=13 ErrMin= 7.73D-08
 ErrMax= 7.73D-08  0.00D+00 EMaxC= 1.00D-01 BMatC= 1.75D-12 BMatP= 1.54D-11
 IDIUse=1 WtCom= 1.00D+00 WtEn= 0.00D+00
 Coeff-Com:  0.133D-05-0.295D-05-0.104D-04-0.143D-04-0.934D-05 0.152D-03
 Coeff-Com:  0.752D-03-0.183D-02-0.986D-02-0.682D-02 0.215D-01 0.264D+00
 Coeff-Com:  0.732D+00
 Coeff:      0.133D-05-0.295D-05-0.104D-04-0.143D-04-0.934D-05 0.152D-03
 Coeff:      0.752D-03-0.183D-02-0.986D-02-0.682D-02 0.215D-01 0.264D+00
 Coeff:      0.732D+00
 Gap=     0.473 Goal=   None    Shift=    0.000
 RMSDP=2.05D-08 MaxDP=1.25D-06 DE=-5.46D-12 OVMax= 3.48D-07

 Cycle  14  Pass 1  IDiag  1:
 E= -1199.82415256692     Delta-E=       -0.000000000066 Rises=F Damp=F
 DIIS: error= 2.35D-08 at cycle  14 NSaved=  14.
 NSaved=14 IEnMin=14 EnMin= -1199.82415256692     IErMin=14 ErrMin= 2.35D-08
 ErrMax= 2.35D-08  0.00D+00 EMaxC= 1.00D-01 BMatC= 1.98D-13 BMatP= 1.75D-12
 IDIUse=1 WtCom= 1.00D+00 WtEn= 0.00D+00
 Coeff-Com:  0.519D-06-0.111D-05-0.450D-05-0.114D-04-0.164D-04 0.177D-04
 Coeff-Com:  0.451D-03 0.876D-03 0.474D-03-0.117D-01-0.277D-01 0.131D-01
 Coeff-Com:  0.277D+00 0.748D+00
 Coeff:      0.519D-06-0.111D-05-0.450D-05-0.114D-04-0.164D-04 0.177D-04
 Coeff:      0.451D-03 0.876D-03 0.474D-03-0.117D-01-0.277D-01 0.131D-01
 Coeff:      0.277D+00 0.748D+00
 Gap=     0.473 Goal=   None    Shift=    0.000
 RMSDP=6.70D-09 MaxDP=3.05D-07 DE=-6.59D-11 OVMax= 1.33D-07

 SCF Done:  E(RwB97XD) =  -1199.82415257     A.U. after   14 cycles
            NFock= 14  Conv=0.67D-08     -V/T= 2.0020
 KE= 1.197416479225D+03 PE=-4.695030057719D+03 EE= 1.373492657144D+03
 Leave Link  502 at Fri May 23 01:53:20 2025, MaxMem=  3758096384 cpu:              67.8 elap:              14.4
 (Enter /apps/easybuild-2022/easybuild/software/Compiler/NVHPC/22.11-CUDA-11.7.0/Gaussian/g16c01-CUDA-11.7.0/g16/l508.exe)
 QCSCF skips out because SCF is already converged.
 Leave Link  508 at Fri May 23 01:53:20 2025, MaxMem=  3758096384 cpu:               0.1 elap:               0.0
 (Enter /apps/easybuild-2022/easybuild/software/Compiler/NVHPC/22.11-CUDA-11.7.0/Gaussian/g16c01-CUDA-11.7.0/g16/l801.exe)
 DoSCS=F DFT=T ScalE2(SS,OS)=  1.000000  1.000000
 Range of M.O.s used for correlation:     1   257
 NBasis=   257 NAE=    49 NBE=    49 NFC=     0 NFV=     0
 NROrb=    257 NOA=    49 NOB=    49 NVA=   208 NVB=   208

 **** Warning!!: The largest alpha MO coefficient is  0.41721353D+02

 Leave Link  801 at Fri May 23 01:53:20 2025, MaxMem=  3758096384 cpu:               0.0 elap:               0.0
 (Enter /apps/easybuild-2022/easybuild/software/Compiler/NVHPC/22.11-CUDA-11.7.0/Gaussian/g16c01-CUDA-11.7.0/g16/l1101.exe)
 Using compressed storage, NAtomX=    12.
 Will process     13 centers per pass.
 R6Disp: Adding Grimme-D2 dispersion energy 1st derivatives to the gradient.
 Leave Link 1101 at Fri May 23 01:53:21 2025, MaxMem=  3758096384 cpu:               0.7 elap:               0.3
 (Enter /apps/easybuild-2022/easybuild/software/Compiler/NVHPC/22.11-CUDA-11.7.0/Gaussian/g16c01-CUDA-11.7.0/g16/l1102.exe)
 Symmetrizing basis deriv contribution to polar:
 IMax=3 JMax=2 DiffMx= 0.00D+00
 Leave Link 1102 at Fri May 23 01:53:21 2025, MaxMem=  3758096384 cpu:               0.1 elap:               0.0
 (Enter /apps/easybuild-2022/easybuild/software/Compiler/NVHPC/22.11-CUDA-11.7.0/Gaussian/g16c01-CUDA-11.7.0/g16/l1110.exe)
 Forming Gx(P) for the SCF density, NAtomX=    12.
 Integral derivatives from FoFJK, PRISM(SPDF).
 Do as many integral derivatives as possible in FoFJK.
 G2DrvN: MDV=    3758095012.
 G2DrvN: will do    13 centers at a time, making    1 passes.
 Calling FoFCou, ICntrl=  3107 FMM=F I1Cent=   0 AccDes= 0.00D+00.
 FoFJK:  IHMeth= 1 ICntrl=    3107 DoSepK=T KAlg= 0 I1Cent=           0 FoldK=F
 IRaf=         1 NMat=       1 IRICut=       1 DoRegI=T DoRafI=F ISym2E= 0 IDoP0=0 IntGTp=1.
 FoFCou: FMM=F IPFlag=           0 FMFlag=      100000 FMFlg1=           0
         NFxFlg=           0 DoJE=F BraDBF=F KetDBF=F FulRan=T
         wScrn=  0.000000 ICntrl=      3507 IOpCl=  0 I1Cent=           0 NGrid=           0
         NMat0=    1 NMatS0=      1 NMatT0=    0 NMatD0=    1 NMtDS0=    0 NMtDT0=    0
 Symmetry not used in FoFCou.
 End of G2Drv F.D. properties file   721 does not exist.
 End of G2Drv F.D. properties file   722 does not exist.
 End of G2Drv F.D. properties file   788 does not exist.
 Leave Link 1110 at Fri May 23 01:53:45 2025, MaxMem=  3758096384 cpu:             112.1 elap:              23.9
 (Enter /apps/easybuild-2022/easybuild/software/Compiler/NVHPC/22.11-CUDA-11.7.0/Gaussian/g16c01-CUDA-11.7.0/g16/l1002.exe)
 Minotr:  Closed shell wavefunction.
          IDoAtm=111111111111
          Direct CPHF calculation.
          Differentiating once with respect to nuclear coordinates.
          Requested convergence is 1.0D-08 RMS, and 1.0D-07 maximum.
          Secondary convergence is 1.0D-12 RMS, and 1.0D-12 maximum.
          NewPWx=T KeepS1=F KeepF1=F KeepIn=T MapXYZ=F SortEE=F KeepMc=T.
         3710 words used for storage of precomputed grid.
 Keep R1 ints in memory in canonical form, NReq=1117480302.
 FoFCou: FMM=F IPFlag=           0 FMFlag=           0 FMFlg1=           0
         NFxFlg=           0 DoJE=F BraDBF=F KetDBF=F FulRan=T
         wScrn=  0.000000 ICntrl=       600 IOpCl=  0 I1Cent=           0 NGrid=           0
         NMat0=    1 NMatS0=  33153 NMatT0=    0 NMatD0=    1 NMtDS0=    0 NMtDT0=    0
 Symmetry not used in FoFCou.
 Two-electron integral symmetry not used.
          MDV=    3758096384 using IRadAn=       1.
          Solving linear equations simultaneously, MaxMat=       0.
          There are    39 degrees of freedom in the 1st order CPHF.  IDoFFX=6 NUNeed=     0.
     33 vectors produced by pass  0 Test12= 2.61D-14 2.56D-09 XBig12= 3.23D-01 8.69D-02.
 AX will form    33 AO Fock derivatives at one time.
     33 vectors produced by pass  1 Test12= 2.61D-14 2.56D-09 XBig12= 2.81D-02 2.50D-02.
     33 vectors produced by pass  2 Test12= 2.61D-14 2.56D-09 XBig12= 1.29D-03 4.35D-03.
     33 vectors produced by pass  3 Test12= 2.61D-14 2.56D-09 XBig12= 2.09D-05 6.64D-04.
     33 vectors produced by pass  4 Test12= 2.61D-14 2.56D-09 XBig12= 3.58D-07 6.48D-05.
     33 vectors produced by pass  5 Test12= 2.61D-14 2.56D-09 XBig12= 3.85D-09 1.08D-05.
     33 vectors produced by pass  6 Test12= 2.61D-14 2.56D-09 XBig12= 3.12D-11 1.00D-06.
     23 vectors produced by pass  7 Test12= 2.61D-14 2.56D-09 XBig12= 2.44D-13 5.69D-08.
      5 vectors produced by pass  8 Test12= 2.61D-14 2.56D-09 XBig12= 1.59D-15 4.25D-09.
 InvSVY:  IOpt=1 It=  1 EMax= 1.11D-15
 Solved reduced A of dimension   259 with    33 vectors.
 End of Minotr F.D. properties file   721 does not exist.
 End of Minotr F.D. properties file   722 does not exist.
 End of Minotr F.D. properties file   788 does not exist.
 Leave Link 1002 at Fri May 23 01:54:17 2025, MaxMem=  3758096384 cpu:             213.9 elap:              32.0
 (Enter /apps/easybuild-2022/easybuild/software/Compiler/NVHPC/22.11-CUDA-11.7.0/Gaussian/g16c01-CUDA-11.7.0/g16/l701.exe)
 ... and contract with generalized density number  0.
 Compute integral second derivatives.
 R6Disp: Adding Grimme-D2 dispersion energy 2nd derivatives to the Hessian.
 Leave Link  701 at Fri May 23 01:54:17 2025, MaxMem=  3758096384 cpu:               0.9 elap:               0.2
 (Enter /apps/easybuild-2022/easybuild/software/Compiler/NVHPC/22.11-CUDA-11.7.0/Gaussian/g16c01-CUDA-11.7.0/g16/l702.exe)
 L702 exits ... SP integral derivatives will be done elsewhere.
 Leave Link  702 at Fri May 23 01:54:17 2025, MaxMem=  3758096384 cpu:               0.0 elap:               0.0
 (Enter /apps/easybuild-2022/easybuild/software/Compiler/NVHPC/22.11-CUDA-11.7.0/Gaussian/g16c01-CUDA-11.7.0/g16/l703.exe)
 Integral derivatives from FoFJK, PRISM(SPDF).
 Compute integral second derivatives, UseDBF=F ICtDFT=           0.
 Calling FoFJK, ICntrl=    100127 FMM=F ISym2X=0 I1Cent= 0 IOpClX= 0 NMat=1 NMatS=1 NMatT=0.
 FoFJK:  IHMeth= 1 ICntrl=  100127 DoSepK=T KAlg= 0 I1Cent=           0 FoldK=F
 IRaf=         1 NMat=       1 IRICut=       1 DoRegI=T DoRafI=F ISym2E= 0 IDoP0=0 IntGTp=1.
 FoFCou: FMM=F IPFlag=           0 FMFlag=      100000 FMFlg1=         800
         NFxFlg=           0 DoJE=F BraDBF=F KetDBF=F FulRan=T
         wScrn=  0.000000 ICntrl=    100527 IOpCl=  0 I1Cent=           0 NGrid=           0
         NMat0=    1 NMatS0=      1 NMatT0=    0 NMatD0=    1 NMtDS0=    0 NMtDT0=    0
 Symmetry not used in FoFCou.
 Leave Link  703 at Fri May 23 01:54:53 2025, MaxMem=  3758096384 cpu:             285.9 elap:              36.2
 (Enter /apps/easybuild-2022/easybuild/software/Compiler/NVHPC/22.11-CUDA-11.7.0/Gaussian/g16c01-CUDA-11.7.0/g16/l716.exe)
 Dipole        =-2.48251155D-01 8.94405764D-01-5.81450309D-01
 Polarizability= 0.00000000D+00 0.00000000D+00 0.00000000D+00
                 0.00000000D+00 0.00000000D+00 0.00000000D+00
 -------------------------------------------------------------------
 Center     Atomic                   Forces (Hartrees/Bohr)
 Number     Number              X              Y              Z
 -------------------------------------------------------------------
      1        6          -0.000002346   -0.000006364   -0.000014414
      2        6          -0.000019976    0.000000457    0.000009723
      3        9           0.000011324    0.000013744   -0.000007774
      4        9          -0.000006041   -0.000010300    0.000005896
      5       16           0.000019431    0.000008876    0.000034690
      6        8          -0.000025099   -0.000010717   -0.000019314
      7        8          -0.000007728    0.000006599   -0.000021720
      8        8           0.000007454    0.000009502    0.000011860
      9        9           0.000016505   -0.000007448    0.000005380
     10        9           0.000019626    0.000008353    0.000027284
     11        9           0.000005478   -0.000006175   -0.000009906
     12        1          -0.000018626   -0.000006527   -0.000021705
 -------------------------------------------------------------------
 Cartesian Forces:  Max     0.000034690 RMS     0.000014457
 Force constants in Cartesian coordinates: 
                1             2             3             4             5 
      1  0.558806D+00
      2 -0.100284D-01  0.574018D+00
      3  0.135617D-01 -0.903337D-02  0.557260D+00
      4 -0.845807D-01  0.253991D-01 -0.218264D-01  0.430870D+00
      5  0.543049D-01 -0.103281D+00  0.553895D-01  0.115136D-01  0.524664D+00
      6 -0.448361D-01  0.558195D-01 -0.860752D-01 -0.154167D-01 -0.856315D-02
      7  0.278072D-02  0.111327D-02 -0.349731D-02 -0.100203D+00  0.501451D-02
      8 -0.101163D-01  0.390222D-02  0.150996D-01  0.435609D-02 -0.705840D-01
      9  0.251170D-01 -0.107971D-01 -0.450942D-01  0.749434D-01  0.518447D-03
     10  0.534966D-03  0.555737D-02 -0.157545D-02 -0.948817D-01 -0.760960D-01
     11 -0.210602D-01 -0.436617D-01 -0.235381D-01 -0.612214D-01 -0.273515D+00
     12  0.430395D-02  0.655049D-02  0.634812D-02 -0.198784D-01 -0.520316D-01
     13 -0.124223D-01  0.231581D-01 -0.198999D-01 -0.144818D+00 -0.638547D-02
     14  0.245436D-01  0.255424D-01 -0.125999D-02  0.138146D-01 -0.401389D-01
     15 -0.235215D-01 -0.332799D-02  0.216518D-01 -0.157675D-01  0.156462D-01
     16 -0.330496D-02 -0.102001D-01  0.836210D-02  0.475533D-02  0.199234D-01
     17 -0.150633D-02 -0.829864D-03 -0.141973D-02 -0.467769D-02  0.523395D-03
     18  0.169170D-02 -0.493695D-02  0.677978D-03  0.139921D-01  0.106821D-01
     19  0.877138D-03 -0.703098D-02  0.322606D-02  0.135192D-01  0.131614D-01
     20 -0.283856D-02 -0.274784D-02 -0.127483D-03 -0.854426D-02 -0.131634D-02
     21  0.494838D-02  0.302978D-02 -0.117259D-01 -0.116633D-01 -0.135256D-01
     22  0.420988D-02  0.129042D-02  0.428196D-02  0.123572D-01 -0.173945D-01
     23 -0.508709D-02 -0.148976D-01  0.237569D-02  0.171573D-01 -0.956567D-02
     24  0.425635D-02  0.342402D-02 -0.462625D-02 -0.115254D-02  0.125306D-02
     25 -0.773383D-01  0.819550D-02 -0.207676D-02  0.751355D-02  0.934840D-02
     26  0.994274D-02 -0.273189D+00 -0.608741D-01 -0.222625D-02 -0.351408D-01
     27 -0.123860D-03 -0.710301D-01 -0.103795D+00 -0.598328D-04  0.382898D-02
     28 -0.103267D+00 -0.913233D-02  0.676021D-01  0.434011D-02  0.748947D-03
     29 -0.571765D-02 -0.836389D-01  0.280410D-01 -0.115973D-01  0.718352D-02
     30  0.646160D-01  0.337890D-01 -0.250143D+00  0.248418D-01 -0.731453D-02
     31 -0.281152D+00 -0.247490D-01 -0.504998D-01 -0.496382D-01 -0.111281D-01
     32 -0.308337D-01 -0.832597D-01 -0.531311D-02  0.173083D-01  0.200374D-02
     33 -0.492352D-01 -0.287512D-02 -0.881785D-01 -0.299691D-01 -0.415991D-02
     34 -0.514307D-02 -0.357296D-02  0.234173D-02  0.766083D-03 -0.301112D-02
     35 -0.160306D-02  0.204201D-02  0.660083D-03 -0.128209D-02 -0.833111D-03
     36 -0.778458D-03 -0.612176D-03  0.370093D-02  0.195652D-02 -0.172346D-02
                6             7             8             9            10 
      6  0.537891D+00
      7  0.814302D-01  0.961242D-01
      8 -0.837924D-02 -0.130422D-01  0.806204D-01
      9 -0.286519D+00 -0.102984D+00  0.429128D-01  0.386569D+00
     10 -0.186267D-01  0.147424D-01  0.113042D-01  0.178219D-02  0.918827D-01
     11 -0.401096D-01  0.301834D-02 -0.179143D-01 -0.426930D-01  0.860729D-01
     12 -0.822448D-01 -0.627388D-02 -0.571248D-01 -0.373701D-01  0.271118D-01
     13  0.706324D-02 -0.471500D-02  0.295593D-02 -0.805518D-03 -0.295388D-02
     14  0.136211D-01  0.588860D-02  0.125130D-02 -0.553643D-02 -0.361556D-01
     15 -0.357030D-01  0.368656D-01 -0.188454D-02 -0.284676D-01 -0.786417D-02
     16 -0.257040D-01 -0.632246D-03 -0.232052D-03 -0.381917D-03 -0.370986D-02
     17  0.690992D-02 -0.660415D-03  0.478302D-03 -0.694832D-03  0.493719D-02
     18 -0.170033D-01 -0.288003D-02 -0.693037D-03  0.112671D-01 -0.342348D-02
     19  0.156383D-01 -0.112372D-01  0.895323D-03  0.830393D-02 -0.189142D-02
     20 -0.807414D-02  0.324203D-02  0.293714D-03 -0.891341D-03  0.242174D-02
     21 -0.510302D-02  0.483380D-02 -0.690387D-03 -0.841061D-03  0.140642D-02
     22 -0.171678D-02 -0.350609D-02  0.107297D-02  0.368068D-02 -0.902448D-02
     23 -0.329499D-02 -0.642153D-02  0.241252D-02  0.531381D-02 -0.687049D-02
     24  0.562224D-02 -0.202010D-02 -0.403582D-03  0.200246D-02  0.246945D-02
     25  0.812770D-02  0.876801D-03 -0.463038D-04 -0.230830D-02 -0.724392D-04
     26 -0.279496D-01 -0.292736D-03  0.222182D-02  0.340706D-02  0.359302D-02
     27  0.196845D-02 -0.144451D-02  0.418094D-02  0.448719D-02  0.278354D-03
     28 -0.532896D-04  0.150376D-02  0.548580D-03 -0.224111D-02  0.101210D-02
     29  0.184061D-01  0.147261D-02 -0.332028D-02  0.759947D-02  0.754671D-03
     30 -0.320045D-01 -0.401606D-02  0.673122D-02 -0.898401D-02 -0.151388D-02
     31 -0.603578D-02  0.432925D-02  0.178979D-02 -0.471267D-02  0.544854D-02
     32  0.297614D-02 -0.315056D-03  0.523499D-03  0.126732D-02  0.436237D-02
     33 -0.423343D-03  0.556571D-03 -0.399081D-04  0.269211D-02  0.172945D-02
     34  0.129835D-03 -0.640215D-04  0.513995D-03 -0.393886D-03 -0.108692D-02
     35 -0.136215D-02  0.982536D-03  0.114806D-03 -0.406184D-03  0.118712D-03
     36 -0.406300D-03 -0.570565D-03  0.290867D-03  0.257447D-03 -0.177402D-02
               11            12            13            14            15 
     11  0.356627D+00
     12  0.102616D+00  0.107625D+00
     13 -0.436745D-03 -0.416592D-03  0.523766D+00
     14 -0.256820D-01 -0.998108D-02 -0.836763D-01  0.616731D+00
     15 -0.111632D-01 -0.324822D-02 -0.240980D-02 -0.168344D-01  0.121969D+01
     16 -0.597974D-02 -0.929011D-03 -0.141208D+00  0.633690D-01 -0.157754D+00
     17  0.576185D-02  0.140664D-02  0.595730D-01 -0.147737D+00  0.179789D+00
     18 -0.416242D-02  0.769099D-03 -0.152822D+00  0.181877D+00 -0.558458D+00
     19 -0.156249D-02 -0.560264D-03 -0.145946D+00  0.672702D-01  0.155656D+00
     20  0.655203D-02  0.351231D-02  0.662742D-01 -0.166885D+00 -0.188200D+00
     21  0.605978D-02  0.403346D-02  0.148957D+00 -0.182444D+00 -0.511452D+00
     22 -0.609113D-02 -0.200031D-02 -0.753310D-01 -0.436168D-01  0.405724D-02
     23 -0.200229D-02 -0.161187D-02 -0.361443D-01 -0.222595D+00 -0.167890D-01
     24  0.164074D-02  0.119717D-02  0.938349D-02  0.146877D-01 -0.915050D-01
     25  0.503121D-02 -0.153201D-02 -0.136130D-03 -0.498089D-02  0.132423D-02
     26 -0.107847D-01  0.476331D-02 -0.768907D-02 -0.893743D-02  0.000000D+00
     27  0.391975D-02  0.351927D-03  0.766827D-03 -0.256972D-02 -0.336652D-02
     28  0.566873D-03 -0.497272D-03 -0.299253D-02 -0.285964D-02  0.751655D-02
     29  0.892482D-03 -0.156489D-03 -0.270789D-02 -0.486759D-02 -0.102818D-02
     30  0.699186D-02  0.216581D-02  0.623745D-02  0.751391D-03 -0.753816D-02
     31  0.161619D-02  0.105551D-02  0.882016D-02  0.151451D-02 -0.171153D-02
     32  0.384704D-02  0.209643D-02 -0.385820D-02 -0.520215D-02  0.250755D-02
     33  0.145319D-02  0.881468D-03  0.590346D-02  0.302410D-02 -0.478290D-02
     34  0.462010D-04 -0.383566D-03 -0.206277D-02 -0.511123D-02  0.360876D-02
     35 -0.120498D-03 -0.398548D-04 -0.110632D-01 -0.214806D-01  0.412845D-01
     36 -0.101538D-02 -0.509190D-03 -0.195843D-02  0.466409D-02  0.318438D-02
               16            17            18            19            20 
     16  0.110814D+00
     17 -0.675348D-01  0.146228D+00
     18  0.163422D+00 -0.207222D+00  0.580676D+00
     19  0.208368D-01  0.275426D-03 -0.128973D-01  0.113043D+00
     20  0.111067D-03  0.147226D-01  0.172143D-01 -0.761748D-01  0.162751D+00
     21  0.144611D-01 -0.171422D-01 -0.171644D-01 -0.162962D+00  0.213455D+00
     22  0.134787D-01  0.369598D-02 -0.452974D-03  0.163868D-01  0.971751D-02
     23 -0.569140D-02 -0.141806D-01  0.412461D-02 -0.463119D-02 -0.213835D-01
     24  0.321410D-02  0.403628D-01 -0.476600D-02 -0.300846D-02 -0.336681D-01
     25  0.264593D-03  0.661838D-03 -0.509505D-03  0.265634D-04  0.839925D-03
     26  0.331728D-02  0.441060D-03  0.188880D-02  0.224795D-02  0.112337D-02
     27 -0.284836D-03  0.331030D-03  0.617919D-03  0.990326D-04  0.384352D-03
     28  0.133605D-02  0.353261D-03 -0.136578D-02 -0.103683D-02  0.187667D-02
     29  0.910718D-03  0.388992D-03  0.564391D-03  0.265080D-02  0.123874D-03
     30 -0.209125D-02  0.208655D-03  0.707757D-03 -0.205314D-02  0.537625D-03
     31 -0.397916D-02  0.114613D-02 -0.296545D-02 -0.239454D-02  0.113499D-02
     32  0.203805D-02  0.211077D-03  0.664023D-03  0.111600D-02  0.618778D-03
     33 -0.298733D-02  0.421587D-03 -0.906635D-03 -0.146872D-02  0.192920D-04
     34  0.134866D-02  0.373649D-02 -0.178971D-02 -0.218301D-02  0.193944D-02
     35 -0.313684D-04 -0.600713D-02  0.000000D+00  0.178235D-02  0.614716D-02
     36  0.673192D-03 -0.295072D-02  0.358251D-02  0.261467D-04 -0.416180D-02
               21            22            23            24            25 
     21  0.532185D+00
     22  0.114632D-02  0.719542D-01
     23 -0.574188D-02  0.813527D-01  0.341915D+00
     24  0.421531D-02 -0.102710D+00 -0.133810D+00  0.540619D+00
     25  0.282012D-04 -0.543922D-02  0.368868D-02 -0.753974D-03  0.839281D-01
     26  0.234795D-03  0.984037D-03  0.659835D-02 -0.968537D-03  0.150863D-01
     27  0.184356D-02 -0.166115D-02  0.142379D-02  0.908782D-03  0.335197D-02
     28 -0.430264D-02 -0.724282D-03  0.103661D-02 -0.255800D-02  0.688602D-02
     29  0.102082D-02 -0.263267D-03  0.305790D-02 -0.108859D-02  0.188658D-01
     30  0.521857D-02 -0.214814D-02 -0.164965D-02  0.119439D-02  0.200506D-01
     31  0.162430D-02 -0.150308D-02 -0.414189D-03 -0.925103D-04 -0.172279D-01
     32 -0.109165D-02 -0.263901D-03  0.276122D-02 -0.770592D-03 -0.568164D-01
     33  0.246571D-02 -0.827358D-03 -0.119904D-02  0.891335D-03 -0.253931D-01
     34  0.152191D-02 -0.228587D-01 -0.379750D-01  0.929724D-01  0.718360D-03
     35 -0.316458D-02 -0.304840D-01 -0.721211D-01  0.109341D+00  0.125859D-03
     36 -0.367572D-02  0.983507D-01  0.150858D+00 -0.455754D+00 -0.309024D-03
               26            27            28            29            30 
     26  0.355602D+00
     27  0.139861D+00  0.146137D+00
     28  0.135949D-01  0.195090D-01  0.151016D+00
     29 -0.525060D-02 -0.538926D-01  0.918326D-02  0.761299D-01
     30 -0.372729D-01 -0.488964D-01 -0.136578D+00 -0.897317D-02  0.337977D+00
     31 -0.397359D-01 -0.201132D-01 -0.598291D-01 -0.146534D-01  0.337831D-01
     32 -0.315056D-01 -0.262820D-01 -0.166127D-01  0.986145D-02  0.633708D-02
     33 -0.230299D-01  0.407897D-03  0.522361D-01  0.903335D-02  0.236518D-02
     34  0.117772D-02 -0.317857D-03  0.175565D-02  0.110163D-02 -0.112804D-02
     35 -0.117865D-02 -0.154902D-03  0.695590D-03 -0.560754D-03 -0.136619D-03
     36 -0.595844D-04 -0.664812D-03  0.732711D-03  0.473873D-03 -0.206277D-02
               31            32            33            34            35 
     31  0.395833D+00
     32  0.831663D-01  0.100428D+00
     33  0.496244D-01  0.173933D-01  0.852050D-01
     34  0.129295D-02  0.708956D-03 -0.169229D-03  0.275168D-01
     35  0.312764D-03 -0.287230D-03 -0.409667D-04  0.404459D-01  0.942851D-01
     36  0.435734D-04  0.215487D-03 -0.617305D-03 -0.963923D-01 -0.145979D+00
               36 
     36  0.452965D+00
 FormGI is forming the generalized inverse of G from B-inverse, IUseBI=4.
 Leave Link  716 at Fri May 23 01:54:53 2025, MaxMem=  3758096384 cpu:               0.1 elap:               0.0
 (Enter /apps/easybuild-2022/easybuild/software/Compiler/NVHPC/22.11-CUDA-11.7.0/Gaussian/g16c01-CUDA-11.7.0/g16/l103.exe)

 GradGradGradGradGradGradGradGradGradGradGradGradGradGradGradGradGradGrad
 Berny optimization.
 Red2BG is reusing G-inverse.
 Internal  Forces:  Max     0.000088151 RMS     0.000021013
 Search for a local minimum.
 Step number   1 out of a maximum of   61
 All quantities printed in internal units (Hartrees-Bohrs-Radians)
 RMS Force = .21013D-04 SwitMx=.10000D-02 MixMth= 2
 Mixed Optimization -- En-DIIS/RFO-DIIS
 Second derivative matrix not updated -- analytic derivatives used.
 ITU=  0
     Eigenvalues ---    0.00148   0.00296   0.00397   0.05050   0.08516
     Eigenvalues ---    0.09617   0.10294   0.10616   0.11398   0.12350
     Eigenvalues ---    0.14061   0.15764   0.16889   0.18227   0.20489
     Eigenvalues ---    0.22616   0.23904   0.24314   0.25338   0.29752
     Eigenvalues ---    0.32396   0.37576   0.38404   0.39190   0.39670
     Eigenvalues ---    0.49067   0.52754   0.56032   0.68941   0.71793
 RFO step:  Lambda=-4.85566143D-07 EMin= 1.47751101D-03
 Linear search not attempted -- first point.
 Iteration  1 RMS(Cart)=  0.00195706 RMS(Int)=  0.00000249
 Iteration  2 RMS(Cart)=  0.00000254 RMS(Int)=  0.00000001
 Iteration  3 RMS(Cart)=  0.00000000 RMS(Int)=  0.00000001
 ITry= 1 IFail=0 DXMaxC= 6.18D-03 DCOld= 1.00D+10 DXMaxT= 3.00D-01 DXLimC= 3.00D+00 Rises=F
 Variable       Old X    -DE/DX   Delta X   Delta X   Delta X     New X
                                 (Linear)    (Quad)   (Total)
    R1        2.94461  -0.00003   0.00000   0.00006   0.00006   2.94467
    R2        2.50587  -0.00000   0.00000  -0.00001  -0.00001   2.50586
    R3        2.52111  -0.00001   0.00000   0.00012   0.00012   2.52123
    R4        2.50458  -0.00000   0.00000  -0.00011  -0.00011   2.50448
    R5        2.51244  -0.00001   0.00000  -0.00004  -0.00004   2.51240
    R6        2.52066   0.00001   0.00000  -0.00003  -0.00003   2.52063
    R7        3.56120  -0.00002   0.00000  -0.00009  -0.00009   3.56111
    R8        2.69716  -0.00002   0.00000  -0.00004  -0.00004   2.69713
    R9        2.71323   0.00001   0.00000   0.00000   0.00000   2.71323
   R10        3.03265   0.00000   0.00000   0.00004   0.00004   3.03269
   R11        1.82647   0.00002   0.00000   0.00005   0.00005   1.82652
    A1        1.93082  -0.00002   0.00000  -0.00023  -0.00023   1.93058
    A2        1.92753  -0.00003   0.00000  -0.00004  -0.00004   1.92749
    A3        1.90876   0.00001   0.00000   0.00031   0.00031   1.90907
    A4        1.89689   0.00001   0.00000  -0.00016  -0.00016   1.89673
    A5        1.90075   0.00002   0.00000   0.00016   0.00016   1.90091
    A6        1.89859   0.00001   0.00000  -0.00003  -0.00003   1.89856
    A7        1.89869   0.00002   0.00000   0.00011   0.00011   1.89879
    A8        1.90120   0.00003   0.00000   0.00023   0.00023   1.90143
    A9        2.01007  -0.00009   0.00000  -0.00060  -0.00060   2.00947
   A10        1.91226  -0.00001   0.00000   0.00001   0.00001   1.91227
   A11        1.89349   0.00003   0.00000   0.00008   0.00008   1.89357
   A12        1.84634   0.00002   0.00000   0.00019   0.00019   1.84653
   A13        1.85449  -0.00001   0.00000   0.00005   0.00005   1.85453
   A14        1.87399  -0.00001   0.00000  -0.00011  -0.00011   1.87389
   A15        1.75714  -0.00003   0.00000  -0.00011  -0.00011   1.75704
   A16        2.16079   0.00001   0.00000   0.00008   0.00008   2.16087
   A17        1.87256   0.00003   0.00000   0.00000   0.00000   1.87256
   A18        1.90276  -0.00000   0.00000   0.00004   0.00004   1.90280
   A19        1.92135  -0.00003   0.00000  -0.00017  -0.00017   1.92118
    D1        0.78507  -0.00000   0.00000  -0.00328  -0.00328   0.78179
    D2        2.86864   0.00001   0.00000  -0.00306  -0.00306   2.86558
    D3       -1.34427   0.00000   0.00000  -0.00305  -0.00305  -1.34732
    D4        2.88591  -0.00003   0.00000  -0.00366  -0.00366   2.88225
    D5       -1.31370  -0.00001   0.00000  -0.00344  -0.00344  -1.31714
    D6        0.75657  -0.00002   0.00000  -0.00343  -0.00343   0.75314
    D7       -1.30846  -0.00002   0.00000  -0.00352  -0.00352  -1.31197
    D8        0.77512  -0.00000   0.00000  -0.00330  -0.00330   0.77182
    D9        2.84539  -0.00001   0.00000  -0.00329  -0.00329   2.84210
   D10        2.64915   0.00001   0.00000   0.00031   0.00031   2.64947
   D11       -1.29003   0.00001   0.00000   0.00037   0.00037  -1.28966
   D12        0.69935  -0.00001   0.00000   0.00034   0.00034   0.69969
   D13        0.51702   0.00002   0.00000   0.00053   0.00053   0.51755
   D14        2.86102   0.00002   0.00000   0.00059   0.00059   2.86160
   D15       -1.43278  -0.00000   0.00000   0.00055   0.00055  -1.43224
   D16       -1.53343   0.00000   0.00000   0.00038   0.00038  -1.53306
   D17        0.81057   0.00000   0.00000   0.00044   0.00044   0.81100
   D18        2.79995  -0.00001   0.00000   0.00040   0.00040   2.80035
   D19       -1.71953   0.00002   0.00000   0.00314   0.00314  -1.71639
   D20        2.62781   0.00003   0.00000   0.00313   0.00313   2.63094
   D21        0.24795  -0.00001   0.00000   0.00299   0.00299   0.25094
         Item               Value     Threshold  Converged?
 Maximum Force            0.000088     0.000015     NO 
 RMS     Force            0.000021     0.000010     NO 
 Maximum Displacement     0.006180     0.000060     NO 
 RMS     Displacement     0.001957     0.000040     NO 
 Predicted change in Energy=-2.427831D-07
 Lowest energy point so far.  Saving SCF results.
 GradGradGradGradGradGradGradGradGradGradGradGradGradGradGradGradGradGrad

 Leave Link  103 at Fri May 23 01:54:53 2025, MaxMem=  3758096384 cpu:               0.1 elap:               0.0
 (Enter /apps/easybuild-2022/easybuild/software/Compiler/NVHPC/22.11-CUDA-11.7.0/Gaussian/g16c01-CUDA-11.7.0/g16/l202.exe)
                          Input orientation:                          
 ---------------------------------------------------------------------
 Center     Atomic      Atomic             Coordinates (Angstroms)
 Number     Number       Type             X           Y           Z
 ---------------------------------------------------------------------
      1          6           0       -0.662062    1.079340   -0.907641
      2          6           0       -0.000021    0.000051    0.000646
      3          9           0       -0.421092    0.174460    1.249593
      4          9           0       -0.363654   -1.209389   -0.428545
      5         16           0        1.884437   -0.000383   -0.000274
      6          8           0        2.284497   -0.507247    1.272559
      7          8           0        2.312234   -0.557602   -1.252457
      8          8           0        2.181957    1.576625   -0.000629
      9          9           0       -0.610776    2.271532   -0.329328
     10          9           0       -0.034776    1.147437   -2.083184
     11          9           0       -1.930495    0.758528   -1.118847
     12          1           0        2.372452    1.878110   -0.898984
 ---------------------------------------------------------------------
                    Distance matrix (angstroms):
                    1          2          3          4          5
     1  C    0.000000
     2  C    1.558252   0.000000
     3  F    2.351708   1.329506   0.000000
     4  F    2.357300   1.333859   2.175887   0.000000
     5  S    2.910974   1.884458   2.628346   2.588247   0.000000
     6  O    3.994088   2.663482   2.790245   3.224820   1.427257
     7  O    3.412464   2.688450   3.777200   2.874723   1.435780
     8  O    3.026285   2.691954   3.210138   3.798042   1.604828
     9  F    1.326046   2.375191   2.631859   3.491092   3.390570
    10  F    1.334176   2.379087   3.493326   2.898383   3.056041
    11  F    1.325312   2.356965   2.868613   2.608488   4.047327
    12  H    3.137895   3.156750   3.914422   4.152137   2.138826
                    6          7          8          9         10
     6  O    0.000000
     7  O    2.525670   0.000000
     8  O    2.444186   2.477694   0.000000
     9  F    4.320910   4.171349   2.896601   0.000000
    10  F    4.402047   3.017569   3.071667   2.161336   0.000000
    11  F    5.008709   4.444187   4.339580   2.157354   2.162163
    12  H    3.226959   2.461963   0.966552   3.062506   2.780461
                   11         12
    11  F    0.000000
    12  H    4.451647   0.000000
 Symmetry turned off by external request.
 Stoichiometry    C2HF5O3S
 Rotational constants (GHZ):           1.5569048           0.8459889           0.7873682
 Leave Link  202 at Fri May 23 01:54:53 2025, MaxMem=  3758096384 cpu:               0.0 elap:               0.0
 (Enter /apps/easybuild-2022/easybuild/software/Compiler/NVHPC/22.11-CUDA-11.7.0/Gaussian/g16c01-CUDA-11.7.0/g16/l301.exe)
 Standard basis: 6-311++G(d,p) (5D, 7F)
 Ernie: Thresh=  0.10000D-02 Tol=  0.10000D-05 Strict=F.
   257 basis functions,   419 primitive gaussians,   268 cartesian basis functions
    49 alpha electrons       49 beta electrons
       nuclear repulsion energy       924.3543840824 Hartrees.
 IExCor= 4639 DFT=T Ex+Corr=wB97XD ExCW=0 ScaHFX=  1.000000
 ScaDFX=  1.000000  1.000000  1.000000  1.000000 ScalE2=  1.000000  1.000000
 IRadAn=      5 IRanWt=     -1 IRanGd=            0 ICorTp=0 IEmpDi=121
 HFx  wShort=  0.000000 wLong=  0.200000 cFull=  0.222036 cShort=  0.000000 cLong=  0.777964
 DFx  wShort=  0.000000 wLong=  0.200000 cFull=  0.000000 cShort=  0.000000 cLong=  1.000000
 NAtoms=   12 NActive=   12 NUniq=   12 SFac= 1.00D+00 NAtFMM=   60 NAOKFM=F Big=F
 Integral buffers will be    131072 words long.
 Raffenetti 2 integral format.
 Two-electron integral symmetry is turned off.
 R6Disp:  Grimme-D2 Dispersion energy=       -0.0058494336 Hartrees.
 Nuclear repulsion after empirical dispersion term =      924.3485346487 Hartrees.
 Leave Link  301 at Fri May 23 01:54:53 2025, MaxMem=  3758096384 cpu:               0.1 elap:               0.0
 (Enter /apps/easybuild-2022/easybuild/software/Compiler/NVHPC/22.11-CUDA-11.7.0/Gaussian/g16c01-CUDA-11.7.0/g16/l302.exe)
 NPDir=0 NMtPBC=     1 NCelOv=     1 NCel=       1 NClECP=     1 NCelD=      1
         NCelK=      1 NCelE2=     1 NClLst=     1 CellRange=     0.0.
 One-electron integrals computed using PRISM.
 NBasis=   257 RedAO= T EigKep=  5.59D-05  NBF=   257
 NBsUse=   257 1.00D-06 EigRej= -1.00D+00 NBFU=   257
 Precomputing XC quadrature grid using
 IXCGrd= 4 IRadAn=           5 IRanWt=          -1 IRanGd=           0 AccXCQ= 0.00D+00.
 Generated NRdTot=       0 NPtTot=           0 NUsed=           0 NTot=          32
 NSgBfM=   268   268   268   268   268 MxSgAt=    12 MxSgA2=    12.
 Leave Link  302 at Fri May 23 01:54:54 2025, MaxMem=  3758096384 cpu:               0.7 elap:               0.2
 (Enter /apps/easybuild-2022/easybuild/software/Compiler/NVHPC/22.11-CUDA-11.7.0/Gaussian/g16c01-CUDA-11.7.0/g16/l303.exe)
 DipDrv:  MaxL=1.
 Leave Link  303 at Fri May 23 01:54:54 2025, MaxMem=  3758096384 cpu:               0.1 elap:               0.0
 (Enter /apps/easybuild-2022/easybuild/software/Compiler/NVHPC/22.11-CUDA-11.7.0/Gaussian/g16c01-CUDA-11.7.0/g16/l401.exe)
 Initial guess from the checkpoint file:  "/tmp/Gau-2941.chk"
 B after Tr=     0.000290    0.000018   -0.000072
         Rot=    1.000000   -0.000051    0.000064    0.000044 Ang=  -0.01 deg.
 Guess basis will be translated and rotated to current coordinates.
 JPrj=2 DoOrth=T DoCkMO=T.
 Leave Link  401 at Fri May 23 01:54:54 2025, MaxMem=  3758096384 cpu:               0.4 elap:               0.2
 (Enter /apps/easybuild-2022/easybuild/software/Compiler/NVHPC/22.11-CUDA-11.7.0/Gaussian/g16c01-CUDA-11.7.0/g16/l502.exe)
 Keep R1 ints in memory in canonical form, NReq=1117474609.
 FoFCou: FMM=F IPFlag=           0 FMFlag=           0 FMFlg1=           0
         NFxFlg=           0 DoJE=F BraDBF=F KetDBF=F FulRan=T
         wScrn=  0.000000 ICntrl=       600 IOpCl=  0 I1Cent=           0 NGrid=           0
         NMat0=    1 NMatS0=  33153 NMatT0=    0 NMatD0=    1 NMtDS0=    0 NMtDT0=    0
 Symmetry not used in FoFCou.
 Two-electron integral symmetry not used.
 Closed shell SCF:
 Using DIIS extrapolation, IDIIS=  1040.
 NGot=  3758096384 LenX=  2658793876 LenY=  2658721611
 Requested convergence on RMS density matrix=1.00D-08 within  32 cycles.
 Requested convergence on MAX density matrix=1.00D-06.
 Requested convergence on             energy=1.00D-06.
 No special actions if energy rises.

 Cycle   1  Pass 1  IDiag  1:
 E= -1199.82413959831    
 DIIS: error= 1.25D-04 at cycle   1 NSaved=   1.
 NSaved= 1 IEnMin= 1 EnMin= -1199.82413959831     IErMin= 1 ErrMin= 1.25D-04
 ErrMax= 1.25D-04  0.00D+00 EMaxC= 1.00D-01 BMatC= 8.91D-06 BMatP= 8.91D-06
 IDIUse=3 WtCom= 9.99D-01 WtEn= 1.25D-03
 Coeff-Com:  0.100D+01
 Coeff-En:   0.100D+01
 Coeff:      0.100D+01
 Gap=     0.726 Goal=   None    Shift=    0.000
 RMSDP=3.20D-05 MaxDP=9.34D-04              OVMax= 7.97D-04

 Cycle   2  Pass 1  IDiag  1:
 E= -1199.82415218997     Delta-E=       -0.000012591662 Rises=F Damp=F
 DIIS: error= 2.69D-05 at cycle   2 NSaved=   2.
 NSaved= 2 IEnMin= 2 EnMin= -1199.82415218997     IErMin= 2 ErrMin= 2.69D-05
 ErrMax= 2.69D-05  0.00D+00 EMaxC= 1.00D-01 BMatC= 3.25D-07 BMatP= 8.91D-06
 IDIUse=1 WtCom= 1.00D+00 WtEn= 0.00D+00
 Coeff-Com: -0.169D+00 0.117D+01
 Coeff:     -0.169D+00 0.117D+01
 Gap=     0.473 Goal=   None    Shift=    0.000
 RMSDP=6.21D-06 MaxDP=1.77D-04 DE=-1.26D-05 OVMax= 2.22D-04

 Cycle   3  Pass 1  IDiag  1:
 E= -1199.82415277972     Delta-E=       -0.000000589742 Rises=F Damp=F
 DIIS: error= 6.48D-06 at cycle   3 NSaved=   3.
 NSaved= 3 IEnMin= 3 EnMin= -1199.82415277972     IErMin= 3 ErrMin= 6.48D-06
 ErrMax= 6.48D-06  0.00D+00 EMaxC= 1.00D-01 BMatC= 2.95D-08 BMatP= 3.25D-07
 IDIUse=1 WtCom= 1.00D+00 WtEn= 0.00D+00
 Coeff-Com: -0.438D-01 0.239D+00 0.804D+00
 Coeff:     -0.438D-01 0.239D+00 0.804D+00
 Gap=     0.473 Goal=   None    Shift=    0.000
 RMSDP=2.63D-06 MaxDP=1.90D-04 DE=-5.90D-07 OVMax= 4.16D-05

 Cycle   4  Pass 1  IDiag  1:
 E= -1199.82415279170     Delta-E=       -0.000000011982 Rises=F Damp=F
 DIIS: error= 6.46D-06 at cycle   4 NSaved=   4.
 NSaved= 4 IEnMin= 4 EnMin= -1199.82415279170     IErMin= 4 ErrMin= 6.46D-06
 ErrMax= 6.46D-06  0.00D+00 EMaxC= 1.00D-01 BMatC= 2.19D-08 BMatP= 2.95D-08
 IDIUse=1 WtCom= 1.00D+00 WtEn= 0.00D+00
 Coeff-Com:  0.304D-02-0.572D-01 0.474D+00 0.580D+00
 Coeff:      0.304D-02-0.572D-01 0.474D+00 0.580D+00
 Gap=     0.473 Goal=   None    Shift=    0.000
 RMSDP=1.19D-06 MaxDP=7.77D-05 DE=-1.20D-08 OVMax= 2.18D-05

 Cycle   5  Pass 1  IDiag  1:
 E= -1199.82415280616     Delta-E=       -0.000000014461 Rises=F Damp=F
 DIIS: error= 5.93D-07 at cycle   5 NSaved=   5.
 NSaved= 5 IEnMin= 5 EnMin= -1199.82415280616     IErMin= 5 ErrMin= 5.93D-07
 ErrMax= 5.93D-07  0.00D+00 EMaxC= 1.00D-01 BMatC= 3.51D-10 BMatP= 2.19D-08
 IDIUse=1 WtCom= 1.00D+00 WtEn= 0.00D+00
 Coeff-Com:  0.356D-02-0.353D-01 0.104D+00 0.174D+00 0.754D+00
 Coeff:      0.356D-02-0.353D-01 0.104D+00 0.174D+00 0.754D+00
 Gap=     0.473 Goal=   None    Shift=    0.000
 RMSDP=1.65D-07 MaxDP=4.77D-06 DE=-1.45D-08 OVMax= 4.45D-06

 Cycle   6  Pass 1  IDiag  1:
 E= -1199.82415280636     Delta-E=       -0.000000000204 Rises=F Damp=F
 DIIS: error= 3.76D-07 at cycle   6 NSaved=   6.
 NSaved= 6 IEnMin= 6 EnMin= -1199.82415280636     IErMin= 6 ErrMin= 3.76D-07
 ErrMax= 3.76D-07  0.00D+00 EMaxC= 1.00D-01 BMatC= 1.03D-10 BMatP= 3.51D-10
 IDIUse=1 WtCom= 1.00D+00 WtEn= 0.00D+00
 Coeff-Com:  0.168D-02-0.131D-01-0.432D-02 0.202D-01 0.387D+00 0.608D+00
 Coeff:      0.168D-02-0.131D-01-0.432D-02 0.202D-01 0.387D+00 0.608D+00
 Gap=     0.473 Goal=   None    Shift=    0.000
 RMSDP=6.44D-08 MaxDP=2.14D-06 DE=-2.04D-10 OVMax= 1.72D-06

 Cycle   7  Pass 1  IDiag  1:
 E= -1199.82415280653     Delta-E=       -0.000000000164 Rises=F Damp=F
 DIIS: error= 6.92D-08 at cycle   7 NSaved=   7.
 NSaved= 7 IEnMin= 7 EnMin= -1199.82415280653     IErMin= 7 ErrMin= 6.92D-08
 ErrMax= 6.92D-08  0.00D+00 EMaxC= 1.00D-01 BMatC= 3.25D-12 BMatP= 1.03D-10
 IDIUse=1 WtCom= 1.00D+00 WtEn= 0.00D+00
 Coeff-Com: -0.262D-04 0.105D-02-0.103D-01-0.125D-01-0.365D-02 0.117D+00
 Coeff-Com:  0.909D+00
 Coeff:     -0.262D-04 0.105D-02-0.103D-01-0.125D-01-0.365D-02 0.117D+00
 Coeff:      0.909D+00
 Gap=     0.473 Goal=   None    Shift=    0.000
 RMSDP=2.64D-08 MaxDP=8.01D-07 DE=-1.64D-10 OVMax= 9.47D-07

 Cycle   8  Pass 1  IDiag  1:
 E= -1199.82415280655     Delta-E=       -0.000000000028 Rises=F Damp=F
 DIIS: error= 5.14D-08 at cycle   8 NSaved=   8.
 NSaved= 8 IEnMin= 8 EnMin= -1199.82415280655     IErMin= 8 ErrMin= 5.14D-08
 ErrMax= 5.14D-08  0.00D+00 EMaxC= 1.00D-01 BMatC= 1.33D-12 BMatP= 3.25D-12
 IDIUse=1 WtCom= 1.00D+00 WtEn= 0.00D+00
 Coeff-Com: -0.191D-03 0.194D-02-0.438D-02-0.808D-02-0.441D-01-0.828D-02
 Coeff-Com:  0.470D+00 0.593D+00
 Coeff:     -0.191D-03 0.194D-02-0.438D-02-0.808D-02-0.441D-01-0.828D-02
 Coeff:      0.470D+00 0.593D+00
 Gap=     0.473 Goal=   None    Shift=    0.000
 RMSDP=1.14D-08 MaxDP=4.97D-07 DE=-2.82D-11 OVMax= 3.35D-07

 Cycle   9  Pass 1  IDiag  1:
 E= -1199.82415280647     Delta-E=        0.000000000083 Rises=F Damp=F
 DIIS: error= 2.00D-08 at cycle   9 NSaved=   9.
 NSaved= 9 IEnMin= 8 EnMin= -1199.82415280655     IErMin= 9 ErrMin= 2.00D-08
 ErrMax= 2.00D-08  0.00D+00 EMaxC= 1.00D-01 BMatC= 1.36D-13 BMatP= 1.33D-12
 IDIUse=1 WtCom= 1.00D+00 WtEn= 0.00D+00
 Coeff-Com: -0.830D-04 0.740D-03-0.571D-03-0.194D-02-0.190D-01-0.201D-01
 Coeff-Com:  0.870D-01 0.273D+00 0.681D+00
 Coeff:     -0.830D-04 0.740D-03-0.571D-03-0.194D-02-0.190D-01-0.201D-01
 Coeff:      0.870D-01 0.273D+00 0.681D+00
 Gap=     0.473 Goal=   None    Shift=    0.000
 RMSDP=3.94D-09 MaxDP=1.37D-07 DE= 8.28D-11 OVMax= 1.53D-07

 SCF Done:  E(RwB97XD) =  -1199.82415281     A.U. after    9 cycles
            NFock=  9  Conv=0.39D-08     -V/T= 2.0020
 KE= 1.197416691924D+03 PE=-4.695131870406D+03 EE= 1.373542491028D+03
 Leave Link  502 at Fri May 23 01:55:04 2025, MaxMem=  3758096384 cpu:              51.9 elap:              10.2
 (Enter /apps/easybuild-2022/easybuild/software/Compiler/NVHPC/22.11-CUDA-11.7.0/Gaussian/g16c01-CUDA-11.7.0/g16/l508.exe)
 QCSCF skips out because SCF is already converged.
 Leave Link  508 at Fri May 23 01:55:04 2025, MaxMem=  3758096384 cpu:               0.0 elap:               0.0
 (Enter /apps/easybuild-2022/easybuild/software/Compiler/NVHPC/22.11-CUDA-11.7.0/Gaussian/g16c01-CUDA-11.7.0/g16/l701.exe)
 ... and contract with generalized density number  0.
 Compute integral first derivatives.
 R6Disp: Adding Grimme-D2 dispersion energy 1st derivatives to the gradient.
 Leave Link  701 at Fri May 23 01:55:04 2025, MaxMem=  3758096384 cpu:               0.5 elap:               0.2
 (Enter /apps/easybuild-2022/easybuild/software/Compiler/NVHPC/22.11-CUDA-11.7.0/Gaussian/g16c01-CUDA-11.7.0/g16/l702.exe)
 L702 exits ... SP integral derivatives will be done elsewhere.
 Leave Link  702 at Fri May 23 01:55:04 2025, MaxMem=  3758096384 cpu:               0.1 elap:               0.0
 (Enter /apps/easybuild-2022/easybuild/software/Compiler/NVHPC/22.11-CUDA-11.7.0/Gaussian/g16c01-CUDA-11.7.0/g16/l703.exe)
 Integral derivatives from FoFJK, PRISM(SPDF).
 Compute integral first derivatives, UseDBF=F ICtDFT=           0.
 Calling FoFJK, ICntrl=      2127 FMM=F ISym2X=0 I1Cent= 0 IOpClX= 0 NMat=1 NMatS=1 NMatT=0.
 FoFJK:  IHMeth= 1 ICntrl=    2127 DoSepK=T KAlg= 0 I1Cent=           0 FoldK=F
 IRaf=         1 NMat=       1 IRICut=       1 DoRegI=T DoRafI=F ISym2E= 0 IDoP0=0 IntGTp=1.
 FoFCou: FMM=F IPFlag=           0 FMFlag=      100000 FMFlg1=         800
         NFxFlg=           0 DoJE=F BraDBF=F KetDBF=F FulRan=T
         wScrn=  0.000000 ICntrl=      2527 IOpCl=  0 I1Cent=           0 NGrid=           0
         NMat0=    1 NMatS0=      1 NMatT0=    0 NMatD0=    1 NMtDS0=    0 NMtDT0=    0
 Symmetry not used in FoFCou.
 Leave Link  703 at Fri May 23 01:55:09 2025, MaxMem=  3758096384 cpu:              35.1 elap:               4.6
 (Enter /apps/easybuild-2022/easybuild/software/Compiler/NVHPC/22.11-CUDA-11.7.0/Gaussian/g16c01-CUDA-11.7.0/g16/l716.exe)
 Dipole        =-2.50942276D-01 8.94068796D-01-5.81450835D-01
 -------------------------------------------------------------------
 Center     Atomic                   Forces (Hartrees/Bohr)
 Number     Number              X              Y              Z
 -------------------------------------------------------------------
      1        6           0.000001117    0.000001286   -0.000000975
      2        6          -0.000000566    0.000000256   -0.000000157
      3        9          -0.000000712    0.000000339   -0.000000563
      4        9          -0.000001397    0.000000795   -0.000000696
      5       16          -0.000000476   -0.000000901    0.000000290
      6        8          -0.000001327   -0.000001855    0.000000304
      7        8          -0.000000661   -0.000001296    0.000000232
      8        8           0.000000551   -0.000001533    0.000000486
      9        9           0.000000838    0.000001053    0.000000086
     10        9           0.000000204    0.000000935   -0.000000038
     11        9           0.000000313    0.000002122   -0.000000663
     12        1           0.000002117   -0.000001202    0.000001695
 -------------------------------------------------------------------
 Cartesian Forces:  Max     0.000002122 RMS     0.000001004
 Leave Link  716 at Fri May 23 01:55:09 2025, MaxMem=  3758096384 cpu:               0.0 elap:               0.0
 (Enter /apps/easybuild-2022/easybuild/software/Compiler/NVHPC/22.11-CUDA-11.7.0/Gaussian/g16c01-CUDA-11.7.0/g16/l103.exe)

 GradGradGradGradGradGradGradGradGradGradGradGradGradGradGradGradGradGrad
 Berny optimization.
 Using GEDIIS/GDIIS optimizer.
 FormGI is forming the generalized inverse of G from B-inverse, IUseBI=4.
 Internal  Forces:  Max     0.000002936 RMS     0.000000709
 Search for a local minimum.
 Step number   2 out of a maximum of   61
 All quantities printed in internal units (Hartrees-Bohrs-Radians)
 RMS Force = .70923D-06 SwitMx=.10000D-02 MixMth= 2
 Mixed Optimization -- En-DIIS/RFO-DIIS
 Swapping is turned off.
 Update second derivatives using D2CorX and points    1    2
 DE= -2.40D-07 DEPred=-2.43D-07 R= 9.87D-01
 Trust test= 9.87D-01 RLast= 1.15D-02 DXMaxT set to 3.00D-01
 ITU=  0  0
     Eigenvalues ---    0.00149   0.00295   0.00400   0.05050   0.08517
     Eigenvalues ---    0.09617   0.10296   0.10622   0.11405   0.12353
     Eigenvalues ---    0.14061   0.15763   0.16888   0.18228   0.20483
     Eigenvalues ---    0.22618   0.23923   0.24313   0.25365   0.29828
     Eigenvalues ---    0.32397   0.37576   0.38404   0.39192   0.39705
     Eigenvalues ---    0.49067   0.52756   0.56032   0.68940   0.71791
 En-DIIS/RFO-DIIS/Sim-DIIS IScMMF=       -3 using points:     2    1
 RFO step:  Lambda=-1.01366090D-10.
 NNeg= 0 NGDIIS= 2 SimSw=  2.50D-03 Rises=F DC= -2.40D-07 SmlDif=  1.00D-05
 NRisDI= 0 DoIntr=F SqrtH=F CThrHd= 10.0 CDAdj=  3.0
 RMS Error=  0.7356010925D-04 NUsed= 2 OKEnD=F EnDIS=F
 InvSVX:  RCond= 1.48D-04 Info=           0 Equed=N FErr=  9.09D-16 BErr=  2.78D-17
 DidBck=F Rises=F RFO-DIIS coefs:    0.98011    0.01989
 Iteration  1 RMS(Cart)=  0.00011124 RMS(Int)=  0.00000001
 Iteration  2 RMS(Cart)=  0.00000001 RMS(Int)=  0.00000000
 ITry= 1 IFail=0 DXMaxC= 3.01D-04 DCOld= 1.00D+10 DXMaxT= 3.00D-01 DXLimC= 3.00D+00 Rises=F
 Variable       Old X    -DE/DX   Delta X   Delta X   Delta X     New X
                                 (Linear)    (Quad)   (Total)
    R1        2.94467   0.00000  -0.00000   0.00000   0.00000   2.94467
    R2        2.50586   0.00000   0.00000   0.00000   0.00000   2.50587
    R3        2.52123  -0.00000  -0.00000  -0.00001  -0.00001   2.52122
    R4        2.50448   0.00000   0.00000   0.00000   0.00000   2.50448
    R5        2.51240  -0.00000   0.00000   0.00000   0.00000   2.51240
    R6        2.52063  -0.00000   0.00000   0.00000   0.00000   2.52063
    R7        3.56111   0.00000   0.00000  -0.00001  -0.00001   3.56110
    R8        2.69713   0.00000   0.00000  -0.00000   0.00000   2.69713
    R9        2.71323   0.00000  -0.00000   0.00000   0.00000   2.71323
   R10        3.03269   0.00000  -0.00000   0.00000  -0.00000   3.03269
   R11        1.82652  -0.00000  -0.00000  -0.00000  -0.00000   1.82652
    A1        1.93058   0.00000   0.00000  -0.00001  -0.00000   1.93058
    A2        1.92749   0.00000   0.00000   0.00001   0.00001   1.92750
    A3        1.90907  -0.00000  -0.00001  -0.00000  -0.00001   1.90906
    A4        1.89673  -0.00000   0.00000  -0.00000   0.00000   1.89673
    A5        1.90091  -0.00000  -0.00000  -0.00000  -0.00000   1.90090
    A6        1.89856  -0.00000   0.00000   0.00000   0.00000   1.89857
    A7        1.89879  -0.00000  -0.00000  -0.00000  -0.00000   1.89879
    A8        1.90143  -0.00000  -0.00000   0.00000  -0.00000   1.90143
    A9        2.00947   0.00000   0.00001   0.00001   0.00002   2.00949
   A10        1.91227   0.00000  -0.00000  -0.00000  -0.00000   1.91227
   A11        1.89357  -0.00000  -0.00000  -0.00000  -0.00001   1.89357
   A12        1.84653  -0.00000  -0.00000  -0.00000  -0.00001   1.84652
   A13        1.85453  -0.00000  -0.00000  -0.00001  -0.00001   1.85452
   A14        1.87389  -0.00000   0.00000   0.00001   0.00001   1.87389
   A15        1.75704   0.00000   0.00000  -0.00000  -0.00000   1.75703
   A16        2.16087   0.00000  -0.00000  -0.00000  -0.00000   2.16087
   A17        1.87256  -0.00000  -0.00000   0.00001   0.00001   1.87257
   A18        1.90280  -0.00000  -0.00000  -0.00000  -0.00000   1.90280
   A19        1.92118   0.00000   0.00000  -0.00000   0.00000   1.92118
    D1        0.78179  -0.00000   0.00007  -0.00001   0.00005   0.78184
    D2        2.86558  -0.00000   0.00006  -0.00001   0.00005   2.86563
    D3       -1.34732  -0.00000   0.00006  -0.00001   0.00005  -1.34727
    D4        2.88225   0.00000   0.00007  -0.00001   0.00006   2.88232
    D5       -1.31714   0.00000   0.00007  -0.00001   0.00006  -1.31708
    D6        0.75314   0.00000   0.00007  -0.00001   0.00006   0.75320
    D7       -1.31197   0.00000   0.00007  -0.00001   0.00006  -1.31191
    D8        0.77182  -0.00000   0.00007  -0.00001   0.00006   0.77188
    D9        2.84210   0.00000   0.00007  -0.00001   0.00006   2.84216
   D10        2.64947   0.00000  -0.00001   0.00015   0.00014   2.64961
   D11       -1.28966  -0.00000  -0.00001   0.00015   0.00014  -1.28952
   D12        0.69969   0.00000  -0.00001   0.00015   0.00014   0.69982
   D13        0.51755  -0.00000  -0.00001   0.00015   0.00014   0.51768
   D14        2.86160  -0.00000  -0.00001   0.00014   0.00013   2.86174
   D15       -1.43224   0.00000  -0.00001   0.00014   0.00013  -1.43210
   D16       -1.53306   0.00000  -0.00001   0.00015   0.00015  -1.53291
   D17        0.81100  -0.00000  -0.00001   0.00015   0.00014   0.81114
   D18        2.80035   0.00000  -0.00001   0.00015   0.00014   2.80049
   D19       -1.71639  -0.00000  -0.00006  -0.00010  -0.00016  -1.71655
   D20        2.63094  -0.00000  -0.00006  -0.00009  -0.00015   2.63079
   D21        0.25094  -0.00000  -0.00006  -0.00009  -0.00015   0.25079
         Item               Value     Threshold  Converged?
 Maximum Force            0.000003     0.000015     YES
 RMS     Force            0.000001     0.000010     YES
 Maximum Displacement     0.000301     0.000060     NO 
 RMS     Displacement     0.000111     0.000040     NO 
 Predicted change in Energy=-2.974864D-10
 Lowest energy point so far.  Saving SCF results.
 GradGradGradGradGradGradGradGradGradGradGradGradGradGradGradGradGradGrad

 Leave Link  103 at Fri May 23 01:55:09 2025, MaxMem=  3758096384 cpu:               0.1 elap:               0.1
 (Enter /apps/easybuild-2022/easybuild/software/Compiler/NVHPC/22.11-CUDA-11.7.0/Gaussian/g16c01-CUDA-11.7.0/g16/l202.exe)
                          Input orientation:                          
 ---------------------------------------------------------------------
 Center     Atomic      Atomic             Coordinates (Angstroms)
 Number     Number       Type             X           Y           Z
 ---------------------------------------------------------------------
      1          6           0       -0.662090    1.079310   -0.907682
      2          6           0       -0.000019    0.000073    0.000645
      3          9           0       -0.421068    0.174546    1.249591
      4          9           0       -0.363656   -1.209391   -0.428477
      5         16           0        1.884435   -0.000378   -0.000295
      6          8           0        2.284491   -0.507362    1.272492
      7          8           0        2.312228   -0.557491   -1.252526
      8          8           0        2.181966    1.576629   -0.000517
      9          9           0       -0.610747    2.271545   -0.329458
     10          9           0       -0.034890    1.147310   -2.083270
     11          9           0       -1.930547    0.758505   -1.118771
     12          1           0        2.372596    1.878165   -0.898825
 ---------------------------------------------------------------------
                    Distance matrix (angstroms):
                    1          2          3          4          5
     1  C    0.000000
     2  C    1.558252   0.000000
     3  F    2.351706   1.329507   0.000000
     4  F    2.357298   1.333860   2.175888   0.000000
     5  S    2.910991   1.884454   2.628338   2.588236   0.000000
     6  O    3.994124   2.663470   2.790264   3.224721   1.427258
     7  O    3.412419   2.688457   3.777218   2.874784   1.435780
     8  O    3.026372   2.691948   3.210046   3.798058   1.604828
     9  F    1.326047   2.375192   2.631878   3.491099   3.390563
    10  F    1.334170   2.379091   3.493332   2.898356   3.056106
    11  F    1.325314   2.356958   2.868567   2.608499   4.047342
    12  H    3.138083   3.156830   3.914406   4.152265   2.138827
                    6          7          8          9         10
     6  O    0.000000
     7  O    2.525668   0.000000
     8  O    2.444193   2.477693   0.000000
     9  F    4.320992   4.171244   2.896611   0.000000
    10  F    4.402114   3.017523   3.071909   2.161335   0.000000
    11  F    5.008703   4.444195   4.339652   2.157354   2.162162
    12  H    3.226936   2.461945   0.966551   3.062558   2.780836
                   11         12
    11  F    0.000000
    12  H    4.451859   0.000000
 Symmetry turned off by external request.
 Stoichiometry    C2HF5O3S
[...]
   D16       -1.53291  -0.00000   0.00000  -0.00001  -0.00001  -1.53292
   D17        0.81114   0.00000   0.00000  -0.00001  -0.00001   0.81113
   D18        2.80049  -0.00000   0.00000  -0.00001  -0.00001   2.80048
   D19       -1.71655   0.00000   0.00000   0.00001   0.00001  -1.71654
   D20        2.63079   0.00000   0.00000   0.00001   0.00001   2.63080
   D21        0.25079   0.00000   0.00000   0.00001   0.00001   0.25080
         Item               Value     Threshold  Converged?
 Maximum Force            0.000000     0.000015     YES
 RMS     Force            0.000000     0.000010     YES
 Maximum Displacement     0.000024     0.000060     YES
 RMS     Displacement     0.000009     0.000040     YES
 Predicted change in Energy=-1.836734D-12
 Optimization completed.
    -- Stationary point found.
                           ----------------------------
                           !   Optimized Parameters   !
                           ! (Angstroms and Degrees)  !
 --------------------------                            --------------------------
 ! Name  Definition              Value          Derivative Info.                !
 --------------------------------------------------------------------------------
 ! R1    R(1,2)                  1.5583         -DE/DX =    0.0                 !
 ! R2    R(1,9)                  1.326          -DE/DX =    0.0                 !
 ! R3    R(1,10)                 1.3342         -DE/DX =    0.0                 !
 ! R4    R(1,11)                 1.3253         -DE/DX =    0.0                 !
 ! R5    R(2,3)                  1.3295         -DE/DX =    0.0                 !
 ! R6    R(2,4)                  1.3339         -DE/DX =    0.0                 !
 ! R7    R(2,5)                  1.8845         -DE/DX =    0.0                 !
 ! R8    R(5,6)                  1.4273         -DE/DX =    0.0                 !
 ! R9    R(5,7)                  1.4358         -DE/DX =    0.0                 !
 ! R10   R(5,8)                  1.6048         -DE/DX =    0.0                 !
 ! R11   R(8,12)                 0.9666         -DE/DX =    0.0                 !
 ! A1    A(2,1,9)              110.6142         -DE/DX =    0.0                 !
 ! A2    A(2,1,10)             110.4377         -DE/DX =    0.0                 !
 ! A3    A(2,1,11)             109.3809         -DE/DX =    0.0                 !
 ! A4    A(9,1,10)             108.6747         -DE/DX =    0.0                 !
 ! A5    A(9,1,11)             108.9137         -DE/DX =    0.0                 !
 ! A6    A(10,1,11)            108.7798         -DE/DX =    0.0                 !
 ! A7    A(1,2,3)              108.7927         -DE/DX =    0.0                 !
 ! A8    A(1,2,4)              108.9438         -DE/DX =    0.0                 !
 ! A9    A(1,2,5)              115.1352         -DE/DX =    0.0                 !
 ! A10   A(3,2,4)              109.5649         -DE/DX =    0.0                 !
 ! A11   A(3,2,5)              108.4934         -DE/DX =    0.0                 !
 ! A12   A(4,2,5)              105.7978         -DE/DX =    0.0                 !
 ! A13   A(2,5,6)              106.2564         -DE/DX =    0.0                 !
 ! A14   A(2,5,7)              107.3663         -DE/DX =    0.0                 !
 ! A15   A(2,5,8)              100.6706         -DE/DX =    0.0                 !
 ! A16   A(6,5,7)              123.8087         -DE/DX =    0.0                 !
 ! A17   A(6,5,8)              107.2904         -DE/DX =    0.0                 !
 ! A18   A(7,5,8)              109.0222         -DE/DX =    0.0                 !
 ! A19   A(5,8,12)             110.0754         -DE/DX =    0.0                 !
 ! D1    D(9,1,2,3)             44.7964         -DE/DX =    0.0                 !
 ! D2    D(9,1,2,4)            164.1886         -DE/DX =    0.0                 !
 ! D3    D(9,1,2,5)            -77.1928         -DE/DX =    0.0                 !
 ! D4    D(10,1,2,3)           165.1445         -DE/DX =    0.0                 !
 ! D5    D(10,1,2,4)           -75.4633         -DE/DX =    0.0                 !
 ! D6    D(10,1,2,5)            43.1553         -DE/DX =    0.0                 !
 ! D7    D(11,1,2,3)           -75.1669         -DE/DX =    0.0                 !
 ! D8    D(11,1,2,4)            44.2252         -DE/DX =    0.0                 !
 ! D9    D(11,1,2,5)           162.8438         -DE/DX =    0.0                 !
 ! D10   D(1,2,5,6)            151.8115         -DE/DX =    0.0                 !
 ! D11   D(1,2,5,7)            -73.8842         -DE/DX =    0.0                 !
 ! D12   D(1,2,5,8)             40.097          -DE/DX =    0.0                 !
 ! D13   D(3,2,5,6)             29.6611         -DE/DX =    0.0                 !
 ! D14   D(3,2,5,7)            163.9654         -DE/DX =    0.0                 !
 ! D15   D(3,2,5,8)            -82.0534         -DE/DX =    0.0                 !
 ! D16   D(4,2,5,6)            -87.8293         -DE/DX =    0.0                 !
 ! D17   D(4,2,5,7)             46.475          -DE/DX =    0.0                 !
 ! D18   D(4,2,5,8)            160.4561         -DE/DX =    0.0                 !
 ! D19   D(2,5,8,12)           -98.3513         -DE/DX =    0.0                 !
 ! D20   D(6,5,8,12)           150.7329         -DE/DX =    0.0                 !
 ! D21   D(7,5,8,12)            14.3692         -DE/DX =    0.0                 !
 --------------------------------------------------------------------------------
 GradGradGradGradGradGradGradGradGradGradGradGradGradGradGradGradGradGrad

 Leave Link  103 at Fri May 23 01:56:44 2025, MaxMem=  3758096384 cpu:               0.1 elap:               0.0
 (Enter /apps/easybuild-2022/easybuild/software/Compiler/NVHPC/22.11-CUDA-11.7.0/Gaussian/g16c01-CUDA-11.7.0/g16/l9999.exe)

 ----------------------------------------------------------------------

 Electric dipole moment (input orientation):
 (Debye = 10**-18 statcoulomb cm , SI units = C m)
                  (au)            (Debye)         (10**-30 SI)
   Tot        0.109562D+01      0.278479D+01      0.928905D+01
   x         -0.250812D+00     -0.637501D+00     -0.212647D+01
   y          0.894126D+00      0.227264D+01      0.758072D+01
   z         -0.581390D+00     -0.147775D+01     -0.492923D+01

 Dipole polarizability, Alpha (input orientation).
 (esu units = cm**3 , SI units = C**2 m**2 J**-1)
 Alpha(0;0):
               (au)            (10**-24 esu)      (10**-40 SI)
   iso        0.558067D+02      0.826970D+01      0.920128D+01
   aniso      0.639971D+01      0.948340D+00      0.105517D+01
   xx         0.592197D+02      0.877545D+01      0.976401D+01
   yx        -0.111012D+01     -0.164503D+00     -0.183034D+00
   yy         0.526260D+02      0.779838D+01      0.867686D+01
   zx         0.883142D+00      0.130868D+00      0.145611D+00
   zy        -0.854540D+00     -0.126630D+00     -0.140895D+00
   zz         0.555743D+02      0.823526D+01      0.916296D+01

 ----------------------------------------------------------------------

 Dipole orientation:
     6         -0.56672615          0.40038353          2.86112966
     6         -0.00029622         -0.00106920         -0.00052602
     9         -1.26877641         -2.01631199         -0.80173148
     9         -0.75726684          2.03567202         -1.27812294
    16          3.43918540         -0.43378422         -0.81549571
     8          3.50175393         -1.94773905         -3.04675399
     8          4.63313657          1.99343262         -0.60401799
     8          4.34601668         -2.18549273          1.48805776
     9         -0.44817688         -1.77587809          4.09773691
     9          1.10217538          1.99611139          3.87352996
     9         -2.86436981          1.36094482          3.12679837
     1          5.15207929         -1.16598485          2.77142515

 Electric dipole moment (dipole orientation):
 (Debye = 10**-18 statcoulomb cm , SI units = C m)
                  (au)            (Debye)         (10**-30 SI)
   Tot        0.109562D+01      0.278479D+01      0.928905D+01
   x          0.000000D+00      0.000000D+00      0.000000D+00
   y          0.000000D+00      0.000000D+00      0.000000D+00
   z          0.109562D+01      0.278479D+01      0.928905D+01

 Dipole polarizability, Alpha (dipole orientation).
 (esu units = cm**3 , SI units = C**2 m**2 J**-1)
 Alpha(0;0):
               (au)            (10**-24 esu)      (10**-40 SI)
   iso        0.558067D+02      0.826970D+01      0.920128D+01
   aniso      0.639971D+01      0.948340D+00      0.105517D+01
   xx         0.583260D+02      0.864302D+01      0.961665D+01
   yx        -0.301036D+00     -0.446090D-01     -0.496342D-01
   yy         0.539228D+02      0.799053D+01      0.889067D+01
   zx        -0.213485D+01     -0.316353D+00     -0.351990D+00
   zy         0.196317D+01      0.290912D+00      0.323683D+00
   zz         0.551713D+02      0.817554D+01      0.909651D+01

 ----------------------------------------------------------------------
 Unable to Open any file for archive entry.
 1\1\GINC-SPARTAN-BM175\Freq\RwB97XD\6-311++G(d,p)\C2H1F5O3S1\AKHALILOV
 \23-May-2025\0\\#P Geom=AllCheck Guess=TCheck SCRF=Check GenChk RwB97X
 D/6-311++G(d,p) Freq\\Gaussian input prepared by ASE\\0,1\C,-0.6620897
 622,1.0793104366,-0.9076821527\C,-0.0000186086,0.0000733146,0.00064533
 65\F,-0.4210682272,0.1745455176,1.2495912461\F,-0.3636561404,-1.209390
 878,-0.4284768022\S,1.8844354473,-0.0003778819,-0.0002946913\O,2.28449
 11517,-0.5073618036,1.2724922972\O,2.3122276274,-0.5574913568,-1.25252
 59194\O,2.1819659878,1.5766285961,-0.0005166451\F,-0.610746668,2.27154
 4697,-0.3294581937\F,-0.0348895752,1.1473103379,-2.083269998\F,-1.9305
 465955,0.7585046709,-1.1187712382\H,2.372595976,1.8781651618,-0.898824
 6615\\Version=ES64L-G16RevC.01\HF=-1199.8241528\RMSD=3.786e-09\RMSF=9.
 532e-07\ZeroPoint=0.0518262\Thermal=0.0622421\ETot=-1199.7619107\HTot=
 -1199.7609665\GTot=-1199.8093055\Dipole=-0.2508121,0.8941262,-0.581390
 3\DipoleDeriv=1.7077005,0.0826902,-0.0550675,-0.1762319,1.4974707,0.10
 25465,0.1471222,0.1087971,1.5163698,0.9423615,0.15958,-0.1654448,0.382
 7783,0.9495424,0.22514,-0.2981294,0.2208305,0.9844052,-0.4859745,0.046
 1379,0.2631077,0.0278245,-0.2542837,-0.0165476,0.3394813,-0.090819,-0.
 7964834,-0.4275589,-0.2155011,-0.0786224,-0.2690353,-0.7887858,-0.1922
 347,-0.0866543,-0.1178167,-0.2903463,1.8754509,-0.1031184,0.0567057,0.
 0534879,2.1968137,-0.1050449,-0.0204429,-0.0657282,2.1576472,-0.748329
 7,0.096651,-0.1825073,0.1092845,-0.5681828,0.1437377,-0.28721,0.228796
 2,-0.9569864,-0.7548628,0.1161412,0.1612539,0.1104695,-0.6524937,-0.11
 1804,0.2724696,-0.2418673,-0.9450188,-0.6755702,-0.1886021,0.0045668,-
 0.3097052,-1.2635091,0.113126,0.0350499,0.1828522,-0.4521588,-0.320252
 6,0.0504768,-0.0157342,0.0612975,-0.8300082,-0.2354693,-0.0396534,-0.1
 653166,-0.3828936,-0.4546189,0.0246119,0.1721855,0.0081543,-0.3012721,
 0.1079655,0.2108132,0.0418628,-0.7798313,-1.0470555,-0.1079372,-0.1429
 532,-0.0286351,-0.3293898,0.018805,-0.2392275,0.0081863,-0.3232829,0.3
 887102,0.0388698,-0.0174902,0.0303109,0.3440983,-0.0502202,-0.0336187,
 -0.1097772,0.2685793\Polar=59.2196977,-1.1101179,52.6260458,0.8831424,
 -0.8545399,55.5742709\PG=Unknown\NImag=0\\0.55879489,-0.00997256,0.573
 99205,0.01365817,-0.00900677,0.55718670,-0.08456352,0.02537738,-0.0217
 8560,0.43087286,0.05424713,-0.10327406,0.05539204,0.01161667,0.5247038
 2,-0.04478831,0.05585118,-0.08614355,-0.01544556,-0.00853589,0.5379759
 6,0.00280552,0.00111020,-0.00350388,-0.10015038,0.00508548,0.08136049,
 0.09601514,-0.01008362,0.00388867,0.01506272,0.00441779,-0.07058799,-0
 .00858421,-0.01310002,0.08072306,0.02510233,-0.01082757,-0.04508428,0.
 07490819,0.00033211,-0.28660808,-0.10287645,0.04316664,0.38662047,0.00
 052012,0.00553364,-0.00160230,-0.09496921,-0.07623631,-0.01859427,0.01
 474836,0.01127119,0.00173424,0.09198452,-0.02106740,-0.04362711,-0.023
 49786,-0.06135219,-0.27352700,-0.03997055,0.00298092,-0.01799077,-0.04
 270706,0.08626556,0.35667975,0.00430606,0.00657458,0.00637654,-0.01986
 270,-0.05187785,-0.08218193,-0.00632343,-0.05714027,-0.03730849,0.0271
 2194,0.10242371,0.10748475,-0.01242145,0.02316981,-0.01990662,-0.14484
 282,-0.00635056,0.00711790,-0.00468815,0.00295422,-0.00082434,-0.00295
 947,-0.00044143,-0.00041983,0.52371932,0.02458495,0.02550656,-0.001276
 51,0.01382144,-0.04013913,0.01361812,0.00591582,0.00124063,-0.00556355
 ,-0.03617444,-0.02567392,-0.00994899,-0.08375645,0.61678231,-0.0235757
 9,-0.00332787,0.02168504,-0.01571079,0.01565833,-0.03570956,0.03685883
 ,-0.00192303,-0.02848108,-0.00784571,-0.01113665,-0.00323338,-0.001881
 29,-0.01678016,1.21983505,-0.00331772,-0.01019644,0.00836688,0.0047521
 0,0.01992824,-0.02572700,-0.00063000,-0.00023471,-0.00037006,-0.003707
 89,-0.00597646,-0.00092149,-0.14135128,0.06346897,-0.15797919,0.110970
 16,-0.00150867,-0.00082643,-0.00141901,-0.00466830,0.00051672,0.006911
 95,-0.00066225,0.00047821,-0.00069040,0.00493811,0.00576138,0.00140199
 ,0.05965971,-0.14773914,0.17976783,-0.06765154,0.14622398,0.00169543,-
 0.00493012,0.00067241,0.01398138,0.01066294,-0.01699885,-0.00287920,-0
 .00068384,0.01126821,-0.00342216,-0.00416107,0.00077244,-0.15304301,0.
 18186170,-0.55835946,0.16367762,-0.20720293,0.58056763,0.00087962,-0.0
 0702563,0.00321691,0.01352774,0.01314899,0.01563377,-0.01123442,0.0009
 0575,0.00830974,-0.00189255,-0.00156174,-0.00055740,-0.14575745,0.0671
 6997,0.15539889,0.02084066,0.00026356,-0.01291430,0.11283417,-0.002849
 79,-0.00274616,-0.00011863,-0.00855014,-0.00131347,-0.00807433,0.00324
 291,0.00029150,-0.00089429,0.00243138,0.00655375,0.00350992,0.06617203
 ,-0.16691883,-0.18828333,0.00011816,0.01472018,0.01721408,-0.07604716,
 0.16279220,0.00496700,0.00303611,-0.01174012,-0.01168157,-0.01352619,-
 0.00510942,0.00484157,-0.00069429,-0.00084913,0.00141399,0.00605882,0.
 00403017,0.14871360,-0.18253424,-0.51165095,0.01443359,-0.01714533,-0.
 01715564,-0.16267228,0.21353456,0.53239256,0.00426503,0.00125989,0.004
 28880,0.01234929,-0.01742337,-0.00171568,-0.00350169,0.00107757,0.0036
 7893,-0.00903486,-0.00609058,-0.00199260,-0.07530823,-0.04357317,0.003
 97293,0.01345495,0.00376148,-0.00047862,0.01638697,0.00969724,0.001137
 57,0.07118696,-0.00511454,-0.01487820,0.00238576,0.01715480,-0.0095893
 6,-0.00330709,-0.00641800,0.00242174,0.00532106,-0.00687415,-0.0020009
 0,-0.00160826,-0.03622334,-0.22255949,-0.01677830,-0.00567879,-0.01416
 241,0.00412042,-0.00464154,-0.02138274,-0.00573298,0.08098100,0.341957
 44,0.00426355,0.00341168,-0.00463612,-0.00114519,0.00124212,0.00562139
 ,-0.00201994,-0.00039780,0.00200644,0.00246268,0.00163627,0.00119358,0
 .00927661,0.01470605,-0.09153596,0.00321790,0.04038161,-0.00477854,-0.
 00302314,-0.03365375,0.00421878,-0.10108709,-0.13402561,0.54115831,-0.
 07729709,0.00852956,-0.00194438,0.00749930,0.00937808,0.00815848,0.000
 88028,-0.00005100,-0.00230914,-0.00007309,0.00503287,-0.00153639,-0.00
 013308,-0.00498236,0.00132824,0.00026239,0.00066152,-0.00051242,0.0000
 2690,0.00084027,0.00002612,-0.00528362,0.00364479,-0.00073299,0.083656
 07,0.01024261,-0.27305432,-0.06102187,-0.00211480,-0.03515144,-0.02796
 590,-0.00029907,0.00222112,0.00338748,0.00358028,-0.01077467,0.0047640
 2,-0.00769051,-0.00891361,0.00000435,0.00331989,0.00043769,0.00189186,
 0.00224618,0.00111788,0.00023227,0.00095580,0.00659282,-0.00096742,0.0
 1455803,0.35537306,0.00001462,-0.07119535,-0.10391668,-0.00007170,0.00
 381165,0.00193859,-0.00145626,0.00421760,0.00448814,0.00028422,0.00391
 076,0.00035342,0.00076523,-0.00256293,-0.00337872,-0.00028552,0.000330
 59,0.00062112,0.00010108,0.00038123,0.00184834,-0.00164711,0.00141804,
 0.00091192,0.00306776,0.14009279,0.14646435,-0.10349367,-0.00930457,0.
 06783846,0.00428430,0.00077394,-0.00001131,0.00151174,0.00053106,-0.00
 221977,0.00102047,0.00055641,-0.00049669,-0.00301951,-0.00286960,0.007
 53560,0.00134174,0.00035642,-0.00137220,-0.00103570,0.00188759,-0.0043
 2593,-0.00068888,0.00104630,-0.00254509,0.00677338,0.01367204,0.019703
 47,0.15160634,-0.00586050,-0.08370856,0.02827233,-0.01167372,0.0071852
 6,0.01842399,0.00147735,-0.00332297,0.00760856,0.00076126,0.00086755,-
 0.00017077,-0.00270854,-0.00488149,-0.00102641,0.00091119,0.00038997,0
 .00056525,0.00265947,0.00011993,0.00102790,-0.00025318,0.00306996,-0.0
 0108544,0.01897531,-0.00513332,-0.05379971,0.00940653,0.07617138,0.064
 87100,0.03399305,-0.24969749,0.02491848,-0.00724483,-0.03192209,-0.004
 01455,0.00671961,-0.00897724,-0.00152056,0.00701079,0.00213843,0.00621
 683,0.00076250,-0.00755048,-0.00208665,0.00020794,0.00071009,-0.002047
 83,0.00053358,0.00521915,-0.00213086,-0.00165853,0.00121287,0.02022828
 ,-0.03719045,-0.04892027,-0.13686651,-0.00933307,0.33734492,-0.2809891
 8,-0.02489635,-0.05096952,-0.04952189,-0.01116485,-0.00611695,0.004307
 83,0.00179915,-0.00473796,0.00544752,0.00160419,0.00106476,0.00880723,
 0.00150150,-0.00170888,-0.00397530,0.00114564,-0.00296041,-0.00239174,
 0.00113870,0.00162289,-0.00149828,-0.00041002,-0.00009399,-0.01703345,
 -0.03964499,-0.02016067,-0.06000156,-0.01478133,0.03362292,0.39555167,
 -0.03100407,-0.08332016,-0.00543727,0.01726220,0.00199942,0.00299171,-
 0.00031805,0.00052407,0.00127721,0.00437960,0.00384898,0.00211038,-0.0
 0385117,-0.00519900,0.00251093,0.00203542,0.00021162,0.00066105,0.0011
 1300,0.00062061,-0.00109212,-0.00026147,0.00275874,-0.00076913,-0.0567
 1326,-0.03153255,-0.02644607,-0.01674656,0.00981226,0.00634241,0.08339
 336,0.10056357,-0.04972521,-0.00297286,-0.08841094,-0.03005952,-0.0042
 0208,-0.00045609,0.00058228,-0.00003289,0.00266903,0.00173702,0.001445
 36,0.00088093,0.00592120,0.00302930,-0.00479376,-0.00299560,0.00042393
 ,-0.00091074,-0.00147174,0.00002110,0.00247193,-0.00083011,-0.00120111
 ,0.00089336,-0.02546054,-0.02316377,0.00025733,0.05207799,0.00905815,0
 .00256854,0.05039196,0.01763636,0.08544977,-0.00518254,-0.00358492,0.0
 0234306,0.00076223,-0.00300345,0.00012845,-0.00006424,0.00051263,-0.00
 039571,-0.00108392,0.00004985,-0.00038224,-0.00204511,-0.00510663,0.00
 360715,0.00136019,0.00370430,-0.00177211,-0.00218420,0.00191882,0.0015
 2346,-0.02232764,-0.03746649,0.09142670,0.00072201,0.00117456,-0.00031
 512,0.00170134,0.00108617,-0.00119056,0.00129714,0.00071101,-0.0001677
 1,0.02704474,-0.00161355,0.00204772,0.00066507,-0.00129111,-0.00082277
 ,-0.00135900,0.00098471,0.00011273,-0.00041020,0.00012387,-0.00011704,
 -0.00003847,-0.01093376,-0.02150489,0.04131431,-0.00004394,-0.00601177
 ,0.00000067,0.00176916,0.00614515,-0.00316450,-0.03013118,-0.07222760,
 0.10952142,0.00012619,-0.00118264,-0.00015860,0.00069045,-0.00056997,-
 0.00014300,0.00031500,-0.00028757,-0.00004148,0.04000417,0.09441865,-0
 .00078884,-0.00060606,0.00370848,0.00195459,-0.00171235,-0.00040638,-0
 .00056946,0.00028974,0.00025600,-0.00176909,-0.00101252,-0.00050648,-0
 .00193627,0.00468872,0.00317327,0.00066953,-0.00296817,0.00359132,0.00
 002630,-0.00417015,-0.00367565,0.09680384,0.15106660,-0.45626603,-0.00
 031303,-0.00006337,-0.00066754,0.00068197,0.00045923,-0.00212642,0.000
 04585,0.00021454,-0.00061936,-0.09480539,-0.14618622,0.45353878\\-0.00
 000061,-0.00000113,0.00000025,0.00000054,-0.00000037,0.00000037,0.0000
 0085,-0.00000035,0.00000042,0.00000139,-0.00000079,0.00000080,0.000000
 55,0.00000124,-0.00000028,0.00000138,0.00000178,-0.00000026,0.00000060
 ,0.00000113,-0.00000030,-0.00000074,0.00000136,-0.00000084,-0.00000135
 ,-0.00000097,-0.00000007,-0.00000107,-0.00000097,0.00000003,-0.0000003
 9,-0.00000222,0.00000077,-0.00000117,0.00000128,-0.00000089\\\@
 The archive entry for this job was punched.


 PATIENCE IS THE ABILITY TO IDLE YOUR MOTOR WHEN
 YOU FEEL LIKE STRIPPING YOUR GEARS.
 Job cpu time:       0 days  0 hours 10 minutes 28.7 seconds.
 Elapsed time:       0 days  0 hours  1 minutes 21.8 seconds.
 File lengths (MBytes):  RWF=     99 Int=      0 D2E=      0 Chk=      6 Scr=      1
 Normal termination of Gaussian 16 at Fri May 23 01:56:44 2025.
done
