12
energy = 0
C 3.97667137 2.12220111 1.78371190
C 3.23153009 0.84295047 1.30164300
F 4.09088740 -0.04588743 0.82936343
F 2.63411722 0.23797893 2.31169332
S 1.97628213 1.20684854 -0.12224972
O -0.31191553 1.08328765 0.16911371
O 2.43735561 2.37430806 -0.85768015
O 1.22673190 -0.00427987 -0.56855973
F 4.66666093 2.71491723 0.82586999
F 3.14411733 3.03507009 2.27493376
F 4.84580754 1.86112486 2.75314247
H -0.67134799 1.17224236 1.06757501
