 Entering Gaussian System, Link 0=g16
 Initial command:
 /apps/easybuild-2022/easybuild/software/Compiler/NVHPC/22.11-CUDA-11.7.0/Gaussian/g16c01-CUDA-11.7.0/g16/l1.exe "/tmp/Gau-64860.inp" -scrdir="/tmp/"
 Entering Link 1 = /apps/easybuild-2022/easybuild/software/Compiler/NVHPC/22.11-CUDA-11.7.0/Gaussian/g16c01-CUDA-11.7.0/g16/l1.exe PID=     64863.
  
 Copyright (c) 1988-2019, Gaussian, Inc.  All Rights Reserved.
  
 This is part of the Gaussian(R) 16 program.  It is based on
 the Gaussian(R) 09 system (copyright 2009, Gaussian, Inc.),
 the Gaussian(R) 03 system (copyright 2003, Gaussian, Inc.),
 the Gaussian(R) 98 system (copyright 1998, Gaussian, Inc.),
 the Gaussian(R) 94 system (copyright 1995, Gaussian, Inc.),
 the Gaussian 92(TM) system (copyright 1992, Gaussian, Inc.),
 the Gaussian 90(TM) system (copyright 1990, Gaussian, Inc.),
 the Gaussian 88(TM) system (copyright 1988, Gaussian, Inc.),
 the Gaussian 86(TM) system (copyright 1986, Carnegie Mellon
 University), and the Gaussian 82(TM) system (copyright 1983,
 Carnegie Mellon University). Gaussian is a federally registered
 trademark of Gaussian, Inc.
  
 This software contains proprietary and confidential information,
 including trade secrets, belonging to Gaussian, Inc.
  
 This software is provided under written license and may be
 used, copied, transmitted, or stored only in accord with that
 written license.
  
 The following legend is applicable only to US Government
 contracts under FAR:
  
                    RESTRICTED RIGHTS LEGEND
  
 Use, reproduction and disclosure by the US Government is
 subject to restrictions as set forth in subparagraphs (a)
 and (c) of the Commercial Computer Software - Restricted
 Rights clause in FAR 52.227-19.
  
 Gaussian, Inc.
 340 Quinnipiac St., Bldg. 40, Wallingford CT 06492
  
  
 ---------------------------------------------------------------
 Warning -- This program may not be used in any manner that
 competes with the business of Gaussian, Inc. or will provide
 assistance to any competitor of Gaussian, Inc.  The licensee
 of this program is prohibited from giving any competitor of
 Gaussian, Inc. access to this program.  By using this program,
 the user acknowledges that Gaussian, Inc. is engaged in the
 business of creating and licensing software in the field of
 computational chemistry and represents and warrants to the
 licensee that it is not a competitor of Gaussian, Inc. and that
 it will not use this program in any manner prohibited above.
 ---------------------------------------------------------------
  

 Cite this work as:
 Gaussian 16, Revision C.01,
 M. J. Frisch, G. W. Trucks, H. B. Schlegel, G. E. Scuseria, 
 M. A. Robb, J. R. Cheeseman, G. Scalmani, V. Barone, 
 G. A. Petersson, H. Nakatsuji, X. Li, M. Caricato, A. V. Marenich, 
 J. Bloino, B. G. Janesko, R. Gomperts, B. Mennucci, H. P. Hratchian, 
 J. V. Ortiz, A. F. Izmaylov, J. L. Sonnenberg, D. Williams-Young, 
 F. Ding, F. Lipparini, F. Egidi, J. Goings, B. Peng, A. Petrone, 
 T. Henderson, D. Ranasinghe, V. G. Zakrzewski, J. Gao, N. Rega, 
 G. Zheng, W. Liang, M. Hada, M. Ehara, K. Toyota, R. Fukuda, 
 J. Hasegawa, M. Ishida, T. Nakajima, Y. Honda, O. Kitao, H. Nakai, 
 T. Vreven, K. Throssell, J. A. Montgomery, Jr., J. E. Peralta, 
 F. Ogliaro, M. J. Bearpark, J. J. Heyd, E. N. Brothers, K. N. Kudin, 
 V. N. Staroverov, T. A. Keith, R. Kobayashi, J. Normand, 
 K. Raghavachari, A. P. Rendell, J. C. Burant, S. S. Iyengar, 
 J. Tomasi, M. Cossi, J. M. Millam, M. Klene, C. Adamo, R. Cammi, 
 J. W. Ochterski, R. L. Martin, K. Morokuma, O. Farkas, 
 J. B. Foresman, and D. J. Fox, Gaussian, Inc., Wallingford CT, 2019.
 
 ******************************************
 Gaussian 16:  ES64L-G16RevC.01  3-Jul-2019
                23-May-2025 
 ******************************************
 %mem=28GB
 %nprocshared=8
 Will use up to    8 processors via shared memory.
 ----------------------------------------------------------------------
 #P wb97xd/6-311++G(d,p) Symm(None) scf(xqc) pop(None) freq opt(CalcFC,
  Tight)
 ----------------------------------------------------------------------
 1/7=10,10=4,18=20,19=15,26=3,38=1/1,3;
 2/9=110,12=2,15=3,17=6,18=5,40=1/2;
 3/5=4,6=6,7=1111,11=2,25=1,30=1,71=2,74=-58,140=1/1,2,3;
 4//1;
 5/5=2,8=3,13=1,38=5/2,8;
 8/6=4,10=90,11=11/1;
 11/6=1,8=1,9=11,15=111,16=1,31=1/1,2,10;
 10/6=1,13=1,31=1/2;
 7/10=1,25=1,30=1/1,2,3,16;
 1/7=10,10=4,18=20,19=15,26=3/3(2);
 2/9=110,15=3/2;
 99//99;
 2/9=110,15=3/2;
 3/5=4,6=6,7=1111,11=2,25=1,30=1,71=1,74=-58/1,2,3;
 4/5=5,16=3,69=1/1;
 5/5=2,8=3,13=1,38=5/2,8;
 7/30=1/1,2,3,16;
 1/7=10,18=20,19=15,26=3/3(-5);
 2/9=110,15=3/2;
 99/9=1/99;
 Leave Link    1 at Fri May 23 05:20:36 2025, MaxMem=  3758096384 cpu:               0.1 elap:               0.0
 (Enter /apps/easybuild-2022/easybuild/software/Compiler/NVHPC/22.11-CUDA-11.7.0/Gaussian/g16c01-CUDA-11.7.0/g16/l101.exe)
 ------------------------------
 Gaussian input prepared by ASE
 ------------------------------
 Symbolic Z-matrix:
 Charge =  0 Multiplicity = 1
 C                     0.24783   1.8638    3.90183 
 C                     0.12731   1.7283    2.36117 
 F                    -0.52235   0.60466   2.06955 
 F                    -0.54746   2.78292   1.89074 
 S                     1.85765   1.75644   1.53911 
 O                     0.96567   0.        0. 
 O                     2.53973   0.59052   2.09553 
 O                     1.24224   1.39434   0. 
 F                     0.75023   0.76335   4.43748 
 F                     1.05046   2.89299   4.19006 
 F                    -0.94816   2.09503   4.43108 
 H                     0.        0.        0. 
 
 ITRead=  0  0  0  0  0  0  0  0  0  0  0  0
 MicOpt= -1 -1 -1 -1 -1 -1 -1 -1 -1 -1 -1 -1
 NAtoms=     12 NQM=       12 NQMF=       0 NMMI=      0 NMMIF=      0
                NMic=       0 NMicF=      0.
                    Isotopes and Nuclear Properties:
 (Nuclear quadrupole moments (NQMom) in fm**2, nuclear magnetic moments (NMagM)
  in nuclear magnetons)

  Atom         1           2           3           4           5           6           7           8           9          10
 IAtWgt=          12          12          19          19          32          16          16          16          19          19
 AtmWgt=  12.0000000  12.0000000  18.9984032  18.9984032  31.9720718  15.9949146  15.9949146  15.9949146  18.9984032  18.9984032
 NucSpn=           0           0           1           1           0           0           0           0           1           1
 AtZEff=  -0.0000000  -0.0000000  -0.0000000  -0.0000000  -0.0000000  -0.0000000  -0.0000000  -0.0000000  -0.0000000  -0.0000000
 NQMom=    0.0000000   0.0000000   0.0000000   0.0000000   0.0000000   0.0000000   0.0000000   0.0000000   0.0000000   0.0000000
 NMagM=    0.0000000   0.0000000   2.6288670   2.6288670   0.0000000   0.0000000   0.0000000   0.0000000   2.6288670   2.6288670
 AtZNuc=   6.0000000   6.0000000   9.0000000   9.0000000  16.0000000   8.0000000   8.0000000   8.0000000   9.0000000   9.0000000

  Atom        11          12
 IAtWgt=          19           1
 AtmWgt=  18.9984032   1.0078250
 NucSpn=           1           1
 AtZEff=  -0.0000000  -0.0000000
 NQMom=    0.0000000   0.0000000
 NMagM=    2.6288670   2.7928460
 AtZNuc=   9.0000000   1.0000000
 Leave Link  101 at Fri May 23 05:20:36 2025, MaxMem=  3758096384 cpu:               0.2 elap:               0.2
 (Enter /apps/easybuild-2022/easybuild/software/Compiler/NVHPC/22.11-CUDA-11.7.0/Gaussian/g16c01-CUDA-11.7.0/g16/l103.exe)

 GradGradGradGradGradGradGradGradGradGradGradGradGradGradGradGradGradGrad
 Berny optimization.
 Initialization pass.
                           ----------------------------
                           !    Initial Parameters    !
                           ! (Angstroms and Degrees)  !
 --------------------------                            --------------------------
 ! Name  Definition              Value          Derivative Info.                !
 --------------------------------------------------------------------------------
 ! R1    R(1,2)                  1.5513         calculate D2E/DX2 analytically  !
 ! R2    R(1,9)                  1.323          calculate D2E/DX2 analytically  !
 ! R3    R(1,10)                 1.3366         calculate D2E/DX2 analytically  !
 ! R4    R(1,11)                 1.3281         calculate D2E/DX2 analytically  !
 ! R5    R(2,3)                  1.3303         calculate D2E/DX2 analytically  !
 ! R6    R(2,4)                  1.3375         calculate D2E/DX2 analytically  !
 ! R7    R(2,5)                  1.9159         calculate D2E/DX2 analytically  !
 ! R8    R(5,7)                  1.4609         calculate D2E/DX2 analytically  !
 ! R9    R(5,8)                  1.6967         calculate D2E/DX2 analytically  !
 ! R10   R(6,8)                  1.4215         calculate D2E/DX2 analytically  !
 ! R11   R(6,12)                 0.9657         calculate D2E/DX2 analytically  !
 ! A1    A(2,1,9)              111.036          calculate D2E/DX2 analytically  !
 ! A2    A(2,1,10)             109.1519         calculate D2E/DX2 analytically  !
 ! A3    A(2,1,11)             109.9378         calculate D2E/DX2 analytically  !
 ! A4    A(9,1,10)             108.9736         calculate D2E/DX2 analytically  !
 ! A5    A(9,1,11)             108.9918         calculate D2E/DX2 analytically  !
 ! A6    A(10,1,11)            108.7087         calculate D2E/DX2 analytically  !
 ! A7    A(1,2,3)              109.2341         calculate D2E/DX2 analytically  !
 ! A8    A(1,2,4)              108.6414         calculate D2E/DX2 analytically  !
 ! A9    A(1,2,5)              110.7739         calculate D2E/DX2 analytically  !
 ! A10   A(3,2,4)              110.0321         calculate D2E/DX2 analytically  !
 ! A11   A(3,2,5)              111.0636         calculate D2E/DX2 analytically  !
 ! A12   A(4,2,5)              107.0466         calculate D2E/DX2 analytically  !
 ! A13   A(2,5,7)              104.2723         calculate D2E/DX2 analytically  !
 ! A14   A(2,5,8)               93.3541         calculate D2E/DX2 analytically  !
 ! A15   A(7,5,8)              110.1532         calculate D2E/DX2 analytically  !
 ! A16   A(8,6,12)             101.219          calculate D2E/DX2 analytically  !
 ! A17   A(5,8,6)              106.2548         calculate D2E/DX2 analytically  !
 ! D1    D(9,1,2,3)             51.6637         calculate D2E/DX2 analytically  !
 ! D2    D(9,1,2,4)            171.7024         calculate D2E/DX2 analytically  !
 ! D3    D(9,1,2,5)            -70.9841         calculate D2E/DX2 analytically  !
 ! D4    D(10,1,2,3)           171.8175         calculate D2E/DX2 analytically  !
 ! D5    D(10,1,2,4)           -68.1438         calculate D2E/DX2 analytically  !
 ! D6    D(10,1,2,5)            49.1698         calculate D2E/DX2 analytically  !
 ! D7    D(11,1,2,3)           -69.0272         calculate D2E/DX2 analytically  !
 ! D8    D(11,1,2,4)            51.0115         calculate D2E/DX2 analytically  !
 ! D9    D(11,1,2,5)           168.325          calculate D2E/DX2 analytically  !
 ! D10   D(1,2,5,7)             61.5066         calculate D2E/DX2 analytically  !
 ! D11   D(1,2,5,8)            173.2853         calculate D2E/DX2 analytically  !
 ! D12   D(3,2,5,7)            -60.0716         calculate D2E/DX2 analytically  !
 ! D13   D(3,2,5,8)             51.7071         calculate D2E/DX2 analytically  !
 ! D14   D(4,2,5,7)            179.7939         calculate D2E/DX2 analytically  !
 ! D15   D(4,2,5,8)            -68.4274         calculate D2E/DX2 analytically  !
 ! D16   D(2,5,8,6)            -77.5573         calculate D2E/DX2 analytically  !
 ! D17   D(7,5,8,6)             28.9758         calculate D2E/DX2 analytically  !
 ! D18   D(12,6,8,5)           109.1078         calculate D2E/DX2 analytically  !
 --------------------------------------------------------------------------------
 Trust Radius=3.00D-01 FncErr=1.00D-07 GrdErr=1.00D-06 EigMax=2.50D+02 EigMin=1.00D-04
 Number of steps in this run=     56 maximum allowed number of steps=    100.
 GradGradGradGradGradGradGradGradGradGradGradGradGradGradGradGradGradGrad

 Leave Link  103 at Fri May 23 05:20:36 2025, MaxMem=  3758096384 cpu:               0.1 elap:               0.0
 (Enter /apps/easybuild-2022/easybuild/software/Compiler/NVHPC/22.11-CUDA-11.7.0/Gaussian/g16c01-CUDA-11.7.0/g16/l202.exe)
                          Input orientation:                          
 ---------------------------------------------------------------------
 Center     Atomic      Atomic             Coordinates (Angstroms)
 Number     Number       Type             X           Y           Z
 ---------------------------------------------------------------------
      1          6           0        0.247832    1.863797    3.901833
      2          6           0        0.127305    1.728303    2.361171
      3          9           0       -0.522353    0.604656    2.069551
      4          9           0       -0.547458    2.782924    1.890743
      5         16           0        1.857649    1.756436    1.539108
      6          8           0        0.965673    0.000000    0.000000
      7          8           0        2.539731    0.590518    2.095530
      8          8           0        1.242239    1.394335    0.000000
      9          9           0        0.750233    0.763346    4.437484
     10          9           0        1.050460    2.892989    4.190064
     11          9           0       -0.948158    2.095025    4.431084
     12          1           0        0.000000    0.000000    0.000000
 ---------------------------------------------------------------------
                    Distance matrix (angstroms):
                    1          2          3          4          5
     1  C    0.000000
     2  C    1.551298   0.000000
     3  F    2.352845   1.330294   0.000000
     4  F    2.349843   1.337472   2.185738   0.000000
     5  S    2.861032   1.915899   2.696735   2.638534   0.000000
     6  O    4.383302   3.043850   2.619709   3.689057   2.499908
     7  O    3.183829   2.680470   3.062227   3.792007   1.460892
     8  O    4.053830   2.632440   2.832035   2.950611   1.696673
     9  F    1.322998   2.372817   2.692910   3.499798   3.257788
    10  F    1.336609   2.356599   3.493821   2.802202   2.995142
    11  F    1.328143   2.361281   2.824774   2.662160   4.043602
    12  H    4.331219   2.928885   2.218446   3.408707   2.984088
                    6          7          8          9         10
     6  O    0.000000
     7  O    2.686562   0.000000
     8  O    1.421499   2.592461   0.000000
     9  F    4.507813   2.952443   4.509044   0.000000
    10  F    5.092466   3.450561   4.454142   2.164886   0.000000
    11  F    5.261786   4.459117   4.992325   2.158227   2.165482
    12  H    0.965673   3.345174   1.867439   4.564735   5.198989
                   11         12
    11  F    0.000000
    12  H    4.992258   0.000000
 Symmetry turned off by external request.
 Stoichiometry    C2HF5O3S
 Rotational constants (GHZ):           1.6651754           0.7614941           0.6986598
 Leave Link  202 at Fri May 23 05:20:36 2025, MaxMem=  3758096384 cpu:               0.0 elap:               0.0
 (Enter /apps/easybuild-2022/easybuild/software/Compiler/NVHPC/22.11-CUDA-11.7.0/Gaussian/g16c01-CUDA-11.7.0/g16/l301.exe)
 Standard basis: 6-311++G(d,p) (5D, 7F)
 Ernie: Thresh=  0.10000D-02 Tol=  0.10000D-05 Strict=F.
   257 basis functions,   419 primitive gaussians,   268 cartesian basis functions
    49 alpha electrons       49 beta electrons
       nuclear repulsion energy       898.7947626675 Hartrees.
 IExCor= 4639 DFT=T Ex+Corr=wB97XD ExCW=0 ScaHFX=  1.000000
 ScaDFX=  1.000000  1.000000  1.000000  1.000000 ScalE2=  1.000000  1.000000
 IRadAn=      5 IRanWt=     -1 IRanGd=            0 ICorTp=0 IEmpDi=121
 HFx  wShort=  0.000000 wLong=  0.200000 cFull=  0.222036 cShort=  0.000000 cLong=  0.777964
 DFx  wShort=  0.000000 wLong=  0.200000 cFull=  0.000000 cShort=  0.000000 cLong=  1.000000
 NAtoms=   12 NActive=   12 NUniq=   12 SFac= 1.00D+00 NAtFMM=   60 NAOKFM=F Big=F
 Integral buffers will be    131072 words long.
 Raffenetti 2 integral format.
 Two-electron integral symmetry is turned off.
 R6Disp:  Grimme-D2 Dispersion energy=       -0.0053400381 Hartrees.
 Nuclear repulsion after empirical dispersion term =      898.7894226294 Hartrees.
 Leave Link  301 at Fri May 23 05:20:36 2025, MaxMem=  3758096384 cpu:               0.1 elap:               0.0
 (Enter /apps/easybuild-2022/easybuild/software/Compiler/NVHPC/22.11-CUDA-11.7.0/Gaussian/g16c01-CUDA-11.7.0/g16/l302.exe)
 NPDir=0 NMtPBC=     1 NCelOv=     1 NCel=       1 NClECP=     1 NCelD=      1
         NCelK=      1 NCelE2=     1 NClLst=     1 CellRange=     0.0.
 One-electron integrals computed using PRISM.
 NBasis=   257 RedAO= T EigKep=  6.20D-05  NBF=   257
 NBsUse=   257 1.00D-06 EigRej= -1.00D+00 NBFU=   257
 Precomputing XC quadrature grid using
 IXCGrd= 4 IRadAn=           5 IRanWt=          -1 IRanGd=           0 AccXCQ= 0.00D+00.
 Generated NRdTot=       0 NPtTot=           0 NUsed=           0 NTot=          32
 NSgBfM=   268   268   268   268   268 MxSgAt=    12 MxSgA2=    12.
 Leave Link  302 at Fri May 23 05:20:37 2025, MaxMem=  3758096384 cpu:               0.7 elap:               0.2
 (Enter /apps/easybuild-2022/easybuild/software/Compiler/NVHPC/22.11-CUDA-11.7.0/Gaussian/g16c01-CUDA-11.7.0/g16/l303.exe)
 DipDrv:  MaxL=1.
 Leave Link  303 at Fri May 23 05:20:37 2025, MaxMem=  3758096384 cpu:               0.1 elap:               0.0
 (Enter /apps/easybuild-2022/easybuild/software/Compiler/NVHPC/22.11-CUDA-11.7.0/Gaussian/g16c01-CUDA-11.7.0/g16/l401.exe)
 ExpMin= 3.60D-02 ExpMax= 9.34D+04 ExpMxC= 3.17D+03 IAcc=3 IRadAn=         5 AccDes= 0.00D+00
 Harris functional with IExCor= 4639 and IRadAn=       5 diagonalized for initial guess.
 HarFok:  IExCor= 4639 AccDes= 0.00D+00 IRadAn=         5 IDoV= 1 UseB2=F ITyADJ=14
 ICtDFT=  3500011 ScaDFX=  1.000000  1.000000  1.000000  1.000000
 FoFCou: FMM=F IPFlag=           0 FMFlag=      100000 FMFlg1=           0
         NFxFlg=           0 DoJE=T BraDBF=F KetDBF=T FulRan=T
         wScrn=  0.000000 ICntrl=       500 IOpCl=  0 I1Cent=   200000004 NGrid=           0
         NMat0=    1 NMatS0=      1 NMatT0=    0 NMatD0=    1 NMtDS0=    0 NMtDT0=    0
 Symmetry not used in FoFCou.
 Harris En= -1167.05217733012    
 JPrj=0 DoOrth=F DoCkMO=F.
 Leave Link  401 at Fri May 23 05:20:37 2025, MaxMem=  3758096384 cpu:               2.6 elap:               0.4
 (Enter /apps/easybuild-2022/easybuild/software/Compiler/NVHPC/22.11-CUDA-11.7.0/Gaussian/g16c01-CUDA-11.7.0/g16/l502.exe)
 Keep R1 ints in memory in canonical form, NReq=1117474609.
 FoFCou: FMM=F IPFlag=           0 FMFlag=           0 FMFlg1=           0
         NFxFlg=           0 DoJE=F BraDBF=F KetDBF=F FulRan=T
         wScrn=  0.000000 ICntrl=       600 IOpCl=  0 I1Cent=           0 NGrid=           0
         NMat0=    1 NMatS0=  33153 NMatT0=    0 NMatD0=    1 NMtDS0=    0 NMtDT0=    0
 Symmetry not used in FoFCou.
 Two-electron integral symmetry not used.
 Closed shell SCF:
 Using DIIS extrapolation, IDIIS=  1040.
 NGot=  3758096384 LenX=  2658793876 LenY=  2658721611
 Requested convergence on RMS density matrix=1.00D-08 within  32 cycles.
 Requested convergence on MAX density matrix=1.00D-06.
 Requested convergence on             energy=1.00D-06.
 No special actions if energy rises.

 Cycle   1  Pass 1  IDiag  1:
 E= -1199.01814816051    
 DIIS: error= 1.13D-01 at cycle   1 NSaved=   1.
 NSaved= 1 IEnMin= 1 EnMin= -1199.01814816051     IErMin= 1 ErrMin= 1.13D-01
 ErrMax= 1.13D-01  0.00D+00 EMaxC= 1.00D-01 BMatC= 3.35D+00 BMatP= 3.35D+00
 IDIUse=3 WtCom= 0.00D+00 WtEn= 1.00D+00
 Coeff-Com:  0.100D+01
 Coeff-En:   0.100D+01
 Coeff:      0.100D+01
 Gap=     0.576 Goal=   None    Shift=    0.000
 GapD=    0.576 DampG=2.000 DampE=0.250 DampFc=0.5000 IDamp=-1.
 Damping current iteration by 5.00D-01
 RMSDP=6.15D-03 MaxDP=2.94D-01              OVMax= 2.46D-01

 Cycle   2  Pass 1  IDiag  1:
 E= -1199.37035339446     Delta-E=       -0.352205233954 Rises=F Damp=T
 DIIS: error= 4.90D-02 at cycle   2 NSaved=   2.
 NSaved= 2 IEnMin= 2 EnMin= -1199.37035339446     IErMin= 2 ErrMin= 4.90D-02
 ErrMax= 4.90D-02  0.00D+00 EMaxC= 1.00D-01 BMatC= 4.89D-01 BMatP= 3.35D+00
 IDIUse=3 WtCom= 5.10D-01 WtEn= 4.90D-01
 Coeff-Com: -0.365D+00 0.136D+01
 Coeff-En:   0.000D+00 0.100D+01
 Coeff:     -0.186D+00 0.119D+01
 Gap=     0.490 Goal=   None    Shift=    0.000
 RMSDP=2.90D-03 MaxDP=1.76D-01 DE=-3.52D-01 OVMax= 1.65D-01

 Cycle   3  Pass 1  IDiag  1:
 E= -1199.62325482673     Delta-E=       -0.252901432266 Rises=F Damp=F
 DIIS: error= 1.88D-02 at cycle   3 NSaved=   3.
 NSaved= 3 IEnMin= 3 EnMin= -1199.62325482673     IErMin= 3 ErrMin= 1.88D-02
 ErrMax= 1.88D-02  0.00D+00 EMaxC= 1.00D-01 BMatC= 1.62D-01 BMatP= 4.89D-01
 IDIUse=3 WtCom= 8.12D-01 WtEn= 1.88D-01
 Coeff-Com: -0.206D+00 0.616D+00 0.590D+00
 Coeff-En:   0.000D+00 0.000D+00 0.100D+01
 Coeff:     -0.167D+00 0.500D+00 0.668D+00
 Gap=     0.450 Goal=   None    Shift=    0.000
 RMSDP=2.72D-03 MaxDP=1.20D-01 DE=-2.53D-01 OVMax= 1.49D-01

 Cycle   4  Pass 1  IDiag  1:
 E= -1199.68966404460     Delta-E=       -0.066409217877 Rises=F Damp=F
 DIIS: error= 1.24D-02 at cycle   4 NSaved=   4.
 NSaved= 4 IEnMin= 4 EnMin= -1199.68966404460     IErMin= 4 ErrMin= 1.24D-02
 ErrMax= 1.24D-02  0.00D+00 EMaxC= 1.00D-01 BMatC= 6.15D-02 BMatP= 1.62D-01
 IDIUse=3 WtCom= 8.76D-01 WtEn= 1.24D-01
 Coeff-Com: -0.495D-01 0.126D+00 0.395D+00 0.528D+00
 Coeff-En:   0.000D+00 0.000D+00 0.309D+00 0.691D+00
 Coeff:     -0.433D-01 0.110D+00 0.385D+00 0.548D+00
 Gap=     0.395 Goal=   None    Shift=    0.000
 RMSDP=1.26D-03 MaxDP=7.12D-02 DE=-6.64D-02 OVMax= 4.91D-02

 Cycle   5  Pass 1  IDiag  1:
 E= -1199.73024312832     Delta-E=       -0.040579083716 Rises=F Damp=F
 DIIS: error= 2.16D-03 at cycle   5 NSaved=   5.
 NSaved= 5 IEnMin= 5 EnMin= -1199.73024312832     IErMin= 5 ErrMin= 2.16D-03
 ErrMax= 2.16D-03  0.00D+00 EMaxC= 1.00D-01 BMatC= 2.58D-03 BMatP= 6.15D-02
 IDIUse=3 WtCom= 9.78D-01 WtEn= 2.16D-02
 Coeff-Com: -0.753D-02 0.148D-01 0.151D+00 0.289D+00 0.553D+00
 Coeff-En:   0.000D+00 0.000D+00 0.000D+00 0.000D+00 0.100D+01
 Coeff:     -0.737D-02 0.145D-01 0.148D+00 0.282D+00 0.562D+00
 Gap=     0.386 Goal=   None    Shift=    0.000
 RMSDP=1.77D-04 MaxDP=6.61D-03 DE=-4.06D-02 OVMax= 6.48D-03

 Cycle   6  Pass 1  IDiag  1:
 E= -1199.73182220047     Delta-E=       -0.001579072149 Rises=F Damp=F
 DIIS: error= 3.35D-04 at cycle   6 NSaved=   6.
 NSaved= 6 IEnMin= 6 EnMin= -1199.73182220047     IErMin= 6 ErrMin= 3.35D-04
 ErrMax= 3.35D-04  0.00D+00 EMaxC= 1.00D-01 BMatC= 4.64D-05 BMatP= 2.58D-03
 IDIUse=3 WtCom= 9.97D-01 WtEn= 3.35D-03
 Coeff-Com:  0.278D-02-0.715D-02-0.111D-01 0.103D-02 0.118D+00 0.896D+00
 Coeff-En:   0.000D+00 0.000D+00 0.000D+00 0.000D+00 0.000D+00 0.100D+01
 Coeff:      0.277D-02-0.712D-02-0.111D-01 0.103D-02 0.118D+00 0.896D+00
 Gap=     0.386 Goal=   None    Shift=    0.000
 RMSDP=5.78D-05 MaxDP=1.73D-03 DE=-1.58D-03 OVMax= 2.38D-03

 Cycle   7  Pass 1  IDiag  1:
 E= -1199.73186885864     Delta-E=       -0.000046658166 Rises=F Damp=F
 DIIS: error= 7.66D-05 at cycle   7 NSaved=   7.
 NSaved= 7 IEnMin= 7 EnMin= -1199.73186885864     IErMin= 7 ErrMin= 7.66D-05
 ErrMax= 7.66D-05  0.00D+00 EMaxC= 1.00D-01 BMatC= 4.30D-06 BMatP= 4.64D-05
 IDIUse=1 WtCom= 1.00D+00 WtEn= 0.00D+00
 Coeff-Com:  0.124D-02-0.281D-02-0.103D-01-0.140D-01 0.375D-02 0.285D+00
 Coeff-Com:  0.737D+00
 Coeff:      0.124D-02-0.281D-02-0.103D-01-0.140D-01 0.375D-02 0.285D+00
 Coeff:      0.737D+00
 Gap=     0.386 Goal=   None    Shift=    0.000
 RMSDP=1.75D-05 MaxDP=8.40D-04 DE=-4.67D-05 OVMax= 8.49D-04

 Cycle   8  Pass 1  IDiag  1:
 E= -1199.73187292412     Delta-E=       -0.000004065488 Rises=F Damp=F
 DIIS: error= 4.41D-05 at cycle   8 NSaved=   8.
 NSaved= 8 IEnMin= 8 EnMin= -1199.73187292412     IErMin= 8 ErrMin= 4.41D-05
 ErrMax= 4.41D-05  0.00D+00 EMaxC= 1.00D-01 BMatC= 1.00D-06 BMatP= 4.30D-06
 IDIUse=1 WtCom= 1.00D+00 WtEn= 0.00D+00
 Coeff-Com:  0.346D-03-0.704D-03-0.440D-02-0.840D-02-0.167D-01 0.245D-01
 Coeff-Com:  0.345D+00 0.660D+00
 Coeff:      0.346D-03-0.704D-03-0.440D-02-0.840D-02-0.167D-01 0.245D-01
 Coeff:      0.345D+00 0.660D+00
 Gap=     0.386 Goal=   None    Shift=    0.000
 RMSDP=7.52D-06 MaxDP=2.30D-04 DE=-4.07D-06 OVMax= 3.95D-04

 Cycle   9  Pass 1  IDiag  1:
 E= -1199.73187390727     Delta-E=       -0.000000983146 Rises=F Damp=F
 DIIS: error= 1.48D-05 at cycle   9 NSaved=   9.
 NSaved= 9 IEnMin= 9 EnMin= -1199.73187390727     IErMin= 9 ErrMin= 1.48D-05
 ErrMax= 1.48D-05  0.00D+00 EMaxC= 1.00D-01 BMatC= 9.56D-08 BMatP= 1.00D-06
 IDIUse=1 WtCom= 1.00D+00 WtEn= 0.00D+00
 Coeff-Com: -0.845D-04 0.203D-03 0.286D-04-0.697D-03-0.643D-02-0.330D-01
 Coeff-Com:  0.105D-01 0.235D+00 0.795D+00
 Coeff:     -0.845D-04 0.203D-03 0.286D-04-0.697D-03-0.643D-02-0.330D-01
 Coeff:      0.105D-01 0.235D+00 0.795D+00
 Gap=     0.386 Goal=   None    Shift=    0.000
 RMSDP=4.17D-06 MaxDP=1.17D-04 DE=-9.83D-07 OVMax= 2.77D-04

 Cycle  10  Pass 1  IDiag  1:
 E= -1199.73187407484     Delta-E=       -0.000000167566 Rises=F Damp=F
 DIIS: error= 5.02D-06 at cycle  10 NSaved=  10.
 NSaved=10 IEnMin=10 EnMin= -1199.73187407484     IErMin=10 ErrMin= 5.02D-06
 ErrMax= 5.02D-06  0.00D+00 EMaxC= 1.00D-01 BMatC= 2.03D-08 BMatP= 9.56D-08
 IDIUse=1 WtCom= 1.00D+00 WtEn= 0.00D+00
 Coeff-Com: -0.739D-04 0.158D-03 0.488D-03 0.828D-03 0.112D-04-0.152D-01
 Coeff-Com: -0.494D-01-0.223D-01 0.329D+00 0.757D+00
 Coeff:     -0.739D-04 0.158D-03 0.488D-03 0.828D-03 0.112D-04-0.152D-01
 Coeff:     -0.494D-01-0.223D-01 0.329D+00 0.757D+00
 Gap=     0.386 Goal=   None    Shift=    0.000
 RMSDP=1.81D-06 MaxDP=4.10D-05 DE=-1.68D-07 OVMax= 1.21D-04

 Cycle  11  Pass 1  IDiag  1:
 E= -1199.73187410983     Delta-E=       -0.000000034997 Rises=F Damp=F
 DIIS: error= 1.50D-06 at cycle  11 NSaved=  11.
 NSaved=11 IEnMin=11 EnMin= -1199.73187410983     IErMin=11 ErrMin= 1.50D-06
 ErrMax= 1.50D-06  0.00D+00 EMaxC= 1.00D-01 BMatC= 1.96D-09 BMatP= 2.03D-08
 IDIUse=1 WtCom= 1.00D+00 WtEn= 0.00D+00
 Coeff-Com: -0.103D-04 0.206D-04 0.120D-03 0.355D-03 0.122D-02 0.192D-02
 Coeff-Com: -0.137D-01-0.480D-01-0.499D-01 0.198D+00 0.910D+00
 Coeff:     -0.103D-04 0.206D-04 0.120D-03 0.355D-03 0.122D-02 0.192D-02
 Coeff:     -0.137D-01-0.480D-01-0.499D-01 0.198D+00 0.910D+00
 Gap=     0.386 Goal=   None    Shift=    0.000
 RMSDP=8.54D-07 MaxDP=2.34D-05 DE=-3.50D-08 OVMax= 6.06D-05

 Cycle  12  Pass 1  IDiag  1:
 E= -1199.73187411451     Delta-E=       -0.000000004676 Rises=F Damp=F
 DIIS: error= 8.52D-07 at cycle  12 NSaved=  12.
 NSaved=12 IEnMin=12 EnMin= -1199.73187411451     IErMin=12 ErrMin= 8.52D-07
 ErrMax= 8.52D-07  0.00D+00 EMaxC= 1.00D-01 BMatC= 4.04D-10 BMatP= 1.96D-09
 IDIUse=1 WtCom= 1.00D+00 WtEn= 0.00D+00
 Coeff-Com:  0.453D-05-0.969D-05-0.133D-04 0.230D-04 0.442D-03 0.238D-02
 Coeff-Com:  0.129D-02-0.146D-01-0.653D-01-0.404D-02 0.373D+00 0.707D+00
 Coeff:      0.453D-05-0.969D-05-0.133D-04 0.230D-04 0.442D-03 0.238D-02
 Coeff:      0.129D-02-0.146D-01-0.653D-01-0.404D-02 0.373D+00 0.707D+00
 Gap=     0.386 Goal=   None    Shift=    0.000
 RMSDP=2.22D-07 MaxDP=7.21D-06 DE=-4.68D-09 OVMax= 1.77D-05

 Cycle  13  Pass 1  IDiag  1:
 E= -1199.73187411507     Delta-E=       -0.000000000557 Rises=F Damp=F
 DIIS: error= 2.36D-07 at cycle  13 NSaved=  13.
 NSaved=13 IEnMin=13 EnMin= -1199.73187411507     IErMin=13 ErrMin= 2.36D-07
 ErrMax= 2.36D-07  0.00D+00 EMaxC= 1.00D-01 BMatC= 3.59D-11 BMatP= 4.04D-10
 IDIUse=1 WtCom= 1.00D+00 WtEn= 0.00D+00
 Coeff-Com:  0.303D-05-0.640D-05-0.147D-04-0.446D-04-0.107D-03 0.502D-04
 Coeff-Com:  0.225D-02 0.584D-02-0.425D-02-0.223D-01-0.980D-01 0.104D+00
 Coeff-Com:  0.101D+01
 Coeff:      0.303D-05-0.640D-05-0.147D-04-0.446D-04-0.107D-03 0.502D-04
 Coeff:      0.225D-02 0.584D-02-0.425D-02-0.223D-01-0.980D-01 0.104D+00
 Coeff:      0.101D+01
 Gap=     0.386 Goal=   None    Shift=    0.000
 RMSDP=1.08D-07 MaxDP=3.03D-06 DE=-5.57D-10 OVMax= 9.44D-06

 Cycle  14  Pass 1  IDiag  1:
 E= -1199.73187411517     Delta-E=       -0.000000000108 Rises=F Damp=F
 DIIS: error= 8.23D-08 at cycle  14 NSaved=  14.
 NSaved=14 IEnMin=14 EnMin= -1199.73187411517     IErMin=14 ErrMin= 8.23D-08
 ErrMax= 8.23D-08  0.00D+00 EMaxC= 1.00D-01 BMatC= 4.13D-12 BMatP= 3.59D-11
 IDIUse=1 WtCom= 1.00D+00 WtEn= 0.00D+00
 Coeff-Com:  0.754D-06-0.167D-05-0.467D-05-0.153D-04-0.674D-04-0.139D-03
 Coeff-Com:  0.645D-03 0.253D-02 0.359D-02-0.563D-02-0.576D-01-0.371D-01
 Coeff-Com:  0.275D+00 0.819D+00
 Coeff:      0.754D-06-0.167D-05-0.467D-05-0.153D-04-0.674D-04-0.139D-03
 Coeff:      0.645D-03 0.253D-02 0.359D-02-0.563D-02-0.576D-01-0.371D-01
 Coeff:      0.275D+00 0.819D+00
 Gap=     0.386 Goal=   None    Shift=    0.000
 RMSDP=3.20D-08 MaxDP=9.68D-07 DE=-1.08D-10 OVMax= 2.54D-06

 Cycle  15  Pass 1  IDiag  1:
 E= -1199.73187411527     Delta-E=       -0.000000000096 Rises=F Damp=F
 DIIS: error= 4.11D-08 at cycle  15 NSaved=  15.
 NSaved=15 IEnMin=15 EnMin= -1199.73187411527     IErMin=15 ErrMin= 4.11D-08
 ErrMax= 4.11D-08  0.00D+00 EMaxC= 1.00D-01 BMatC= 1.12D-12 BMatP= 4.13D-12
 IDIUse=1 WtCom= 1.00D+00 WtEn= 0.00D+00
 Coeff-Com: -0.223D-06 0.435D-06 0.120D-06 0.448D-06-0.155D-04-0.786D-04
 Coeff-Com: -0.509D-04 0.823D-04 0.231D-02 0.116D-02-0.873D-02-0.374D-01
 Coeff-Com: -0.500D-01 0.364D+00 0.729D+00
 Coeff:     -0.223D-06 0.435D-06 0.120D-06 0.448D-06-0.155D-04-0.786D-04
 Coeff:     -0.509D-04 0.823D-04 0.231D-02 0.116D-02-0.873D-02-0.374D-01
 Coeff:     -0.500D-01 0.364D+00 0.729D+00
 Gap=     0.386 Goal=   None    Shift=    0.000
 RMSDP=1.36D-08 MaxDP=4.80D-07 DE=-9.60D-11 OVMax= 9.55D-07

 Cycle  16  Pass 1  IDiag  1:
 E= -1199.73187411526     Delta-E=        0.000000000010 Rises=F Damp=F
 DIIS: error= 7.55D-09 at cycle  16 NSaved=  16.
 NSaved=16 IEnMin=15 EnMin= -1199.73187411527     IErMin=16 ErrMin= 7.55D-09
 ErrMax= 7.55D-09  0.00D+00 EMaxC= 1.00D-01 BMatC= 5.10D-14 BMatP= 1.12D-12
 IDIUse=1 WtCom= 1.00D+00 WtEn= 0.00D+00
 Coeff-Com: -0.148D-06 0.312D-06 0.596D-06 0.190D-05 0.318D-05-0.958D-05
 Coeff-Com: -0.770D-04-0.252D-03 0.155D-03 0.942D-03 0.405D-02-0.571D-02
 Coeff-Com: -0.368D-01-0.755D-03 0.148D+00 0.891D+00
 Coeff:     -0.148D-06 0.312D-06 0.596D-06 0.190D-05 0.318D-05-0.958D-05
 Coeff:     -0.770D-04-0.252D-03 0.155D-03 0.942D-03 0.405D-02-0.571D-02
 Coeff:     -0.368D-01-0.755D-03 0.148D+00 0.891D+00
 Gap=     0.386 Goal=   None    Shift=    0.000
 RMSDP=4.45D-09 MaxDP=1.59D-07 DE= 1.05D-11 OVMax= 2.74D-07

 SCF Done:  E(RwB97XD) =  -1199.73187412     A.U. after   16 cycles
            NFock= 16  Conv=0.44D-08     -V/T= 2.0019
 KE= 1.197439811794D+03 PE=-4.645736890099D+03 EE= 1.349775781560D+03
 Leave Link  502 at Fri May 23 05:20:52 2025, MaxMem=  3758096384 cpu:              70.4 elap:              14.9
 (Enter /apps/easybuild-2022/easybuild/software/Compiler/NVHPC/22.11-CUDA-11.7.0/Gaussian/g16c01-CUDA-11.7.0/g16/l508.exe)
 QCSCF skips out because SCF is already converged.
 Leave Link  508 at Fri May 23 05:20:52 2025, MaxMem=  3758096384 cpu:               0.1 elap:               0.0
 (Enter /apps/easybuild-2022/easybuild/software/Compiler/NVHPC/22.11-CUDA-11.7.0/Gaussian/g16c01-CUDA-11.7.0/g16/l801.exe)
 DoSCS=F DFT=T ScalE2(SS,OS)=  1.000000  1.000000
 Range of M.O.s used for correlation:     1   257
 NBasis=   257 NAE=    49 NBE=    49 NFC=     0 NFV=     0
 NROrb=    257 NOA=    49 NOB=    49 NVA=   208 NVB=   208

 **** Warning!!: The largest alpha MO coefficient is  0.37971152D+02

 Leave Link  801 at Fri May 23 05:20:52 2025, MaxMem=  3758096384 cpu:               0.1 elap:               0.0
 (Enter /apps/easybuild-2022/easybuild/software/Compiler/NVHPC/22.11-CUDA-11.7.0/Gaussian/g16c01-CUDA-11.7.0/g16/l1101.exe)
 Using compressed storage, NAtomX=    12.
 Will process     13 centers per pass.
 R6Disp: Adding Grimme-D2 dispersion energy 1st derivatives to the gradient.
 Leave Link 1101 at Fri May 23 05:20:52 2025, MaxMem=  3758096384 cpu:               0.5 elap:               0.1
 (Enter /apps/easybuild-2022/easybuild/software/Compiler/NVHPC/22.11-CUDA-11.7.0/Gaussian/g16c01-CUDA-11.7.0/g16/l1102.exe)
 Symmetrizing basis deriv contribution to polar:
 IMax=3 JMax=2 DiffMx= 0.00D+00
 Leave Link 1102 at Fri May 23 05:20:52 2025, MaxMem=  3758096384 cpu:               0.0 elap:               0.0
 (Enter /apps/easybuild-2022/easybuild/software/Compiler/NVHPC/22.11-CUDA-11.7.0/Gaussian/g16c01-CUDA-11.7.0/g16/l1110.exe)
 Forming Gx(P) for the SCF density, NAtomX=    12.
 Integral derivatives from FoFJK, PRISM(SPDF).
 Do as many integral derivatives as possible in FoFJK.
 G2DrvN: MDV=    3758095012.
 G2DrvN: will do    13 centers at a time, making    1 passes.
 Calling FoFCou, ICntrl=  3107 FMM=F I1Cent=   0 AccDes= 0.00D+00.
 FoFJK:  IHMeth= 1 ICntrl=    3107 DoSepK=T KAlg= 0 I1Cent=           0 FoldK=F
 IRaf=         1 NMat=       1 IRICut=       1 DoRegI=T DoRafI=F ISym2E= 0 IDoP0=0 IntGTp=1.
 FoFCou: FMM=F IPFlag=           0 FMFlag=      100000 FMFlg1=           0
         NFxFlg=           0 DoJE=F BraDBF=F KetDBF=F FulRan=T
         wScrn=  0.000000 ICntrl=      3507 IOpCl=  0 I1Cent=           0 NGrid=           0
         NMat0=    1 NMatS0=      1 NMatT0=    0 NMatD0=    1 NMtDS0=    0 NMtDT0=    0
 Symmetry not used in FoFCou.
 End of G2Drv F.D. properties file   721 does not exist.
 End of G2Drv F.D. properties file   722 does not exist.
 End of G2Drv F.D. properties file   788 does not exist.
 Leave Link 1110 at Fri May 23 05:21:05 2025, MaxMem=  3758096384 cpu:             101.4 elap:              12.8
 (Enter /apps/easybuild-2022/easybuild/software/Compiler/NVHPC/22.11-CUDA-11.7.0/Gaussian/g16c01-CUDA-11.7.0/g16/l1002.exe)
 Minotr:  Closed shell wavefunction.
          IDoAtm=111111111111
          Direct CPHF calculation.
          Differentiating once with respect to nuclear coordinates.
          Requested convergence is 1.0D-08 RMS, and 1.0D-07 maximum.
          Secondary convergence is 1.0D-12 RMS, and 1.0D-12 maximum.
          NewPWx=T KeepS1=F KeepF1=F KeepIn=T MapXYZ=F SortEE=F KeepMc=T.
         3717 words used for storage of precomputed grid.
 Keep R1 ints in memory in canonical form, NReq=1117480309.
 FoFCou: FMM=F IPFlag=           0 FMFlag=           0 FMFlg1=           0
         NFxFlg=           0 DoJE=F BraDBF=F KetDBF=F FulRan=T
         wScrn=  0.000000 ICntrl=       600 IOpCl=  0 I1Cent=           0 NGrid=           0
         NMat0=    1 NMatS0=  33153 NMatT0=    0 NMatD0=    1 NMtDS0=    0 NMtDT0=    0
 Symmetry not used in FoFCou.
 Two-electron integral symmetry not used.
          MDV=    3758096384 using IRadAn=       1.
          Solving linear equations simultaneously, MaxMat=       0.
          There are    39 degrees of freedom in the 1st order CPHF.  IDoFFX=6 NUNeed=     0.
     33 vectors produced by pass  0 Test12= 2.61D-14 2.56D-09 XBig12= 1.41D-01 1.14D-01.
 AX will form    33 AO Fock derivatives at one time.
     33 vectors produced by pass  1 Test12= 2.61D-14 2.56D-09 XBig12= 1.26D-02 2.37D-02.
     33 vectors produced by pass  2 Test12= 2.61D-14 2.56D-09 XBig12= 1.81D-03 5.86D-03.
     33 vectors produced by pass  3 Test12= 2.61D-14 2.56D-09 XBig12= 3.79D-05 7.19D-04.
     33 vectors produced by pass  4 Test12= 2.61D-14 2.56D-09 XBig12= 5.82D-07 8.96D-05.
     33 vectors produced by pass  5 Test12= 2.61D-14 2.56D-09 XBig12= 7.53D-09 9.54D-06.
     33 vectors produced by pass  6 Test12= 2.61D-14 2.56D-09 XBig12= 6.88D-11 1.15D-06.
     24 vectors produced by pass  7 Test12= 2.61D-14 2.56D-09 XBig12= 5.52D-13 8.71D-08.
      4 vectors produced by pass  8 Test12= 2.61D-14 2.56D-09 XBig12= 3.68D-15 7.23D-09.
 InvSVY:  IOpt=1 It=  1 EMax= 1.33D-15
 Solved reduced A of dimension   259 with    33 vectors.
 End of Minotr F.D. properties file   721 does not exist.
 End of Minotr F.D. properties file   722 does not exist.
 End of Minotr F.D. properties file   788 does not exist.
 Leave Link 1002 at Fri May 23 05:21:28 2025, MaxMem=  3758096384 cpu:             181.1 elap:              23.2
 (Enter /apps/easybuild-2022/easybuild/software/Compiler/NVHPC/22.11-CUDA-11.7.0/Gaussian/g16c01-CUDA-11.7.0/g16/l701.exe)
 ... and contract with generalized density number  0.
 Compute integral second derivatives.
 R6Disp: Adding Grimme-D2 dispersion energy 2nd derivatives to the Hessian.
 Leave Link  701 at Fri May 23 05:21:28 2025, MaxMem=  3758096384 cpu:               0.5 elap:               0.1
 (Enter /apps/easybuild-2022/easybuild/software/Compiler/NVHPC/22.11-CUDA-11.7.0/Gaussian/g16c01-CUDA-11.7.0/g16/l702.exe)
 L702 exits ... SP integral derivatives will be done elsewhere.
 Leave Link  702 at Fri May 23 05:21:28 2025, MaxMem=  3758096384 cpu:               0.0 elap:               0.0
 (Enter /apps/easybuild-2022/easybuild/software/Compiler/NVHPC/22.11-CUDA-11.7.0/Gaussian/g16c01-CUDA-11.7.0/g16/l703.exe)
 Integral derivatives from FoFJK, PRISM(SPDF).
 Compute integral second derivatives, UseDBF=F ICtDFT=           0.
 Calling FoFJK, ICntrl=    100127 FMM=F ISym2X=0 I1Cent= 0 IOpClX= 0 NMat=1 NMatS=1 NMatT=0.
 FoFJK:  IHMeth= 1 ICntrl=  100127 DoSepK=T KAlg= 0 I1Cent=           0 FoldK=F
 IRaf=         1 NMat=       1 IRICut=       1 DoRegI=T DoRafI=F ISym2E= 0 IDoP0=0 IntGTp=1.
 FoFCou: FMM=F IPFlag=           0 FMFlag=      100000 FMFlg1=         800
         NFxFlg=           0 DoJE=F BraDBF=F KetDBF=F FulRan=T
         wScrn=  0.000000 ICntrl=    100527 IOpCl=  0 I1Cent=           0 NGrid=           0
         NMat0=    1 NMatS0=      1 NMatT0=    0 NMatD0=    1 NMtDS0=    0 NMtDT0=    0
 Symmetry not used in FoFCou.
 Leave Link  703 at Fri May 23 05:22:03 2025, MaxMem=  3758096384 cpu:             273.9 elap:              34.5
 (Enter /apps/easybuild-2022/easybuild/software/Compiler/NVHPC/22.11-CUDA-11.7.0/Gaussian/g16c01-CUDA-11.7.0/g16/l716.exe)
 Dipole        =-7.63367426D-01 5.02190103D-01-1.75473433D-01
 Polarizability= 0.00000000D+00 0.00000000D+00 0.00000000D+00
                 0.00000000D+00 0.00000000D+00 0.00000000D+00
 -------------------------------------------------------------------
 Center     Atomic                   Forces (Hartrees/Bohr)
 Number     Number              X              Y              Z
 -------------------------------------------------------------------
      1        6          -0.000233843   -0.001268870   -0.000461683
      2        6           0.009282784    0.005982622    0.008250950
      3        9          -0.007025202   -0.002142592    0.000604227
      4        9          -0.001689311   -0.000564384   -0.002720728
      5       16           0.000714267    0.001783312    0.002654798
      6        8          -0.003441771   -0.002121035   -0.014196448
      7        8           0.001143166    0.005128350   -0.001192704
      8        8           0.002783145   -0.005933620    0.006940313
      9        9          -0.000714185    0.000480544   -0.000015205
     10        9          -0.000353051   -0.000121002   -0.000493453
     11        9          -0.001088804    0.000435316    0.001071812
     12        1           0.000622804   -0.001658640   -0.000441878
 -------------------------------------------------------------------
 Cartesian Forces:  Max     0.014196448 RMS     0.004124981
 Force constants in Cartesian coordinates: 
                1             2             3             4             5 
      1  0.544892D+00
      2 -0.939738D-02  0.556131D+00
      3 -0.268055D-03 -0.601427D-02  0.593746D+00
      4 -0.583554D-01 -0.281993D-02 -0.236473D-01  0.462641D+00
      5  0.116224D-02 -0.392798D-01 -0.141602D-01  0.182764D-01  0.525555D+00
      6  0.185086D-01 -0.138341D-01 -0.181086D+00  0.735281D-01 -0.158528D-02
      7 -0.995426D-02 -0.156550D-01  0.135138D-02 -0.142575D+00 -0.112829D+00
      8 -0.181413D-01 -0.264677D-01 -0.186107D-02 -0.111640D+00 -0.222327D+00
      9 -0.254481D-01 -0.349046D-01 -0.152599D-03 -0.346790D-01 -0.436632D-01
     10 -0.106870D-01  0.176649D-01  0.105429D-02 -0.149075D+00  0.990361D-01
     11  0.129817D-01 -0.201125D-01  0.541415D-02  0.987132D-01 -0.185058D+00
     12 -0.262696D-01  0.382554D-01 -0.856224D-02 -0.515045D-01  0.585217D-01
     13  0.131107D-01  0.389444D-03  0.224350D-01 -0.804379D-01 -0.411789D-01
     14 -0.495583D-02  0.147641D-01 -0.766362D-02  0.129866D-02 -0.409164D-01
     15  0.314086D-01 -0.311489D-02 -0.985966D-02  0.397281D-01  0.211954D-01
     16 -0.212703D-03 -0.699013D-03  0.134558D-02 -0.495520D-02 -0.132258D-02
     17 -0.963517D-03 -0.113734D-02  0.233746D-03 -0.360484D-02 -0.108920D-02
     18 -0.180036D-02 -0.131233D-03  0.270461D-03  0.198803D-02  0.682388D-02
     19 -0.382589D-02 -0.325638D-02 -0.639527D-02 -0.123517D-02  0.305605D-01
     20  0.757399D-02 -0.567120D-02  0.817977D-02 -0.118605D-02 -0.298533D-02
     21 -0.107537D-01  0.483807D-02 -0.522601D-02 -0.117744D-02 -0.709828D-02
     22 -0.520578D-02  0.574867D-03 -0.260136D-02  0.332976D-02  0.577180D-02
     23 -0.175957D-02 -0.158120D-02  0.679457D-03  0.709028D-03  0.420455D-02
     24  0.609361D-02  0.198159D-02  0.720717D-02 -0.139033D-01 -0.118458D-01
     25 -0.105061D+00  0.638219D-01 -0.437795D-01  0.171285D-02  0.115695D-01
     26  0.651058D-01 -0.211964D+00  0.938583D-01  0.623462D-02 -0.191298D-01
     27 -0.414760D-01  0.841388D-01 -0.146756D+00 -0.147228D-01  0.378040D-01
     28 -0.138296D+00 -0.834535D-01 -0.435851D-01 -0.647913D-02 -0.174772D-01
     29 -0.840793D-01 -0.183481D+00 -0.570992D-01 -0.158425D-01 -0.199373D-01
     30 -0.392535D-01 -0.514225D-01 -0.110543D+00 -0.220108D-01 -0.307908D-01
     31 -0.226639D+00  0.327828D-01  0.944702D-01 -0.277291D-01  0.510294D-02
     32  0.325863D-01 -0.813277D-01 -0.211445D-01  0.112837D-01  0.115355D-02
     33  0.893856D-01 -0.193264D-01 -0.137753D+00  0.502557D-01 -0.674109D-02
     34  0.233309D-03  0.472720D-04 -0.379917D-03  0.315847D-02  0.132847D-02
     35 -0.113178D-03  0.127066D-03 -0.422675D-03 -0.142229D-02 -0.190373D-03
     36 -0.127184D-03 -0.465893D-03 -0.128446D-02 -0.385470D-02 -0.846033D-02
                6             7             8             9            10 
      6  0.477684D+00
      7 -0.461871D-01  0.141033D+00
      8 -0.617951D-01  0.139439D+00  0.322298D+00
      9 -0.891927D-01  0.396032D-01  0.713809D-01  0.909343D-01
     10 -0.619000D-01  0.223191D-01 -0.721913D-02  0.840652D-02  0.150234D+00
     11  0.732032D-01  0.101138D-01 -0.740475D-01  0.947897D-02 -0.133380D+00
     12 -0.108648D+00  0.749398D-02  0.431022D-02  0.139604D-01  0.689781D-01
     13  0.860440D-02 -0.244344D-01 -0.108566D-01  0.758082D-02 -0.788350D-02
     14 -0.245729D-02 -0.401272D-01 -0.224943D-01  0.659291D-02  0.259470D-01
     15 -0.462124D-01 -0.255371D-02 -0.133734D-02 -0.471182D-03 -0.187419D-01
     16 -0.117952D-02  0.101443D-02  0.601882D-02  0.675134D-02  0.625456D-03
     17  0.880975D-03  0.436109D-02  0.301980D-02 -0.193885D-02  0.848299D-03
     18  0.484677D-02  0.675377D-02 -0.669892D-02 -0.104530D-01  0.265025D-03
     19 -0.986526D-02  0.433100D-02 -0.151206D-02 -0.117398D-03 -0.149262D-01
     20  0.319209D-02  0.989801D-02  0.106300D-01 -0.141279D-02  0.304457D-02
     21  0.953355D-02 -0.306773D-02 -0.368296D-02  0.103544D-02  0.321167D-02
     22  0.141783D-01  0.419697D-02  0.237327D-02 -0.136687D-02  0.241545D-02
     23  0.443383D-02  0.233311D-02  0.971825D-04 -0.134689D-02 -0.135896D-02
     24 -0.369981D-01 -0.601135D-03  0.316179D-02  0.580581D-02  0.344041D-02
     25 -0.618654D-02  0.126844D-02  0.887641D-03  0.771177D-03  0.594900D-03
     26  0.432358D-02  0.691133D-03  0.665374D-02  0.736504D-04 -0.275159D-03
     27 -0.525704D-02 -0.432639D-03 -0.196907D-02 -0.910324D-03 -0.336320D-02
     28 -0.990506D-03  0.521627D-03 -0.133455D-02 -0.508016D-02  0.119516D-02
     29  0.152599D-03 -0.575773D-03 -0.667196D-03 -0.657547D-02 -0.107423D-02
     30  0.799772D-03 -0.363662D-02 -0.541112D-02 -0.112021D-01 -0.466302D-03
     31  0.112276D-01  0.536422D-02  0.265869D-02  0.864860D-03  0.601173D-02
     32 -0.436010D-02  0.938456D-03  0.277285D-02  0.175008D-02 -0.368914D-02
     33 -0.239793D-01 -0.285062D-02 -0.756298D-03  0.933690D-03 -0.969281D-03
     34  0.261828D-03 -0.308531D-02 -0.674240D-03  0.271361D-02 -0.823334D-03
     35 -0.215436D-02  0.141225D-02  0.532150D-03  0.565296D-03  0.456318D-03
     36 -0.149060D-02  0.412722D-02  0.465901D-02 -0.287630D-03  0.846859D-04
               11            12            13            14            15 
     11  0.278132D+00
     12 -0.975425D-01  0.110543D+00
     13  0.700422D-02  0.161893D-02  0.319375D+00
     14 -0.726942D-02 -0.256678D-02 -0.131821D+00  0.570479D+00
     15  0.453582D-02  0.239753D-02  0.831061D-01 -0.130407D+00  0.297344D+00
     16 -0.153365D-03  0.515168D-03 -0.859041D-02 -0.311357D-01 -0.177705D-01
     17 -0.369915D-03 -0.418218D-04 -0.185567D-01 -0.390860D-01 -0.339039D-01
     18 -0.135731D-02  0.114116D-03 -0.138251D-01 -0.314631D-01 -0.127569D-01
     19  0.783611D-02  0.211864D-02 -0.161571D+00  0.172067D+00 -0.801721D-01
     20 -0.285947D-02 -0.107003D-02  0.205873D+00 -0.414083D+00  0.170390D+00
     21  0.128682D-02 -0.350093D-04 -0.848252D-01  0.145810D+00 -0.118863D+00
     22 -0.179142D-02  0.122432D-02 -0.418228D-01  0.594711D-02 -0.232480D-01
     23  0.137365D-02 -0.129131D-02 -0.902994D-02 -0.467475D-01 -0.285106D-01
     24 -0.139073D-02  0.302836D-02 -0.419993D-02  0.205809D-01 -0.106193D+00
     25  0.312858D-03 -0.255270D-02 -0.504337D-02  0.332147D-02 -0.339474D-02
     26  0.101790D-02  0.445812D-02  0.446744D-02 -0.524901D-02  0.161469D-02
     27  0.384904D-02 -0.126086D-01 -0.387890D-02  0.121615D-02 -0.318056D-03
     28  0.937280D-03 -0.331560D-03 -0.353307D-02  0.439247D-04 -0.298323D-02
     29  0.600111D-02 -0.334396D-02 -0.186738D-02 -0.256188D-02 -0.481742D-03
     30  0.141781D-02 -0.142546D-02 -0.199483D-02  0.142902D-02 -0.907757D-03
     31 -0.278162D-02 -0.112251D-02  0.286319D-02 -0.582739D-03 -0.227324D-02
     32  0.345942D-02 -0.324314D-03 -0.162878D-02 -0.103146D-02  0.126926D-04
     33 -0.552291D-03  0.160626D-02 -0.902496D-02  0.252055D-02 -0.233806D-02
     34  0.207736D-03 -0.168215D-03 -0.203246D-02 -0.211183D-05 -0.310525D-02
     35 -0.267642D-03  0.635292D-03 -0.279489D-02 -0.580422D-02  0.702024D-05
     36  0.165702D-02 -0.370806D-03 -0.559621D-02 -0.359244D-02 -0.182108D-02
               16            17            18            19            20 
     16  0.594334D+00
     17  0.301792D-01  0.312121D+00
     18  0.122473D-01  0.297279D-01  0.453481D-01
     19  0.563867D-03  0.571753D-02  0.454171D-03  0.178032D+00
     20  0.257008D-02  0.833087D-02 -0.467376D-02 -0.219764D+00  0.396721D+00
     21  0.277648D-02  0.488086D-02  0.220356D-02  0.105566D+00 -0.164844D+00
     22 -0.592733D-01 -0.159402D-01 -0.446016D-02 -0.352998D-02 -0.301420D-02
     23 -0.622260D-01 -0.240314D+00  0.963892D-02  0.662076D-02  0.372249D-02
     24 -0.492393D-02  0.622353D-02 -0.289085D-01 -0.191913D-01 -0.356448D-02
     25 -0.299889D-04  0.934578D-04  0.187100D-03  0.464534D-03 -0.329454D-02
     26  0.402585D-03  0.239688D-03 -0.171216D-03 -0.512471D-03  0.430144D-02
     27 -0.249819D-03 -0.594281D-04 -0.547582D-04  0.348982D-02 -0.170276D-02
     28  0.472940D-03  0.597247D-03  0.154253D-03  0.167052D-02 -0.953346D-03
     29  0.356836D-03  0.388405D-03 -0.157573D-03  0.141919D-02  0.265551D-03
     30 -0.251532D-03 -0.282169D-03 -0.526411D-03  0.987467D-03 -0.154472D-02
     31  0.776318D-03  0.569722D-03  0.692431D-04 -0.499605D-03  0.359384D-03
     32 -0.700685D-04  0.749869D-04  0.716985D-04  0.597119D-03  0.168551D-03
     33 -0.854273D-03 -0.304382D-03  0.298918D-03  0.226230D-02 -0.329679D-02
     34 -0.524725D+00 -0.330126D-02 -0.203325D-02  0.525867D-03 -0.110702D-02
     35  0.560792D-01 -0.421781D-01 -0.160927D-02  0.227113D-03  0.145928D-02
     36  0.159378D-02 -0.541642D-02 -0.382300D-03  0.863347D-03  0.347778D-03
               21            22            23            24            25 
     21  0.124822D+00
     22 -0.195154D-01  0.949703D-01
     23  0.210233D-01  0.593722D-01  0.302441D+00
     24 -0.157508D-01  0.298716D-01 -0.990253D-02  0.179384D+00
     25  0.463333D-02  0.138577D-02 -0.880599D-04 -0.404635D-03  0.134197D+00
     26 -0.324949D-02 -0.110216D-02  0.564690D-03  0.584277D-03 -0.112161D+00
     27 -0.444270D-03  0.678179D-03 -0.311121D-03 -0.125515D-02  0.519495D-01
     28  0.191042D-02  0.609310D-03  0.560581D-03 -0.106262D-02  0.169148D-01
     29 -0.276761D-03  0.134035D-03  0.597256D-03 -0.891818D-03 -0.195473D-01
     30  0.608476D-03  0.384717D-03 -0.349774D-03 -0.181353D-03  0.873318D-02
     31  0.647570D-03 -0.250631D-03 -0.131124D-03  0.256156D-02 -0.462962D-01
     32 -0.232552D-03  0.225586D-03  0.335438D-03 -0.111649D-02  0.550008D-01
     33  0.242914D-02  0.182340D-02  0.431131D-03 -0.452484D-02 -0.100511D-01
     34  0.594435D-03  0.317499D-02  0.499790D-02  0.231979D-02 -0.108215D-03
     35  0.154455D-02 -0.525509D-01 -0.246930D-01 -0.382028D-02  0.836890D-04
     36 -0.312509D-03  0.303133D-02  0.550560D-02 -0.161345D-02  0.949207D-04
               26            27            28            29            30 
     26  0.326392D+00
     27 -0.119783D+00  0.129245D+00
     28 -0.779018D-02  0.593392D-02  0.196151D+00
     29 -0.806993D-01  0.475296D-02  0.149473D+00  0.274531D+00
     30  0.173876D-01  0.170794D-01  0.429777D-01  0.568509D-01  0.888593D-01
     31  0.449293D-01  0.202499D-02 -0.690113D-01 -0.282805D-01  0.144875D-01
     32 -0.219664D-01 -0.815879D-02 -0.406925D-01  0.549469D-02  0.126091D-01
     33  0.766596D-03  0.209400D-01  0.249315D-02  0.637386D-02  0.168192D-01
     34  0.104520D-04  0.469539D-04 -0.216429D-03 -0.115719D-03  0.430608D-04
     35 -0.161366D-03  0.223168D-03  0.895533D-04  0.688099D-04  0.106577D-03
     36  0.136788D-03  0.338894D-03  0.563715D-03  0.696191D-03  0.620063D-03
               31            32            33            34            35 
     31  0.355905D+00
     32 -0.546300D-01  0.908755D-01
     33 -0.122883D+00  0.207661D-01  0.125261D+00
     34 -0.494191D-03  0.784994D-04  0.413382D-03  0.524393D+00
     35  0.306060D-05 -0.937872D-05  0.118985D-03 -0.146998D-02  0.711168D-01
     36 -0.744854D-04  0.126993D-03  0.306901D-03 -0.706423D-03  0.480570D-02
               36 
     36  0.629697D-02
 FormGI is forming the generalized inverse of G from B-inverse, IUseBI=4.
 Leave Link  716 at Fri May 23 05:22:03 2025, MaxMem=  3758096384 cpu:               0.1 elap:               0.0
 (Enter /apps/easybuild-2022/easybuild/software/Compiler/NVHPC/22.11-CUDA-11.7.0/Gaussian/g16c01-CUDA-11.7.0/g16/l103.exe)

 GradGradGradGradGradGradGradGradGradGradGradGradGradGradGradGradGradGrad
 Berny optimization.
 Red2BG is reusing G-inverse.
 Internal  Forces:  Max     0.038119092 RMS     0.007075449
 Search for a local minimum.
 Step number   1 out of a maximum of   56
 All quantities printed in internal units (Hartrees-Bohrs-Radians)
 RMS Force = .70754D-02 SwitMx=.10000D-02 MixMth= 1
 Mixed Optimization -- RFO/linear search
 Second derivative matrix not updated -- analytic derivatives used.
 ITU=  0
     Eigenvalues ---   -0.00089   0.00319   0.00862   0.02099   0.05476
     Eigenvalues ---    0.08823   0.09782   0.10106   0.11245   0.12255
     Eigenvalues ---    0.13229   0.15527   0.17904   0.19609   0.20353
     Eigenvalues ---    0.21036   0.22957   0.23676   0.24858   0.30247
     Eigenvalues ---    0.37126   0.38044   0.38505   0.39530   0.42029
     Eigenvalues ---    0.48038   0.52253   0.55666   0.61731   0.66471
 Eigenvalue     1 is  -8.90D-04 should be greater than     0.000000 Eigenvector:
                          D13       D12       D15       D11       D14
   1                   -0.41356  -0.40536  -0.39220  -0.39142  -0.38399
                          D10       D16       D17       D3        D9
   1                   -0.38322  -0.14811  -0.12955  -0.06739  -0.06462
 RFO step:  Lambda=-5.36187481D-03 EMin=-8.90477406D-04
 Linear search not attempted -- first point.
 Iteration  1 RMS(Cart)=  0.16693532 RMS(Int)=  0.03609491
 Iteration  2 RMS(Cart)=  0.06417737 RMS(Int)=  0.00122775
 Iteration  3 RMS(Cart)=  0.00161517 RMS(Int)=  0.00019983
 Iteration  4 RMS(Cart)=  0.00000118 RMS(Int)=  0.00019983
 Iteration  5 RMS(Cart)=  0.00000000 RMS(Int)=  0.00019983
 ITry= 1 IFail=0 DXMaxC= 5.80D-01 DCOld= 1.00D+10 DXMaxT= 3.00D-01 DXLimC= 3.00D+00 Rises=F
 Variable       Old X    -DE/DX   Delta X   Delta X   Delta X     New X
                                 (Linear)    (Quad)   (Total)
    R1        2.93153  -0.00012   0.00000  -0.00758  -0.00758   2.92395
    R2        2.50010  -0.00067   0.00000  -0.00419  -0.00419   2.49591
    R3        2.52583  -0.00041   0.00000  -0.00205  -0.00205   2.52378
    R4        2.50983   0.00148   0.00000   0.00415   0.00415   2.51398
    R5        2.51389   0.00511   0.00000   0.02776   0.02776   2.54165
    R6        2.52746   0.00136   0.00000   0.00234   0.00234   2.52980
    R7        3.62052   0.00427   0.00000   0.00409   0.00409   3.62461
    R8        2.76069  -0.00402   0.00000  -0.00623  -0.00623   2.75445
    R9        3.20625   0.00908   0.00000   0.00851   0.00851   3.21476
   R10        2.68624   0.00425   0.00000  -0.01327  -0.01327   2.67297
   R11        1.82486  -0.00062   0.00000  -0.00047  -0.00047   1.82439
    A1        1.93794   0.00043   0.00000  -0.00123  -0.00123   1.93672
    A2        1.90506  -0.00095   0.00000  -0.00556  -0.00556   1.89950
    A3        1.91878   0.00096   0.00000   0.00295   0.00296   1.92173
    A4        1.90195   0.00037   0.00000   0.00757   0.00757   1.90952
    A5        1.90227  -0.00062   0.00000  -0.00121  -0.00121   1.90105
    A6        1.89732  -0.00019   0.00000  -0.00250  -0.00250   1.89482
    A7        1.90649  -0.00294   0.00000  -0.00142  -0.00198   1.90451
    A8        1.89615   0.00144   0.00000   0.01403   0.01441   1.91056
    A9        1.93337   0.00192   0.00000   0.03993   0.03956   1.97293
   A10        1.92042  -0.00191   0.00000  -0.02917  -0.02922   1.89120
   A11        1.93842   0.00402   0.00000   0.01186   0.01128   1.94970
   A12        1.86831  -0.00255   0.00000  -0.03604  -0.03627   1.83205
   A13        1.81990   0.00546   0.00000   0.03794   0.03786   1.85776
   A14        1.62934   0.01933   0.00000   0.00362   0.00350   1.63284
   A15        1.92254  -0.00080   0.00000   0.00718   0.00684   1.92937
   A16        1.76660   0.00302   0.00000   0.01769   0.01769   1.78429
   A17        1.85450   0.03812   0.00000   0.09428   0.09428   1.94878
    D1        0.90170   0.00240   0.00000  -0.01717  -0.01708   0.88462
    D2        2.99677  -0.00080   0.00000  -0.04500  -0.04514   2.95163
    D3       -1.23891  -0.00193   0.00000  -0.05735  -0.05729  -1.29620
    D4        2.99878   0.00251   0.00000  -0.01214  -0.01205   2.98673
    D5       -1.18933  -0.00068   0.00000  -0.03997  -0.04012  -1.22945
    D6        0.85817  -0.00182   0.00000  -0.05232  -0.05226   0.80591
    D7       -1.20475   0.00227   0.00000  -0.01681  -0.01672  -1.22147
    D8        0.89032  -0.00093   0.00000  -0.04464  -0.04478   0.84553
    D9        2.93783  -0.00206   0.00000  -0.05699  -0.05693   2.88089
   D10        1.07349  -0.00260   0.00000  -0.29172  -0.29142   0.78208
   D11        3.02440   0.00321   0.00000  -0.27690  -0.27638   2.74802
   D12       -1.04845  -0.00292   0.00000  -0.32537  -0.32559  -1.37403
   D13        0.90246   0.00288   0.00000  -0.31054  -0.31055   0.59191
   D14        3.13800  -0.00133   0.00000  -0.27425  -0.27465   2.86334
   D15       -1.19428   0.00448   0.00000  -0.25942  -0.25962  -1.45390
   D16       -1.35363  -0.01173   0.00000  -0.15508  -0.15510  -1.50873
   D17        0.50572   0.00176   0.00000  -0.11148  -0.11145   0.39427
   D18        1.90429   0.00079   0.00000  -0.17105  -0.17105   1.73324
         Item               Value     Threshold  Converged?
 Maximum Force            0.038119     0.000015     NO 
 RMS     Force            0.007075     0.000010     NO 
 Maximum Displacement     0.580486     0.000060     NO 
 RMS     Displacement     0.222972     0.000040     NO 
 Predicted change in Energy=-3.055253D-03
 Lowest energy point so far.  Saving SCF results.
 GradGradGradGradGradGradGradGradGradGradGradGradGradGradGradGradGradGrad

 Leave Link  103 at Fri May 23 05:22:03 2025, MaxMem=  3758096384 cpu:               0.1 elap:               0.0
 (Enter /apps/easybuild-2022/easybuild/software/Compiler/NVHPC/22.11-CUDA-11.7.0/Gaussian/g16c01-CUDA-11.7.0/g16/l202.exe)
                          Input orientation:                          
 ---------------------------------------------------------------------
 Center     Atomic      Atomic             Coordinates (Angstroms)
 Number     Number       Type             X           Y           Z
 ---------------------------------------------------------------------
      1          6           0        0.241450    1.801071    3.891765
      2          6           0        0.097035    1.858028    2.352285
      3          9           0       -0.679962    0.838661    1.944668
      4          9           0       -0.495597    3.006155    2.001944
      5         16           0        1.784219    1.872903    1.440066
      6          8           0        1.074473   -0.132941   -0.024051
      7          8           0        2.608276    0.855154    2.080144
      8          8           0        1.124384    1.280600   -0.011761
      9          9           0        0.605880    0.594964    4.287940
     10          9           0        1.162801    2.690175    4.271551
     11          9           0       -0.914147    2.114738    4.471435
     12          1           0        0.154343   -0.307180    0.210582
 ---------------------------------------------------------------------
                    Distance matrix (angstroms):
                    1          2          3          4          5
     1  C    0.000000
     2  C    1.547288   0.000000
     3  F    2.359326   1.344984   0.000000
     4  F    2.359426   1.338711   2.176074   0.000000
     5  S    2.897607   1.918061   2.719645   2.607207   0.000000
     6  O    4.446116   3.250587   2.810321   4.052616   2.582787
     7  O    3.127074   2.717747   3.291068   3.777161   1.457595
     8  O    4.035837   2.641511   2.697885   3.107553   1.701178
     9  F    1.320779   2.366645   2.683971   3.500410   3.336465
    10  F    1.335526   2.347745   3.498322   2.828646   3.011877
    11  F    1.330342   2.362030   2.840381   2.658607   4.065571
    12  H    4.243044   3.046030   2.239659   3.822249   2.986786
                    6          7          8          9         10
     6  O    0.000000
     7  O    2.785053   0.000000
     8  O    1.414475   2.599809   0.000000
     9  F    4.398032   2.991930   4.384788   0.000000
    10  F    5.141010   3.202962   4.509449   2.168026   0.000000
    11  F    5.405188   4.439852   4.995041   2.157283   2.164439
    12  H    0.965427   3.296675   1.873889   4.200309   5.147095
                   11         12
    11  F    0.000000
    12  H    5.016196   0.000000
 Symmetry turned off by external request.
 Stoichiometry    C2HF5O3S
 Rotational constants (GHZ):           1.6194667           0.7490806           0.6927695
 Leave Link  202 at Fri May 23 05:22:03 2025, MaxMem=  3758096384 cpu:               0.1 elap:               0.0
 (Enter /apps/easybuild-2022/easybuild/software/Compiler/NVHPC/22.11-CUDA-11.7.0/Gaussian/g16c01-CUDA-11.7.0/g16/l301.exe)
 Standard basis: 6-311++G(d,p) (5D, 7F)
 Ernie: Thresh=  0.10000D-02 Tol=  0.10000D-05 Strict=F.
   257 basis functions,   419 primitive gaussians,   268 cartesian basis functions
    49 alpha electrons       49 beta electrons
       nuclear repulsion energy       893.6939365983 Hartrees.
 IExCor= 4639 DFT=T Ex+Corr=wB97XD ExCW=0 ScaHFX=  1.000000
 ScaDFX=  1.000000  1.000000  1.000000  1.000000 ScalE2=  1.000000  1.000000
 IRadAn=      5 IRanWt=     -1 IRanGd=            0 ICorTp=0 IEmpDi=121
 HFx  wShort=  0.000000 wLong=  0.200000 cFull=  0.222036 cShort=  0.000000 cLong=  0.777964
 DFx  wShort=  0.000000 wLong=  0.200000 cFull=  0.000000 cShort=  0.000000 cLong=  1.000000
 NAtoms=   12 NActive=   12 NUniq=   12 SFac= 1.00D+00 NAtFMM=   60 NAOKFM=F Big=F
 Integral buffers will be    131072 words long.
 Raffenetti 2 integral format.
 Two-electron integral symmetry is turned off.
 R6Disp:  Grimme-D2 Dispersion energy=       -0.0053775152 Hartrees.
 Nuclear repulsion after empirical dispersion term =      893.6885590832 Hartrees.
 Leave Link  301 at Fri May 23 05:22:03 2025, MaxMem=  3758096384 cpu:               0.1 elap:               0.0
 (Enter /apps/easybuild-2022/easybuild/software/Compiler/NVHPC/22.11-CUDA-11.7.0/Gaussian/g16c01-CUDA-11.7.0/g16/l302.exe)
 NPDir=0 NMtPBC=     1 NCelOv=     1 NCel=       1 NClECP=     1 NCelD=      1
         NCelK=      1 NCelE2=     1 NClLst=     1 CellRange=     0.0.
 One-electron integrals computed using PRISM.
 NBasis=   257 RedAO= T EigKep=  7.13D-05  NBF=   257
 NBsUse=   257 1.00D-06 EigRej= -1.00D+00 NBFU=   257
 Precomputing XC quadrature grid using
 IXCGrd= 4 IRadAn=           5 IRanWt=          -1 IRanGd=           0 AccXCQ= 0.00D+00.
 Generated NRdTot=       0 NPtTot=           0 NUsed=           0 NTot=          32
 NSgBfM=   268   268   268   268   268 MxSgAt=    12 MxSgA2=    12.
 Leave Link  302 at Fri May 23 05:22:03 2025, MaxMem=  3758096384 cpu:               0.7 elap:               0.2
 (Enter /apps/easybuild-2022/easybuild/software/Compiler/NVHPC/22.11-CUDA-11.7.0/Gaussian/g16c01-CUDA-11.7.0/g16/l303.exe)
 DipDrv:  MaxL=1.
 Leave Link  303 at Fri May 23 05:22:03 2025, MaxMem=  3758096384 cpu:               0.1 elap:               0.0
 (Enter /apps/easybuild-2022/easybuild/software/Compiler/NVHPC/22.11-CUDA-11.7.0/Gaussian/g16c01-CUDA-11.7.0/g16/l401.exe)
 Initial guess from the checkpoint file:  "/tmp/Gau-64863.chk"
 B after Tr=    -0.115848    0.246127   -0.133053
         Rot=    0.999777   -0.016958   -0.001558    0.012516 Ang=  -2.42 deg.
 Guess basis will be translated and rotated to current coordinates.
 JPrj=2 DoOrth=T DoCkMO=T.
 Generating alternative initial guess.
 ExpMin= 3.60D-02 ExpMax= 9.34D+04 ExpMxC= 3.17D+03 IAcc=3 IRadAn=         5 AccDes= 0.00D+00
 Harris functional with IExCor= 4639 and IRadAn=       5 diagonalized for initial guess.
 HarFok:  IExCor= 4639 AccDes= 0.00D+00 IRadAn=         5 IDoV= 1 UseB2=F ITyADJ=14
 ICtDFT=  3500011 ScaDFX=  1.000000  1.000000  1.000000  1.000000
 FoFCou: FMM=F IPFlag=           0 FMFlag=      100000 FMFlg1=           0
         NFxFlg=           0 DoJE=T BraDBF=F KetDBF=T FulRan=T
         wScrn=  0.000000 ICntrl=       500 IOpCl=  0 I1Cent=   200000004 NGrid=           0
         NMat0=    1 NMatS0=      1 NMatT0=    0 NMatD0=    1 NMtDS0=    0 NMtDT0=    0
 Symmetry not used in FoFCou.
 Harris En= -1167.05760900738    
 Leave Link  401 at Fri May 23 05:22:04 2025, MaxMem=  3758096384 cpu:               2.6 elap:               0.4
 (Enter /apps/easybuild-2022/easybuild/software/Compiler/NVHPC/22.11-CUDA-11.7.0/Gaussian/g16c01-CUDA-11.7.0/g16/l502.exe)
 Keep R1 ints in memory in canonical form, NReq=1117474609.
 FoFCou: FMM=F IPFlag=           0 FMFlag=           0 FMFlg1=           0
         NFxFlg=           0 DoJE=F BraDBF=F KetDBF=F FulRan=T
         wScrn=  0.000000 ICntrl=       600 IOpCl=  0 I1Cent=           0 NGrid=           0
         NMat0=    1 NMatS0=  33153 NMatT0=    0 NMatD0=    1 NMtDS0=    0 NMtDT0=    0
 Symmetry not used in FoFCou.
 Two-electron integral symmetry not used.
 Closed shell SCF:
 Using DIIS extrapolation, IDIIS=  1040.
 NGot=  3758096384 LenX=  2658793876 LenY=  2658721611
 Requested convergence on RMS density matrix=1.00D-08 within  32 cycles.
 Requested convergence on MAX density matrix=1.00D-06.
 Requested convergence on             energy=1.00D-06.
 No special actions if energy rises.

 Cycle   1  Pass 1  IDiag  1:
 E= -1199.62367936989    
 DIIS: error= 8.92D-03 at cycle   1 NSaved=   1.
 NSaved= 1 IEnMin= 1 EnMin= -1199.62367936989     IErMin= 1 ErrMin= 8.92D-03
 ErrMax= 8.92D-03  0.00D+00 EMaxC= 1.00D-01 BMatC= 7.02D-02 BMatP= 7.02D-02
 IDIUse=3 WtCom= 9.11D-01 WtEn= 8.92D-02
 Coeff-Com:  0.100D+01
 Coeff-En:   0.100D+01
 Coeff:      0.100D+01
 Gap=     0.681 Goal=   None    Shift=    0.000
 GapD=    0.681 DampG=2.000 DampE=1.000 DampFc=2.0000 IDamp=-1.
 RMSDP=2.83D-03 MaxDP=1.95D-01              OVMax= 6.00D-02

 Cycle   2  Pass 1  IDiag  1:
 E= -1199.72643186122     Delta-E=       -0.102752491327 Rises=F Damp=F
 DIIS: error= 2.89D-03 at cycle   2 NSaved=   2.
 NSaved= 2 IEnMin= 2 EnMin= -1199.72643186122     IErMin= 2 ErrMin= 2.89D-03
 ErrMax= 2.89D-03  0.00D+00 EMaxC= 1.00D-01 BMatC= 4.34D-03 BMatP= 7.02D-02
 IDIUse=3 WtCom= 9.71D-01 WtEn= 2.89D-02
 Coeff-Com: -0.971D-01 0.110D+01
 Coeff-En:   0.000D+00 0.100D+01
 Coeff:     -0.943D-01 0.109D+01
 Gap=     0.386 Goal=   None    Shift=    0.000
 RMSDP=7.20D-04 MaxDP=1.90D-02 DE=-1.03D-01 OVMax= 2.63D-02

 Cycle   3  Pass 1  IDiag  1:
 E= -1199.73049551657     Delta-E=       -0.004063655354 Rises=F Damp=F
 DIIS: error= 2.81D-03 at cycle   3 NSaved=   3.
 NSaved= 3 IEnMin= 3 EnMin= -1199.73049551657     IErMin= 3 ErrMin= 2.81D-03
 ErrMax= 2.81D-03  0.00D+00 EMaxC= 1.00D-01 BMatC= 5.13D-03 BMatP= 4.34D-03
 IDIUse=3 WtCom= 1.59D-01 WtEn= 8.41D-01
 Coeff-Com: -0.104D+00 0.626D+00 0.478D+00
 Coeff-En:   0.000D+00 0.000D+00 0.100D+01
 Coeff:     -0.165D-01 0.993D-01 0.917D+00
 Gap=     0.377 Goal=   None    Shift=    0.000
 RMSDP=5.50D-04 MaxDP=1.76D-02 DE=-4.06D-03 OVMax= 2.97D-02

 Cycle   4  Pass 1  IDiag  1:
 E= -1199.72770437589     Delta-E=        0.002791140686 Rises=F Damp=F
 DIIS: error= 3.92D-03 at cycle   4 NSaved=   4.
 NSaved= 4 IEnMin= 3 EnMin= -1199.73049551657     IErMin= 3 ErrMin= 2.81D-03
 ErrMax= 3.92D-03  0.00D+00 EMaxC= 1.00D-01 BMatC= 9.64D-03 BMatP= 4.34D-03
 IDIUse=3 WtCom= 1.38D-01 WtEn= 8.62D-01
 Coeff-Com: -0.257D-01 0.530D-01 0.581D+00 0.392D+00
 Coeff-En:   0.000D+00 0.000D+00 0.621D+00 0.379D+00
 Coeff:     -0.353D-02 0.730D-02 0.615D+00 0.381D+00
 Gap=     0.383 Goal=   None    Shift=    0.000
 RMSDP=2.98D-04 MaxDP=9.15D-03 DE= 2.79D-03 OVMax= 1.69D-02

 Cycle   5  Pass 1  IDiag  1:
 E= -1199.73410051913     Delta-E=       -0.006396143241 Rises=F Damp=F
 DIIS: error= 5.15D-04 at cycle   5 NSaved=   5.
 NSaved= 5 IEnMin= 5 EnMin= -1199.73410051913     IErMin= 5 ErrMin= 5.15D-04
 ErrMax= 5.15D-04  0.00D+00 EMaxC= 1.00D-01 BMatC= 1.27D-04 BMatP= 4.34D-03
 IDIUse=3 WtCom= 9.95D-01 WtEn= 5.15D-03
 Coeff-Com:  0.640D-02-0.106D+00 0.260D+00 0.184D+00 0.655D+00
 Coeff-En:   0.000D+00 0.000D+00 0.000D+00 0.000D+00 0.100D+01
 Coeff:      0.636D-02-0.105D+00 0.259D+00 0.183D+00 0.657D+00
 Gap=     0.381 Goal=   None    Shift=    0.000
 RMSDP=4.93D-05 MaxDP=1.41D-03 DE=-6.40D-03 OVMax= 2.46D-03

 Cycle   6  Pass 1  IDiag  1:
 E= -1199.73420158345     Delta-E=       -0.000101064320 Rises=F Damp=F
 DIIS: error= 5.51D-05 at cycle   6 NSaved=   6.
 NSaved= 6 IEnMin= 6 EnMin= -1199.73420158345     IErMin= 6 ErrMin= 5.51D-05
 ErrMax= 5.51D-05  0.00D+00 EMaxC= 1.00D-01 BMatC= 2.01D-06 BMatP= 1.27D-04
 IDIUse=1 WtCom= 1.00D+00 WtEn= 0.00D+00
 Coeff-Com:  0.278D-02-0.219D-01-0.472D-02-0.341D-02 0.131D+00 0.896D+00
 Coeff:      0.278D-02-0.219D-01-0.472D-02-0.341D-02 0.131D+00 0.896D+00
 Gap=     0.381 Goal=   None    Shift=    0.000
 RMSDP=1.62D-05 MaxDP=2.98D-04 DE=-1.01D-04 OVMax= 9.69D-04

 Cycle   7  Pass 1  IDiag  1:
 E= -1199.73420519281     Delta-E=       -0.000003609361 Rises=F Damp=F
 DIIS: error= 2.78D-05 at cycle   7 NSaved=   7.
 NSaved= 7 IEnMin= 7 EnMin= -1199.73420519281     IErMin= 7 ErrMin= 2.78D-05
 ErrMax= 2.78D-05  0.00D+00 EMaxC= 1.00D-01 BMatC= 4.50D-07 BMatP= 2.01D-06
 IDIUse=1 WtCom= 1.00D+00 WtEn= 0.00D+00
 Coeff-Com:  0.684D-03-0.371D-05-0.255D-01-0.182D-01-0.453D-02 0.363D+00
 Coeff-Com:  0.685D+00
 Coeff:      0.684D-03-0.371D-05-0.255D-01-0.182D-01-0.453D-02 0.363D+00
 Coeff:      0.685D+00
 Gap=     0.381 Goal=   None    Shift=    0.000
 RMSDP=5.24D-06 MaxDP=1.40D-04 DE=-3.61D-06 OVMax= 3.85D-04

 Cycle   8  Pass 1  IDiag  1:
 E= -1199.73420577081     Delta-E=       -0.000000578003 Rises=F Damp=F
 DIIS: error= 1.36D-05 at cycle   8 NSaved=   8.
 NSaved= 8 IEnMin= 8 EnMin= -1199.73420577081     IErMin= 8 ErrMin= 1.36D-05
 ErrMax= 1.36D-05  0.00D+00 EMaxC= 1.00D-01 BMatC= 1.01D-07 BMatP= 4.50D-07
 IDIUse=1 WtCom= 1.00D+00 WtEn= 0.00D+00
 Coeff-Com: -0.406D-03 0.592D-02-0.116D-01-0.851D-02-0.366D-01-0.497D-01
 Coeff-Com:  0.318D+00 0.783D+00
 Coeff:     -0.406D-03 0.592D-02-0.116D-01-0.851D-02-0.366D-01-0.497D-01
 Coeff:      0.318D+00 0.783D+00
 Gap=     0.381 Goal=   None    Shift=    0.000
 RMSDP=3.37D-06 MaxDP=9.59D-05 DE=-5.78D-07 OVMax= 2.63D-04

 Cycle   9  Pass 1  IDiag  1:
 E= -1199.73420593016     Delta-E=       -0.000000159351 Rises=F Damp=F
 DIIS: error= 3.80D-06 at cycle   9 NSaved=   9.
 NSaved= 9 IEnMin= 9 EnMin= -1199.73420593016     IErMin= 9 ErrMin= 3.80D-06
 ErrMax= 3.80D-06  0.00D+00 EMaxC= 1.00D-01 BMatC= 8.11D-09 BMatP= 1.01D-07
 IDIUse=1 WtCom= 1.00D+00 WtEn= 0.00D+00
 Coeff-Com: -0.187D-03 0.162D-02-0.505D-04-0.947D-04-0.938D-02-0.598D-01
 Coeff-Com:  0.159D-01 0.232D+00 0.820D+00
 Coeff:     -0.187D-03 0.162D-02-0.505D-04-0.947D-04-0.938D-02-0.598D-01
 Coeff:      0.159D-01 0.232D+00 0.820D+00
 Gap=     0.381 Goal=   None    Shift=    0.000
 RMSDP=1.19D-06 MaxDP=2.76D-05 DE=-1.59D-07 OVMax= 9.26D-05

 Cycle  10  Pass 1  IDiag  1:
 E= -1199.73420594698     Delta-E=       -0.000000016819 Rises=F Damp=F
 DIIS: error= 1.64D-06 at cycle  10 NSaved=  10.
 NSaved=10 IEnMin=10 EnMin= -1199.73420594698     IErMin=10 ErrMin= 1.64D-06
 ErrMax= 1.64D-06  0.00D+00 EMaxC= 1.00D-01 BMatC= 1.96D-09 BMatP= 8.11D-09
 IDIUse=1 WtCom= 1.00D+00 WtEn= 0.00D+00
 Coeff-Com: -0.193D-04-0.219D-03 0.182D-02 0.131D-02 0.165D-02-0.199D-01
 Coeff-Com: -0.436D-01-0.220D-01 0.349D+00 0.732D+00
 Coeff:     -0.193D-04-0.219D-03 0.182D-02 0.131D-02 0.165D-02-0.199D-01
 Coeff:     -0.436D-01-0.220D-01 0.349D+00 0.732D+00
 Gap=     0.381 Goal=   None    Shift=    0.000
 RMSDP=4.82D-07 MaxDP=1.13D-05 DE=-1.68D-08 OVMax= 3.83D-05

 Cycle  11  Pass 1  IDiag  1:
 E= -1199.73420595016     Delta-E=       -0.000000003176 Rises=F Damp=F
 DIIS: error= 8.61D-07 at cycle  11 NSaved=  11.
 NSaved=11 IEnMin=11 EnMin= -1199.73420595016     IErMin=11 ErrMin= 8.61D-07
 ErrMax= 8.61D-07  0.00D+00 EMaxC= 1.00D-01 BMatC= 2.41D-10 BMatP= 1.96D-09
 IDIUse=1 WtCom= 1.00D+00 WtEn= 0.00D+00
 Coeff-Com:  0.296D-04-0.406D-03 0.708D-03 0.519D-03 0.254D-02 0.436D-02
 Coeff-Com: -0.193D-01-0.523D-01-0.285D-01 0.258D+00 0.834D+00
 Coeff:      0.296D-04-0.406D-03 0.708D-03 0.519D-03 0.254D-02 0.436D-02
 Coeff:     -0.193D-01-0.523D-01-0.285D-01 0.258D+00 0.834D+00
 Gap=     0.381 Goal=   None    Shift=    0.000
 RMSDP=2.31D-07 MaxDP=6.03D-06 DE=-3.18D-09 OVMax= 1.78D-05

 Cycle  12  Pass 1  IDiag  1:
 E= -1199.73420595060     Delta-E=       -0.000000000440 Rises=F Damp=F
 DIIS: error= 1.47D-07 at cycle  12 NSaved=  12.
 NSaved=12 IEnMin=12 EnMin= -1199.73420595060     IErMin=12 ErrMin= 1.47D-07
 ErrMax= 1.47D-07  0.00D+00 EMaxC= 1.00D-01 BMatC= 1.16D-11 BMatP= 2.41D-10
 IDIUse=1 WtCom= 1.00D+00 WtEn= 0.00D+00
 Coeff-Com:  0.439D-05-0.202D-04-0.824D-04-0.613D-04 0.129D-03 0.194D-02
 Coeff-Com:  0.226D-02-0.298D-02-0.327D-01-0.391D-01 0.735D-01 0.997D+00
 Coeff:      0.439D-05-0.202D-04-0.824D-04-0.613D-04 0.129D-03 0.194D-02
 Coeff:      0.226D-02-0.298D-02-0.327D-01-0.391D-01 0.735D-01 0.997D+00
 Gap=     0.381 Goal=   None    Shift=    0.000
 RMSDP=7.53D-08 MaxDP=2.59D-06 DE=-4.40D-10 OVMax= 5.16D-06

 Cycle  13  Pass 1  IDiag  1:
 E= -1199.73420595066     Delta-E=       -0.000000000063 Rises=F Damp=F
 DIIS: error= 4.88D-08 at cycle  13 NSaved=  13.
 NSaved=13 IEnMin=13 EnMin= -1199.73420595066     IErMin=13 ErrMin= 4.88D-08
 ErrMax= 4.88D-08  0.00D+00 EMaxC= 1.00D-01 BMatC= 2.36D-12 BMatP= 1.16D-11
 IDIUse=1 WtCom= 1.00D+00 WtEn= 0.00D+00
 Coeff-Com: -0.152D-05 0.336D-04-0.976D-04-0.734D-04-0.202D-03 0.185D-03
 Coeff-Com:  0.267D-02 0.406D-02-0.838D-02-0.378D-01-0.590D-01 0.323D+00
 Coeff-Com:  0.775D+00
 Coeff:     -0.152D-05 0.336D-04-0.976D-04-0.734D-04-0.202D-03 0.185D-03
 Coeff:      0.267D-02 0.406D-02-0.838D-02-0.378D-01-0.590D-01 0.323D+00
 Coeff:      0.775D+00
 Gap=     0.381 Goal=   None    Shift=    0.000
 RMSDP=1.94D-08 MaxDP=4.06D-07 DE=-6.32D-11 OVMax= 1.61D-06

 Cycle  14  Pass 1  IDiag  1:
 E= -1199.73420595060     Delta-E=        0.000000000060 Rises=F Damp=F
 DIIS: error= 2.52D-08 at cycle  14 NSaved=  14.
 NSaved=14 IEnMin=13 EnMin= -1199.73420595066     IErMin=14 ErrMin= 2.52D-08
 ErrMax= 2.52D-08  0.00D+00 EMaxC= 1.00D-01 BMatC= 3.71D-13 BMatP= 2.36D-12
 IDIUse=1 WtCom= 1.00D+00 WtEn= 0.00D+00
 Coeff-Com: -0.823D-06 0.108D-04-0.157D-04-0.120D-04-0.677D-04-0.202D-03
 Coeff-Com:  0.479D-03 0.142D-02 0.161D-02-0.502D-02-0.250D-01-0.517D-01
 Coeff-Com:  0.248D+00 0.831D+00
 Coeff:     -0.823D-06 0.108D-04-0.157D-04-0.120D-04-0.677D-04-0.202D-03
 Coeff:      0.479D-03 0.142D-02 0.161D-02-0.502D-02-0.250D-01-0.517D-01
 Coeff:      0.248D+00 0.831D+00
 Gap=     0.381 Goal=   None    Shift=    0.000
 RMSDP=7.86D-09 MaxDP=2.07D-07 DE= 6.00D-11 OVMax= 6.14D-07

 SCF Done:  E(RwB97XD) =  -1199.73420595     A.U. after   14 cycles
            NFock= 14  Conv=0.79D-08     -V/T= 2.0020
 KE= 1.197396650160D+03 PE=-4.635433096593D+03 EE= 1.344613681400D+03
 Leave Link  502 at Fri May 23 05:22:17 2025, MaxMem=  3758096384 cpu:              63.8 elap:              13.2
 (Enter /apps/easybuild-2022/easybuild/software/Compiler/NVHPC/22.11-CUDA-11.7.0/Gaussian/g16c01-CUDA-11.7.0/g16/l508.exe)
 QCSCF skips out because SCF is already converged.
 Leave Link  508 at Fri May 23 05:22:17 2025, MaxMem=  3758096384 cpu:               0.1 elap:               0.0
 (Enter /apps/easybuild-2022/easybuild/software/Compiler/NVHPC/22.11-CUDA-11.7.0/Gaussian/g16c01-CUDA-11.7.0/g16/l701.exe)
 ... and contract with generalized density number  0.
 Compute integral first derivatives.
 R6Disp: Adding Grimme-D2 dispersion energy 1st derivatives to the gradient.
 Leave Link  701 at Fri May 23 05:22:17 2025, MaxMem=  3758096384 cpu:               0.4 elap:               0.1
 (Enter /apps/easybuild-2022/easybuild/software/Compiler/NVHPC/22.11-CUDA-11.7.0/Gaussian/g16c01-CUDA-11.7.0/g16/l702.exe)
 L702 exits ... SP integral derivatives will be done elsewhere.
 Leave Link  702 at Fri May 23 05:22:17 2025, MaxMem=  3758096384 cpu:               0.1 elap:               0.0
 (Enter /apps/easybuild-2022/easybuild/software/Compiler/NVHPC/22.11-CUDA-11.7.0/Gaussian/g16c01-CUDA-11.7.0/g16/l703.exe)
 Integral derivatives from FoFJK, PRISM(SPDF).
 Compute integral first derivatives, UseDBF=F ICtDFT=           0.
 Calling FoFJK, ICntrl=      2127 FMM=F ISym2X=0 I1Cent= 0 IOpClX= 0 NMat=1 NMatS=1 NMatT=0.
 FoFJK:  IHMeth= 1 ICntrl=    2127 DoSepK=T KAlg= 0 I1Cent=           0 FoldK=F
 IRaf=         1 NMat=       1 IRICut=       1 DoRegI=T DoRafI=F ISym2E= 0 IDoP0=0 IntGTp=1.
 FoFCou: FMM=F IPFlag=           0 FMFlag=      100000 FMFlg1=         800
         NFxFlg=           0 DoJE=F BraDBF=F KetDBF=F FulRan=T
         wScrn=  0.000000 ICntrl=      2527 IOpCl=  0 I1Cent=           0 NGrid=           0
         NMat0=    1 NMatS0=      1 NMatT0=    0 NMatD0=    1 NMtDS0=    0 NMtDT0=    0
 Symmetry not used in FoFCou.
 Leave Link  703 at Fri May 23 05:22:21 2025, MaxMem=  3758096384 cpu:              32.8 elap:               4.2
 (Enter /apps/easybuild-2022/easybuild/software/Compiler/NVHPC/22.11-CUDA-11.7.0/Gaussian/g16c01-CUDA-11.7.0/g16/l716.exe)
 Dipole        =-7.30834984D-01 3.31461907D-01-6.06680622D-02
 -------------------------------------------------------------------
 Center     Atomic                   Forces (Hartrees/Bohr)
 Number     Number              X              Y              Z
 -------------------------------------------------------------------
      1        6          -0.000334911    0.001559438   -0.000154904
      2        6          -0.001647646   -0.000948827    0.000038367
      3        9           0.000909086   -0.000014874    0.001237454
      4        9          -0.000469066    0.000573311    0.000193128
      5       16           0.000049156   -0.000481536   -0.000925503
      6        8          -0.000651497    0.000646903   -0.001162513
      7        8           0.000729910    0.000147550    0.000612031
      8        8           0.002302685   -0.000574175   -0.000346743
      9        9           0.000433458   -0.000671427   -0.000091597
     10        9          -0.000346362   -0.000086733    0.000332402
     11        9           0.000049781   -0.000096775    0.000081928
     12        1          -0.001024594   -0.000052854    0.000185949
 -------------------------------------------------------------------
 Cartesian Forces:  Max     0.002302685 RMS     0.000765322
 Leave Link  716 at Fri May 23 05:22:21 2025, MaxMem=  3758096384 cpu:               0.1 elap:               0.0
 (Enter /apps/easybuild-2022/easybuild/software/Compiler/NVHPC/22.11-CUDA-11.7.0/Gaussian/g16c01-CUDA-11.7.0/g16/l103.exe)

 GradGradGradGradGradGradGradGradGradGradGradGradGradGradGradGradGradGrad
 Berny optimization.
 Using GEDIIS/GDIIS optimizer.
 FormGI is forming the generalized inverse of G from B-inverse, IUseBI=4.
 Internal  Forces:  Max     0.004293932 RMS     0.001048746
 Search for a local minimum.
 Step number   2 out of a maximum of   56
 All quantities printed in internal units (Hartrees-Bohrs-Radians)
 RMS Force = .10487D-02 SwitMx=.10000D-02 MixMth= 1
 Mixed Optimization -- RFO/linear search
 Update second derivatives using D2CorX and points    1    2
 DE= -2.33D-03 DEPred=-3.06D-03 R= 7.63D-01
 TightC=F SS=  1.41D+00  RLast= 7.77D-01 DXNew= 5.0454D-01 2.3315D+00
 Trust test= 7.63D-01 RLast= 7.77D-01 DXMaxT set to 5.05D-01
 ITU=  1  0
 Use linear search instead of GDIIS.
     Eigenvalues ---   -0.00202   0.00319   0.00958   0.01928   0.05536
     Eigenvalues ---    0.08809   0.09773   0.09998   0.10573   0.12247
     Eigenvalues ---    0.13336   0.15525   0.17816   0.18951   0.20313
     Eigenvalues ---    0.20904   0.22987   0.23647   0.24550   0.26492
     Eigenvalues ---    0.37107   0.37963   0.38498   0.39537   0.40104
     Eigenvalues ---    0.47063   0.51782   0.55651   0.56503   0.61777
 Eigenvalue     1 is  -2.02D-03 should be greater than     0.000000 Eigenvector:
                          D15       D13       D11       D14       D12
   1                   -0.41052  -0.40956  -0.39964  -0.38133  -0.38036
                          D10       D17       D16       A17       D3
   1                   -0.37045  -0.15170  -0.14466  -0.09344  -0.06146
 RFO step:  Lambda=-4.03028373D-03 EMin=-2.01751833D-03
 Quartic linear search produced a step of -0.15420.
 Iteration  1 RMS(Cart)=  0.21464836 RMS(Int)=  0.08705282
 Iteration  2 RMS(Cart)=  0.16892178 RMS(Int)=  0.01459791
 Iteration  3 RMS(Cart)=  0.02908636 RMS(Int)=  0.00037363
 Iteration  4 RMS(Cart)=  0.00041303 RMS(Int)=  0.00029045
 Iteration  5 RMS(Cart)=  0.00000010 RMS(Int)=  0.00029045
 ITry= 1 IFail=0 DXMaxC= 9.23D-01 DCOld= 1.00D+10 DXMaxT= 5.05D-01 DXLimC= 3.00D+00 Rises=F
 Variable       Old X    -DE/DX   Delta X   Delta X   Delta X     New X
                                 (Linear)    (Quad)   (Total)
    R1        2.92395   0.00012   0.00117  -0.00375  -0.00258   2.92137
    R2        2.49591   0.00071   0.00065   0.00438   0.00503   2.50094
    R3        2.52378  -0.00020   0.00032  -0.00179  -0.00147   2.52231
    R4        2.51398  -0.00003  -0.00064  -0.00007  -0.00071   2.51327
    R5        2.54165  -0.00089  -0.00428   0.00476   0.00048   2.54213
    R6        2.52980   0.00065  -0.00036   0.00919   0.00883   2.53863
    R7        3.62461   0.00201  -0.00063   0.01662   0.01599   3.64060
[...]
    D8        0.87502  -0.00000   0.00000   0.00001   0.00001   0.87502
    D9        2.92290  -0.00000   0.00000   0.00001   0.00001   2.92291
   D10        1.09300   0.00000   0.00000   0.00002   0.00002   1.09303
   D11        3.07776   0.00000   0.00000   0.00002   0.00002   3.07778
   D12       -1.04875  -0.00000   0.00000   0.00002   0.00002  -1.04873
   D13        0.93601  -0.00000   0.00000   0.00002   0.00002   0.93603
   D14       -3.11054   0.00000   0.00000   0.00002   0.00002  -3.11052
   D15       -1.12578   0.00000   0.00000   0.00002   0.00002  -1.12576
   D16       -1.39870   0.00000   0.00000   0.00001   0.00001  -1.39869
   D17        0.49568  -0.00000   0.00000   0.00001   0.00001   0.49569
   D18        1.73248   0.00000   0.00000   0.00001   0.00001   1.73249
         Item               Value     Threshold  Converged?
 Maximum Force            0.000001     0.000015     YES
 RMS     Force            0.000000     0.000010     YES
 Maximum Displacement     0.000046     0.000060     YES
 RMS     Displacement     0.000019     0.000040     YES
 Predicted change in Energy=-3.829108D-12
 Optimization completed.
    -- Stationary point found.
                           ----------------------------
                           !   Optimized Parameters   !
                           ! (Angstroms and Degrees)  !
 --------------------------                            --------------------------
 ! Name  Definition              Value          Derivative Info.                !
 --------------------------------------------------------------------------------
 ! R1    R(1,2)                  1.5477         -DE/DX =    0.0                 !
 ! R2    R(1,9)                  1.3225         -DE/DX =    0.0                 !
 ! R3    R(1,10)                 1.3362         -DE/DX =    0.0                 !
 ! R4    R(1,11)                 1.329          -DE/DX =    0.0                 !
 ! R5    R(2,3)                  1.3412         -DE/DX =    0.0                 !
 ! R6    R(2,4)                  1.3393         -DE/DX =    0.0                 !
 ! R7    R(2,5)                  1.9172         -DE/DX =    0.0                 !
 ! R8    R(5,7)                  1.4582         -DE/DX =    0.0                 !
 ! R9    R(5,8)                  1.6937         -DE/DX =    0.0                 !
 ! R10   R(6,8)                  1.4164         -DE/DX =    0.0                 !
 ! R11   R(6,12)                 0.9662         -DE/DX =    0.0                 !
 ! A1    A(2,1,9)              110.8774         -DE/DX =    0.0                 !
 ! A2    A(2,1,10)             108.9105         -DE/DX =    0.0                 !
 ! A3    A(2,1,11)             110.2504         -DE/DX =    0.0                 !
 ! A4    A(9,1,10)             109.0757         -DE/DX =    0.0                 !
 ! A5    A(9,1,11)             109.0075         -DE/DX =    0.0                 !
 ! A6    A(10,1,11)            108.6793         -DE/DX =    0.0                 !
 ! A7    A(1,2,3)              109.1678         -DE/DX =    0.0                 !
 ! A8    A(1,2,4)              109.1025         -DE/DX =    0.0                 !
 ! A9    A(1,2,5)              112.4719         -DE/DX =    0.0                 !
 ! A10   A(3,2,4)              108.876          -DE/DX =    0.0                 !
 ! A11   A(3,2,5)              111.0978         -DE/DX =    0.0                 !
 ! A12   A(4,2,5)              106.0142         -DE/DX =    0.0                 !
 ! A13   A(2,5,7)              105.4669         -DE/DX =    0.0                 !
 ! A14   A(2,5,8)               94.445          -DE/DX =    0.0                 !
 ! A15   A(7,5,8)              111.459          -DE/DX =    0.0                 !
 ! A16   A(8,6,12)             102.3135         -DE/DX =    0.0                 !
 ! A17   A(5,8,6)              113.4902         -DE/DX =    0.0                 !
 ! D1    D(9,1,2,3)             52.0769         -DE/DX =    0.0                 !
 ! D2    D(9,1,2,4)            170.949          -DE/DX =    0.0                 !
 ! D3    D(9,1,2,5)            -71.7157         -DE/DX =    0.0                 !
 ! D4    D(10,1,2,3)           172.1036         -DE/DX =    0.0                 !
 ! D5    D(10,1,2,4)           -69.0243         -DE/DX =    0.0                 !
 ! D6    D(10,1,2,5)            48.3111         -DE/DX =    0.0                 !
 ! D7    D(11,1,2,3)           -68.7374         -DE/DX =    0.0                 !
 ! D8    D(11,1,2,4)            50.1347         -DE/DX =    0.0                 !
 ! D9    D(11,1,2,5)           167.4701         -DE/DX =    0.0                 !
 ! D10   D(1,2,5,7)             62.6245         -DE/DX =    0.0                 !
 ! D11   D(1,2,5,8)            176.3426         -DE/DX =    0.0                 !
 ! D12   D(3,2,5,7)            -60.0889         -DE/DX =    0.0                 !
 ! D13   D(3,2,5,8)             53.6292         -DE/DX =    0.0                 !
 ! D14   D(4,2,5,7)           -178.2208         -DE/DX =    0.0                 !
 ! D15   D(4,2,5,8)            -64.5026         -DE/DX =    0.0                 !
 ! D16   D(2,5,8,6)            -80.1394         -DE/DX =    0.0                 !
 ! D17   D(7,5,8,6)             28.4006         -DE/DX =    0.0                 !
 ! D18   D(12,6,8,5)            99.2636         -DE/DX =    0.0                 !
 --------------------------------------------------------------------------------
 GradGradGradGradGradGradGradGradGradGradGradGradGradGradGradGradGradGrad

 Leave Link  103 at Fri May 23 05:26:14 2025, MaxMem=  3758096384 cpu:               0.1 elap:               0.0
 (Enter /apps/easybuild-2022/easybuild/software/Compiler/NVHPC/22.11-CUDA-11.7.0/Gaussian/g16c01-CUDA-11.7.0/g16/l9999.exe)

 ----------------------------------------------------------------------

 Electric dipole moment (input orientation):
 (Debye = 10**-18 statcoulomb cm , SI units = C m)
                  (au)            (Debye)         (10**-30 SI)
   Tot        0.886906D+00      0.225429D+01      0.751950D+01
   x         -0.754820D+00     -0.191856D+01     -0.639963D+01
   y          0.460817D+00      0.117128D+01      0.390697D+01
   z         -0.670539D-01     -0.170434D+00     -0.568506D+00

 Dipole polarizability, Alpha (input orientation).
 (esu units = cm**3 , SI units = C**2 m**2 J**-1)
 Alpha(0;0):
               (au)            (10**-24 esu)      (10**-40 SI)
   iso        0.604753D+02      0.896152D+01      0.997103D+01
   aniso      0.122480D+02      0.181496D+01      0.201942D+01
   xx         0.609424D+02      0.903074D+01      0.100480D+02
   yx        -0.236184D+01     -0.349989D+00     -0.389415D+00
   yy         0.560347D+02      0.830348D+01      0.923887D+01
   zx        -0.671542D+00     -0.995123D-01     -0.110722D+00
   zy         0.510998D+01      0.757221D+00      0.842522D+00
   zz         0.644488D+02      0.955033D+01      0.106262D+02

 ----------------------------------------------------------------------

 Dipole orientation:
     6          8.13837591         -1.11912027          0.91205837
     6          5.46305640          0.04684026          1.10458439
     9          3.74098730         -1.81253184          1.07695649
     9          5.26633838          1.31272899          3.28742378
    16          4.81425056          2.46426708         -1.51470946
     8          0.08718697          1.08885426         -1.49095432
     8          4.95334675          1.04691421         -3.87371738
     8          1.78028107          2.97641845         -0.63360658
     9          8.29133054         -2.68102537         -1.03284007
     9          9.82132169          0.73922368          0.61237747
     9          8.69271322         -2.37483874          3.01509825
     1         -0.10269810          0.03518878         -0.01187801

 Electric dipole moment (dipole orientation):
 (Debye = 10**-18 statcoulomb cm , SI units = C m)
                  (au)            (Debye)         (10**-30 SI)
   Tot        0.886906D+00      0.225429D+01      0.751950D+01
   x          0.000000D+00      0.000000D+00      0.000000D+00
   y          0.000000D+00      0.000000D+00      0.000000D+00
   z          0.886906D+00      0.225429D+01      0.751950D+01

 Dipole polarizability, Alpha (dipole orientation).
 (esu units = cm**3 , SI units = C**2 m**2 J**-1)
 Alpha(0;0):
               (au)            (10**-24 esu)      (10**-40 SI)
   iso        0.604753D+02      0.896152D+01      0.997103D+01
   aniso      0.122480D+02      0.181496D+01      0.201942D+01
   xx         0.657834D+02      0.974810D+01      0.108462D+02
   yx        -0.250402D+01     -0.371058D+00     -0.412857D+00
   yy         0.544040D+02      0.806184D+01      0.897001D+01
   zx         0.182275D+01      0.270104D+00      0.300531D+00
   zy        -0.275716D+01     -0.408569D+00     -0.454595D+00
   zz         0.612385D+02      0.907461D+01      0.100969D+02

 ----------------------------------------------------------------------
 Unable to Open any file for archive entry.
 1\1\GINC-SPARTAN-BM161\Freq\RwB97XD\6-311++G(d,p)\C2H1F5O3S1\AKHALILOV
 \23-May-2025\0\\#P Geom=AllCheck Guess=TCheck SCRF=Check GenChk RwB97X
 D/6-311++G(d,p) Freq\\Gaussian input prepared by ASE\\0,1\C,0.23806021
 59,1.8916517603,3.9364722112\C,0.1400901794,1.7041679597,2.4033128043\
 F,-0.5153820687,0.5640604766,2.1400862254\F,-0.5450742652,2.7287873346
 ,1.8793315742\S,1.8573717932,1.7254123547,1.5512357011\O,0.9570954574,
 0.0200580871,-0.2004628952\O,2.5769356546,0.5810253787,2.0979589736\O,
 1.2427066874,1.3915231476,0.0087674338\F,0.7361179448,0.8104773914,4.5
 126136415\F,1.0362005652,2.9314772142,4.1954565862\F,-0.963462773,2.13
 97677673,4.4472476551\H,0.0024947857,-0.0160798208,-0.0554517971\\Vers
 ion=ES64L-G16RevC.01\HF=-1199.7349775\RMSD=2.437e-09\RMSF=1.304e-06\Ze
 roPoint=0.0494996\Thermal=0.0607563\ETot=-1199.6742212\HTot=-1199.6732
 77\GTot=-1199.7242006\Dipole=-0.7548205,0.4608169,-0.0670539\DipoleDer
 iv=1.5610539,0.0164529,0.0043086,-0.0178789,1.6361514,-0.0189063,-0.33
 95447,0.071429,1.6142165,0.9567276,-0.087675,-0.0482107,-0.060745,1.20
 07959,-0.0205227,0.2631379,-0.1020417,0.523338,-0.5863189,-0.278864,0.
 0629592,-0.3661593,-0.6385619,-0.0015033,-0.0347402,-0.1449382,-0.3368
 142,-0.5679662,0.3625877,-0.0463417,0.3349319,-0.6431107,0.074759,-0.1
 35236,0.1953579,-0.3536312,1.3137099,-0.0971829,0.1699036,-0.449247,0.
 9039302,-0.053768,0.295926,0.0861875,1.3236247,-0.1277396,-0.1951166,-
 0.25409,-0.1147755,-0.1840901,-0.1889443,-0.0726962,0.055665,-0.359626
 4,-0.7576141,0.0992191,-0.0719364,0.5875498,-0.6446076,0.2356066,-0.24
 98124,0.0578444,-0.4971591,-0.3634425,0.0926425,-0.0925562,0.011949,-0
 .2269953,0.0085677,-0.0355713,-0.1734435,-0.7119199,-0.3234804,0.17356
 22,-0.0873715,0.1456409,-0.6503435,0.2044131,-0.0753537,0.2553581,-0.5
 268475,-0.477992,-0.2823943,-0.0387003,-0.2665609,-0.6664724,-0.102989
 8,-0.0609926,-0.1896625,-0.4362905,-0.8573511,0.1327585,0.3062927,0.13
 93292,-0.3084092,-0.0915935,0.3983525,-0.1164073,-0.6002107,0.2304135,
 0.0640099,0.0957426,0.0559657,0.2217133,-0.0451187,0.0465307,0.0046513
 ,0.3613201\Polar=60.9424285,-2.3618433,56.0346902,-0.6715422,5.1099814
 ,64.4488137\PG=Unknown\NImag=0\\0.54272344,-0.00950352,0.55632027,0.00
 131832,-0.00500038,0.59590408,-0.05837333,-0.00319264,-0.02224861,0.45
 583144,0.00239721,-0.04010662,-0.01978572,0.01294638,0.50205289,0.0208
 2108,-0.01908574,-0.18339332,0.06867169,-0.00576924,0.48227696,-0.0095
 6684,-0.01490310,0.00205194,-0.13731762,-0.10414903,-0.03948197,0.1327
 4388,-0.01848491,-0.02744100,-0.00064379,-0.10142846,-0.20828266,-0.05
 378671,0.13075448,0.31091967,-0.02444793,-0.03332382,0.00090745,-0.027
 70669,-0.03536388,-0.08633108,0.03616325,0.05620743,0.08222818,-0.0104
 4942,0.01713326,0.00061914,-0.14871262,0.09478525,-0.06593268,0.022176
 34,-0.00657257,0.00838323,0.15125263,0.01151005,-0.01759478,0.00561813
 ,0.09472511,-0.17509184,0.07458990,0.01072059,-0.07526617,0.01315665,-
 0.12880753,0.26667387,-0.02673833,0.03815193,-0.01013714,-0.05530028,0
 .06021985,-0.11437881,0.00684127,0.00786257,0.01345204,0.07354262,-0.1
 0233368,0.11916092,0.01402938,0.00117645,0.02231128,-0.08087767,-0.041
 01531,0.00961737,-0.02305905,-0.00960414,0.00780235,-0.00942630,0.0073
 4092,0.00168478,0.33057012,-0.00347524,0.01403216,-0.00794914,0.000012
 46,-0.04148259,-0.00190643,-0.03991429,-0.02239011,0.00716465,0.026384
 49,-0.00754661,-0.00195062,-0.14902275,0.57152060,0.02923464,-0.003587
 00,-0.00897337,0.04090531,0.02060248,-0.04747410,-0.00181976,-0.000973
 60,-0.00061503,-0.01957730,0.00511982,0.00204883,0.08816582,-0.1346126
 6,0.29818848,-0.00021250,-0.00050495,0.00151622,-0.00381364,0.00022303
 ,-0.00119039,0.00238731,0.00397279,0.00326151,0.00070897,-0.00051593,0
 .00072912,-0.00818700,-0.02656379,-0.01455428,0.57446166,-0.00068547,-
 0.00098228,0.00049739,-0.00406021,-0.00240075,0.00002553,0.00308088,0.
 00347648,-0.00007036,0.00115784,-0.00037449,0.00002382,-0.01481621,-0.
 02834653,-0.03129600,0.04425742,0.29772227,-0.00171128,-0.00026454,0.0
 0007516,0.00023173,0.00490417,0.00387634,0.00331876,-0.00393674,-0.006
 03738,0.00036944,-0.00110238,0.00030232,-0.01079443,-0.03428175,-0.017
 07586,-0.07281212,0.06007761,0.06170365,-0.00462036,-0.00295081,-0.006
 84767,-0.00095505,0.02910172,-0.00934939,0.00417080,-0.00172081,-0.000
 23215,-0.01463640,0.00784618,0.00157404,-0.17551706,0.18485890,-0.0886
 9164,0.00071998,0.00325856,0.00389809,0.19089762,0.00727089,-0.0051716
 0,0.00836641,-0.00106396,-0.00182436,0.00155688,0.00992072,0.01069968,
 -0.00142618,0.00232935,-0.00237598,-0.00082865,0.21680482,-0.41385236,
 0.16932609,0.00483380,0.00972627,0.00010378,-0.23255718,0.39128686,-0.
 01010054,0.00416747,-0.00510430,-0.00151422,-0.00798822,0.01069778,-0.
 00314585,-0.00355227,0.00090676,0.00384778,0.00098172,-0.00021137,-0.0
 9095306,0.14617636,-0.12092373,0.00394864,0.00233678,0.00588987,0.1091
 0792,-0.16557812,0.12132683,-0.00484646,0.00034734,-0.00282025,0.00344
 447,0.00595210,0.01314513,0.00357552,0.00199703,-0.00085626,0.00213922
 ,-0.00157138,0.00157196,-0.03995850,0.00602863,-0.02224144,-0.05602169
 ,-0.01365591,0.00165694,-0.00229972,-0.00343065,-0.01846109,0.08799823
 ,-0.00232728,-0.00178263,0.00005242,0.00139684,0.00510204,0.00648649,0
 .00247531,-0.00017680,-0.00148664,-0.00168898,0.00159857,-0.00171824,-
 0.00876426,-0.05984595,-0.02653024,-0.06219646,-0.23931900,-0.00976032
 ,0.01094535,0.00644973,0.02554755,0.05526652,0.31104573,0.00581904,0.0
 0221148,0.00725558,-0.01239137,-0.01024812,-0.03408595,-0.00040558,0.0
 0262226,0.00474692,0.00317596,-0.00113390,0.00262634,-0.00677565,0.026
 98848,-0.10283307,-0.00762061,-0.02232538,-0.03108747,-0.01724875,-0.0
 0626213,-0.01439194,0.03240313,0.00920678,0.17611229,-0.10426653,0.061
 73235,-0.04549630,0.00208274,0.01101934,-0.00674845,0.00122009,0.00084
 968,0.00070767,0.00068114,0.00016985,-0.00238275,-0.00498155,0.0030249
 3,-0.00330236,-0.00002151,0.00007966,0.00019181,0.00053984,-0.00306056
 ,0.00441018,0.00128395,-0.00002768,-0.00041998,0.13301346,0.06340189,-
 0.20672841,0.09672486,0.00579858,-0.01786349,0.00542918,0.00067833,0.0
 0655302,-0.00030035,-0.00042912,0.00134871,0.00390840,0.00429707,-0.00
 494389,0.00158395,0.00032264,0.00026712,-0.00016270,-0.00078790,0.0040
 2780,-0.00285654,-0.00101371,0.00046923,0.00054848,-0.10950044,0.31881
 478,-0.04364550,0.08770456,-0.15374227,-0.01509868,0.03874303,-0.00796
 513,-0.00050789,-0.00212422,-0.00081372,-0.00329099,0.00310730,-0.0128
 1267,-0.00415873,0.00126897,-0.00015929,-0.00028618,-0.00013664,0.0000
 2753,0.00377679,-0.00189563,-0.00075478,0.00074697,-0.00017148,-0.0013
 0845,0.05602321,-0.12825186,0.13988605,-0.13763970,-0.08485556,-0.0409
 7296,-0.00608947,-0.01759497,-0.00113174,0.00063892,-0.00138745,-0.004
 82764,0.00114345,0.00095500,-0.00027094,-0.00354735,-0.00016151,-0.002
 79691,0.00031950,0.00056368,0.00032979,0.00171609,-0.00090522,0.001802
 35,0.00059978,0.00067943,-0.00114929,0.01687165,-0.00757328,0.00620047
 ,0.19527757,-0.08523531,-0.18796824,-0.05543633,-0.01685366,-0.0213106
 8,-0.00012488,-0.00059044,-0.00101816,-0.00685409,-0.00113148,0.005750
 27,-0.00363387,-0.00208604,-0.00250896,-0.00028226,0.00022093,0.000377
 70,-0.00001935,0.00140492,0.00022300,-0.00012672,0.00018279,0.00070433
 ,-0.00098018,-0.01906007,-0.07969716,0.00781308,0.15108894,0.27944163,
 -0.03680500,-0.04999681,-0.10766468,-0.02172388,-0.03063121,0.00108168
 ,-0.00342145,-0.00573430,-0.01075052,-0.00040607,0.00120363,-0.0013267
 9,-0.00209733,0.00151409,-0.00072556,-0.00032094,-0.00023955,-0.000439
 22,0.00099505,-0.00152563,0.00062241,0.00042693,-0.00033874,-0.0002169
 2,0.00936448,0.02059949,0.01646334,0.03914232,0.05250452,0.08611245,-0
 .22697592,0.03551645,0.09101820,-0.02810986,0.00545105,0.01130291,0.00
 529357,0.00253035,0.00073081,0.00597447,-0.00269110,-0.00100885,0.0030
 9684,-0.00058778,-0.00232758,0.00078604,0.00063150,0.00016487,-0.00051
 147,0.00048037,0.00049437,-0.00030737,-0.00028564,0.00240075,-0.046318
 71,0.04478196,0.00017724,-0.06911147,-0.02786235,0.01478796,0.35669862
 ,0.03518265,-0.08276157,-0.02215636,0.01285529,0.00077639,-0.00515690,
 0.00083458,0.00276588,0.00157978,-0.00366760,0.00327667,-0.00043795,-0
 .00198835,-0.00100804,0.00006381,-0.00012581,-0.00000578,0.00006801,0.
 00067218,0.00004053,-0.00009257,0.00029016,0.00046396,-0.00118890,0.05
 469095,-0.02207544,-0.00626522,-0.04083820,0.00599991,0.01256976,-0.05
 800445,0.09255568,0.08639891,-0.02045787,-0.13399580,0.04946241,-0.007
 39872,-0.02340865,-0.00277655,-0.00077053,0.00089913,-0.00079192,-0.00
 066304,0.00168238,-0.00924403,0.00221170,-0.00188867,-0.00086792,-0.00
 045069,0.00023433,0.00249073,-0.00328006,0.00231604,0.00179892,0.00076
 191,-0.00423689,-0.01242706,0.00262989,0.02089521,0.00319707,0.0064856
 2,0.01631335,-0.11767236,0.02087755,0.12091431,0.00019824,0.00000473,-
 0.00044930,0.00289061,0.00088323,0.00027644,-0.00226292,-0.00090599,0.
 00102185,-0.00085148,0.00031824,-0.00024263,-0.00214186,-0.00058406,-0
 .00299450,-0.51112712,-0.01981172,0.07515640,0.00049574,-0.00062238,0.
 00056353,0.00439258,0.00452685,0.00221236,-0.00010457,0.00002397,0.000
 06329,-0.00017897,-0.00007823,0.00005792,-0.00051473,0.00009859,0.0004
 3180,0.50920448,-0.00005095,0.00018470,-0.00028750,-0.00113573,0.00043
 167,-0.00225807,0.00109196,0.00016017,0.00071680,0.00050710,-0.0003982
 3,0.00073645,-0.00232221,-0.00362771,0.00058560,0.03607633,-0.04014100
 ,-0.01562579,-0.00007112,0.00077043,0.00098456,-0.05039292,-0.02470920
 ,0.00056113,0.00008200,-0.00017228,0.00020811,0.00002912,0.00000636,0.
 00007475,0.00003964,-0.00002821,0.00005423,0.01614677,0.06752330,-0.00
 014341,-0.00051927,-0.00113140,-0.00328741,-0.00728441,-0.00089572,0.0
 0318381,0.00482990,0.00140724,0.00006079,0.00145587,-0.00040605,-0.005
 55835,-0.00462365,0.00043137,0.08819695,-0.00844253,-0.01746928,0.0005
 2699,0.00144323,-0.00037357,-0.00737093,-0.00204949,-0.00258045,0.0000
 7954,0.00014719,0.00028419,0.00047749,0.00065445,0.00053045,-0.0000683
 2,0.00013898,0.00027525,-0.07609715,0.01424973,0.01992797\\0.00000172,
 -0.00000043,0.00000043,-0.00000004,0.00000022,0.00000030,-0.00000004,0
 .00000005,0.00000126,-0.00000014,0.00000039,0.00000162,-0.00000077,0.0
 0000006,-0.00000139,-0.00000244,0.00000063,-0.00000095,-0.00000021,-0.
 00000026,-0.00000232,-0.00000243,0.00000034,-0.00000085,0.00000244,-0.
 00000075,-0.00000027,0.00000232,-0.00000064,-0.00000005,0.00000248,-0.
 00000040,0.00000188,-0.00000289,0.00000080,0.00000032\\\@
 The archive entry for this job was punched.


 MANHOOD BEGINS BY TRYING TO SHAVE FACE,
 AND ENDS BY TRYING TO SAVE FACE.
 Job cpu time:       0 days  0 hours  9 minutes 51.9 seconds.
 Elapsed time:       0 days  0 hours  1 minutes 16.3 seconds.
 File lengths (MBytes):  RWF=     99 Int=      0 D2E=      0 Chk=      6 Scr=      1
 Normal termination of Gaussian 16 at Fri May 23 05:26:14 2025.
done
