12
energy = -1199.61519496
C -0.18721500 -1.25551400 0.03640000
C 0.21528900 0.08268300 0.02652500
F -0.02339000 0.76649900 -1.08401100
F 0.00915100 0.78442900 1.12198000
S 2.59345100 -0.25805200 0.04385700
O 2.91855000 -0.47467300 1.42052600
O 3.37878800 -0.45818400 -1.14736100
O 2.38322600 1.38613700 0.00875700
F -0.37855800 -1.88497100 1.12657000
F 1.78734300 -1.94793000 -0.16498000
F -0.53108200 -1.87159400 -1.02540600
H 2.54951500 1.68659300 -0.89391700
12
energy = -1199.61521369
C -0.23156800 -1.32738000 0.08482000
C 0.07062600 0.03664400 0.11502000
F -0.26837400 0.74389400 -0.95398500
F -0.13614300 0.67698600 1.24735600
S 2.46565000 -0.12402400 0.01490700
O 2.87153500 -0.36966200 1.36498200
O 3.20497200 -0.21672600 -1.21823300
O 2.13367300 1.49974700 0.06071200
F -0.32620300 -2.01194400 1.15424400
F 1.77777400 -1.86070400 -0.22924200
F -0.57694300 -1.92535000 -0.98677400
H 2.23278200 1.84753800 -0.83481400
12
energy = -1199.6152004599999
C -0.19940400 -1.28377000 0.03290600
C 0.16655700 0.06489700 0.02583800
F -0.07686000 0.75185000 -1.07134600
F -0.07232300 0.75093400 1.13495700
S 2.55241600 -0.21107000 -0.02872600
O 3.36238700 -0.37970300 1.15081500
O 2.86057800 -0.43021600 -1.40888900
O 2.29785000 1.42704600 -0.00317500
F -0.50876200 -1.90039400 1.10494500
F 1.79660100 -1.92056000 0.20683400
F -0.39125500 -1.92702000 -1.04908600
H 2.47085000 1.73951100 0.89414200
12
energy = -1199.6151803
C -0.23057400 -1.19037000 0.07862700
C 0.21290500 0.13472100 0.06598400
F 0.01307900 0.81731000 -1.05298000
F 0.01120000 0.85059000 1.15307900
S 2.57921900 -0.27792400 0.12191400
O 2.88101000 -0.49255800 1.50417600
O 3.37155000 -0.51153800 -1.05853300
O 2.41986600 1.37161400 0.07204000
F -0.45986600 -1.80529400 1.16976300
F 1.72536700 -1.94473200 -0.08187100
F -0.57458100 -1.80388100 -0.98459900
H 2.60471900 1.65986200 -0.83100500
12
energy = -1199.6152189600002
C -0.27138800 -1.25473100 0.11953400
C 0.07417900 0.09891800 0.08566900
F -0.22143100 0.75969100 -1.02511000
F -0.13317800 0.80364100 1.17899200
S 2.46426400 -0.14220600 0.04543900
O 2.83121600 -0.33044700 1.41571100
O 3.22861700 -0.32246100 -1.16247600
O 2.18446500 1.49125600 -0.00087900
F -0.40774400 -1.87942900 1.22065200
F 1.72440800 -1.86630100 -0.12754600
F -0.61672900 -1.89638400 -0.92654400
H 2.31610800 1.78838500 -0.91034900
12
energy = -1199.61518763
C -0.25969600 -1.23574900 0.08559600
C 0.12149100 0.10727100 0.02279200
F -0.10056800 0.74670100 -1.10717400
F -0.12346900 0.84503300 1.09681700
S 2.50453700 -0.19651400 0.01098300
O 3.29971200 -0.32010000 1.20608100
O 2.82562600 -0.48175500 -1.35406800
O 2.26822700 1.44369200 -0.04059000
F -0.59012400 -1.80005600 1.17995000
F 1.72638200 -1.88499600 0.31566400
F -0.44463800 -1.92503300 -0.96891200
H 2.43502100 1.79466800 0.84357300
12
energy = -1199.61518111
C -0.23113600 -1.18991100 0.11493200
C 0.21172000 0.13473700 0.07038400
F -0.00191600 0.79471500 -1.05952200
F 0.02290100 0.87223100 1.14528500
S 2.57857100 -0.27687200 0.10705900
O 2.89384800 -0.46440600 1.49025200
O 3.35975600 -0.53390700 -1.07592300
O 2.41830300 1.37127000 0.02561400
F -0.44637300 -1.78299200 1.22092400
F 1.72248300 -1.94708500 -0.05630500
F -0.58869000 -1.82441000 -0.93139700
H 2.59528600 1.64131300 -0.88461000
12
energy = -1199.61520497
C -0.27816500 -1.24432900 0.16422000
C 0.07542500 0.10678600 0.11578000
F -0.23501100 0.76246600 -0.99398900
F -0.10854700 0.81973900 1.20795200
S 2.46292600 -0.14992300 0.03569900
O 2.85313700 -0.33146500 1.40042200
O 3.20421300 -0.34305600 -1.18450000
O 2.19269900 1.48496300 -0.01640400
F -0.39988100 -1.86116800 1.27147000
F 1.70929400 -1.87045400 -0.11225700
F -0.64518300 -1.89033600 -0.87175000
H 2.30921900 1.77527100 -0.93013300
12
energy = -1199.6151779200002
C -0.25947000 -1.22700300 0.12474100
C 0.13251200 0.11187800 0.04308700
F -0.10024300 0.74216100 -1.08986200
F -0.09027500 0.86233700 1.11314000
S 2.51249700 -0.21350500 -0.00011100
O 3.32416000 -0.33232900 1.18430900
O 2.81065300 -0.51546200 -1.36676700
O 2.29009300 1.42814500 -0.06484100
F -0.57929500 -1.77751500 1.22924000
F 1.72370300 -1.89165600 0.33336100
F -0.46555300 -1.92494400 -0.92012300
H 2.47276900 1.78639300 0.81325000
12
energy = -1199.61518965
C -0.23568600 -1.15853400 0.27180200
C 0.20678100 0.13414800 -0.02200400
F -0.07908000 0.61473200 -1.21463200
F 0.09348700 1.03466900 0.94442900
S 2.56105800 -0.31915300 -0.17430500
O 3.45141400 -0.31744500 0.95847500
O 2.74517500 -0.82110700 -1.50172100
O 2.40584700 1.30762200 -0.45366600
F -0.49951500 -1.53504900 1.46087200
F 1.72672500 -1.89126800 0.44363200
F -0.54557100 -1.98113900 -0.64939200
H 2.66833600 1.77234500 0.35124900
12
energy = -1199.61517548
C -0.28223700 -1.21937900 0.29398800
C 0.08112000 0.12568200 0.18661700
F -0.26558100 0.74711000 -0.93209300
F -0.05457300 0.87652800 1.26030900
S 2.46187100 -0.15811600 0.02353400
O 2.90482500 -0.29739000 1.37707900
O 3.15119800 -0.39994600 -1.21821500
O 2.20505300 1.47690300 -0.07314300
F -0.36750600 -1.79757700 1.42525400
F 1.68789200 -1.87488500 -0.03484300
F -0.69364100 -1.89600100 -0.70509800
H 2.28757800 1.73528100 -1.00006600
12
energy = -1199.6152030399999
C -0.25767600 -1.20280700 0.25039800
C 0.15216400 0.12417400 0.09532400
F -0.11227800 0.70840200 -1.05522300
F -0.01906100 0.92438600 1.13852200
S 2.52380400 -0.24437000 -0.01936500
O 3.37549400 -0.32616600 1.13975900
O 2.76745500 -0.61021700 -1.38118700
O 2.32532300 1.39653100 -0.14813700
F -0.54459900 -1.69892400 1.38918400
F 1.72086500 -1.89268600 0.41473800
F -0.51399300 -1.94189200 -0.75428300
H 2.54433100 1.78919600 0.70662000
