 Entering Gaussian System, Link 0=g16
 Initial command:
 /apps/easybuild-2022/easybuild/software/Compiler/NVHPC/22.11-CUDA-11.7.0/Gaussian/g16c01-CUDA-11.7.0/g16/l1.exe "/tmp/Gau-181247.inp" -scrdir="/tmp/"
 Entering Link 1 = /apps/easybuild-2022/easybuild/software/Compiler/NVHPC/22.11-CUDA-11.7.0/Gaussian/g16c01-CUDA-11.7.0/g16/l1.exe PID=    181284.
  
 Copyright (c) 1988-2019, Gaussian, Inc.  All Rights Reserved.
  
 This is part of the Gaussian(R) 16 program.  It is based on
 the Gaussian(R) 09 system (copyright 2009, Gaussian, Inc.),
 the Gaussian(R) 03 system (copyright 2003, Gaussian, Inc.),
 the Gaussian(R) 98 system (copyright 1998, Gaussian, Inc.),
 the Gaussian(R) 94 system (copyright 1995, Gaussian, Inc.),
 the Gaussian 92(TM) system (copyright 1992, Gaussian, Inc.),
 the Gaussian 90(TM) system (copyright 1990, Gaussian, Inc.),
 the Gaussian 88(TM) system (copyright 1988, Gaussian, Inc.),
 the Gaussian 86(TM) system (copyright 1986, Carnegie Mellon
 University), and the Gaussian 82(TM) system (copyright 1983,
 Carnegie Mellon University). Gaussian is a federally registered
 trademark of Gaussian, Inc.
  
 This software contains proprietary and confidential information,
 including trade secrets, belonging to Gaussian, Inc.
  
 This software is provided under written license and may be
 used, copied, transmitted, or stored only in accord with that
 written license.
  
 The following legend is applicable only to US Government
 contracts under FAR:
  
                    RESTRICTED RIGHTS LEGEND
  
 Use, reproduction and disclosure by the US Government is
 subject to restrictions as set forth in subparagraphs (a)
 and (c) of the Commercial Computer Software - Restricted
 Rights clause in FAR 52.227-19.
  
 Gaussian, Inc.
 340 Quinnipiac St., Bldg. 40, Wallingford CT 06492
  
  
 ---------------------------------------------------------------
 Warning -- This program may not be used in any manner that
 competes with the business of Gaussian, Inc. or will provide
 assistance to any competitor of Gaussian, Inc.  The licensee
 of this program is prohibited from giving any competitor of
 Gaussian, Inc. access to this program.  By using this program,
 the user acknowledges that Gaussian, Inc. is engaged in the
 business of creating and licensing software in the field of
 computational chemistry and represents and warrants to the
 licensee that it is not a competitor of Gaussian, Inc. and that
 it will not use this program in any manner prohibited above.
 ---------------------------------------------------------------
  

 Cite this work as:
 Gaussian 16, Revision C.01,
 M. J. Frisch, G. W. Trucks, H. B. Schlegel, G. E. Scuseria, 
 M. A. Robb, J. R. Cheeseman, G. Scalmani, V. Barone, 
 G. A. Petersson, H. Nakatsuji, X. Li, M. Caricato, A. V. Marenich, 
 J. Bloino, B. G. Janesko, R. Gomperts, B. Mennucci, H. P. Hratchian, 
 J. V. Ortiz, A. F. Izmaylov, J. L. Sonnenberg, D. Williams-Young, 
 F. Ding, F. Lipparini, F. Egidi, J. Goings, B. Peng, A. Petrone, 
 T. Henderson, D. Ranasinghe, V. G. Zakrzewski, J. Gao, N. Rega, 
 G. Zheng, W. Liang, M. Hada, M. Ehara, K. Toyota, R. Fukuda, 
 J. Hasegawa, M. Ishida, T. Nakajima, Y. Honda, O. Kitao, H. Nakai, 
 T. Vreven, K. Throssell, J. A. Montgomery, Jr., J. E. Peralta, 
 F. Ogliaro, M. J. Bearpark, J. J. Heyd, E. N. Brothers, K. N. Kudin, 
 V. N. Staroverov, T. A. Keith, R. Kobayashi, J. Normand, 
 K. Raghavachari, A. P. Rendell, J. C. Burant, S. S. Iyengar, 
 J. Tomasi, M. Cossi, J. M. Millam, M. Klene, C. Adamo, R. Cammi, 
 J. W. Ochterski, R. L. Martin, K. Morokuma, O. Farkas, 
 J. B. Foresman, and D. J. Fox, Gaussian, Inc., Wallingford CT, 2019.
 
 ******************************************
 Gaussian 16:  ES64L-G16RevC.01  3-Jul-2019
                23-May-2025 
 ******************************************
 %mem=28GB
 %nprocshared=8
 Will use up to    8 processors via shared memory.
 ------------------------------------------
 #P am1 Symm(None) scf(xqc) pop(None) force
 ------------------------------------------
 1/10=7,30=1,38=1/1,3;
 2/12=2,15=3,17=6,18=5,40=1/2;
 3/5=2,25=1,41=700000,71=1/1,2,3;
 4/35=1/1;
 5/5=2,8=3,13=1,35=1,38=5/2,8;
 7/29=1,30=1/1,2,3,16;
 1/10=7,30=1/3;
 99//99;
 Leave Link    1 at Fri May 23 05:15:57 2025, MaxMem=  3758096384 cpu:               0.0 elap:               0.0
 (Enter /apps/easybuild-2022/easybuild/software/Compiler/NVHPC/22.11-CUDA-11.7.0/Gaussian/g16c01-CUDA-11.7.0/g16/l101.exe)
 ------------------------------
 Gaussian input prepared by ASE
 ------------------------------
 Symbolic Z-matrix:
 Charge =  0 Multiplicity = 1
 C                     1.85665  -0.78575  -1.20856 
 C                     1.86959   0.02592   0.05598 
 F                    -0.69148   0.86795   0.85768 
 F                     2.07506  -0.67297   1.16977 
 S                     1.70685   1.68086   0.13248 
 O                     0.2096    1.88675  -0.18806 
 O                     2.12105   2.46104   1.2498 
 O                     2.22767   2.34976  -1.18777 
 F                     1.73851  -0.03206  -2.30834 
 F                     2.96358  -1.50905  -1.41557 
 F                     0.85551  -1.66107  -1.28822 
 H                     1.99415   2.02134  -2.07155 
 
 ITRead=  0  0  0  0  0  0  0  0  0  0  0  0
 MicOpt= -1 -1 -1 -1 -1 -1 -1 -1 -1 -1 -1 -1
 NAtoms=     12 NQM=       12 NQMF=       0 NMMI=      0 NMMIF=      0
                NMic=       0 NMicF=      0.
                    Isotopes and Nuclear Properties:
 (Nuclear quadrupole moments (NQMom) in fm**2, nuclear magnetic moments (NMagM)
  in nuclear magnetons)

  Atom         1           2           3           4           5           6           7           8           9          10
 IAtWgt=          12          12          19          19          32          16          16          16          19          19
 AtmWgt=  12.0000000  12.0000000  18.9984032  18.9984032  31.9720718  15.9949146  15.9949146  15.9949146  18.9984032  18.9984032
 NucSpn=           0           0           1           1           0           0           0           0           1           1
 AtZEff=  -0.0000000  -0.0000000  -0.0000000  -0.0000000  -0.0000000  -0.0000000  -0.0000000  -0.0000000  -0.0000000  -0.0000000
 NQMom=    0.0000000   0.0000000   0.0000000   0.0000000   0.0000000   0.0000000   0.0000000   0.0000000   0.0000000   0.0000000
 NMagM=    0.0000000   0.0000000   2.6288670   2.6288670   0.0000000   0.0000000   0.0000000   0.0000000   2.6288670   2.6288670
 AtZNuc=   6.0000000   6.0000000   9.0000000   9.0000000  16.0000000   8.0000000   8.0000000   8.0000000   9.0000000   9.0000000

  Atom        11          12
 IAtWgt=          19           1
 AtmWgt=  18.9984032   1.0078250
 NucSpn=           1           1
 AtZEff=  -0.0000000  -0.0000000
 NQMom=    0.0000000   0.0000000
 NMagM=    2.6288670   2.7928460
 AtZNuc=   9.0000000   1.0000000
 Leave Link  101 at Fri May 23 05:15:57 2025, MaxMem=  3758096384 cpu:               0.1 elap:               0.1
 (Enter /apps/easybuild-2022/easybuild/software/Compiler/NVHPC/22.11-CUDA-11.7.0/Gaussian/g16c01-CUDA-11.7.0/g16/l103.exe)

 GradGradGradGradGradGradGradGradGradGradGradGradGradGradGradGradGradGrad
 Berny optimization.
 Initialization pass.
 Trust Radius=3.00D-01 FncErr=1.00D-07 GrdErr=1.00D-07 EigMax=2.50D+02 EigMin=1.00D-04
 Number of steps in this run=      2 maximum allowed number of steps=      2.
 GradGradGradGradGradGradGradGradGradGradGradGradGradGradGradGradGradGrad

 Leave Link  103 at Fri May 23 05:15:57 2025, MaxMem=  3758096384 cpu:               0.0 elap:               0.0
 (Enter /apps/easybuild-2022/easybuild/software/Compiler/NVHPC/22.11-CUDA-11.7.0/Gaussian/g16c01-CUDA-11.7.0/g16/l202.exe)
                          Input orientation:                          
 ---------------------------------------------------------------------
 Center     Atomic      Atomic             Coordinates (Angstroms)
 Number     Number       Type             X           Y           Z
 ---------------------------------------------------------------------
      1          6           0        1.856645   -0.785751   -1.208561
      2          6           0        1.869594    0.025923    0.055984
      3          9           0       -0.691476    0.867946    0.857680
      4          9           0        2.075063   -0.672966    1.169770
      5         16           0        1.706852    1.680859    0.132483
      6          8           0        0.209596    1.886755   -0.188061
      7          8           0        2.121052    2.461040    1.249798
      8          8           0        2.227670    2.349761   -1.187773
      9          9           0        1.738514   -0.032062   -2.308341
     10          9           0        2.963581   -1.509050   -1.415570
     11          9           0        0.855507   -1.661073   -1.288222
     12          1           0        1.994152    2.021339   -2.071550
 ---------------------------------------------------------------------
                    Distance matrix (angstroms):
                    1          2          3          4          5
     1  C    0.000000
     2  C    1.502683   0.000000
     3  F    3.673825   2.812614   0.000000
     4  F    2.391001   1.330859   3.182067   0.000000
     5  S    2.811583   1.664677   2.634143   2.598468   0.000000
     6  O    3.300982   2.505563   1.715656   3.446135   1.544965
     7  O    4.081065   2.723640   3.256074   3.135365   1.424302
     8  O    3.157456   2.659957   3.860190   3.836428   1.568999
     9  F    1.338477   2.368666   4.091278   3.552645   2.982067
    10  F    1.338402   2.391322   4.917033   2.858755   3.761828
    11  F    1.332221   2.383530   3.659780   2.916402   3.729839
    12  H    2.939968   2.919520   4.138031   4.215683   2.248606
                    6          7          8          9         10
     6  O    0.000000
     7  O    2.459859   0.000000
     8  O    2.299222   2.442437   0.000000
     9  F    3.242690   4.361450   2.677317   0.000000
    10  F    4.541222   4.855476   3.934956   2.116441   0.000000
    11  F    3.770230   5.003495   4.240249   2.115189   2.117382
    12  H    2.598131   3.352729   0.971316   2.082756   3.719374
                   11         12
    11  F    0.000000
    12  H    3.933226   0.000000
 Symmetry turned off by external request.
 Stoichiometry    C2HF5O3S
 Rotational constants (GHZ):           1.3947214           0.7688540           0.7104086
 Leave Link  202 at Fri May 23 05:15:57 2025, MaxMem=  3758096384 cpu:               0.0 elap:               0.0
 (Enter /apps/easybuild-2022/easybuild/software/Compiler/NVHPC/22.11-CUDA-11.7.0/Gaussian/g16c01-CUDA-11.7.0/g16/l301.exe)
 Standard basis: VSTO-6G (5D, 7F)
 Ernie: Thresh=  0.10000D-02 Tol=  0.10000D-05 Strict=F.
  NNHCO=     0 NNPyr=     0 NCTC=     0               EPep=         0.000000000
    EC=       381.682928245  ECS=         2.474088381   EG=         0.732455882
   EHC=         0.000000000  EAt=      -139.813231795  AtH=         1.168761636
 EPDDG=         0.000000000  ECC=       384.889472508 EAtT=       140.981993432
    45 basis functions,   270 primitive gaussians,    45 cartesian basis functions
    34 alpha electrons       34 beta electrons
       nuclear repulsion energy       526.8132475882 Hartrees.



 Warning!  S  atom    5 may be hypervalent but has no d functions.



 IExCor=    0 DFT=F Ex=HF Corr=None ExCW=0 ScaHFX=  1.000000
 ScaDFX=  1.000000  1.000000  1.000000  1.000000 ScalE2=  1.000000  1.000000
 IRadAn=      5 IRanWt=     -1 IRanGd=            0 ICorTp=0 IEmpDi=  4
 Integral buffers will be    131072 words long.
 Regular integral format.
 Two-electron integral symmetry is turned off.
 Leave Link  301 at Fri May 23 05:15:57 2025, MaxMem=  3758096384 cpu:               0.0 elap:               0.0
 (Enter /apps/easybuild-2022/easybuild/software/Compiler/NVHPC/22.11-CUDA-11.7.0/Gaussian/g16c01-CUDA-11.7.0/g16/l302.exe)
 Do NDO integrals.
 NPDir=0 NMtPBC=     1 NCelOv=     1 NCel=       1 NClECP=     1 NCelD=      1
         NCelK=      1 NCelE2=     1 NClLst=     1 CellRange=     0.0.
 One-electron integrals computed using PRISM.
 NBasis=    45 RedAO= F EigKep=  0.00D+00  NBF=    45
 NBsUse=    45 1.00D-04 EigRej=  0.00D+00 NBFU=    45
 Leave Link  302 at Fri May 23 05:15:57 2025, MaxMem=  3758096384 cpu:               0.1 elap:               0.0
 (Enter /apps/easybuild-2022/easybuild/software/Compiler/NVHPC/22.11-CUDA-11.7.0/Gaussian/g16c01-CUDA-11.7.0/g16/l303.exe)
 DipDrv:  MaxL=1.
 Leave Link  303 at Fri May 23 05:15:57 2025, MaxMem=  3758096384 cpu:               0.0 elap:               0.0
 (Enter /apps/easybuild-2022/easybuild/software/Compiler/NVHPC/22.11-CUDA-11.7.0/Gaussian/g16c01-CUDA-11.7.0/g16/l401.exe)
 Simple Huckel Guess.
 JPrj=0 DoOrth=F DoCkMO=F.
 Leave Link  401 at Fri May 23 05:15:57 2025, MaxMem=  3758096384 cpu:               0.0 elap:               0.0
 (Enter /apps/easybuild-2022/easybuild/software/Compiler/NVHPC/22.11-CUDA-11.7.0/Gaussian/g16c01-CUDA-11.7.0/g16/l502.exe)
 Keep J ints in memory in canonical form, NReq=865860.
 FoFCou: FMM=F IPFlag=           0 FMFlag=           0 FMFlg1=           0
         NFxFlg=           0 DoJE=F BraDBF=F KetDBF=F FulRan=T
         wScrn=  0.000000 ICntrl=       600 IOpCl=  2 I1Cent=           0 NGrid=           0
         NMat0=    1 NMatS0=    111 NMatT0=    0 NMatD0=    1 NMtDS0=    0 NMtDT0=    0
 Symmetry not used in FoFCou.
 Two-electron integral symmetry not used.
 Closed shell SCF:
 Using DIIS extrapolation, IDIIS=  1040.
 Overlap will be assumed to be unity.
 NGot=  3758096384 LenX=  3758025843 LenY=  3758023377
 Requested convergence on RMS density matrix=1.00D-08 within  32 cycles.
 Requested convergence on MAX density matrix=1.00D-06.
 Requested convergence on             energy=1.00D-06.
 No special actions if energy rises.

 Cycle   1  Pass 1  IDiag  1:
 E=  2.20407125830820    
 DIIS: error= 9.89D-02 at cycle   1 NSaved=   1.
 NSaved= 1 IEnMin= 1 EnMin=  2.20407125830820     IErMin= 1 ErrMin= 9.89D-02
 ErrMax= 9.89D-02  0.00D+00 EMaxC= 1.00D-01 BMatC= 3.92D-01 BMatP= 3.92D-01
 IDIUse=3 WtCom= 1.07D-02 WtEn= 9.89D-01
 Coeff-Com:  0.100D+01
 Coeff-En:   0.100D+01
 Coeff:      0.100D+01
 GapD=    2.000 DampG=2.000 DampE=0.500 DampFc=1.0000 IDamp=-1.
 RMSDP=5.80D-02 MaxDP=9.41D-01              OVMax= 0.00D+00

 Cycle   2  Pass 1  IDiag  1:
 E=  6.65703196726326     Delta-E=        4.452960708955 Rises=F Damp=F
 DIIS: error= 1.14D-01 at cycle   2 NSaved=   2.
 NSaved= 2 IEnMin= 1 EnMin=  2.20407125830820     IErMin= 1 ErrMin= 9.89D-02
 ErrMax= 1.14D-01  0.00D+00 EMaxC= 1.00D-01 BMatC= 5.26D-01 BMatP= 3.92D-01
 IDIUse=2 WtCom= 0.00D+00 WtEn= 1.00D+00
 Coeff-En:   0.839D+00 0.161D+00
 Coeff:      0.839D+00 0.161D+00
 RMSDP=4.81D-02 MaxDP=8.58D-01 DE= 4.45D+00 OVMax= 0.00D+00

 Cycle   3  Pass 1  IDiag  1:
 E= 0.758299543978296     Delta-E=       -5.898732423285 Rises=F Damp=F
 DIIS: error= 2.16D-02 at cycle   3 NSaved=   3.
 NSaved= 3 IEnMin= 3 EnMin= 0.758299543978296     IErMin= 3 ErrMin= 2.16D-02
 ErrMax= 2.16D-02  0.00D+00 EMaxC= 1.00D-01 BMatC= 3.26D-02 BMatP= 3.92D-01
 IDIUse=3 WtCom= 7.84D-01 WtEn= 2.16D-01
 Coeff-Com: -0.136D+00 0.439D-01 0.109D+01
 Coeff-En:   0.000D+00 0.000D+00 0.100D+01
 Coeff:     -0.107D+00 0.345D-01 0.107D+01
 RMSDP=9.31D-03 MaxDP=1.21D-01 DE=-5.90D+00 OVMax= 0.00D+00

 Cycle   4  Pass 1  IDiag  1:
 E= 0.695579105880142     Delta-E=       -0.062720438098 Rises=F Damp=F
 DIIS: error= 1.42D-02 at cycle   4 NSaved=   4.
 NSaved= 4 IEnMin= 4 EnMin= 0.695579105880142     IErMin= 4 ErrMin= 1.42D-02
 ErrMax= 1.42D-02  0.00D+00 EMaxC= 1.00D-01 BMatC= 7.41D-03 BMatP= 3.26D-02
 IDIUse=3 WtCom= 8.58D-01 WtEn= 1.42D-01
 Coeff-Com: -0.765D-01 0.368D-01 0.223D+00 0.817D+00
 Coeff-En:   0.000D+00 0.000D+00 0.000D+00 0.100D+01
 Coeff:     -0.656D-01 0.315D-01 0.191D+00 0.843D+00
 RMSDP=4.79D-03 MaxDP=8.25D-02 DE=-6.27D-02 OVMax= 0.00D+00

 Cycle   5  Pass 1  IDiag  3:
 E= 0.663859637706537     Delta-E=       -0.031719468174 Rises=F Damp=F
 DIIS: error= 5.95D-03 at cycle   5 NSaved=   5.
 NSaved= 5 IEnMin= 5 EnMin= 0.663859637706537     IErMin= 5 ErrMin= 5.95D-03
 ErrMax= 5.95D-03  0.00D+00 EMaxC= 1.00D-01 BMatC= 1.09D-03 BMatP= 7.41D-03
 IDIUse=3 WtCom= 9.41D-01 WtEn= 5.95D-02
 Coeff-Com:  0.497D-01 0.376D-02-0.178D+00-0.493D+00 0.162D+01
 Coeff-En:   0.000D+00 0.000D+00 0.000D+00 0.000D+00 0.100D+01
 Coeff:      0.468D-01 0.353D-02-0.168D+00-0.464D+00 0.158D+01
 Gap=     0.195 Goal=   None    Shift=    0.000
 RMSDP=4.52D-03 MaxDP=6.47D-02 DE=-3.17D-02 OVMax= 1.31D-01

 Cycle   6  Pass 1  IDiag  3:
 E= 0.653529683484635     Delta-E=       -0.010329954222 Rises=F Damp=F
 DIIS: error= 2.27D-03 at cycle   6 NSaved=   6.
 NSaved= 6 IEnMin= 6 EnMin= 0.653529683484635     IErMin= 6 ErrMin= 2.27D-03
 ErrMax= 2.27D-03  0.00D+00 EMaxC= 1.00D-01 BMatC= 2.60D-04 BMatP= 1.09D-03
 IDIUse=3 WtCom= 9.77D-01 WtEn= 2.27D-02
 Coeff-Com:  0.154D-01-0.102D-01-0.528D-01 0.202D-01-0.494D-01 0.108D+01
 Coeff-En:   0.000D+00 0.000D+00 0.000D+00 0.000D+00 0.000D+00 0.100D+01
 Coeff:      0.150D-01-0.997D-02-0.516D-01 0.197D-01-0.482D-01 0.108D+01
 Gap=     0.205 Goal=   None    Shift=    0.000
 RMSDP=2.14D-03 MaxDP=2.57D-02 DE=-1.03D-02 OVMax= 6.28D-02

 Cycle   7  Pass 1  IDiag  3:
 E= 0.651491955781921     Delta-E=       -0.002037727703 Rises=F Damp=F
 DIIS: error= 2.09D-03 at cycle   7 NSaved=   7.
 NSaved= 7 IEnMin= 7 EnMin= 0.651491955781921     IErMin= 7 ErrMin= 2.09D-03
 ErrMax= 2.09D-03  0.00D+00 EMaxC= 1.00D-01 BMatC= 2.64D-04 BMatP= 2.60D-04
 IDIUse=3 WtCom= 9.79D-01 WtEn= 2.09D-02
 Coeff-Com:  0.101D-01-0.100D-01-0.244D-01-0.108D+00 0.632D+00-0.158D+01
 Coeff-Com:  0.207D+01
 Coeff-En:   0.000D+00 0.000D+00 0.000D+00 0.000D+00 0.000D+00 0.000D+00
 Coeff-En:   0.100D+01
 Coeff:      0.986D-02-0.979D-02-0.239D-01-0.105D+00 0.619D+00-0.154D+01
 Coeff:      0.205D+01
 Gap=     0.200 Goal=   None    Shift=    0.000
 RMSDP=1.91D-03 MaxDP=2.07D-02 DE=-2.04D-03 OVMax= 5.33D-02

 Cycle   8  Pass 1  IDiag  3:
 E= 0.649607735089035     Delta-E=       -0.001884220693 Rises=F Damp=F
 DIIS: error= 1.65D-03 at cycle   8 NSaved=   8.
 NSaved= 8 IEnMin= 8 EnMin= 0.649607735089035     IErMin= 8 ErrMin= 1.65D-03
 ErrMax= 1.65D-03  0.00D+00 EMaxC= 1.00D-01 BMatC= 1.76D-04 BMatP= 2.60D-04
 IDIUse=3 WtCom= 9.84D-01 WtEn= 1.65D-02
 Coeff-Com:  0.417D-02-0.321D-02-0.200D-01 0.657D-01-0.456D+00 0.222D+01
 Coeff-Com: -0.501D+01 0.420D+01
 Coeff-En:   0.000D+00 0.000D+00 0.000D+00 0.000D+00 0.000D+00 0.000D+00
 Coeff-En:   0.000D+00 0.100D+01
 Coeff:      0.410D-02-0.315D-02-0.197D-01 0.646D-01-0.448D+00 0.218D+01
 Coeff:     -0.493D+01 0.415D+01
 Gap=     0.190 Goal=   None    Shift=    0.000
 RMSDP=4.11D-03 MaxDP=4.39D-02 DE=-1.88D-03 OVMax= 1.10D-01

 Cycle   9  Pass 1  IDiag  3:
 E= 0.646750653070285     Delta-E=       -0.002857082019 Rises=F Damp=F
 DIIS: error= 5.09D-04 at cycle   9 NSaved=   9.
 NSaved= 9 IEnMin= 9 EnMin= 0.646750653070285     IErMin= 9 ErrMin= 5.09D-04
 ErrMax= 5.09D-04  0.00D+00 EMaxC= 1.00D-01 BMatC= 1.97D-05 BMatP= 1.76D-04
 IDIUse=3 WtCom= 9.95D-01 WtEn= 5.09D-03
 Coeff-Com: -0.329D-02-0.180D-03 0.154D-01-0.198D-01-0.108D-02-0.253D+00
 Coeff-Com:  0.818D+00-0.986D+00 0.143D+01
 Coeff-En:   0.000D+00 0.000D+00 0.000D+00 0.000D+00 0.000D+00 0.000D+00
 Coeff-En:   0.000D+00 0.000D+00 0.100D+01
 Coeff:     -0.327D-02-0.180D-03 0.153D-01-0.197D-01-0.107D-02-0.251D+00
 Coeff:      0.814D+00-0.981D+00 0.143D+01
 Gap=     0.191 Goal=   None    Shift=    0.000
 RMSDP=1.55D-03 MaxDP=1.71D-02 DE=-2.86D-03 OVMax= 4.45D-02

 Cycle  10  Pass 1  IDiag  3:
 E= 0.646207078734278     Delta-E=       -0.000543574336 Rises=F Damp=F
 DIIS: error= 4.65D-04 at cycle  10 NSaved=  10.
 NSaved=10 IEnMin=10 EnMin= 0.646207078734278     IErMin=10 ErrMin= 4.65D-04
 ErrMax= 4.65D-04  0.00D+00 EMaxC= 1.00D-01 BMatC= 9.94D-06 BMatP= 1.97D-05
 IDIUse=3 WtCom= 9.95D-01 WtEn= 4.65D-03
 Coeff-Com: -0.452D-03 0.468D-03 0.645D-02-0.999D-02-0.646D-01 0.272D+00
 Coeff-Com: -0.947D+00 0.101D+01-0.906D+00 0.164D+01
 Coeff-En:   0.000D+00 0.000D+00 0.000D+00 0.000D+00 0.000D+00 0.000D+00
 Coeff-En:   0.000D+00 0.000D+00 0.000D+00 0.100D+01
 Coeff:     -0.450D-03 0.466D-03 0.642D-02-0.994D-02-0.643D-01 0.271D+00
 Coeff:     -0.943D+00 0.100D+01-0.901D+00 0.164D+01
 Gap=     0.192 Goal=   None    Shift=    0.000
 RMSDP=1.36D-03 MaxDP=1.57D-02 DE=-5.44D-04 OVMax= 4.11D-02

 Cycle  11  Pass 1  IDiag  3:
 E= 0.645850406482850     Delta-E=       -0.000356672251 Rises=F Damp=F
 DIIS: error= 4.26D-04 at cycle  11 NSaved=  11.
 NSaved=11 IEnMin=11 EnMin= 0.645850406482850     IErMin=11 ErrMin= 4.26D-04
 ErrMax= 4.26D-04  0.00D+00 EMaxC= 1.00D-01 BMatC= 9.87D-06 BMatP= 9.94D-06
 IDIUse=3 WtCom= 9.96D-01 WtEn= 4.26D-03
 Coeff-Com: -0.110D-02 0.304D-03 0.647D-02-0.114D-01-0.545D-01 0.219D+00
 Coeff-Com: -0.699D+00 0.737D+00-0.284D+00-0.915D-01 0.118D+01
 Coeff-En:   0.000D+00 0.000D+00 0.000D+00 0.000D+00 0.000D+00 0.000D+00
 Coeff-En:   0.000D+00 0.000D+00 0.000D+00 0.000D+00 0.100D+01
 Coeff:     -0.110D-02 0.302D-03 0.644D-02-0.113D-01-0.543D-01 0.218D+00
 Coeff:     -0.696D+00 0.733D+00-0.283D+00-0.911D-01 0.118D+01
 Gap=     0.192 Goal=   None    Shift=    0.000
 RMSDP=7.25D-04 MaxDP=8.67D-03 DE=-3.57D-04 OVMax= 2.27D-02

 Cycle  12  Pass 1  IDiag  3:
 E= 0.645665228561711     Delta-E=       -0.000185177921 Rises=F Damp=F
 DIIS: error= 3.80D-04 at cycle  12 NSaved=  12.
 NSaved=12 IEnMin=12 EnMin= 0.645665228561711     IErMin=12 ErrMin= 3.80D-04
 ErrMax= 3.80D-04  0.00D+00 EMaxC= 1.00D-01 BMatC= 7.63D-06 BMatP= 9.87D-06
 IDIUse=3 WtCom= 9.96D-01 WtEn= 3.80D-03
 Coeff-Com: -0.706D-03 0.365D-03 0.557D-02-0.136D-01-0.418D-01 0.175D+00
 Coeff-Com: -0.550D+00 0.518D+00-0.119D+00 0.154D+00-0.635D+00 0.151D+01
 Coeff-En:   0.000D+00 0.000D+00 0.000D+00 0.000D+00 0.000D+00 0.000D+00
 Coeff-En:   0.000D+00 0.000D+00 0.000D+00 0.000D+00 0.000D+00 0.100D+01
 Coeff:     -0.703D-03 0.364D-03 0.555D-02-0.136D-01-0.416D-01 0.174D+00
 Coeff:     -0.548D+00 0.516D+00-0.118D+00 0.153D+00-0.633D+00 0.151D+01
 Gap=     0.192 Goal=   None    Shift=    0.000
 RMSDP=7.93D-04 MaxDP=9.49D-03 DE=-1.85D-04 OVMax= 2.48D-02

 Cycle  13  Pass 1  IDiag  3:
 E= 0.645485892927809     Delta-E=       -0.000179335634 Rises=F Damp=F
 DIIS: error= 3.48D-04 at cycle  13 NSaved=  13.
 NSaved=13 IEnMin=13 EnMin= 0.645485892927809     IErMin=13 ErrMin= 3.48D-04
 ErrMax= 3.48D-04  0.00D+00 EMaxC= 1.00D-01 BMatC= 7.88D-06 BMatP= 7.63D-06
 IDIUse=3 WtCom= 9.97D-01 WtEn= 3.48D-03
 Coeff-Com: -0.675D-03 0.383D-03 0.552D-02-0.139D-01-0.374D-01 0.166D+00
 Coeff-Com: -0.536D+00 0.526D+00-0.160D+00 0.233D+00-0.553D+00 0.706D+00
 Coeff-Com:  0.663D+00
 Coeff-En:   0.000D+00 0.000D+00 0.000D+00 0.000D+00 0.000D+00 0.000D+00
 Coeff-En:   0.000D+00 0.000D+00 0.000D+00 0.000D+00 0.000D+00 0.000D+00
 Coeff-En:   0.100D+01
 Coeff:     -0.672D-03 0.381D-03 0.550D-02-0.138D-01-0.372D-01 0.165D+00
 Coeff:     -0.534D+00 0.524D+00-0.159D+00 0.233D+00-0.551D+00 0.704D+00
 Coeff:      0.664D+00
 Gap=     0.192 Goal=   None    Shift=    0.000
 RMSDP=3.06D-04 MaxDP=3.67D-03 DE=-1.79D-04 OVMax= 9.61D-03

 Cycle  14  Pass 1  IDiag  3:
 E= 0.645414652014210     Delta-E=       -0.000071240914 Rises=F Damp=F
 DIIS: error= 3.32D-04 at cycle  14 NSaved=  14.
 NSaved=14 IEnMin=14 EnMin= 0.645414652014210     IErMin=14 ErrMin= 3.32D-04
 ErrMax= 3.32D-04  0.00D+00 EMaxC= 1.00D-01 BMatC= 7.07D-06 BMatP= 7.63D-06
 IDIUse=3 WtCom= 9.97D-01 WtEn= 3.32D-03
 Coeff-Com: -0.627D-03 0.459D-03 0.489D-02-0.147D-01-0.275D-01 0.125D+00
 Coeff-Com: -0.449D+00 0.457D+00-0.118D+00 0.177D+00-0.297D+00 0.161D+00
 Coeff-Com: -0.332D+00 0.131D+01
 Coeff-En:   0.000D+00 0.000D+00 0.000D+00 0.000D+00 0.000D+00 0.000D+00
 Coeff-En:   0.000D+00 0.000D+00 0.000D+00 0.000D+00 0.000D+00 0.000D+00
 Coeff-En:   0.000D+00 0.100D+01
 Coeff:     -0.625D-03 0.458D-03 0.488D-02-0.146D-01-0.274D-01 0.124D+00
 Coeff:     -0.447D+00 0.456D+00-0.118D+00 0.177D+00-0.296D+00 0.161D+00
 Coeff:     -0.331D+00 0.131D+01
 Gap=     0.192 Goal=   None    Shift=    0.000
 RMSDP=4.72D-04 MaxDP=5.65D-03 DE=-7.12D-05 OVMax= 1.49D-02

 Cycle  15  Pass 1  IDiag  3:
 E= 0.645310335994964     Delta-E=       -0.000104316019 Rises=F Damp=F
 DIIS: error= 3.13D-04 at cycle  15 NSaved=  15.
 NSaved=15 IEnMin=15 EnMin= 0.645310335994964     IErMin=15 ErrMin= 3.13D-04
 ErrMax= 3.13D-04  0.00D+00 EMaxC= 1.00D-01 BMatC= 6.62D-06 BMatP= 7.07D-06
 IDIUse=3 WtCom= 9.97D-01 WtEn= 3.13D-03
 Coeff-Com: -0.747D-03 0.490D-03 0.506D-02-0.113D-01-0.348D-01 0.135D+00
 Coeff-Com: -0.441D+00 0.427D+00-0.948D-01 0.152D+00-0.289D+00 0.555D+00
 Coeff-Com: -0.640D+00-0.759D+00 0.200D+01
 Coeff-En:   0.000D+00 0.000D+00 0.000D+00 0.000D+00 0.000D+00 0.000D+00
 Coeff-En:   0.000D+00 0.000D+00 0.000D+00 0.000D+00 0.000D+00 0.000D+00
 Coeff-En:   0.000D+00 0.000D+00 0.100D+01
 Coeff:     -0.745D-03 0.488D-03 0.505D-02-0.112D-01-0.347D-01 0.134D+00
 Coeff:     -0.440D+00 0.426D+00-0.945D-01 0.151D+00-0.288D+00 0.553D+00
 Coeff:     -0.638D+00-0.757D+00 0.199D+01
 Gap=     0.192 Goal=   None    Shift=    0.000
 RMSDP=6.49D-04 MaxDP=7.75D-03 DE=-1.04D-04 OVMax= 2.05D-02

 Cycle  16  Pass 1  IDiag  3:
 E= 0.645174454380140     Delta-E=       -0.000135881615 Rises=F Damp=F
 DIIS: error= 2.89D-04 at cycle  16 NSaved=  16.
 NSaved=16 IEnMin=16 EnMin= 0.645174454380140     IErMin=16 ErrMin= 2.89D-04
 ErrMax= 2.89D-04  0.00D+00 EMaxC= 1.00D-01 BMatC= 6.52D-06 BMatP= 6.62D-06
 IDIUse=3 WtCom= 9.97D-01 WtEn= 2.89D-03
 Coeff-Com: -0.781D-03 0.476D-03 0.520D-02-0.111D-01-0.336D-01 0.132D+00
 Coeff-Com: -0.423D+00 0.411D+00-0.957D-01 0.170D+00-0.303D+00 0.529D+00
 Coeff-Com: -0.607D+00-0.434D+00 0.101D+01 0.646D+00
 Coeff-En:   0.000D+00 0.000D+00 0.000D+00 0.000D+00 0.000D+00 0.000D+00
 Coeff-En:   0.000D+00 0.000D+00 0.000D+00 0.000D+00 0.000D+00 0.000D+00
 Coeff-En:   0.000D+00 0.000D+00 0.000D+00 0.100D+01
 Coeff:     -0.779D-03 0.475D-03 0.519D-02-0.111D-01-0.335D-01 0.132D+00
 Coeff:     -0.422D+00 0.410D+00-0.954D-01 0.169D+00-0.302D+00 0.528D+00
 Coeff:     -0.606D+00-0.433D+00 0.101D+01 0.647D+00
 Gap=     0.192 Goal=   None    Shift=    0.000
 RMSDP=2.19D-04 MaxDP=2.60D-03 DE=-1.36D-04 OVMax= 6.86D-03

 Cycle  17  Pass 1  IDiag  3:
 E= 0.645127446554397     Delta-E=       -0.000047007826 Rises=F Damp=F
 DIIS: error= 2.80D-04 at cycle  17 NSaved=  17.
 NSaved=17 IEnMin=17 EnMin= 0.645127446554397     IErMin=17 ErrMin= 2.80D-04
 ErrMax= 2.80D-04  0.00D+00 EMaxC= 1.00D-01 BMatC= 5.84D-06 BMatP= 6.52D-06
 IDIUse=3 WtCom= 9.97D-01 WtEn= 2.80D-03
 Coeff-Com: -0.513D-03 0.584D-03 0.356D-02-0.989D-02-0.189D-01 0.950D-01
 Coeff-Com: -0.347D+00 0.364D+00-0.137D+00 0.180D+00-0.170D+00 0.497D+00
 Coeff-Com:  0.111D+00-0.185D+01-0.623D+00-0.359D+00 0.327D+01
 Coeff-En:   0.000D+00 0.000D+00 0.000D+00 0.000D+00 0.000D+00 0.000D+00
 Coeff-En:   0.000D+00 0.000D+00 0.000D+00 0.000D+00 0.000D+00 0.000D+00
 Coeff-En:   0.000D+00 0.000D+00 0.000D+00 0.000D+00 0.100D+01
 Coeff:     -0.512D-03 0.583D-03 0.355D-02-0.987D-02-0.188D-01 0.947D-01
 Coeff:     -0.346D+00 0.363D+00-0.137D+00 0.179D+00-0.170D+00 0.496D+00
 Coeff:      0.110D+00-0.185D+01-0.621D+00-0.358D+00 0.326D+01
 Gap=     0.193 Goal=   None    Shift=    0.000
 RMSDP=2.02D-03 MaxDP=2.39D-02 DE=-4.70D-05 OVMax= 6.36D-02

 Cycle  18  Pass 1  IDiag  3:
 E= 0.644773546113925     Delta-E=       -0.000353900440 Rises=F Damp=F
 DIIS: error= 3.73D-04 at cycle  18 NSaved=  18.
 NSaved=18 IEnMin=18 EnMin= 0.644773546113925     IErMin=17 ErrMin= 2.80D-04
 ErrMax= 3.73D-04  0.00D+00 EMaxC= 1.00D-01 BMatC= 7.18D-06 BMatP= 5.84D-06
 IDIUse=3 WtCom= 9.97D-01 WtEn= 2.80D-03
 Coeff-Com: -0.519D-03 0.561D-03 0.359D-02-0.103D-01-0.182D-01 0.100D+00
 Coeff-Com: -0.338D+00 0.350D+00-0.126D+00 0.181D+00-0.175D+00 0.492D+00
 Coeff-Com:  0.703D-01-0.152D+01-0.532D+00-0.758D+00 0.310D+01 0.188D+00
 Coeff-En:   0.000D+00 0.000D+00 0.000D+00 0.000D+00 0.000D+00 0.000D+00
 Coeff-En:   0.000D+00 0.000D+00 0.000D+00 0.000D+00 0.000D+00 0.000D+00
 Coeff-En:   0.000D+00 0.000D+00 0.000D+00 0.000D+00 0.000D+00 0.100D+01
 Coeff:     -0.517D-03 0.560D-03 0.358D-02-0.103D-01-0.181D-01 0.997D-01
 Coeff:     -0.337D+00 0.349D+00-0.126D+00 0.180D+00-0.175D+00 0.490D+00
 Coeff:      0.701D-01-0.152D+01-0.531D+00-0.756D+00 0.309D+01 0.190D+00
 Gap=     0.194 Goal=   None    Shift=    0.000
 RMSDP=8.79D-05 MaxDP=6.71D-04 DE=-3.54D-04 OVMax= 1.51D-03

 Cycle  19  Pass 1  IDiag  3:
 E= 0.644772241034843     Delta-E=       -0.000001305079 Rises=F Damp=F
 DIIS: error= 2.74D-04 at cycle  19 NSaved=  19.
 NSaved=19 IEnMin=19 EnMin= 0.644772241034843     IErMin=19 ErrMin= 2.74D-04
 ErrMax= 2.74D-04  0.00D+00 EMaxC= 1.00D-01 BMatC= 4.95D-06 BMatP= 5.84D-06
 IDIUse=3 WtCom= 9.97D-01 WtEn= 2.74D-03
 Coeff-Com: -0.512D-03 0.679D-03 0.260D-02-0.627D-02-0.117D-01 0.835D-01
 Coeff-Com: -0.236D+00 0.267D+00-0.129D+00 0.278D+00-0.421D+00 0.107D+01
 Coeff-Com: -0.319D+00-0.862D+00 0.127D+01-0.104D+00-0.212D+01-0.407D-01
 Coeff-Com:  0.227D+01
 Coeff-En:   0.000D+00 0.000D+00 0.000D+00 0.000D+00 0.000D+00 0.000D+00
 Coeff-En:   0.000D+00 0.000D+00 0.000D+00 0.000D+00 0.000D+00 0.000D+00
 Coeff-En:   0.000D+00 0.000D+00 0.000D+00 0.000D+00 0.000D+00 0.000D+00
 Coeff-En:   0.100D+01
 Coeff:     -0.511D-03 0.678D-03 0.259D-02-0.626D-02-0.117D-01 0.832D-01
 Coeff:     -0.235D+00 0.267D+00-0.128D+00 0.277D+00-0.420D+00 0.107D+01
 Coeff:     -0.318D+00-0.860D+00 0.127D+01-0.103D+00-0.211D+01-0.406D-01
 Coeff:      0.227D+01
 Gap=     0.191 Goal=   None    Shift=    0.000
 RMSDP=8.40D-04 MaxDP=8.72D-03 DE=-1.31D-06 OVMax= 2.37D-02

 Cycle  20  Pass 1  IDiag  3:
 E= 0.644652452218224     Delta-E=       -0.000119788817 Rises=F Damp=F
 DIIS: error= 2.21D-04 at cycle  20 NSaved=  20.
 NSaved=20 IEnMin=20 EnMin= 0.644652452218224     IErMin=20 ErrMin= 2.21D-04
 ErrMax= 2.21D-04  0.00D+00 EMaxC= 1.00D-01 BMatC= 2.35D-06 BMatP= 4.95D-06
 IDIUse=3 WtCom= 9.98D-01 WtEn= 2.21D-03
 Coeff-Com: -0.297D-03 0.342D-03 0.116D-02-0.254D-02-0.434D-02-0.510D-01
 Coeff-Com:  0.858D-01-0.146D+00 0.210D+00-0.230D+00 0.101D+00-0.980D-01
 Coeff-Com:  0.266D-02 0.148D+01 0.179D+00 0.176D+00-0.361D+01-0.117D-01
 Coeff-Com:  0.187D+01 0.105D+01
 Coeff-En:   0.000D+00 0.000D+00 0.000D+00 0.000D+00 0.000D+00 0.000D+00
 Coeff-En:   0.000D+00 0.000D+00 0.000D+00 0.000D+00 0.000D+00 0.000D+00
 Coeff-En:   0.000D+00 0.000D+00 0.000D+00 0.000D+00 0.000D+00 0.000D+00
 Coeff-En:   0.000D+00 0.100D+01
 Coeff:     -0.297D-03 0.341D-03 0.116D-02-0.254D-02-0.433D-02-0.509D-01
 Coeff:      0.856D-01-0.145D+00 0.209D+00-0.229D+00 0.101D+00-0.978D-01
 Coeff:      0.266D-02 0.147D+01 0.179D+00 0.175D+00-0.360D+01-0.117D-01
 Coeff:      0.186D+01 0.105D+01
 Gap=     0.199 Goal=   None    Shift=    0.000
 RMSDP=2.38D-03 MaxDP=2.73D-02 DE=-1.20D-04 OVMax= 7.49D-02

 Cycle  21  Pass 1  IDiag  3:
 E= 0.644563722159319     Delta-E=       -0.000088730059 Rises=F Damp=F
 DIIS: error= 5.24D-04 at cycle  21 NSaved=  20.
 NSaved=20 IEnMin=20 EnMin= 0.644563722159319     IErMin=19 ErrMin= 2.21D-04
 ErrMax= 5.24D-04  0.00D+00 EMaxC= 1.00D-01 BMatC= 1.25D-05 BMatP= 2.35D-06
 IDIUse=3 WtCom= 9.98D-01 WtEn= 2.21D-03
 Coeff-Com: -0.324D-03 0.143D-02-0.174D-02-0.232D-02-0.469D-01 0.105D+00
 Coeff-Com: -0.150D+00 0.208D+00-0.242D+00 0.941D-01 0.137D-01-0.161D+00
 Coeff-Com:  0.894D+00 0.326D+00-0.278D+00-0.129D+01-0.446D+00 0.563D+00
 Coeff-Com:  0.102D+01 0.389D+00
 Coeff-En:   0.000D+00 0.000D+00 0.000D+00 0.000D+00 0.000D+00 0.000D+00
 Coeff-En:   0.000D+00 0.000D+00 0.000D+00 0.000D+00 0.000D+00 0.000D+00
 Coeff-En:   0.000D+00 0.000D+00 0.000D+00 0.000D+00 0.000D+00 0.000D+00
 Coeff-En:   0.000D+00 0.100D+01
 Coeff:     -0.323D-03 0.143D-02-0.174D-02-0.231D-02-0.468D-01 0.105D+00
 Coeff:     -0.150D+00 0.208D+00-0.241D+00 0.938D-01 0.136D-01-0.160D+00
 Coeff:      0.892D+00 0.326D+00-0.277D+00-0.128D+01-0.445D+00 0.562D+00
 Coeff:      0.102D+01 0.391D+00
 Gap=     0.197 Goal=   None    Shift=    0.000
 RMSDP=8.81D-04 MaxDP=1.00D-02 DE=-8.87D-05 OVMax= 2.76D-02

 Cycle  22  Pass 1  IDiag  3:
 E= 0.644516942051496     Delta-E=       -0.000046780108 Rises=F Damp=F
 DIIS: error= 1.42D-04 at cycle  22 NSaved=  20.
 NSaved=20 IEnMin=20 EnMin= 0.644516942051496     IErMin=20 ErrMin= 1.42D-04
 ErrMax= 1.42D-04  0.00D+00 EMaxC= 1.00D-01 BMatC= 1.27D-06 BMatP= 2.35D-06
 IDIUse=3 WtCom= 9.99D-01 WtEn= 1.42D-03
 Coeff-Com:  0.367D-03-0.297D-02 0.488D-02-0.370D-01 0.985D-01-0.127D+00
 Coeff-Com:  0.138D+00-0.146D+00 0.533D-01-0.118D+00 0.105D+00 0.690D+00
 Coeff-Com: -0.376D+00-0.210D+00 0.351D-01-0.186D+00-0.497D+00 0.574D+00
 Coeff-Com:  0.161D+00 0.840D+00
 Coeff-En:   0.000D+00 0.000D+00 0.000D+00 0.000D+00 0.000D+00 0.000D+00
 Coeff-En:   0.000D+00 0.000D+00 0.000D+00 0.000D+00 0.000D+00 0.000D+00
 Coeff-En:   0.000D+00 0.000D+00 0.000D+00 0.000D+00 0.000D+00 0.000D+00
 Coeff-En:   0.000D+00 0.100D+01
 Coeff:      0.367D-03-0.296D-02 0.487D-02-0.370D-01 0.984D-01-0.127D+00
 Coeff:      0.137D+00-0.146D+00 0.532D-01-0.118D+00 0.105D+00 0.689D+00
 Coeff:     -0.376D+00-0.210D+00 0.351D-01-0.185D+00-0.496D+00 0.573D+00
 Coeff:      0.161D+00 0.840D+00
 Gap=     0.197 Goal=   None    Shift=    0.000
 RMSDP=2.07D-04 MaxDP=1.75D-03 DE=-4.68D-05 OVMax= 4.94D-03

 Cycle  23  Pass 1  IDiag  3:
 E= 0.644504138732373     Delta-E=       -0.000012803319 Rises=F Damp=F
 DIIS: error= 5.99D-05 at cycle  23 NSaved=  20.
 NSaved=20 IEnMin=20 EnMin= 0.644504138732373     IErMin=20 ErrMin= 5.99D-05
 ErrMax= 5.99D-05  0.00D+00 EMaxC= 1.00D-01 BMatC= 1.70D-07 BMatP= 1.27D-06
 IDIUse=1 WtCom= 1.00D+00 WtEn= 0.00D+00
 Coeff-Com: -0.747D-03-0.251D-02 0.438D-01-0.946D-01 0.824D-01-0.601D-01
 Coeff-Com:  0.753D-01-0.853D-02 0.116D+00-0.180D+00-0.499D+00 0.588D+00
 Coeff-Com:  0.257D-01-0.199D+00 0.325D-01 0.169D+00-0.423D+00-0.114D+00
 Coeff-Com: -0.164D+00 0.161D+01
 Coeff:     -0.747D-03-0.251D-02 0.438D-01-0.946D-01 0.824D-01-0.601D-01
 Coeff:      0.753D-01-0.853D-02 0.116D+00-0.180D+00-0.499D+00 0.588D+00
 Coeff:      0.257D-01-0.199D+00 0.325D-01 0.169D+00-0.423D+00-0.114D+00
 Coeff:     -0.164D+00 0.161D+01
 Gap=     0.198 Goal=   None    Shift=    0.000
 RMSDP=6.41D-04 MaxDP=7.03D-03 DE=-1.28D-05 OVMax= 1.96D-02

 Cycle  24  Pass 1  IDiag  3:
 E= 0.644497722838537     Delta-E=       -0.000006415894 Rises=F Damp=F
 DIIS: error= 4.45D-05 at cycle  24 NSaved=  20.
 NSaved=20 IEnMin=20 EnMin= 0.644497722838537     IErMin=20 ErrMin= 4.45D-05
 ErrMax= 4.45D-05  0.00D+00 EMaxC= 1.00D-01 BMatC= 1.83D-07 BMatP= 1.70D-07
 IDIUse=1 WtCom= 1.00D+00 WtEn= 0.00D+00
 Coeff-Com: -0.493D-02 0.441D-01-0.815D-01 0.661D-01-0.460D-01 0.626D-01
 Coeff-Com: -0.102D-01 0.901D-01-0.110D+00-0.436D+00 0.607D+00 0.620D-01
 Coeff-Com: -0.363D+00-0.221D-01 0.288D+00-0.337D+00-0.132D+00-0.152D+00
 Coeff-Com:  0.104D+01 0.434D+00
 Coeff:     -0.493D-02 0.441D-01-0.815D-01 0.661D-01-0.460D-01 0.626D-01
 Coeff:     -0.102D-01 0.901D-01-0.110D+00-0.436D+00 0.607D+00 0.620D-01
 Coeff:     -0.363D+00-0.221D-01 0.288D+00-0.337D+00-0.132D+00-0.152D+00
 Coeff:      0.104D+01 0.434D+00
 Gap=     0.197 Goal=   None    Shift=    0.000
 RMSDP=1.56D-04 MaxDP=1.79D-03 DE=-6.42D-06 OVMax= 4.87D-03

 Cycle  25  Pass 1  IDiag  3:
 E= 0.644495781339060     Delta-E=       -0.000001941499 Rises=F Damp=F
 DIIS: error= 2.86D-05 at cycle  25 NSaved=  20.
 NSaved=20 IEnMin=20 EnMin= 0.644495781339060     IErMin=20 ErrMin= 2.86D-05
 ErrMax= 2.86D-05  0.00D+00 EMaxC= 1.00D-01 BMatC= 5.10D-08 BMatP= 1.70D-07
 IDIUse=1 WtCom= 1.00D+00 WtEn= 0.00D+00
 Coeff-Com: -0.875D-03 0.615D-02-0.202D-02-0.729D-04-0.475D-02-0.120D-01
 Coeff-Com: -0.419D-02 0.556D-01 0.836D-01-0.384D-01-0.133D+00 0.223D+00
 Coeff-Com:  0.573D-02-0.100D+00-0.521D-01 0.559D-01-0.866D-01-0.235D+00
 Coeff-Com:  0.886D-01 0.115D+01
 Coeff:     -0.875D-03 0.615D-02-0.202D-02-0.729D-04-0.475D-02-0.120D-01
 Coeff:     -0.419D-02 0.556D-01 0.836D-01-0.384D-01-0.133D+00 0.223D+00
 Coeff:      0.573D-02-0.100D+00-0.521D-01 0.559D-01-0.866D-01-0.235D+00
 Coeff:      0.886D-01 0.115D+01
 Gap=     0.196 Goal=   None    Shift=    0.000
 RMSDP=3.40D-04 MaxDP=3.91D-03 DE=-1.94D-06 OVMax= 1.07D-02

 Cycle  26  Pass 1  IDiag  3:
 E= 0.644501548951894     Delta-E=        0.000005767613 Rises=F Damp=F
 DIIS: error= 1.11D-04 at cycle  26 NSaved=  20.
 NSaved=20 IEnMin=19 EnMin= 0.644495781339060     IErMin=19 ErrMin= 2.86D-05
 ErrMax= 1.11D-04  0.00D+00 EMaxC= 1.00D-01 BMatC= 5.99D-07 BMatP= 5.10D-08
 IDIUse=1 WtCom= 1.00D+00 WtEn= 0.00D+00
 Coeff-Com: -0.275D-02 0.938D-02-0.103D-01 0.104D-01-0.268D-01 0.135D-01
 Coeff-Com:  0.302D-01 0.789D-01-0.190D-01-0.101D+00-0.519D-02 0.573D-01
 Coeff-Com:  0.778D-01-0.134D+00 0.653D-01-0.655D-01-0.129D+00 0.103D+00
 Coeff-Com:  0.560D+00 0.488D+00
 Coeff:     -0.275D-02 0.938D-02-0.103D-01 0.104D-01-0.268D-01 0.135D-01
 Coeff:      0.302D-01 0.789D-01-0.190D-01-0.101D+00-0.519D-02 0.573D-01
 Coeff:      0.778D-01-0.134D+00 0.653D-01-0.655D-01-0.129D+00 0.103D+00
 Coeff:      0.560D+00 0.488D+00
 Gap=     0.197 Goal=   None    Shift=    0.000
 RMSDP=2.20D-04 MaxDP=2.51D-03 DE= 5.77D-06 OVMax= 6.91D-03

 Cycle  27  Pass 1  IDiag  3:
 E= 0.644496001780908     Delta-E=       -0.000005547171 Rises=F Damp=F
 DIIS: error= 3.57D-05 at cycle  27 NSaved=  20.
 NSaved=20 IEnMin=18 EnMin= 0.644495781339060     IErMin=18 ErrMin= 2.86D-05
 ErrMax= 3.57D-05  0.00D+00 EMaxC= 1.00D-01 BMatC= 8.91D-08 BMatP= 5.10D-08
 IDIUse=1 WtCom= 1.00D+00 WtEn= 0.00D+00
 Coeff-Com:  0.493D-02-0.638D-02 0.491D-02-0.164D-01 0.106D-01 0.108D-01
 Coeff-Com:  0.736D-01-0.678D-01-0.210D-01-0.585D-02 0.234D-01 0.906D-01
 Coeff-Com: -0.101D+00 0.384D-02 0.110D-01-0.177D+00 0.674D-01 0.445D+00
 Coeff-Com:  0.636D-04 0.650D+00
 Coeff:      0.493D-02-0.638D-02 0.491D-02-0.164D-01 0.106D-01 0.108D-01
 Coeff:      0.736D-01-0.678D-01-0.210D-01-0.585D-02 0.234D-01 0.906D-01
 Coeff:     -0.101D+00 0.384D-02 0.110D-01-0.177D+00 0.674D-01 0.445D+00
 Coeff:      0.636D-04 0.650D+00
 Gap=     0.197 Goal=   None    Shift=    0.000
 RMSDP=3.09D-05 MaxDP=3.28D-04 DE=-5.55D-06 OVMax= 9.32D-04

 Cycle  28  Pass 1  IDiag  3:
 E= 0.644495567560966     Delta-E=       -0.000000434220 Rises=F Damp=F
 DIIS: error= 2.46D-05 at cycle  28 NSaved=  20.
 NSaved=20 IEnMin=20 EnMin= 0.644495567560966     IErMin=20 ErrMin= 2.46D-05
 ErrMax= 2.46D-05  0.00D+00 EMaxC= 1.00D-01 BMatC= 3.66D-08 BMatP= 5.10D-08
 IDIUse=1 WtCom= 1.00D+00 WtEn= 0.00D+00
 Coeff-Com:  0.192D-02 0.143D-02-0.126D-01 0.190D-01-0.290D-01 0.465D-01
 Coeff-Com:  0.454D-01 0.118D-02-0.998D-01-0.358D-01 0.695D-01-0.303D-01
 Coeff-Com:  0.340D-02 0.184D-01 0.250D-01 0.713D-02-0.150D+00-0.184D+00
 Coeff-Com: -0.164D+00 0.147D+01
 Coeff:      0.192D-02 0.143D-02-0.126D-01 0.190D-01-0.290D-01 0.465D-01
 Coeff:      0.454D-01 0.118D-02-0.998D-01-0.358D-01 0.695D-01-0.303D-01
 Coeff:      0.340D-02 0.184D-01 0.250D-01 0.713D-02-0.150D+00-0.184D+00
 Coeff:     -0.164D+00 0.147D+01
 Gap=     0.197 Goal=   None    Shift=    0.000
 RMSDP=3.67D-05 MaxDP=3.88D-04 DE=-4.34D-07 OVMax= 1.12D-03

 Cycle  29  Pass 1  IDiag  3:
 E= 0.644495300856534     Delta-E=       -0.000000266704 Rises=F Damp=F
 DIIS: error= 1.20D-05 at cycle  29 NSaved=  20.
 NSaved=20 IEnMin=20 EnMin= 0.644495300856534     IErMin=20 ErrMin= 1.20D-05
 ErrMax= 1.20D-05  0.00D+00 EMaxC= 1.00D-01 BMatC= 8.24D-09 BMatP= 3.66D-08
 IDIUse=1 WtCom= 1.00D+00 WtEn= 0.00D+00
 Coeff-Com:  0.592D-03-0.511D-02 0.116D-01-0.872D-02 0.330D-01-0.122D-01
 Coeff-Com:  0.554D-02-0.495D-01 0.369D-02 0.250D-01-0.120D-02-0.278D-02
 Coeff-Com:  0.192D-01-0.126D-01-0.144D-01 0.454D-02 0.147D-01-0.673D-01
 Coeff-Com: -0.592D+00 0.165D+01
 Coeff:      0.592D-03-0.511D-02 0.116D-01-0.872D-02 0.330D-01-0.122D-01
 Coeff:      0.554D-02-0.495D-01 0.369D-02 0.250D-01-0.120D-02-0.278D-02
 Coeff:      0.192D-01-0.126D-01-0.144D-01 0.454D-02 0.147D-01-0.673D-01
 Coeff:     -0.592D+00 0.165D+01
 Gap=     0.197 Goal=   None    Shift=    0.000
 RMSDP=1.95D-05 MaxDP=1.92D-04 DE=-2.67D-07 OVMax= 5.56D-04

 Cycle  30  Pass 1  IDiag  3:
 E= 0.644495227615607     Delta-E=       -0.000000073241 Rises=F Damp=F
 DIIS: error= 6.49D-06 at cycle  30 NSaved=  20.
 NSaved=20 IEnMin=20 EnMin= 0.644495227615607     IErMin=20 ErrMin= 6.49D-06
 ErrMax= 6.49D-06  0.00D+00 EMaxC= 1.00D-01 BMatC= 1.02D-09 BMatP= 8.24D-09
 IDIUse=1 WtCom= 1.00D+00 WtEn= 0.00D+00
 Coeff-Com:  0.237D-02-0.601D-02 0.460D-02 0.511D-02 0.636D-02-0.770D-02
 Coeff-Com:  0.604D-02 0.555D-02-0.218D-01 0.548D-02-0.226D-02-0.466D-02
 Coeff-Com:  0.657D-02 0.523D-03 0.297D-01 0.272D-01-0.824D-03 0.493D-01
 Coeff-Com: -0.101D+01 0.191D+01
 Coeff:      0.237D-02-0.601D-02 0.460D-02 0.511D-02 0.636D-02-0.770D-02
 Coeff:      0.604D-02 0.555D-02-0.218D-01 0.548D-02-0.226D-02-0.466D-02
 Coeff:      0.657D-02 0.523D-03 0.297D-01 0.272D-01-0.824D-03 0.493D-01
 Coeff:     -0.101D+01 0.191D+01
 Gap=     0.197 Goal=   None    Shift=    0.000
 RMSDP=1.99D-05 MaxDP=2.24D-04 DE=-7.32D-08 OVMax= 5.69D-04

 Cycle  31  Pass 1  IDiag  3:
 E= 0.644495230370694     Delta-E=        0.000000002755 Rises=F Damp=F
 DIIS: error= 6.80D-06 at cycle  31 NSaved=  20.
 NSaved=20 IEnMin=19 EnMin= 0.644495227615607     IErMin=19 ErrMin= 6.49D-06
 ErrMax= 6.80D-06  0.00D+00 EMaxC= 1.00D-01 BMatC= 2.73D-09 BMatP= 1.02D-09
 IDIUse=1 WtCom= 1.00D+00 WtEn= 0.00D+00
 Coeff-Com:  0.767D-02-0.810D-02 0.593D-02 0.200D-01-0.664D-02-0.264D-01
 Coeff-Com: -0.790D-02 0.162D-01-0.682D-02 0.860D-03-0.355D-02 0.137D-01
 Coeff-Com:  0.153D-01 0.154D-01-0.834D-01 0.412D-01 0.606D-01-0.244D+00
 Coeff-Com: -0.298D+00 0.149D+01
 Coeff:      0.767D-02-0.810D-02 0.593D-02 0.200D-01-0.664D-02-0.264D-01
 Coeff:     -0.790D-02 0.162D-01-0.682D-02 0.860D-03-0.355D-02 0.137D-01
 Coeff:      0.153D-01 0.154D-01-0.834D-01 0.412D-01 0.606D-01-0.244D+00
 Coeff:     -0.298D+00 0.149D+01
 Gap=     0.197 Goal=   None    Shift=    0.000
 RMSDP=1.47D-05 MaxDP=1.68D-04 DE= 2.76D-09 OVMax= 4.01D-04

 Cycle  32  Pass 1  IDiag  3:
 E= 0.644495200779374     Delta-E=       -0.000000029591 Rises=F Damp=F
 DIIS: error= 4.84D-06 at cycle  32 NSaved=  20.
 NSaved=20 IEnMin=20 EnMin= 0.644495200779374     IErMin=20 ErrMin= 4.84D-06
 ErrMax= 4.84D-06  0.00D+00 EMaxC= 1.00D-01 BMatC= 1.51D-09 BMatP= 1.02D-09
 IDIUse=1 WtCom= 1.00D+00 WtEn= 0.00D+00
 Coeff-Com: -0.144D-02 0.110D-01 0.375D-02 0.628D-02-0.274D-01-0.619D-02
 Coeff-Com:  0.232D-01-0.902D-02 0.169D-02 0.308D-02-0.128D-01 0.135D-02
 Coeff-Com:  0.368D-01-0.196D-03-0.316D-01 0.529D-01-0.732D-01-0.942D-01
 Coeff-Com: -0.638D+00 0.175D+01
 Coeff:     -0.144D-02 0.110D-01 0.375D-02 0.628D-02-0.274D-01-0.619D-02
 Coeff:      0.232D-01-0.902D-02 0.169D-02 0.308D-02-0.128D-01 0.135D-02
 Coeff:      0.368D-01-0.196D-03-0.316D-01 0.529D-01-0.732D-01-0.942D-01
 Coeff:     -0.638D+00 0.175D+01
 Gap=     0.197 Goal=   None    Shift=    0.000
 RMSDP=8.59D-06 MaxDP=1.24D-04 DE=-2.96D-08 OVMax= 1.93D-04

 >>>>>>>>>> Convergence criterion not met.
 SCF Done:  E(RAM1) =  0.644495200779     A.U. after   33 cycles
            NFock= 32  Conv=0.86D-05     -V/T= 1.0027
 KE=-2.358534674465D+02 PE=-7.556996323688D+02 EE= 4.653843474278D+02
 Leave Link  502 at Fri May 23 05:15:57 2025, MaxMem=  3758096384 cpu:               0.2 elap:               0.0
 (Enter /apps/easybuild-2022/easybuild/software/Compiler/NVHPC/22.11-CUDA-11.7.0/Gaussian/g16c01-CUDA-11.7.0/g16/l508.exe)
 Keep J ints in memory in canonical form, NReq=866260.
 FoFCou: FMM=F IPFlag=           0 FMFlag=           0 FMFlg1=           0
         NFxFlg=           0 DoJE=F BraDBF=F KetDBF=F FulRan=T
         wScrn=  0.000000 ICntrl=       600 IOpCl=  2 I1Cent=           0 NGrid=           0
         NMat0=    1 NMatS0=    111 NMatT0=    0 NMatD0=    1 NMtDS0=    0 NMtDT0=    0
 Symmetry not used in FoFCou.
 Two-electron integral symmetry not used.
 Tight linear equation convergence will be used.
 RAM1 wavefunction.
 Quadratic Convergence SCF Method.
 Line search only if initial step raises energy.
 Iteration   1 EE= 0.644495186441645                                    Grad=2.943D-05 Max rot=    0.0003 deg.
 QCNR:  CnvC1=2.94D-10 CnvC2=2.94D-09
 LinEq1:  Iter=  0 NonCon=     1 RMS=2.63D-06 Max=2.86D-05 NDo=     1
 AX will form     1 AO Fock derivatives at one time.
 LinEq1:  Iter=  1 NonCon=     1 RMS=7.44D-07 Max=1.07D-05 NDo=     1
 LinEq1:  Iter=  2 NonCon=     1 RMS=1.79D-07 Max=1.22D-06 NDo=     1
 LinEq1:  Iter=  3 NonCon=     1 RMS=5.05D-08 Max=4.59D-07 NDo=     1
 LinEq1:  Iter=  4 NonCon=     1 RMS=1.21D-08 Max=6.72D-08 NDo=     1
 LinEq1:  Iter=  5 NonCon=     1 RMS=3.43D-09 Max=2.27D-08 NDo=     1
 LinEq1:  Iter=  6 NonCon=     1 RMS=8.70D-10 Max=6.17D-09 NDo=     1
 LinEq1:  Iter=  7 NonCon=     0 RMS=1.95D-10 Max=1.53D-09 NDo=     1
 Linear equations converged to 2.943D-10 2.943D-09 after     7 iterations.
 Angle between quadratic step and gradient=  60.15 degrees.
     ILin= 1 X=0.000D+00 Y= 6.444951864416D-01 DE= 0.00D+00 F= -1.12D-08
     ILin= 2 X=1.000D+00 Y= 6.444951808610D-01 DE=-5.58D-09
 Iteration   2 EE= 0.644495180860986     Delta-E=       -0.000000005581 Grad=1.194D-06 Max rot=    0.0000 deg.
 QCNR:  CnvC1=1.19D-11 CnvC2=1.19D-10
 LinEq1:  Iter=  0 NonCon=     1 RMS=6.53D-08 Max=4.94D-07 NDo=     1
 LinEq1:  Iter=  1 NonCon=     1 RMS=2.28D-08 Max=2.83D-07 NDo=     1
 LinEq1:  Iter=  2 NonCon=     1 RMS=4.99D-09 Max=3.66D-08 NDo=     1
 LinEq1:  Iter=  3 NonCon=     1 RMS=1.45D-09 Max=8.22D-09 NDo=     1
 LinEq1:  Iter=  4 NonCon=     1 RMS=4.01D-10 Max=3.82D-09 NDo=     1
 LinEq1:  Iter=  5 NonCon=     1 RMS=9.06D-11 Max=8.37D-10 NDo=     1
 LinEq1:  Iter=  6 NonCon=     1 RMS=2.21D-11 Max=2.04D-10 NDo=     1
 LinEq1:  Iter=  7 NonCon=     0 RMS=7.14D-12 Max=6.04D-11 NDo=     1
 Linear equations converged to 1.194D-11 1.194D-10 after     7 iterations.
 Angle between quadratic step and gradient=  67.07 degrees.
     ILin= 1 X=0.000D+00 Y= 6.444951808610D-01 DE= 0.00D+00 F= -9.81D-12
     ILin= 2 X=1.000D+00 Y= 6.444951808537D-01 DE=-7.28D-12
 Iteration   3 EE= 0.644495180853710     Delta-E=       -0.000000000007 Grad=2.639D-08 Max rot=    0.0000 deg.
 Rotation gradient small -- convergence achieved.
 SCF Done:  E(RAM1) =  0.644495180854     a.u. after    3 cycles
            Convg  =    0.2639D-07                    17 Fock formations.
              S**2 =  0.0000                  -V/T =  1.0027
 Leave Link  508 at Fri May 23 05:15:57 2025, MaxMem=  3758096384 cpu:               0.1 elap:               0.0
 (Enter /apps/easybuild-2022/easybuild/software/Compiler/NVHPC/22.11-CUDA-11.7.0/Gaussian/g16c01-CUDA-11.7.0/g16/l701.exe)
 ... and contract with generalized density number  0.
 Compute integral first derivatives.
 Leave Link  701 at Fri May 23 05:15:57 2025, MaxMem=  3758096384 cpu:               0.1 elap:               0.0
 (Enter /apps/easybuild-2022/easybuild/software/Compiler/NVHPC/22.11-CUDA-11.7.0/Gaussian/g16c01-CUDA-11.7.0/g16/l702.exe)
 L702 exits ... SP integral derivatives will be done elsewhere.
 Leave Link  702 at Fri May 23 05:15:57 2025, MaxMem=  3758096384 cpu:               0.0 elap:               0.0
 (Enter /apps/easybuild-2022/easybuild/software/Compiler/NVHPC/22.11-CUDA-11.7.0/Gaussian/g16c01-CUDA-11.7.0/g16/l703.exe)
 Integral derivatives from FoFJK, PRISM(SPDF).
 Compute integral first derivatives, UseDBF=F ICtDFT=           0.
 Calling FoFJK, ICntrl=      2127 FMM=F ISym2X=0 I1Cent= 0 IOpClX= 0 NMat=1 NMatS=1 NMatT=0.
 FoFJK:  IHMeth= 8 ICntrl=    2127 DoSepK=F KAlg= 0 I1Cent=           0 FoldK=F
 IRaf=         0 NMat=       1 IRICut=       1 DoRegI=T DoRafI=F ISym2E= 0 IDoP0=3 IntGTp=3.
 FoFCou: FMM=F IPFlag=           0 FMFlag=      100000 FMFlg1=         800
         NFxFlg=           0 DoJE=F BraDBF=F KetDBF=F FulRan=T
         wScrn=  0.000000 ICntrl=      2127 IOpCl=  0 I1Cent=           0 NGrid=           0
         NMat0=    1 NMatS0=      1 NMatT0=    0 NMatD0=    1 NMtDS0=    0 NMtDT0=    0
 Symmetry not used in FoFCou.
 Leave Link  703 at Fri May 23 05:15:57 2025, MaxMem=  3758096384 cpu:               0.0 elap:               0.0
 (Enter /apps/easybuild-2022/easybuild/software/Compiler/NVHPC/22.11-CUDA-11.7.0/Gaussian/g16c01-CUDA-11.7.0/g16/l716.exe)
 Dipole        =-4.48025121D-01 8.65358349D-01-5.46280589D-01
 -------------------------------------------------------------------
 Center     Atomic                   Forces (Hartrees/Bohr)
 Number     Number              X              Y              Z
 -------------------------------------------------------------------
      1        6           0.006740460    0.016066655    0.047706716
      2        6          -0.003845285    0.091195625   -0.012953717
      3        9           0.055037467    0.068893828   -0.071923264
      4        9           0.006260248   -0.021073878    0.033596196
      5       16           0.063307506   -0.061355630    0.055371053
      6        8          -0.116628570   -0.055542592    0.064221139
      7        8          -0.012009566   -0.022570206   -0.032325134
      8        8           0.007754920    0.009947754   -0.021714741
      9        9          -0.005607247    0.035970722   -0.052484048
     10        9           0.039815188   -0.026080684   -0.007436954
     11        9          -0.041156238   -0.035909496   -0.003275496
     12        1           0.000331117    0.000457901    0.001218249
 -------------------------------------------------------------------
 Cartesian Forces:  Max     0.116628570 RMS     0.043784431
 Z-matrix is all fixed cartesians, so copy forces.
 Force constants in Cartesian coordinates: 
                1             2             3             4             5 
      1  0.945917D+00
      2  0.157461D-02  0.943483D+00
      3  0.615987D-03 -0.597074D-01  0.867878D+00
      4 -0.113242D+00  0.556482D-02 -0.547132D-02  0.226964D+00
      5  0.692012D-02 -0.212391D+00 -0.705168D-01 -0.853793D-01  0.840730D+00
      6 -0.401932D-02 -0.783704D-01 -0.270152D+00  0.829727D-01 -0.112101D+00
      7  0.000000D+00  0.000000D+00  0.000000D+00 -0.338241D-04 -0.103229D-04
      8  0.000000D+00  0.000000D+00  0.000000D+00  0.563813D-03  0.172071D-03
      9  0.000000D+00  0.000000D+00  0.000000D+00  0.520147D-03  0.158745D-03
     10  0.804870D-02 -0.862451D-03  0.471167D-03 -0.580650D-01  0.477946D-01
     11 -0.393609D-02  0.245479D-01 -0.157163D-01  0.475676D-01 -0.243755D+00
     12 -0.395466D-02  0.155627D-01 -0.994874D-02 -0.688417D-01  0.210351D+00
     13  0.127946D-01 -0.490300D-03  0.183698D-03 -0.988206D-01  0.289395D-01
     14  0.112602D-02  0.103184D-02 -0.673841D-03  0.268327D-01 -0.401459D+00
     15  0.285926D-02 -0.233652D-01  0.149681D-01 -0.112669D-01 -0.169050D-01
     16 -0.704354D-03 -0.717258D-04  0.532511D-04  0.329867D-02  0.323123D-03
     17 -0.214964D-03 -0.218902D-04  0.162518D-04  0.255392D-01  0.209158D-02
     18  0.315195D-02  0.320969D-03 -0.238296D-03  0.996648D-03 -0.165808D-03
     19  0.372068D-02  0.378885D-03 -0.281294D-03  0.816476D-02  0.509654D-03
     20  0.443970D-03  0.452104D-04 -0.335654D-04 -0.986814D-02  0.831457D-04
     21 -0.168931D-02 -0.172026D-03  0.127716D-03  0.386381D-02 -0.246992D-03
     22 -0.304165D-02 -0.309738D-03  0.229957D-03  0.125813D-01  0.130240D-02
     23 -0.238068D-03 -0.242429D-04  0.179986D-04 -0.143554D-01 -0.234203D-02
     24 -0.132050D-02 -0.134469D-03  0.998331D-04 -0.231003D-02 -0.672808D-03
     25 -0.748624D-01  0.252517D-01 -0.362717D-01  0.157260D-02 -0.768696D-03
     26  0.245281D-01 -0.235443D+00  0.219228D+00 -0.254187D-02  0.241220D-01
     27 -0.369632D-01  0.230315D+00 -0.421341D+00 -0.191089D-02  0.166136D-01
     28 -0.415135D+00  0.220934D+00  0.587088D-01  0.125349D-01 -0.420431D-02
     29  0.226280D+00 -0.222471D+00 -0.476297D-01  0.114475D-01 -0.327992D-02
     30  0.676611D-01 -0.526076D-01 -0.952925D-01  0.270295D-01 -0.110214D-01
     31 -0.363496D+00 -0.251970D+00 -0.182385D-01  0.992678D-02  0.495524D-02
     32 -0.256484D+00 -0.298757D+00 -0.249844D-01 -0.903189D-02 -0.425798D-02
     33 -0.263414D-01 -0.318419D-01 -0.861017D-01 -0.255113D-01 -0.154878D-01
     34  0.000000D+00  0.000000D+00  0.000000D+00 -0.488118D-02 -0.382046D-03
     35  0.000000D+00  0.000000D+00  0.000000D+00  0.366097D-02  0.286542D-03
     36  0.000000D+00  0.000000D+00  0.000000D+00 -0.707240D-04 -0.553551D-05
                6             7             8             9            10 
      6  0.840402D+00
      7  0.151361D-03  0.648500D-01
      8 -0.252303D-02  0.468901D-01  0.691646D-01
      9 -0.232763D-02 -0.472935D-01 -0.605177D-01  0.730434D-01
     10 -0.699579D-01  0.000000D+00  0.000000D+00  0.000000D+00  0.386216D-01
     11  0.214635D+00  0.000000D+00  0.000000D+00  0.000000D+00 -0.481722D-01
     12 -0.445445D+00  0.000000D+00  0.000000D+00  0.000000D+00  0.720492D-01
     13 -0.117540D-01 -0.545325D-02  0.223167D-02 -0.252464D-02  0.113652D-01
     14 -0.190047D-01 -0.150790D-01  0.809199D-02 -0.510936D-02  0.122906D-02
     15 -0.157713D+00  0.157863D-01 -0.522633D-02  0.851065D-02 -0.241076D-02
     16  0.272526D-04 -0.594039D-01 -0.490014D-01  0.499291D-01  0.747518D-03
     17  0.908327D-02 -0.318012D-01 -0.774208D-01  0.654755D-01  0.228137D-03
     18  0.570718D-02  0.315473D-01  0.650765D-01 -0.821699D-01 -0.334510D-02
     19  0.634387D-02  0.448862D-04 -0.748207D-03 -0.690261D-03 -0.394869D-02
     20 -0.227917D-01  0.143983D-03 -0.240004D-02 -0.221417D-02 -0.471178D-03
     21  0.135629D-01 -0.117178D-03  0.195323D-02  0.180196D-02  0.179283D-02
     22 -0.141024D-02 -0.384430D-05  0.640804D-04  0.591176D-04  0.322805D-02
     23  0.201266D-01 -0.143516D-03  0.239225D-02  0.220698D-02  0.252657D-03
     24  0.964075D-02 -0.742281D-04  0.123731D-02  0.114148D-02  0.140142D-02
     25  0.477301D-03  0.000000D+00  0.000000D+00  0.000000D+00  0.134927D-02
     26 -0.154572D-01  0.000000D+00  0.000000D+00  0.000000D+00  0.987905D-04
     27 -0.106442D-01  0.000000D+00  0.000000D+00  0.000000D+00 -0.772267D-04
     28  0.257027D-02  0.000000D+00  0.000000D+00  0.000000D+00 -0.560085D-03
     29  0.198807D-02  0.000000D+00  0.000000D+00  0.000000D+00 -0.105207D-02
     30  0.679757D-02  0.000000D+00  0.000000D+00  0.000000D+00  0.681026D-03
     31 -0.328227D-02  0.000000D+00  0.000000D+00  0.000000D+00 -0.786562D-03
     32  0.282556D-02  0.000000D+00  0.000000D+00  0.000000D+00  0.954655D-03
     33  0.102024D-01  0.000000D+00  0.000000D+00  0.000000D+00 -0.604711D-03
     34 -0.211910D-02  0.000000D+00  0.000000D+00  0.000000D+00  0.000000D+00
     35  0.158937D-02  0.000000D+00  0.000000D+00  0.000000D+00  0.000000D+00
     36 -0.307040D-04  0.000000D+00  0.000000D+00  0.000000D+00  0.000000D+00
               11            12            13            14            15 
     11  0.219975D+00
     12 -0.225203D+00  0.438428D+00
     13  0.453749D-02  0.750595D-03  0.951702D+00
     14 -0.769500D-03 -0.709588D-03  0.135229D+00  0.105994D+01
     15  0.262996D-01  0.169475D-01  0.218101D+00  0.249735D+00  0.136049D+01
     16  0.776317D-04 -0.891879D-04 -0.594505D+00  0.858032D-01 -0.127200D+00
     17  0.236926D-04 -0.272195D-04  0.753950D-01 -0.981022D-01  0.263496D-01
     18 -0.347398D-03  0.399111D-03 -0.112407D+00  0.249759D-01 -0.109767D+00
     19 -0.410082D-03  0.471126D-03 -0.160381D+00 -0.154797D+00 -0.227141D+00
     20 -0.489330D-04  0.562172D-04 -0.160134D+00 -0.396477D+00 -0.433053D+00
     21  0.186190D-03 -0.213906D-03 -0.230556D+00 -0.422642D+00 -0.697345D+00
     22  0.335241D-03 -0.385145D-03 -0.132772D+00 -0.847440D-01  0.122703D+00
     23  0.262391D-04 -0.301450D-04 -0.903709D-01 -0.191596D+00  0.164528D+00
     24  0.145541D-03 -0.167206D-03  0.144185D+00  0.181778D+00 -0.429497D+00
     25  0.185207D-03 -0.132695D-03 -0.120244D-02 -0.122447D-03  0.909079D-04
     26  0.135605D-04 -0.971565D-05 -0.880404D-04 -0.896534D-05  0.665609D-05
     27 -0.106005D-04  0.759494D-05  0.688231D-04  0.700840D-05 -0.520322D-05
     28 -0.768801D-04  0.550822D-04  0.499138D-03  0.508283D-04 -0.377362D-04
     29 -0.144412D-03  0.103466D-03  0.937582D-03  0.954760D-04 -0.708838D-04
     30  0.934809D-04 -0.669762D-04 -0.606918D-03 -0.618038D-04  0.458847D-04
     31 -0.107967D-03  0.773553D-04  0.700970D-03  0.713813D-04 -0.529953D-04
     32  0.131041D-03 -0.938865D-04 -0.850772D-03 -0.866358D-04  0.643206D-04
     33 -0.830056D-04  0.594710D-04  0.538908D-03  0.548781D-04 -0.407429D-04
     34  0.000000D+00  0.000000D+00  0.160712D-01  0.440030D-02  0.856921D-02
     35  0.000000D+00  0.000000D+00  0.466326D-02  0.193374D-01  0.116368D-01
     36  0.000000D+00  0.000000D+00 -0.597937D-02 -0.834870D-02 -0.658860D-02
               16            17            18            19            20 
     16  0.654952D+00
     17 -0.379522D-01  0.160834D+00
     18  0.796092D-01 -0.941140D-01  0.179547D+00
     19  0.233856D-02 -0.175167D-01 -0.221749D-01  0.143788D+00
     20 -0.642427D-03  0.118375D-01  0.106044D-01  0.161808D+00  0.372600D+00
     21 -0.418346D-03 -0.177204D-02  0.815847D-03  0.235538D+00  0.436716D+00
     22 -0.685244D-02 -0.184733D-01  0.201416D-01  0.106461D-02  0.120273D-01
     23  0.156018D-02  0.435519D-02 -0.449008D-02  0.146822D-01  0.118799D-01
     24 -0.191271D-02 -0.508085D-02  0.567064D-02  0.785863D-02  0.107635D-01
     25  0.000000D+00  0.000000D+00  0.000000D+00  0.000000D+00  0.000000D+00
     26  0.000000D+00  0.000000D+00  0.000000D+00  0.000000D+00  0.000000D+00
     27  0.000000D+00  0.000000D+00  0.000000D+00  0.000000D+00  0.000000D+00
     28  0.000000D+00  0.000000D+00  0.000000D+00  0.000000D+00  0.000000D+00
     29  0.000000D+00  0.000000D+00  0.000000D+00  0.000000D+00  0.000000D+00
     30  0.000000D+00  0.000000D+00  0.000000D+00  0.000000D+00  0.000000D+00
     31  0.000000D+00  0.000000D+00  0.000000D+00  0.000000D+00  0.000000D+00
     32  0.000000D+00  0.000000D+00  0.000000D+00  0.000000D+00  0.000000D+00
     33  0.000000D+00  0.000000D+00  0.000000D+00  0.000000D+00  0.000000D+00
     34  0.128468D-03  0.479599D-02  0.248055D-02  0.520795D-02 -0.330737D-02
     35 -0.963537D-04 -0.359708D-02 -0.186046D-02 -0.390605D-02  0.248059D-02
     36  0.186139D-05  0.694897D-04  0.359410D-04  0.754585D-04 -0.479209D-04
               21            22            23            24            25 
     21  0.691674D+00
     22 -0.879289D-02  0.211801D+00
     23 -0.137382D-01  0.137904D+00  0.293240D+00
     24 -0.104290D-01 -0.328184D-01 -0.281104D-01  0.864812D+00
     25  0.000000D+00  0.000000D+00  0.000000D+00  0.000000D+00  0.597268D-01
     26  0.000000D+00  0.000000D+00  0.000000D+00  0.000000D+00 -0.260597D-01
     27  0.000000D+00  0.000000D+00  0.000000D+00  0.000000D+00  0.375392D-01
     28  0.000000D+00  0.000000D+00  0.000000D+00  0.000000D+00  0.413861D-02
     29  0.000000D+00  0.000000D+00  0.000000D+00  0.000000D+00  0.145980D-01
     30  0.000000D+00  0.000000D+00  0.000000D+00  0.000000D+00 -0.288757D-01
     31  0.000000D+00  0.000000D+00  0.000000D+00  0.000000D+00  0.927756D-02
     32  0.000000D+00  0.000000D+00  0.000000D+00  0.000000D+00 -0.130840D-01
     33  0.000000D+00  0.000000D+00  0.000000D+00  0.000000D+00  0.271726D-01
     34  0.378778D-03 -0.860050D-01 -0.492907D-01 -0.115009D+00  0.000000D+00
     35 -0.284091D-03 -0.481056D-01 -0.117931D+00 -0.159926D+00  0.000000D+00
     36  0.548816D-05 -0.997270D-01 -0.140511D+00 -0.441272D+00  0.000000D+00
               26            27            28            29            30 
     26  0.226762D+00
     27 -0.236178D+00  0.409589D+00
     28 -0.188820D-02 -0.173855D-02  0.412907D+00
     29 -0.699438D-02 -0.636133D-02 -0.230922D+00  0.208948D+00
     30  0.143419D-01  0.129302D-01 -0.633553D-01  0.464501D-01  0.745681D-01
     31  0.595101D-02  0.308175D-02 -0.143846D-01 -0.212890D-01 -0.253377D-02
     32 -0.845078D-02 -0.438600D-02  0.161066D-01  0.238467D-01  0.280535D-02
     33  0.180685D-01  0.946379D-02  0.379741D-02  0.552028D-02  0.101771D-02
     34  0.000000D+00  0.000000D+00  0.000000D+00  0.000000D+00  0.000000D+00
     35  0.000000D+00  0.000000D+00  0.000000D+00  0.000000D+00  0.000000D+00
     36  0.000000D+00  0.000000D+00  0.000000D+00  0.000000D+00  0.000000D+00
               31            32            33            34            35 
     31  0.358761D+00
     32  0.262389D+00  0.287574D+00
     33  0.209485D-01  0.237691D-01  0.653990D-01
     34  0.000000D+00  0.000000D+00  0.000000D+00  0.694786D-01
     35  0.000000D+00  0.000000D+00  0.000000D+00  0.437838D-01  0.994238D-01
     36  0.000000D+00  0.000000D+00  0.000000D+00  0.105700D+00  0.148844D+00
               36 
     36  0.447850D+00
 Leave Link  716 at Fri May 23 05:15:57 2025, MaxMem=  3758096384 cpu:               0.0 elap:               0.0
 (Enter /apps/easybuild-2022/easybuild/software/Compiler/NVHPC/22.11-CUDA-11.7.0/Gaussian/g16c01-CUDA-11.7.0/g16/l103.exe)

 GradGradGradGradGradGradGradGradGradGradGradGradGradGradGradGradGradGrad
 Berny optimization.
 Search for a local minimum.
 Step number   1 out of a maximum of    2
 All quantities printed in internal units (Hartrees-Bohrs-Radians)
 Second derivative matrix not updated -- first step.
 ITU=  0
     Eigenvalues ---    0.00264   0.00496   0.00858   0.01348   0.01671
     Eigenvalues ---    0.03391   0.04136   0.05178   0.06165   0.06827
     Eigenvalues ---    0.08224   0.11153   0.11842   0.12952   0.13733
     Eigenvalues ---    0.15059   0.21115   0.22202   0.27527   0.33003
     Eigenvalues ---    0.40387   0.70720   0.95563   1.17010   1.35961
     Eigenvalues ---    1.40346   1.44922   1.47641   1.63973   2.52158
 Quadratic step=7.766D-01 exceeds max=3.000D-01 adjusted using Lamda=-2.668D-01.
 Angle between NR and scaled steps=  43.39 degrees.
 Angle between quadratic step and forces=  26.51 degrees.
 Linear search not attempted -- first point.
 B after Tr=    -0.000376    0.000919   -0.002338
         Rot=    1.000000   -0.000019    0.000167    0.000261 Ang=  -0.04 deg.
 Variable       Old X    -DE/DX   Delta X   Delta X   Delta X     New X
                                 (Linear)    (Quad)   (Total)
    X1        3.50855   0.00674   0.00000   0.00428   0.00389   3.51244
    Y1       -1.48485   0.01607   0.00000   0.01623   0.01540  -1.46945
    Z1       -2.28385   0.04771   0.00000   0.01719   0.01596  -2.26788
    X2        3.53302  -0.00385   0.00000   0.01752   0.01716   3.55018
    Y2        0.04899   0.09120   0.00000   0.06359   0.06265   0.11164
    Z2        0.10579  -0.01295   0.00000   0.01892   0.01777   0.12357
    X3       -1.30670   0.05504   0.00000   0.09075   0.09078  -1.21592
    Y3        1.64018   0.06889   0.00000   0.11348   0.11498   1.75516
    Z3        1.62078  -0.07192   0.00000  -0.11742  -0.12010   1.50068
    X4        3.92130   0.00626   0.00000   0.01197   0.01018   3.93148
    Y4       -1.27172  -0.02107   0.00000  -0.00282  -0.00403  -1.27575
    Z4        2.21055   0.03360   0.00000   0.03978   0.03870   2.24925
    X5        3.22548   0.06331   0.00000   0.00438   0.00554   3.23103
    Y5        3.17636  -0.06136   0.00000  -0.05069  -0.05146   3.12490
    Z5        0.25036   0.05537   0.00000   0.02597   0.02482   0.27518
    X6        0.39608  -0.11663   0.00000  -0.11121  -0.10969   0.28639
    Y6        3.56545  -0.05554   0.00000  -0.08569  -0.08491   3.48054
    Z6       -0.35538   0.06422   0.00000   0.11349   0.11138  -0.24400
    X7        4.00821  -0.01201   0.00000  -0.00635  -0.00510   4.00311
    Y7        4.65069  -0.02257   0.00000  -0.03060  -0.03186   4.61883
    Z7        2.36178  -0.03233   0.00000  -0.02119  -0.02201   2.33976
    X8        4.20969   0.00775   0.00000  -0.01055  -0.00787   4.20182
    Y8        4.44041   0.00995   0.00000  -0.00214  -0.00332   4.43708
    Z8       -2.24457  -0.02171   0.00000  -0.00431  -0.00508  -2.24964
    X9        3.28532  -0.00561   0.00000  -0.00715  -0.00606   3.27925
    Y9       -0.06059   0.03597   0.00000   0.04237   0.04175  -0.01884
    Z9       -4.36213  -0.05248   0.00000  -0.05784  -0.05908  -4.42121
   X10        5.60036   0.03982   0.00000   0.04629   0.04531   5.64566
   Y10       -2.85169  -0.02608   0.00000  -0.02381  -0.02573  -2.87742
   Z10       -2.67504  -0.00744   0.00000  -0.00312  -0.00368  -2.67872
   X11        1.61667  -0.04116   0.00000  -0.04253  -0.04375   1.57293
   Y11       -3.13897  -0.03591   0.00000  -0.03313  -0.03294  -3.17191
   Z11       -2.43439  -0.00328   0.00000   0.00677   0.00484  -2.42954
   X12        3.76840   0.00033   0.00000  -0.00332  -0.00040   3.76801
   Y12        3.81978   0.00046   0.00000   0.00037  -0.00053   3.81925
   Z12       -3.91466   0.00122   0.00000  -0.00260  -0.00354  -3.91820
         Item               Value     Threshold  Converged?
 Maximum Force            0.116629     0.000450     NO 
 RMS     Force            0.043784     0.000300     NO 
 Maximum Displacement     0.120096     0.001800     NO 
 RMS     Displacement     0.050041     0.001200     NO 
 Predicted change in Energy=-4.733818D-02
 GradGradGradGradGradGradGradGradGradGradGradGradGradGradGradGradGradGrad

 Leave Link  103 at Fri May 23 05:15:57 2025, MaxMem=  3758096384 cpu:               0.0 elap:               0.0
 (Enter /apps/easybuild-2022/easybuild/software/Compiler/NVHPC/22.11-CUDA-11.7.0/Gaussian/g16c01-CUDA-11.7.0/g16/l9999.exe)
 Unable to Open any file for archive entry.
 1\1\GINC-SPARTAN-BM168\Force\RAM1\ZDO\C2H1F5O3S1\AKHALILOV\23-May-2025
 \0\\#P am1 Symm(None) scf(xqc) pop(None) force\\Gaussian input prepare
 d by ASE\\0,1\C,1.8566451195,-0.7857513912,-1.2085605969\C,1.869593580
 8,0.0259231611,0.0559836241\F,-0.6914760512,0.8679463015,0.857679835\F
 ,2.0750631448,-0.6729664805,1.1697704639\S,1.706851643,1.6808585078,0.
 1324833597\O,0.2095956121,1.8867546568,-0.1880609842\O,2.1210524582,2.
 4610396302,1.2497976668\O,2.2276702043,2.3497612396,-1.1877726622\F,1.
 738514282,-0.0320617138,-2.3083413455\F,2.9635810809,-1.5090495952,-1.
 4155696569\F,0.8555065667,-1.6610728597,-1.2882220235\H,1.9941523589,2
 .0213385434,-2.0715496803\\Version=ES64L-G16RevC.01\HF=0.6444952\RMSD=
 9.648e-10\RMSF=4.378e-02\Dipole=-0.4480251,0.8653583,-0.5462806\PG=Unk
 nown\\@
 The archive entry for this job was punched.


 FLOATING POINT NUMBERS ARE LIKE SANDPILES:
 EVERY TIME THAT YOU MOVE ONE, YOU LOSE A LITTLE SAND 
 AND YOU PICK UP A LITTLE DIRT.
 Job cpu time:       0 days  0 hours  0 minutes  0.9 seconds.
 Elapsed time:       0 days  0 hours  0 minutes  0.4 seconds.
 File lengths (MBytes):  RWF=      6 Int=      0 D2E=      0 Chk=      2 Scr=      1
 Normal termination of Gaussian 16 at Fri May 23 05:15:57 2025.
done
