 Entering Gaussian System, Link 0=g16
 Initial command:
 /apps/easybuild-2022/easybuild/software/Compiler/NVHPC/22.11-CUDA-11.7.0/Gaussian/g16c01-CUDA-11.7.0/g16/l1.exe "/tmp/Gau-6021.inp" -scrdir="/tmp/"
 Entering Link 1 = /apps/easybuild-2022/easybuild/software/Compiler/NVHPC/22.11-CUDA-11.7.0/Gaussian/g16c01-CUDA-11.7.0/g16/l1.exe PID=      6023.
  
 Copyright (c) 1988-2019, Gaussian, Inc.  All Rights Reserved.
  
 This is part of the Gaussian(R) 16 program.  It is based on
 the Gaussian(R) 09 system (copyright 2009, Gaussian, Inc.),
 the Gaussian(R) 03 system (copyright 2003, Gaussian, Inc.),
 the Gaussian(R) 98 system (copyright 1998, Gaussian, Inc.),
 the Gaussian(R) 94 system (copyright 1995, Gaussian, Inc.),
 the Gaussian 92(TM) system (copyright 1992, Gaussian, Inc.),
 the Gaussian 90(TM) system (copyright 1990, Gaussian, Inc.),
 the Gaussian 88(TM) system (copyright 1988, Gaussian, Inc.),
 the Gaussian 86(TM) system (copyright 1986, Carnegie Mellon
 University), and the Gaussian 82(TM) system (copyright 1983,
 Carnegie Mellon University). Gaussian is a federally registered
 trademark of Gaussian, Inc.
  
 This software contains proprietary and confidential information,
 including trade secrets, belonging to Gaussian, Inc.
  
 This software is provided under written license and may be
 used, copied, transmitted, or stored only in accord with that
 written license.
  
 The following legend is applicable only to US Government
 contracts under FAR:
  
                    RESTRICTED RIGHTS LEGEND
  
 Use, reproduction and disclosure by the US Government is
 subject to restrictions as set forth in subparagraphs (a)
 and (c) of the Commercial Computer Software - Restricted
 Rights clause in FAR 52.227-19.
  
 Gaussian, Inc.
 340 Quinnipiac St., Bldg. 40, Wallingford CT 06492
  
  
 ---------------------------------------------------------------
 Warning -- This program may not be used in any manner that
 competes with the business of Gaussian, Inc. or will provide
 assistance to any competitor of Gaussian, Inc.  The licensee
 of this program is prohibited from giving any competitor of
 Gaussian, Inc. access to this program.  By using this program,
 the user acknowledges that Gaussian, Inc. is engaged in the
 business of creating and licensing software in the field of
 computational chemistry and represents and warrants to the
 licensee that it is not a competitor of Gaussian, Inc. and that
 it will not use this program in any manner prohibited above.
 ---------------------------------------------------------------
  

 Cite this work as:
 Gaussian 16, Revision C.01,
 M. J. Frisch, G. W. Trucks, H. B. Schlegel, G. E. Scuseria, 
 M. A. Robb, J. R. Cheeseman, G. Scalmani, V. Barone, 
 G. A. Petersson, H. Nakatsuji, X. Li, M. Caricato, A. V. Marenich, 
 J. Bloino, B. G. Janesko, R. Gomperts, B. Mennucci, H. P. Hratchian, 
 J. V. Ortiz, A. F. Izmaylov, J. L. Sonnenberg, D. Williams-Young, 
 F. Ding, F. Lipparini, F. Egidi, J. Goings, B. Peng, A. Petrone, 
 T. Henderson, D. Ranasinghe, V. G. Zakrzewski, J. Gao, N. Rega, 
 G. Zheng, W. Liang, M. Hada, M. Ehara, K. Toyota, R. Fukuda, 
 J. Hasegawa, M. Ishida, T. Nakajima, Y. Honda, O. Kitao, H. Nakai, 
 T. Vreven, K. Throssell, J. A. Montgomery, Jr., J. E. Peralta, 
 F. Ogliaro, M. J. Bearpark, J. J. Heyd, E. N. Brothers, K. N. Kudin, 
 V. N. Staroverov, T. A. Keith, R. Kobayashi, J. Normand, 
 K. Raghavachari, A. P. Rendell, J. C. Burant, S. S. Iyengar, 
 J. Tomasi, M. Cossi, J. M. Millam, M. Klene, C. Adamo, R. Cammi, 
 J. W. Ochterski, R. L. Martin, K. Morokuma, O. Farkas, 
 J. B. Foresman, and D. J. Fox, Gaussian, Inc., Wallingford CT, 2019.
 
 ******************************************
 Gaussian 16:  ES64L-G16RevC.01  3-Jul-2019
                23-May-2025 
 ******************************************
 %mem=28GB
 %nprocshared=8
 Will use up to    8 processors via shared memory.
 ----------------------------------------------------------------------
 #P wb97xd/6-311++G(d,p) Symm(None) scf(xqc) pop(None) opt(NoFreeze,TS,
 CalcAll,NoEigentest,MaxCycle=999)
 ----------------------------------------------------------------------
 1/5=1,6=999,10=4,11=1,18=20,26=3,29=2000,38=1/1,3;
 2/9=110,12=2,15=3,17=6,18=5,40=1/2;
 3/5=4,6=6,7=1111,11=2,25=1,30=1,71=2,74=-58,140=1/1,2,3;
 4//1;
 5/5=2,8=3,13=1,38=5/2,8;
 8/6=4,10=90,11=11/1;
 11/6=1,8=1,9=11,15=111,16=1,31=1/1,2,10;
 10/6=1,31=1/2;
 7/10=1,25=1,30=1/1,2,3,16;
 1/5=1,6=999,10=4,11=1,18=20,26=3/3(3);
 2/9=110,15=3/2;
 7/8=1,9=1,25=1,30=1,44=-1/16;
 99//99;
 2/9=110,15=3/2;
 3/5=4,6=6,7=1111,11=2,25=1,30=1,71=2,74=-58,140=1/1,2,3;
 4/5=5,16=3,69=1/1;
 5/5=2,8=3,13=1,38=5/2,8;
 8/6=4,10=90,11=11/1;
 11/6=1,8=1,9=11,15=111,16=1,31=1/1,2,10;
 10/6=1,31=1/2;
 7/10=1,25=1,30=1/1,2,3,16;
 1/5=1,6=999,10=4,11=1,18=20,26=3/3(-8);
 2/9=110,15=3/2;
 7/8=1,9=1,25=1,30=1,44=-1/16;
 99//99;
 Leave Link    1 at Fri May 23 05:23:06 2025, MaxMem=  3758096384 cpu:               0.0 elap:               0.0
 (Enter /apps/easybuild-2022/easybuild/software/Compiler/NVHPC/22.11-CUDA-11.7.0/Gaussian/g16c01-CUDA-11.7.0/g16/l101.exe)
 ------------------------------
 Gaussian input prepared by ASE
 ------------------------------
 Symbolic Z-matrix:
 Charge =  0 Multiplicity = 1
 C                     3.97667   2.1222    1.78371 
 C                     3.23153   0.84295   1.30164 
 F                     4.09089  -0.04589   0.82936 
 F                     2.63412   0.23798   2.31169 
 S                     1.97628   1.20685  -0.12225 
 O                    -0.31192   1.08329   0.16911 
 O                     2.43736   2.37431  -0.85768 
 O                     1.22673  -0.00428  -0.56856 
 F                     4.66666   2.71492   0.82587 
 F                     3.14412   3.03507   2.27493 
 F                     4.84581   1.86112   2.75314 
 H                    -0.67135   1.17224   1.06758 
 
 Add virtual bond connecting atoms O8         and O6         Dist= 3.82D+00.
 ITRead=  0  0  0  0  0  0  0  0  0  0  0  0
 MicOpt= -1 -1 -1 -1 -1 -1 -1 -1 -1 -1 -1 -1
 NAtoms=     12 NQM=       12 NQMF=       0 NMMI=      0 NMMIF=      0
                NMic=       0 NMicF=      0.
                    Isotopes and Nuclear Properties:
 (Nuclear quadrupole moments (NQMom) in fm**2, nuclear magnetic moments (NMagM)
  in nuclear magnetons)

  Atom         1           2           3           4           5           6           7           8           9          10
 IAtWgt=          12          12          19          19          32          16          16          16          19          19
 AtmWgt=  12.0000000  12.0000000  18.9984032  18.9984032  31.9720718  15.9949146  15.9949146  15.9949146  18.9984032  18.9984032
 NucSpn=           0           0           1           1           0           0           0           0           1           1
 AtZEff=  -0.0000000  -0.0000000  -0.0000000  -0.0000000  -0.0000000  -0.0000000  -0.0000000  -0.0000000  -0.0000000  -0.0000000
 NQMom=    0.0000000   0.0000000   0.0000000   0.0000000   0.0000000   0.0000000   0.0000000   0.0000000   0.0000000   0.0000000
 NMagM=    0.0000000   0.0000000   2.6288670   2.6288670   0.0000000   0.0000000   0.0000000   0.0000000   2.6288670   2.6288670
 AtZNuc=   6.0000000   6.0000000   9.0000000   9.0000000  16.0000000   8.0000000   8.0000000   8.0000000   9.0000000   9.0000000

  Atom        11          12
 IAtWgt=          19           1
 AtmWgt=  18.9984032   1.0078250
 NucSpn=           1           1
 AtZEff=  -0.0000000  -0.0000000
 NQMom=    0.0000000   0.0000000
 NMagM=    2.6288670   2.7928460
 AtZNuc=   9.0000000   1.0000000
 Leave Link  101 at Fri May 23 05:23:07 2025, MaxMem=  3758096384 cpu:               0.2 elap:               0.2
 (Enter /apps/easybuild-2022/easybuild/software/Compiler/NVHPC/22.11-CUDA-11.7.0/Gaussian/g16c01-CUDA-11.7.0/g16/l103.exe)

 GradGradGradGradGradGradGradGradGradGradGradGradGradGradGradGradGradGrad
 Berny optimization.
 Initialization pass.
                           ----------------------------
                           !    Initial Parameters    !
                           ! (Angstroms and Degrees)  !
 --------------------------                            --------------------------
 ! Name  Definition              Value          Derivative Info.                !
 --------------------------------------------------------------------------------
 ! R1    R(1,2)                  1.557          calculate D2E/DX2 analytically  !
 ! R2    R(1,9)                  1.3209         calculate D2E/DX2 analytically  !
 ! R3    R(1,10)                 1.3296         calculate D2E/DX2 analytically  !
 ! R4    R(1,11)                 1.3279         calculate D2E/DX2 analytically  !
 ! R5    R(2,3)                  1.3235         calculate D2E/DX2 analytically  !
 ! R6    R(2,4)                  1.3203         calculate D2E/DX2 analytically  !
 ! R7    R(2,5)                  1.9328         calculate D2E/DX2 analytically  !
 ! R8    R(5,7)                  1.4548         calculate D2E/DX2 analytically  !
 ! R9    R(5,8)                  1.4926         calculate D2E/DX2 analytically  !
 ! R10   R(6,8)                  2.0235         calculate D2E/DX2 analytically  !
 ! R11   R(6,12)                 0.9718         calculate D2E/DX2 analytically  !
 ! A1    A(2,1,9)              113.2131         calculate D2E/DX2 analytically  !
 ! A2    A(2,1,10)             112.2615         calculate D2E/DX2 analytically  !
 ! A3    A(2,1,11)             112.1938         calculate D2E/DX2 analytically  !
 ! A4    A(9,1,10)             106.6731         calculate D2E/DX2 analytically  !
 ! A5    A(9,1,11)             106.0041         calculate D2E/DX2 analytically  !
 ! A6    A(10,1,11)            105.9686         calculate D2E/DX2 analytically  !
 ! A7    A(1,2,3)              110.5815         calculate D2E/DX2 analytically  !
 ! A8    A(1,2,4)              110.8656         calculate D2E/DX2 analytically  !
 ! A9    A(1,2,5)              112.5961         calculate D2E/DX2 analytically  !
 ! A10   A(3,2,4)              105.0154         calculate D2E/DX2 analytically  !
 ! A11   A(3,2,5)              106.5743         calculate D2E/DX2 analytically  !
 ! A12   A(4,2,5)              110.8554         calculate D2E/DX2 analytically  !
 ! A13   A(2,5,7)              108.5229         calculate D2E/DX2 analytically  !
 ! A14   A(2,5,8)              113.1824         calculate D2E/DX2 analytically  !
 ! A15   A(7,5,8)              131.2359         calculate D2E/DX2 analytically  !
 ! A16   A(8,6,12)             131.8753         calculate D2E/DX2 analytically  !
 ! A17   A(5,8,6)               80.603          calculate D2E/DX2 analytically  !
 ! D1    D(9,1,2,3)             59.6187         calculate D2E/DX2 analytically  !
 ! D2    D(9,1,2,4)            175.6778         calculate D2E/DX2 analytically  !
 ! D3    D(9,1,2,5)            -59.4803         calculate D2E/DX2 analytically  !
 ! D4    D(10,1,2,3)          -179.5253         calculate D2E/DX2 analytically  !
 ! D5    D(10,1,2,4)           -63.4662         calculate D2E/DX2 analytically  !
 ! D6    D(10,1,2,5)            61.3757         calculate D2E/DX2 analytically  !
 ! D7    D(11,1,2,3)           -60.3126         calculate D2E/DX2 analytically  !
 ! D8    D(11,1,2,4)            55.7465         calculate D2E/DX2 analytically  !
 ! D9    D(11,1,2,5)          -179.4116         calculate D2E/DX2 analytically  !
 ! D10   D(1,2,5,7)             27.4879         calculate D2E/DX2 analytically  !
 ! D11   D(1,2,5,8)           -178.3919         calculate D2E/DX2 analytically  !
 ! D12   D(3,2,5,7)            -93.9208         calculate D2E/DX2 analytically  !
 ! D13   D(3,2,5,8)             60.1994         calculate D2E/DX2 analytically  !
 ! D14   D(4,2,5,7)            152.3353         calculate D2E/DX2 analytically  !
 ! D15   D(4,2,5,8)            -53.5445         calculate D2E/DX2 analytically  !
 ! D16   D(2,5,8,6)            115.5214         calculate D2E/DX2 analytically  !
 ! D17   D(7,5,8,6)            -97.8704         calculate D2E/DX2 analytically  !
 ! D18   D(12,6,8,5)           -85.6276         calculate D2E/DX2 analytically  !
 --------------------------------------------------------------------------------
 Trust Radius=3.00D-01 FncErr=1.00D-07 GrdErr=1.00D-06 EigMax=2.50D+02 EigMin=1.00D-04
 Number of steps in this run=    100 maximum allowed number of steps=    100.
 Search for a saddle point of order  1.
 GradGradGradGradGradGradGradGradGradGradGradGradGradGradGradGradGradGrad

 Leave Link  103 at Fri May 23 05:23:07 2025, MaxMem=  3758096384 cpu:               0.0 elap:               0.0
 (Enter /apps/easybuild-2022/easybuild/software/Compiler/NVHPC/22.11-CUDA-11.7.0/Gaussian/g16c01-CUDA-11.7.0/g16/l202.exe)
                          Input orientation:                          
 ---------------------------------------------------------------------
 Center     Atomic      Atomic             Coordinates (Angstroms)
 Number     Number       Type             X           Y           Z
 ---------------------------------------------------------------------
      1          6           0        3.976671    2.122201    1.783712
      2          6           0        3.231530    0.842950    1.301643
      3          9           0        4.090887   -0.045887    0.829363
      4          9           0        2.634117    0.237979    2.311693
      5         16           0        1.976282    1.206849   -0.122250
      6          8           0       -0.311916    1.083288    0.169114
      7          8           0        2.437356    2.374308   -0.857680
      8          8           0        1.226732   -0.004280   -0.568560
      9          9           0        4.666661    2.714917    0.825870
     10          9           0        3.144117    3.035070    2.274934
     11          9           0        4.845808    1.861125    2.753142
     12          1           0       -0.671348    1.172242    1.067575
 ---------------------------------------------------------------------
                    Distance matrix (angstroms):
                    1          2          3          4          5
     1  C    0.000000
     2  C    1.556955   0.000000
     3  F    2.371589   1.323471   0.000000
     4  F    2.373080   1.320263   2.097632   0.000000
     5  S    2.910690   1.932754   2.635616   2.701025   0.000000
     6  O    4.698749   3.727786   4.592999   3.739559   2.309980
     7  O    3.067573   2.763774   3.381956   3.827211   1.454788
     8  O    4.197293   2.869612   3.187367   3.214853   1.492598
     9  F    1.320931   2.406288   2.820207   3.531873   3.226661
    10  F    1.329577   2.400068   3.532470   2.843443   3.233067
    11  F    1.327913   2.397795   2.812032   2.778678   4.114624
    12  H    4.797849   3.923733   4.921328   3.653324   2.902900
                    6          7          8          9         10
     6  O    0.000000
     7  O    3.206171   0.000000
     8  O    2.023463   2.684563   0.000000
     9  F    5.280129   2.814278   4.601258   0.000000
    10  F    4.493117   3.278626   4.582518   2.126129   0.000000
    11  F    5.821026   4.370588   5.254631   2.115522   2.121928
    12  H    0.971770   3.849105   2.768366   5.561709   4.414252
                   11         12
    11  F    0.000000
    12  H    5.809880   0.000000
 Symmetry turned off by external request.
 Stoichiometry    C2HF5O3S
 Rotational constants (GHZ):           1.5698905           0.6911836           0.6459893
 Leave Link  202 at Fri May 23 05:23:07 2025, MaxMem=  3758096384 cpu:               0.0 elap:               0.0
 (Enter /apps/easybuild-2022/easybuild/software/Compiler/NVHPC/22.11-CUDA-11.7.0/Gaussian/g16c01-CUDA-11.7.0/g16/l301.exe)
 Standard basis: 6-311++G(d,p) (5D, 7F)
 Ernie: Thresh=  0.10000D-02 Tol=  0.10000D-05 Strict=F.
   257 basis functions,   419 primitive gaussians,   268 cartesian basis functions
    49 alpha electrons       49 beta electrons
       nuclear repulsion energy       878.3858956418 Hartrees.
 IExCor= 4639 DFT=T Ex+Corr=wB97XD ExCW=0 ScaHFX=  1.000000
 ScaDFX=  1.000000  1.000000  1.000000  1.000000 ScalE2=  1.000000  1.000000
 IRadAn=      5 IRanWt=     -1 IRanGd=            0 ICorTp=0 IEmpDi=121
 HFx  wShort=  0.000000 wLong=  0.200000 cFull=  0.222036 cShort=  0.000000 cLong=  0.777964
 DFx  wShort=  0.000000 wLong=  0.200000 cFull=  0.000000 cShort=  0.000000 cLong=  1.000000
 NAtoms=   12 NActive=   12 NUniq=   12 SFac= 1.00D+00 NAtFMM=   60 NAOKFM=F Big=F
 Integral buffers will be    131072 words long.
 Raffenetti 2 integral format.
 Two-electron integral symmetry is turned off.
 R6Disp:  Grimme-D2 Dispersion energy=       -0.0051211642 Hartrees.
 Nuclear repulsion after empirical dispersion term =      878.3807744776 Hartrees.
 Leave Link  301 at Fri May 23 05:23:07 2025, MaxMem=  3758096384 cpu:               0.0 elap:               0.0
 (Enter /apps/easybuild-2022/easybuild/software/Compiler/NVHPC/22.11-CUDA-11.7.0/Gaussian/g16c01-CUDA-11.7.0/g16/l302.exe)
 NPDir=0 NMtPBC=     1 NCelOv=     1 NCel=       1 NClECP=     1 NCelD=      1
         NCelK=      1 NCelE2=     1 NClLst=     1 CellRange=     0.0.
 One-electron integrals computed using PRISM.
 NBasis=   257 RedAO= T EigKep=  7.53D-05  NBF=   257
 NBsUse=   257 1.00D-06 EigRej= -1.00D+00 NBFU=   257
 Precomputing XC quadrature grid using
 IXCGrd= 4 IRadAn=           5 IRanWt=          -1 IRanGd=           0 AccXCQ= 0.00D+00.
 Generated NRdTot=       0 NPtTot=           0 NUsed=           0 NTot=          32
 NSgBfM=   268   268   268   268   268 MxSgAt=    12 MxSgA2=    12.
 Leave Link  302 at Fri May 23 05:23:07 2025, MaxMem=  3758096384 cpu:               0.5 elap:               0.1
 (Enter /apps/easybuild-2022/easybuild/software/Compiler/NVHPC/22.11-CUDA-11.7.0/Gaussian/g16c01-CUDA-11.7.0/g16/l303.exe)
 DipDrv:  MaxL=1.
 Leave Link  303 at Fri May 23 05:23:07 2025, MaxMem=  3758096384 cpu:               0.1 elap:               0.0
 (Enter /apps/easybuild-2022/easybuild/software/Compiler/NVHPC/22.11-CUDA-11.7.0/Gaussian/g16c01-CUDA-11.7.0/g16/l401.exe)
 ExpMin= 3.60D-02 ExpMax= 9.34D+04 ExpMxC= 3.17D+03 IAcc=3 IRadAn=         5 AccDes= 0.00D+00
 Harris functional with IExCor= 4639 and IRadAn=       5 diagonalized for initial guess.
 HarFok:  IExCor= 4639 AccDes= 0.00D+00 IRadAn=         5 IDoV= 1 UseB2=F ITyADJ=14
 ICtDFT=  3500011 ScaDFX=  1.000000  1.000000  1.000000  1.000000
 FoFCou: FMM=F IPFlag=           0 FMFlag=      100000 FMFlg1=           0
         NFxFlg=           0 DoJE=T BraDBF=F KetDBF=T FulRan=T
         wScrn=  0.000000 ICntrl=       500 IOpCl=  0 I1Cent=   200000004 NGrid=           0
         NMat0=    1 NMatS0=      1 NMatT0=    0 NMatD0=    1 NMtDS0=    0 NMtDT0=    0
 Symmetry not used in FoFCou.
 Harris En= -1167.06826285447    
 JPrj=0 DoOrth=F DoCkMO=F.
 Leave Link  401 at Fri May 23 05:23:07 2025, MaxMem=  3758096384 cpu:               2.3 elap:               0.3
 (Enter /apps/easybuild-2022/easybuild/software/Compiler/NVHPC/22.11-CUDA-11.7.0/Gaussian/g16c01-CUDA-11.7.0/g16/l502.exe)
 Keep R1 ints in memory in canonical form, NReq=1117474609.
 FoFCou: FMM=F IPFlag=           0 FMFlag=           0 FMFlg1=           0
         NFxFlg=           0 DoJE=F BraDBF=F KetDBF=F FulRan=T
         wScrn=  0.000000 ICntrl=       600 IOpCl=  0 I1Cent=           0 NGrid=           0
         NMat0=    1 NMatS0=  33153 NMatT0=    0 NMatD0=    1 NMtDS0=    0 NMtDT0=    0
 Symmetry not used in FoFCou.
 Two-electron integral symmetry not used.
 Closed shell SCF:
 Using DIIS extrapolation, IDIIS=  1040.
 NGot=  3758096384 LenX=  2658793876 LenY=  2658721611
 Requested convergence on RMS density matrix=1.00D-08 within  32 cycles.
 Requested convergence on MAX density matrix=1.00D-06.
 Requested convergence on             energy=1.00D-06.
 No special actions if energy rises.

 Cycle   1  Pass 1  IDiag  1:
 E= -1198.79306213999    
 DIIS: error= 9.39D-02 at cycle   1 NSaved=   1.
 NSaved= 1 IEnMin= 1 EnMin= -1198.79306213999     IErMin= 1 ErrMin= 9.39D-02
 ErrMax= 9.39D-02  0.00D+00 EMaxC= 1.00D-01 BMatC= 3.44D+00 BMatP= 3.44D+00
 IDIUse=3 WtCom= 6.07D-02 WtEn= 9.39D-01
 Coeff-Com:  0.100D+01
 Coeff-En:   0.100D+01
 Coeff:      0.100D+01
 Gap=     0.085 Goal=   None    Shift=    0.000
 GapD=    0.085 DampG=0.500 DampE=0.500 DampFc=0.2500 IDamp=-1.
 Damping current iteration by 2.50D-01
 RMSDP=1.35D-02 MaxDP=4.86D-01              OVMax= 8.38D-01

 Cycle   2  Pass 1  IDiag  1:
 E= -1198.92360866706     Delta-E=       -0.130546527069 Rises=F Damp=T
 DIIS: error= 6.79D-02 at cycle   2 NSaved=   2.
 NSaved= 2 IEnMin= 2 EnMin= -1198.92360866706     IErMin= 2 ErrMin= 6.79D-02
 ErrMax= 6.79D-02  0.00D+00 EMaxC= 1.00D-01 BMatC= 1.50D+00 BMatP= 3.44D+00
 IDIUse=3 WtCom= 3.21D-01 WtEn= 6.79D-01
 Coeff-Com: -0.107D+01 0.207D+01
 Coeff-En:   0.287D+00 0.713D+00
 Coeff:     -0.148D+00 0.115D+01
 Gap=     0.025 Goal=   None    Shift=    0.000
 RMSDP=5.61D-03 MaxDP=4.91D-01 DE=-1.31D-01 OVMax= 6.57D-01

 Cycle   3  Pass 1  IDiag  1:
 E= -1199.10429788962     Delta-E=       -0.180689222555 Rises=F Damp=F
 DIIS: error= 4.39D-02 at cycle   3 NSaved=   3.
 NSaved= 3 IEnMin= 3 EnMin= -1199.10429788962     IErMin= 3 ErrMin= 4.39D-02
 ErrMax= 4.39D-02  0.00D+00 EMaxC= 1.00D-01 BMatC= 7.25D-01 BMatP= 1.50D+00
 IDIUse=3 WtCom= 5.61D-01 WtEn= 4.39D-01
 Coeff-Com: -0.581D+00 0.106D+01 0.517D+00
 Coeff-En:   0.000D+00 0.382D+00 0.618D+00
 Coeff:     -0.326D+00 0.765D+00 0.561D+00
 Gap=     0.287 Goal=   None    Shift=    0.000
 RMSDP=4.05D-03 MaxDP=1.28D-01 DE=-1.81D-01 OVMax= 3.82D-01

 Cycle   4  Pass 1  IDiag  1:
 E= -1199.58740213185     Delta-E=       -0.483104242235 Rises=F Damp=F
 DIIS: error= 1.41D-02 at cycle   4 NSaved=   4.
 NSaved= 4 IEnMin= 4 EnMin= -1199.58740213185     IErMin= 4 ErrMin= 1.41D-02
 ErrMax= 1.41D-02  0.00D+00 EMaxC= 1.00D-01 BMatC= 8.12D-02 BMatP= 7.25D-01
 IDIUse=3 WtCom= 8.59D-01 WtEn= 1.41D-01
 Coeff-Com: -0.146D+00 0.248D+00 0.259D+00 0.639D+00
 Coeff-En:   0.000D+00 0.000D+00 0.236D-01 0.976D+00
 Coeff:     -0.125D+00 0.213D+00 0.225D+00 0.687D+00
 Gap=     0.204 Goal=   None    Shift=    0.000
 RMSDP=1.80D-03 MaxDP=7.17D-02 DE=-4.83D-01 OVMax= 8.05D-02

 Cycle   5  Pass 1  IDiag  1:
 E= -1199.61847217495     Delta-E=       -0.031070043105 Rises=F Damp=F
 DIIS: error= 1.17D-02 at cycle   5 NSaved=   5.
 NSaved= 5 IEnMin= 5 EnMin= -1199.61847217495     IErMin= 5 ErrMin= 1.17D-02
 ErrMax= 1.17D-02  0.00D+00 EMaxC= 1.00D-01 BMatC= 2.66D-02 BMatP= 8.12D-02
 IDIUse=3 WtCom= 8.83D-01 WtEn= 1.17D-01
 Coeff-Com: -0.694D-01 0.103D+00 0.828D-01 0.402D+00 0.481D+00
 Coeff-En:   0.000D+00 0.000D+00 0.000D+00 0.296D+00 0.704D+00
 Coeff:     -0.613D-01 0.912D-01 0.731D-01 0.390D+00 0.507D+00
 Gap=     0.201 Goal=   None    Shift=    0.000
 RMSDP=9.48D-04 MaxDP=3.12D-02 DE=-3.11D-02 OVMax= 6.52D-02

 Cycle   6  Pass 1  IDiag  1:
 E= -1199.63875289973     Delta-E=       -0.020280724780 Rises=F Damp=F
 DIIS: error= 3.07D-03 at cycle   6 NSaved=   6.
 NSaved= 6 IEnMin= 6 EnMin= -1199.63875289973     IErMin= 6 ErrMin= 3.07D-03
 ErrMax= 3.07D-03  0.00D+00 EMaxC= 1.00D-01 BMatC= 2.27D-03 BMatP= 2.66D-02
 IDIUse=3 WtCom= 9.69D-01 WtEn= 3.07D-02
 Coeff-Com: -0.897D-02 0.112D-01 0.712D-02 0.114D+00 0.290D+00 0.587D+00
 Coeff-En:   0.000D+00 0.000D+00 0.000D+00 0.000D+00 0.222D-02 0.998D+00
 Coeff:     -0.869D-02 0.109D-01 0.691D-02 0.110D+00 0.281D+00 0.600D+00
 Gap=     0.215 Goal=   None    Shift=    0.000
 RMSDP=3.29D-04 MaxDP=8.11D-03 DE=-2.03D-02 OVMax= 1.83D-02

 Cycle   7  Pass 1  IDiag  1:
 E= -1199.64030771688     Delta-E=       -0.001554817142 Rises=F Damp=F
 DIIS: error= 1.51D-03 at cycle   7 NSaved=   7.
 NSaved= 7 IEnMin= 7 EnMin= -1199.64030771688     IErMin= 7 ErrMin= 1.51D-03
 ErrMax= 1.51D-03  0.00D+00 EMaxC= 1.00D-01 BMatC= 5.98D-04 BMatP= 2.27D-03
 IDIUse=3 WtCom= 9.85D-01 WtEn= 1.51D-02
 Coeff-Com:  0.128D-01-0.184D-01-0.258D-02-0.858D-02 0.832D-01 0.350D+00
 Coeff-Com:  0.584D+00
 Coeff-En:   0.000D+00 0.000D+00 0.000D+00 0.000D+00 0.000D+00 0.000D+00
 Coeff-En:   0.100D+01
 Coeff:      0.127D-01-0.181D-01-0.255D-02-0.845D-02 0.820D-01 0.344D+00
 Coeff:      0.590D+00
 Gap=     0.222 Goal=   None    Shift=    0.000
 RMSDP=1.50D-04 MaxDP=4.59D-03 DE=-1.55D-03 OVMax= 7.98D-03

 Cycle   8  Pass 1  IDiag  1:
 E= -1199.64072024517     Delta-E=       -0.000412528293 Rises=F Damp=F
 DIIS: error= 6.79D-04 at cycle   8 NSaved=   8.
 NSaved= 8 IEnMin= 8 EnMin= -1199.64072024517     IErMin= 8 ErrMin= 6.79D-04
 ErrMax= 6.79D-04  0.00D+00 EMaxC= 1.00D-01 BMatC= 2.12D-04 BMatP= 5.98D-04
 IDIUse=3 WtCom= 9.93D-01 WtEn= 6.79D-03
 Coeff-Com:  0.160D-01-0.222D-01 0.178D-02-0.183D-01 0.107D-01 0.989D-01
 Coeff-Com:  0.266D+00 0.647D+00
 Coeff-En:   0.000D+00 0.000D+00 0.000D+00 0.000D+00 0.000D+00 0.000D+00
 Coeff-En:   0.000D+00 0.100D+01
 Coeff:      0.159D-01-0.221D-01 0.177D-02-0.182D-01 0.106D-01 0.983D-01
 Coeff:      0.264D+00 0.649D+00
 Gap=     0.225 Goal=   None    Shift=    0.000
 RMSDP=1.07D-04 MaxDP=4.37D-03 DE=-4.13D-04 OVMax= 5.29D-03

 Cycle   9  Pass 1  IDiag  1:
 E= -1199.64086304325     Delta-E=       -0.000142798083 Rises=F Damp=F
 DIIS: error= 7.67D-04 at cycle   9 NSaved=   9.
 NSaved= 9 IEnMin= 9 EnMin= -1199.64086304325     IErMin= 8 ErrMin= 6.79D-04
 ErrMax= 7.67D-04  0.00D+00 EMaxC= 1.00D-01 BMatC= 1.08D-04 BMatP= 2.12D-04
 IDIUse=3 WtCom= 9.93D-01 WtEn= 6.79D-03
 Coeff-Com:  0.110D-01-0.151D-01 0.423D-02 0.181D-02 0.598D-02-0.169D-01
 Coeff-Com: -0.148D+00 0.214D+00 0.943D+00
 Coeff-En:   0.000D+00 0.000D+00 0.000D+00 0.000D+00 0.000D+00 0.000D+00
 Coeff-En:   0.000D+00 0.000D+00 0.100D+01
 Coeff:      0.109D-01-0.150D-01 0.420D-02 0.180D-02 0.594D-02-0.168D-01
 Coeff:     -0.147D+00 0.212D+00 0.943D+00
 Gap=     0.226 Goal=   None    Shift=    0.000
 RMSDP=8.37D-05 MaxDP=2.74D-03 DE=-1.43D-04 OVMax= 6.24D-03

 Cycle  10  Pass 1  IDiag  1:
 E= -1199.64096143712     Delta-E=       -0.000098393864 Rises=F Damp=F
 DIIS: error= 3.99D-04 at cycle  10 NSaved=  10.
 NSaved=10 IEnMin=10 EnMin= -1199.64096143712     IErMin=10 ErrMin= 3.99D-04
 ErrMax= 3.99D-04  0.00D+00 EMaxC= 1.00D-01 BMatC= 3.15D-05 BMatP= 1.08D-04
 IDIUse=3 WtCom= 9.96D-01 WtEn= 3.99D-03
 Coeff-Com:  0.155D-02-0.214D-02 0.115D-02 0.864D-02 0.233D-01 0.249D-01
 Coeff-Com: -0.105D+00-0.273D+00 0.564D-01 0.126D+01
 Coeff-En:   0.000D+00 0.000D+00 0.000D+00 0.000D+00 0.000D+00 0.000D+00
 Coeff-En:   0.000D+00 0.000D+00 0.000D+00 0.100D+01
 Coeff:      0.155D-02-0.213D-02 0.115D-02 0.860D-02 0.232D-01 0.248D-01
 Coeff:     -0.104D+00-0.272D+00 0.562D-01 0.126D+01
 Gap=     0.226 Goal=   None    Shift=    0.000
 RMSDP=7.39D-05 MaxDP=2.41D-03 DE=-9.84D-05 OVMax= 5.95D-03

 Cycle  11  Pass 1  IDiag  1:
 E= -1199.64100808175     Delta-E=       -0.000046644629 Rises=F Damp=F
 DIIS: error= 7.13D-05 at cycle  11 NSaved=  11.
 NSaved=11 IEnMin=11 EnMin= -1199.64100808175     IErMin=11 ErrMin= 7.13D-05
 ErrMax= 7.13D-05  0.00D+00 EMaxC= 1.00D-01 BMatC= 1.17D-06 BMatP= 3.15D-05
 IDIUse=1 WtCom= 1.00D+00 WtEn= 0.00D+00
 Coeff-Com: -0.385D-04 0.424D-04-0.144D-03 0.117D-02 0.664D-02 0.816D-02
 Coeff-Com: -0.337D-03-0.843D-01-0.854D-01 0.291D+00 0.863D+00
 Coeff:     -0.385D-04 0.424D-04-0.144D-03 0.117D-02 0.664D-02 0.816D-02
 Coeff:     -0.337D-03-0.843D-01-0.854D-01 0.291D+00 0.863D+00
 Gap=     0.226 Goal=   None    Shift=    0.000
 RMSDP=2.45D-05 MaxDP=1.19D-03 DE=-4.66D-05 OVMax= 2.50D-03

 Cycle  12  Pass 1  IDiag  1:
 E= -1199.64101398683     Delta-E=       -0.000005905085 Rises=F Damp=F
 DIIS: error= 4.55D-05 at cycle  12 NSaved=  12.
 NSaved=12 IEnMin=12 EnMin= -1199.64101398683     IErMin=12 ErrMin= 4.55D-05
 ErrMax= 4.55D-05  0.00D+00 EMaxC= 1.00D-01 BMatC= 4.35D-07 BMatP= 1.17D-06
 IDIUse=1 WtCom= 1.00D+00 WtEn= 0.00D+00
 Coeff-Com: -0.301D-03 0.415D-03-0.274D-03-0.790D-03-0.847D-03-0.256D-02
 Coeff-Com:  0.214D-01 0.249D-02-0.280D-01-0.851D-01 0.277D+00 0.816D+00
 Coeff:     -0.301D-03 0.415D-03-0.274D-03-0.790D-03-0.847D-03-0.256D-02
 Coeff:      0.214D-01 0.249D-02-0.280D-01-0.851D-01 0.277D+00 0.816D+00
 Gap=     0.226 Goal=   None    Shift=    0.000
 RMSDP=1.68D-05 MaxDP=9.58D-04 DE=-5.91D-06 OVMax= 1.91D-03

 Cycle  13  Pass 1  IDiag  1:
 E= -1199.64101744047     Delta-E=       -0.000003453635 Rises=F Damp=F
 DIIS: error= 4.37D-05 at cycle  13 NSaved=  13.
 NSaved=13 IEnMin=13 EnMin= -1199.64101744047     IErMin=13 ErrMin= 4.37D-05
 ErrMax= 4.37D-05  0.00D+00 EMaxC= 1.00D-01 BMatC= 3.11D-07 BMatP= 4.35D-07
 IDIUse=1 WtCom= 1.00D+00 WtEn= 0.00D+00
 Coeff-Com: -0.240D-03 0.342D-03 0.112D-05-0.269D-03-0.364D-02-0.886D-02
 Coeff-Com:  0.639D-02 0.205D-01 0.731D-01-0.145D+00-0.469D+00-0.596D-01
 Coeff-Com:  0.159D+01
 Coeff:     -0.240D-03 0.342D-03 0.112D-05-0.269D-03-0.364D-02-0.886D-02
 Coeff:      0.639D-02 0.205D-01 0.731D-01-0.145D+00-0.469D+00-0.596D-01
 Coeff:      0.159D+01
 Gap=     0.226 Goal=   None    Shift=    0.000
 RMSDP=2.96D-05 MaxDP=1.61D-03 DE=-3.45D-06 OVMax= 3.61D-03

 Cycle  14  Pass 1  IDiag  1:
 E= -1199.64102240593     Delta-E=       -0.000004965464 Rises=F Damp=F
 DIIS: error= 2.17D-05 at cycle  14 NSaved=  14.
 NSaved=14 IEnMin=14 EnMin= -1199.64102240593     IErMin=14 ErrMin= 2.17D-05
 ErrMax= 2.17D-05  0.00D+00 EMaxC= 1.00D-01 BMatC= 1.42D-07 BMatP= 3.11D-07
 IDIUse=1 WtCom= 1.00D+00 WtEn= 0.00D+00
 Coeff-Com:  0.170D-03-0.235D-03 0.226D-03 0.854D-03-0.524D-03-0.443D-02
 Coeff-Com: -0.126D-01-0.130D-01 0.734D-01 0.199D-01-0.413D+00-0.773D+00
 Coeff-Com:  0.623D+00 0.150D+01
 Coeff:      0.170D-03-0.235D-03 0.226D-03 0.854D-03-0.524D-03-0.443D-02
 Coeff:     -0.126D-01-0.130D-01 0.734D-01 0.199D-01-0.413D+00-0.773D+00
 Coeff:      0.623D+00 0.150D+01
 Gap=     0.226 Goal=   None    Shift=    0.000
 RMSDP=3.87D-05 MaxDP=2.07D-03 DE=-4.97D-06 OVMax= 4.84D-03

 Cycle  15  Pass 1  IDiag  1:
 E= -1199.64102582857     Delta-E=       -0.000003422640 Rises=F Damp=F
 DIIS: error= 1.64D-05 at cycle  15 NSaved=  15.
 NSaved=15 IEnMin=15 EnMin= -1199.64102582857     IErMin=15 ErrMin= 1.64D-05
 ErrMax= 1.64D-05  0.00D+00 EMaxC= 1.00D-01 BMatC= 9.18D-08 BMatP= 1.42D-07
 IDIUse=1 WtCom= 1.00D+00 WtEn= 0.00D+00
 Coeff-Com:  0.179D-03-0.245D-03 0.709D-04 0.105D-03 0.101D-02 0.148D-02
 Coeff-Com:  0.209D-02-0.914D-02-0.180D-01 0.916D-02 0.842D-01-0.423D-01
 Coeff-Com: -0.297D+00 0.176D+00 0.109D+01
 Coeff:      0.179D-03-0.245D-03 0.709D-04 0.105D-03 0.101D-02 0.148D-02
 Coeff:      0.209D-02-0.914D-02-0.180D-01 0.916D-02 0.842D-01-0.423D-01
 Coeff:     -0.297D+00 0.176D+00 0.109D+01
 Gap=     0.226 Goal=   None    Shift=    0.000
 RMSDP=1.19D-05 MaxDP=5.54D-04 DE=-3.42D-06 OVMax= 1.48D-03

 Cycle  16  Pass 1  IDiag  1:
 E= -1199.64102624256     Delta-E=       -0.000000413986 Rises=F Damp=F
 DIIS: error= 8.14D-06 at cycle  16 NSaved=  16.
 NSaved=16 IEnMin=16 EnMin= -1199.64102624256     IErMin=16 ErrMin= 8.14D-06
 ErrMax= 8.14D-06  0.00D+00 EMaxC= 1.00D-01 BMatC= 2.26D-08 BMatP= 9.18D-08
 IDIUse=1 WtCom= 1.00D+00 WtEn= 0.00D+00
 Coeff-Com:  0.852D-04-0.117D-03 0.487D-05-0.148D-03 0.448D-03 0.153D-02
 Coeff-Com:  0.508D-02 0.101D-02-0.214D-01-0.160D-01 0.107D+00 0.155D+00
 Coeff-Com: -0.195D+00-0.258D+00 0.253D+00 0.968D+00
 Coeff:      0.852D-04-0.117D-03 0.487D-05-0.148D-03 0.448D-03 0.153D-02
 Coeff:      0.508D-02 0.101D-02-0.214D-01-0.160D-01 0.107D+00 0.155D+00
 Coeff:     -0.195D+00-0.258D+00 0.253D+00 0.968D+00
 Gap=     0.226 Goal=   None    Shift=    0.000
 RMSDP=3.80D-06 MaxDP=1.51D-04 DE=-4.14D-07 OVMax= 4.81D-04

 Cycle  17  Pass 1  IDiag  1:
 E= -1199.64102631529     Delta-E=       -0.000000072738 Rises=F Damp=F
 DIIS: error= 2.38D-06 at cycle  17 NSaved=  17.
 NSaved=17 IEnMin=17 EnMin= -1199.64102631529     IErMin=17 ErrMin= 2.38D-06
 ErrMax= 2.38D-06  0.00D+00 EMaxC= 1.00D-01 BMatC= 2.88D-09 BMatP= 2.26D-08
 IDIUse=1 WtCom= 1.00D+00 WtEn= 0.00D+00
 Coeff-Com:  0.102D-04-0.160D-04-0.153D-04-0.735D-04-0.187D-03 0.870D-04
 Coeff-Com:  0.157D-02 0.395D-02 0.129D-02-0.133D-01-0.247D-02 0.585D-01
 Coeff-Com:  0.582D-01-0.140D+00-0.345D+00 0.367D+00 0.101D+01
 Coeff:      0.102D-04-0.160D-04-0.153D-04-0.735D-04-0.187D-03 0.870D-04
 Coeff:      0.157D-02 0.395D-02 0.129D-02-0.133D-01-0.247D-02 0.585D-01
 Coeff:      0.582D-01-0.140D+00-0.345D+00 0.367D+00 0.101D+01
 Gap=     0.226 Goal=   None    Shift=    0.000
 RMSDP=2.13D-06 MaxDP=9.67D-05 DE=-7.27D-08 OVMax= 2.77D-04

 Cycle  18  Pass 1  IDiag  1:
 E= -1199.64102633153     Delta-E=       -0.000000016238 Rises=F Damp=F
 DIIS: error= 8.14D-07 at cycle  18 NSaved=  18.
 NSaved=18 IEnMin=18 EnMin= -1199.64102633153     IErMin=18 ErrMin= 8.14D-07
 ErrMax= 8.14D-07  0.00D+00 EMaxC= 1.00D-01 BMatC= 2.95D-10 BMatP= 2.88D-09
 IDIUse=1 WtCom= 1.00D+00 WtEn= 0.00D+00
 Coeff-Com: -0.459D-05 0.549D-05-0.103D-04-0.105D-04-0.739D-04-0.152D-03
 Coeff-Com: -0.354D-04 0.341D-03 0.269D-02-0.136D-03-0.850D-02-0.725D-02
 Coeff-Com:  0.231D-01-0.491D-03-0.762D-01-0.569D-01 0.176D+00 0.947D+00
 Coeff:     -0.459D-05 0.549D-05-0.103D-04-0.105D-04-0.739D-04-0.152D-03
 Coeff:     -0.354D-04 0.341D-03 0.269D-02-0.136D-03-0.850D-02-0.725D-02
 Coeff:      0.231D-01-0.491D-03-0.762D-01-0.569D-01 0.176D+00 0.947D+00
 Gap=     0.226 Goal=   None    Shift=    0.000
 RMSDP=6.76D-07 MaxDP=4.57D-05 DE=-1.62D-08 OVMax= 8.28D-05

 Cycle  19  Pass 1  IDiag  1:
 E= -1199.64102633259     Delta-E=       -0.000000001061 Rises=F Damp=F
 DIIS: error= 6.53D-07 at cycle  19 NSaved=  19.
 NSaved=19 IEnMin=19 EnMin= -1199.64102633259     IErMin=19 ErrMin= 6.53D-07
 ErrMax= 6.53D-07  0.00D+00 EMaxC= 1.00D-01 BMatC= 1.03D-10 BMatP= 2.95D-10
 IDIUse=1 WtCom= 1.00D+00 WtEn= 0.00D+00
 Coeff-Com: -0.368D-05 0.507D-05-0.193D-05 0.130D-05 0.580D-05-0.565D-04
 Coeff-Com: -0.661D-04-0.333D-03 0.515D-03 0.114D-02-0.329D-03-0.560D-02
 Coeff-Com: -0.471D-02 0.115D-01 0.276D-01-0.344D-01-0.627D-01 0.125D+00
 Coeff-Com:  0.943D+00
 Coeff:     -0.368D-05 0.507D-05-0.193D-05 0.130D-05 0.580D-05-0.565D-04
 Coeff:     -0.661D-04-0.333D-03 0.515D-03 0.114D-02-0.329D-03-0.560D-02
 Coeff:     -0.471D-02 0.115D-01 0.276D-01-0.344D-01-0.627D-01 0.125D+00
 Coeff:      0.943D+00
 Gap=     0.226 Goal=   None    Shift=    0.000
 RMSDP=1.03D-07 MaxDP=3.26D-06 DE=-1.06D-09 OVMax= 5.00D-06

 Cycle  20  Pass 1  IDiag  1:
 E= -1199.64102633265     Delta-E=       -0.000000000056 Rises=F Damp=F
 DIIS: error= 2.01D-07 at cycle  20 NSaved=  20.
 NSaved=20 IEnMin=20 EnMin= -1199.64102633265     IErMin=20 ErrMin= 2.01D-07
 ErrMax= 2.01D-07  0.00D+00 EMaxC= 1.00D-01 BMatC= 1.13D-11 BMatP= 1.03D-10
 IDIUse=1 WtCom= 1.00D+00 WtEn= 0.00D+00
 Coeff-Com: -0.802D-06 0.115D-05-0.452D-06-0.887D-06 0.119D-04 0.884D-05
 Coeff-Com:  0.175D-04-0.169D-03-0.277D-03 0.525D-03 0.182D-02 0.687D-03
 Coeff-Com: -0.575D-02 0.625D-03 0.173D-01 0.491D-03-0.371D-01-0.949D-01
 Coeff-Com:  0.223D+00 0.894D+00
 Coeff:     -0.802D-06 0.115D-05-0.452D-06-0.887D-06 0.119D-04 0.884D-05
 Coeff:      0.175D-04-0.169D-03-0.277D-03 0.525D-03 0.182D-02 0.687D-03
 Coeff:     -0.575D-02 0.625D-03 0.173D-01 0.491D-03-0.371D-01-0.949D-01
 Coeff:      0.223D+00 0.894D+00
 Gap=     0.226 Goal=   None    Shift=    0.000
 RMSDP=3.99D-08 MaxDP=2.26D-06 DE=-5.64D-11 OVMax= 2.24D-06

 Cycle  21  Pass 1  IDiag  1:
 E= -1199.64102633269     Delta-E=       -0.000000000045 Rises=F Damp=F
 DIIS: error= 5.17D-08 at cycle  21 NSaved=  20.
 NSaved=20 IEnMin=20 EnMin= -1199.64102633269     IErMin=20 ErrMin= 5.17D-08
 ErrMax= 5.17D-08  0.00D+00 EMaxC= 1.00D-01 BMatC= 9.31D-13 BMatP= 1.13D-11
 IDIUse=1 WtCom= 1.00D+00 WtEn= 0.00D+00
 Coeff-Com:  0.101D-07 0.152D-06-0.232D-06-0.764D-07 0.927D-05 0.167D-04
 Coeff-Com:  0.107D-04-0.116D-03-0.968D-04 0.463D-03 0.137D-02-0.279D-03
 Coeff-Com: -0.249D-02-0.220D-02 0.707D-02 0.716D-02-0.338D-01-0.143D+00
 Coeff-Com:  0.184D+00 0.982D+00
 Coeff:      0.101D-07 0.152D-06-0.232D-06-0.764D-07 0.927D-05 0.167D-04
 Coeff:      0.107D-04-0.116D-03-0.968D-04 0.463D-03 0.137D-02-0.279D-03
 Coeff:     -0.249D-02-0.220D-02 0.707D-02 0.716D-02-0.338D-01-0.143D+00
 Coeff:      0.184D+00 0.982D+00
 Gap=     0.226 Goal=   None    Shift=    0.000
 RMSDP=1.53D-08 MaxDP=6.60D-07 DE=-4.55D-11 OVMax= 7.11D-07

 Cycle  22  Pass 1  IDiag  1:
 E= -1199.64102633270     Delta-E=       -0.000000000009 Rises=F Damp=F
 DIIS: error= 1.08D-08 at cycle  22 NSaved=  20.
 NSaved=20 IEnMin=20 EnMin= -1199.64102633270     IErMin=20 ErrMin= 1.08D-08
 ErrMax= 1.08D-08  0.00D+00 EMaxC= 1.00D-01 BMatC= 2.24D-14 BMatP= 9.31D-13
 IDIUse=1 WtCom= 1.00D+00 WtEn= 0.00D+00
 Coeff-Com:  0.307D-07 0.118D-06-0.109D-05-0.926D-06-0.334D-06 0.762D-05
 Coeff-Com:  0.249D-04-0.416D-04-0.144D-03-0.156D-04 0.509D-03-0.200D-03
 Coeff-Com: -0.163D-02 0.202D-03 0.342D-02 0.660D-02-0.236D-01-0.621D-01
 Coeff-Com:  0.399D-01 0.104D+01
 Coeff:      0.307D-07 0.118D-06-0.109D-05-0.926D-06-0.334D-06 0.762D-05
 Coeff:      0.249D-04-0.416D-04-0.144D-03-0.156D-04 0.509D-03-0.200D-03
 Coeff:     -0.163D-02 0.202D-03 0.342D-02 0.660D-02-0.236D-01-0.621D-01
 Coeff:      0.399D-01 0.104D+01
 Gap=     0.226 Goal=   None    Shift=    0.000
 RMSDP=4.25D-09 MaxDP=1.43D-07 DE=-8.64D-12 OVMax= 3.71D-07

 SCF Done:  E(RwB97XD) =  -1199.64102633     A.U. after   22 cycles
            NFock= 22  Conv=0.43D-08     -V/T= 2.0021
 KE= 1.197134129539D+03 PE=-4.602793811050D+03 EE= 1.327637880701D+03
 Leave Link  502 at Fri May 23 05:23:25 2025, MaxMem=  3758096384 cpu:              83.5 elap:              17.8
 (Enter /apps/easybuild-2022/easybuild/software/Compiler/NVHPC/22.11-CUDA-11.7.0/Gaussian/g16c01-CUDA-11.7.0/g16/l508.exe)
 QCSCF skips out because SCF is already converged.
 Leave Link  508 at Fri May 23 05:23:25 2025, MaxMem=  3758096384 cpu:               0.0 elap:               0.0
 (Enter /apps/easybuild-2022/easybuild/software/Compiler/NVHPC/22.11-CUDA-11.7.0/Gaussian/g16c01-CUDA-11.7.0/g16/l801.exe)
 DoSCS=F DFT=T ScalE2(SS,OS)=  1.000000  1.000000
 Range of M.O.s used for correlation:     1   257
 NBasis=   257 NAE=    49 NBE=    49 NFC=     0 NFV=     0
 NROrb=    257 NOA=    49 NOB=    49 NVA=   208 NVB=   208

 **** Warning!!: The largest alpha MO coefficient is  0.33409931D+02

 Leave Link  801 at Fri May 23 05:23:25 2025, MaxMem=  3758096384 cpu:               0.0 elap:               0.0
 (Enter /apps/easybuild-2022/easybuild/software/Compiler/NVHPC/22.11-CUDA-11.7.0/Gaussian/g16c01-CUDA-11.7.0/g16/l1101.exe)
 Using compressed storage, NAtomX=    12.
 Will process     13 centers per pass.
 R6Disp: Adding Grimme-D2 dispersion energy 1st derivatives to the gradient.
 Leave Link 1101 at Fri May 23 05:23:25 2025, MaxMem=  3758096384 cpu:               0.5 elap:               0.1
 (Enter /apps/easybuild-2022/easybuild/software/Compiler/NVHPC/22.11-CUDA-11.7.0/Gaussian/g16c01-CUDA-11.7.0/g16/l1102.exe)
 Symmetrizing basis deriv contribution to polar:
 IMax=3 JMax=2 DiffMx= 0.00D+00
 Leave Link 1102 at Fri May 23 05:23:25 2025, MaxMem=  3758096384 cpu:               0.0 elap:               0.0
 (Enter /apps/easybuild-2022/easybuild/software/Compiler/NVHPC/22.11-CUDA-11.7.0/Gaussian/g16c01-CUDA-11.7.0/g16/l1110.exe)
 Forming Gx(P) for the SCF density, NAtomX=    12.
 Integral derivatives from FoFJK, PRISM(SPDF).
 Do as many integral derivatives as possible in FoFJK.
 G2DrvN: MDV=    3758095012.
 G2DrvN: will do    13 centers at a time, making    1 passes.
 Calling FoFCou, ICntrl=  3107 FMM=F I1Cent=   0 AccDes= 0.00D+00.
 FoFJK:  IHMeth= 1 ICntrl=    3107 DoSepK=T KAlg= 0 I1Cent=           0 FoldK=F
 IRaf=         1 NMat=       1 IRICut=       1 DoRegI=T DoRafI=F ISym2E= 0 IDoP0=0 IntGTp=1.
 FoFCou: FMM=F IPFlag=           0 FMFlag=      100000 FMFlg1=           0
         NFxFlg=           0 DoJE=F BraDBF=F KetDBF=F FulRan=T
         wScrn=  0.000000 ICntrl=      3507 IOpCl=  0 I1Cent=           0 NGrid=           0
         NMat0=    1 NMatS0=      1 NMatT0=    0 NMatD0=    1 NMtDS0=    0 NMtDT0=    0
 Symmetry not used in FoFCou.
 End of G2Drv F.D. properties file   721 does not exist.
 End of G2Drv F.D. properties file   722 does not exist.
 End of G2Drv F.D. properties file   788 does not exist.
 Leave Link 1110 at Fri May 23 05:23:37 2025, MaxMem=  3758096384 cpu:              92.6 elap:              11.7
 (Enter /apps/easybuild-2022/easybuild/software/Compiler/NVHPC/22.11-CUDA-11.7.0/Gaussian/g16c01-CUDA-11.7.0/g16/l1002.exe)
 Minotr:  Closed shell wavefunction.
          IDoAtm=111111111111
          Direct CPHF calculation.
          Differentiating once with respect to electric field.
                with respect to dipole field.
          Differentiating once with respect to nuclear coordinates.
          Requested convergence is 1.0D-08 RMS, and 1.0D-07 maximum.
          Secondary convergence is 1.0D-12 RMS, and 1.0D-12 maximum.
          NewPWx=T KeepS1=F KeepF1=F KeepIn=T MapXYZ=F SortEE=F KeepMc=T.
         3731 words used for storage of precomputed grid.
 Keep R1 ints in memory in canonical form, NReq=1117480323.
 FoFCou: FMM=F IPFlag=           0 FMFlag=           0 FMFlg1=           0
         NFxFlg=           0 DoJE=F BraDBF=F KetDBF=F FulRan=T
         wScrn=  0.000000 ICntrl=       600 IOpCl=  0 I1Cent=           0 NGrid=           0
         NMat0=    1 NMatS0=  33153 NMatT0=    0 NMatD0=    1 NMtDS0=    0 NMtDT0=    0
 Symmetry not used in FoFCou.
 Two-electron integral symmetry not used.
          MDV=    3758096384 using IRadAn=       1.
          Solving linear equations simultaneously, MaxMat=       0.
          There are    39 degrees of freedom in the 1st order CPHF.  IDoFFX=6 NUNeed=     3.
     36 vectors produced by pass  0 Test12= 2.61D-14 2.56D-09 XBig12= 8.28D+01 7.44D+00.
 AX will form    36 AO Fock derivatives at one time.
     36 vectors produced by pass  1 Test12= 2.61D-14 2.56D-09 XBig12= 2.30D+01 6.89D-01.
     36 vectors produced by pass  2 Test12= 2.61D-14 2.56D-09 XBig12= 9.27D-01 1.75D-01.
     36 vectors produced by pass  3 Test12= 2.61D-14 2.56D-09 XBig12= 1.82D-02 2.50D-02.
     36 vectors produced by pass  4 Test12= 2.61D-14 2.56D-09 XBig12= 3.21D-04 2.63D-03.
     36 vectors produced by pass  5 Test12= 2.61D-14 2.56D-09 XBig12= 3.80D-06 2.79D-04.
     36 vectors produced by pass  6 Test12= 2.61D-14 2.56D-09 XBig12= 3.08D-08 2.60D-05.
     30 vectors produced by pass  7 Test12= 2.61D-14 2.56D-09 XBig12= 1.91D-10 1.51D-06.
      7 vectors produced by pass  8 Test12= 2.61D-14 2.56D-09 XBig12= 1.14D-12 9.62D-08.
      3 vectors produced by pass  9 Test12= 2.61D-14 2.56D-09 XBig12= 7.63D-15 1.16D-08.
 InvSVY:  IOpt=1 It=  1 EMax= 1.78D-15
 Solved reduced A of dimension   292 with    39 vectors.
 FullF1:  Do perturbations      1 to       3.
 Isotropic polarizability for W=    0.000000       75.34 Bohr**3.
 End of Minotr F.D. properties file   721 does not exist.
 End of Minotr F.D. properties file   722 does not exist.
 End of Minotr F.D. properties file   788 does not exist.
 Leave Link 1002 at Fri May 23 05:24:02 2025, MaxMem=  3758096384 cpu:             194.9 elap:              24.9
 (Enter /apps/easybuild-2022/easybuild/software/Compiler/NVHPC/22.11-CUDA-11.7.0/Gaussian/g16c01-CUDA-11.7.0/g16/l701.exe)
 ... and contract with generalized density number  0.
 Compute integral second derivatives.
 R6Disp: Adding Grimme-D2 dispersion energy 2nd derivatives to the Hessian.
 Leave Link  701 at Fri May 23 05:24:02 2025, MaxMem=  3758096384 cpu:               0.5 elap:               0.1
 (Enter /apps/easybuild-2022/easybuild/software/Compiler/NVHPC/22.11-CUDA-11.7.0/Gaussian/g16c01-CUDA-11.7.0/g16/l702.exe)
 L702 exits ... SP integral derivatives will be done elsewhere.
 Leave Link  702 at Fri May 23 05:24:02 2025, MaxMem=  3758096384 cpu:               0.0 elap:               0.0
 (Enter /apps/easybuild-2022/easybuild/software/Compiler/NVHPC/22.11-CUDA-11.7.0/Gaussian/g16c01-CUDA-11.7.0/g16/l703.exe)
 Integral derivatives from FoFJK, PRISM(SPDF).
 Compute integral second derivatives, UseDBF=F ICtDFT=           0.
 Calling FoFJK, ICntrl=    100127 FMM=F ISym2X=0 I1Cent= 0 IOpClX= 0 NMat=1 NMatS=1 NMatT=0.
 FoFJK:  IHMeth= 1 ICntrl=  100127 DoSepK=T KAlg= 0 I1Cent=           0 FoldK=F
 IRaf=         1 NMat=       1 IRICut=       1 DoRegI=T DoRafI=F ISym2E= 0 IDoP0=0 IntGTp=1.
 FoFCou: FMM=F IPFlag=           0 FMFlag=      100000 FMFlg1=         800
         NFxFlg=           0 DoJE=F BraDBF=F KetDBF=F FulRan=T
         wScrn=  0.000000 ICntrl=    100527 IOpCl=  0 I1Cent=           0 NGrid=           0
         NMat0=    1 NMatS0=      1 NMatT0=    0 NMatD0=    1 NMtDS0=    0 NMtDT0=    0
 Symmetry not used in FoFCou.
 Leave Link  703 at Fri May 23 05:24:37 2025, MaxMem=  3758096384 cpu:             273.5 elap:              34.5
 (Enter /apps/easybuild-2022/easybuild/software/Compiler/NVHPC/22.11-CUDA-11.7.0/Gaussian/g16c01-CUDA-11.7.0/g16/l716.exe)
 Dipole        = 1.07312197D+00-7.86055552D-02 1.10056252D+00
 Polarizability= 1.04825473D+02 5.21024563D+00 5.96234768D+01
                 4.75708233D+00-1.62993560D+00 6.15564401D+01
 -------------------------------------------------------------------
 Center     Atomic                   Forces (Hartrees/Bohr)
 Number     Number              X              Y              Z
 -------------------------------------------------------------------
      1        6           0.015392836    0.035426185    0.010454915
      2        6           0.006495148   -0.018758060    0.011907410
      3        9           0.006566228    0.006527755   -0.013459040
      4        9          -0.013582535    0.012237203    0.000761811
      5       16          -0.098894825   -0.040169868   -0.024784908
      6        8          -0.000112670    0.053645842    0.042808052
      7        8          -0.000894340   -0.016762850    0.006667236
      8        8           0.113589415    0.005512408   -0.014481936
      9        9          -0.000999761   -0.009534764   -0.013739260
     10        9          -0.015876823   -0.008072474   -0.002591152
     11        9          -0.003222339   -0.019383163    0.001831037
     12        1          -0.008460333   -0.000668214   -0.005374166
 -------------------------------------------------------------------
 Cartesian Forces:  Max     0.113589415 RMS     0.030741391
 Force constants in Cartesian coordinates: 
                1             2             3             4             5 
      1  0.557059D+00
      2  0.247680D-01  0.570774D+00
      3 -0.276000D-02  0.100965D-01  0.552125D+00
      4 -0.812007D-01 -0.452304D-01 -0.304035D-01  0.434106D+00
      5 -0.650252D-01 -0.128879D+00 -0.472608D-01  0.221677D-01  0.544993D+00
      6 -0.268622D-01 -0.283061D-01 -0.642323D-01 -0.815791D-01  0.182610D-02
      7 -0.230602D-02  0.400626D-02  0.193766D-02 -0.161935D+00  0.113621D+00
      8  0.409230D-01 -0.256036D-01 -0.125435D-01  0.101425D+00 -0.207224D+00
      9  0.163777D-01 -0.137484D-01 -0.402914D-02  0.369843D-01 -0.530030D-01
     10 -0.942469D-02 -0.118004D-01  0.260967D-01 -0.116551D+00 -0.593361D-01
     11 -0.137021D-01 -0.112613D-01  0.393143D-01 -0.651042D-01 -0.144828D+00
     12  0.502664D-02  0.600821D-02 -0.121524D-01  0.895793D-01  0.975318D-01
     13 -0.607139D-02 -0.408261D-02 -0.187324D-01 -0.504995D-01  0.828322D-02
     14 -0.101713D-01  0.238209D-01 -0.174369D-01 -0.403560D-02 -0.328159D-01
     15 -0.148237D-01 -0.873680D-02  0.194433D-02 -0.383459D-01  0.116036D-01
     16  0.608720D-03  0.660869D-03  0.206699D-02  0.901965D-02 -0.600368D-03
     17  0.760827D-03 -0.354274D-03 -0.569089D-03 -0.909836D-03 -0.188790D-02
     18  0.741358D-03  0.952964D-03 -0.199791D-02 -0.258545D-02 -0.535189D-03
     19 -0.151460D-02 -0.315455D-02  0.832605D-02  0.913269D-02  0.528490D-02
     20  0.101446D-02 -0.110442D-01  0.649752D-02 -0.929312D-02  0.216441D-02
     21  0.239846D-02  0.431574D-02 -0.158895D-02  0.175245D-01  0.388171D-02
     22 -0.108526D-02  0.104297D-01 -0.311622D-02 -0.898918D-02 -0.250114D-01
     23  0.110477D-02 -0.196106D-02  0.113660D-02  0.182665D-02 -0.618066D-02
     24  0.134585D-02  0.471843D-02 -0.155018D-02  0.711097D-02 -0.144588D-01
     25 -0.145903D+00 -0.698535D-01  0.789596D-01 -0.889563D-02 -0.572942D-02
     26 -0.684398D-01 -0.140543D+00  0.717636D-01 -0.162616D-01 -0.660914D-02
     27  0.825595D-01  0.748061D-01 -0.173814D+00  0.602378D-02  0.256656D-02
     28 -0.136631D+00  0.810239D-01  0.432610D-01  0.241480D-03  0.131124D-02
     29  0.778569D-01 -0.196942D+00 -0.645384D-01  0.328050D-01 -0.197302D-01
     30  0.411678D-01 -0.647304D-01 -0.107309D+00  0.172407D-01 -0.994373D-02
     31 -0.172234D+00  0.120777D-01 -0.105295D+00 -0.212430D-01  0.839710D-02
     32  0.119651D-01 -0.801834D-01  0.141539D-01 -0.143055D-01  0.375028D-02
     33 -0.105177D+00  0.139870D-01 -0.187770D+00 -0.211618D-01  0.867141D-02
     34 -0.129793D-02  0.115505D-02 -0.341351D-03 -0.318550D-02 -0.336302D-02
     35 -0.105459D-02  0.217747D-02 -0.613795D-03 -0.308376D-02 -0.275300D-02
     36  0.505273D-05  0.636727D-03  0.374847D-03 -0.387830D-03 -0.879670D-03
                6             7             8             9            10 
      6  0.429097D+00
      7  0.622100D-01  0.221628D+00
      8 -0.679168D-01 -0.153083D+00  0.224306D+00
      9 -0.884127D-01 -0.107688D+00  0.869159D-01  0.128615D+00
     10  0.683346D-01 -0.415092D-01  0.300239D-02  0.655022D-01  0.158814D+00
     11  0.919229D-01  0.176162D-01  0.242242D-01 -0.227610D-01  0.693164D-01
     12 -0.204801D+00  0.535337D-01 -0.586904D-02 -0.436218D-01 -0.150577D+00
     13 -0.179896D-01 -0.305686D-01  0.195334D-01 -0.125846D-01  0.664493D-02
     14  0.682571D-02  0.184723D-01 -0.106835D-01  0.498697D-02  0.402710D-02
     15 -0.465127D-01  0.269053D-03 -0.236034D-02  0.204978D-02 -0.277279D-02
     16  0.424899D-02  0.792420D-05 -0.100078D-02 -0.716960D-03 -0.770849D-03
     17  0.864105D-03 -0.469617D-03  0.780676D-03  0.583417D-03  0.638460D-03
     18 -0.327660D-02 -0.356853D-03  0.725370D-03  0.157692D-02 -0.317518D-03
     19  0.201945D-02 -0.457032D-03 -0.193714D-03 -0.481491D-03 -0.811959D-03
     20  0.305921D-02  0.319153D-02 -0.636704D-03 -0.180542D-02  0.152771D-02
     21 -0.287380D-03 -0.446975D-02  0.244610D-02  0.143990D-02 -0.291060D-02
     22 -0.910977D-02  0.414577D-02  0.414522D-03  0.539742D-02  0.197232D-02
     23 -0.277776D-02 -0.623029D-03  0.320193D-02  0.224701D-02  0.494517D-03
     24  0.582666D-02 -0.249419D-02  0.264414D-02 -0.526703D-03 -0.319865D-03
     25  0.255024D-01  0.302322D-02 -0.329104D-02 -0.350096D-02 -0.367773D-02
     26  0.292251D-01  0.697972D-05  0.523347D-03 -0.100897D-02 -0.594901D-02
     27 -0.477900D-02 -0.184562D-02  0.103245D-02  0.237657D-02 -0.256361D-03
     28  0.164590D-02  0.206566D-02 -0.276456D-02 -0.783499D-03  0.237409D-02
     29 -0.141771D-01 -0.322238D-02 -0.102251D-01 -0.462692D-02 -0.234819D-02
     30 -0.257944D-02 -0.174987D-02 -0.487849D-02 -0.133677D-02 -0.341280D-02
     31 -0.256792D-01  0.374427D-02 -0.403744D-02  0.771309D-03  0.201489D-02
     32 -0.148816D-01 -0.153824D-02  0.221414D-02  0.515103D-03  0.434847D-03
     33 -0.215760D-01  0.108107D-02 -0.600136D-03  0.204532D-02  0.263215D-03
     34 -0.274149D-02  0.216130D-02 -0.926920D-03  0.722153D-03  0.924662D-03
     35 -0.566376D-02  0.202206D-02 -0.877797D-03  0.170526D-02 -0.773129D-05
     36  0.153346D-02 -0.427539D-03  0.404436D-03 -0.175941D-03  0.369940D-03
               11            12            13            14            15 
     11  0.143112D+00
     12 -0.116086D+00  0.279637D+00
     13 -0.779480D-02  0.139188D-01  0.250155D+00
     14 -0.636556D-02  0.181416D-01  0.259017D+00  0.765257D+00
     15  0.113586D-01 -0.245057D-01  0.908875D-02 -0.168654D+00  0.402708D+00
     16  0.861367D-03 -0.226366D-02 -0.125849D-01  0.163104D-01  0.527136D-03
     17  0.351815D-03 -0.353006D-03  0.233697D-01 -0.232409D-01 -0.120449D-01
     18 -0.190593D-02  0.281121D-02  0.212099D-01  0.805663D-02 -0.201847D-01
     19  0.260783D-02 -0.491050D-02 -0.109681D+00 -0.148495D+00  0.684606D-01
     20 -0.884913D-04  0.318931D-02 -0.164520D+00 -0.408541D+00  0.209517D+00
     21  0.266277D-02 -0.710465D-02  0.980257D-01  0.243331D+00 -0.195480D+00
     22  0.178013D-02 -0.147090D-02 -0.579341D-01 -0.142754D+00 -0.456608D-01
     23  0.234547D-02 -0.193404D-02 -0.163208D+00 -0.300541D+00 -0.596651D-01
     24  0.100488D-02 -0.953404D-04 -0.105302D+00 -0.949982D-01 -0.112302D+00
     25 -0.663859D-02 -0.795937D-03  0.573201D-04  0.698820D-04  0.140497D-02
     26 -0.842159D-02 -0.327081D-03  0.524235D-03 -0.422664D-02  0.257355D-02
     27 -0.511448D-03  0.266502D-02  0.273463D-02  0.557359D-02 -0.521032D-02
     28  0.499797D-03 -0.168059D-02 -0.135749D-02  0.241038D-02  0.184450D-02
     29  0.106982D-03  0.804497D-03  0.144537D-02 -0.466879D-02  0.941816D-03
     30 -0.213991D-02  0.311966D-02  0.232867D-02  0.123050D-02 -0.109305D-02
     31 -0.173228D-03  0.506218D-03  0.207696D-02 -0.260204D-02  0.287083D-02
     32  0.126299D-02 -0.166133D-02  0.605483D-03 -0.527978D-02  0.170689D-02
     33 -0.336703D-02  0.494520D-02  0.333012D-02 -0.161456D-02  0.967420D-03
     34  0.731144D-03 -0.866332D-03  0.976363D-02  0.775003D-02  0.171373D-01
     35 -0.438548D-03  0.554778D-03  0.268270D-01  0.728441D-02  0.137599D-01
     36  0.507455D-03 -0.897648D-03  0.397233D-02 -0.544231D-02 -0.238072D-02
               16            17            18            19            20 
     16  0.139057D+00
     17 -0.615693D-01  0.666864D-01
     18 -0.216233D+00  0.768922D-01  0.450002D+00
     19  0.231792D-02 -0.352336D-02  0.693220D-02  0.950928D-01
     20 -0.553526D-02  0.123456D-01  0.753738D-02  0.150313D+00  0.397942D+00
     21 -0.289486D-03 -0.178736D-02 -0.586261D-02 -0.765524D-01 -0.229991D+00
     22 -0.631058D-01  0.498062D-01  0.268373D-01  0.749434D-02  0.231324D-01
     23  0.483356D-01 -0.295089D-01 -0.376099D-01 -0.297472D-02 -0.335686D-02
     24  0.437200D-01 -0.213858D-01  0.982345D-02  0.800135D-02  0.802935D-02
     25 -0.205107D-03 -0.118637D-03 -0.313339D-03 -0.369866D-02 -0.549423D-03
     26 -0.240877D-03  0.998026D-04 -0.378772D-03  0.224744D-03  0.317523D-02
     27 -0.541892D-03  0.197892D-03  0.833342D-03 -0.715881D-02 -0.411620D-02
     28 -0.543511D-04 -0.426919D-03 -0.309862D-03  0.751349D-03 -0.100264D-02
     29 -0.371632D-03  0.375316D-03 -0.147203D-05 -0.402435D-03  0.226420D-02
     30 -0.496148D-03  0.153246D-03  0.407251D-03 -0.139737D-02 -0.127381D-02
     31 -0.365528D-03 -0.289988D-03 -0.172897D-03 -0.251279D-04  0.588744D-03
     32 -0.943830D-04  0.949946D-04 -0.199241D-03  0.863881D-03  0.220352D-02
     33 -0.637024D-03 -0.128539D-03  0.238282D-03 -0.121730D-02 -0.284870D-03
     34 -0.739243D-01 -0.726759D-02  0.164568D+00  0.139976D-02  0.113360D-02
     35  0.324434D-02 -0.257426D-01 -0.535340D-01 -0.550395D-03  0.357226D-02
     36  0.170615D+00 -0.424221D-01 -0.434371D+00 -0.202169D-02 -0.358168D-03
               21            22            23            24            25 
     21  0.186127D+00
     22 -0.240413D-01  0.138107D+00
     23 -0.154076D-01  0.106563D+00  0.324997D+00
     24  0.221900D-01  0.490363D-01  0.110428D+00  0.747053D-01
     25 -0.368481D-02 -0.655387D-03 -0.380320D-03 -0.656065D-03  0.179465D+00
     26 -0.181603D-02 -0.136518D-02  0.541096D-03 -0.108852D-02  0.703444D-01
     27  0.183459D-03  0.125826D-02 -0.742788D-03  0.106145D-02 -0.136027D+00
     28 -0.490434D-03  0.115722D-02 -0.542808D-03 -0.316803D-03 -0.427096D-01
     29 -0.776653D-03 -0.160638D-02  0.982748D-03 -0.526664D-03  0.545496D-02
     30 -0.675534D-03 -0.655553D-04  0.125195D-03  0.480137D-04  0.558732D-01
     31 -0.875847D-03 -0.222473D-02 -0.492404D-03 -0.126915D-02  0.229709D-01
     32 -0.868638D-03 -0.218784D-02  0.493965D-03 -0.838585D-03  0.106854D-01
     33 -0.242983D-03 -0.186994D-02 -0.448774D-03 -0.858395D-03 -0.167681D-01
     34 -0.463409D-02 -0.188819D-01  0.989630D-02  0.114401D-02  0.228364D-03
     35 -0.598984D-02 -0.192016D-01  0.898601D-02  0.647195D-02  0.624908D-05
     36  0.130142D-02  0.280515D-02  0.464940D-02  0.167799D-02  0.552966D-05
               26            27            28            29            30 
     26  0.136937D+00
     27 -0.118824D+00  0.294123D+00
     28  0.190536D-01  0.530222D-01  0.231424D+00
     29  0.214781D-01 -0.628518D-02 -0.155508D+00  0.224556D+00
     30 -0.200958D-01 -0.365232D-01 -0.830636D-01  0.776247D-01  0.129932D+00
     31  0.208511D-02  0.231248D-03 -0.578346D-01  0.460844D-01 -0.264023D-01
     32 -0.264790D-02  0.461042D-01  0.553502D-01 -0.176827D-01  0.239407D-01
     33  0.400032D-01 -0.808049D-01 -0.132417D-01  0.117677D-01  0.161933D-01
     34  0.174019D-04  0.000000D+00  0.573073D-03 -0.187488D-03 -0.227844D-04
     35 -0.305995D-03  0.198569D-03  0.595922D-03 -0.515123D-03 -0.121382D-04
     36 -0.264405D-04 -0.111916D-03  0.112869D-03 -0.206311D-03 -0.182354D-03
               31            32            33            34            35 
     31  0.223131D+00
     32 -0.614965D-01  0.962804D-01
     33  0.155516D+00 -0.678505D-01  0.267127D+00
     34 -0.114459D-04 -0.282520D-03 -0.118143D-03  0.822503D-01
     35 -0.141449D-03 -0.506497D-03 -0.134954D-03 -0.865600D-02  0.911938D-02
     36 -0.201838D-03 -0.121062D-03 -0.263951D-03 -0.174847D+00  0.432581D-01
               36 
     36  0.433496D+00
 FormGI is forming the generalized inverse of G from B-inverse, IUseBI=4.
 Leave Link  716 at Fri May 23 05:24:37 2025, MaxMem=  3758096384 cpu:               0.0 elap:               0.0
 (Enter /apps/easybuild-2022/easybuild/software/Compiler/NVHPC/22.11-CUDA-11.7.0/Gaussian/g16c01-CUDA-11.7.0/g16/l103.exe)

 GradGradGradGradGradGradGradGradGradGradGradGradGradGradGradGradGradGrad
 Berny optimization.
 Red2BG is reusing G-inverse.
 Internal  Forces:  Max     0.153275732 RMS     0.030137898
 Search for a saddle point.
 Step number   1 out of a maximum of  100
 All quantities printed in internal units (Hartrees-Bohrs-Radians)
 Swapping is turned off.
 Second derivative matrix not updated -- analytic derivatives used.
 ITU=  0
     Eigenvalues ---   -0.51921  -0.00751  -0.00062   0.00348   0.02136
     Eigenvalues ---    0.03157   0.04062   0.04542   0.07965   0.08794
     Eigenvalues ---    0.09416   0.11919   0.13777   0.14089   0.16470
     Eigenvalues ---    0.16731   0.18118   0.22103   0.22953   0.23212
     Eigenvalues ---    0.28095   0.35236   0.38112   0.38390   0.39417
     Eigenvalues ---    0.40742   0.51006   0.51823   0.60034   0.61040
 Eigenvectors required to have negative eigenvalues:
                          A17       R9        D18       R10       D16
   1                    0.95884   0.15394  -0.14579  -0.10511   0.07048
                          A16       R8        D17       A13       A14
   1                   -0.06571   0.05876   0.04856   0.04826  -0.03658
 Eigenvalue     2 is  -7.51D-03 should be greater than     0.000000 Eigenvector:
                          A16       D18       A17       D16       R10
   1                    0.94436   0.29466   0.09831   0.06333  -0.06064
                          D12       D14       D10       R7        A13
   1                    0.02872   0.02620   0.02147   0.01896  -0.01578
 Eigenvalue     3 is  -6.24D-04 should be greater than     0.000000 Eigenvector:
                          D10       D12       D14       D11       D13
   1                   -0.42763  -0.42460  -0.42365  -0.38350  -0.38047
                          D15       D16       D9        D7        D8
   1                   -0.37952  -0.05766   0.04776   0.04621   0.04486
 RFO step:  Lambda0=5.057973684D-02 Lambda=-4.56815776D-02.
 Linear search not attempted -- option 19 set.
 Maximum step size (   0.300) exceeded in Quadratic search.
    -- Step size scaled by   0.416
 Iteration  1 RMS(Cart)=  0.07976731 RMS(Int)=  0.01552145
 Iteration  2 RMS(Cart)=  0.02166354 RMS(Int)=  0.00114979
 Iteration  3 RMS(Cart)=  0.00110104 RMS(Int)=  0.00020905
 Iteration  4 RMS(Cart)=  0.00000300 RMS(Int)=  0.00020904
 Iteration  5 RMS(Cart)=  0.00000000 RMS(Int)=  0.00020904
 ITry= 1 IFail=0 DXMaxC= 4.01D-01 DCOld= 1.00D+10 DXMaxT= 3.00D-01 DXLimC= 3.00D+00 Rises=F
 Variable       Old X    -DE/DX   Delta X   Delta X   Delta X     New X
                                 (Linear)    (Quad)   (Total)
    R1        2.94222  -0.00479   0.00000   0.00011   0.00011   2.94233
    R2        2.49620   0.00516   0.00000  -0.00177  -0.00177   2.49443
    R3        2.51254   0.00344   0.00000  -0.00333  -0.00333   2.50921
    R4        2.50939   0.00304   0.00000  -0.00266  -0.00266   2.50673
    R5        2.50100   0.00468   0.00000   0.00297   0.00297   2.50396
    R6        2.49494   0.00112   0.00000  -0.00167  -0.00167   2.49326
    R7        3.65238  -0.00666   0.00000  -0.03248  -0.03248   3.61990
    R8        2.74915  -0.01710   0.00000  -0.00088  -0.00088   2.74827
    R9        2.82060  -0.10705   0.00000  -0.04386  -0.04386   2.77674
   R10        3.82379   0.04863   0.00000   0.05734   0.05734   3.88113
   R11        1.83638  -0.00190   0.00000  -0.00547  -0.00547   1.83091
    A1        1.97594  -0.01581   0.00000  -0.01548  -0.01564   1.96030
    A2        1.95933  -0.01986   0.00000  -0.01902  -0.01921   1.94012
    A3        1.95815  -0.02412   0.00000  -0.02807  -0.02833   1.92983
    A4        1.86180   0.02110   0.00000   0.02165   0.02155   1.88335
    A5        1.85012   0.02188   0.00000   0.02337   0.02316   1.87328
    A6        1.84950   0.02314   0.00000   0.02415   0.02387   1.87338
    A7        1.93001  -0.00353   0.00000  -0.00568  -0.00567   1.92434
    A8        1.93497  -0.00184   0.00000   0.00148   0.00115   1.93612
    A9        1.96517   0.00437   0.00000  -0.00645  -0.00660   1.95857
   A10        1.83286   0.01242   0.00000   0.02429   0.02443   1.85729
   A11        1.86007  -0.00259   0.00000   0.01715   0.01723   1.87731
   A12        1.93479  -0.00838   0.00000  -0.02817  -0.02826   1.90653
   A13        1.89408   0.00630   0.00000   0.03571   0.03511   1.92920
   A14        1.97541  -0.01064   0.00000  -0.04414  -0.04457   1.93084
   A15        2.29050   0.00328   0.00000  -0.01547  -0.01563   2.27487
   A16        2.30166   0.01327   0.00000  -0.26119  -0.26119   2.04047
   A17        1.40679  -0.15328   0.00000   0.07833   0.07833   1.48511
    D1        1.04054  -0.00614   0.00000  -0.01671  -0.01669   1.02386
    D2        3.06616   0.00586   0.00000   0.01058   0.01062   3.07678
    D3       -1.03813  -0.00333   0.00000  -0.03032  -0.03029  -1.06842
    D4       -3.13331  -0.00483   0.00000  -0.01380  -0.01386   3.13602
    D5       -1.10769   0.00718   0.00000   0.01349   0.01345  -1.09424
    D6        1.07121  -0.00201   0.00000  -0.02741  -0.02746   1.04374
    D7       -1.05265  -0.00572   0.00000  -0.01558  -0.01556  -1.06822
    D8        0.97296   0.00629   0.00000   0.01171   0.01174   0.98470
    D9       -3.13132  -0.00290   0.00000  -0.02918  -0.02917   3.12269
   D10        0.47976   0.00118   0.00000   0.10880   0.10884   0.58859
   D11       -3.11353   0.00065   0.00000   0.06508   0.06478  -3.04875
   D12       -1.63923   0.00466   0.00000   0.10825   0.10836  -1.53087
   D13        1.05068   0.00413   0.00000   0.06453   0.06430   1.11498
   D14        2.65875  -0.00442   0.00000   0.08414   0.08450   2.74326
   D15       -0.93453  -0.00496   0.00000   0.04042   0.04045  -0.89408
   D16        2.01623  -0.01212   0.00000   0.00687   0.00627   2.02250
   D17       -1.70816  -0.01335   0.00000  -0.03571  -0.03511  -1.74327
   D18       -1.49448  -0.00918   0.00000  -0.25596  -0.25596  -1.75045
         Item               Value     Threshold  Converged?
 Maximum Force            0.153276     0.000450     NO 
 RMS     Force            0.030138     0.000300     NO 
 Maximum Displacement     0.400826     0.001800     NO 
 RMS     Displacement     0.092357     0.001200     NO 
 Predicted change in Energy=-1.618116D-03
 Lowest energy point so far.  Saving SCF results.
 GradGradGradGradGradGradGradGradGradGradGradGradGradGradGradGradGradGrad

 Leave Link  103 at Fri May 23 05:24:37 2025, MaxMem=  3758096384 cpu:               0.0 elap:               0.0
 (Enter /apps/easybuild-2022/easybuild/software/Compiler/NVHPC/22.11-CUDA-11.7.0/Gaussian/g16c01-CUDA-11.7.0/g16/l202.exe)
                          Input orientation:                          
 ---------------------------------------------------------------------
 Center     Atomic      Atomic             Coordinates (Angstroms)
 Number     Number       Type             X           Y           Z
 ---------------------------------------------------------------------
      1          6           0        3.996358    2.129989    1.787287
      2          6           0        3.238047    0.864509    1.289470
      3          9           0        4.096558   -0.031987    0.825803
      4          9           0        2.590421    0.282663    2.280830
      5         16           0        2.004788    1.266773   -0.120016
      6          8           0       -0.393464    1.158436    0.191996
      7          8           0        2.517692    2.340973   -0.955528
      8          8           0        1.219611    0.076915   -0.476153
      9          9           0        4.717529    2.689632    0.833821
     10          9           0        3.151561    3.043939    2.249999
     11          9           0        4.823012    1.818787    2.776938
     12          1           0       -0.715216    0.960134    1.084110
 ---------------------------------------------------------------------
                    Distance matrix (angstroms):
                    1          2          3          4          5
     1  C    0.000000
     2  C    1.557015   0.000000
     3  F    2.368255   1.325041   0.000000
     4  F    2.373364   1.319378   2.117678   0.000000
     5  S    2.889515   1.915566   2.637584   2.659980   0.000000
     6  O    4.770682   3.805090   4.688189   3.746167   2.420889
     7  O    3.123140   2.781883   3.361086   3.836136   1.454324
     8  O    4.128994   2.794961   3.159711   3.085839   1.469387
     9  F    1.319994   2.393231   2.791573   3.523055   3.208316
    10  F    1.327814   2.383278   3.518903   2.817884   3.176536
    11  F    1.326504   2.373883   2.785682   2.755043   4.079147
    12  H    4.905298   3.959748   4.919776   3.580270   2.990380
                    6          7          8          9         10
     6  O    0.000000
     7  O    3.345151   0.000000
     8  O    2.053807   2.653446   0.000000
     9  F    5.373895   2.857029   4.558261   0.000000
    10  F    4.511950   3.342358   4.468508   2.140876   0.000000
    11  F    5.859147   4.417973   5.157636   2.131947   2.138320
    12  H    0.968874   4.064300   2.637812   5.706883   4.544612
                   11         12
    11  F    0.000000
    12  H    5.854478   0.000000
 Symmetry turned off by external request.
 Stoichiometry    C2HF5O3S
 Rotational constants (GHZ):           1.5562335           0.6899760           0.6507550
 Leave Link  202 at Fri May 23 05:24:37 2025, MaxMem=  3758096384 cpu:               0.0 elap:               0.0
 (Enter /apps/easybuild-2022/easybuild/software/Compiler/NVHPC/22.11-CUDA-11.7.0/Gaussian/g16c01-CUDA-11.7.0/g16/l301.exe)
 Standard basis: 6-311++G(d,p) (5D, 7F)
 Ernie: Thresh=  0.10000D-02 Tol=  0.10000D-05 Strict=F.
   257 basis functions,   419 primitive gaussians,   268 cartesian basis functions
    49 alpha electrons       49 beta electrons
       nuclear repulsion energy       879.0378334386 Hartrees.
 IExCor= 4639 DFT=T Ex+Corr=wB97XD ExCW=0 ScaHFX=  1.000000
 ScaDFX=  1.000000  1.000000  1.000000  1.000000 ScalE2=  1.000000  1.000000
 IRadAn=      5 IRanWt=     -1 IRanGd=            0 ICorTp=0 IEmpDi=121
 HFx  wShort=  0.000000 wLong=  0.200000 cFull=  0.222036 cShort=  0.000000 cLong=  0.777964
 DFx  wShort=  0.000000 wLong=  0.200000 cFull=  0.000000 cShort=  0.000000 cLong=  1.000000
 NAtoms=   12 NActive=   12 NUniq=   12 SFac= 1.00D+00 NAtFMM=   60 NAOKFM=F Big=F
 Integral buffers will be    131072 words long.
 Raffenetti 2 integral format.
 Two-electron integral symmetry is turned off.
 R6Disp:  Grimme-D2 Dispersion energy=       -0.0050787044 Hartrees.
 Nuclear repulsion after empirical dispersion term =      879.0327547342 Hartrees.
 Leave Link  301 at Fri May 23 05:24:37 2025, MaxMem=  3758096384 cpu:               0.0 elap:               0.0
 (Enter /apps/easybuild-2022/easybuild/software/Compiler/NVHPC/22.11-CUDA-11.7.0/Gaussian/g16c01-CUDA-11.7.0/g16/l302.exe)
 NPDir=0 NMtPBC=     1 NCelOv=     1 NCel=       1 NClECP=     1 NCelD=      1
         NCelK=      1 NCelE2=     1 NClLst=     1 CellRange=     0.0.
 One-electron integrals computed using PRISM.
 NBasis=   257 RedAO= T EigKep=  7.71D-05  NBF=   257
 NBsUse=   257 1.00D-06 EigRej= -1.00D+00 NBFU=   257
 Precomputing XC quadrature grid using
 IXCGrd= 4 IRadAn=           5 IRanWt=          -1 IRanGd=           0 AccXCQ= 0.00D+00.
 Generated NRdTot=       0 NPtTot=           0 NUsed=           0 NTot=          32
 NSgBfM=   268   268   268   268   268 MxSgAt=    12 MxSgA2=    12.
 Leave Link  302 at Fri May 23 05:24:37 2025, MaxMem=  3758096384 cpu:               0.5 elap:               0.1
 (Enter /apps/easybuild-2022/easybuild/software/Compiler/NVHPC/22.11-CUDA-11.7.0/Gaussian/g16c01-CUDA-11.7.0/g16/l303.exe)
 DipDrv:  MaxL=1.
 Leave Link  303 at Fri May 23 05:24:37 2025, MaxMem=  3758096384 cpu:               0.1 elap:               0.0
 (Enter /apps/easybuild-2022/easybuild/software/Compiler/NVHPC/22.11-CUDA-11.7.0/Gaussian/g16c01-CUDA-11.7.0/g16/l401.exe)
 Initial guess from the checkpoint file:  "/tmp/Gau-6023.chk"
 B after Tr=    -0.036565    0.133719   -0.005257
         Rot=    0.999934    0.004157    0.002305    0.010421 Ang=   1.31 deg.
 Guess basis will be translated and rotated to current coordinates.
 JPrj=2 DoOrth=T DoCkMO=T.
 Generating alternative initial guess.
 ExpMin= 3.60D-02 ExpMax= 9.34D+04 ExpMxC= 3.17D+03 IAcc=3 IRadAn=         5 AccDes= 0.00D+00
 Harris functional with IExCor= 4639 and IRadAn=       5 diagonalized for initial guess.
 HarFok:  IExCor= 4639 AccDes= 0.00D+00 IRadAn=         5 IDoV= 1 UseB2=F ITyADJ=14
 ICtDFT=  3500011 ScaDFX=  1.000000  1.000000  1.000000  1.000000
 FoFCou: FMM=F IPFlag=           0 FMFlag=      100000 FMFlg1=           0
         NFxFlg=           0 DoJE=T BraDBF=F KetDBF=T FulRan=T
         wScrn=  0.000000 ICntrl=       500 IOpCl=  0 I1Cent=   200000004 NGrid=           0
         NMat0=    1 NMatS0=      1 NMatT0=    0 NMatD0=    1 NMtDS0=    0 NMtDT0=    0
 Symmetry not used in FoFCou.
 Harris En= -1167.06816098794    
 Leave Link  401 at Fri May 23 05:24:37 2025, MaxMem=  3758096384 cpu:               2.5 elap:               0.4
 (Enter /apps/easybuild-2022/easybuild/software/Compiler/NVHPC/22.11-CUDA-11.7.0/Gaussian/g16c01-CUDA-11.7.0/g16/l502.exe)
 Keep R1 ints in memory in canonical form, NReq=1117474609.
 FoFCou: FMM=F IPFlag=           0 FMFlag=           0 FMFlg1=           0
         NFxFlg=           0 DoJE=F BraDBF=F KetDBF=F FulRan=T
         wScrn=  0.000000 ICntrl=       600 IOpCl=  0 I1Cent=           0 NGrid=           0
         NMat0=    1 NMatS0=  33153 NMatT0=    0 NMatD0=    1 NMtDS0=    0 NMtDT0=    0
 Symmetry not used in FoFCou.
 Two-electron integral symmetry not used.
 Closed shell SCF:
 Using DIIS extrapolation, IDIIS=  1040.
 NGot=  3758096384 LenX=  2658793876 LenY=  2658721611
 Requested convergence on RMS density matrix=1.00D-08 within  32 cycles.
 Requested convergence on MAX density matrix=1.00D-06.
 Requested convergence on             energy=1.00D-06.
 No special actions if energy rises.

 Cycle   1  Pass 1  IDiag  1:
 E= -1199.60975933540    
 DIIS: error= 5.87D-03 at cycle   1 NSaved=   1.
 NSaved= 1 IEnMin= 1 EnMin= -1199.60975933540     IErMin= 1 ErrMin= 5.87D-03
 ErrMax= 5.87D-03  0.00D+00 EMaxC= 1.00D-01 BMatC= 1.98D-02 BMatP= 1.98D-02
 IDIUse=3 WtCom= 9.41D-01 WtEn= 5.87D-02
 Coeff-Com:  0.100D+01
 Coeff-En:   0.100D+01
 Coeff:      0.100D+01
 Gap=     0.629 Goal=   None    Shift=    0.000
 GapD=    0.629 DampG=2.000 DampE=1.000 DampFc=2.0000 IDamp=-1.
 RMSDP=1.83D-03 MaxDP=8.56D-02              OVMax= 5.54D-02

 Cycle   2  Pass 1  IDiag  1:
 E= -1199.63539412240     Delta-E=       -0.025634787000 Rises=F Damp=F
 DIIS: error= 3.08D-03 at cycle   2 NSaved=   2.
 NSaved= 2 IEnMin= 2 EnMin= -1199.63539412240     IErMin= 2 ErrMin= 3.08D-03
 ErrMax= 3.08D-03  0.00D+00 EMaxC= 1.00D-01 BMatC= 4.11D-03 BMatP= 1.98D-02
 IDIUse=3 WtCom= 9.69D-01 WtEn= 3.08D-02
 Coeff-Com:  0.129D+00 0.871D+00
 Coeff-En:   0.000D+00 0.100D+01
 Coeff:      0.125D+00 0.875D+00
 Gap=     0.231 Goal=   None    Shift=    0.000
 RMSDP=9.16D-04 MaxDP=3.96D-02 DE=-2.56D-02 OVMax= 7.37D-02

 Cycle   3  Pass 1  IDiag  1:
 E= -1199.63039193729     Delta-E=        0.005002185108 Rises=F Damp=F
 DIIS: error= 5.83D-03 at cycle   3 NSaved=   3.
 NSaved= 3 IEnMin= 2 EnMin= -1199.63539412240     IErMin= 2 ErrMin= 3.08D-03
 ErrMax= 5.83D-03  0.00D+00 EMaxC= 1.00D-01 BMatC= 1.20D-02 BMatP= 4.11D-03
 IDIUse=3 WtCom= 1.16D-01 WtEn= 8.84D-01
 Coeff-Com: -0.108D+00 0.700D+00 0.408D+00
 Coeff-En:   0.000D+00 0.667D+00 0.333D+00
 Coeff:     -0.125D-01 0.671D+00 0.341D+00
 Gap=     0.211 Goal=   None    Shift=    0.000
 RMSDP=4.81D-04 MaxDP=1.72D-02 DE= 5.00D-03 OVMax= 4.94D-02

 Cycle   4  Pass 1  IDiag  1:
 E= -1199.64036262814     Delta-E=       -0.009970690853 Rises=F Damp=F
 DIIS: error= 5.63D-04 at cycle   4 NSaved=   4.
 NSaved= 4 IEnMin= 4 EnMin= -1199.64036262814     IErMin= 4 ErrMin= 5.63D-04
 ErrMax= 5.63D-04  0.00D+00 EMaxC= 1.00D-01 BMatC= 6.78D-05 BMatP= 4.11D-03
 IDIUse=3 WtCom= 9.94D-01 WtEn= 5.63D-03
 Coeff-Com: -0.130D-01-0.793D-01-0.516D-01 0.114D+01
 Coeff-En:   0.000D+00 0.000D+00 0.000D+00 0.100D+01
 Coeff:     -0.129D-01-0.788D-01-0.513D-01 0.114D+01
 Gap=     0.212 Goal=   None    Shift=    0.000
 RMSDP=2.11D-04 MaxDP=9.59D-03 DE=-9.97D-03 OVMax= 2.69D-02

 Cycle   5  Pass 1  IDiag  1:
 E= -1199.64099665234     Delta-E=       -0.000634024198 Rises=F Damp=F
 DIIS: error= 4.34D-04 at cycle   5 NSaved=   5.
 NSaved= 5 IEnMin= 5 EnMin= -1199.64099665234     IErMin= 5 ErrMin= 4.34D-04
 ErrMax= 4.34D-04  0.00D+00 EMaxC= 1.00D-01 BMatC= 5.72D-05 BMatP= 6.78D-05
 IDIUse=3 WtCom= 9.96D-01 WtEn= 4.34D-03
 Coeff-Com:  0.732D-02-0.141D+00-0.696D-01 0.594D+00 0.609D+00
 Coeff-En:   0.000D+00 0.000D+00 0.000D+00 0.000D+00 0.100D+01
 Coeff:      0.729D-02-0.140D+00-0.693D-01 0.591D+00 0.611D+00
 Gap=     0.212 Goal=   None    Shift=    0.000
 RMSDP=1.22D-04 MaxDP=6.53D-03 DE=-6.34D-04 OVMax= 1.44D-02

 Cycle   6  Pass 1  IDiag  1:
 E= -1199.64127835359     Delta-E=       -0.000281701250 Rises=F Damp=F
 DIIS: error= 4.31D-04 at cycle   6 NSaved=   6.
 NSaved= 6 IEnMin= 6 EnMin= -1199.64127835359     IErMin= 6 ErrMin= 4.31D-04
 ErrMax= 4.31D-04  0.00D+00 EMaxC= 1.00D-01 BMatC= 2.43D-05 BMatP= 5.72D-05
 IDIUse=3 WtCom= 9.96D-01 WtEn= 4.31D-03
 Coeff-Com:  0.776D-02-0.277D-01 0.101D-01-0.229D+00 0.838D-01 0.116D+01
 Coeff-En:   0.000D+00 0.000D+00 0.000D+00 0.000D+00 0.000D+00 0.100D+01
 Coeff:      0.773D-02-0.276D-01 0.101D-01-0.228D+00 0.835D-01 0.115D+01
 Gap=     0.213 Goal=   None    Shift=    0.000
 RMSDP=2.03D-04 MaxDP=1.00D-02 DE=-2.82D-04 OVMax= 2.59D-02

 Cycle   7  Pass 1  IDiag  1:
 E= -1199.64166730014     Delta-E=       -0.000388946548 Rises=F Damp=F
 DIIS: error= 3.07D-04 at cycle   7 NSaved=   7.
 NSaved= 7 IEnMin= 7 EnMin= -1199.64166730014     IErMin= 7 ErrMin= 3.07D-04
 ErrMax= 3.07D-04  0.00D+00 EMaxC= 1.00D-01 BMatC= 2.87D-05 BMatP= 2.43D-05
 IDIUse=3 WtCom= 9.96D-01 WtEn= 4.31D-03
 Coeff-Com:  0.142D-02 0.510D-01 0.556D-01-0.477D+00-0.372D+00 0.104D+01
 Coeff-Com:  0.705D+00
 Coeff-En:   0.000D+00 0.000D+00 0.000D+00 0.000D+00 0.000D+00 0.000D+00
 Coeff-En:   0.100D+01
 Coeff:      0.141D-02 0.508D-01 0.553D-01-0.475D+00-0.370D+00 0.103D+01
 Coeff:      0.706D+00
 Gap=     0.214 Goal=   None    Shift=    0.000
 RMSDP=1.87D-04 MaxDP=9.35D-03 DE=-3.89D-04 OVMax= 2.38D-02

 Cycle   8  Pass 1  IDiag  1:
 E= -1199.64197311239     Delta-E=       -0.000305812248 Rises=F Damp=F
 DIIS: error= 2.45D-04 at cycle   8 NSaved=   8.
 NSaved= 8 IEnMin= 8 EnMin= -1199.64197311239     IErMin= 8 ErrMin= 2.45D-04
 ErrMax= 2.45D-04  0.00D+00 EMaxC= 1.00D-01 BMatC= 1.36D-05 BMatP= 2.43D-05
 IDIUse=3 WtCom= 9.98D-01 WtEn= 2.45D-03
 Coeff-Com: -0.101D-01 0.732D-01 0.557D-01-0.229D-01-0.494D+00-0.538D+00
 Coeff-Com:  0.119D+00 0.182D+01
 Coeff-En:   0.000D+00 0.000D+00 0.000D+00 0.000D+00 0.000D+00 0.000D+00
 Coeff-En:   0.000D+00 0.100D+01
 Coeff:     -0.101D-01 0.730D-01 0.555D-01-0.229D-01-0.493D+00-0.536D+00
 Coeff:      0.118D+00 0.182D+01
 Gap=     0.214 Goal=   None    Shift=    0.000
 RMSDP=3.91D-04 MaxDP=1.89D-02 DE=-3.06D-04 OVMax= 4.96D-02

 Cycle   9  Pass 1  IDiag  1:
 E= -1199.64239766651     Delta-E=       -0.000424554121 Rises=F Damp=F
 DIIS: error= 2.20D-04 at cycle   9 NSaved=   9.
 NSaved= 9 IEnMin= 9 EnMin= -1199.64239766651     IErMin= 9 ErrMin= 2.20D-04
 ErrMax= 2.20D-04  0.00D+00 EMaxC= 1.00D-01 BMatC= 8.25D-06 BMatP= 1.36D-05
 IDIUse=3 WtCom= 9.98D-01 WtEn= 2.20D-03
 Coeff-Com: -0.198D-02-0.146D-01 0.971D-02 0.163D+00 0.725D-01-0.416D+00
 Coeff-Com: -0.204D+00 0.182D+00 0.121D+01
 Coeff-En:   0.000D+00 0.000D+00 0.000D+00 0.000D+00 0.000D+00 0.000D+00
 Coeff-En:   0.000D+00 0.000D+00 0.100D+01
 Coeff:     -0.197D-02-0.146D-01 0.969D-02 0.162D+00 0.723D-01-0.416D+00
 Coeff:     -0.204D+00 0.181D+00 0.121D+01
 Gap=     0.214 Goal=   None    Shift=    0.000
 RMSDP=1.64D-04 MaxDP=7.05D-03 DE=-4.25D-04 OVMax= 2.01D-02

 Cycle  10  Pass 1  IDiag  1:
 E= -1199.64250134842     Delta-E=       -0.000103681911 Rises=F Damp=F
 DIIS: error= 6.35D-05 at cycle  10 NSaved=  10.
 NSaved=10 IEnMin=10 EnMin= -1199.64250134842     IErMin=10 ErrMin= 6.35D-05
 ErrMax= 6.35D-05  0.00D+00 EMaxC= 1.00D-01 BMatC= 1.82D-06 BMatP= 8.25D-06
 IDIUse=1 WtCom= 1.00D+00 WtEn= 0.00D+00
 Coeff-Com:  0.436D-02-0.452D-01-0.238D-01 0.919D-01 0.265D+00 0.118D+00
 Coeff-Com: -0.274D+00-0.811D+00 0.658D+00 0.102D+01
 Coeff:      0.436D-02-0.452D-01-0.238D-01 0.919D-01 0.265D+00 0.118D+00
 Coeff:     -0.274D+00-0.811D+00 0.658D+00 0.102D+01
 Gap=     0.214 Goal=   None    Shift=    0.000
 RMSDP=1.38D-04 MaxDP=6.05D-03 DE=-1.04D-04 OVMax= 1.73D-02

 Cycle  11  Pass 1  IDiag  1:
 E= -1199.64254026722     Delta-E=       -0.000038918805 Rises=F Damp=F
 DIIS: error= 4.05D-05 at cycle  11 NSaved=  11.
 NSaved=11 IEnMin=11 EnMin= -1199.64254026722     IErMin=11 ErrMin= 4.05D-05
 ErrMax= 4.05D-05  0.00D+00 EMaxC= 1.00D-01 BMatC= 8.33D-07 BMatP= 1.82D-06
 IDIUse=1 WtCom= 1.00D+00 WtEn= 0.00D+00
 Coeff-Com:  0.139D-02-0.104D-01-0.125D-01 0.204D-01 0.349D-01 0.861D-01
 Coeff-Com: -0.142D+00-0.139D+00 0.126D-01 0.351D+00 0.798D+00
 Coeff:      0.139D-02-0.104D-01-0.125D-01 0.204D-01 0.349D-01 0.861D-01
 Coeff:     -0.142D+00-0.139D+00 0.126D-01 0.351D+00 0.798D+00
 Gap=     0.214 Goal=   None    Shift=    0.000
 RMSDP=3.44D-05 MaxDP=1.34D-03 DE=-3.89D-05 OVMax= 5.05D-03

 Cycle  12  Pass 1  IDiag  1:
 E= -1199.64254384002     Delta-E=       -0.000003572798 Rises=F Damp=F
 DIIS: error= 2.03D-05 at cycle  12 NSaved=  12.
 NSaved=12 IEnMin=12 EnMin= -1199.64254384002     IErMin=12 ErrMin= 2.03D-05
 ErrMax= 2.03D-05  0.00D+00 EMaxC= 1.00D-01 BMatC= 1.29D-07 BMatP= 8.33D-07
 IDIUse=1 WtCom= 1.00D+00 WtEn= 0.00D+00
 Coeff-Com: -0.501D-03 0.755D-02 0.288D-02-0.236D-01-0.526D-01 0.217D-01
 Coeff-Com:  0.329D-01 0.143D+00-0.176D+00-0.237D+00 0.340D+00 0.943D+00
 Coeff:     -0.501D-03 0.755D-02 0.288D-02-0.236D-01-0.526D-01 0.217D-01
 Coeff:      0.329D-01 0.143D+00-0.176D+00-0.237D+00 0.340D+00 0.943D+00
 Gap=     0.213 Goal=   None    Shift=    0.000
 RMSDP=1.26D-05 MaxDP=4.39D-04 DE=-3.57D-06 OVMax= 1.45D-03

 Cycle  13  Pass 1  IDiag  1:
 E= -1199.64254446531     Delta-E=       -0.000000625291 Rises=F Damp=F
 DIIS: error= 5.08D-06 at cycle  13 NSaved=  13.
 NSaved=13 IEnMin=13 EnMin= -1199.64254446531     IErMin=13 ErrMin= 5.08D-06
 ErrMax= 5.08D-06  0.00D+00 EMaxC= 1.00D-01 BMatC= 1.96D-08 BMatP= 1.29D-07
 IDIUse=1 WtCom= 1.00D+00 WtEn= 0.00D+00
 Coeff-Com: -0.293D-03 0.255D-02 0.210D-02-0.401D-02-0.146D-01-0.114D-01
[...]
     18 -0.107059D-03  0.113928D-02 -0.131904D-01  0.546442D-03 -0.117924D-01
     19  0.450504D-02 -0.536240D-02 -0.117025D+00 -0.103764D+00  0.145072D+00
     20 -0.840969D-03  0.596097D-02 -0.870693D-01 -0.156769D+00  0.202853D+00
     21  0.251496D-02 -0.560253D-02  0.155601D+00  0.252101D+00 -0.404636D+00
     22 -0.316641D-02  0.873608D-02 -0.532111D-01 -0.460605D-01  0.459154D-01
     23  0.204159D-02  0.473044D-02 -0.150364D+00 -0.327786D+00 -0.104940D-01
     24 -0.325818D-02  0.696818D-03 -0.166262D-01 -0.449771D-01 -0.532758D-01
     25 -0.750533D-02 -0.475869D-03 -0.385249D-03 -0.102215D-02  0.120150D-02
     26 -0.856536D-02 -0.742064D-04 -0.186732D-02 -0.445618D-02  0.225521D-02
     27  0.146140D-03  0.278560D-02  0.350158D-02  0.401473D-02 -0.576747D-02
     28  0.283287D-03 -0.151023D-02 -0.609118D-04  0.191289D-03  0.190215D-02
     29  0.157797D-04  0.483889D-03 -0.130092D-02 -0.528386D-02 -0.532031D-03
     30 -0.260935D-02  0.344868D-02  0.115859D-02 -0.142113D-02 -0.226057D-02
     31  0.456297D-04 -0.150680D-04  0.162876D-03 -0.481275D-02  0.216761D-02
     32  0.200607D-02 -0.312604D-02 -0.157932D-02 -0.450579D-02  0.126128D-02
     33 -0.298314D-02  0.528561D-02  0.127409D-02 -0.377276D-02  0.880676D-04
     34 -0.359990D-03  0.415677D-03 -0.872100D-02 -0.283401D-02 -0.310060D-02
     35 -0.139133D-02  0.266822D-02  0.311287D-01  0.372065D-01  0.145268D-01
     36 -0.443154D-03  0.121671D-02  0.101116D-01  0.162515D-01  0.104475D-01
               16            17            18            19            20 
     16  0.503060D+00
     17  0.383585D-01  0.985750D-01
     18  0.151753D+00  0.487611D-01  0.843836D-01
     19 -0.167793D-02  0.442788D-03  0.368471D-02  0.947957D-01
     20  0.473773D-02  0.236888D-02 -0.137368D-02  0.105032D+00  0.190565D+00
     21  0.889666D-02 -0.176761D-02  0.427015D-02 -0.146777D+00 -0.241001D+00
     22 -0.195103D-01  0.347441D-01  0.226907D-01  0.137327D-01 -0.230348D-01
     23  0.458518D-01 -0.489401D-01 -0.175569D-01 -0.388168D-02 -0.230778D-01
     24  0.109004D-01 -0.251141D-01 -0.103408D-01  0.108886D-01  0.312184D-01
     25 -0.749700D-03 -0.801707D-04 -0.323374D-03 -0.152473D-02 -0.319176D-04
     26 -0.781867D-03 -0.121645D-03 -0.497201D-03  0.694157D-03  0.210562D-02
     27 -0.953030D-04  0.327130D-03  0.534484D-03 -0.510753D-02 -0.235474D-02
     28 -0.308050D-03  0.882071D-05 -0.226141D-04  0.940815D-03 -0.383282D-03
     29 -0.133613D-02  0.289430D-05 -0.444864D-03 -0.922490D-04  0.162953D-02
     30 -0.103770D-02  0.674118D-04 -0.263407D-04 -0.113990D-02 -0.128778D-03
     31 -0.146271D-02 -0.523187D-03 -0.725850D-03  0.959296D-04  0.804007D-03
     32 -0.435607D-03 -0.247015D-03 -0.445153D-03  0.809186D-03  0.137822D-02
     33 -0.144340D-02 -0.419504D-03 -0.457990D-03 -0.905140D-03  0.271217D-03
     34 -0.437487D+00 -0.447994D-01 -0.159264D+00  0.112443D-02  0.451703D-03
     35 -0.469826D-01 -0.497612D-01 -0.296671D-01  0.241857D-02 -0.441492D-02
     36 -0.158381D+00 -0.315276D-01 -0.691791D-01  0.157394D-03 -0.195297D-02
               21            22            23            24            25 
     21  0.405977D+00
     22 -0.260223D-01  0.756497D-01
     23 -0.844610D-02  0.105033D+00  0.410658D+00
     24  0.108330D-01 -0.140004D-02  0.452899D-01  0.563944D-01
     25 -0.251912D-02  0.671697D-03  0.265709D-03 -0.366910D-03  0.163365D+00
     26 -0.250724D-02 -0.680281D-04  0.115793D-02 -0.770609D-03  0.711449D-01
     27  0.223708D-02  0.528729D-03 -0.103778D-02  0.121042D-02 -0.131467D+00
     28 -0.636646D-03  0.134395D-02 -0.843704D-03 -0.877206D-03 -0.329100D-01
     29 -0.998926D-03  0.545622D-03  0.185930D-02  0.223201D-03  0.267782D-02
     30  0.218530D-03  0.942114D-03  0.504816D-03  0.319490D-03  0.481573D-01
     31 -0.126430D-02 -0.617387D-03  0.678196D-04 -0.935476D-03  0.221225D-01
     32 -0.133819D-02 -0.110915D-02  0.848005D-03 -0.524823D-03  0.123813D-01
     33 -0.351155D-03 -0.593500D-03 -0.658378D-04 -0.389265D-03 -0.173181D-01
     34  0.153485D-02 -0.210463D-04 -0.213897D-02 -0.137552D-02  0.698886D-04
     35 -0.752479D-02 -0.367352D-01  0.337738D-02  0.681685D-02  0.305392D-03
     36 -0.383784D-02 -0.146190D-01 -0.549638D-03  0.213984D-02  0.229515D-03
               26            27            28            29            30 
     26  0.143578D+00
     27 -0.122256D+00  0.287785D+00
     28  0.151527D-01  0.469972D-01  0.215645D+00
     29  0.219954D-01 -0.421556D-02 -0.144738D+00  0.221122D+00
     30 -0.178474D-01 -0.356284D-01 -0.893688D-01  0.901786D-01  0.138610D+00
     31  0.348167D-02 -0.189934D-02 -0.492165D-01  0.400389D-01 -0.186928D-01
     32 -0.490298D-02  0.420745D-01  0.498972D-01 -0.165867D-01  0.193302D-01
     33  0.359028D-01 -0.647602D-01 -0.630749D-02  0.840073D-02  0.184107D-01
     34  0.127028D-03  0.552213D-04 -0.147724D-03  0.195669D-03  0.100915D-03
     35  0.210931D-03 -0.564644D-04  0.285594D-03  0.421187D-03  0.397733D-03
     36  0.224793D-03 -0.110357D-03  0.158364D-03  0.295666D-03  0.200587D-03
               31            32            33            34            35 
     31  0.230533D+00
     32 -0.659055D-01  0.999935D-01
     33  0.155147D+00 -0.693730D-01  0.244011D+00
     34  0.292518D-03  0.176644D-03  0.306302D-03  0.446526D+00
     35  0.754153D-03  0.137949D-03  0.660114D-03  0.473530D-01  0.181056D-01
     36  0.383593D-03  0.120116D-03  0.276980D-03  0.161074D+00  0.204546D-01
               36 
     36  0.630590D-01
 Red2BG is reusing G-inverse.
 Leave Link  716 at Fri May 23 05:37:45 2025, MaxMem=  3758096384 cpu:               0.1 elap:               0.0
 (Enter /apps/easybuild-2022/easybuild/software/Compiler/NVHPC/22.11-CUDA-11.7.0/Gaussian/g16c01-CUDA-11.7.0/g16/l9999.exe)

 ----------------------------------------------------------------------

 Electric dipole moment (input orientation):
 (Debye = 10**-18 statcoulomb cm , SI units = C m)
                  (au)            (Debye)         (10**-30 SI)
   Tot        0.474596D+00      0.120630D+01      0.402379D+01
   x          0.334193D-01      0.849434D-01      0.283341D+00
   y         -0.158902D-01     -0.403888D-01     -0.134722D+00
   z          0.473151D+00      0.120263D+01      0.401154D+01

 Dipole polarizability, Alpha (input orientation).
 (esu units = cm**3 , SI units = C**2 m**2 J**-1)
 Alpha(0;0):
               (au)            (10**-24 esu)      (10**-40 SI)
   iso        0.780621D+02      0.115676D+02      0.128707D+02
   aniso      0.655479D+02      0.971319D+01      0.108074D+02
   xx         0.119951D+03      0.177749D+02      0.197772D+02
   yx         0.664616D+01      0.984859D+00      0.109580D+01
   yy         0.556418D+02      0.824526D+01      0.917409D+01
   zx         0.731305D+01      0.108368D+01      0.120576D+01
   zy        -0.404343D+01     -0.599175D+00     -0.666672D+00
   zz         0.585939D+02      0.868272D+01      0.966083D+01

 ----------------------------------------------------------------------

 Dipole orientation:
     6          7.55008366          4.18250296          3.79528144
     6          6.15031879          1.77167304          2.85444292
     9          7.76089223          0.24726217          1.69806841
     9          5.07241591          0.60905280          4.78089124
    16          3.46045231          2.69084260          0.56095691
     8         -0.86020517          2.08439623          0.69339459
     8          4.54043278          4.00476618         -1.59884743
     8          2.38171691          0.10069318          0.27188624
     9          8.88235552          5.21106117          1.95191758
     9          5.87165162          5.84729392          4.64626832
     9          9.09146241          3.54184306          5.66899228
     1         -2.52909244          1.87621566         -0.04399888

 Electric dipole moment (dipole orientation):
 (Debye = 10**-18 statcoulomb cm , SI units = C m)
                  (au)            (Debye)         (10**-30 SI)
   Tot        0.474596D+00      0.120630D+01      0.402379D+01
   x          0.000000D+00      0.000000D+00      0.000000D+00
   y          0.000000D+00      0.000000D+00      0.000000D+00
   z          0.474596D+00      0.120630D+01      0.402379D+01

 Dipole polarizability, Alpha (dipole orientation).
 (esu units = cm**3 , SI units = C**2 m**2 J**-1)
 Alpha(0;0):
               (au)            (10**-24 esu)      (10**-40 SI)
   iso        0.780621D+02      0.115676D+02      0.128707D+02
   aniso      0.655479D+02      0.971319D+01      0.108074D+02
   xx         0.118635D+03      0.175800D+02      0.195603D+02
   yx         0.722276D+01      0.107030D+01      0.119087D+01
   yy         0.553908D+02      0.820807D+01      0.913271D+01
   zx         0.113106D+02      0.167606D+01      0.186487D+01
   zy        -0.342712D+01     -0.507846D+00     -0.565055D+00
   zz         0.601602D+02      0.891482D+01      0.991908D+01

 ----------------------------------------------------------------------
 Unable to Open any file for archive entry.
 1\1\GINC-SPARTAN-BM202\Freq\RwB97XD\6-311++G(d,p)\C2H1F5O3S1\AKHALILOV
 \23-May-2025\0\\#P wb97xd/6-311++G(d,p) Symm(None) scf(xqc) pop(None) 
 opt(NoFreeze,TS,CalcAll,NoEigentest,MaxCycle=999)\\Gaussian input prep
 ared by ASE\\0,1\C,4.1294474246,2.1495163548,1.7950293786\C,3.35399856
 71,0.890271181,1.3081196608\F,4.1601190244,0.1055349684,0.6110321981\F
 ,2.8560716513,0.2405788722,2.3440154166\S,1.849229548,1.4153563563,0.2
 146712994\O,-0.4269306696,1.0895730616,0.4347957356\O,2.339652184,2.14
 92058119,-0.941731886\O,1.2674149812,0.0499254391,0.056472712\F,4.7646
 585797,2.7269927716,0.7911124198\F,3.276215023,3.0138651624,2.33602044
 77\F,5.0125039962,1.7784493064,2.7147488869\H,-1.3354823099,0.99149271
 42,0.1042707302\\Version=ES64L-G16RevC.01\HF=-1199.6588416\RMSD=9.910e
 -09\RMSF=2.421e-06\ZeroPoint=0.0467985\Thermal=0.057957\ETot=-1199.600
 8845\HTot=-1199.5999403\GTot=-1199.6505265\Dipole=0.0334193,-0.0158902
 ,0.4731507\DipoleDeriv=1.8206852,-0.1115046,0.0643205,0.4842517,1.4167
 563,0.2211891,0.1194481,-0.0576109,1.6530439,1.5707849,-0.1895894,-0.0
 05428,-0.8236589,1.0086588,-0.3480735,0.5527276,0.0119526,1.3730409,-0
 .9863745,0.2058236,0.0068935,0.5962817,-0.4957749,-0.1217471,0.2487239
 ,-0.1810988,-0.3507492,-0.2786243,-0.0723661,0.1452592,0.085933,-0.421
 892,0.3846193,-0.2913633,0.2282113,-0.8304769,0.5259883,0.1382769,-0.2
 349349,-1.040811,0.7327052,-0.3347495,-1.0853097,-0.5093484,1.1690626,
 -1.0565384,-0.1616175,0.0229701,0.0937312,-0.3458237,-0.030293,-0.0420
 185,0.0472158,-0.5069418,-0.6508288,-0.2071016,0.1535903,0.0932337,-0.
 5054335,0.1642229,0.4610312,0.4491068,-0.864472,0.6292638,0.3340288,0.
 0382608,0.4128631,-0.4747637,0.1160202,0.1596894,-0.0385133,-0.3322127
 ,-0.5312252,-0.1710608,0.2028145,-0.2830778,-0.4238242,0.1732025,0.200
 3057,0.1389175,-0.5719689,-0.5354534,0.174548,0.1108111,0.1314851,-0.5
 881415,-0.2612228,0.0733619,-0.2058739,-0.4253299,-0.8093341,0.0881906
 ,-0.4189165,-0.0498261,-0.3487712,0.010626,-0.5174337,0.097413,-0.6731
 476,0.3016565,-0.0276279,-0.0856404,0.2995944,0.4463045,0.0262059,0.12
 08374,0.0196284,0.3601515\Polar=119.9507864,6.646156,55.6417556,7.3130
 505,-4.0434314,58.5939039\PG=Unknown\NImag=1\\0.56618500,0.01631828,0.
 56696369,-0.00619616,0.00250198,0.56493018,-0.08164654,-0.04935000,-0.
 03161077,0.42801319,-0.06691014,-0.12301706,-0.04431868,0.02982841,0.5
 3260775,-0.02941524,-0.03056592,-0.05954908,-0.09384334,0.01189271,0.4
 6738118,-0.00126827,0.00295159,0.00341637,-0.14920269,0.10104004,0.083
 27840,0.18970791,0.03718066,-0.02231054,-0.01914487,0.08255698,-0.1861
 7800,-0.08672957,-0.12364357,0.19650899,0.02156795,-0.01606829,-0.0107
 5921,0.05900854,-0.07939921,-0.12534009,-0.12230188,0.11271627,0.16930
 759,-0.00768577,-0.01377199,0.02488596,-0.09973111,-0.05126196,0.05745
 049,-0.02020006,-0.00399504,0.04812627,0.12107162,-0.00982749,-0.01559
 915,0.04092087,-0.05772259,-0.15899839,0.10209915,0.00691805,0.0247595
 0,-0.01526048,0.06909672,0.16395406,0.00410889,0.00812618,-0.01383741,
 0.07865720,0.11127871,-0.20698912,0.03632858,0.00130634,-0.04470190,-0
 .11410902,-0.13925662,0.28812598,-0.01173568,0.00825301,-0.01907597,-0
 .04963882,0.00690890,0.00585245,-0.03806163,0.02267350,-0.00009893,0.0
 0781869,-0.00456104,-0.00106717,0.31682300,-0.00554565,0.02237815,-0.0
 0985958,0.00410232,-0.01150649,0.01840210,0.00170891,-0.00113360,0.003
 69244,0.00711712,-0.00789496,0.00787677,0.20027063,0.46044570,-0.01501
 394,-0.00596208,0.00622786,-0.02830455,0.01498065,-0.01898924,0.007030
 70,-0.00485506,0.00110007,-0.00753436,0.01823686,-0.03156772,-0.127440
 56,-0.24285454,0.51042529,0.00286645,0.00358890,0.00228376,0.00931382,
 -0.00029474,0.01507561,-0.00867766,0.00435080,-0.00034961,0.00059863,0
 .00229411,-0.00570667,-0.04596533,-0.04935092,-0.02189544,0.50305973,0
 .00028806,0.00115508,-0.00055640,-0.00577596,-0.00428678,-0.00071874,-
 0.00088476,0.00143619,0.00033861,0.00071441,0.00051315,0.00002536,-0.0
 2249315,-0.00069448,0.01058427,0.03835849,0.09857498,0.00084209,0.0024
 3170,-0.00072713,-0.00403091,-0.00394242,0.00176865,-0.00253576,0.0022
 9507,0.00042757,0.00112277,-0.00010706,0.00113928,-0.01319036,0.000546
 44,-0.01179242,0.15175255,0.04876110,0.08438364,-0.00176078,-0.0034097
 2,0.00778593,0.00726070,0.00022307,-0.00757367,0.00571457,-0.00297661,
 -0.00072330,-0.00167657,0.00450504,-0.00536240,-0.11702487,-0.10376424
 ,0.14507210,-0.00167793,0.00044279,0.00368471,0.09479570,-0.00042993,-
 0.00706711,0.00253872,-0.00451961,-0.00601780,0.00566071,0.00292868,0.
 00014002,-0.00169125,0.00151510,-0.00084097,0.00596097,-0.08706934,-0.
 15676906,0.20285265,0.00473773,0.00236888,-0.00137368,0.10503167,0.190
 56538,0.00268317,0.00649741,-0.00309193,0.01848860,0.00027140,-0.00992
 460,-0.00556130,0.00219917,0.00390837,-0.00442374,0.00251496,-0.005602
 53,0.15560092,0.25210114,-0.40463558,0.00889666,-0.00176761,0.00427015
 ,-0.14677683,-0.24100123,0.40597652,-0.00525123,0.00320741,-0.00316158
 ,-0.02615604,-0.02563813,-0.03341143,0.01406851,-0.00771747,0.00039479
 ,-0.00069947,-0.00316641,0.00873608,-0.05321107,-0.04606055,0.04591537
 ,-0.01951033,0.03474406,0.02269069,0.01373274,-0.02303481,-0.02602226,
 0.07564967,-0.00070138,-0.00448621,0.00061929,-0.00410275,-0.01360702,
 -0.01398115,0.01020777,-0.00204556,0.00098692,0.00060633,0.00204159,0.
 00473044,-0.15036361,-0.32778597,-0.01049401,0.04585180,-0.04894009,-0
 .01755687,-0.00388168,-0.02307777,-0.00844610,0.10503267,0.41065841,0.
 00060074,0.00234761,-0.00244060,0.00141922,-0.01105272,-0.00710635,0.0
 0131849,-0.00019844,0.00195878,-0.00354603,-0.00325818,0.00069682,-0.0
 1662624,-0.04497711,-0.05327575,0.01090036,-0.02511407,-0.01034082,0.0
 1088862,0.03121836,0.01083299,-0.00140004,0.04528992,0.05639445,-0.141
 12274,-0.06762699,0.07779179,-0.00795935,-0.00833318,0.02913944,0.0027
 5326,-0.00217539,-0.00404882,-0.00433028,-0.00750533,-0.00047587,-0.00
 038525,-0.00102215,0.00120150,-0.00074970,-0.00008017,-0.00032337,-0.0
 0152473,-0.00003192,-0.00251912,0.00067170,0.00026571,-0.00036691,0.16
 336472,-0.06484821,-0.14166914,0.07391249,-0.01562209,-0.00990484,0.03
 197962,-0.00107123,0.00057244,-0.00032229,-0.00634168,-0.00856536,-0.0
 0007421,-0.00186732,-0.00445618,0.00225521,-0.00078187,-0.00012164,-0.
 00049720,0.00069416,0.00210562,-0.00250724,-0.00006803,0.00115793,-0.0
 0077061,0.07114488,0.14357781,0.08236014,0.07955204,-0.18328683,0.0072
 8223,0.00348013,-0.00872931,-0.00272383,0.00032588,0.00372978,0.000568
 18,0.00014614,0.00278560,0.00350158,0.00401473,-0.00576747,-0.00009530
 ,0.00032713,0.00053448,-0.00510753,-0.00235474,0.00223708,0.00052873,-
 0.00103778,0.00121042,-0.13146730,-0.12225601,0.28778526,-0.13792866,0
 .08030722,0.04932878,-0.00235587,0.00186093,0.00127225,0.00244576,-0.0
 0202235,-0.00093572,0.00255259,0.00028329,-0.00151023,-0.00006091,0.00
 019129,0.00190215,-0.00030805,0.00000882,-0.00002261,0.00094081,-0.000
 38328,-0.00063665,0.00134395,-0.00084370,-0.00087721,-0.03291003,0.015
 15271,0.04699720,0.21564462,0.07446497,-0.19110483,-0.06912733,0.03570
 429,-0.02334931,-0.01857898,-0.00369734,-0.01072097,-0.00568437,-0.002
 46295,0.00001578,0.00048389,-0.00130092,-0.00528386,-0.00053203,-0.001
 33613,0.00000289,-0.00044486,-0.00009225,0.00162953,-0.00099893,0.0005
 4562,0.00185930,0.00022320,0.00267782,0.02199542,-0.00421556,-0.144737
 73,0.22112160,0.04605603,-0.06940310,-0.11603040,0.01944162,-0.0136765
 8,-0.00553346,-0.00210948,-0.00539239,-0.00172842,-0.00350787,-0.00260
 935,0.00344868,0.00115859,-0.00142113,-0.00226057,-0.00103770,0.000067
 41,-0.00002634,-0.00113990,-0.00012878,0.00021853,0.00094211,0.0005048
 2,0.00031949,0.04815729,-0.01784740,-0.03562842,-0.08936885,0.09017857
 ,0.13860965,-0.18077206,0.02046769,-0.10513426,-0.02710629,0.01017829,
 -0.02869206,0.00377675,-0.00459673,-0.00033885,0.00219101,0.00004563,-
 0.00001507,0.00016288,-0.00481275,0.00216761,-0.00146271,-0.00052319,-
 0.00072585,0.00009593,0.00080401,-0.00126430,-0.00061739,0.00006782,-0
 .00093548,0.02212252,0.00348167,-0.00189934,-0.04921649,0.04003894,-0.
 01869276,0.23053334,0.02162906,-0.08398031,0.02320555,-0.01413978,0.00
 364830,-0.01200206,-0.00128353,0.00221081,0.00081768,-0.00044050,0.002
 00607,-0.00312604,-0.00157932,-0.00450579,0.00126128,-0.00043561,-0.00
 024702,-0.00044515,0.00080919,0.00137822,-0.00133819,-0.00110915,0.000
 84801,-0.00052482,0.01238133,-0.00490298,0.04207450,0.04989722,-0.0165
 8673,0.01933019,-0.06590554,0.09999347,-0.10661908,0.02145927,-0.18123
 619,-0.02594696,0.01068068,-0.02300596,0.00102410,-0.00076057,0.002128
 92,0.00138247,-0.00298314,0.00528561,0.00127409,-0.00377276,0.00008807
 ,-0.00144340,-0.00041950,-0.00045799,-0.00090514,0.00027122,-0.0003511
 6,-0.00059350,-0.00006584,-0.00038927,-0.01731813,0.03590284,-0.064760
 24,-0.00630749,0.00840073,0.01841067,0.15514674,-0.06937304,0.24401055
 ,0.00012026,-0.00093541,-0.00031387,-0.00079101,0.00239850,0.00086709,
 -0.00105645,0.00036520,-0.00030045,0.00009071,-0.00035999,0.00041568,-
 0.00872100,-0.00283401,-0.00310060,-0.43748692,-0.04479939,-0.15926394
 ,0.00112443,0.00045170,0.00153485,-0.00002105,-0.00213897,-0.00137552,
 0.00006989,0.00012703,0.00005522,-0.00014772,0.00019567,0.00010092,0.0
 0029252,0.00017664,0.00030630,0.44652633,-0.00161822,-0.00126256,-0.00
 069206,-0.00095922,0.00060964,-0.00745787,0.00482540,-0.00323929,-0.00
 012604,-0.00077555,-0.00139133,0.00266822,0.03112865,0.03720655,0.0145
 2680,-0.04698258,-0.04976116,-0.02966707,0.00241857,-0.00441492,-0.007
 52479,-0.03673521,0.00337738,0.00681685,0.00030539,0.00021093,-0.00005
 646,0.00028559,0.00042119,0.00039773,0.00075415,0.00013795,0.00066011,
 0.04735301,0.01810564,-0.00097460,-0.00091681,-0.00019925,-0.00056087,
 -0.00019469,-0.00398264,0.00283559,-0.00176184,-0.00003146,-0.00041512
 ,-0.00044315,0.00121671,0.01011158,0.01625150,0.01044746,-0.15838081,-
 0.03152756,-0.06917908,0.00015739,-0.00195297,-0.00383784,-0.01461897,
 -0.00054964,0.00213984,0.00022951,0.00022479,-0.00011036,0.00015836,0.
 00029567,0.00020059,0.00038359,0.00012012,0.00027698,0.16107433,0.0204
 5459,0.06305904\\-0.00000206,0.00000239,0.00000165,0.00000031,0.000001
 15,0.00000107,0.00000220,0.00000209,0.00000235,-0.00000013,0.00000075,
 0.00000065,0.00000069,-0.00000164,-0.00000113,0.00000102,-0.00000432,-
 0.00000375,0.00000136,-0.00000087,-0.00000055,0.00000322,-0.00000202,-
 0.00000116,-0.00000164,0.00000293,0.00000235,-0.00000396,0.00000133,0.
 00000038,-0.00000275,0.00000386,0.00000293,0.00000173,-0.00000564,-0.0
 0000480\\\@
 The archive entry for this job was punched.


 IN THE FIGHT BETWEEN YOU AND THE WORLD, BACK THE WORLD

                                        -- FRANZ KAFKA
 Job cpu time:       0 days  1 hours 46 minutes 58.9 seconds.
 Elapsed time:       0 days  0 hours 14 minutes 37.7 seconds.
 File lengths (MBytes):  RWF=    104 Int=      0 D2E=      0 Chk=      6 Scr=      1
 Normal termination of Gaussian 16 at Fri May 23 05:37:45 2025.
done
