 Entering Gaussian System, Link 0=g16
 Initial command:
 /apps/easybuild-2022/easybuild/software/Compiler/NVHPC/22.11-CUDA-11.7.0/Gaussian/g16c01-CUDA-11.7.0/g16/l1.exe "/tmp/Gau-83643.inp" -scrdir="/tmp/"
 Entering Link 1 = /apps/easybuild-2022/easybuild/software/Compiler/NVHPC/22.11-CUDA-11.7.0/Gaussian/g16c01-CUDA-11.7.0/g16/l1.exe PID=     83654.
  
 Copyright (c) 1988-2019, Gaussian, Inc.  All Rights Reserved.
  
 This is part of the Gaussian(R) 16 program.  It is based on
 the Gaussian(R) 09 system (copyright 2009, Gaussian, Inc.),
 the Gaussian(R) 03 system (copyright 2003, Gaussian, Inc.),
 the Gaussian(R) 98 system (copyright 1998, Gaussian, Inc.),
 the Gaussian(R) 94 system (copyright 1995, Gaussian, Inc.),
 the Gaussian 92(TM) system (copyright 1992, Gaussian, Inc.),
 the Gaussian 90(TM) system (copyright 1990, Gaussian, Inc.),
 the Gaussian 88(TM) system (copyright 1988, Gaussian, Inc.),
 the Gaussian 86(TM) system (copyright 1986, Carnegie Mellon
 University), and the Gaussian 82(TM) system (copyright 1983,
 Carnegie Mellon University). Gaussian is a federally registered
 trademark of Gaussian, Inc.
  
 This software contains proprietary and confidential information,
 including trade secrets, belonging to Gaussian, Inc.
  
 This software is provided under written license and may be
 used, copied, transmitted, or stored only in accord with that
 written license.
  
 The following legend is applicable only to US Government
 contracts under FAR:
  
                    RESTRICTED RIGHTS LEGEND
  
 Use, reproduction and disclosure by the US Government is
 subject to restrictions as set forth in subparagraphs (a)
 and (c) of the Commercial Computer Software - Restricted
 Rights clause in FAR 52.227-19.
  
 Gaussian, Inc.
 340 Quinnipiac St., Bldg. 40, Wallingford CT 06492
  
  
 ---------------------------------------------------------------
 Warning -- This program may not be used in any manner that
 competes with the business of Gaussian, Inc. or will provide
 assistance to any competitor of Gaussian, Inc.  The licensee
 of this program is prohibited from giving any competitor of
 Gaussian, Inc. access to this program.  By using this program,
 the user acknowledges that Gaussian, Inc. is engaged in the
 business of creating and licensing software in the field of
 computational chemistry and represents and warrants to the
 licensee that it is not a competitor of Gaussian, Inc. and that
 it will not use this program in any manner prohibited above.
 ---------------------------------------------------------------
  

 Cite this work as:
 Gaussian 16, Revision C.01,
 M. J. Frisch, G. W. Trucks, H. B. Schlegel, G. E. Scuseria, 
 M. A. Robb, J. R. Cheeseman, G. Scalmani, V. Barone, 
 G. A. Petersson, H. Nakatsuji, X. Li, M. Caricato, A. V. Marenich, 
 J. Bloino, B. G. Janesko, R. Gomperts, B. Mennucci, H. P. Hratchian, 
 J. V. Ortiz, A. F. Izmaylov, J. L. Sonnenberg, D. Williams-Young, 
 F. Ding, F. Lipparini, F. Egidi, J. Goings, B. Peng, A. Petrone, 
 T. Henderson, D. Ranasinghe, V. G. Zakrzewski, J. Gao, N. Rega, 
 G. Zheng, W. Liang, M. Hada, M. Ehara, K. Toyota, R. Fukuda, 
 J. Hasegawa, M. Ishida, T. Nakajima, Y. Honda, O. Kitao, H. Nakai, 
 T. Vreven, K. Throssell, J. A. Montgomery, Jr., J. E. Peralta, 
 F. Ogliaro, M. J. Bearpark, J. J. Heyd, E. N. Brothers, K. N. Kudin, 
 V. N. Staroverov, T. A. Keith, R. Kobayashi, J. Normand, 
 K. Raghavachari, A. P. Rendell, J. C. Burant, S. S. Iyengar, 
 J. Tomasi, M. Cossi, J. M. Millam, M. Klene, C. Adamo, R. Cammi, 
 J. W. Ochterski, R. L. Martin, K. Morokuma, O. Farkas, 
 J. B. Foresman, and D. J. Fox, Gaussian, Inc., Wallingford CT, 2019.
 
 ******************************************
 Gaussian 16:  ES64L-G16RevC.01  3-Jul-2019
                23-May-2025 
 ******************************************
 %mem=28GB
 %nprocshared=8
 Will use up to    8 processors via shared memory.
 ----------------------------------------------------------------------
 #P wb97xd/6-311++G(d,p) Symm(None) scf(xqc) pop(None) freq opt(CalcFC,
  Tight)
 ----------------------------------------------------------------------
 1/7=10,10=4,18=20,19=15,26=3,38=1/1,3;
 2/9=110,12=2,15=3,17=6,18=5,40=1/2;
 3/5=4,6=6,7=1111,11=2,25=1,30=1,71=2,74=-58,140=1/1,2,3;
 4//1;
 5/5=2,8=3,13=1,38=5/2,8;
 8/6=4,10=90,11=11/1;
 11/6=1,8=1,9=11,15=111,16=1,31=1/1,2,10;
 10/6=1,13=1,31=1/2;
 7/10=1,25=1,30=1/1,2,3,16;
 1/7=10,10=4,18=20,19=15,26=3/3(2);
 2/9=110,15=3/2;
 99//99;
 2/9=110,15=3/2;
 3/5=4,6=6,7=1111,11=2,25=1,30=1,71=1,74=-58/1,2,3;
 4/5=5,16=3,69=1/1;
 5/5=2,8=3,13=1,38=5/2,8;
 7/30=1/1,2,3,16;
 1/7=10,18=20,19=15,26=3/3(-5);
 2/9=110,15=3/2;
 99/9=1/99;
 Leave Link    1 at Fri May 23 07:29:36 2025, MaxMem=  3758096384 cpu:               0.0 elap:               0.0
 (Enter /apps/easybuild-2022/easybuild/software/Compiler/NVHPC/22.11-CUDA-11.7.0/Gaussian/g16c01-CUDA-11.7.0/g16/l101.exe)
 ------------------------------
 Gaussian input prepared by ASE
 ------------------------------
 Symbolic Z-matrix:
 Charge =  0 Multiplicity = 1
 C                    -0.65872  -1.35174   0.35075 
 C                     0.        0.        0. 
 F                    -0.44955   0.46159  -1.1394 
 F                    -0.46902   0.93905   0.98939 
 S                     1.95041   0.        0. 
 O                    -0.72768   2.43058   0.38256 
 O                     2.25019  -0.41945  -1.36045 
 O                     2.04414   1.63158   0. 
 F                    -0.31448  -2.24066  -0.57341 
 F                    -0.23434  -1.76837   1.53598 
 F                    -1.9813   -1.23968   0.37431 
 H                     1.40656   1.95383  -0.66604 
 
 ITRead=  0  0  0  0  0  0  0  0  0  0  0  0
 MicOpt= -1 -1 -1 -1 -1 -1 -1 -1 -1 -1 -1 -1
 NAtoms=     12 NQM=       12 NQMF=       0 NMMI=      0 NMMIF=      0
                NMic=       0 NMicF=      0.
                    Isotopes and Nuclear Properties:
 (Nuclear quadrupole moments (NQMom) in fm**2, nuclear magnetic moments (NMagM)
  in nuclear magnetons)

  Atom         1           2           3           4           5           6           7           8           9          10
 IAtWgt=          12          12          19          19          32          16          16          16          19          19
 AtmWgt=  12.0000000  12.0000000  18.9984032  18.9984032  31.9720718  15.9949146  15.9949146  15.9949146  18.9984032  18.9984032
 NucSpn=           0           0           1           1           0           0           0           0           1           1
 AtZEff=  -0.0000000  -0.0000000  -0.0000000  -0.0000000  -0.0000000  -0.0000000  -0.0000000  -0.0000000  -0.0000000  -0.0000000
 NQMom=    0.0000000   0.0000000   0.0000000   0.0000000   0.0000000   0.0000000   0.0000000   0.0000000   0.0000000   0.0000000
 NMagM=    0.0000000   0.0000000   2.6288670   2.6288670   0.0000000   0.0000000   0.0000000   0.0000000   2.6288670   2.6288670
 AtZNuc=   6.0000000   6.0000000   9.0000000   9.0000000  16.0000000   8.0000000   8.0000000   8.0000000   9.0000000   9.0000000

  Atom        11          12
 IAtWgt=          19           1
 AtmWgt=  18.9984032   1.0078250
 NucSpn=           1           1
 AtZEff=  -0.0000000  -0.0000000
 NQMom=    0.0000000   0.0000000
 NMagM=    2.6288670   2.7928460
 AtZNuc=   9.0000000   1.0000000
 Leave Link  101 at Fri May 23 07:29:36 2025, MaxMem=  3758096384 cpu:               0.2 elap:               0.2
 (Enter /apps/easybuild-2022/easybuild/software/Compiler/NVHPC/22.11-CUDA-11.7.0/Gaussian/g16c01-CUDA-11.7.0/g16/l103.exe)

 GradGradGradGradGradGradGradGradGradGradGradGradGradGradGradGradGradGrad
 Berny optimization.
 Initialization pass.
                           ----------------------------
                           !    Initial Parameters    !
                           ! (Angstroms and Degrees)  !
 --------------------------                            --------------------------
 ! Name  Definition              Value          Derivative Info.                !
 --------------------------------------------------------------------------------
 ! R1    R(1,2)                  1.5441         calculate D2E/DX2 analytically  !
 ! R2    R(1,9)                  1.3277         calculate D2E/DX2 analytically  !
 ! R3    R(1,10)                 1.3261         calculate D2E/DX2 analytically  !
 ! R4    R(1,11)                 1.3275         calculate D2E/DX2 analytically  !
 ! R5    R(2,3)                  1.309          calculate D2E/DX2 analytically  !
 ! R6    R(2,4)                  1.4425         calculate D2E/DX2 analytically  !
 ! R7    R(2,5)                  1.9504         calculate D2E/DX2 analytically  !
 ! R8    R(4,6)                  1.6309         calculate D2E/DX2 analytically  !
 ! R9    R(5,7)                  1.4549         calculate D2E/DX2 analytically  !
 ! R10   R(5,8)                  1.6343         calculate D2E/DX2 analytically  !
 ! R11   R(8,12)                 0.9767         calculate D2E/DX2 analytically  !
 ! A1    A(2,1,9)              108.5059         calculate D2E/DX2 analytically  !
 ! A2    A(2,1,10)             109.9717         calculate D2E/DX2 analytically  !
 ! A3    A(2,1,11)             110.8031         calculate D2E/DX2 analytically  !
 ! A4    A(9,1,10)             109.1968         calculate D2E/DX2 analytically  !
 ! A5    A(9,1,11)             109.0976         calculate D2E/DX2 analytically  !
 ! A6    A(10,1,11)            109.2379         calculate D2E/DX2 analytically  !
 ! A7    A(1,2,3)              111.0959         calculate D2E/DX2 analytically  !
 ! A8    A(1,2,4)              105.9857         calculate D2E/DX2 analytically  !
 ! A9    A(1,2,5)              115.2527         calculate D2E/DX2 analytically  !
 ! A10   A(3,2,4)              104.8218         calculate D2E/DX2 analytically  !
 ! A11   A(3,2,5)              110.0864         calculate D2E/DX2 analytically  !
 ! A12   A(4,2,5)              108.9748         calculate D2E/DX2 analytically  !
 ! A13   A(2,4,6)              113.0626         calculate D2E/DX2 analytically  !
 ! A14   A(2,5,7)              101.8911         calculate D2E/DX2 analytically  !
 ! A15   A(2,5,8)               93.288          calculate D2E/DX2 analytically  !
 ! A16   A(7,5,8)              106.0227         calculate D2E/DX2 analytically  !
 ! A17   A(5,8,12)             106.9747         calculate D2E/DX2 analytically  !
 ! D1    D(9,1,2,3)             63.4834         calculate D2E/DX2 analytically  !
 ! D2    D(9,1,2,4)            176.7954         calculate D2E/DX2 analytically  !
 ! D3    D(9,1,2,5)            -62.6009         calculate D2E/DX2 analytically  !
 ! D4    D(10,1,2,3)          -177.1387         calculate D2E/DX2 analytically  !
 ! D5    D(10,1,2,4)           -63.8268         calculate D2E/DX2 analytically  !
 ! D6    D(10,1,2,5)            56.777          calculate D2E/DX2 analytically  !
 ! D7    D(11,1,2,3)           -56.2686         calculate D2E/DX2 analytically  !
 ! D8    D(11,1,2,4)            57.0434         calculate D2E/DX2 analytically  !
 ! D9    D(11,1,2,5)           177.6471         calculate D2E/DX2 analytically  !
 ! D10   D(1,2,4,6)           -143.3481         calculate D2E/DX2 analytically  !
 ! D11   D(3,2,4,6)            -25.7607         calculate D2E/DX2 analytically  !
 ! D12   D(5,2,4,6)             92.0568         calculate D2E/DX2 analytically  !
 ! D13   D(1,2,5,7)             87.4107         calculate D2E/DX2 analytically  !
 ! D14   D(1,2,5,8)           -165.4538         calculate D2E/DX2 analytically  !
 ! D15   D(3,2,5,7)            -39.189          calculate D2E/DX2 analytically  !
 ! D16   D(3,2,5,8)             67.9465         calculate D2E/DX2 analytically  !
 ! D17   D(4,2,5,7)           -153.6307         calculate D2E/DX2 analytically  !
 ! D18   D(4,2,5,8)            -46.4952         calculate D2E/DX2 analytically  !
 ! D19   D(2,5,8,12)           -45.4784         calculate D2E/DX2 analytically  !
 ! D20   D(7,5,8,12)            57.8912         calculate D2E/DX2 analytically  !
 --------------------------------------------------------------------------------
 Trust Radius=3.00D-01 FncErr=1.00D-07 GrdErr=1.00D-06 EigMax=2.50D+02 EigMin=1.00D-04
 Number of steps in this run=     58 maximum allowed number of steps=    100.
 GradGradGradGradGradGradGradGradGradGradGradGradGradGradGradGradGradGrad

 Leave Link  103 at Fri May 23 07:29:36 2025, MaxMem=  3758096384 cpu:               0.0 elap:               0.0
 (Enter /apps/easybuild-2022/easybuild/software/Compiler/NVHPC/22.11-CUDA-11.7.0/Gaussian/g16c01-CUDA-11.7.0/g16/l202.exe)
                          Input orientation:                          
 ---------------------------------------------------------------------
 Center     Atomic      Atomic             Coordinates (Angstroms)
 Number     Number       Type             X           Y           Z
 ---------------------------------------------------------------------
      1          6           0       -0.658716   -1.351740    0.350747
      2          6           0        0.000000    0.000000    0.000000
      3          9           0       -0.449548    0.461588   -1.139403
      4          9           0       -0.469018    0.939050    0.989386
      5         16           0        1.950409    0.000000    0.000000
      6          8           0       -0.727680    2.430576    0.382564
      7          8           0        2.250186   -0.419451   -1.360447
      8          8           0        2.044141    1.631580    0.000000
      9          9           0       -0.314476   -2.240656   -0.573407
     10          9           0       -0.234342   -1.768366    1.535977
     11          9           0       -1.981299   -1.239685    0.374306
     12          1           0        1.406565    1.953828   -0.666039
 ---------------------------------------------------------------------
                    Distance matrix (angstroms):
                    1          2          3          4          5
     1  C    0.000000
     2  C    1.544063   0.000000
     3  F    2.356365   1.308968   0.000000
     4  F    2.385700   1.442456   2.181764   0.000000
     5  S    2.959350   1.950409   2.696497   2.777468   0.000000
     6  O    3.783078   2.565847   2.504128   1.630885   3.636786
     7  O    3.501294   2.662723   2.848448   3.842046   1.454862
     8  O    4.040873   2.615448   2.980874   2.788271   1.634271
     9  F    1.327680   2.334144   2.764184   3.546370   3.237134
    10  F    1.326062   2.353988   3.489508   2.771992   3.203042
    11  F    1.327530   2.366953   2.744431   2.722536   4.139474
    12  H    4.028153   2.497894   2.428170   2.699633   2.134670
                    6          7          8          9         10
     6  O    0.000000
     7  O    4.475313   0.000000
     8  O    2.909938   2.469818   0.000000
     9  F    4.785919   3.242486   4.570130   0.000000
    10  F    4.382334   4.047434   4.371538   2.163095   0.000000
    11  F    3.878459   4.646247   4.958673   2.162961   2.163526
    12  H    2.425254   2.612729   0.976706   4.534783   4.625599
                   11         12
    11  F    0.000000
    12  H    4.770583   0.000000
 Symmetry turned off by external request.
 Stoichiometry    C2HF5O3S
 Rotational constants (GHZ):           1.2767813           0.8923057           0.6741365
 Leave Link  202 at Fri May 23 07:29:36 2025, MaxMem=  3758096384 cpu:               0.0 elap:               0.0
 (Enter /apps/easybuild-2022/easybuild/software/Compiler/NVHPC/22.11-CUDA-11.7.0/Gaussian/g16c01-CUDA-11.7.0/g16/l301.exe)
 Standard basis: 6-311++G(d,p) (5D, 7F)
 Ernie: Thresh=  0.10000D-02 Tol=  0.10000D-05 Strict=F.
   257 basis functions,   419 primitive gaussians,   268 cartesian basis functions
    49 alpha electrons       49 beta electrons
       nuclear repulsion energy       887.9525454104 Hartrees.
 IExCor= 4639 DFT=T Ex+Corr=wB97XD ExCW=0 ScaHFX=  1.000000
 ScaDFX=  1.000000  1.000000  1.000000  1.000000 ScalE2=  1.000000  1.000000
 IRadAn=      5 IRanWt=     -1 IRanGd=            0 ICorTp=0 IEmpDi=121
 HFx  wShort=  0.000000 wLong=  0.200000 cFull=  0.222036 cShort=  0.000000 cLong=  0.777964
 DFx  wShort=  0.000000 wLong=  0.200000 cFull=  0.000000 cShort=  0.000000 cLong=  1.000000
 NAtoms=   12 NActive=   12 NUniq=   12 SFac= 1.00D+00 NAtFMM=   60 NAOKFM=F Big=F
 Integral buffers will be    131072 words long.
 Raffenetti 2 integral format.
 Two-electron integral symmetry is turned off.
 R6Disp:  Grimme-D2 Dispersion energy=       -0.0055603437 Hartrees.
 Nuclear repulsion after empirical dispersion term =      887.9469850667 Hartrees.
 Leave Link  301 at Fri May 23 07:29:36 2025, MaxMem=  3758096384 cpu:               0.0 elap:               0.0
 (Enter /apps/easybuild-2022/easybuild/software/Compiler/NVHPC/22.11-CUDA-11.7.0/Gaussian/g16c01-CUDA-11.7.0/g16/l302.exe)
 NPDir=0 NMtPBC=     1 NCelOv=     1 NCel=       1 NClECP=     1 NCelD=      1
         NCelK=      1 NCelE2=     1 NClLst=     1 CellRange=     0.0.
 One-electron integrals computed using PRISM.
 NBasis=   257 RedAO= T EigKep=  3.83D-05  NBF=   257
 NBsUse=   257 1.00D-06 EigRej= -1.00D+00 NBFU=   257
 Precomputing XC quadrature grid using
 IXCGrd= 4 IRadAn=           5 IRanWt=          -1 IRanGd=           0 AccXCQ= 0.00D+00.
 Generated NRdTot=       0 NPtTot=           0 NUsed=           0 NTot=          32
 NSgBfM=   268   268   268   268   268 MxSgAt=    12 MxSgA2=    12.
 Leave Link  302 at Fri May 23 07:29:36 2025, MaxMem=  3758096384 cpu:               0.5 elap:               0.1
 (Enter /apps/easybuild-2022/easybuild/software/Compiler/NVHPC/22.11-CUDA-11.7.0/Gaussian/g16c01-CUDA-11.7.0/g16/l303.exe)
 DipDrv:  MaxL=1.
 Leave Link  303 at Fri May 23 07:29:36 2025, MaxMem=  3758096384 cpu:               0.1 elap:               0.0
 (Enter /apps/easybuild-2022/easybuild/software/Compiler/NVHPC/22.11-CUDA-11.7.0/Gaussian/g16c01-CUDA-11.7.0/g16/l401.exe)
 ExpMin= 3.60D-02 ExpMax= 9.34D+04 ExpMxC= 3.17D+03 IAcc=3 IRadAn=         5 AccDes= 0.00D+00
 Harris functional with IExCor= 4639 and IRadAn=       5 diagonalized for initial guess.
 HarFok:  IExCor= 4639 AccDes= 0.00D+00 IRadAn=         5 IDoV= 1 UseB2=F ITyADJ=14
 ICtDFT=  3500011 ScaDFX=  1.000000  1.000000  1.000000  1.000000
 FoFCou: FMM=F IPFlag=           0 FMFlag=      100000 FMFlg1=           0
         NFxFlg=           0 DoJE=T BraDBF=F KetDBF=T FulRan=T
         wScrn=  0.000000 ICntrl=       500 IOpCl=  0 I1Cent=   200000004 NGrid=           0
         NMat0=    1 NMatS0=      1 NMatT0=    0 NMatD0=    1 NMtDS0=    0 NMtDT0=    0
 Symmetry not used in FoFCou.
 Harris En= -1167.00602485426    
 JPrj=0 DoOrth=F DoCkMO=F.
 Leave Link  401 at Fri May 23 07:29:36 2025, MaxMem=  3758096384 cpu:               2.5 elap:               0.4
 (Enter /apps/easybuild-2022/easybuild/software/Compiler/NVHPC/22.11-CUDA-11.7.0/Gaussian/g16c01-CUDA-11.7.0/g16/l502.exe)
 Keep R1 ints in memory in canonical form, NReq=1117474609.
 FoFCou: FMM=F IPFlag=           0 FMFlag=           0 FMFlg1=           0
         NFxFlg=           0 DoJE=F BraDBF=F KetDBF=F FulRan=T
         wScrn=  0.000000 ICntrl=       600 IOpCl=  0 I1Cent=           0 NGrid=           0
         NMat0=    1 NMatS0=  33153 NMatT0=    0 NMatD0=    1 NMtDS0=    0 NMtDT0=    0
 Symmetry not used in FoFCou.
 Two-electron integral symmetry not used.
 Closed shell SCF:
 Using DIIS extrapolation, IDIIS=  1040.
 NGot=  3758096384 LenX=  2658793876 LenY=  2658721611
 Requested convergence on RMS density matrix=1.00D-08 within  32 cycles.
 Requested convergence on MAX density matrix=1.00D-06.
 Requested convergence on             energy=1.00D-06.
 No special actions if energy rises.

 Cycle   1  Pass 1  IDiag  1:
 E= -1198.71492447128    
 DIIS: error= 9.03D-02 at cycle   1 NSaved=   1.
 NSaved= 1 IEnMin= 1 EnMin= -1198.71492447128     IErMin= 1 ErrMin= 9.03D-02
 ErrMax= 9.03D-02  0.00D+00 EMaxC= 1.00D-01 BMatC= 3.57D+00 BMatP= 3.57D+00
 IDIUse=3 WtCom= 9.67D-02 WtEn= 9.03D-01
 Coeff-Com:  0.100D+01
 Coeff-En:   0.100D+01
 Coeff:      0.100D+01
 Gap=     0.302 Goal=   None    Shift=    0.000
 GapD=    0.302 DampG=1.000 DampE=0.500 DampFc=0.5000 IDamp=-1.
 Damping current iteration by 5.00D-01
 RMSDP=7.09D-03 MaxDP=2.97D-01              OVMax= 3.04D-01

 Cycle   2  Pass 1  IDiag  1:
 E= -1199.14553033209     Delta-E=       -0.430605860807 Rises=F Damp=T
 DIIS: error= 3.82D-02 at cycle   2 NSaved=   2.
 NSaved= 2 IEnMin= 2 EnMin= -1199.14553033209     IErMin= 2 ErrMin= 3.82D-02
 ErrMax= 3.82D-02  0.00D+00 EMaxC= 1.00D-01 BMatC= 5.05D-01 BMatP= 3.57D+00
 IDIUse=3 WtCom= 6.18D-01 WtEn= 3.82D-01
 Coeff-Com: -0.289D+00 0.129D+01
 Coeff-En:   0.000D+00 0.100D+01
 Coeff:     -0.178D+00 0.118D+01
 Gap=     0.468 Goal=   None    Shift=    0.000
 RMSDP=3.24D-03 MaxDP=2.47D-01 DE=-4.31D-01 OVMax= 2.13D-01

 Cycle   3  Pass 1  IDiag  1:
 E= -1199.46253037896     Delta-E=       -0.317000046870 Rises=F Damp=F
 DIIS: error= 2.23D-02 at cycle   3 NSaved=   3.
 NSaved= 3 IEnMin= 3 EnMin= -1199.46253037896     IErMin= 3 ErrMin= 2.23D-02
 ErrMax= 2.23D-02  0.00D+00 EMaxC= 1.00D-01 BMatC= 2.13D-01 BMatP= 5.05D-01
 IDIUse=3 WtCom= 7.77D-01 WtEn= 2.23D-01
 Coeff-Com: -0.200D+00 0.603D+00 0.597D+00
 Coeff-En:   0.000D+00 0.000D+00 0.100D+01
 Coeff:     -0.155D+00 0.469D+00 0.687D+00
 Gap=     0.316 Goal=   None    Shift=    0.000
 RMSDP=2.41D-03 MaxDP=1.26D-01 DE=-3.17D-01 OVMax= 1.28D-01

 Cycle   4  Pass 1  IDiag  1:
 E= -1199.54980352100     Delta-E=       -0.087273142042 Rises=F Damp=F
 DIIS: error= 1.33D-02 at cycle   4 NSaved=   4.
 NSaved= 4 IEnMin= 4 EnMin= -1199.54980352100     IErMin= 4 ErrMin= 1.33D-02
 ErrMax= 1.33D-02  0.00D+00 EMaxC= 1.00D-01 BMatC= 7.29D-02 BMatP= 2.13D-01
 IDIUse=3 WtCom= 8.67D-01 WtEn= 1.33D-01
 Coeff-Com: -0.432D-01 0.109D+00 0.392D+00 0.542D+00
 Coeff-En:   0.000D+00 0.000D+00 0.287D+00 0.713D+00
 Coeff:     -0.374D-01 0.943D-01 0.378D+00 0.565D+00
 Gap=     0.320 Goal=   None    Shift=    0.000
 RMSDP=1.17D-03 MaxDP=7.03D-02 DE=-8.73D-02 OVMax= 5.68D-02

 Cycle   5  Pass 1  IDiag  1:
 E= -1199.59588314960     Delta-E=       -0.046079628597 Rises=F Damp=F
 DIIS: error= 2.23D-03 at cycle   5 NSaved=   5.
 NSaved= 5 IEnMin= 5 EnMin= -1199.59588314960     IErMin= 5 ErrMin= 2.23D-03
 ErrMax= 2.23D-03  0.00D+00 EMaxC= 1.00D-01 BMatC= 2.77D-03 BMatP= 7.29D-02
 IDIUse=3 WtCom= 9.78D-01 WtEn= 2.23D-02
 Coeff-Com: -0.326D-02 0.327D-02 0.149D+00 0.294D+00 0.557D+00
 Coeff-En:   0.000D+00 0.000D+00 0.000D+00 0.000D+00 0.100D+01
 Coeff:     -0.319D-02 0.320D-02 0.145D+00 0.287D+00 0.567D+00
 Gap=     0.313 Goal=   None    Shift=    0.000
 RMSDP=2.13D-04 MaxDP=6.09D-03 DE=-4.61D-02 OVMax= 1.14D-02

 Cycle   6  Pass 1  IDiag  1:
 E= -1199.59759886057     Delta-E=       -0.001715710968 Rises=F Damp=F
 DIIS: error= 4.79D-04 at cycle   6 NSaved=   6.
 NSaved= 6 IEnMin= 6 EnMin= -1199.59759886057     IErMin= 6 ErrMin= 4.79D-04
 ErrMax= 4.79D-04  0.00D+00 EMaxC= 1.00D-01 BMatC= 1.52D-04 BMatP= 2.77D-03
 IDIUse=3 WtCom= 9.95D-01 WtEn= 4.79D-03
 Coeff-Com:  0.391D-02-0.102D-01 0.215D-02 0.290D-01 0.207D+00 0.768D+00
 Coeff-En:   0.000D+00 0.000D+00 0.000D+00 0.000D+00 0.000D+00 0.100D+01
 Coeff:      0.390D-02-0.102D-01 0.214D-02 0.289D-01 0.206D+00 0.769D+00
 Gap=     0.314 Goal=   None    Shift=    0.000
 RMSDP=7.98D-05 MaxDP=3.90D-03 DE=-1.72D-03 OVMax= 3.57D-03

 Cycle   7  Pass 1  IDiag  1:
 E= -1199.59772962637     Delta-E=       -0.000130765809 Rises=F Damp=F
 DIIS: error= 2.98D-04 at cycle   7 NSaved=   7.
 NSaved= 7 IEnMin= 7 EnMin= -1199.59772962637     IErMin= 7 ErrMin= 2.98D-04
 ErrMax= 2.98D-04  0.00D+00 EMaxC= 1.00D-01 BMatC= 3.59D-05 BMatP= 1.52D-04
 IDIUse=3 WtCom= 9.97D-01 WtEn= 2.98D-03
 Coeff-Com:  0.274D-02-0.627D-02-0.196D-01-0.254D-01 0.298D-01 0.385D+00
 Coeff-Com:  0.633D+00
 Coeff-En:   0.000D+00 0.000D+00 0.000D+00 0.000D+00 0.000D+00 0.000D+00
 Coeff-En:   0.100D+01
 Coeff:      0.273D-02-0.626D-02-0.196D-01-0.253D-01 0.297D-01 0.384D+00
 Coeff:      0.634D+00
 Gap=     0.314 Goal=   None    Shift=    0.000
 RMSDP=3.39D-05 MaxDP=1.00D-03 DE=-1.31D-04 OVMax= 1.75D-03

 Cycle   8  Pass 1  IDiag  1:
 E= -1199.59776063375     Delta-E=       -0.000031007376 Rises=F Damp=F
 DIIS: error= 6.02D-05 at cycle   8 NSaved=   8.
 NSaved= 8 IEnMin= 8 EnMin= -1199.59776063375     IErMin= 8 ErrMin= 6.02D-05
 ErrMax= 6.02D-05  0.00D+00 EMaxC= 1.00D-01 BMatC= 2.87D-06 BMatP= 3.59D-05
 IDIUse=1 WtCom= 1.00D+00 WtEn= 0.00D+00
 Coeff-Com:  0.425D-03-0.799D-03-0.620D-02-0.115D-01-0.165D-01 0.259D-01
 Coeff-Com:  0.234D+00 0.774D+00
 Coeff:      0.425D-03-0.799D-03-0.620D-02-0.115D-01-0.165D-01 0.259D-01
 Coeff:      0.234D+00 0.774D+00
 Gap=     0.314 Goal=   None    Shift=    0.000
 RMSDP=1.56D-05 MaxDP=1.04D-03 DE=-3.10D-05 OVMax= 1.22D-03

 Cycle   9  Pass 1  IDiag  1:
 E= -1199.59776671621     Delta-E=       -0.000006082459 Rises=F Damp=F
 DIIS: error= 3.69D-05 at cycle   9 NSaved=   9.
 NSaved= 9 IEnMin= 9 EnMin= -1199.59776671621     IErMin= 9 ErrMin= 3.69D-05
 ErrMax= 3.69D-05  0.00D+00 EMaxC= 1.00D-01 BMatC= 4.34D-07 BMatP= 2.87D-06
 IDIUse=1 WtCom= 1.00D+00 WtEn= 0.00D+00
 Coeff-Com: -0.240D-03 0.558D-03 0.968D-03 0.933D-04-0.973D-02-0.509D-01
 Coeff-Com: -0.402D-01 0.183D+00 0.916D+00
 Coeff:     -0.240D-03 0.558D-03 0.968D-03 0.933D-04-0.973D-02-0.509D-01
 Coeff:     -0.402D-01 0.183D+00 0.916D+00
 Gap=     0.314 Goal=   None    Shift=    0.000
 RMSDP=8.61D-06 MaxDP=4.04D-04 DE=-6.08D-06 OVMax= 1.08D-03

 Cycle  10  Pass 1  IDiag  1:
 E= -1199.59776925853     Delta-E=       -0.000002542326 Rises=F Damp=F
 DIIS: error= 2.99D-05 at cycle  10 NSaved=  10.
 NSaved=10 IEnMin=10 EnMin= -1199.59776925853     IErMin=10 ErrMin= 2.99D-05
 ErrMax= 2.99D-05  0.00D+00 EMaxC= 1.00D-01 BMatC= 1.49D-07 BMatP= 4.34D-07
 IDIUse=1 WtCom= 1.00D+00 WtEn= 0.00D+00
 Coeff-Com: -0.918D-04 0.172D-03 0.156D-02 0.275D-02 0.313D-02-0.940D-02
 Coeff-Com: -0.703D-01-0.159D+00 0.111D+00 0.112D+01
 Coeff:     -0.918D-04 0.172D-03 0.156D-02 0.275D-02 0.313D-02-0.940D-02
 Coeff:     -0.703D-01-0.159D+00 0.111D+00 0.112D+01
 Gap=     0.314 Goal=   None    Shift=    0.000
 RMSDP=6.25D-06 MaxDP=2.11D-04 DE=-2.54D-06 OVMax= 1.03D-03

 Cycle  11  Pass 1  IDiag  1:
 E= -1199.59777075562     Delta-E=       -0.000001497083 Rises=F Damp=F
 DIIS: error= 2.31D-05 at cycle  11 NSaved=  11.
 NSaved=11 IEnMin=11 EnMin= -1199.59777075562     IErMin=11 ErrMin= 2.31D-05
 ErrMax= 2.31D-05  0.00D+00 EMaxC= 1.00D-01 BMatC= 5.83D-08 BMatP= 1.49D-07
 IDIUse=1 WtCom= 1.00D+00 WtEn= 0.00D+00
 Coeff-Com:  0.895D-04-0.202D-03-0.239D-03 0.264D-03 0.474D-02 0.215D-01
 Coeff-Com:  0.148D-01-0.846D-01-0.389D+00 0.123D+00 0.131D+01
 Coeff:      0.895D-04-0.202D-03-0.239D-03 0.264D-03 0.474D-02 0.215D-01
 Coeff:      0.148D-01-0.846D-01-0.389D+00 0.123D+00 0.131D+01
 Gap=     0.314 Goal=   None    Shift=    0.000
 RMSDP=5.40D-06 MaxDP=1.93D-04 DE=-1.50D-06 OVMax= 9.65D-04

 Cycle  12  Pass 1  IDiag  1:
 E= -1199.59777153210     Delta-E=       -0.000000776477 Rises=F Damp=F
 DIIS: error= 1.02D-05 at cycle  12 NSaved=  12.
 NSaved=12 IEnMin=12 EnMin= -1199.59777153210     IErMin=12 ErrMin= 1.02D-05
 ErrMax= 1.02D-05  0.00D+00 EMaxC= 1.00D-01 BMatC= 1.99D-08 BMatP= 5.83D-08
 IDIUse=1 WtCom= 1.00D+00 WtEn= 0.00D+00
 Coeff-Com:  0.600D-04-0.124D-03-0.615D-03-0.827D-03 0.877D-03 0.110D-01
 Coeff-Com:  0.344D-01 0.173D-01-0.208D+00-0.374D+00 0.556D+00 0.963D+00
 Coeff:      0.600D-04-0.124D-03-0.615D-03-0.827D-03 0.877D-03 0.110D-01
 Coeff:      0.344D-01 0.173D-01-0.208D+00-0.374D+00 0.556D+00 0.963D+00
 Gap=     0.314 Goal=   None    Shift=    0.000
 RMSDP=3.24D-06 MaxDP=1.12D-04 DE=-7.76D-07 OVMax= 5.67D-04

 Cycle  13  Pass 1  IDiag  1:
 E= -1199.59777171086     Delta-E=       -0.000000178763 Rises=F Damp=F
 DIIS: error= 2.75D-06 at cycle  13 NSaved=  13.
 NSaved=13 IEnMin=13 EnMin= -1199.59777171086     IErMin=13 ErrMin= 2.75D-06
 ErrMax= 2.75D-06  0.00D+00 EMaxC= 1.00D-01 BMatC= 2.00D-09 BMatP= 1.99D-08
 IDIUse=1 WtCom= 1.00D+00 WtEn= 0.00D+00
 Coeff-Com: -0.134D-05 0.203D-05-0.650D-04-0.179D-03-0.656D-03-0.191D-02
 Coeff-Com:  0.409D-02 0.151D-01 0.398D-01-0.981D-01-0.168D+00 0.246D+00
 Coeff-Com:  0.963D+00
 Coeff:     -0.134D-05 0.203D-05-0.650D-04-0.179D-03-0.656D-03-0.191D-02
 Coeff:      0.409D-02 0.151D-01 0.398D-01-0.981D-01-0.168D+00 0.246D+00
 Coeff:      0.963D+00
 Gap=     0.314 Goal=   None    Shift=    0.000
 RMSDP=9.37D-07 MaxDP=3.09D-05 DE=-1.79D-07 OVMax= 1.57D-04

 Cycle  14  Pass 1  IDiag  1:
 E= -1199.59777172210     Delta-E=       -0.000000011241 Rises=F Damp=F
 DIIS: error= 4.14D-07 at cycle  14 NSaved=  14.
 NSaved=14 IEnMin=14 EnMin= -1199.59777172210     IErMin=14 ErrMin= 4.14D-07
 ErrMax= 4.14D-07  0.00D+00 EMaxC= 1.00D-01 BMatC= 1.83D-10 BMatP= 2.00D-09
 IDIUse=1 WtCom= 1.00D+00 WtEn= 0.00D+00
 Coeff-Com: -0.148D-05 0.248D-05-0.494D-05-0.361D-04-0.298D-03-0.926D-03
 Coeff-Com: -0.475D-03 0.487D-02 0.196D-01-0.105D-01-0.789D-01 0.297D-01
 Coeff-Com:  0.297D+00 0.740D+00
 Coeff:     -0.148D-05 0.248D-05-0.494D-05-0.361D-04-0.298D-03-0.926D-03
 Coeff:     -0.475D-03 0.487D-02 0.196D-01-0.105D-01-0.789D-01 0.297D-01
 Coeff:      0.297D+00 0.740D+00
 Gap=     0.314 Goal=   None    Shift=    0.000
 RMSDP=1.13D-07 MaxDP=3.50D-06 DE=-1.12D-08 OVMax= 1.12D-05

 Cycle  15  Pass 1  IDiag  1:
 E= -1199.59777172231     Delta-E=       -0.000000000212 Rises=F Damp=F
 DIIS: error= 3.21D-07 at cycle  15 NSaved=  15.
 NSaved=15 IEnMin=15 EnMin= -1199.59777172231     IErMin=15 ErrMin= 3.21D-07
 ErrMax= 3.21D-07  0.00D+00 EMaxC= 1.00D-01 BMatC= 3.76D-11 BMatP= 1.83D-10
 IDIUse=1 WtCom= 1.00D+00 WtEn= 0.00D+00
 Coeff-Com: -0.704D-06 0.140D-05 0.100D-04 0.153D-04-0.381D-04-0.966D-04
 Coeff-Com: -0.106D-02-0.118D-03 0.224D-02 0.129D-01-0.104D-01-0.287D-01
 Coeff-Com: -0.181D-01 0.336D+00 0.707D+00
 Coeff:     -0.704D-06 0.140D-05 0.100D-04 0.153D-04-0.381D-04-0.966D-04
 Coeff:     -0.106D-02-0.118D-03 0.224D-02 0.129D-01-0.104D-01-0.287D-01
 Coeff:     -0.181D-01 0.336D+00 0.707D+00
 Gap=     0.314 Goal=   None    Shift=    0.000
 RMSDP=5.00D-08 MaxDP=1.93D-06 DE=-2.12D-10 OVMax= 3.07D-06

 Cycle  16  Pass 1  IDiag  1:
 E= -1199.59777172232     Delta-E=       -0.000000000008 Rises=F Damp=F
 DIIS: error= 4.80D-08 at cycle  16 NSaved=  16.
 NSaved=16 IEnMin=16 EnMin= -1199.59777172232     IErMin=16 ErrMin= 4.80D-08
 ErrMax= 4.80D-08  0.00D+00 EMaxC= 1.00D-01 BMatC= 1.85D-12 BMatP= 3.76D-11
 IDIUse=1 WtCom= 1.00D+00 WtEn= 0.00D+00
 Coeff-Com: -0.600D-07 0.190D-06 0.320D-05 0.724D-05 0.150D-04 0.275D-04
 Coeff-Com: -0.243D-03-0.388D-03-0.106D-02 0.435D-02 0.434D-02-0.108D-01
 Coeff-Com: -0.311D-01 0.209D-01 0.176D+00 0.837D+00
 Coeff:     -0.600D-07 0.190D-06 0.320D-05 0.724D-05 0.150D-04 0.275D-04
 Coeff:     -0.243D-03-0.388D-03-0.106D-02 0.435D-02 0.434D-02-0.108D-01
 Coeff:     -0.311D-01 0.209D-01 0.176D+00 0.837D+00
 Gap=     0.314 Goal=   None    Shift=    0.000
 RMSDP=1.91D-08 MaxDP=7.77D-07 DE=-8.19D-12 OVMax= 9.29D-07

 Cycle  17  Pass 1  IDiag  1:
 E= -1199.59777172237     Delta-E=       -0.000000000055 Rises=F Damp=F
 DIIS: error= 2.49D-08 at cycle  17 NSaved=  17.
 NSaved=17 IEnMin=17 EnMin= -1199.59777172237     IErMin=17 ErrMin= 2.49D-08
 ErrMax= 2.49D-08  0.00D+00 EMaxC= 1.00D-01 BMatC= 5.04D-13 BMatP= 1.85D-12
 IDIUse=1 WtCom= 1.00D+00 WtEn= 0.00D+00
 Coeff-Com:  0.361D-07-0.418D-07 0.235D-06 0.119D-05 0.137D-04 0.191D-04
 Coeff-Com:  0.719D-04-0.132D-03-0.582D-03-0.284D-03 0.274D-02 0.204D-03
 Coeff-Com: -0.789D-02-0.397D-01-0.443D-01 0.332D+00 0.757D+00
 Coeff:      0.361D-07-0.418D-07 0.235D-06 0.119D-05 0.137D-04 0.191D-04
 Coeff:      0.719D-04-0.132D-03-0.582D-03-0.284D-03 0.274D-02 0.204D-03
 Coeff:     -0.789D-02-0.397D-01-0.443D-01 0.332D+00 0.757D+00
 Gap=     0.314 Goal=   None    Shift=    0.000
 RMSDP=7.62D-09 MaxDP=2.60D-07 DE=-5.46D-11 OVMax= 3.60D-07

 SCF Done:  E(RwB97XD) =  -1199.59777172     A.U. after   17 cycles
            NFock= 17  Conv=0.76D-08     -V/T= 2.0020
 KE= 1.197243410246D+03 PE=-4.622760811653D+03 EE= 1.337972644618D+03
 Leave Link  502 at Fri May 23 07:29:51 2025, MaxMem=  3758096384 cpu:              73.3 elap:              14.8
 (Enter /apps/easybuild-2022/easybuild/software/Compiler/NVHPC/22.11-CUDA-11.7.0/Gaussian/g16c01-CUDA-11.7.0/g16/l508.exe)
 QCSCF skips out because SCF is already converged.
 Leave Link  508 at Fri May 23 07:29:51 2025, MaxMem=  3758096384 cpu:               0.0 elap:               0.0
 (Enter /apps/easybuild-2022/easybuild/software/Compiler/NVHPC/22.11-CUDA-11.7.0/Gaussian/g16c01-CUDA-11.7.0/g16/l801.exe)
 DoSCS=F DFT=T ScalE2(SS,OS)=  1.000000  1.000000
 Range of M.O.s used for correlation:     1   257
 NBasis=   257 NAE=    49 NBE=    49 NFC=     0 NFV=     0
 NROrb=    257 NOA=    49 NOB=    49 NVA=   208 NVB=   208

 **** Warning!!: The largest alpha MO coefficient is  0.34455924D+02

 Leave Link  801 at Fri May 23 07:29:51 2025, MaxMem=  3758096384 cpu:               0.0 elap:               0.0
 (Enter /apps/easybuild-2022/easybuild/software/Compiler/NVHPC/22.11-CUDA-11.7.0/Gaussian/g16c01-CUDA-11.7.0/g16/l1101.exe)
 Using compressed storage, NAtomX=    12.
 Will process     13 centers per pass.
 R6Disp: Adding Grimme-D2 dispersion energy 1st derivatives to the gradient.
 Leave Link 1101 at Fri May 23 07:29:51 2025, MaxMem=  3758096384 cpu:               0.5 elap:               0.1
 (Enter /apps/easybuild-2022/easybuild/software/Compiler/NVHPC/22.11-CUDA-11.7.0/Gaussian/g16c01-CUDA-11.7.0/g16/l1102.exe)
 Symmetrizing basis deriv contribution to polar:
 IMax=3 JMax=2 DiffMx= 0.00D+00
 Leave Link 1102 at Fri May 23 07:29:51 2025, MaxMem=  3758096384 cpu:               0.0 elap:               0.0
 (Enter /apps/easybuild-2022/easybuild/software/Compiler/NVHPC/22.11-CUDA-11.7.0/Gaussian/g16c01-CUDA-11.7.0/g16/l1110.exe)
 Forming Gx(P) for the SCF density, NAtomX=    12.
 Integral derivatives from FoFJK, PRISM(SPDF).
 Do as many integral derivatives as possible in FoFJK.
 G2DrvN: MDV=    3758095012.
 G2DrvN: will do    13 centers at a time, making    1 passes.
 Calling FoFCou, ICntrl=  3107 FMM=F I1Cent=   0 AccDes= 0.00D+00.
 FoFJK:  IHMeth= 1 ICntrl=    3107 DoSepK=T KAlg= 0 I1Cent=           0 FoldK=F
 IRaf=         1 NMat=       1 IRICut=       1 DoRegI=T DoRafI=F ISym2E= 0 IDoP0=0 IntGTp=1.
 FoFCou: FMM=F IPFlag=           0 FMFlag=      100000 FMFlg1=           0
         NFxFlg=           0 DoJE=F BraDBF=F KetDBF=F FulRan=T
         wScrn=  0.000000 ICntrl=      3507 IOpCl=  0 I1Cent=           0 NGrid=           0
         NMat0=    1 NMatS0=      1 NMatT0=    0 NMatD0=    1 NMtDS0=    0 NMtDT0=    0
 Symmetry not used in FoFCou.
 End of G2Drv F.D. properties file   721 does not exist.
 End of G2Drv F.D. properties file   722 does not exist.
 End of G2Drv F.D. properties file   788 does not exist.
 Leave Link 1110 at Fri May 23 07:30:05 2025, MaxMem=  3758096384 cpu:             103.9 elap:              13.2
 (Enter /apps/easybuild-2022/easybuild/software/Compiler/NVHPC/22.11-CUDA-11.7.0/Gaussian/g16c01-CUDA-11.7.0/g16/l1002.exe)
 Minotr:  Closed shell wavefunction.
          IDoAtm=111111111111
          Direct CPHF calculation.
          Differentiating once with respect to nuclear coordinates.
          Requested convergence is 1.0D-08 RMS, and 1.0D-07 maximum.
          Secondary convergence is 1.0D-12 RMS, and 1.0D-12 maximum.
          NewPWx=T KeepS1=F KeepF1=F KeepIn=T MapXYZ=F SortEE=F KeepMc=T.
         3710 words used for storage of precomputed grid.
 Keep R1 ints in memory in canonical form, NReq=1117480302.
 FoFCou: FMM=F IPFlag=           0 FMFlag=           0 FMFlg1=           0
         NFxFlg=           0 DoJE=F BraDBF=F KetDBF=F FulRan=T
         wScrn=  0.000000 ICntrl=       600 IOpCl=  0 I1Cent=           0 NGrid=           0
         NMat0=    1 NMatS0=  33153 NMatT0=    0 NMatD0=    1 NMtDS0=    0 NMtDT0=    0
 Symmetry not used in FoFCou.
 Two-electron integral symmetry not used.
          MDV=    3758096384 using IRadAn=       1.
          Solving linear equations simultaneously, MaxMat=       0.
          There are    39 degrees of freedom in the 1st order CPHF.  IDoFFX=6 NUNeed=     0.
     33 vectors produced by pass  0 Test12= 2.61D-14 2.56D-09 XBig12= 1.45D-01 8.93D-02.
 AX will form    33 AO Fock derivatives at one time.
     33 vectors produced by pass  1 Test12= 2.61D-14 2.56D-09 XBig12= 2.91D-02 3.59D-02.
     33 vectors produced by pass  2 Test12= 2.61D-14 2.56D-09 XBig12= 1.81D-03 7.69D-03.
     33 vectors produced by pass  3 Test12= 2.61D-14 2.56D-09 XBig12= 3.83D-05 9.95D-04.
     33 vectors produced by pass  4 Test12= 2.61D-14 2.56D-09 XBig12= 6.70D-07 1.18D-04.
     33 vectors produced by pass  5 Test12= 2.61D-14 2.56D-09 XBig12= 9.29D-09 1.40D-05.
     33 vectors produced by pass  6 Test12= 2.61D-14 2.56D-09 XBig12= 8.77D-11 1.30D-06.
     28 vectors produced by pass  7 Test12= 2.61D-14 2.56D-09 XBig12= 6.82D-13 8.65D-08.
      7 vectors produced by pass  8 Test12= 2.61D-14 2.56D-09 XBig12= 4.64D-15 1.02D-08.
 InvSVY:  IOpt=1 It=  1 EMax= 1.11D-15
 Solved reduced A of dimension   266 with    33 vectors.
 End of Minotr F.D. properties file   721 does not exist.
 End of Minotr F.D. properties file   722 does not exist.
 End of Minotr F.D. properties file   788 does not exist.
 Leave Link 1002 at Fri May 23 07:30:29 2025, MaxMem=  3758096384 cpu:             187.6 elap:              24.1
 (Enter /apps/easybuild-2022/easybuild/software/Compiler/NVHPC/22.11-CUDA-11.7.0/Gaussian/g16c01-CUDA-11.7.0/g16/l701.exe)
 ... and contract with generalized density number  0.
 Compute integral second derivatives.
 R6Disp: Adding Grimme-D2 dispersion energy 2nd derivatives to the Hessian.
 Leave Link  701 at Fri May 23 07:30:29 2025, MaxMem=  3758096384 cpu:               0.5 elap:               0.1
 (Enter /apps/easybuild-2022/easybuild/software/Compiler/NVHPC/22.11-CUDA-11.7.0/Gaussian/g16c01-CUDA-11.7.0/g16/l702.exe)
 L702 exits ... SP integral derivatives will be done elsewhere.
 Leave Link  702 at Fri May 23 07:30:29 2025, MaxMem=  3758096384 cpu:               0.0 elap:               0.0
 (Enter /apps/easybuild-2022/easybuild/software/Compiler/NVHPC/22.11-CUDA-11.7.0/Gaussian/g16c01-CUDA-11.7.0/g16/l703.exe)
 Integral derivatives from FoFJK, PRISM(SPDF).
 Compute integral second derivatives, UseDBF=F ICtDFT=           0.
 Calling FoFJK, ICntrl=    100127 FMM=F ISym2X=0 I1Cent= 0 IOpClX= 0 NMat=1 NMatS=1 NMatT=0.
 FoFJK:  IHMeth= 1 ICntrl=  100127 DoSepK=T KAlg= 0 I1Cent=           0 FoldK=F
 IRaf=         1 NMat=       1 IRICut=       1 DoRegI=T DoRafI=F ISym2E= 0 IDoP0=0 IntGTp=1.
 FoFCou: FMM=F IPFlag=           0 FMFlag=      100000 FMFlg1=         800
         NFxFlg=           0 DoJE=F BraDBF=F KetDBF=F FulRan=T
         wScrn=  0.000000 ICntrl=    100527 IOpCl=  0 I1Cent=           0 NGrid=           0
         NMat0=    1 NMatS0=      1 NMatT0=    0 NMatD0=    1 NMtDS0=    0 NMtDT0=    0
 Symmetry not used in FoFCou.
 Leave Link  703 at Fri May 23 07:31:06 2025, MaxMem=  3758096384 cpu:             296.3 elap:              37.4
 (Enter /apps/easybuild-2022/easybuild/software/Compiler/NVHPC/22.11-CUDA-11.7.0/Gaussian/g16c01-CUDA-11.7.0/g16/l716.exe)
 Dipole        = 1.10219114D-01-6.36439304D-01 3.30063115D-01
 Polarizability= 0.00000000D+00 0.00000000D+00 0.00000000D+00
                 0.00000000D+00 0.00000000D+00 0.00000000D+00
 -------------------------------------------------------------------
 Center     Atomic                   Forces (Hartrees/Bohr)
 Number     Number              X              Y              Z
 -------------------------------------------------------------------
      1        6          -0.004869506    0.000240434   -0.002656191
      2        6          -0.006805364    0.009972049    0.002209109
      3        9           0.005416671   -0.009456854   -0.006163261
      4        9           0.005590447   -0.014123283    0.004389486
      5       16          -0.002479690    0.016342094   -0.004414753
      6        8          -0.000350528    0.008590971   -0.000597958
      7        8           0.000779032   -0.013195917   -0.003892075
      8        8          -0.008188757   -0.007584756    0.001743217
      9        9           0.000442036    0.000292592    0.000831660
     10        9           0.001728712    0.000330509    0.002600705
     11        9           0.003035703   -0.000020625    0.000119961
     12        1           0.005701242    0.008612787    0.005830098
 -------------------------------------------------------------------
 Cartesian Forces:  Max     0.016342094 RMS     0.006310140
 Force constants in Cartesian coordinates: 
                1             2             3             4             5 
      1  0.557633D+00
      2  0.142688D-01  0.575391D+00
      3  0.129780D-02 -0.118808D-01  0.560471D+00
      4 -0.863305D-01 -0.309096D-01  0.633433D-02  0.388128D+00
      5 -0.769285D-01 -0.151095D+00  0.267855D-01 -0.401427D-02  0.470067D+00
      6  0.143464D-01  0.273325D-01 -0.449990D-01  0.620878D-01 -0.112215D+00
      7  0.293046D-02 -0.293886D-02  0.443478D-02 -0.108702D+00  0.485320D-01
      8  0.202498D-01 -0.638198D-02  0.378611D-01  0.368588D-01 -0.119342D+00
      9 -0.142594D-01  0.812347D-02 -0.311234D-01 -0.925719D-01  0.114213D+00
     10 -0.169671D-02 -0.494776D-02 -0.758732D-03 -0.636783D-01  0.271478D-01
     11  0.268433D-01 -0.194754D-01 -0.344044D-01  0.128265D-01 -0.866018D-01
     12  0.431523D-02 -0.812631D-02 -0.576655D-02  0.216175D-01 -0.270343D-01
     13 -0.570916D-02 -0.218132D-01  0.612616D-02 -0.761227D-01  0.357673D-01
     14 -0.225974D-01  0.142372D-01  0.159981D-02 -0.190557D-01 -0.303284D-01
     15  0.189227D-02  0.110378D-01  0.122320D-01  0.678408D-02  0.519035D-02
     16 -0.757096D-03  0.154903D-03 -0.234345D-03 -0.551822D-02  0.611269D-02
     17 -0.201126D-02 -0.130530D-02 -0.568989D-03  0.990199D-02 -0.281864D-01
     18  0.256309D-02  0.136879D-02 -0.281034D-02 -0.398443D-02 -0.190176D-02
     19  0.112434D-03  0.366484D-02 -0.462579D-02 -0.346326D-02  0.948561D-03
     20  0.420995D-02 -0.779230D-02 -0.137217D-02  0.777699D-02  0.531412D-02
     21  0.215913D-02 -0.129509D-01 -0.328865D-02  0.486841D-03  0.558155D-03
     22 -0.463156D-02  0.829025D-02 -0.172831D-02 -0.681210D-02 -0.280655D-01
     23  0.145123D-02  0.618103D-02 -0.259417D-02  0.399877D-03 -0.325114D-01
     24 -0.174743D-02 -0.525120D-03 -0.190142D-02 -0.389175D-02 -0.106146D-03
     25 -0.841077D-01  0.262924D-01  0.257446D-01  0.835540D-02 -0.200898D-02
     26  0.252462D-01 -0.206239D+00 -0.100075D+00  0.106201D-01 -0.273315D-01
     27  0.256474D-01 -0.103389D+00 -0.161609D+00  0.366419D-02 -0.993971D-02
     28 -0.896296D-01  0.194848D-01 -0.470579D-01  0.704322D-02 -0.101671D-02
     29  0.160952D-01 -0.120381D+00  0.813212D-01  0.119829D-01 -0.260182D-02
     30 -0.451374D-01  0.850563D-01 -0.244935D+00 -0.119880D-01  0.600296D-02
     31 -0.288465D+00 -0.105532D-01  0.104886D-01 -0.549358D-01  0.181354D-02
     32 -0.739657D-02 -0.810083D-01  0.248423D-02 -0.340757D-01  0.407253D-03
     33  0.908105D-02  0.186802D-02 -0.759321D-01  0.105691D-01  0.127548D-02
     34  0.651201D-03 -0.993351D-03 -0.212010D-04  0.203638D-02 -0.828795D-02
     35  0.569377D-03 -0.213100D-02  0.843576D-03 -0.231183D-02  0.220890D-02
     36 -0.158192D-03  0.208567D-02 -0.337242D-03  0.892211D-03 -0.282792D-02
                6             7             8             9            10 
      6  0.460614D+00
      7 -0.965478D-01  0.999138D-01
      8  0.989885D-01 -0.497641D-01  0.129689D+00
      9 -0.267690D+00  0.107472D+00 -0.111194D+00  0.382345D+00
     10  0.169148D-01  0.107248D-01 -0.660940D-02 -0.107796D-02  0.542775D-01
     11  0.144360D-01 -0.736675D-02  0.117823D-01 -0.265656D-01 -0.280689D-01
     12 -0.814284D-01  0.623995D-02 -0.219127D-01 -0.765691D-01 -0.314988D-01
     13 -0.457807D-01 -0.257420D-01  0.187444D-02 -0.798664D-02  0.134418D-02
     14  0.123097D-01  0.154957D-01 -0.163717D-02  0.643635D-02  0.187434D-01
     15 -0.299954D-01 -0.383280D-01  0.862920D-02 -0.251533D-01  0.102978D-01
     16  0.561555D-02  0.252219D-02  0.252025D-02 -0.809218D-03  0.239831D-02
     17 -0.377080D-01  0.414398D-02 -0.128506D-01  0.707277D-02  0.764561D-03
     18  0.101123D-01  0.216697D-02 -0.130707D-01 -0.419362D-02 -0.715904D-03
     19  0.301898D-01  0.822292D-02 -0.230119D-02  0.467006D-02 -0.832045D-02
     20 -0.722052D-02 -0.265367D-02  0.508183D-03  0.883796D-04  0.154639D-02
     21 -0.153976D-01  0.670056D-02 -0.268456D-02  0.139599D-01  0.647846D-02
     22  0.891265D-02  0.365591D-02  0.199780D-03  0.111338D-02  0.353543D-02
     23  0.102876D-02 -0.192958D-02  0.590029D-02 -0.363039D-02 -0.504859D-02
     24  0.160963D-02  0.309270D-02 -0.230945D-02  0.337021D-02  0.784354D-03
     25 -0.342100D-02  0.449596D-03 -0.122519D-02  0.976582D-03  0.948417D-03
     26 -0.367721D-01 -0.287268D-03  0.420997D-03  0.217312D-02 -0.209318D-02
     27 -0.960169D-02  0.243907D-03 -0.725208D-03  0.538475D-02 -0.111354D-02
     28  0.357671D-02  0.963499D-03 -0.262346D-02  0.174015D-02  0.542251D-03
     29  0.349895D-01 -0.309680D-02 -0.989196D-02  0.587503D-02  0.253056D-03
     30 -0.300533D-01  0.345836D-02  0.703788D-02 -0.193929D-02 -0.299997D-03
     31  0.597971D-03  0.571626D-02 -0.126064D-02  0.231754D-02  0.334362D-02
     32  0.101246D-02  0.257107D-03  0.105930D-02 -0.839233D-03 -0.146434D-02
     33  0.261217D-02  0.990000D-03 -0.218053D-02  0.350116D-02 -0.143513D-02
     34  0.350785D-02 -0.655882D-03  0.208094D-02 -0.158440D-02 -0.341895D-02
     35  0.381849D-02 -0.391850D-03  0.743161D-03 -0.175211D-02 -0.223057D-03
     36  0.421680D-02  0.768062D-04  0.156097D-02 -0.189204D-02  0.242463D-02
               11            12            13            14            15 
     11  0.163155D+00
     12  0.158161D-01  0.196490D+00
     13 -0.817514D-02  0.449011D-02  0.221725D+00
     14 -0.127193D-01 -0.104556D-01 -0.545984D-01  0.366826D+00
     15 -0.370172D-02 -0.279399D-02 -0.431552D-01  0.841072D-01  0.666024D+00
     16  0.576758D-02 -0.401148D-02 -0.121470D-02 -0.538767D-02  0.836326D-03
     17 -0.489918D-01  0.465545D-01  0.325269D-02  0.403692D-02 -0.171181D-02
     18  0.358717D-01 -0.328115D-01 -0.156876D-02  0.803903D-04  0.466493D-03
     19  0.541530D-02  0.300788D-02 -0.742055D-01  0.404701D-01  0.849242D-01
     20 -0.576649D-04 -0.117809D-02  0.310806D-01 -0.972041D-01 -0.117691D+00
     21 -0.381129D-02 -0.260786D-02  0.998872D-01 -0.148118D+00 -0.551620D+00
     22 -0.327191D-02 -0.420189D-02 -0.545846D-01  0.259950D-01 -0.230597D-01
     23  0.106430D-01  0.305194D-02 -0.189651D-01 -0.194149D+00 -0.100957D-01
     24  0.299672D-03  0.126491D-02 -0.744160D-02  0.479749D-01 -0.689777D-01
     25 -0.412461D-02 -0.586608D-03 -0.784176D-03  0.385356D-02  0.244519D-02
     26 -0.130479D-01  0.130592D-02  0.450282D-02 -0.370801D-02 -0.287678D-02
     27 -0.185424D-02  0.179206D-02  0.202083D-02 -0.265385D-02 -0.475410D-02
     28 -0.145925D-02 -0.292898D-03 -0.100791D-02  0.238891D-02 -0.125001D-02
     29 -0.159303D-02 -0.155998D-03  0.240515D-02 -0.179388D-02 -0.132408D-02
     30  0.341788D-02  0.367215D-02 -0.244717D-02  0.817210D-03 -0.199124D-02
     31 -0.226080D-02 -0.565095D-03  0.870603D-02 -0.112568D-02 -0.216907D-02
     32  0.114775D-02  0.135113D-02  0.581392D-02 -0.434643D-02 -0.212418D-02
     33  0.141068D-02  0.135205D-02 -0.182173D-02  0.605720D-03 -0.939142D-03
     34  0.387464D-02  0.148605D-02  0.759533D-02 -0.418186D-02  0.782125D-03
     35 -0.424132D-02  0.783390D-03  0.188550D-01 -0.392132D-01  0.305604D-01
     36 -0.914868D-03 -0.259380D-02 -0.232253D-02  0.729612D-02  0.750243D-02
               16            17            18            19            20 
     16  0.622444D-02
     17 -0.164248D-01  0.879530D-01
     18  0.179390D-02 -0.195456D-01  0.282002D-01
     19  0.194363D-03 -0.124211D-02  0.478688D-03  0.683712D-01
     20  0.104427D-02 -0.184036D-03 -0.132524D-03 -0.422220D-01  0.106214D+00
     21  0.142119D-03  0.200790D-02 -0.642634D-03 -0.125574D+00  0.173061D+00
     22 -0.829173D-02  0.309178D-02  0.225886D-02  0.130787D-01  0.174280D-02
     23  0.797449D-02 -0.409466D-02  0.195629D-04  0.466214D-03 -0.184529D-01
     24 -0.155851D-03  0.909118D-03  0.993072D-03  0.420643D-02 -0.463609D-01
     25  0.193704D-03  0.274260D-03 -0.396828D-03 -0.122008D-02 -0.232020D-02
     26 -0.931171D-03  0.184455D-02 -0.152216D-02 -0.194447D-02  0.195184D-02
     27 -0.495217D-03  0.103317D-02 -0.791167D-04  0.841865D-03  0.217178D-02
     28  0.220017D-03  0.240007D-03 -0.108080D-03  0.468274D-03 -0.599476D-03
     29 -0.295053D-04  0.595894D-03 -0.577004D-03 -0.596996D-03  0.880180D-03
     30 -0.687086D-04  0.715203D-03  0.762528D-03  0.125287D-02 -0.316440D-03
     31  0.904988D-03  0.587668D-03 -0.658029D-03 -0.164313D-02  0.805698D-03
     32  0.784063D-05  0.446101D-03 -0.209356D-03 -0.110534D-02  0.195022D-02
     33 -0.753861D-04  0.252744D-03  0.261545D-03  0.658280D-03 -0.161194D-03
     34  0.312373D-02 -0.257879D-02 -0.182948D-02 -0.159549D-02 -0.411319D-03
     35 -0.808887D-03  0.736309D-03 -0.381434D-03 -0.155288D-02  0.687245D-02
     36 -0.253769D-02  0.988963D-03 -0.258977D-03 -0.301940D-04 -0.888138D-03
               21            22            23            24            25 
     21  0.552276D+00
     22  0.769916D-02  0.271353D+00
     23 -0.131002D-01 -0.783170D-01  0.303417D+00
     24  0.768078D-02  0.216877D+00 -0.810943D-01  0.285420D+00
     25 -0.160744D-02  0.852541D-03 -0.601197D-03 -0.344053D-04  0.101514D+00
     26  0.387324D-02 -0.172263D-02 -0.164683D-03  0.197542D-03 -0.623264D-01
     27  0.356873D-02 -0.806684D-03  0.406404D-03  0.530022D-03 -0.595194D-01
     28  0.274901D-03  0.965721D-03 -0.406386D-03  0.842866D-03  0.143600D-01
     29  0.158664D-02 -0.113926D-02 -0.639185D-03 -0.937293D-05 -0.462728D-02
     30  0.270089D-03  0.109509D-02  0.910613D-03  0.722699D-03 -0.516145D-02
     31  0.345539D-02 -0.228648D-02 -0.470607D-02  0.631765D-03 -0.403579D-01
     32  0.320854D-02 -0.239149D-02 -0.185165D-02  0.117288D-03  0.467845D-01
     33 -0.905668D-04  0.575590D-03  0.785573D-03  0.277891D-03  0.415120D-01
     34 -0.102286D-03 -0.216835D+00  0.996822D-01 -0.213164D+00 -0.203594D-03
     35 -0.363019D-02  0.755882D-01 -0.742775D-01  0.809069D-01  0.291487D-04
     36 -0.410815D-02 -0.208735D+00  0.104312D+00 -0.230990D+00  0.488160D-04
               26            27            28            29            30 
     26  0.230440D+00
     27  0.164225D+00  0.247310D+00
     28 -0.326593D-02 -0.871576D-03  0.112861D+00
     29  0.187783D-01 -0.315314D-01 -0.385854D-01  0.107417D+00
     30 -0.140202D-01 -0.789377D-01  0.981136D-01 -0.994428D-01  0.361883D+00
     31  0.314612D-01  0.300947D-01 -0.464745D-01  0.167784D-01 -0.383062D-01
     32 -0.322252D-02 -0.176909D-01  0.260579D-01  0.879199D-02  0.103288D-01
     33 -0.159623D-01 -0.331416D-02 -0.549915D-01  0.944374D-02 -0.947466D-02
     34  0.740783D-03  0.293541D-03 -0.311934D-03  0.560509D-03 -0.510999D-03
     35  0.277617D-03 -0.519453D-04 -0.215091D-03  0.436848D-03 -0.507435D-03
     36 -0.546625D-03 -0.290363D-03  0.236733D-04 -0.175529D-03  0.205749D-04
               31            32            33            34            35 
     31  0.416086D+00
     32 -0.326298D-01  0.759651D-01
     33 -0.508456D-02  0.294873D-02  0.816458D-01
     34 -0.594134D-03  0.141959D-03  0.222932D-04  0.210208D+00
     35  0.108968D-02  0.661136D-03 -0.286626D-03 -0.906277D-01  0.107927D+00
     36 -0.802938D-03 -0.587520D-03  0.100027D-03  0.211121D+00 -0.110303D+00
               36 
     36  0.228630D+00
 FormGI is forming the generalized inverse of G from B-inverse, IUseBI=4.
 Leave Link  716 at Fri May 23 07:31:06 2025, MaxMem=  3758096384 cpu:               0.0 elap:               0.0
 (Enter /apps/easybuild-2022/easybuild/software/Compiler/NVHPC/22.11-CUDA-11.7.0/Gaussian/g16c01-CUDA-11.7.0/g16/l103.exe)

 GradGradGradGradGradGradGradGradGradGradGradGradGradGradGradGradGradGrad
 Berny optimization.
 Red2BG is reusing G-inverse.
 Internal  Forces:  Max     0.019962801 RMS     0.005596065
 Search for a local minimum.
 Step number   1 out of a maximum of   58
 All quantities printed in internal units (Hartrees-Bohrs-Radians)
 RMS Force = .55961D-02 SwitMx=.10000D-02 MixMth= 1
 Mixed Optimization -- RFO/linear search
 Second derivative matrix not updated -- analytic derivatives used.
 ITU=  0
     Eigenvalues ---   -0.00716   0.00166   0.00307   0.01043   0.03602
     Eigenvalues ---    0.06657   0.08781   0.09409   0.09807   0.10343
     Eigenvalues ---    0.11911   0.12785   0.14532   0.16158   0.17107
     Eigenvalues ---    0.18561   0.20015   0.22677   0.23249   0.24262
     Eigenvalues ---    0.28249   0.36393   0.38040   0.39351   0.39635
     Eigenvalues ---    0.41164   0.48410   0.48616   0.55896   0.64827
 Eigenvalue     1 is  -7.16D-03 should be greater than     0.000000 Eigenvector:
                          D19       D20       D18       D16       D14
   1                    0.40520   0.38984   0.30172   0.29456   0.28821
                          D17       D11       D15       D12       D13
   1                    0.26471  -0.26369   0.25755  -0.25658   0.25120
 RFO step:  Lambda=-1.29362662D-02 EMin=-7.16228081D-03
 Linear search not attempted -- first point.
 Iteration  1 RMS(Cart)=  0.18045844 RMS(Int)=  0.03574240
 Iteration  2 RMS(Cart)=  0.05683543 RMS(Int)=  0.00305796
 Iteration  3 RMS(Cart)=  0.00306475 RMS(Int)=  0.00057095
 Iteration  4 RMS(Cart)=  0.00001688 RMS(Int)=  0.00057072
 Iteration  5 RMS(Cart)=  0.00000000 RMS(Int)=  0.00057072
 ITry= 1 IFail=0 DXMaxC= 9.81D-01 DCOld= 1.00D+10 DXMaxT= 3.00D-01 DXLimC= 3.00D+00 Rises=F
 Variable       Old X    -DE/DX   Delta X   Delta X   Delta X     New X
                                 (Linear)    (Quad)   (Total)
    R1        2.91786  -0.00068   0.00000   0.00133   0.00133   2.91919
    R2        2.50895  -0.00066   0.00000  -0.00386  -0.00386   2.50509
    R3        2.50589   0.00277   0.00000   0.00871   0.00871   2.51460
    R4        2.50867  -0.00302   0.00000  -0.00645  -0.00645   2.50222
    R5        2.47359   0.00017   0.00000  -0.00410  -0.00410   2.46949
    R6        2.72585  -0.00270   0.00000  -0.01957  -0.01957   2.70628
    R7        3.68574  -0.00419   0.00000  -0.02221  -0.02221   3.66353
    R8        3.08193   0.00813   0.00000   0.05377   0.05377   3.13570
    R9        2.74929   0.00760   0.00000   0.00612   0.00612   2.75541
   R10        3.08832   0.00088   0.00000  -0.03789  -0.03789   3.05043
   R11        1.84571  -0.00486   0.00000  -0.00270  -0.00270   1.84301
    A1        1.89379   0.00044   0.00000   0.00310   0.00309   1.89688
    A2        1.91937  -0.00282   0.00000  -0.00918  -0.00918   1.91019
    A3        1.93388   0.00027   0.00000   0.00205   0.00204   1.93592
    A4        1.90584   0.00068   0.00000  -0.00039  -0.00039   1.90546
    A5        1.90411   0.00044   0.00000   0.00445   0.00443   1.90854
    A6        1.90656   0.00102   0.00000   0.00005   0.00004   1.90661
    A7        1.93899  -0.00163   0.00000  -0.00726  -0.00741   1.93158
    A8        1.84980  -0.00402   0.00000  -0.00955  -0.00967   1.84013
    A9        2.01154   0.00286   0.00000  -0.01395  -0.01416   1.99738
   A10        1.82949   0.00911   0.00000   0.04765   0.04771   1.87720
   A11        1.92137  -0.00335   0.00000  -0.00630  -0.00654   1.91483
   A12        1.90197  -0.00232   0.00000  -0.00433  -0.00452   1.89745
   A13        1.97331   0.00708   0.00000  -0.04939  -0.04939   1.92392
   A14        1.77834  -0.00209   0.00000  -0.03148  -0.03363   1.74471
   A15        1.62818   0.00852   0.00000   0.04368   0.04297   1.67115
   A16        1.85044   0.01251   0.00000   0.11729   0.11797   1.96842
   A17        1.86706   0.01996   0.00000   0.18263   0.18263   2.04969
    D1        1.10799  -0.00316   0.00000  -0.00646  -0.00641   1.10159
    D2        3.08566   0.00458   0.00000   0.04080   0.04075   3.12641
    D3       -1.09259   0.00052   0.00000   0.01995   0.01997  -1.07263
    D4       -3.09165  -0.00372   0.00000  -0.01045  -0.01041  -3.10206
    D5       -1.11399   0.00401   0.00000   0.03681   0.03675  -1.07724
    D6        0.99095  -0.00005   0.00000   0.01596   0.01597   1.00691
    D7       -0.98207  -0.00413   0.00000  -0.01511  -0.01507  -0.99714
    D8        0.99559   0.00360   0.00000   0.03215   0.03209   1.02769
    D9        3.10053  -0.00045   0.00000   0.01130   0.01131   3.11184
   D10       -2.50190  -0.00190   0.00000  -0.21439  -0.21439  -2.71629
   D11       -0.44961  -0.00135   0.00000  -0.20491  -0.20498  -0.65459
   D12        1.60669  -0.00154   0.00000  -0.18912  -0.18904   1.41766
   D13        1.52560  -0.00545   0.00000   0.13925   0.13962   1.66523
   D14       -2.88771   0.00920   0.00000   0.26646   0.26612  -2.62160
   D15       -0.68398  -0.00264   0.00000   0.16584   0.16614  -0.51784
   D16        1.18589   0.01201   0.00000   0.29305   0.29264   1.47852
   D17       -2.68136  -0.01042   0.00000   0.11470   0.11510  -2.56626
   D18       -0.81149   0.00423   0.00000   0.24192   0.24160  -0.56990
   D19       -0.79375  -0.00068   0.00000   0.29043   0.28830  -0.50545
   D20        1.01039   0.00135   0.00000   0.28585   0.28798   1.29837
         Item               Value     Threshold  Converged?
 Maximum Force            0.019963     0.000015     NO 
 RMS     Force            0.005596     0.000010     NO 
 Maximum Displacement     0.981287     0.000060     NO 
 RMS     Displacement     0.221241     0.000040     NO 
 Predicted change in Energy=-1.054232D-02
 Lowest energy point so far.  Saving SCF results.
 GradGradGradGradGradGradGradGradGradGradGradGradGradGradGradGradGradGrad

 Leave Link  103 at Fri May 23 07:31:06 2025, MaxMem=  3758096384 cpu:               0.0 elap:               0.0
 (Enter /apps/easybuild-2022/easybuild/software/Compiler/NVHPC/22.11-CUDA-11.7.0/Gaussian/g16c01-CUDA-11.7.0/g16/l202.exe)
                          Input orientation:                          
 ---------------------------------------------------------------------
 Center     Atomic      Atomic             Coordinates (Angstroms)
 Number     Number       Type             X           Y           Z
 ---------------------------------------------------------------------
      1          6           0       -0.652291   -1.364851    0.381675
      2          6           0       -0.035614   -0.031018   -0.094668
      3          9           0       -0.508557    0.303575   -1.266030
      4          9           0       -0.479665    0.952026    0.847326
      5         16           0        1.902372   -0.015345   -0.143175
      6          8           0       -0.468416    2.458866    0.152548
      7          8           0        2.122431   -0.353778   -1.544276
      8          8           0        2.058726    1.564247    0.150330
      9          9           0       -0.294962   -2.323076   -0.461789
     10          9           0       -0.192151   -1.657134    1.595565
     11          9           0       -1.973464   -1.286855    0.422943
     12          1           0        1.337812    2.150066   -0.146764
 ---------------------------------------------------------------------
                    Distance matrix (angstroms):
                    1          2          3          4          5
     1  C    0.000000
     2  C    1.544767   0.000000
     3  F    2.349305   1.306795   0.000000
     4  F    2.369504   1.432099   2.210791   0.000000
     5  S    2.936484   1.938656   2.678636   2.755176   0.000000
     6  O    3.834987   2.539282   2.580553   1.659340   3.439449
     7  O    3.525711   2.619675   2.726102   3.767730   1.458098
     8  O    3.997844   2.644080   3.191600   2.702600   1.614219
     9  F    1.325636   2.335717   2.755308   3.531882   3.202408
    10  F    1.330671   2.350669   3.483276   2.729512   3.178948
    11  F    1.324117   2.366497   2.743729   2.724725   4.118171
    12  H    4.073623   2.578011   2.841015   2.393061   2.237800
                    6          7          8          9         10
     6  O    0.000000
     7  O    4.183619   0.000000
     8  O    2.680820   2.560189   0.000000
     9  F    4.824362   3.300561   4.585393   0.000000
    10  F    4.370363   4.112739   4.187177   2.164891   0.000000
    11  F    4.045826   4.638635   4.945873   2.161914   2.164538
    12  H    1.856719   2.972861   0.975277   4.772232   4.457720
                   11         12
    11  F    0.000000
    12  H    4.806407   0.000000
 Symmetry turned off by external request.
 Stoichiometry    C2HF5O3S
 Rotational constants (GHZ):           1.3216341           0.8724708           0.6915585
 Leave Link  202 at Fri May 23 07:31:06 2025, MaxMem=  3758096384 cpu:               0.0 elap:               0.0
 (Enter /apps/easybuild-2022/easybuild/software/Compiler/NVHPC/22.11-CUDA-11.7.0/Gaussian/g16c01-CUDA-11.7.0/g16/l301.exe)
 Standard basis: 6-311++G(d,p) (5D, 7F)
 Ernie: Thresh=  0.10000D-02 Tol=  0.10000D-05 Strict=F.
   257 basis functions,   419 primitive gaussians,   268 cartesian basis functions
    49 alpha electrons       49 beta electrons
       nuclear repulsion energy       891.3369176342 Hartrees.
 IExCor= 4639 DFT=T Ex+Corr=wB97XD ExCW=0 ScaHFX=  1.000000
 ScaDFX=  1.000000  1.000000  1.000000  1.000000 ScalE2=  1.000000  1.000000
 IRadAn=      5 IRanWt=     -1 IRanGd=            0 ICorTp=0 IEmpDi=121
 HFx  wShort=  0.000000 wLong=  0.200000 cFull=  0.222036 cShort=  0.000000 cLong=  0.777964
 DFx  wShort=  0.000000 wLong=  0.200000 cFull=  0.000000 cShort=  0.000000 cLong=  1.000000
 NAtoms=   12 NActive=   12 NUniq=   12 SFac= 1.00D+00 NAtFMM=   60 NAOKFM=F Big=F
 Integral buffers will be    131072 words long.
 Raffenetti 2 integral format.
 Two-electron integral symmetry is turned off.
 R6Disp:  Grimme-D2 Dispersion energy=       -0.0053925411 Hartrees.
 Nuclear repulsion after empirical dispersion term =      891.3315250931 Hartrees.
 Leave Link  301 at Fri May 23 07:31:06 2025, MaxMem=  3758096384 cpu:               0.0 elap:               0.0
 (Enter /apps/easybuild-2022/easybuild/software/Compiler/NVHPC/22.11-CUDA-11.7.0/Gaussian/g16c01-CUDA-11.7.0/g16/l302.exe)
 NPDir=0 NMtPBC=     1 NCelOv=     1 NCel=       1 NClECP=     1 NCelD=      1
         NCelK=      1 NCelE2=     1 NClLst=     1 CellRange=     0.0.
 One-electron integrals computed using PRISM.
 NBasis=   257 RedAO= T EigKep=  5.35D-05  NBF=   257
 NBsUse=   257 1.00D-06 EigRej= -1.00D+00 NBFU=   257
 Precomputing XC quadrature grid using
 IXCGrd= 4 IRadAn=           5 IRanWt=          -1 IRanGd=           0 AccXCQ= 0.00D+00.
 Generated NRdTot=       0 NPtTot=           0 NUsed=           0 NTot=          32
 NSgBfM=   268   268   268   268   268 MxSgAt=    12 MxSgA2=    12.
 Leave Link  302 at Fri May 23 07:31:06 2025, MaxMem=  3758096384 cpu:               0.5 elap:               0.1
 (Enter /apps/easybuild-2022/easybuild/software/Compiler/NVHPC/22.11-CUDA-11.7.0/Gaussian/g16c01-CUDA-11.7.0/g16/l303.exe)
 DipDrv:  MaxL=1.
 Leave Link  303 at Fri May 23 07:31:06 2025, MaxMem=  3758096384 cpu:               0.1 elap:               0.0
 (Enter /apps/easybuild-2022/easybuild/software/Compiler/NVHPC/22.11-CUDA-11.7.0/Gaussian/g16c01-CUDA-11.7.0/g16/l401.exe)
 Initial guess from the checkpoint file:  "/tmp/Gau-83654.chk"
 B after Tr=     0.002336   -0.031791   -0.090671
         Rot=    0.999791    0.018616   -0.008248    0.001584 Ang=   2.34 deg.
 Guess basis will be translated and rotated to current coordinates.
 JPrj=2 DoOrth=T DoCkMO=T.
 Generating alternative initial guess.
 ExpMin= 3.60D-02 ExpMax= 9.34D+04 ExpMxC= 3.17D+03 IAcc=3 IRadAn=         5 AccDes= 0.00D+00
 Harris functional with IExCor= 4639 and IRadAn=       5 diagonalized for initial guess.
 HarFok:  IExCor= 4639 AccDes= 0.00D+00 IRadAn=         5 IDoV= 1 UseB2=F ITyADJ=14
 ICtDFT=  3500011 ScaDFX=  1.000000  1.000000  1.000000  1.000000
 FoFCou: FMM=F IPFlag=           0 FMFlag=      100000 FMFlg1=           0
         NFxFlg=           0 DoJE=T BraDBF=F KetDBF=T FulRan=T
         wScrn=  0.000000 ICntrl=       500 IOpCl=  0 I1Cent=   200000004 NGrid=           0
         NMat0=    1 NMatS0=      1 NMatT0=    0 NMatD0=    1 NMtDS0=    0 NMtDT0=    0
 Symmetry not used in FoFCou.
 Harris En= -1167.00855280692    
 Leave Link  401 at Fri May 23 07:31:07 2025, MaxMem=  3758096384 cpu:               2.7 elap:               0.4
 (Enter /apps/easybuild-2022/easybuild/software/Compiler/NVHPC/22.11-CUDA-11.7.0/Gaussian/g16c01-CUDA-11.7.0/g16/l502.exe)
 Keep R1 ints in memory in canonical form, NReq=1117474609.
 FoFCou: FMM=F IPFlag=           0 FMFlag=           0 FMFlg1=           0
         NFxFlg=           0 DoJE=F BraDBF=F KetDBF=F FulRan=T
         wScrn=  0.000000 ICntrl=       600 IOpCl=  0 I1Cent=           0 NGrid=           0
         NMat0=    1 NMatS0=  33153 NMatT0=    0 NMatD0=    1 NMtDS0=    0 NMtDT0=    0
 Symmetry not used in FoFCou.
 Two-electron integral symmetry not used.
 Closed shell SCF:
 Using DIIS extrapolation, IDIIS=  1040.
 NGot=  3758096384 LenX=  2658793876 LenY=  2658721611
 Requested convergence on RMS density matrix=1.00D-08 within  32 cycles.
 Requested convergence on MAX density matrix=1.00D-06.
 Requested convergence on             energy=1.00D-06.
 No special actions if energy rises.

 Cycle   1  Pass 1  IDiag  1:
 E= -1199.52011240626    
 DIIS: error= 7.66D-03 at cycle   1 NSaved=   1.
 NSaved= 1 IEnMin= 1 EnMin= -1199.52011240626     IErMin= 1 ErrMin= 7.66D-03
 ErrMax= 7.66D-03  0.00D+00 EMaxC= 1.00D-01 BMatC= 5.50D-02 BMatP= 5.50D-02
 IDIUse=3 WtCom= 9.23D-01 WtEn= 7.66D-02
 Coeff-Com:  0.100D+01
 Coeff-En:   0.100D+01
 Coeff:      0.100D+01
 Gap=     0.702 Goal=   None    Shift=    0.000
 GapD=    0.702 DampG=2.000 DampE=1.000 DampFc=2.0000 IDamp=-1.
 RMSDP=2.62D-03 MaxDP=1.47D-01              OVMax= 6.78D-02

 Cycle   2  Pass 1  IDiag  1:
 E= -1199.59881860150     Delta-E=       -0.078706195245 Rises=F Damp=F
 DIIS: error= 2.71D-03 at cycle   2 NSaved=   2.
 NSaved= 2 IEnMin= 2 EnMin= -1199.59881860150     IErMin= 2 ErrMin= 2.71D-03
 ErrMax= 2.71D-03  0.00D+00 EMaxC= 1.00D-01 BMatC= 4.56D-03 BMatP= 5.50D-02
 IDIUse=3 WtCom= 9.73D-01 WtEn= 2.71D-02
 Coeff-Com: -0.341D-01 0.103D+01
 Coeff-En:   0.000D+00 0.100D+01
 Coeff:     -0.332D-01 0.103D+01
 Gap=     0.275 Goal=   None    Shift=    0.000
 RMSDP=7.43D-04 MaxDP=2.25D-02 DE=-7.87D-02 OVMax= 2.84D-02

 Cycle   3  Pass 1  IDiag  1:
 E= -1199.60157652002     Delta-E=       -0.002757918520 Rises=F Damp=F
 DIIS: error= 5.87D-03 at cycle   3 NSaved=   3.
 NSaved= 3 IEnMin= 3 EnMin= -1199.60157652002     IErMin= 2 ErrMin= 2.71D-03
 ErrMax= 5.87D-03  0.00D+00 EMaxC= 1.00D-01 BMatC= 6.30D-03 BMatP= 4.56D-03
 IDIUse=3 WtCom= 1.15D-01 WtEn= 8.85D-01
 Coeff-Com: -0.976D-01 0.613D+00 0.485D+00
 Coeff-En:   0.000D+00 0.236D+00 0.764D+00
 Coeff:     -0.113D-01 0.279D+00 0.732D+00
 Gap=     0.285 Goal=   None    Shift=    0.000
 RMSDP=5.81D-04 MaxDP=2.37D-02 DE=-2.76D-03 OVMax= 2.96D-02

 Cycle   4  Pass 1  IDiag  1:
 E= -1199.60324926771     Delta-E=       -0.001672747689 Rises=F Damp=F
 DIIS: error= 4.63D-03 at cycle   4 NSaved=   4.
 NSaved= 4 IEnMin= 4 EnMin= -1199.60324926771     IErMin= 2 ErrMin= 2.71D-03
 ErrMax= 4.63D-03  0.00D+00 EMaxC= 1.00D-01 BMatC= 4.62D-03 BMatP= 4.56D-03
 IDIUse=3 WtCom= 9.54D-01 WtEn= 4.63D-02
 Coeff-Com: -0.204D-01-0.120D-01 0.476D+00 0.556D+00
 Coeff-En:   0.000D+00 0.000D+00 0.401D+00 0.599D+00
 Coeff:     -0.195D-01-0.115D-01 0.473D+00 0.558D+00
 Gap=     0.278 Goal=   None    Shift=    0.000
 RMSDP=2.69D-04 MaxDP=7.45D-03 DE=-1.67D-03 OVMax= 1.35D-02

 Cycle   5  Pass 1  IDiag  1:
 E= -1199.60657107737     Delta-E=       -0.003321809655 Rises=F Damp=F
 DIIS: error= 4.48D-04 at cycle   5 NSaved=   5.
 NSaved= 5 IEnMin= 5 EnMin= -1199.60657107737     IErMin= 5 ErrMin= 4.48D-04
 ErrMax= 4.48D-04  0.00D+00 EMaxC= 1.00D-01 BMatC= 9.31D-05 BMatP= 4.56D-03
 IDIUse=3 WtCom= 9.96D-01 WtEn= 4.48D-03
 Coeff-Com:  0.958D-02-0.137D+00 0.169D+00 0.323D+00 0.635D+00
 Coeff-En:   0.000D+00 0.000D+00 0.000D+00 0.000D+00 0.100D+01
 Coeff:      0.954D-02-0.137D+00 0.168D+00 0.322D+00 0.637D+00
 Gap=     0.279 Goal=   None    Shift=    0.000
 RMSDP=6.87D-05 MaxDP=2.07D-03 DE=-3.32D-03 OVMax= 8.80D-03

 Cycle   6  Pass 1  IDiag  1:
 E= -1199.60679932756     Delta-E=       -0.000228250194 Rises=F Damp=F
 DIIS: error= 3.49D-04 at cycle   6 NSaved=   6.
 NSaved= 6 IEnMin= 6 EnMin= -1199.60679932756     IErMin= 6 ErrMin= 3.49D-04
 ErrMax= 3.49D-04  0.00D+00 EMaxC= 1.00D-01 BMatC= 1.59D-05 BMatP= 9.31D-05
 IDIUse=3 WtCom= 9.97D-01 WtEn= 3.49D-03
 Coeff-Com:  0.688D-02-0.193D-01-0.957D-01-0.881D-01 0.908D-01 0.111D+01
 Coeff-En:   0.000D+00 0.000D+00 0.000D+00 0.000D+00 0.000D+00 0.100D+01
 Coeff:      0.685D-02-0.193D-01-0.953D-01-0.878D-01 0.905D-01 0.111D+01
 Gap=     0.279 Goal=   None    Shift=    0.000
 RMSDP=6.02D-05 MaxDP=2.52D-03 DE=-2.28D-04 OVMax= 1.08D-02

 Cycle   7  Pass 1  IDiag  1:
 E= -1199.60695337219     Delta-E=       -0.000154044631 Rises=F Damp=F
 DIIS: error= 2.52D-04 at cycle   7 NSaved=   7.
 NSaved= 7 IEnMin= 7 EnMin= -1199.60695337219     IErMin= 7 ErrMin= 2.52D-04
 ErrMax= 2.52D-04  0.00D+00 EMaxC= 1.00D-01 BMatC= 6.07D-06 BMatP= 1.59D-05
 IDIUse=3 WtCom= 9.97D-01 WtEn= 2.52D-03
 Coeff-Com: -0.346D-02 0.544D-01-0.661D-01-0.127D+00-0.298D+00-0.101D+00
 Coeff-Com:  0.154D+01
 Coeff-En:   0.000D+00 0.000D+00 0.000D+00 0.000D+00 0.000D+00 0.000D+00
 Coeff-En:   0.100D+01
 Coeff:     -0.345D-02 0.542D-01-0.659D-01-0.127D+00-0.297D+00-0.101D+00
 Coeff:      0.154D+01
 Gap=     0.279 Goal=   None    Shift=    0.000
 RMSDP=6.77D-05 MaxDP=2.98D-03 DE=-1.54D-04 OVMax= 1.27D-02

 Cycle   8  Pass 1  IDiag  1:
 E= -1199.60705176060     Delta-E=       -0.000098388407 Rises=F Damp=F
 DIIS: error= 1.21D-04 at cycle   8 NSaved=   8.
 NSaved= 8 IEnMin= 8 EnMin= -1199.60705176060     IErMin= 8 ErrMin= 1.21D-04
 ErrMax= 1.21D-04  0.00D+00 EMaxC= 1.00D-01 BMatC= 2.20D-06 BMatP= 6.07D-06
 IDIUse=3 WtCom= 9.99D-01 WtEn= 1.21D-03
 Coeff-Com: -0.355D-02 0.288D-01 0.509D-02-0.230D-01-0.176D+00-0.435D+00
 Coeff-Com:  0.769D+00 0.834D+00
 Coeff-En:   0.000D+00 0.000D+00 0.000D+00 0.000D+00 0.000D+00 0.000D+00
 Coeff-En:   0.000D+00 0.100D+01
 Coeff:     -0.355D-02 0.288D-01 0.509D-02-0.230D-01-0.176D+00-0.434D+00
 Coeff:      0.769D+00 0.834D+00
 Gap=     0.279 Goal=   None    Shift=    0.000
 RMSDP=3.07D-05 MaxDP=1.34D-03 DE=-9.84D-05 OVMax= 5.71D-03

 Cycle   9  Pass 1  IDiag  1:
 E= -1199.60706888678     Delta-E=       -0.000017126182 Rises=F Damp=F
 DIIS: error= 3.70D-05 at cycle   9 NSaved=   9.
 NSaved= 9 IEnMin= 9 EnMin= -1199.60706888678     IErMin= 9 ErrMin= 3.70D-05
 ErrMax= 3.70D-05  0.00D+00 EMaxC= 1.00D-01 BMatC= 2.83D-07 BMatP= 2.20D-06
 IDIUse=1 WtCom= 1.00D+00 WtEn= 0.00D+00
 Coeff-Com: -0.533D-04-0.533D-02 0.171D-01 0.244D-01 0.201D-01-0.940D-01
 Coeff-Com: -0.140D+00 0.218D+00 0.959D+00
 Coeff:     -0.533D-04-0.533D-02 0.171D-01 0.244D-01 0.201D-01-0.940D-01
 Coeff:     -0.140D+00 0.218D+00 0.959D+00
 Gap=     0.279 Goal=   None    Shift=    0.000
 RMSDP=1.11D-05 MaxDP=4.12D-04 DE=-1.71D-05 OVMax= 1.71D-03

 Cycle  10  Pass 1  IDiag  1:
 E= -1199.60707077515     Delta-E=       -0.000001888372 Rises=F Damp=F
 DIIS: error= 1.34D-05 at cycle  10 NSaved=  10.
 NSaved=10 IEnMin=10 EnMin= -1199.60707077515     IErMin=10 ErrMin= 1.34D-05
 ErrMax= 1.34D-05  0.00D+00 EMaxC= 1.00D-01 BMatC= 8.25D-08 BMatP= 2.83D-07
 IDIUse=1 WtCom= 1.00D+00 WtEn= 0.00D+00
 Coeff-Com:  0.582D-03-0.744D-02 0.702D-02 0.154D-01 0.409D-01 0.274D-01
 Coeff-Com: -0.201D+00-0.352D-01 0.460D+00 0.693D+00
 Coeff:      0.582D-03-0.744D-02 0.702D-02 0.154D-01 0.409D-01 0.274D-01
 Coeff:     -0.201D+00-0.352D-01 0.460D+00 0.693D+00
 Gap=     0.279 Goal=   None    Shift=    0.000
 RMSDP=3.53D-06 MaxDP=1.06D-04 DE=-1.89D-06 OVMax= 4.14D-04

 Cycle  11  Pass 1  IDiag  1:
 E= -1199.60707101223     Delta-E=       -0.000000237079 Rises=F Damp=F
 DIIS: error= 5.74D-06 at cycle  11 NSaved=  11.
 NSaved=11 IEnMin=11 EnMin= -1199.60707101223     IErMin=11 ErrMin= 5.74D-06
 ErrMax= 5.74D-06  0.00D+00 EMaxC= 1.00D-01 BMatC= 1.21D-08 BMatP= 8.25D-08
 IDIUse=1 WtCom= 1.00D+00 WtEn= 0.00D+00
 Coeff-Com:  0.278D-03-0.244D-02-0.604D-04 0.247D-02 0.157D-01 0.287D-01
 Coeff-Com: -0.643D-01-0.529D-01 0.211D-01 0.245D+00 0.806D+00
 Coeff:      0.278D-03-0.244D-02-0.604D-04 0.247D-02 0.157D-01 0.287D-01
 Coeff:     -0.643D-01-0.529D-01 0.211D-01 0.245D+00 0.806D+00
 Gap=     0.279 Goal=   None    Shift=    0.000
 RMSDP=1.52D-06 MaxDP=3.14D-05 DE=-2.37D-07 OVMax= 1.88D-04

 Cycle  12  Pass 1  IDiag  1:
 E= -1199.60707106210     Delta-E=       -0.000000049865 Rises=F Damp=F
 DIIS: error= 3.92D-06 at cycle  12 NSaved=  12.
 NSaved=12 IEnMin=12 EnMin= -1199.60707106210     IErMin=12 ErrMin= 3.92D-06
 ErrMax= 3.92D-06  0.00D+00 EMaxC= 1.00D-01 BMatC= 3.77D-09 BMatP= 1.21D-08
 IDIUse=1 WtCom= 1.00D+00 WtEn= 0.00D+00
 Coeff-Com: -0.221D-04 0.709D-03-0.157D-02-0.245D-02-0.302D-02 0.383D-02
 Coeff-Com:  0.208D-01-0.989D-02-0.947D-01-0.729D-01 0.331D+00 0.828D+00
 Coeff:     -0.221D-04 0.709D-03-0.157D-02-0.245D-02-0.302D-02 0.383D-02
 Coeff:      0.208D-01-0.989D-02-0.947D-01-0.729D-01 0.331D+00 0.828D+00
 Gap=     0.279 Goal=   None    Shift=    0.000
 RMSDP=7.96D-07 MaxDP=1.81D-05 DE=-4.99D-08 OVMax= 1.04D-04

 Cycle  13  Pass 1  IDiag  1:
 E= -1199.60707108061     Delta-E=       -0.000000018515 Rises=F Damp=F
 DIIS: error= 2.97D-06 at cycle  13 NSaved=  13.
 NSaved=13 IEnMin=13 EnMin= -1199.60707108061     IErMin=13 ErrMin= 2.97D-06
 ErrMax= 2.97D-06  0.00D+00 EMaxC= 1.00D-01 BMatC= 9.81D-10 BMatP= 3.77D-09
 IDIUse=1 WtCom= 1.00D+00 WtEn= 0.00D+00
 Coeff-Com: -0.662D-04 0.648D-03-0.138D-03-0.837D-03-0.424D-02-0.646D-02
 Coeff-Com:  0.184D-01 0.119D-01-0.185D-01-0.706D-01-0.189D+00 0.168D+00
 Coeff-Com:  0.109D+01
 Coeff:     -0.662D-04 0.648D-03-0.138D-03-0.837D-03-0.424D-02-0.646D-02
 Coeff:      0.184D-01 0.119D-01-0.185D-01-0.706D-01-0.189D+00 0.168D+00
 Coeff:      0.109D+01
 Gap=     0.279 Goal=   None    Shift=    0.000
 RMSDP=5.62D-07 MaxDP=1.69D-05 DE=-1.85D-08 OVMax= 9.57D-05

 Cycle  14  Pass 1  IDiag  1:
 E= -1199.60707108998     Delta-E=       -0.000000009367 Rises=F Damp=F
 DIIS: error= 1.87D-06 at cycle  14 NSaved=  14.
 NSaved=14 IEnMin=14 EnMin= -1199.60707108998     IErMin=14 ErrMin= 1.87D-06
 ErrMax= 1.87D-06  0.00D+00 EMaxC= 1.00D-01 BMatC= 3.02D-10 BMatP= 9.81D-10
 IDIUse=1 WtCom= 1.00D+00 WtEn= 0.00D+00
 Coeff-Com:  0.197D-04-0.347D-03 0.531D-03 0.949D-03 0.171D-02-0.518D-04
 Coeff-Com: -0.103D-01 0.125D-02 0.322D-01 0.405D-01-0.479D-01-0.317D+00
 Coeff-Com: -0.345D+00 0.164D+01
 Coeff:      0.197D-04-0.347D-03 0.531D-03 0.949D-03 0.171D-02-0.518D-04
 Coeff:     -0.103D-01 0.125D-02 0.322D-01 0.405D-01-0.479D-01-0.317D+00
 Coeff:     -0.345D+00 0.164D+01
 Gap=     0.279 Goal=   None    Shift=    0.000
 RMSDP=4.98D-07 MaxDP=1.75D-05 DE=-9.37D-09 OVMax= 1.03D-04

 Cycle  15  Pass 1  IDiag  1:
 E= -1199.60707109512     Delta-E=       -0.000000005138 Rises=F Damp=F
 DIIS: error= 8.14D-07 at cycle  15 NSaved=  15.
 NSaved=15 IEnMin=15 EnMin= -1199.60707109512     IErMin=15 ErrMin= 8.14D-07
 ErrMax= 8.14D-07  0.00D+00 EMaxC= 1.00D-01 BMatC= 9.91D-11 BMatP= 3.02D-10
 IDIUse=1 WtCom= 1.00D+00 WtEn= 0.00D+00
 Coeff-Com:  0.253D-04-0.301D-03 0.207D-03 0.545D-03 0.187D-02 0.177D-02
 Coeff-Com: -0.853D-02-0.324D-02 0.159D-01 0.316D-01 0.530D-01-0.173D+00
 Coeff-Com: -0.439D+00 0.544D+00 0.975D+00
 Coeff:      0.253D-04-0.301D-03 0.207D-03 0.545D-03 0.187D-02 0.177D-02
 Coeff:     -0.853D-02-0.324D-02 0.159D-01 0.316D-01 0.530D-01-0.173D+00
 Coeff:     -0.439D+00 0.544D+00 0.975D+00
 Gap=     0.279 Goal=   None    Shift=    0.000
 RMSDP=2.28D-07 MaxDP=8.50D-06 DE=-5.14D-09 OVMax= 4.92D-05

 Cycle  16  Pass 1  IDiag  1:
 E= -1199.60707109622     Delta-E=       -0.000000001107 Rises=F Damp=F
 DIIS: error= 3.06D-07 at cycle  16 NSaved=  16.
 NSaved=16 IEnMin=16 EnMin= -1199.60707109622     IErMin=16 ErrMin= 3.06D-07
 ErrMax= 3.06D-07  0.00D+00 EMaxC= 1.00D-01 BMatC= 2.34D-11 BMatP= 9.91D-11
 IDIUse=1 WtCom= 1.00D+00 WtEn= 0.00D+00
 Coeff-Com:  0.518D-06 0.262D-04-0.110D-03-0.148D-03 0.282D-04 0.494D-03
 Coeff-Com:  0.794D-03-0.142D-02-0.490D-02-0.353D-02 0.373D-01 0.360D-01
 Coeff-Com: -0.363D-01-0.342D+00 0.348D+00 0.966D+00
 Coeff:      0.518D-06 0.262D-04-0.110D-03-0.148D-03 0.282D-04 0.494D-03
 Coeff:      0.794D-03-0.142D-02-0.490D-02-0.353D-02 0.373D-01 0.360D-01
 Coeff:     -0.363D-01-0.342D+00 0.348D+00 0.966D+00
 Gap=     0.279 Goal=   None    Shift=    0.000
 RMSDP=1.09D-07 MaxDP=3.76D-06 DE=-1.11D-09 OVMax= 2.21D-05

 Cycle  17  Pass 1  IDiag  1:
 E= -1199.60707109642     Delta-E=       -0.000000000195 Rises=F Damp=F
 DIIS: error= 8.43D-08 at cycle  17 NSaved=  17.
 NSaved=17 IEnMin=17 EnMin= -1199.60707109642     IErMin=17 ErrMin= 8.43D-08
 ErrMax= 8.43D-08  0.00D+00 EMaxC= 1.00D-01 BMatC= 2.47D-12 BMatP= 2.34D-11
 IDIUse=1 WtCom= 1.00D+00 WtEn= 0.00D+00
 Coeff-Com: -0.227D-05 0.354D-04-0.451D-04-0.883D-04-0.198D-03-0.305D-04
 Coeff-Com:  0.996D-03 0.323D-04-0.263D-02-0.388D-02 0.571D-03 0.296D-01
 Coeff-Com:  0.429D-01-0.136D+00-0.509D-01 0.202D+00 0.918D+00
 Coeff:     -0.227D-05 0.354D-04-0.451D-04-0.883D-04-0.198D-03-0.305D-04
 Coeff:      0.996D-03 0.323D-04-0.263D-02-0.388D-02 0.571D-03 0.296D-01
 Coeff:      0.429D-01-0.136D+00-0.509D-01 0.202D+00 0.918D+00
 Gap=     0.279 Goal=   None    Shift=    0.000
 RMSDP=3.07D-08 MaxDP=7.54D-07 DE=-1.95D-10 OVMax= 4.64D-06

 Cycle  18  Pass 1  IDiag  1:
 E= -1199.60707109637     Delta-E=        0.000000000043 Rises=F Damp=F
 DIIS: error= 3.16D-08 at cycle  18 NSaved=  18.
 NSaved=18 IEnMin=17 EnMin= -1199.60707109642     IErMin=18 ErrMin= 3.16D-08
 ErrMax= 3.16D-08  0.00D+00 EMaxC= 1.00D-01 BMatC= 7.13D-13 BMatP= 2.47D-12
 IDIUse=1 WtCom= 1.00D+00 WtEn= 0.00D+00
 Coeff-Com: -0.712D-06 0.666D-05 0.239D-05-0.522D-05-0.666D-04-0.529D-04
 Coeff-Com:  0.140D-03 0.214D-03 0.230D-04-0.539D-03-0.716D-02 0.431D-02
 Coeff-Com:  0.219D-01 0.172D-01-0.912D-01-0.118D+00 0.385D+00 0.788D+00
 Coeff:     -0.712D-06 0.666D-05 0.239D-05-0.522D-05-0.666D-04-0.529D-04
 Coeff:      0.140D-03 0.214D-03 0.230D-04-0.539D-03-0.716D-02 0.431D-02
 Coeff:      0.219D-01 0.172D-01-0.912D-01-0.118D+00 0.385D+00 0.788D+00
 Gap=     0.279 Goal=   None    Shift=    0.000
 RMSDP=1.26D-08 MaxDP=2.46D-07 DE= 4.27D-11 OVMax= 1.47D-06

 Cycle  19  Pass 1  IDiag  1:
 E= -1199.60707109641     Delta-E=       -0.000000000033 Rises=F Damp=F
 DIIS: error= 1.09D-08 at cycle  19 NSaved=  19.
 NSaved=19 IEnMin=17 EnMin= -1199.60707109642     IErMin=19 ErrMin= 1.09D-08
 ErrMax= 1.09D-08  0.00D+00 EMaxC= 1.00D-01 BMatC= 4.76D-14 BMatP= 7.13D-13
 IDIUse=1 WtCom= 1.00D+00 WtEn= 0.00D+00
 Coeff-Com:  0.106D-06-0.257D-05 0.493D-05 0.833D-05 0.143D-04-0.700D-05
 Coeff-Com: -0.882D-04 0.356D-04 0.324D-03 0.267D-03-0.114D-02-0.312D-02
 Coeff-Com: -0.911D-03 0.197D-01-0.101D-01-0.452D-01-0.550D-01 0.108D+00
 Coeff-Com:  0.987D+00
 Coeff:      0.106D-06-0.257D-05 0.493D-05 0.833D-05 0.143D-04-0.700D-05
 Coeff:     -0.882D-04 0.356D-04 0.324D-03 0.267D-03-0.114D-02-0.312D-02
 Coeff:     -0.911D-03 0.197D-01-0.101D-01-0.452D-01-0.550D-01 0.108D+00
 Coeff:      0.987D+00
 Gap=     0.279 Goal=   None    Shift=    0.000
 RMSDP=4.94D-09 MaxDP=9.13D-08 DE=-3.27D-11 OVMax= 5.85D-07

 SCF Done:  E(RwB97XD) =  -1199.60707110     A.U. after   19 cycles
            NFock= 19  Conv=0.49D-08     -V/T= 2.0020
 KE= 1.197255233809D+03 PE=-4.629541519074D+03 EE= 1.341347689076D+03
 Leave Link  502 at Fri May 23 07:31:23 2025, MaxMem=  3758096384 cpu:              79.5 elap:              16.2
 (Enter /apps/easybuild-2022/easybuild/software/Compiler/NVHPC/22.11-CUDA-11.7.0/Gaussian/g16c01-CUDA-11.7.0/g16/l508.exe)
 QCSCF skips out because SCF is already converged.
 Leave Link  508 at Fri May 23 07:31:23 2025, MaxMem=  3758096384 cpu:               0.0 elap:               0.0
[...]
   D13        2.44945   0.00000   0.00000  -0.00003  -0.00003   2.44943
   D14       -1.82980  -0.00000   0.00000  -0.00003  -0.00003  -1.82983
   D15        0.27245  -0.00000   0.00000  -0.00002  -0.00002   0.27243
   D16        2.27639  -0.00000   0.00000  -0.00003  -0.00003   2.27636
   D17       -1.80624  -0.00000   0.00000  -0.00003  -0.00003  -1.80626
   D18        0.19770  -0.00000   0.00000  -0.00003  -0.00003   0.19767
   D19       -0.88725  -0.00000   0.00000  -0.00002  -0.00002  -0.88726
   D20        0.95674  -0.00000   0.00000  -0.00001  -0.00001   0.95673
         Item               Value     Threshold  Converged?
 Maximum Force            0.000005     0.000015     YES
 RMS     Force            0.000001     0.000010     YES
 Maximum Displacement     0.000051     0.000060     YES
 RMS     Displacement     0.000020     0.000040     YES
 Predicted change in Energy=-1.519602D-10
 Optimization completed.
    -- Stationary point found.
                           ----------------------------
                           !   Optimized Parameters   !
                           ! (Angstroms and Degrees)  !
 --------------------------                            --------------------------
 ! Name  Definition              Value          Derivative Info.                !
 --------------------------------------------------------------------------------
 ! R1    R(1,2)                  1.5442         -DE/DX =    0.0                 !
 ! R2    R(1,9)                  1.3302         -DE/DX =    0.0                 !
 ! R3    R(1,10)                 1.3278         -DE/DX =    0.0                 !
 ! R4    R(1,11)                 1.325          -DE/DX =    0.0                 !
 ! R5    R(2,3)                  1.3062         -DE/DX =    0.0                 !
 ! R6    R(2,4)                  1.4367         -DE/DX =    0.0                 !
 ! R7    R(2,5)                  1.967          -DE/DX =    0.0                 !
 ! R8    R(4,6)                  1.6334         -DE/DX =    0.0                 !
 ! R9    R(5,7)                  1.4573         -DE/DX =    0.0                 !
 ! R10   R(5,8)                  1.6056         -DE/DX =    0.0                 !
 ! R11   R(8,12)                 0.9927         -DE/DX =    0.0                 !
 ! A1    A(2,1,9)              107.8884         -DE/DX =    0.0                 !
 ! A2    A(2,1,10)             109.7375         -DE/DX =    0.0                 !
 ! A3    A(2,1,11)             111.6387         -DE/DX =    0.0                 !
 ! A4    A(9,1,10)             109.1329         -DE/DX =    0.0                 !
 ! A5    A(9,1,11)             109.1166         -DE/DX =    0.0                 !
 ! A6    A(10,1,11)            109.283          -DE/DX =    0.0                 !
 ! A7    A(1,2,3)              111.4847         -DE/DX =    0.0                 !
 ! A8    A(1,2,4)              103.6805         -DE/DX =    0.0                 !
 ! A9    A(1,2,5)              112.1458         -DE/DX =    0.0                 !
 ! A10   A(3,2,4)              107.0955         -DE/DX =    0.0                 !
 ! A11   A(3,2,5)              110.0762         -DE/DX =    0.0                 !
 ! A12   A(4,2,5)              112.1132         -DE/DX =    0.0                 !
 ! A13   A(2,4,6)              112.8579         -DE/DX =    0.0                 !
 ! A14   A(2,5,7)              102.1377         -DE/DX =    0.0                 !
 ! A15   A(2,5,8)               95.5023         -DE/DX =    0.0                 !
 ! A16   A(7,5,8)              112.8479         -DE/DX =    0.0                 !
 ! A17   A(5,8,12)             110.7857         -DE/DX =    0.0                 !
 ! D1    D(9,1,2,3)             62.4297         -DE/DX =    0.0                 !
 ! D2    D(9,1,2,4)            177.3242         -DE/DX =    0.0                 !
 ! D3    D(9,1,2,5)            -61.5209         -DE/DX =    0.0                 !
 ! D4    D(10,1,2,3)          -178.773          -DE/DX =    0.0                 !
 ! D5    D(10,1,2,4)           -63.8785         -DE/DX =    0.0                 !
 ! D6    D(10,1,2,5)            57.2764         -DE/DX =    0.0                 !
 ! D7    D(11,1,2,3)           -57.4555         -DE/DX =    0.0                 !
 ! D8    D(11,1,2,4)            57.439          -DE/DX =    0.0                 !
 ! D9    D(11,1,2,5)           178.5939         -DE/DX =    0.0                 !
 ! D10   D(1,2,4,6)            172.7345         -DE/DX =    0.0                 !
 ! D11   D(3,2,4,6)            -69.2809         -DE/DX =    0.0                 !
 ! D12   D(5,2,4,6)             51.5576         -DE/DX =    0.0                 !
 ! D13   D(1,2,5,7)            140.3433         -DE/DX =    0.0                 !
 ! D14   D(1,2,5,8)           -104.8398         -DE/DX =    0.0                 !
 ! D15   D(3,2,5,7)             15.6104         -DE/DX =    0.0                 !
 ! D16   D(3,2,5,8)            130.4273         -DE/DX =    0.0                 !
 ! D17   D(4,2,5,7)           -103.4897         -DE/DX =    0.0                 !
 ! D18   D(4,2,5,8)             11.3273         -DE/DX =    0.0                 !
 ! D19   D(2,5,8,12)           -50.8355         -DE/DX =    0.0                 !
 ! D20   D(7,5,8,12)            54.8173         -DE/DX =    0.0                 !
 --------------------------------------------------------------------------------
 GradGradGradGradGradGradGradGradGradGradGradGradGradGradGradGradGradGrad

 Leave Link  103 at Fri May 23 07:36:49 2025, MaxMem=  3758096384 cpu:               0.0 elap:               0.0
 (Enter /apps/easybuild-2022/easybuild/software/Compiler/NVHPC/22.11-CUDA-11.7.0/Gaussian/g16c01-CUDA-11.7.0/g16/l9999.exe)

 ----------------------------------------------------------------------

 Electric dipole moment (input orientation):
 (Debye = 10**-18 statcoulomb cm , SI units = C m)
                  (au)            (Debye)         (10**-30 SI)
   Tot        0.957047D+00      0.243257D+01      0.811419D+01
   x         -0.285876D+00     -0.726623D+00     -0.242375D+01
   y         -0.697934D+00     -0.177397D+01     -0.591733D+01
   z          0.589155D+00      0.149748D+01      0.499506D+01

 Dipole polarizability, Alpha (input orientation).
 (esu units = cm**3 , SI units = C**2 m**2 J**-1)
 Alpha(0;0):
               (au)            (10**-24 esu)      (10**-40 SI)
   iso        0.614983D+02      0.911311D+01      0.101397D+02
   aniso      0.106510D+02      0.157832D+01      0.175612D+01
   xx         0.633745D+02      0.939113D+01      0.104490D+02
   yx         0.384993D+01      0.570501D+00      0.634768D+00
   yy         0.628163D+02      0.930842D+01      0.103570D+02
   zx        -0.389967D+01     -0.577871D+00     -0.642968D+00
   zy         0.235119D+00      0.348410D-01      0.387659D-01
   zz         0.583041D+02      0.863977D+01      0.961304D+01

 ----------------------------------------------------------------------

 Dipole orientation:
     6         -0.51386951         -0.84495612          2.73803568
     6         -0.40075783         -0.50474949         -0.15788017
     9         -2.05105978         -1.94027515         -1.30195369
     9         -1.18420666          2.06751826         -0.53331822
    16          3.00167316         -1.14301592         -1.51190595
     8         -0.87734045          2.99935823         -3.45986318
     8          2.45136615         -2.49560498         -3.84674752
     8          3.68313846          1.77707975         -1.97464343
     9          0.08220995         -3.23077348          3.25906304
     9          1.15153057          0.67737606          3.83578020
     9         -2.79919402         -0.35571833          3.63661408
     1          2.32338739          2.63260485         -2.94326178

 Electric dipole moment (dipole orientation):
 (Debye = 10**-18 statcoulomb cm , SI units = C m)
                  (au)            (Debye)         (10**-30 SI)
   Tot        0.957047D+00      0.243257D+01      0.811419D+01
   x          0.000000D+00      0.000000D+00      0.000000D+00
   y          0.000000D+00      0.000000D+00      0.000000D+00
   z          0.957047D+00      0.243257D+01      0.811419D+01

 Dipole polarizability, Alpha (dipole orientation).
 (esu units = cm**3 , SI units = C**2 m**2 J**-1)
 Alpha(0;0):
               (au)            (10**-24 esu)      (10**-40 SI)
   iso        0.614983D+02      0.911311D+01      0.101397D+02
   aniso      0.106510D+02      0.157832D+01      0.175612D+01
   xx         0.597111D+02      0.884827D+01      0.984503D+01
   yx        -0.104979D+01     -0.155562D+00     -0.173086D+00
   yy         0.607273D+02      0.899885D+01      0.100126D+02
   zx        -0.547554D+01     -0.811391D+00     -0.902794D+00
   zy        -0.125088D+01     -0.185361D+00     -0.206242D+00
   zz         0.640565D+02      0.949219D+01      0.105615D+02

 ----------------------------------------------------------------------
 Unable to Open any file for archive entry.
 1\1\GINC-SPARTAN-BM178\Freq\RwB97XD\6-311++G(d,p)\C2H1F5O3S1\AKHALILOV
 \23-May-2025\0\\#P Geom=AllCheck Guess=TCheck SCRF=Check GenChk RwB97X
 D/6-311++G(d,p) Freq\\Gaussian input prepared by ASE\\0,1\C,-0.6294192
 567,-1.3199073375,0.4846403953\C,-0.1393901166,-0.0896572598,-0.309564
 1097\F,-0.6811959417,-0.0399925316,-1.4970957311\F,-0.6552629953,1.024
 2406796,0.4369496544\S,1.8212312484,-0.0364674636,-0.4591454821\O,-0.1
 057372919,2.4625070169,-0.108291033\O,2.0116753909,0.4236790813,-1.828
 7009242\O,2.0267271559,1.1300720612,0.6247151246\F,-0.2435383479,-2.41
 04333709,-0.172111028\F,-0.0789355798,-1.3219556955,1.6929656392\F,-1.
 9489159025,-1.3299452463,0.6049234779\H,1.4389829612,1.9045841782,0.42
 43977341\\Version=ES64L-G16RevC.01\HF=-1199.6133088\RMSD=2.083e-09\RMS
 F=1.702e-06\ZeroPoint=0.0480495\Thermal=0.0590674\ETot=-1199.5542414\H
 Tot=-1199.5532972\GTot=-1199.6028233\Dipole=-0.2858756,-0.697934,0.589
 1546\DipoleDeriv=1.7210256,0.0385817,0.0313373,0.2798035,1.6436852,0.0
 333129,-0.1616068,-0.0613205,1.5914868,0.6178022,-0.2601007,0.1992968,
 -0.1940593,0.879015,0.1914962,0.4115821,0.5411733,0.9484678,-0.5302114
 ,-0.0731842,-0.2840151,0.0008279,-0.2242801,0.0645951,-0.4049498,-0.13
 01328,-0.6493157,-0.4190933,0.0479719,0.2126297,0.0683081,-1.2783575,-
 0.1330454,0.143357,-0.0653921,-0.3234044,1.2526956,0.0456711,-0.263411
 ,0.2132458,1.1770022,0.2840616,-0.396903,0.3374471,1.7030836,-0.303272
 4,0.3529687,-0.0398024,0.1843121,0.4092668,-0.1370709,-0.0753355,-0.22
 62243,-0.1449906,-0.5043521,0.0186427,0.0780645,-0.1441003,-0.4957015,
 0.2812229,0.5013204,-0.0105276,-1.0689093,-0.6409183,0.0908306,0.07795
 03,-0.0934062,-1.047507,-0.5173404,-0.1497924,-0.2810922,-0.7369319,-0
 .3389357,0.0798855,0.0898138,0.0632052,-0.8545532,-0.236307,0.0967809,
 -0.1730068,-0.4162432,-0.3837827,-0.0378168,-0.175543,-0.037744,-0.334
 5795,0.0952508,-0.1737495,0.056146,-0.8134513,-1.0695832,-0.1067463,0.
 1178443,-0.1766098,-0.3679165,0.0658741,0.1688124,0.0683851,-0.3131603
 ,0.5986257,-0.1967041,-0.0441652,-0.1637831,0.4939262,0.0079501,0.0404
 84,-0.0554552,0.2233684\Polar=63.3744618,3.8499295,62.8163192,-3.89966
 77,0.235119,58.3040692\PG=Unknown\NImag=0\\0.56067346,0.01274167,0.569
 68162,-0.00377011,-0.01573235,0.56345981,-0.07307926,-0.01602353,0.010
 91045,0.39811738,-0.06061616,-0.13360081,0.06006249,0.00227500,0.40610
 269,0.02958862,0.05776316,-0.07174270,0.07789945,-0.08454427,0.5129627
 0,-0.00023159,-0.00327617,-0.00037128,-0.13085160,0.01868849,-0.122561
 20,0.12094131,0.01737777,0.00554102,0.02430326,0.01091720,-0.07224139,
 0.02844562,-0.01142432,0.06970977,-0.02293780,-0.00558860,-0.04123628,
 -0.12683500,0.04389708,-0.30612982,0.14363550,-0.01663011,0.40962572,-
 0.00012253,-0.00188892,-0.00162701,-0.07772416,0.03940881,0.02881025,0
 .01281110,-0.01123131,-0.00265400,0.09912228,0.02736702,-0.03187329,-0
 .03171598,0.01343675,-0.09109024,0.01467131,-0.00619993,-0.00525046,-0
 .03924884,-0.00024384,0.19692929,-0.00034735,0.00092204,0.00359625,0.0
 2652950,-0.02246815,-0.06391487,0.00511037,-0.04019509,-0.05478649,-0.
 05408612,0.02472851,0.13646927,-0.00067591,-0.02414299,0.01287167,-0.0
 7509535,0.05833700,-0.01689151,-0.01377116,-0.00727494,-0.00172175,-0.
 01262136,-0.00113786,0.00701864,0.19916165,-0.02025869,0.00755794,0.00
 423365,-0.01742510,-0.04408238,0.01637169,0.00958411,0.00652095,0.0047
 0556,0.02652255,-0.02266995,-0.01490613,-0.00994215,0.41523986,0.01169
 563,0.00581944,0.00789244,0.01434706,0.01354234,-0.01138781,-0.0303112
 9,-0.00150103,-0.02113664,0.00343615,-0.00235701,-0.00303770,-0.037973
 56,-0.08609626,0.68328893,-0.00271225,-0.00048327,0.00167566,0.0026957
 3,-0.00059867,-0.00949474,0.00202769,-0.00066261,0.00214964,-0.0244025
 4,-0.03377765,0.02232133,-0.00445256,-0.00468912,-0.00898629,0.0406415
 2,-0.00044333,-0.00188198,0.00016790,0.01029823,-0.03214926,-0.0210638
 8,-0.00060139,0.00094770,0.00618736,-0.03129001,-0.04450580,0.03741312
 ,0.00313375,0.01139184,0.00161388,0.01536050,0.08307472,0.00110765,0.0
 0014414,-0.00307929,-0.00920000,0.00350461,0.00950016,0.00091873,-0.00
 222703,0.00013406,0.01908651,0.02189286,-0.02412419,-0.00383605,-0.003
 44320,-0.00492826,-0.00878016,-0.02629092,0.02025386,-0.00513318,0.007
 47392,-0.00432658,-0.00772482,-0.02445468,0.02440696,0.00720793,0.0023
 1076,0.00629141,0.00173084,0.00043953,-0.00133371,-0.05607460,-0.00710
 151,0.05476615,0.00019266,0.00047303,0.00141323,0.05353099,0.00348192,
 0.00022271,-0.00046559,0.00390811,0.00658138,0.00142206,-0.00285806,-0
 .00061947,-0.00340724,-0.00472862,0.00643087,0.00248854,-0.01797106,-0
 .14044367,0.19196793,-0.00057305,-0.00324773,-0.00054531,0.02529501,0.
 10041594,0.00101282,-0.01012631,0.00258282,0.00015394,0.00688186,-0.02
 638060,0.00527968,-0.00104277,0.01345728,0.00803053,-0.00650656,-0.001
 77732,0.05969968,0.16945752,-0.52762254,0.00230455,0.00247504,0.000585
 73,-0.08234636,-0.16964633,0.56268804,-0.00298725,0.00614613,-0.001010
 92,-0.00517255,-0.01974649,-0.00531998,-0.00493102,0.00072859,-0.00429
 604,0.00625289,-0.00907827,-0.00584697,-0.05454968,0.01947567,-0.01321
 047,-0.02293608,0.01772470,-0.01057238,0.00934324,-0.00565675,0.005026
 97,0.22822150,0.00263571,0.00193619,-0.00409062,0.00952364,-0.01583729
 ,-0.01479591,-0.00911880,0.00019844,-0.00314983,-0.00392925,0.01840352
 ,0.00421972,-0.01932674,-0.18844624,-0.10020312,0.02747093,-0.01733664
 ,0.01424874,-0.00033416,0.02759871,-0.00271359,-0.16632282,0.41132739,
 -0.00320686,0.00369663,-0.00643080,-0.00267163,-0.01571267,-0.00377119
 ,-0.00373927,0.00054333,-0.00113666,-0.00117934,0.00314931,0.00335685,
 -0.02082857,-0.05689571,-0.12529575,-0.00341898,0.00349797,0.00378014,
 -0.00186130,-0.02843310,-0.01987593,0.09287135,0.03814743,0.19660099,-
 0.08625318,0.04049263,0.02000929,0.00630470,0.00123619,0.00023647,0.00
 070575,-0.00095626,0.00125857,0.00125792,-0.00262591,-0.00034693,-0.00
 223462,0.00233630,-0.00072990,0.00050926,-0.00026424,0.00006238,0.0009
 8298,-0.00082654,-0.00042326,0.00086534,-0.00156836,0.00039397,0.10775
 920,0.03927892,-0.24967619,-0.06897388,0.01285726,-0.03772739,-0.02862
 528,0.00012523,0.00092191,0.00366425,-0.00442242,-0.01412637,0.0046638
 3,0.00437590,-0.00293689,-0.00311108,0.00089815,0.00242729,-0.00172423
 ,-0.00164282,0.00000662,0.00316511,-0.00185716,0.00141802,0.00014847,-
 0.08069204,0.30788948,0.02088064,-0.07266416,-0.10969119,0.00025028,-0
 .00071430,0.00128125,0.00061229,0.00117030,0.00474234,-0.00062667,0.00
 292489,0.00084591,0.00060560,-0.00154864,-0.00238027,-0.00017845,0.000
 27448,0.00025175,-0.00009137,0.00021012,0.00115762,-0.00063330,0.00102
 886,0.00083669,-0.04507130,0.14139616,0.15853854,-0.10229833,0.0068427
 8,-0.06974498,0.00462326,-0.00072124,-0.00259837,0.00170322,-0.0006059
 4,0.00110639,0.00059145,-0.00038552,0.00006189,-0.00150930,0.00173229,
 -0.00143587,0.00038985,-0.00029994,0.00019984,0.00078006,-0.00086134,0
 .00007188,0.00035475,-0.00051276,0.00142616,0.01453552,-0.00546247,-0.
 00187303,0.13823045,0.00351951,-0.08390669,0.02490923,0.01021057,0.007
 03087,0.02245412,-0.00052950,-0.00554536,0.00730427,-0.00021898,-0.000
 48078,0.00151375,0.00223176,-0.00123902,-0.00134953,0.00024763,0.00058
 116,-0.00016165,-0.00060421,0.00002010,0.00096906,-0.00135640,-0.00044
 475,0.00026350,-0.00943740,-0.00383796,-0.05406193,-0.00315485,0.07389
 203,-0.06673616,0.02940512,-0.26481051,-0.01850011,-0.00685971,-0.0385
 0529,0.00269068,0.00846755,-0.00669576,0.00003212,0.00522039,0.0022648
 0,-0.00415905,-0.00128562,-0.00322781,-0.00004753,-0.00005578,0.001017
 40,0.00121672,0.00003442,-0.00022113,0.00094596,0.00196704,0.00308322,
 -0.00664009,-0.03726642,-0.05650046,0.12900607,0.00119190,0.36784910,-
 0.28830618,-0.02683184,0.03431466,-0.04837063,-0.00175426,0.00304242,0
 .00613820,-0.00037017,0.00317686,0.00222104,-0.00110088,-0.00021363,0.
 00907283,0.00060846,-0.00083598,0.00134806,-0.00115062,-0.00000343,-0.
 00248482,-0.00123335,0.00401042,-0.00113938,-0.00376806,-0.00180119,-0
 .04373269,0.03461637,0.02577090,-0.05681480,-0.00119840,-0.03741691,0.
 42328367,-0.02439985,-0.08196604,0.00768961,-0.03399859,-0.00027969,0.
 00382624,0.00142161,0.00062813,0.00049671,-0.00153976,0.00134867,0.001
 17304,0.00688486,-0.00238832,0.00004993,0.00026274,0.00035895,-0.00017
 528,-0.00243299,-0.00013483,0.00293666,-0.00153052,-0.00115748,-0.0015
 5195,0.05213918,-0.00402804,-0.01811784,0.00290216,0.01349348,-0.00086
 879,0.00034970,0.07342430,0.03173752,0.00674727,-0.08140363,0.02512924
 ,0.00353484,0.00002656,0.00031349,-0.00125663,0.00395828,-0.00051856,0
 .00109183,0.00060539,-0.00477228,0.00058344,-0.00140004,-0.00037884,0.
 00043169,0.00022343,0.00182054,0.00015453,-0.00154771,0.00070606,0.001
 55068,0.00164539,0.03156930,-0.01376700,0.00094343,-0.05597687,-0.0030
 0526,-0.00380819,-0.02981997,0.00444765,0.08088783,0.00112620,-0.00105
 040,0.00106916,0.00627730,-0.01205401,-0.00711838,-0.00174985,0.001191
 23,0.00082622,-0.00911694,0.01330656,0.00113299,0.01275004,-0.00084281
 ,0.00923838,0.00669866,-0.01294068,0.00960368,-0.00235127,0.00202373,-
 0.00282086,-0.15332174,0.16525068,-0.05598435,-0.00070019,0.00192508,0
 .00035441,-0.00058613,0.00029027,-0.00039171,-0.00121532,-0.00005852,0
 .00019035,0.14218925,-0.00068450,-0.00203448,-0.00038773,-0.00597955,0
 .00729351,0.00407514,0.00418873,-0.00081124,0.00176940,-0.00643825,-0.
 01311546,0.00044682,0.00483249,-0.03850413,-0.01837548,-0.00345558,0.0
 0033976,-0.00522275,0.00057813,0.00316937,0.00415031,0.16147332,-0.237
 65989,0.05314680,0.00016645,-0.00033049,0.00010207,0.00052682,0.000436
 92,0.00004990,0.00183305,0.00070087,-0.00051304,-0.15704112,0.28051525
 ,0.00097540,-0.00038639,0.00086309,0.00198682,-0.00112413,-0.00193838,
 -0.00157770,-0.00007739,-0.00079603,0.00129615,0.00614931,0.00050208,0
 .00998719,-0.03117630,0.00923545,0.00283380,-0.00465085,-0.00361480,0.
 00004431,0.00621997,-0.00304627,-0.05866028,0.06379060,-0.05279295,-0.
 00031851,0.00043007,-0.00002560,-0.00024312,-0.00002746,-0.00044537,-0
 .00022416,0.00009402,-0.00013075,0.04390010,-0.03924144,0.05218953\\0.
 00000155,-0.00000047,-0.00000025,0.00000142,-0.00000319,-0.00000184,0.
 00000034,-0.00000074,-0.00000018,-0.00000056,0.00000242,-0.00000112,0.
 ,0.00000092,0.00000152,-0.00000339,0.00000043,0.00000068,0.00000012,0.
 00000155,0.00000117,0.00000264,-0.00000165,0.00000227,0.00000197,-0.00
 000050,-0.00000080,-0.00000030,-0.00000066,-0.00000048,0.00000058,-0.0
 0000174,-0.00000161,-0.00000436,0.00000362,0.00000063\\\@
 The archive entry for this job was punched.


 GOOD SENSE ABOUT TRIVIALITIES IS BETTER THAN NONSENSE
 ABOUT THINGS THAT MATTER

                                       -- MAX BEERBOHM
 Job cpu time:       0 days  0 hours 10 minutes 34.0 seconds.
 Elapsed time:       0 days  0 hours  1 minutes 21.3 seconds.
 File lengths (MBytes):  RWF=     99 Int=      0 D2E=      0 Chk=      6 Scr=      1
 Normal termination of Gaussian 16 at Fri May 23 07:36:49 2025.
done
