 Entering Gaussian System, Link 0=g16
 Initial command:
 /apps/easybuild-2022/easybuild/software/Compiler/NVHPC/22.11-CUDA-11.7.0/Gaussian/g16c01-CUDA-11.7.0/g16/l1.exe "/tmp/Gau-273234.inp" -scrdir="/tmp/"
 Entering Link 1 = /apps/easybuild-2022/easybuild/software/Compiler/NVHPC/22.11-CUDA-11.7.0/Gaussian/g16c01-CUDA-11.7.0/g16/l1.exe PID=    273235.
  
 Copyright (c) 1988-2019, Gaussian, Inc.  All Rights Reserved.
  
 This is part of the Gaussian(R) 16 program.  It is based on
 the Gaussian(R) 09 system (copyright 2009, Gaussian, Inc.),
 the Gaussian(R) 03 system (copyright 2003, Gaussian, Inc.),
 the Gaussian(R) 98 system (copyright 1998, Gaussian, Inc.),
 the Gaussian(R) 94 system (copyright 1995, Gaussian, Inc.),
 the Gaussian 92(TM) system (copyright 1992, Gaussian, Inc.),
 the Gaussian 90(TM) system (copyright 1990, Gaussian, Inc.),
 the Gaussian 88(TM) system (copyright 1988, Gaussian, Inc.),
 the Gaussian 86(TM) system (copyright 1986, Carnegie Mellon
 University), and the Gaussian 82(TM) system (copyright 1983,
 Carnegie Mellon University). Gaussian is a federally registered
 trademark of Gaussian, Inc.
  
 This software contains proprietary and confidential information,
 including trade secrets, belonging to Gaussian, Inc.
  
 This software is provided under written license and may be
 used, copied, transmitted, or stored only in accord with that
 written license.
  
 The following legend is applicable only to US Government
 contracts under FAR:
  
                    RESTRICTED RIGHTS LEGEND
  
 Use, reproduction and disclosure by the US Government is
 subject to restrictions as set forth in subparagraphs (a)
 and (c) of the Commercial Computer Software - Restricted
 Rights clause in FAR 52.227-19.
  
 Gaussian, Inc.
 340 Quinnipiac St., Bldg. 40, Wallingford CT 06492
  
  
 ---------------------------------------------------------------
 Warning -- This program may not be used in any manner that
 competes with the business of Gaussian, Inc. or will provide
 assistance to any competitor of Gaussian, Inc.  The licensee
 of this program is prohibited from giving any competitor of
 Gaussian, Inc. access to this program.  By using this program,
 the user acknowledges that Gaussian, Inc. is engaged in the
 business of creating and licensing software in the field of
 computational chemistry and represents and warrants to the
 licensee that it is not a competitor of Gaussian, Inc. and that
 it will not use this program in any manner prohibited above.
 ---------------------------------------------------------------
  

 Cite this work as:
 Gaussian 16, Revision C.01,
 M. J. Frisch, G. W. Trucks, H. B. Schlegel, G. E. Scuseria, 
 M. A. Robb, J. R. Cheeseman, G. Scalmani, V. Barone, 
 G. A. Petersson, H. Nakatsuji, X. Li, M. Caricato, A. V. Marenich, 
 J. Bloino, B. G. Janesko, R. Gomperts, B. Mennucci, H. P. Hratchian, 
 J. V. Ortiz, A. F. Izmaylov, J. L. Sonnenberg, D. Williams-Young, 
 F. Ding, F. Lipparini, F. Egidi, J. Goings, B. Peng, A. Petrone, 
 T. Henderson, D. Ranasinghe, V. G. Zakrzewski, J. Gao, N. Rega, 
 G. Zheng, W. Liang, M. Hada, M. Ehara, K. Toyota, R. Fukuda, 
 J. Hasegawa, M. Ishida, T. Nakajima, Y. Honda, O. Kitao, H. Nakai, 
 T. Vreven, K. Throssell, J. A. Montgomery, Jr., J. E. Peralta, 
 F. Ogliaro, M. J. Bearpark, J. J. Heyd, E. N. Brothers, K. N. Kudin, 
 V. N. Staroverov, T. A. Keith, R. Kobayashi, J. Normand, 
 K. Raghavachari, A. P. Rendell, J. C. Burant, S. S. Iyengar, 
 J. Tomasi, M. Cossi, J. M. Millam, M. Klene, C. Adamo, R. Cammi, 
 J. W. Ochterski, R. L. Martin, K. Morokuma, O. Farkas, 
 J. B. Foresman, and D. J. Fox, Gaussian, Inc., Wallingford CT, 2019.
 
 ******************************************
 Gaussian 16:  ES64L-G16RevC.01  3-Jul-2019
                23-May-2025 
 ******************************************
 %mem=28GB
 %nprocshared=8
 Will use up to    8 processors via shared memory.
 ------------------------------------------
 #P am1 Symm(None) scf(xqc) pop(None) force
 ------------------------------------------
 1/10=7,30=1,38=1/1,3;
 2/12=2,15=3,17=6,18=5,40=1/2;
 3/5=2,25=1,41=700000,71=1/1,2,3;
 4/35=1/1;
 5/5=2,8=3,13=1,35=1,38=5/2,8;
 7/29=1,30=1/1,2,3,16;
 1/10=7,30=1/3;
 99//99;
 Leave Link    1 at Fri May 23 05:17:12 2025, MaxMem=  3758096384 cpu:               0.0 elap:               0.0
 (Enter /apps/easybuild-2022/easybuild/software/Compiler/NVHPC/22.11-CUDA-11.7.0/Gaussian/g16c01-CUDA-11.7.0/g16/l101.exe)
 ------------------------------
 Gaussian input prepared by ASE
 ------------------------------
 Symbolic Z-matrix:
 Charge =  0 Multiplicity = 1
 C                     3.97667   2.1222    1.78371 
 C                     3.23153   0.84295   1.30164 
 F                     4.09089  -0.04589   0.82936 
 F                     2.63412   0.23798   2.31169 
 S                     1.97628   1.20685  -0.12225 
 O                    -0.31192   1.08329   0.16911 
 O                     2.43736   2.37431  -0.85768 
 O                     1.22673  -0.00428  -0.56856 
 F                     4.66666   2.71492   0.82587 
 F                     3.14412   3.03507   2.27493 
 F                     4.84581   1.86112   2.75314 
 H                    -0.67135   1.17224   1.06758 
 
 ITRead=  0  0  0  0  0  0  0  0  0  0  0  0
 MicOpt= -1 -1 -1 -1 -1 -1 -1 -1 -1 -1 -1 -1
 NAtoms=     12 NQM=       12 NQMF=       0 NMMI=      0 NMMIF=      0
                NMic=       0 NMicF=      0.
                    Isotopes and Nuclear Properties:
 (Nuclear quadrupole moments (NQMom) in fm**2, nuclear magnetic moments (NMagM)
  in nuclear magnetons)

  Atom         1           2           3           4           5           6           7           8           9          10
 IAtWgt=          12          12          19          19          32          16          16          16          19          19
 AtmWgt=  12.0000000  12.0000000  18.9984032  18.9984032  31.9720718  15.9949146  15.9949146  15.9949146  18.9984032  18.9984032
 NucSpn=           0           0           1           1           0           0           0           0           1           1
 AtZEff=  -0.0000000  -0.0000000  -0.0000000  -0.0000000  -0.0000000  -0.0000000  -0.0000000  -0.0000000  -0.0000000  -0.0000000
 NQMom=    0.0000000   0.0000000   0.0000000   0.0000000   0.0000000   0.0000000   0.0000000   0.0000000   0.0000000   0.0000000
 NMagM=    0.0000000   0.0000000   2.6288670   2.6288670   0.0000000   0.0000000   0.0000000   0.0000000   2.6288670   2.6288670
 AtZNuc=   6.0000000   6.0000000   9.0000000   9.0000000  16.0000000   8.0000000   8.0000000   8.0000000   9.0000000   9.0000000

  Atom        11          12
 IAtWgt=          19           1
 AtmWgt=  18.9984032   1.0078250
 NucSpn=           1           1
 AtZEff=  -0.0000000  -0.0000000
 NQMom=    0.0000000   0.0000000
 NMagM=    2.6288670   2.7928460
 AtZNuc=   9.0000000   1.0000000
 Leave Link  101 at Fri May 23 05:17:12 2025, MaxMem=  3758096384 cpu:               0.1 elap:               0.1
 (Enter /apps/easybuild-2022/easybuild/software/Compiler/NVHPC/22.11-CUDA-11.7.0/Gaussian/g16c01-CUDA-11.7.0/g16/l103.exe)

 GradGradGradGradGradGradGradGradGradGradGradGradGradGradGradGradGradGrad
 Berny optimization.
 Initialization pass.
 Trust Radius=3.00D-01 FncErr=1.00D-07 GrdErr=1.00D-07 EigMax=2.50D+02 EigMin=1.00D-04
 Number of steps in this run=      2 maximum allowed number of steps=      2.
 GradGradGradGradGradGradGradGradGradGradGradGradGradGradGradGradGradGrad

 Leave Link  103 at Fri May 23 05:17:12 2025, MaxMem=  3758096384 cpu:               0.0 elap:               0.0
 (Enter /apps/easybuild-2022/easybuild/software/Compiler/NVHPC/22.11-CUDA-11.7.0/Gaussian/g16c01-CUDA-11.7.0/g16/l202.exe)
                          Input orientation:                          
 ---------------------------------------------------------------------
 Center     Atomic      Atomic             Coordinates (Angstroms)
 Number     Number       Type             X           Y           Z
 ---------------------------------------------------------------------
      1          6           0        3.976671    2.122201    1.783712
      2          6           0        3.231530    0.842950    1.301643
      3          9           0        4.090887   -0.045887    0.829363
      4          9           0        2.634117    0.237979    2.311693
      5         16           0        1.976282    1.206849   -0.122250
      6          8           0       -0.311916    1.083288    0.169114
      7          8           0        2.437356    2.374308   -0.857680
      8          8           0        1.226732   -0.004280   -0.568560
      9          9           0        4.666661    2.714917    0.825870
     10          9           0        3.144117    3.035070    2.274934
     11          9           0        4.845808    1.861125    2.753142
     12          1           0       -0.671348    1.172242    1.067575
 ---------------------------------------------------------------------
                    Distance matrix (angstroms):
                    1          2          3          4          5
     1  C    0.000000
     2  C    1.556955   0.000000
     3  F    2.371589   1.323471   0.000000
     4  F    2.373080   1.320263   2.097632   0.000000
     5  S    2.910690   1.932754   2.635616   2.701025   0.000000
     6  O    4.698749   3.727786   4.592999   3.739559   2.309980
     7  O    3.067573   2.763774   3.381956   3.827211   1.454788
     8  O    4.197293   2.869612   3.187367   3.214853   1.492598
     9  F    1.320931   2.406288   2.820207   3.531873   3.226661
    10  F    1.329577   2.400068   3.532470   2.843443   3.233067
    11  F    1.327913   2.397795   2.812032   2.778678   4.114624
    12  H    4.797849   3.923733   4.921328   3.653324   2.902900
                    6          7          8          9         10
     6  O    0.000000
     7  O    3.206171   0.000000
     8  O    2.023463   2.684563   0.000000
     9  F    5.280129   2.814278   4.601258   0.000000
    10  F    4.493117   3.278626   4.582518   2.126129   0.000000
    11  F    5.821026   4.370588   5.254631   2.115522   2.121928
    12  H    0.971770   3.849105   2.768366   5.561709   4.414252
                   11         12
    11  F    0.000000
    12  H    5.809880   0.000000
 Symmetry turned off by external request.
 Stoichiometry    C2HF5O3S
 Rotational constants (GHZ):           1.5698905           0.6911836           0.6459893
 Leave Link  202 at Fri May 23 05:17:12 2025, MaxMem=  3758096384 cpu:               0.0 elap:               0.0
 (Enter /apps/easybuild-2022/easybuild/software/Compiler/NVHPC/22.11-CUDA-11.7.0/Gaussian/g16c01-CUDA-11.7.0/g16/l301.exe)
 Standard basis: VSTO-6G (5D, 7F)
 Ernie: Thresh=  0.10000D-02 Tol=  0.10000D-05 Strict=F.
  NNHCO=     0 NNPyr=     0 NCTC=     0               EPep=         0.000000000
    EC=       377.654719205  ECS=         2.452075852   EG=         0.772947580
   EHC=         0.000000000  EAt=      -139.813231795  AtH=         1.168761636
 EPDDG=         0.000000000  ECC=       380.879742637 EAtT=       140.981993432
    45 basis functions,   270 primitive gaussians,    45 cartesian basis functions
    34 alpha electrons       34 beta electrons
       nuclear repulsion energy       522.4993121780 Hartrees.



 Warning!  S  atom    5 may be hypervalent but has no d functions.



 IExCor=    0 DFT=F Ex=HF Corr=None ExCW=0 ScaHFX=  1.000000
 ScaDFX=  1.000000  1.000000  1.000000  1.000000 ScalE2=  1.000000  1.000000
 IRadAn=      5 IRanWt=     -1 IRanGd=            0 ICorTp=0 IEmpDi=  4
 Integral buffers will be    131072 words long.
 Regular integral format.
 Two-electron integral symmetry is turned off.
 Leave Link  301 at Fri May 23 05:17:12 2025, MaxMem=  3758096384 cpu:               0.0 elap:               0.0
 (Enter /apps/easybuild-2022/easybuild/software/Compiler/NVHPC/22.11-CUDA-11.7.0/Gaussian/g16c01-CUDA-11.7.0/g16/l302.exe)
 Do NDO integrals.
 NPDir=0 NMtPBC=     1 NCelOv=     1 NCel=       1 NClECP=     1 NCelD=      1
         NCelK=      1 NCelE2=     1 NClLst=     1 CellRange=     0.0.
 One-electron integrals computed using PRISM.
 NBasis=    45 RedAO= F EigKep=  0.00D+00  NBF=    45
 NBsUse=    45 1.00D-04 EigRej=  0.00D+00 NBFU=    45
 Leave Link  302 at Fri May 23 05:17:12 2025, MaxMem=  3758096384 cpu:               0.1 elap:               0.0
 (Enter /apps/easybuild-2022/easybuild/software/Compiler/NVHPC/22.11-CUDA-11.7.0/Gaussian/g16c01-CUDA-11.7.0/g16/l303.exe)
 DipDrv:  MaxL=1.
 Leave Link  303 at Fri May 23 05:17:12 2025, MaxMem=  3758096384 cpu:               0.0 elap:               0.0
 (Enter /apps/easybuild-2022/easybuild/software/Compiler/NVHPC/22.11-CUDA-11.7.0/Gaussian/g16c01-CUDA-11.7.0/g16/l401.exe)
 Simple Huckel Guess.
 JPrj=0 DoOrth=F DoCkMO=F.
 Leave Link  401 at Fri May 23 05:17:12 2025, MaxMem=  3758096384 cpu:               0.0 elap:               0.0
 (Enter /apps/easybuild-2022/easybuild/software/Compiler/NVHPC/22.11-CUDA-11.7.0/Gaussian/g16c01-CUDA-11.7.0/g16/l502.exe)
 Keep J ints in memory in canonical form, NReq=865860.
 FoFCou: FMM=F IPFlag=           0 FMFlag=           0 FMFlg1=           0
         NFxFlg=           0 DoJE=F BraDBF=F KetDBF=F FulRan=T
         wScrn=  0.000000 ICntrl=       600 IOpCl=  2 I1Cent=           0 NGrid=           0
         NMat0=    1 NMatS0=    111 NMatT0=    0 NMatD0=    1 NMtDS0=    0 NMtDT0=    0
 Symmetry not used in FoFCou.
 Two-electron integral symmetry not used.
 Closed shell SCF:
 Using DIIS extrapolation, IDIIS=  1040.
 Overlap will be assumed to be unity.
 NGot=  3758096384 LenX=  3758025843 LenY=  3758023377
 Requested convergence on RMS density matrix=1.00D-08 within  32 cycles.
 Requested convergence on MAX density matrix=1.00D-06.
 Requested convergence on             energy=1.00D-06.
 No special actions if energy rises.

 Cycle   1  Pass 1  IDiag  1:
 E=  1.58622432278560    
 DIIS: error= 9.06D-02 at cycle   1 NSaved=   1.
 NSaved= 1 IEnMin= 1 EnMin=  1.58622432278560     IErMin= 1 ErrMin= 9.06D-02
 ErrMax= 9.06D-02  0.00D+00 EMaxC= 1.00D-01 BMatC= 4.13D-01 BMatP= 4.13D-01
 IDIUse=3 WtCom= 9.40D-02 WtEn= 9.06D-01
 Coeff-Com:  0.100D+01
 Coeff-En:   0.100D+01
 Coeff:      0.100D+01
 GapD=    2.000 DampG=2.000 DampE=0.500 DampFc=1.0000 IDamp=-1.
 RMSDP=3.86D-02 MaxDP=7.16D-01              OVMax= 0.00D+00

 Cycle   2  Pass 1  IDiag  1:
 E= 0.904716572559096     Delta-E=       -0.681507750227 Rises=F Damp=F
 DIIS: error= 7.61D-02 at cycle   2 NSaved=   2.
 NSaved= 2 IEnMin= 2 EnMin= 0.904716572559096     IErMin= 2 ErrMin= 7.61D-02
 ErrMax= 7.61D-02  0.00D+00 EMaxC= 1.00D-01 BMatC= 1.17D-01 BMatP= 4.13D-01
 IDIUse=3 WtCom= 2.39D-01 WtEn= 7.61D-01
 Coeff-Com:  0.120D+00 0.880D+00
 Coeff-En:   0.000D+00 0.100D+01
 Coeff:      0.286D-01 0.971D+00
 RMSDP=3.45D-02 MaxDP=7.17D-01 DE=-6.82D-01 OVMax= 0.00D+00

 Cycle   3  Pass 1  IDiag  1:
 E= 0.536805475808819     Delta-E=       -0.367911096750 Rises=F Damp=F
 DIIS: error= 3.51D-02 at cycle   3 NSaved=   3.
 NSaved= 3 IEnMin= 3 EnMin= 0.536805475808819     IErMin= 3 ErrMin= 3.51D-02
 ErrMax= 3.51D-02  0.00D+00 EMaxC= 1.00D-01 BMatC= 5.69D-02 BMatP= 1.17D-01
 IDIUse=3 WtCom= 6.49D-01 WtEn= 3.51D-01
 Coeff-Com: -0.117D+00 0.428D+00 0.689D+00
 Coeff-En:   0.000D+00 0.185D+00 0.815D+00
 Coeff:     -0.760D-01 0.342D+00 0.734D+00
 RMSDP=1.08D-02 MaxDP=1.18D-01 DE=-3.68D-01 OVMax= 0.00D+00

 Cycle   4  Pass 1  IDiag  1:
 E= 0.347848381370909     Delta-E=       -0.188957094438 Rises=F Damp=F
 DIIS: error= 1.51D-02 at cycle   4 NSaved=   4.
 NSaved= 4 IEnMin= 4 EnMin= 0.347848381370909     IErMin= 4 ErrMin= 1.51D-02
 ErrMax= 1.51D-02  0.00D+00 EMaxC= 1.00D-01 BMatC= 6.44D-03 BMatP= 5.69D-02
 IDIUse=3 WtCom= 8.49D-01 WtEn= 1.51D-01
 Coeff-Com: -0.466D-01 0.146D+00-0.271D-01 0.927D+00
 Coeff-En:   0.000D+00 0.000D+00 0.000D+00 0.100D+01
 Coeff:     -0.395D-01 0.124D+00-0.230D-01 0.938D+00
 RMSDP=4.86D-03 MaxDP=4.38D-02 DE=-1.89D-01 OVMax= 0.00D+00

 Cycle   5  Pass 1  IDiag  3:
 E= 0.313065081516356     Delta-E=       -0.034783299855 Rises=F Damp=F
 DIIS: error= 8.70D-03 at cycle   5 NSaved=   5.
 NSaved= 5 IEnMin= 5 EnMin= 0.313065081516356     IErMin= 5 ErrMin= 8.70D-03
 ErrMax= 8.70D-03  0.00D+00 EMaxC= 1.00D-01 BMatC= 2.33D-03 BMatP= 6.44D-03
 IDIUse=3 WtCom= 9.13D-01 WtEn= 8.70D-02
 Coeff-Com: -0.144D-01 0.806D-01-0.341D-01-0.281D+00 0.125D+01
 Coeff-En:   0.000D+00 0.000D+00 0.000D+00 0.000D+00 0.100D+01
 Coeff:     -0.132D-01 0.736D-01-0.311D-01-0.256D+00 0.123D+01
 Gap=     0.183 Goal=   None    Shift=    0.000
 RMSDP=3.71D-03 MaxDP=3.28D-02 DE=-3.48D-02 OVMax= 7.03D-02

 Cycle   6  Pass 1  IDiag  3:
 E= 0.296420015682202     Delta-E=       -0.016645065834 Rises=F Damp=F
 DIIS: error= 4.62D-03 at cycle   6 NSaved=   6.
 NSaved= 6 IEnMin= 6 EnMin= 0.296420015682202     IErMin= 6 ErrMin= 4.62D-03
 ErrMax= 4.62D-03  0.00D+00 EMaxC= 1.00D-01 BMatC= 7.92D-04 BMatP= 2.33D-03
 IDIUse=3 WtCom= 9.54D-01 WtEn= 4.62D-02
 Coeff-Com: -0.121D-01 0.256D-01 0.574D-01 0.103D+00-0.120D+01 0.203D+01
 Coeff-En:   0.000D+00 0.000D+00 0.000D+00 0.000D+00 0.000D+00 0.100D+01
 Coeff:     -0.116D-01 0.244D-01 0.548D-01 0.987D-01-0.115D+01 0.198D+01
 Gap=     0.234 Goal=   None    Shift=    0.000
 RMSDP=3.93D-03 MaxDP=3.88D-02 DE=-1.66D-02 OVMax= 7.99D-02

 Cycle   7  Pass 1  IDiag  3:
 E= 0.287009730764112     Delta-E=       -0.009410284918 Rises=F Damp=F
 DIIS: error= 1.70D-03 at cycle   7 NSaved=   7.
 NSaved= 7 IEnMin= 7 EnMin= 0.287009730764112     IErMin= 7 ErrMin= 1.70D-03
 ErrMax= 1.70D-03  0.00D+00 EMaxC= 1.00D-01 BMatC= 1.53D-04 BMatP= 7.92D-04
 IDIUse=3 WtCom= 9.83D-01 WtEn= 1.70D-02
 Coeff-Com:  0.398D-02 0.295D-02-0.345D-01-0.243D-01 0.821D+00-0.187D+01
 Coeff-Com:  0.210D+01
 Coeff-En:   0.000D+00 0.000D+00 0.000D+00 0.000D+00 0.000D+00 0.000D+00
 Coeff-En:   0.100D+01
 Coeff:      0.391D-02 0.290D-02-0.339D-01-0.239D-01 0.807D+00-0.184D+01
 Coeff:      0.208D+01
 Gap=     0.267 Goal=   None    Shift=    0.000
 RMSDP=2.53D-03 MaxDP=2.82D-02 DE=-9.41D-03 OVMax= 5.50D-02

 Cycle   8  Pass 1  IDiag  3:
 E= 0.284519009965948     Delta-E=       -0.002490720798 Rises=F Damp=F
 DIIS: error= 8.02D-04 at cycle   8 NSaved=   8.
 NSaved= 8 IEnMin= 8 EnMin= 0.284519009965948     IErMin= 8 ErrMin= 8.02D-04
 ErrMax= 8.02D-04  0.00D+00 EMaxC= 1.00D-01 BMatC= 2.80D-05 BMatP= 1.53D-04
 IDIUse=3 WtCom= 9.92D-01 WtEn= 8.02D-03
 Coeff-Com: -0.250D-02 0.160D-02 0.130D-01-0.498D-02-0.320D+00 0.906D+00
 Coeff-Com: -0.135D+01 0.175D+01
 Coeff-En:   0.000D+00 0.000D+00 0.000D+00 0.000D+00 0.000D+00 0.000D+00
 Coeff-En:   0.000D+00 0.100D+01
 Coeff:     -0.248D-02 0.159D-02 0.129D-01-0.494D-02-0.317D+00 0.899D+00
 Coeff:     -0.133D+01 0.175D+01
 Gap=     0.274 Goal=   None    Shift=    0.000
 RMSDP=9.82D-04 MaxDP=1.20D-02 DE=-2.49D-03 OVMax= 2.21D-02

 Cycle   9  Pass 1  IDiag  3:
 E= 0.284012778231613     Delta-E=       -0.000506231734 Rises=F Damp=F
 DIIS: error= 7.18D-04 at cycle   9 NSaved=   9.
 NSaved= 9 IEnMin= 9 EnMin= 0.284012778231613     IErMin= 9 ErrMin= 7.18D-04
 ErrMax= 7.18D-04  0.00D+00 EMaxC= 1.00D-01 BMatC= 1.40D-05 BMatP= 2.80D-05
 IDIUse=3 WtCom= 9.93D-01 WtEn= 7.18D-03
 Coeff-Com:  0.878D-03 0.191D-02-0.762D-02-0.363D-02 0.186D+00-0.470D+00
 Coeff-Com:  0.707D+00-0.171D+01 0.229D+01
 Coeff-En:   0.000D+00 0.000D+00 0.000D+00 0.000D+00 0.000D+00 0.000D+00
 Coeff-En:   0.000D+00 0.000D+00 0.100D+01
 Coeff:      0.872D-03 0.190D-02-0.757D-02-0.360D-02 0.185D+00-0.467D+00
 Coeff:      0.702D+00-0.169D+01 0.228D+01
 Gap=     0.276 Goal=   None    Shift=    0.000
 RMSDP=1.04D-03 MaxDP=1.38D-02 DE=-5.06D-04 OVMax= 2.37D-02

 Cycle  10  Pass 1  IDiag  3:
 E= 0.283636947727473     Delta-E=       -0.000375830504 Rises=F Damp=F
 DIIS: error= 5.38D-04 at cycle  10 NSaved=  10.
 NSaved=10 IEnMin=10 EnMin= 0.283636947727473     IErMin=10 ErrMin= 5.38D-04
 ErrMax= 5.38D-04  0.00D+00 EMaxC= 1.00D-01 BMatC= 6.66D-06 BMatP= 1.40D-05
 IDIUse=3 WtCom= 9.95D-01 WtEn= 5.38D-03
 Coeff-Com: -0.233D-03 0.593D-03 0.996D-03-0.302D-02-0.210D-01 0.752D-01
 Coeff-Com: -0.131D+00 0.648D+00-0.182D+01 0.225D+01
 Coeff-En:   0.000D+00 0.000D+00 0.000D+00 0.000D+00 0.000D+00 0.000D+00
 Coeff-En:   0.000D+00 0.000D+00 0.000D+00 0.100D+01
 Coeff:     -0.232D-03 0.590D-03 0.991D-03-0.300D-02-0.209D-01 0.748D-01
 Coeff:     -0.130D+00 0.644D+00-0.181D+01 0.224D+01
 Gap=     0.278 Goal=   None    Shift=    0.000
 RMSDP=9.36D-04 MaxDP=1.28D-02 DE=-3.76D-04 OVMax= 2.16D-02

 Cycle  11  Pass 1  IDiag  3:
 E= 0.283415421378777     Delta-E=       -0.000221526349 Rises=F Damp=F
 DIIS: error= 3.35D-04 at cycle  11 NSaved=  11.
 NSaved=11 IEnMin=11 EnMin= 0.283415421378777     IErMin=11 ErrMin= 3.35D-04
 ErrMax= 3.35D-04  0.00D+00 EMaxC= 1.00D-01 BMatC= 3.09D-06 BMatP= 6.66D-06
 IDIUse=3 WtCom= 9.97D-01 WtEn= 3.35D-03
 Coeff-Com:  0.163D-03 0.459D-03-0.607D-03-0.522D-02 0.285D-01-0.396D-01
 Coeff-Com:  0.591D-01-0.399D+00 0.134D+01-0.250D+01 0.252D+01
 Coeff-En:   0.000D+00 0.000D+00 0.000D+00 0.000D+00 0.000D+00 0.000D+00
 Coeff-En:   0.000D+00 0.000D+00 0.000D+00 0.000D+00 0.100D+01
 Coeff:      0.162D-03 0.458D-03-0.605D-03-0.520D-02 0.284D-01-0.395D-01
 Coeff:      0.589D-01-0.398D+00 0.133D+01-0.249D+01 0.252D+01
 Gap=     0.279 Goal=   None    Shift=    0.000
 RMSDP=7.49D-04 MaxDP=1.01D-02 DE=-2.22D-04 OVMax= 1.80D-02

 Cycle  12  Pass 1  IDiag  3:
 E= 0.283306072677192     Delta-E=       -0.000109348702 Rises=F Damp=F
 DIIS: error= 1.59D-04 at cycle  12 NSaved=  12.
 NSaved=12 IEnMin=12 EnMin= 0.283306072677192     IErMin=12 ErrMin= 1.59D-04
 ErrMax= 1.59D-04  0.00D+00 EMaxC= 1.00D-01 BMatC= 1.19D-06 BMatP= 3.09D-06
 IDIUse=3 WtCom= 9.98D-01 WtEn= 1.59D-03
 Coeff-Com: -0.155D-03 0.338D-03 0.121D-02-0.223D-02-0.160D-01 0.291D-01
 Coeff-Com: -0.306D-01 0.119D-01-0.186D+00 0.670D+00-0.153D+01 0.205D+01
 Coeff-En:   0.000D+00 0.000D+00 0.000D+00 0.000D+00 0.000D+00 0.000D+00
 Coeff-En:   0.000D+00 0.000D+00 0.000D+00 0.000D+00 0.000D+00 0.100D+01
 Coeff:     -0.155D-03 0.338D-03 0.120D-02-0.222D-02-0.160D-01 0.291D-01
 Coeff:     -0.306D-01 0.119D-01-0.186D+00 0.669D+00-0.153D+01 0.205D+01
 Gap=     0.280 Goal=   None    Shift=    0.000
 RMSDP=5.47D-04 MaxDP=6.71D-03 DE=-1.09D-04 OVMax= 1.38D-02

 Cycle  13  Pass 1  IDiag  3:
 E= 0.283267982059215     Delta-E=       -0.000038090618 Rises=F Damp=F
 DIIS: error= 9.15D-05 at cycle  13 NSaved=  13.
 NSaved=13 IEnMin=13 EnMin= 0.283267982059215     IErMin=13 ErrMin= 9.15D-05
 ErrMax= 9.15D-05  0.00D+00 EMaxC= 1.00D-01 BMatC= 3.50D-07 BMatP= 1.19D-06
 IDIUse=1 WtCom= 1.00D+00 WtEn= 0.00D+00
 Coeff-Com:  0.221D-03-0.256D-04-0.261D-03-0.167D-02 0.181D-01-0.471D-01
 Coeff-Com:  0.890D-01-0.192D+00 0.238D+00-0.530D-01 0.112D-01-0.595D+00
 Coeff-Com:  0.153D+01
 Coeff:      0.221D-03-0.256D-04-0.261D-03-0.167D-02 0.181D-01-0.471D-01
 Coeff:      0.890D-01-0.192D+00 0.238D+00-0.530D-01 0.112D-01-0.595D+00
 Coeff:      0.153D+01
 Gap=     0.279 Goal=   None    Shift=    0.000
 RMSDP=1.75D-04 MaxDP=2.04D-03 DE=-3.81D-05 OVMax= 4.04D-03

 Cycle  14  Pass 1  IDiag  3:
 E= 0.283262633989921     Delta-E=       -0.000005348069 Rises=F Damp=F
 DIIS: error= 5.06D-05 at cycle  14 NSaved=  14.
 NSaved=14 IEnMin=14 EnMin= 0.283262633989921     IErMin=14 ErrMin= 5.06D-05
 ErrMax= 5.06D-05  0.00D+00 EMaxC= 1.00D-01 BMatC= 7.24D-08 BMatP= 3.50D-07
 IDIUse=1 WtCom= 1.00D+00 WtEn= 0.00D+00
 Coeff-Com: -0.469D-04-0.157D-04-0.549D-04-0.905D-04-0.181D-03 0.910D-03
 Coeff-Com: -0.134D-01 0.493D-01-0.784D-01 0.923D-02 0.632D-01 0.108D-01
 Coeff-Com: -0.562D+00 0.152D+01
 Coeff:     -0.469D-04-0.157D-04-0.549D-04-0.905D-04-0.181D-03 0.910D-03
 Coeff:     -0.134D-01 0.493D-01-0.784D-01 0.923D-02 0.632D-01 0.108D-01
 Coeff:     -0.562D+00 0.152D+01
 Gap=     0.280 Goal=   None    Shift=    0.000
 RMSDP=8.67D-05 MaxDP=1.06D-03 DE=-5.35D-06 OVMax= 2.04D-03

 Cycle  15  Pass 1  IDiag  3:
 E= 0.283261773429899     Delta-E=       -0.000000860560 Rises=F Damp=F
 DIIS: error= 2.20D-05 at cycle  15 NSaved=  15.
 NSaved=15 IEnMin=15 EnMin= 0.283261773429899     IErMin=15 ErrMin= 2.20D-05
 ErrMax= 2.20D-05  0.00D+00 EMaxC= 1.00D-01 BMatC= 1.96D-08 BMatP= 7.24D-08
 IDIUse=1 WtCom= 1.00D+00 WtEn= 0.00D+00
 Coeff-Com:  0.991D-04-0.872D-04-0.906D-04-0.495D-03 0.654D-02-0.148D-01
 Coeff-Com:  0.249D-01-0.479D-01 0.580D-01-0.663D-02-0.320D-01 0.612D-01
 Coeff-Com:  0.493D-01-0.692D+00 0.159D+01
 Coeff:      0.991D-04-0.872D-04-0.906D-04-0.495D-03 0.654D-02-0.148D-01
 Coeff:      0.249D-01-0.479D-01 0.580D-01-0.663D-02-0.320D-01 0.612D-01
 Coeff:      0.493D-01-0.692D+00 0.159D+01
 Gap=     0.279 Goal=   None    Shift=    0.000
 RMSDP=2.08D-05 MaxDP=2.35D-04 DE=-8.61D-07 OVMax= 4.16D-04

 Cycle  16  Pass 1  IDiag  3:
 E= 0.283261600108631     Delta-E=       -0.000000173321 Rises=F Damp=F
 DIIS: error= 8.42D-06 at cycle  16 NSaved=  16.
 NSaved=16 IEnMin=16 EnMin= 0.283261600108631     IErMin=16 ErrMin= 8.42D-06
 ErrMax= 8.42D-06  0.00D+00 EMaxC= 1.00D-01 BMatC= 2.98D-09 BMatP= 1.96D-08
 IDIUse=1 WtCom= 1.00D+00 WtEn= 0.00D+00
 Coeff-Com: -0.220D-04-0.824D-05-0.372D-05 0.299D-03-0.722D-03 0.494D-03
 Coeff-Com: -0.289D-02 0.752D-02-0.978D-02-0.370D-02 0.570D-02-0.184D-01
 Coeff-Com:  0.526D-01 0.324D-01-0.598D+00 0.153D+01
 Coeff:     -0.220D-04-0.824D-05-0.372D-05 0.299D-03-0.722D-03 0.494D-03
 Coeff:     -0.289D-02 0.752D-02-0.978D-02-0.370D-02 0.570D-02-0.184D-01
 Coeff:      0.526D-01 0.324D-01-0.598D+00 0.153D+01
 Gap=     0.280 Goal=   None    Shift=    0.000
 RMSDP=1.18D-05 MaxDP=1.57D-04 DE=-1.73D-07 OVMax= 1.74D-04

 Cycle  17  Pass 1  IDiag  3:
 E= 0.283261568466401     Delta-E=       -0.000000031642 Rises=F Damp=F
 DIIS: error= 4.60D-06 at cycle  17 NSaved=  17.
 NSaved=17 IEnMin=17 EnMin= 0.283261568466401     IErMin=17 ErrMin= 4.60D-06
 ErrMax= 4.60D-06  0.00D+00 EMaxC= 1.00D-01 BMatC= 8.80D-10 BMatP= 2.98D-09
 IDIUse=1 WtCom= 1.00D+00 WtEn= 0.00D+00
 Coeff-Com:  0.859D-05-0.209D-04 0.204D-04-0.103D-03-0.326D-05 0.470D-03
 Coeff-Com: -0.288D-03 0.883D-03-0.213D-02 0.439D-02-0.348D-02 0.103D-01
 Coeff-Com: -0.413D-01 0.106D+00-0.116D+00-0.369D+00 0.141D+01
 Coeff:      0.859D-05-0.209D-04 0.204D-04-0.103D-03-0.326D-05 0.470D-03
 Coeff:     -0.288D-03 0.883D-03-0.213D-02 0.439D-02-0.348D-02 0.103D-01
 Coeff:     -0.413D-01 0.106D+00-0.116D+00-0.369D+00 0.141D+01
 Gap=     0.280 Goal=   None    Shift=    0.000
 RMSDP=7.35D-06 MaxDP=9.59D-05 DE=-3.16D-08 OVMax= 1.93D-04

 Cycle  18  Pass 1  IDiag  3:
 E= 0.283261559939433     Delta-E=       -0.000000008527 Rises=F Damp=F
 DIIS: error= 9.94D-07 at cycle  18 NSaved=  18.
 NSaved=18 IEnMin=18 EnMin= 0.283261559939433     IErMin=18 ErrMin= 9.94D-07
 ErrMax= 9.94D-07  0.00D+00 EMaxC= 1.00D-01 BMatC= 7.35D-11 BMatP= 8.80D-10
 IDIUse=1 WtCom= 1.00D+00 WtEn= 0.00D+00
 Coeff-Com:  0.773D-08-0.536D-05 0.282D-05 0.279D-04-0.157D-03 0.406D-03
 Coeff-Com: -0.521D-03 0.222D-03 0.524D-04-0.336D-03 0.331D-03-0.186D-03
 Coeff-Com:  0.705D-03-0.136D-01 0.700D-01-0.672D-01-0.294D+00 0.130D+01
 Coeff:      0.773D-08-0.536D-05 0.282D-05 0.279D-04-0.157D-03 0.406D-03
 Coeff:     -0.521D-03 0.222D-03 0.524D-04-0.336D-03 0.331D-03-0.186D-03
 Coeff:      0.705D-03-0.136D-01 0.700D-01-0.672D-01-0.294D+00 0.130D+01
 Gap=     0.280 Goal=   None    Shift=    0.000
 RMSDP=9.75D-07 MaxDP=1.20D-05 DE=-8.53D-09 OVMax= 1.35D-05

 Cycle  19  Pass 1  IDiag  3:
 E= 0.283261559353491     Delta-E=       -0.000000000586 Rises=F Damp=F
 DIIS: error= 6.73D-07 at cycle  19 NSaved=  19.
 NSaved=19 IEnMin=19 EnMin= 0.283261559353491     IErMin=19 ErrMin= 6.73D-07
 ErrMax= 6.73D-07  0.00D+00 EMaxC= 1.00D-01 BMatC= 1.69D-11 BMatP= 7.35D-11
 IDIUse=1 WtCom= 1.00D+00 WtEn= 0.00D+00
 Coeff-Com:  0.326D-06-0.299D-05 0.339D-05 0.246D-05-0.767D-04 0.146D-03
 Coeff-Com: -0.248D-03 0.426D-03-0.835D-03 0.472D-03 0.521D-04-0.713D-03
 Coeff-Com:  0.109D-02 0.246D-02-0.305D-01 0.724D-01 0.972D-02-0.627D+00
 Coeff-Com:  0.157D+01
 Coeff:      0.326D-06-0.299D-05 0.339D-05 0.246D-05-0.767D-04 0.146D-03
 Coeff:     -0.248D-03 0.426D-03-0.835D-03 0.472D-03 0.521D-04-0.713D-03
 Coeff:      0.109D-02 0.246D-02-0.305D-01 0.724D-01 0.972D-02-0.627D+00
 Coeff:      0.157D+01
 Gap=     0.280 Goal=   None    Shift=    0.000
 RMSDP=7.55D-07 MaxDP=7.93D-06 DE=-5.86D-10 OVMax= 1.70D-05

 Cycle  20  Pass 1  IDiag  3:
 E= 0.283261559198650     Delta-E=       -0.000000000155 Rises=F Damp=F
 DIIS: error= 5.15D-07 at cycle  20 NSaved=  20.
 NSaved=20 IEnMin=20 EnMin= 0.283261559198650     IErMin=20 ErrMin= 5.15D-07
 ErrMax= 5.15D-07  0.00D+00 EMaxC= 1.00D-01 BMatC= 6.19D-12 BMatP= 1.69D-11
 IDIUse=1 WtCom= 1.00D+00 WtEn= 0.00D+00
 Coeff-Com: -0.481D-06-0.114D-05-0.108D-05 0.513D-05 0.105D-05 0.368D-07
 Coeff-Com: -0.184D-04 0.195D-03-0.383D-03 0.281D-03-0.273D-03 0.388D-03
 Coeff-Com: -0.673D-03 0.276D-02-0.395D-02 0.126D-01-0.668D-01 0.303D+00
 Coeff-Com: -0.109D+01 0.184D+01
 Coeff:     -0.481D-06-0.114D-05-0.108D-05 0.513D-05 0.105D-05 0.368D-07
 Coeff:     -0.184D-04 0.195D-03-0.383D-03 0.281D-03-0.273D-03 0.388D-03
 Coeff:     -0.673D-03 0.276D-02-0.395D-02 0.126D-01-0.668D-01 0.303D+00
 Coeff:     -0.109D+01 0.184D+01
 Gap=     0.280 Goal=   None    Shift=    0.000
 RMSDP=3.42D-07 MaxDP=5.80D-06 DE=-1.55D-10 OVMax= 6.82D-06

 Cycle  21  Pass 1  IDiag  3:
 E= 0.283261559140215     Delta-E=       -0.000000000058 Rises=F Damp=F
 DIIS: error= 1.17D-07 at cycle  21 NSaved=  20.
 NSaved=20 IEnMin=20 EnMin= 0.283261559140215     IErMin=20 ErrMin= 1.17D-07
 ErrMax= 1.17D-07  0.00D+00 EMaxC= 1.00D-01 BMatC= 6.20D-13 BMatP= 6.19D-12
 IDIUse=1 WtCom= 1.00D+00 WtEn= 0.00D+00
 Coeff-Com: -0.338D-07 0.180D-05 0.378D-05-0.425D-04 0.791D-04-0.104D-03
 Coeff-Com:  0.121D-03-0.120D-03-0.314D-05 0.671D-04-0.333D-04-0.214D-03
 Coeff-Com:  0.367D-03-0.554D-03-0.371D-02 0.310D-01-0.117D+00 0.445D+00
 Coeff-Com: -0.108D+01 0.172D+01
 Coeff:     -0.338D-07 0.180D-05 0.378D-05-0.425D-04 0.791D-04-0.104D-03
 Coeff:      0.121D-03-0.120D-03-0.314D-05 0.671D-04-0.333D-04-0.214D-03
 Coeff:      0.367D-03-0.554D-03-0.371D-02 0.310D-01-0.117D+00 0.445D+00
 Coeff:     -0.108D+01 0.172D+01
 Gap=     0.280 Goal=   None    Shift=    0.000
 RMSDP=1.25D-07 MaxDP=1.53D-06 DE=-5.84D-11 OVMax= 1.88D-06

 Cycle  22  Pass 1  IDiag  3:
 E= 0.283261559136349     Delta-E=       -0.000000000004 Rises=F Damp=F
 DIIS: error= 3.80D-08 at cycle  22 NSaved=  20.
 NSaved=20 IEnMin=20 EnMin= 0.283261559136349     IErMin=20 ErrMin= 3.80D-08
 ErrMax= 3.80D-08  0.00D+00 EMaxC= 1.00D-01 BMatC= 1.02D-13 BMatP= 6.20D-13
 IDIUse=1 WtCom= 1.00D+00 WtEn= 0.00D+00
 Coeff-Com: -0.252D-06-0.270D-05 0.144D-04-0.306D-04 0.459D-04-0.522D-04
 Coeff-Com:  0.336D-04 0.405D-04-0.495D-04-0.326D-04 0.252D-03-0.293D-03
 Coeff-Com: -0.121D-02 0.572D-02-0.153D-01 0.230D-01-0.949D-01 0.354D+00
 Coeff-Com: -0.102D+01 0.175D+01
 Coeff:     -0.252D-06-0.270D-05 0.144D-04-0.306D-04 0.459D-04-0.522D-04
 Coeff:      0.336D-04 0.405D-04-0.495D-04-0.326D-04 0.252D-03-0.293D-03
 Coeff:     -0.121D-02 0.572D-02-0.153D-01 0.230D-01-0.949D-01 0.354D+00
 Coeff:     -0.102D+01 0.175D+01
 Gap=     0.280 Goal=   None    Shift=    0.000
 RMSDP=6.91D-08 MaxDP=1.07D-06 DE=-3.87D-12 OVMax= 1.44D-06

 Cycle  23  Pass 1  IDiag  3:
 E= 0.283261559132143     Delta-E=       -0.000000000004 Rises=F Damp=F
 DIIS: error= 1.35D-08 at cycle  23 NSaved=  20.
 NSaved=20 IEnMin=20 EnMin= 0.283261559132143     IErMin=20 ErrMin= 1.35D-08
 ErrMax= 1.35D-08  0.00D+00 EMaxC= 1.00D-01 BMatC= 1.04D-14 BMatP= 1.02D-13
 IDIUse=1 WtCom= 1.00D+00 WtEn= 0.00D+00
 Large coefficients: NSaved= 20 BigCof=    0.00 CofMax=   10.00 Det=-3.68D-15
 Inversion failed.  Reducing to 19 matrices.
 Large coefficients: NSaved= 19 BigCof=    0.00 CofMax=   10.00 Det=-5.31D-15
 Inversion failed.  Reducing to 18 matrices.
 Large coefficients: NSaved= 18 BigCof=    0.00 CofMax=   10.00 Det=-5.73D-15
 Inversion failed.  Reducing to 17 matrices.
 Large coefficients: NSaved= 17 BigCof=    0.00 CofMax=   10.00 Det=-6.92D-15
 Inversion failed.  Reducing to 16 matrices.
 Large coefficients: NSaved= 16 BigCof=    0.00 CofMax=   10.00 Det=-6.94D-15
 Inversion failed.  Reducing to 15 matrices.
 Coeff-Com:  0.102D-04-0.104D-04-0.748D-05 0.346D-04-0.694D-04 0.290D-04
 Coeff-Com:  0.530D-03-0.202D-02 0.420D-02-0.104D-02-0.110D-01 0.423D-03
 Coeff-Com:  0.148D+00-0.599D+00 0.146D+01
 Coeff:      0.102D-04-0.104D-04-0.748D-05 0.346D-04-0.694D-04 0.290D-04
 Coeff:      0.530D-03-0.202D-02 0.420D-02-0.104D-02-0.110D-01 0.423D-03
 Coeff:      0.148D+00-0.599D+00 0.146D+01
 Gap=     0.280 Goal=   None    Shift=    0.000
 RMSDP=1.39D-08 MaxDP=1.21D-07 DE=-4.21D-12 OVMax= 1.58D-07

 Cycle  24  Pass 1  IDiag  3:
 E= 0.283261559131347     Delta-E=       -0.000000000001 Rises=F Damp=F
 DIIS: error= 4.41D-09 at cycle  24 NSaved=  16.
 NSaved=16 IEnMin=16 EnMin= 0.283261559131347     IErMin=16 ErrMin= 4.41D-09
 ErrMax= 4.41D-09  0.00D+00 EMaxC= 1.00D-01 BMatC= 1.47D-15 BMatP= 1.04D-14
 IDIUse=1 WtCom= 1.00D+00 WtEn= 0.00D+00
 Large coefficients: NSaved= 16 BigCof=    0.00 CofMax=   10.00 Det=-8.35D-16
 Inversion failed.  Reducing to 15 matrices.
 Coeff-Com: -0.472D-05 0.104D-04-0.204D-04 0.222D-04-0.893D-05-0.114D-03
 Coeff-Com:  0.549D-03-0.140D-02 0.799D-03 0.411D-02-0.930D-02-0.237D-01
 Coeff-Com:  0.192D+00-0.795D+00 0.163D+01
 Coeff:     -0.472D-05 0.104D-04-0.204D-04 0.222D-04-0.893D-05-0.114D-03
 Coeff:      0.549D-03-0.140D-02 0.799D-03 0.411D-02-0.930D-02-0.237D-01
 Coeff:      0.192D+00-0.795D+00 0.163D+01
 Gap=     0.280 Goal=   None    Shift=    0.000
 RMSDP=5.31D-09 MaxDP=4.93D-08 DE=-7.96D-13 OVMax= 7.64D-08

 Cycle  25  Pass 2  IDiag  1:
 SCF Done:  E(RAM1) =  0.283261559131     A.U. after   25 cycles
            NFock= 24  Conv=0.53D-08     -V/T= 1.0012
 KE=-2.361656625216D+02 PE=-7.469367294088D+02 EE= 4.608863413115D+02
 Leave Link  502 at Fri May 23 05:17:13 2025, MaxMem=  3758096384 cpu:               0.1 elap:               0.0
 (Enter /apps/easybuild-2022/easybuild/software/Compiler/NVHPC/22.11-CUDA-11.7.0/Gaussian/g16c01-CUDA-11.7.0/g16/l508.exe)
 QCSCF skips out because SCF is already converged.
 Leave Link  508 at Fri May 23 05:17:13 2025, MaxMem=  3758096384 cpu:               0.0 elap:               0.0
 (Enter /apps/easybuild-2022/easybuild/software/Compiler/NVHPC/22.11-CUDA-11.7.0/Gaussian/g16c01-CUDA-11.7.0/g16/l701.exe)
 ... and contract with generalized density number  0.
 Compute integral first derivatives.
 Leave Link  701 at Fri May 23 05:17:13 2025, MaxMem=  3758096384 cpu:               0.1 elap:               0.0
 (Enter /apps/easybuild-2022/easybuild/software/Compiler/NVHPC/22.11-CUDA-11.7.0/Gaussian/g16c01-CUDA-11.7.0/g16/l702.exe)
 L702 exits ... SP integral derivatives will be done elsewhere.
 Leave Link  702 at Fri May 23 05:17:13 2025, MaxMem=  3758096384 cpu:               0.0 elap:               0.0
 (Enter /apps/easybuild-2022/easybuild/software/Compiler/NVHPC/22.11-CUDA-11.7.0/Gaussian/g16c01-CUDA-11.7.0/g16/l703.exe)
 Integral derivatives from FoFJK, PRISM(SPDF).
 Compute integral first derivatives, UseDBF=F ICtDFT=           0.
 Calling FoFJK, ICntrl=      2127 FMM=F ISym2X=0 I1Cent= 0 IOpClX= 0 NMat=1 NMatS=1 NMatT=0.
 FoFJK:  IHMeth= 8 ICntrl=    2127 DoSepK=F KAlg= 0 I1Cent=           0 FoldK=F
 IRaf=         0 NMat=       1 IRICut=       1 DoRegI=T DoRafI=F ISym2E= 0 IDoP0=3 IntGTp=3.
 FoFCou: FMM=F IPFlag=           0 FMFlag=      100000 FMFlg1=         800
         NFxFlg=           0 DoJE=F BraDBF=F KetDBF=F FulRan=T
         wScrn=  0.000000 ICntrl=      2127 IOpCl=  0 I1Cent=           0 NGrid=           0
         NMat0=    1 NMatS0=      1 NMatT0=    0 NMatD0=    1 NMtDS0=    0 NMtDT0=    0
 Symmetry not used in FoFCou.
 Leave Link  703 at Fri May 23 05:17:13 2025, MaxMem=  3758096384 cpu:               0.0 elap:               0.0
 (Enter /apps/easybuild-2022/easybuild/software/Compiler/NVHPC/22.11-CUDA-11.7.0/Gaussian/g16c01-CUDA-11.7.0/g16/l716.exe)
 Dipole        = 7.60081613D-01 1.75132053D-01 6.50702112D-01
 -------------------------------------------------------------------
 Center     Atomic                   Forces (Hartrees/Bohr)
 Number     Number              X              Y              Z
 -------------------------------------------------------------------
      1        6          -0.010803975   -0.014056999   -0.000042298
      2        6          -0.037844897    0.035968069   -0.042302954
      3        9           0.047847574   -0.050138894   -0.025915803
      4        9          -0.034247136   -0.033203011    0.055738550
      5       16          -0.124329342   -0.025200709   -0.037032253
      6        8           0.030578739    0.050691242    0.045359721
      7        8          -0.013360164   -0.035465722    0.021803587
      8        8           0.099197395    0.012381518   -0.012281561
      9        9           0.035481918    0.030364853   -0.049308038
     10        9          -0.038332017    0.041657558    0.021995954
     11        9           0.039122698   -0.011943291    0.044478692
     12        1           0.006689207   -0.001054616   -0.022493596
 -------------------------------------------------------------------
 Cartesian Forces:  Max     0.124329342 RMS     0.041923675
 Z-matrix is all fixed cartesians, so copy forces.
 Force constants in Cartesian coordinates: 
                1             2             3             4             5 
      1  0.950083D+00
      2 -0.838173D-01  0.840605D+00
      3 -0.451787D-01 -0.684838D-01  0.984818D+00
      4 -0.161354D+00 -0.544353D-01 -0.242340D-01  0.740020D+00
      5 -0.638116D-01 -0.217903D+00 -0.421034D-01 -0.515057D-01  0.805919D+00
      6 -0.229563D-01 -0.337589D-01 -0.144286D+00 -0.212773D+00 -0.421862D-01
      7  0.224660D-01 -0.105283D-01 -0.678751D-02 -0.303270D+00  0.231449D+00
      8  0.185989D-01 -0.861140D-02 -0.589680D-02  0.234998D+00 -0.322149D+00
      9  0.587562D-02 -0.295041D-02 -0.125264D-02  0.117215D+00 -0.122001D+00
     10 -0.299045D-02 -0.236023D-02  0.108856D-01 -0.182985D+00 -0.110970D+00
     11 -0.768791D-02 -0.401829D-02  0.225465D-01 -0.119189D+00 -0.195641D+00
     12 -0.637345D-02 -0.380276D-02  0.199428D-01  0.186299D+00  0.187732D+00
     13 -0.256178D-02  0.306571D-02 -0.417558D-02 -0.118340D+00  0.322191D-03
     14 -0.116387D-01  0.123959D-01 -0.149044D-01 -0.495610D-02 -0.922444D-01
     15 -0.716094D-03  0.465354D-03 -0.128017D-03 -0.653558D-01  0.265291D-01
     16  0.000000D+00  0.000000D+00  0.000000D+00  0.000000D+00  0.000000D+00
     17  0.000000D+00  0.000000D+00  0.000000D+00  0.000000D+00  0.000000D+00
     18  0.000000D+00  0.000000D+00  0.000000D+00  0.000000D+00  0.000000D+00
     19 -0.122139D-03  0.278833D-04  0.114799D-03  0.119136D-01  0.147159D-01
     20  0.138335D-03 -0.315808D-04 -0.130022D-03  0.603681D-04  0.199909D-02
     21  0.143026D-03 -0.326518D-04 -0.134431D-03  0.756500D-02  0.123995D-01
     22  0.167017D-03 -0.381286D-04 -0.156980D-03 -0.182871D-02 -0.123077D-01
     23 -0.448802D-04  0.102458D-04  0.421831D-04  0.309796D-02  0.132142D-01
     24 -0.158705D-03  0.362311D-04  0.149168D-03 -0.533557D-02 -0.151886D-01
     25 -0.224927D+00 -0.131079D+00  0.206177D+00 -0.320819D-02 -0.175325D-02
     26 -0.133417D+00 -0.192747D+00  0.176766D+00 -0.902652D-02 -0.300180D-02
     27  0.199874D+00  0.168105D+00 -0.359095D+00 -0.789669D-02 -0.312049D-02
     28 -0.279363D+00  0.213686D+00  0.116861D+00  0.229249D-01 -0.106865D-01
     29  0.223437D+00 -0.328425D+00 -0.135821D+00  0.178913D-01 -0.821885D-02
     30  0.121526D+00 -0.135188D+00 -0.145590D+00  0.560595D-02 -0.283855D-02
     31 -0.301397D+00  0.654788D-01 -0.253506D+00 -0.387244D-02  0.454729D-02
     32  0.582430D-01 -0.101275D+00  0.679840D-01 -0.169345D-01  0.180256D-01
     33 -0.252036D+00  0.756097D-01 -0.354425D+00 -0.108881D-02  0.777616D-03
     34  0.000000D+00  0.000000D+00  0.000000D+00  0.000000D+00  0.000000D+00
     35  0.000000D+00  0.000000D+00  0.000000D+00  0.000000D+00  0.000000D+00
     36  0.000000D+00  0.000000D+00  0.000000D+00  0.000000D+00  0.000000D+00
                6             7             8             9            10 
      6  0.780593D+00
      7  0.123881D+00  0.293515D+00
      8 -0.130813D+00 -0.239299D+00  0.309018D+00
      9 -0.139142D+00 -0.126868D+00  0.132432D+00  0.130659D+00
     10  0.178403D+00 -0.641862D-02 -0.144381D-01  0.154934D-01  0.174874D+00
     11  0.193744D+00  0.968752D-02  0.215013D-01 -0.228384D-01  0.117921D+00
     12 -0.397096D+00  0.200595D-02  0.433856D-02 -0.451524D-02 -0.191856D+00
     13 -0.547323D-01 -0.625175D-02  0.193401D-03 -0.117396D-01  0.175361D-01
     14  0.174945D-01  0.877684D-02  0.351259D-03  0.153092D-01  0.987878D-02
     15 -0.116365D+00  0.775435D-02 -0.807253D-04  0.142617D-01 -0.129344D-01
     16  0.000000D+00  0.000000D+00  0.000000D+00  0.000000D+00  0.000000D+00
     17  0.000000D+00  0.000000D+00  0.000000D+00  0.000000D+00  0.000000D+00
     18  0.000000D+00  0.000000D+00  0.000000D+00  0.000000D+00  0.000000D+00
     19 -0.674169D-02  0.112901D-03  0.142667D-03 -0.630681D-04  0.410022D-04
     20  0.457681D-03 -0.127872D-03 -0.161586D-03  0.714315D-04 -0.464394D-04
     21 -0.350012D-02 -0.132209D-03 -0.167066D-03  0.738538D-04 -0.480142D-04
     22 -0.153332D-02 -0.154385D-03 -0.195088D-03  0.862416D-04 -0.560679D-04
     23  0.646061D-03  0.414858D-04  0.524235D-04 -0.231746D-04  0.150664D-04
     24  0.821932D-03  0.146702D-03  0.185380D-03 -0.819499D-04  0.532777D-04
     25  0.961148D-02 -0.311753D-04  0.135961D-03 -0.312608D-03  0.283468D-03
     26  0.219182D-01  0.215878D-04 -0.941484D-04  0.216470D-03 -0.196292D-03
     27  0.204868D-01 -0.909877D-05  0.396814D-04 -0.912371D-04  0.827326D-04
     28 -0.707687D-02  0.378215D-05 -0.164946D-04  0.379252D-04 -0.343900D-04
     29 -0.584477D-02 -0.154109D-04  0.672098D-04 -0.154532D-03  0.140127D-03
     30 -0.113262D-02  0.350493D-04 -0.152856D-03  0.351454D-03 -0.318694D-03
     31 -0.608129D-02  0.274751D-04 -0.119824D-03  0.275504D-03 -0.249823D-03
     32 -0.216580D-01 -0.610202D-05  0.266120D-04 -0.611874D-04  0.554839D-04
     33 -0.380541D-03 -0.262759D-04  0.114594D-03 -0.263479D-03  0.238919D-03
     34  0.000000D+00  0.000000D+00  0.000000D+00  0.000000D+00  0.000000D+00
     35  0.000000D+00  0.000000D+00  0.000000D+00  0.000000D+00  0.000000D+00
     36  0.000000D+00  0.000000D+00  0.000000D+00  0.000000D+00  0.000000D+00
               11            12            13            14            15 
     11  0.178147D+00
     12 -0.194099D+00  0.388927D+00
     13 -0.797151D-03  0.989458D-02  0.454841D+00
     14 -0.124314D-03  0.576853D-02  0.550934D+00  0.123299D+01
     15  0.670967D-03 -0.724844D-02  0.761087D-01 -0.220379D+00  0.549319D+00
     16  0.000000D+00  0.000000D+00  0.000000D+00  0.000000D+00  0.000000D+00
     17  0.000000D+00  0.000000D+00  0.000000D+00  0.000000D+00  0.000000D+00
     18  0.000000D+00  0.000000D+00  0.000000D+00  0.000000D+00  0.000000D+00
     19 -0.175888D-03 -0.810968D-04 -0.135491D+00 -0.253437D+00  0.121044D+00
     20  0.199212D-03  0.918509D-04 -0.242665D+00 -0.608725D+00  0.354826D+00
     21  0.205967D-03  0.949657D-04  0.118116D+00  0.364339D+00 -0.299171D+00
     22  0.240515D-03  0.110895D-03 -0.209734D+00 -0.299557D+00 -0.125901D+00
     23 -0.646305D-04 -0.297993D-04 -0.311054D+00 -0.544645D+00 -0.162032D+00
     24 -0.228546D-03 -0.105376D-03 -0.133470D+00 -0.167628D+00 -0.140670D+00
     25 -0.186257D-03  0.561035D-04 -0.170847D-03  0.390031D-04  0.160580D-03
     26  0.128977D-03 -0.388497D-04  0.118306D-03 -0.270083D-04 -0.111196D-03
     27 -0.543607D-04  0.163743D-04 -0.498632D-04  0.113834D-04  0.468667D-04
     28  0.225965D-04 -0.680641D-05  0.207270D-04 -0.473181D-05 -0.194814D-04
     29 -0.920727D-04  0.277337D-04 -0.844552D-04  0.192804D-04  0.793798D-04
     30  0.209403D-03 -0.630752D-04  0.192078D-03 -0.438498D-04 -0.180535D-03
     31  0.164150D-03 -0.494444D-04  0.150569D-03 -0.343738D-04 -0.141521D-03
     32 -0.364566D-04  0.109813D-04 -0.334404D-04  0.763417D-05  0.314307D-04
     33 -0.156986D-03  0.472864D-04 -0.143998D-03  0.328735D-04  0.135344D-03
     34  0.000000D+00  0.000000D+00  0.000000D+00  0.000000D+00  0.000000D+00
     35  0.000000D+00  0.000000D+00  0.000000D+00  0.000000D+00  0.000000D+00
     36  0.000000D+00  0.000000D+00  0.000000D+00  0.000000D+00  0.000000D+00
               16            17            18            19            20 
     16  0.725307D-01
     17 -0.179504D-01  0.444247D-02
     18 -0.181302D+00  0.448699D-01  0.453196D+00
     19  0.000000D+00  0.000000D+00  0.000000D+00  0.121667D+00
     20  0.000000D+00  0.000000D+00  0.000000D+00  0.243822D+00  0.610497D+00
     21  0.000000D+00  0.000000D+00  0.000000D+00 -0.124945D+00 -0.367553D+00
     22  0.000000D+00  0.000000D+00  0.000000D+00  0.187861D-02 -0.118161D-02
     23  0.000000D+00  0.000000D+00  0.000000D+00 -0.509543D-02 -0.377774D-02
     24  0.000000D+00  0.000000D+00  0.000000D+00  0.106722D-01  0.122359D-01
     25  0.000000D+00  0.000000D+00  0.000000D+00  0.000000D+00  0.000000D+00
     26  0.000000D+00  0.000000D+00  0.000000D+00  0.000000D+00  0.000000D+00
     27  0.000000D+00  0.000000D+00  0.000000D+00  0.000000D+00  0.000000D+00
     28  0.000000D+00  0.000000D+00  0.000000D+00  0.000000D+00  0.000000D+00
     29  0.000000D+00  0.000000D+00  0.000000D+00  0.000000D+00  0.000000D+00
     30  0.000000D+00  0.000000D+00  0.000000D+00  0.000000D+00  0.000000D+00
     31  0.000000D+00  0.000000D+00  0.000000D+00  0.000000D+00  0.000000D+00
     32  0.000000D+00  0.000000D+00  0.000000D+00  0.000000D+00  0.000000D+00
     33  0.000000D+00  0.000000D+00  0.000000D+00  0.000000D+00  0.000000D+00
     34 -0.725307D-01  0.179504D-01  0.181302D+00  0.000000D+00  0.000000D+00
     35  0.179504D-01 -0.444247D-02 -0.448699D-01  0.000000D+00  0.000000D+00
     36  0.181302D+00 -0.448699D-01 -0.453196D+00  0.000000D+00  0.000000D+00
               21            22            23            24            25 
     21  0.276522D+00
     22 -0.697970D-03  0.209727D+00
     23 -0.919153D-02  0.313039D+00  0.535211D+00
     24  0.261148D-01  0.128092D+00  0.170588D+00  0.113771D+00
     25  0.000000D+00  0.000000D+00  0.000000D+00  0.000000D+00  0.210673D+00
     26  0.000000D+00  0.000000D+00  0.000000D+00  0.000000D+00  0.132701D+00
     27  0.000000D+00  0.000000D+00  0.000000D+00  0.000000D+00 -0.210585D+00
     28  0.000000D+00  0.000000D+00  0.000000D+00  0.000000D+00 -0.695229D-02
     29  0.000000D+00  0.000000D+00  0.000000D+00  0.000000D+00 -0.133730D-01
     30  0.000000D+00  0.000000D+00  0.000000D+00  0.000000D+00  0.130688D-01
     31  0.000000D+00  0.000000D+00  0.000000D+00  0.000000D+00  0.243334D-01
     32  0.000000D+00  0.000000D+00  0.000000D+00  0.000000D+00  0.135163D-01
     33  0.000000D+00  0.000000D+00  0.000000D+00  0.000000D+00 -0.181759D-01
     34  0.000000D+00  0.000000D+00  0.000000D+00  0.000000D+00  0.000000D+00
     35  0.000000D+00  0.000000D+00  0.000000D+00  0.000000D+00  0.000000D+00
     36  0.000000D+00  0.000000D+00  0.000000D+00  0.000000D+00  0.000000D+00
               26            27            28            29            30 
     26  0.173913D+00
     27 -0.178592D+00  0.354790D+00
     28  0.121359D-01  0.250159D-02  0.272564D+00
     29  0.228894D-01  0.453067D-02 -0.228278D+00  0.313889D+00
     30 -0.219682D-01 -0.417978D-02 -0.124052D+00  0.137470D+00  0.130335D+00
     31 -0.233686D-02  0.160827D-01 -0.916387D-02  0.282895D-03 -0.160572D-01
     32 -0.106147D-02  0.907974D-02  0.131414D-01 -0.128619D-03  0.225118D-01
     33  0.180923D-02 -0.119736D-01  0.117549D-01 -0.288266D-03  0.204586D-01
     34  0.000000D+00  0.000000D+00  0.000000D+00  0.000000D+00  0.000000D+00
     35  0.000000D+00  0.000000D+00  0.000000D+00  0.000000D+00  0.000000D+00
     36  0.000000D+00  0.000000D+00  0.000000D+00  0.000000D+00  0.000000D+00
               31            32            33            34            35 
     31  0.290172D+00
     32 -0.679821D-01  0.844417D-01
     33  0.259477D+00 -0.778988D-01  0.346401D+00
     34  0.000000D+00  0.000000D+00  0.000000D+00  0.725307D-01
     35  0.000000D+00  0.000000D+00  0.000000D+00 -0.179504D-01  0.444247D-02
     36  0.000000D+00  0.000000D+00  0.000000D+00 -0.181302D+00  0.448699D-01
               36 
     36  0.453196D+00
 Leave Link  716 at Fri May 23 05:17:13 2025, MaxMem=  3758096384 cpu:               0.0 elap:               0.0
 (Enter /apps/easybuild-2022/easybuild/software/Compiler/NVHPC/22.11-CUDA-11.7.0/Gaussian/g16c01-CUDA-11.7.0/g16/l103.exe)

 GradGradGradGradGradGradGradGradGradGradGradGradGradGradGradGradGradGrad
 Berny optimization.
 Search for a local minimum.
 Step number   1 out of a maximum of    2
 All quantities printed in internal units (Hartrees-Bohrs-Radians)
 Second derivative matrix not updated -- first step.
 ITU=  0
     Eigenvalues ---   -0.00000   0.00000   0.00000   0.00000   0.00000
     Eigenvalues ---    0.00123   0.00185   0.01243   0.02798   0.04311
     Eigenvalues ---    0.05227   0.05435   0.06596   0.09047   0.10283
     Eigenvalues ---    0.12550   0.13836   0.16314   0.19275   0.22835
     Eigenvalues ---    0.32482   0.59279   0.99750   1.08900   1.25266
     Eigenvalues ---    1.31876   1.42911   1.52291   1.60540   2.38998
 Eigenvalue     1 is  -5.55D-16 should be greater than     0.000000 Eigenvector:
                          X6        Z6        Y6        X7        X9
   1                    0.90748   0.26854   0.09566  -0.09008  -0.09008
                          X10       X1        X5        X11       X2
   1                   -0.09008  -0.09008  -0.09008  -0.09008  -0.09008
 Eigenvalue     2 is   0.00D+00 Eigenvector:
                          X12       Z12       Z6        Y12       X4
   1                    0.94780   0.25131  -0.10657   0.09623  -0.04121
                          X11       X2        X10       X3        X1
   1                   -0.04121  -0.04121  -0.04121  -0.04121  -0.04121
 Eigenvalue     3 is   1.00D-09 Eigenvector:
                          Y12       Y6        Z6        Z12       X12
   1                    0.89315  -0.41976   0.09517  -0.06946  -0.06674
                          Z8        Y7        Z4        Y8        Z3
   1                   -0.03746   0.03214  -0.02707   0.02587  -0.02408
 Eigenvalue     4 is   3.30D-08 Eigenvector:
                          Y6        Y12       Y8        Y5        X4
   1                    0.67134   0.33466  -0.30059  -0.21534   0.19162
                          X3        Y4        X7        X9        X10
   1                    0.18397  -0.17975  -0.16829  -0.16179  -0.15964
 Eigenvalue     5 is   2.11D-06 Eigenvector:
                          Z12       Z6        Z8        X7        Z5
   1                    0.56044   0.53248  -0.27230   0.21576  -0.20477
                          X8        Z7        X11       X5        Y6
   1                    0.20140  -0.17259  -0.16649   0.14024   0.12630
 Quadratic step=7.740D+02 exceeds max=3.000D-01 adjusted using Lamda=-5.184D-01.
 Angle between NR and scaled steps=  58.97 degrees.
 Angle between quadratic step and forces=  27.28 degrees.
 Linear search not attempted -- first point.
 B after Tr=     0.000809   -0.000666    0.002129
         Rot=    1.000000    0.000005   -0.000091   -0.000035 Ang=   0.01 deg.
 Variable       Old X    -DE/DX   Delta X   Delta X   Delta X     New X
                                 (Linear)    (Quad)   (Total)
    X1        7.51482  -0.01080   0.00000  -0.00063   0.00051   7.51533
    Y1        4.01038  -0.01406   0.00000   0.01311   0.01300   4.02337
    Z1        3.37073  -0.00004   0.00000   0.00134   0.00206   3.37279
    X2        6.10671  -0.03784   0.00000  -0.04804  -0.04690   6.05980
    Y2        1.59295   0.03597   0.00000  -0.00232  -0.00255   1.59040
    Z2        2.45975  -0.04230   0.00000  -0.03526  -0.03425   2.42550
    X3        7.73066   0.04785   0.00000   0.02881   0.02991   7.76056
    Y3       -0.08671  -0.05014   0.00000  -0.04028  -0.04039  -0.12711
    Z3        1.56727  -0.02592   0.00000  -0.02871  -0.02800   1.53927
    X4        4.97776  -0.03425   0.00000  -0.03400  -0.03241   4.94535
    Y4        0.44972  -0.03320   0.00000  -0.02881  -0.02909   0.42062
    Z4        4.36847   0.05574   0.00000   0.04376   0.04498   4.41345
    X5        3.73463  -0.12433   0.00000  -0.15733  -0.15673   3.57790
    Y5        2.28061  -0.02520   0.00000   0.00812   0.00770   2.28831
    Z5       -0.23102  -0.03703   0.00000  -0.00772  -0.00626  -0.23728
    X6       -0.58943   0.03058   0.00000   0.07215   0.07287  -0.51656
    Y6        2.04712   0.05069   0.00000   0.09521   0.09452   2.14163
    Z6        0.31958   0.04536   0.00000   0.05014   0.05234   0.37192
    X7        4.60593  -0.01336   0.00000  -0.02765  -0.02744   4.57849
    Y7        4.48679  -0.03547   0.00000  -0.04516  -0.04552   4.44127
    Z7       -1.62078   0.02180   0.00000   0.01989   0.02114  -1.59964
    X8        2.31819   0.09920   0.00000   0.12900   0.12960   2.44779
    Y8       -0.00809   0.01238   0.00000  -0.05931  -0.05981  -0.06790
    Z8       -1.07442  -0.01228   0.00000  -0.06382  -0.06214  -1.13656
    X9        8.81871   0.03548   0.00000   0.03211   0.03283   8.85154
    Y9        5.13045   0.03036   0.00000   0.02979   0.02976   5.16021
    Z9        1.56067  -0.04931   0.00000  -0.04432  -0.04386   1.51681
   X10        5.94152  -0.03833   0.00000  -0.03671  -0.03552   5.90601
   Y10        5.73545   0.04166   0.00000   0.04304   0.04282   5.77827
   Z10        4.29900   0.02200   0.00000   0.02036   0.02136   4.32036
   X11        9.15725   0.03912   0.00000   0.03217   0.03369   9.19094
   Y11        3.51702  -0.01194   0.00000  -0.01151  -0.01149   3.50553
   Z11        5.20269   0.04448   0.00000   0.03965   0.04007   5.24276
   X12       -1.26866   0.00669   0.00000  -0.00144  -0.00042  -1.26908
   Y12        2.21522  -0.00105   0.00000   0.00180   0.00106   2.21628
   Z12        2.01742  -0.02249   0.00000  -0.00978  -0.00744   2.00998
         Item               Value     Threshold  Converged?
 Maximum Force            0.124329     0.000450     NO 
 RMS     Force            0.041924     0.000300     NO 
 Maximum Displacement     0.156730     0.001800     NO 
 RMS     Displacement     0.050085     0.001200     NO 
 Predicted change in Energy=-5.701755D-02
 GradGradGradGradGradGradGradGradGradGradGradGradGradGradGradGradGradGrad

 Leave Link  103 at Fri May 23 05:17:13 2025, MaxMem=  3758096384 cpu:               0.0 elap:               0.0
 (Enter /apps/easybuild-2022/easybuild/software/Compiler/NVHPC/22.11-CUDA-11.7.0/Gaussian/g16c01-CUDA-11.7.0/g16/l9999.exe)
 Unable to Open any file for archive entry.
 1\1\GINC-SPARTAN-BM202\Force\RAM1\ZDO\C2H1F5O3S1\AKHALILOV\23-May-2025
 \0\\#P am1 Symm(None) scf(xqc) pop(None) force\\Gaussian input prepare
 d by ASE\\0,1\C,3.9766713684,2.1222011135,1.7837119024\C,3.2315300877,
 0.84295047,1.3016429998\F,4.0908874046,-0.0458874276,0.8293634259\F,2.
 6341172196,0.2379789324,2.3116933212\S,1.9762821264,1.2068485371,-0.12
 22497156\O,-0.3119155331,1.0832876459,0.1691137064\O,2.4373556138,2.37
 43080557,-0.8576801464\O,1.226731899,-0.0042798677,-0.5685597302\F,4.6
 666609298,2.7149172274,0.8258699866\F,3.1441173343,3.0350700936,2.2749
 337624\F,4.8458075356,1.86112486,2.753142475\H,-0.6713479862,1.1722423
 597,1.0675750124\\Version=ES64L-G16RevC.01\HF=0.2832616\RMSD=5.307e-09
 \RMSF=4.192e-02\Dipole=0.7600816,0.1751321,0.6507021\PG=Unknown\\@
 The archive entry for this job was punched.


 THE WHOLE OF SCIENCE IS NOTHING MORE THAN A REFINEMENT OF EVERYDAY THINKING.
                                                              -- A. EINSTEIN
 Job cpu time:       0 days  0 hours  0 minutes  0.8 seconds.
 Elapsed time:       0 days  0 hours  0 minutes  0.4 seconds.
 File lengths (MBytes):  RWF=      6 Int=      0 D2E=      0 Chk=      2 Scr=      1
 Normal termination of Gaussian 16 at Fri May 23 05:17:13 2025.
done
