 Entering Gaussian System, Link 0=g16
 Initial command:
 /apps/easybuild-2022/easybuild/software/Compiler/NVHPC/22.11-CUDA-11.7.0/Gaussian/g16c01-CUDA-11.7.0/g16/l1.exe "/tmp/Gau-3264.inp" -scrdir="/tmp/"
 Entering Link 1 = /apps/easybuild-2022/easybuild/software/Compiler/NVHPC/22.11-CUDA-11.7.0/Gaussian/g16c01-CUDA-11.7.0/g16/l1.exe PID=      3266.
  
 Copyright (c) 1988-2019, Gaussian, Inc.  All Rights Reserved.
  
 This is part of the Gaussian(R) 16 program.  It is based on
 the Gaussian(R) 09 system (copyright 2009, Gaussian, Inc.),
 the Gaussian(R) 03 system (copyright 2003, Gaussian, Inc.),
 the Gaussian(R) 98 system (copyright 1998, Gaussian, Inc.),
 the Gaussian(R) 94 system (copyright 1995, Gaussian, Inc.),
 the Gaussian 92(TM) system (copyright 1992, Gaussian, Inc.),
 the Gaussian 90(TM) system (copyright 1990, Gaussian, Inc.),
 the Gaussian 88(TM) system (copyright 1988, Gaussian, Inc.),
 the Gaussian 86(TM) system (copyright 1986, Carnegie Mellon
 University), and the Gaussian 82(TM) system (copyright 1983,
 Carnegie Mellon University). Gaussian is a federally registered
 trademark of Gaussian, Inc.
  
 This software contains proprietary and confidential information,
 including trade secrets, belonging to Gaussian, Inc.
  
 This software is provided under written license and may be
 used, copied, transmitted, or stored only in accord with that
 written license.
  
 The following legend is applicable only to US Government
 contracts under FAR:
  
                    RESTRICTED RIGHTS LEGEND
  
 Use, reproduction and disclosure by the US Government is
 subject to restrictions as set forth in subparagraphs (a)
 and (c) of the Commercial Computer Software - Restricted
 Rights clause in FAR 52.227-19.
  
 Gaussian, Inc.
 340 Quinnipiac St., Bldg. 40, Wallingford CT 06492
  
  
 ---------------------------------------------------------------
 Warning -- This program may not be used in any manner that
 competes with the business of Gaussian, Inc. or will provide
 assistance to any competitor of Gaussian, Inc.  The licensee
 of this program is prohibited from giving any competitor of
 Gaussian, Inc. access to this program.  By using this program,
 the user acknowledges that Gaussian, Inc. is engaged in the
 business of creating and licensing software in the field of
 computational chemistry and represents and warrants to the
 licensee that it is not a competitor of Gaussian, Inc. and that
 it will not use this program in any manner prohibited above.
 ---------------------------------------------------------------
  

 Cite this work as:
 Gaussian 16, Revision C.01,
 M. J. Frisch, G. W. Trucks, H. B. Schlegel, G. E. Scuseria, 
 M. A. Robb, J. R. Cheeseman, G. Scalmani, V. Barone, 
 G. A. Petersson, H. Nakatsuji, X. Li, M. Caricato, A. V. Marenich, 
 J. Bloino, B. G. Janesko, R. Gomperts, B. Mennucci, H. P. Hratchian, 
 J. V. Ortiz, A. F. Izmaylov, J. L. Sonnenberg, D. Williams-Young, 
 F. Ding, F. Lipparini, F. Egidi, J. Goings, B. Peng, A. Petrone, 
 T. Henderson, D. Ranasinghe, V. G. Zakrzewski, J. Gao, N. Rega, 
 G. Zheng, W. Liang, M. Hada, M. Ehara, K. Toyota, R. Fukuda, 
 J. Hasegawa, M. Ishida, T. Nakajima, Y. Honda, O. Kitao, H. Nakai, 
 T. Vreven, K. Throssell, J. A. Montgomery, Jr., J. E. Peralta, 
 F. Ogliaro, M. J. Bearpark, J. J. Heyd, E. N. Brothers, K. N. Kudin, 
 V. N. Staroverov, T. A. Keith, R. Kobayashi, J. Normand, 
 K. Raghavachari, A. P. Rendell, J. C. Burant, S. S. Iyengar, 
 J. Tomasi, M. Cossi, J. M. Millam, M. Klene, C. Adamo, R. Cammi, 
 J. W. Ochterski, R. L. Martin, K. Morokuma, O. Farkas, 
 J. B. Foresman, and D. J. Fox, Gaussian, Inc., Wallingford CT, 2019.
 
 ******************************************
 Gaussian 16:  ES64L-G16RevC.01  3-Jul-2019
                23-May-2025 
 ******************************************
 %mem=28GB
 %nprocshared=8
 Will use up to    8 processors via shared memory.
 ----------------------------------------------------------------------
 #P wb97xd/6-311++G(d,p) Symm(None) scf(xqc) pop(None) freq opt(CalcFC,
  Tight)
 ----------------------------------------------------------------------
 1/7=10,10=4,18=20,19=15,26=3,38=1/1,3;
 2/9=110,12=2,15=3,17=6,18=5,40=1/2;
 3/5=4,6=6,7=1111,11=2,25=1,30=1,71=2,74=-58,140=1/1,2,3;
 4//1;
 5/5=2,8=3,13=1,38=5/2,8;
 8/6=4,10=90,11=11/1;
 11/6=1,8=1,9=11,15=111,16=1,31=1/1,2,10;
 10/6=1,13=1,31=1/2;
 7/10=1,25=1,30=1/1,2,3,16;
 1/7=10,10=4,18=20,19=15,26=3/3(2);
 2/9=110,15=3/2;
 99//99;
 2/9=110,15=3/2;
 3/5=4,6=6,7=1111,11=2,25=1,30=1,71=1,74=-58/1,2,3;
 4/5=5,16=3,69=1/1;
 5/5=2,8=3,13=1,38=5/2,8;
 7/30=1/1,2,3,16;
 1/7=10,18=20,19=15,26=3/3(-5);
 2/9=110,15=3/2;
 99/9=1/99;
 Leave Link    1 at Fri May 23 05:15:24 2025, MaxMem=  3758096384 cpu:               0.0 elap:               0.0
 (Enter /apps/easybuild-2022/easybuild/software/Compiler/NVHPC/22.11-CUDA-11.7.0/Gaussian/g16c01-CUDA-11.7.0/g16/l101.exe)
 ------------------------------
 Gaussian input prepared by ASE
 ------------------------------
 Symbolic Z-matrix:
 Charge =  0 Multiplicity = 1
 C                     0.99152   2.55316  -2.86457 
 C                    -0.17376   1.78802  -2.18397 
 F                    -1.31875   2.11643  -2.77626 
 F                     0.04647   0.47473  -2.3089 
 S                    -0.2343    2.17137  -0.30779 
 O                     0.96567   0.        0. 
 O                    -1.34304   1.36066   0.18986 
 O                     1.24224   1.39434   0. 
 F                     0.73659   3.84993  -2.92561 
 F                     2.11147   2.36312  -2.16021 
 F                     1.17888   2.09109  -4.09556 
 H                     0.        0.        0. 
 
 ITRead=  0  0  0  0  0  0  0  0  0  0  0  0
 MicOpt= -1 -1 -1 -1 -1 -1 -1 -1 -1 -1 -1 -1
 NAtoms=     12 NQM=       12 NQMF=       0 NMMI=      0 NMMIF=      0
                NMic=       0 NMicF=      0.
                    Isotopes and Nuclear Properties:
 (Nuclear quadrupole moments (NQMom) in fm**2, nuclear magnetic moments (NMagM)
  in nuclear magnetons)

  Atom         1           2           3           4           5           6           7           8           9          10
 IAtWgt=          12          12          19          19          32          16          16          16          19          19
 AtmWgt=  12.0000000  12.0000000  18.9984032  18.9984032  31.9720718  15.9949146  15.9949146  15.9949146  18.9984032  18.9984032
 NucSpn=           0           0           1           1           0           0           0           0           1           1
 AtZEff=  -0.0000000  -0.0000000  -0.0000000  -0.0000000  -0.0000000  -0.0000000  -0.0000000  -0.0000000  -0.0000000  -0.0000000
 NQMom=    0.0000000   0.0000000   0.0000000   0.0000000   0.0000000   0.0000000   0.0000000   0.0000000   0.0000000   0.0000000
 NMagM=    0.0000000   0.0000000   2.6288670   2.6288670   0.0000000   0.0000000   0.0000000   0.0000000   2.6288670   2.6288670
 AtZNuc=   6.0000000   6.0000000   9.0000000   9.0000000  16.0000000   8.0000000   8.0000000   8.0000000   9.0000000   9.0000000

  Atom        11          12
 IAtWgt=          19           1
 AtmWgt=  18.9984032   1.0078250
 NucSpn=           1           1
 AtZEff=  -0.0000000  -0.0000000
 NQMom=    0.0000000   0.0000000
 NMagM=    2.6288670   2.7928460
 AtZNuc=   9.0000000   1.0000000
 Leave Link  101 at Fri May 23 05:15:24 2025, MaxMem=  3758096384 cpu:               0.2 elap:               0.2
 (Enter /apps/easybuild-2022/easybuild/software/Compiler/NVHPC/22.11-CUDA-11.7.0/Gaussian/g16c01-CUDA-11.7.0/g16/l103.exe)

 GradGradGradGradGradGradGradGradGradGradGradGradGradGradGradGradGradGrad
 Berny optimization.
 Initialization pass.
                           ----------------------------
                           !    Initial Parameters    !
                           ! (Angstroms and Degrees)  !
 --------------------------                            --------------------------
 ! Name  Definition              Value          Derivative Info.                !
 --------------------------------------------------------------------------------
 ! R1    R(1,2)                  1.5513         calculate D2E/DX2 analytically  !
 ! R2    R(1,9)                  1.323          calculate D2E/DX2 analytically  !
 ! R3    R(1,10)                 1.3366         calculate D2E/DX2 analytically  !
 ! R4    R(1,11)                 1.3281         calculate D2E/DX2 analytically  !
 ! R5    R(2,3)                  1.3303         calculate D2E/DX2 analytically  !
 ! R6    R(2,4)                  1.3375         calculate D2E/DX2 analytically  !
 ! R7    R(2,5)                  1.9159         calculate D2E/DX2 analytically  !
 ! R8    R(5,7)                  1.4609         calculate D2E/DX2 analytically  !
 ! R9    R(5,8)                  1.6967         calculate D2E/DX2 analytically  !
 ! R10   R(6,8)                  1.4215         calculate D2E/DX2 analytically  !
 ! R11   R(6,12)                 0.9657         calculate D2E/DX2 analytically  !
 ! A1    A(2,1,9)              111.036          calculate D2E/DX2 analytically  !
 ! A2    A(2,1,10)             109.1519         calculate D2E/DX2 analytically  !
 ! A3    A(2,1,11)             109.9378         calculate D2E/DX2 analytically  !
 ! A4    A(9,1,10)             108.9736         calculate D2E/DX2 analytically  !
 ! A5    A(9,1,11)             108.9918         calculate D2E/DX2 analytically  !
 ! A6    A(10,1,11)            108.7087         calculate D2E/DX2 analytically  !
 ! A7    A(1,2,3)              109.2341         calculate D2E/DX2 analytically  !
 ! A8    A(1,2,4)              108.6414         calculate D2E/DX2 analytically  !
 ! A9    A(1,2,5)              110.7739         calculate D2E/DX2 analytically  !
 ! A10   A(3,2,4)              110.0321         calculate D2E/DX2 analytically  !
 ! A11   A(3,2,5)              111.0636         calculate D2E/DX2 analytically  !
 ! A12   A(4,2,5)              107.0466         calculate D2E/DX2 analytically  !
 ! A13   A(2,5,7)              104.2723         calculate D2E/DX2 analytically  !
 ! A14   A(2,5,8)               93.3541         calculate D2E/DX2 analytically  !
 ! A15   A(7,5,8)              110.1532         calculate D2E/DX2 analytically  !
 ! A16   A(8,6,12)             101.219          calculate D2E/DX2 analytically  !
 ! A17   A(5,8,6)              106.2548         calculate D2E/DX2 analytically  !
 ! D1    D(9,1,2,3)             51.6637         calculate D2E/DX2 analytically  !
 ! D2    D(9,1,2,4)            171.7024         calculate D2E/DX2 analytically  !
 ! D3    D(9,1,2,5)            -70.9841         calculate D2E/DX2 analytically  !
 ! D4    D(10,1,2,3)           171.8175         calculate D2E/DX2 analytically  !
 ! D5    D(10,1,2,4)           -68.1438         calculate D2E/DX2 analytically  !
 ! D6    D(10,1,2,5)            49.1698         calculate D2E/DX2 analytically  !
 ! D7    D(11,1,2,3)           -69.0272         calculate D2E/DX2 analytically  !
 ! D8    D(11,1,2,4)            51.0115         calculate D2E/DX2 analytically  !
 ! D9    D(11,1,2,5)           168.325          calculate D2E/DX2 analytically  !
 ! D10   D(1,2,5,7)           -178.4934         calculate D2E/DX2 analytically  !
 ! D11   D(1,2,5,8)            -66.7147         calculate D2E/DX2 analytically  !
 ! D12   D(3,2,5,7)             59.9284         calculate D2E/DX2 analytically  !
 ! D13   D(3,2,5,8)            171.7071         calculate D2E/DX2 analytically  !
 ! D14   D(4,2,5,7)            -60.2061         calculate D2E/DX2 analytically  !
 ! D15   D(4,2,5,8)             51.5726         calculate D2E/DX2 analytically  !
 ! D16   D(2,5,8,6)            -77.5573         calculate D2E/DX2 analytically  !
 ! D17   D(7,5,8,6)             28.9758         calculate D2E/DX2 analytically  !
 ! D18   D(12,6,8,5)           -10.8922         calculate D2E/DX2 analytically  !
 --------------------------------------------------------------------------------
 Trust Radius=3.00D-01 FncErr=1.00D-07 GrdErr=1.00D-06 EigMax=2.50D+02 EigMin=1.00D-04
 Number of steps in this run=     56 maximum allowed number of steps=    100.
 GradGradGradGradGradGradGradGradGradGradGradGradGradGradGradGradGradGrad

 Leave Link  103 at Fri May 23 05:15:24 2025, MaxMem=  3758096384 cpu:               0.0 elap:               0.0
 (Enter /apps/easybuild-2022/easybuild/software/Compiler/NVHPC/22.11-CUDA-11.7.0/Gaussian/g16c01-CUDA-11.7.0/g16/l202.exe)
                          Input orientation:                          
 ---------------------------------------------------------------------
 Center     Atomic      Atomic             Coordinates (Angstroms)
 Number     Number       Type             X           Y           Z
 ---------------------------------------------------------------------
      1          6           0        0.991517    2.553165   -2.864566
      2          6           0       -0.173756    1.788019   -2.183967
      3          9           0       -1.318753    2.116435   -2.776256
      4          9           0        0.046472    0.474732   -2.308898
      5         16           0       -0.234303    2.171374   -0.307790
      6          8           0        0.965673    0.000000    0.000000
      7          8           0       -1.343041    1.360664    0.189861
      8          8           0        1.242239    1.394335    0.000000
      9          9           0        0.736592    3.849933   -2.925610
     10          9           0        2.111469    2.363121   -2.160210
     11          9           0        1.178875    2.091085   -4.095560
     12          1           0        0.000000    0.000000    0.000000
 ---------------------------------------------------------------------
                    Distance matrix (angstroms):
                    1          2          3          4          5
     1  C    0.000000
     2  C    1.551298   0.000000
     3  F    2.352845   1.330294   0.000000
     4  F    2.349843   1.337472   2.185738   0.000000
     5  S    2.861032   1.915899   2.696735   2.638534   0.000000
     6  O    3.837324   3.043850   4.171990   2.530081   2.499908
     7  O    4.025139   2.680470   3.060985   2.993229   1.460892
     8  O    3.100240   2.632440   3.845479   2.757995   1.696673
     9  F    1.322998   2.372817   2.692910   3.499798   3.257788
    10  F    1.336609   2.356599   3.493821   2.802202   2.995142
    11  F    1.328143   2.361281   2.824774   2.662160   4.043602
    12  H    3.963268   2.827881   3.731756   2.357655   2.205560
                    6          7          8          9         10
     6  O    0.000000
     7  O    2.686562   0.000000
     8  O    1.421499   2.592461   0.000000
     9  F    4.840832   4.497499   3.852899   0.000000
    10  F    3.400544   4.296672   2.522026   2.164886   0.000000
    11  F    4.603444   5.025774   4.154887   2.158227   2.165482
    12  H    0.965673   1.921253   1.867439   4.891191   3.835251
                   11         12
    11  F    0.000000
    12  H    4.747209   0.000000
 Symmetry turned off by external request.
 Stoichiometry    C2HF5O3S
 Rotational constants (GHZ):           1.5381603           0.8201960           0.7450216
 Leave Link  202 at Fri May 23 05:15:24 2025, MaxMem=  3758096384 cpu:               0.0 elap:               0.0
 (Enter /apps/easybuild-2022/easybuild/software/Compiler/NVHPC/22.11-CUDA-11.7.0/Gaussian/g16c01-CUDA-11.7.0/g16/l301.exe)
 Standard basis: 6-311++G(d,p) (5D, 7F)
 Ernie: Thresh=  0.10000D-02 Tol=  0.10000D-05 Strict=F.
   257 basis functions,   419 primitive gaussians,   268 cartesian basis functions
    49 alpha electrons       49 beta electrons
       nuclear repulsion energy       907.4812055810 Hartrees.
 IExCor= 4639 DFT=T Ex+Corr=wB97XD ExCW=0 ScaHFX=  1.000000
 ScaDFX=  1.000000  1.000000  1.000000  1.000000 ScalE2=  1.000000  1.000000
 IRadAn=      5 IRanWt=     -1 IRanGd=            0 ICorTp=0 IEmpDi=121
 HFx  wShort=  0.000000 wLong=  0.200000 cFull=  0.222036 cShort=  0.000000 cLong=  0.777964
 DFx  wShort=  0.000000 wLong=  0.200000 cFull=  0.000000 cShort=  0.000000 cLong=  1.000000
 NAtoms=   12 NActive=   12 NUniq=   12 SFac= 1.00D+00 NAtFMM=   60 NAOKFM=F Big=F
 Integral buffers will be    131072 words long.
 Raffenetti 2 integral format.
 Two-electron integral symmetry is turned off.
 R6Disp:  Grimme-D2 Dispersion energy=       -0.0052271340 Hartrees.
 Nuclear repulsion after empirical dispersion term =      907.4759784470 Hartrees.
 Leave Link  301 at Fri May 23 05:15:24 2025, MaxMem=  3758096384 cpu:               0.0 elap:               0.0
 (Enter /apps/easybuild-2022/easybuild/software/Compiler/NVHPC/22.11-CUDA-11.7.0/Gaussian/g16c01-CUDA-11.7.0/g16/l302.exe)
 NPDir=0 NMtPBC=     1 NCelOv=     1 NCel=       1 NClECP=     1 NCelD=      1
         NCelK=      1 NCelE2=     1 NClLst=     1 CellRange=     0.0.
 One-electron integrals computed using PRISM.
 NBasis=   257 RedAO= T EigKep=  6.55D-05  NBF=   257
 NBsUse=   257 1.00D-06 EigRej= -1.00D+00 NBFU=   257
 Precomputing XC quadrature grid using
 IXCGrd= 4 IRadAn=           5 IRanWt=          -1 IRanGd=           0 AccXCQ= 0.00D+00.
 Generated NRdTot=       0 NPtTot=           0 NUsed=           0 NTot=          32
 NSgBfM=   268   268   268   268   268 MxSgAt=    12 MxSgA2=    12.
 Leave Link  302 at Fri May 23 05:15:24 2025, MaxMem=  3758096384 cpu:               0.5 elap:               0.1
 (Enter /apps/easybuild-2022/easybuild/software/Compiler/NVHPC/22.11-CUDA-11.7.0/Gaussian/g16c01-CUDA-11.7.0/g16/l303.exe)
 DipDrv:  MaxL=1.
 Leave Link  303 at Fri May 23 05:15:24 2025, MaxMem=  3758096384 cpu:               0.1 elap:               0.0
 (Enter /apps/easybuild-2022/easybuild/software/Compiler/NVHPC/22.11-CUDA-11.7.0/Gaussian/g16c01-CUDA-11.7.0/g16/l401.exe)
 ExpMin= 3.60D-02 ExpMax= 9.34D+04 ExpMxC= 3.17D+03 IAcc=3 IRadAn=         5 AccDes= 0.00D+00
 Harris functional with IExCor= 4639 and IRadAn=       5 diagonalized for initial guess.
 HarFok:  IExCor= 4639 AccDes= 0.00D+00 IRadAn=         5 IDoV= 1 UseB2=F ITyADJ=14
 ICtDFT=  3500011 ScaDFX=  1.000000  1.000000  1.000000  1.000000
 FoFCou: FMM=F IPFlag=           0 FMFlag=      100000 FMFlg1=           0
         NFxFlg=           0 DoJE=T BraDBF=F KetDBF=T FulRan=T
         wScrn=  0.000000 ICntrl=       500 IOpCl=  0 I1Cent=   200000004 NGrid=           0
         NMat0=    1 NMatS0=      1 NMatT0=    0 NMatD0=    1 NMtDS0=    0 NMtDT0=    0
 Symmetry not used in FoFCou.
 Harris En= -1167.03497754012    
 JPrj=0 DoOrth=F DoCkMO=F.
 Leave Link  401 at Fri May 23 05:15:25 2025, MaxMem=  3758096384 cpu:               2.4 elap:               0.3
 (Enter /apps/easybuild-2022/easybuild/software/Compiler/NVHPC/22.11-CUDA-11.7.0/Gaussian/g16c01-CUDA-11.7.0/g16/l502.exe)
 Keep R1 ints in memory in canonical form, NReq=1117474609.
 FoFCou: FMM=F IPFlag=           0 FMFlag=           0 FMFlg1=           0
         NFxFlg=           0 DoJE=F BraDBF=F KetDBF=F FulRan=T
         wScrn=  0.000000 ICntrl=       600 IOpCl=  0 I1Cent=           0 NGrid=           0
         NMat0=    1 NMatS0=  33153 NMatT0=    0 NMatD0=    1 NMtDS0=    0 NMtDT0=    0
 Symmetry not used in FoFCou.
 Two-electron integral symmetry not used.
 Closed shell SCF:
 Using DIIS extrapolation, IDIIS=  1040.
 NGot=  3758096384 LenX=  2658793876 LenY=  2658721611
 Requested convergence on RMS density matrix=1.00D-08 within  32 cycles.
 Requested convergence on MAX density matrix=1.00D-06.
 Requested convergence on             energy=1.00D-06.
 No special actions if energy rises.

 Cycle   1  Pass 1  IDiag  1:
 E= -1199.01587606834    
 DIIS: error= 1.05D-01 at cycle   1 NSaved=   1.
 NSaved= 1 IEnMin= 1 EnMin= -1199.01587606834     IErMin= 1 ErrMin= 1.05D-01
 ErrMax= 1.05D-01  0.00D+00 EMaxC= 1.00D-01 BMatC= 3.33D+00 BMatP= 3.33D+00
 IDIUse=3 WtCom= 0.00D+00 WtEn= 1.00D+00
 Coeff-Com:  0.100D+01
 Coeff-En:   0.100D+01
 Coeff:      0.100D+01
 Gap=     0.585 Goal=   None    Shift=    0.000
 GapD=    0.585 DampG=2.000 DampE=0.250 DampFc=0.5000 IDamp=-1.
 Damping current iteration by 5.00D-01
 RMSDP=8.18D-03 MaxDP=5.48D-01              OVMax= 1.95D-01

 Cycle   2  Pass 1  IDiag  1:
 E= -1199.37745049795     Delta-E=       -0.361574429608 Rises=F Damp=T
 DIIS: error= 4.52D-02 at cycle   2 NSaved=   2.
 NSaved= 2 IEnMin= 2 EnMin= -1199.37745049795     IErMin= 2 ErrMin= 4.52D-02
 ErrMax= 4.52D-02  0.00D+00 EMaxC= 1.00D-01 BMatC= 4.81D-01 BMatP= 3.33D+00
 IDIUse=3 WtCom= 5.48D-01 WtEn= 4.52D-01
 Coeff-Com: -0.396D+00 0.140D+01
 Coeff-En:   0.000D+00 0.100D+01
 Coeff:     -0.217D+00 0.122D+01
 Gap=     0.481 Goal=   None    Shift=    0.000
 RMSDP=3.22D-03 MaxDP=2.92D-01 DE=-3.62D-01 OVMax= 1.20D-01

 Cycle   3  Pass 1  IDiag  1:
 E= -1199.64831130346     Delta-E=       -0.270860805509 Rises=F Damp=F
 DIIS: error= 1.44D-02 at cycle   3 NSaved=   3.
 NSaved= 3 IEnMin= 3 EnMin= -1199.64831130346     IErMin= 3 ErrMin= 1.44D-02
 ErrMax= 1.44D-02  0.00D+00 EMaxC= 1.00D-01 BMatC= 1.07D-01 BMatP= 4.81D-01
 IDIUse=3 WtCom= 8.56D-01 WtEn= 1.44D-01
 Coeff-Com: -0.194D+00 0.565D+00 0.629D+00
 Coeff-En:   0.000D+00 0.000D+00 0.100D+01
 Coeff:     -0.166D+00 0.484D+00 0.682D+00
 Gap=     0.405 Goal=   None    Shift=    0.000
 RMSDP=2.02D-03 MaxDP=6.01D-02 DE=-2.71D-01 OVMax= 1.19D-01

 Cycle   4  Pass 1  IDiag  1:
 E= -1199.69128471586     Delta-E=       -0.042973412395 Rises=F Damp=F
 DIIS: error= 1.05D-02 at cycle   4 NSaved=   4.
 NSaved= 4 IEnMin= 4 EnMin= -1199.69128471586     IErMin= 4 ErrMin= 1.05D-02
 ErrMax= 1.05D-02  0.00D+00 EMaxC= 1.00D-01 BMatC= 4.09D-02 BMatP= 1.07D-01
 IDIUse=3 WtCom= 8.95D-01 WtEn= 1.05D-01
 Coeff-Com: -0.486D-01 0.121D+00 0.397D+00 0.531D+00
 Coeff-En:   0.000D+00 0.000D+00 0.306D+00 0.694D+00
 Coeff:     -0.435D-01 0.108D+00 0.388D+00 0.548D+00
 Gap=     0.391 Goal=   None    Shift=    0.000
 RMSDP=8.54D-04 MaxDP=3.12D-02 DE=-4.30D-02 OVMax= 5.26D-02

 Cycle   5  Pass 1  IDiag  1:
 E= -1199.71786838173     Delta-E=       -0.026583665877 Rises=F Damp=F
 DIIS: error= 1.97D-03 at cycle   5 NSaved=   5.
 NSaved= 5 IEnMin= 5 EnMin= -1199.71786838173     IErMin= 5 ErrMin= 1.97D-03
 ErrMax= 1.97D-03  0.00D+00 EMaxC= 1.00D-01 BMatC= 2.01D-03 BMatP= 4.09D-02
 IDIUse=3 WtCom= 9.80D-01 WtEn= 1.97D-02
 Coeff-Com: -0.101D-01 0.212D-01 0.168D+00 0.299D+00 0.522D+00
 Coeff-En:   0.000D+00 0.000D+00 0.000D+00 0.000D+00 0.100D+01
 Coeff:     -0.993D-02 0.208D-01 0.164D+00 0.294D+00 0.531D+00
 Gap=     0.372 Goal=   None    Shift=    0.000
 RMSDP=1.79D-04 MaxDP=6.66D-03 DE=-2.66D-02 OVMax= 6.03D-03

 Cycle   6  Pass 1  IDiag  1:
 E= -1199.71908193441     Delta-E=       -0.001213552674 Rises=F Damp=F
 DIIS: error= 2.29D-04 at cycle   6 NSaved=   6.
 NSaved= 6 IEnMin= 6 EnMin= -1199.71908193441     IErMin= 6 ErrMin= 2.29D-04
 ErrMax= 2.29D-04  0.00D+00 EMaxC= 1.00D-01 BMatC= 2.59D-05 BMatP= 2.01D-03
 IDIUse=3 WtCom= 9.98D-01 WtEn= 2.29D-03
 Coeff-Com:  0.285D-02-0.717D-02-0.851D-02 0.336D-03 0.933D-01 0.919D+00
 Coeff-En:   0.000D+00 0.000D+00 0.000D+00 0.000D+00 0.000D+00 0.100D+01
 Coeff:      0.284D-02-0.716D-02-0.849D-02 0.335D-03 0.931D-01 0.919D+00
 Gap=     0.372 Goal=   None    Shift=    0.000
 RMSDP=7.07D-05 MaxDP=3.69D-03 DE=-1.21D-03 OVMax= 1.79D-03

 Cycle   7  Pass 1  IDiag  1:
 E= -1199.71911119503     Delta-E=       -0.000029260624 Rises=F Damp=F
 DIIS: error= 5.64D-05 at cycle   7 NSaved=   7.
 NSaved= 7 IEnMin= 7 EnMin= -1199.71911119503     IErMin= 7 ErrMin= 5.64D-05
 ErrMax= 5.64D-05  0.00D+00 EMaxC= 1.00D-01 BMatC= 2.81D-06 BMatP= 2.59D-05
 IDIUse=1 WtCom= 1.00D+00 WtEn= 0.00D+00
 Coeff-Com:  0.153D-02-0.345D-02-0.127D-01-0.187D-01-0.116D-01 0.274D+00
 Coeff-Com:  0.771D+00
 Coeff:      0.153D-02-0.345D-02-0.127D-01-0.187D-01-0.116D-01 0.274D+00
 Coeff:      0.771D+00
 Gap=     0.372 Goal=   None    Shift=    0.000
 RMSDP=1.72D-05 MaxDP=6.67D-04 DE=-2.93D-05 OVMax= 6.63D-04

 Cycle   8  Pass 1  IDiag  1:
 E= -1199.71911400324     Delta-E=       -0.000002808214 Rises=F Damp=F
 DIIS: error= 2.30D-05 at cycle   8 NSaved=   8.
 NSaved= 8 IEnMin= 8 EnMin= -1199.71911400324     IErMin= 8 ErrMin= 2.30D-05
 ErrMax= 2.30D-05  0.00D+00 EMaxC= 1.00D-01 BMatC= 4.24D-07 BMatP= 2.81D-06
 IDIUse=1 WtCom= 1.00D+00 WtEn= 0.00D+00
 Coeff-Com:  0.367D-03-0.769D-03-0.455D-02-0.809D-02-0.154D-01 0.238D-01
 Coeff-Com:  0.312D+00 0.693D+00
 Coeff:      0.367D-03-0.769D-03-0.455D-02-0.809D-02-0.154D-01 0.238D-01
 Coeff:      0.312D+00 0.693D+00
 Gap=     0.372 Goal=   None    Shift=    0.000
 RMSDP=8.15D-06 MaxDP=5.01D-04 DE=-2.81D-06 OVMax= 2.68D-04

 Cycle   9  Pass 1  IDiag  1:
 E= -1199.71911446723     Delta-E=       -0.000000463986 Rises=F Damp=F
 DIIS: error= 8.49D-06 at cycle   9 NSaved=   9.
 NSaved= 9 IEnMin= 9 EnMin= -1199.71911446723     IErMin= 9 ErrMin= 8.49D-06
 ErrMax= 8.49D-06  0.00D+00 EMaxC= 1.00D-01 BMatC= 3.70D-08 BMatP= 4.24D-07
 IDIUse=1 WtCom= 1.00D+00 WtEn= 0.00D+00
 Coeff-Com: -0.101D-03 0.234D-03 0.306D-03 0.784D-04-0.285D-02-0.285D-01
 Coeff-Com: -0.168D-01 0.189D+00 0.858D+00
 Coeff:     -0.101D-03 0.234D-03 0.306D-03 0.784D-04-0.285D-02-0.285D-01
 Coeff:     -0.168D-01 0.189D+00 0.858D+00
 Gap=     0.372 Goal=   None    Shift=    0.000
 RMSDP=3.78D-06 MaxDP=2.30D-04 DE=-4.64D-07 OVMax= 1.59D-04

 Cycle  10  Pass 1  IDiag  1:
 E= -1199.71911454001     Delta-E=       -0.000000072776 Rises=F Damp=F
 DIIS: error= 3.75D-06 at cycle  10 NSaved=  10.
 NSaved=10 IEnMin=10 EnMin= -1199.71911454001     IErMin=10 ErrMin= 3.75D-06
 ErrMax= 3.75D-06  0.00D+00 EMaxC= 1.00D-01 BMatC= 9.69D-09 BMatP= 3.70D-08
 IDIUse=1 WtCom= 1.00D+00 WtEn= 0.00D+00
 Coeff-Com: -0.743D-04 0.162D-03 0.543D-03 0.882D-03 0.784D-03-0.130D-01
 Coeff-Com: -0.475D-01-0.210D-01 0.370D+00 0.709D+00
 Coeff:     -0.743D-04 0.162D-03 0.543D-03 0.882D-03 0.784D-03-0.130D-01
 Coeff:     -0.475D-01-0.210D-01 0.370D+00 0.709D+00
 Gap=     0.372 Goal=   None    Shift=    0.000
 RMSDP=1.37D-06 MaxDP=5.84D-05 DE=-7.28D-08 OVMax= 7.09D-05

 Cycle  11  Pass 1  IDiag  1:
 E= -1199.71911455454     Delta-E=       -0.000000014536 Rises=F Damp=F
 DIIS: error= 2.09D-06 at cycle  11 NSaved=  11.
 NSaved=11 IEnMin=11 EnMin= -1199.71911455454     IErMin=11 ErrMin= 2.09D-06
 ErrMax= 2.09D-06  0.00D+00 EMaxC= 1.00D-01 BMatC= 1.50D-09 BMatP= 9.69D-09
 IDIUse=1 WtCom= 1.00D+00 WtEn= 0.00D+00
 Coeff-Com: -0.171D-04 0.356D-04 0.196D-03 0.421D-03 0.105D-02 0.366D-03
 Coeff-Com: -0.163D-01-0.468D-01-0.193D-01 0.282D+00 0.798D+00
 Coeff:     -0.171D-04 0.356D-04 0.196D-03 0.421D-03 0.105D-02 0.366D-03
 Coeff:     -0.163D-01-0.468D-01-0.193D-01 0.282D+00 0.798D+00
 Gap=     0.372 Goal=   None    Shift=    0.000
 RMSDP=7.57D-07 MaxDP=3.89D-05 DE=-1.45D-08 OVMax= 3.17D-05

 Cycle  12  Pass 1  IDiag  1:
 E= -1199.71911455698     Delta-E=       -0.000000002439 Rises=F Damp=F
 DIIS: error= 5.31D-07 at cycle  12 NSaved=  12.
 NSaved=12 IEnMin=12 EnMin= -1199.71911455698     IErMin=12 ErrMin= 5.31D-07
 ErrMax= 5.31D-07  0.00D+00 EMaxC= 1.00D-01 BMatC= 2.66D-10 BMatP= 1.50D-09
 IDIUse=1 WtCom= 1.00D+00 WtEn= 0.00D+00
 Coeff-Com:  0.528D-05-0.119D-04-0.221D-04 0.404D-05 0.259D-03 0.200D-02
 Coeff-Com:  0.134D-02-0.161D-01-0.699D-01 0.301D-01 0.357D+00 0.696D+00
 Coeff:      0.528D-05-0.119D-04-0.221D-04 0.404D-05 0.259D-03 0.200D-02
 Coeff:      0.134D-02-0.161D-01-0.699D-01 0.301D-01 0.357D+00 0.696D+00
 Gap=     0.372 Goal=   None    Shift=    0.000
 RMSDP=1.91D-07 MaxDP=6.90D-06 DE=-2.44D-09 OVMax= 1.09D-05

 Cycle  13  Pass 1  IDiag  1:
 E= -1199.71911455733     Delta-E=       -0.000000000351 Rises=F Damp=F
 DIIS: error= 1.58D-07 at cycle  13 NSaved=  13.
 NSaved=13 IEnMin=13 EnMin= -1199.71911455733     IErMin=13 ErrMin= 1.58D-07
 ErrMax= 1.58D-07  0.00D+00 EMaxC= 1.00D-01 BMatC= 1.98D-11 BMatP= 2.66D-10
 IDIUse=1 WtCom= 1.00D+00 WtEn= 0.00D+00
 Coeff-Com:  0.322D-05-0.684D-05-0.224D-04-0.461D-04-0.773D-04 0.223D-03
 Coeff-Com:  0.230D-02 0.345D-02-0.995D-02-0.237D-01-0.607D-01 0.130D+00
 Coeff-Com:  0.958D+00
 Coeff:      0.322D-05-0.684D-05-0.224D-04-0.461D-04-0.773D-04 0.223D-03
 Coeff:      0.230D-02 0.345D-02-0.995D-02-0.237D-01-0.607D-01 0.130D+00
 Coeff:      0.958D+00
 Gap=     0.372 Goal=   None    Shift=    0.000
 RMSDP=9.28D-08 MaxDP=3.89D-06 DE=-3.51D-10 OVMax= 4.62D-06

 Cycle  14  Pass 1  IDiag  1:
 E= -1199.71911455743     Delta-E=       -0.000000000099 Rises=F Damp=F
 DIIS: error= 7.24D-08 at cycle  14 NSaved=  14.
 NSaved=14 IEnMin=14 EnMin= -1199.71911455743     IErMin=14 ErrMin= 7.24D-08
 ErrMax= 7.24D-08  0.00D+00 EMaxC= 1.00D-01 BMatC= 3.33D-12 BMatP= 1.98D-11
 IDIUse=1 WtCom= 1.00D+00 WtEn= 0.00D+00
 Coeff-Com:  0.948D-06-0.200D-05-0.738D-05-0.194D-04-0.576D-04-0.923D-04
 Coeff-Com:  0.829D-03 0.285D-02 0.313D-02-0.122D-01-0.612D-01-0.254D-01
 Coeff-Com:  0.366D+00 0.726D+00
 Coeff:      0.948D-06-0.200D-05-0.738D-05-0.194D-04-0.576D-04-0.923D-04
 Coeff:      0.829D-03 0.285D-02 0.313D-02-0.122D-01-0.612D-01-0.254D-01
 Coeff:      0.366D+00 0.726D+00
 Gap=     0.372 Goal=   None    Shift=    0.000
 RMSDP=2.47D-08 MaxDP=1.41D-06 DE=-9.91D-11 OVMax= 1.27D-06

 Cycle  15  Pass 1  IDiag  1:
 E= -1199.71911455741     Delta-E=        0.000000000025 Rises=F Damp=F
 DIIS: error= 3.36D-08 at cycle  15 NSaved=  15.
 NSaved=15 IEnMin=14 EnMin= -1199.71911455743     IErMin=15 ErrMin= 3.36D-08
 ErrMax= 3.36D-08  0.00D+00 EMaxC= 1.00D-01 BMatC= 5.60D-13 BMatP= 3.33D-12
 IDIUse=1 WtCom= 1.00D+00 WtEn= 0.00D+00
 Coeff-Com: -0.213D-06 0.452D-06 0.635D-06 0.488D-07-0.114D-04-0.742D-04
 Coeff-Com: -0.240D-04 0.477D-03 0.276D-02-0.923D-03-0.111D-01-0.360D-01
 Coeff-Com: -0.322D-01 0.279D+00 0.798D+00
 Coeff:     -0.213D-06 0.452D-06 0.635D-06 0.488D-07-0.114D-04-0.742D-04
 Coeff:     -0.240D-04 0.477D-03 0.276D-02-0.923D-03-0.111D-01-0.360D-01
 Coeff:     -0.322D-01 0.279D+00 0.798D+00
 Gap=     0.372 Goal=   None    Shift=    0.000
 RMSDP=9.90D-09 MaxDP=7.20D-07 DE= 2.46D-11 OVMax= 6.04D-07

 SCF Done:  E(RwB97XD) =  -1199.71911456     A.U. after   15 cycles
            NFock= 15  Conv=0.99D-08     -V/T= 2.0018
 KE= 1.197524597050D+03 PE=-4.662652425061D+03 EE= 1.357932735007D+03
 Leave Link  502 at Fri May 23 05:15:38 2025, MaxMem=  3758096384 cpu:              64.8 elap:              13.0
 (Enter /apps/easybuild-2022/easybuild/software/Compiler/NVHPC/22.11-CUDA-11.7.0/Gaussian/g16c01-CUDA-11.7.0/g16/l508.exe)
 QCSCF skips out because SCF is already converged.
 Leave Link  508 at Fri May 23 05:15:38 2025, MaxMem=  3758096384 cpu:               0.0 elap:               0.0
 (Enter /apps/easybuild-2022/easybuild/software/Compiler/NVHPC/22.11-CUDA-11.7.0/Gaussian/g16c01-CUDA-11.7.0/g16/l801.exe)
 DoSCS=F DFT=T ScalE2(SS,OS)=  1.000000  1.000000
 Range of M.O.s used for correlation:     1   257
 NBasis=   257 NAE=    49 NBE=    49 NFC=     0 NFV=     0
 NROrb=    257 NOA=    49 NOB=    49 NVA=   208 NVB=   208

 **** Warning!!: The largest alpha MO coefficient is  0.36848263D+02

 Leave Link  801 at Fri May 23 05:15:38 2025, MaxMem=  3758096384 cpu:               0.0 elap:               0.0
 (Enter /apps/easybuild-2022/easybuild/software/Compiler/NVHPC/22.11-CUDA-11.7.0/Gaussian/g16c01-CUDA-11.7.0/g16/l1101.exe)
 Using compressed storage, NAtomX=    12.
 Will process     13 centers per pass.
 R6Disp: Adding Grimme-D2 dispersion energy 1st derivatives to the gradient.
 Leave Link 1101 at Fri May 23 05:15:38 2025, MaxMem=  3758096384 cpu:               0.5 elap:               0.1
 (Enter /apps/easybuild-2022/easybuild/software/Compiler/NVHPC/22.11-CUDA-11.7.0/Gaussian/g16c01-CUDA-11.7.0/g16/l1102.exe)
 Symmetrizing basis deriv contribution to polar:
 IMax=3 JMax=2 DiffMx= 0.00D+00
 Leave Link 1102 at Fri May 23 05:15:38 2025, MaxMem=  3758096384 cpu:               0.0 elap:               0.0
 (Enter /apps/easybuild-2022/easybuild/software/Compiler/NVHPC/22.11-CUDA-11.7.0/Gaussian/g16c01-CUDA-11.7.0/g16/l1110.exe)
 Forming Gx(P) for the SCF density, NAtomX=    12.
 Integral derivatives from FoFJK, PRISM(SPDF).
 Do as many integral derivatives as possible in FoFJK.
 G2DrvN: MDV=    3758095012.
 G2DrvN: will do    13 centers at a time, making    1 passes.
 Calling FoFCou, ICntrl=  3107 FMM=F I1Cent=   0 AccDes= 0.00D+00.
 FoFJK:  IHMeth= 1 ICntrl=    3107 DoSepK=T KAlg= 0 I1Cent=           0 FoldK=F
 IRaf=         1 NMat=       1 IRICut=       1 DoRegI=T DoRafI=F ISym2E= 0 IDoP0=0 IntGTp=1.
 FoFCou: FMM=F IPFlag=           0 FMFlag=      100000 FMFlg1=           0
         NFxFlg=           0 DoJE=F BraDBF=F KetDBF=F FulRan=T
         wScrn=  0.000000 ICntrl=      3507 IOpCl=  0 I1Cent=           0 NGrid=           0
         NMat0=    1 NMatS0=      1 NMatT0=    0 NMatD0=    1 NMtDS0=    0 NMtDT0=    0
 Symmetry not used in FoFCou.
 End of G2Drv F.D. properties file   721 does not exist.
 End of G2Drv F.D. properties file   722 does not exist.
 End of G2Drv F.D. properties file   788 does not exist.
 Leave Link 1110 at Fri May 23 05:15:51 2025, MaxMem=  3758096384 cpu:             100.5 elap:              12.7
 (Enter /apps/easybuild-2022/easybuild/software/Compiler/NVHPC/22.11-CUDA-11.7.0/Gaussian/g16c01-CUDA-11.7.0/g16/l1002.exe)
 Minotr:  Closed shell wavefunction.
          IDoAtm=111111111111
          Direct CPHF calculation.
          Differentiating once with respect to nuclear coordinates.
          Requested convergence is 1.0D-08 RMS, and 1.0D-07 maximum.
          Secondary convergence is 1.0D-12 RMS, and 1.0D-12 maximum.
          NewPWx=T KeepS1=F KeepF1=F KeepIn=T MapXYZ=F SortEE=F KeepMc=T.
         3710 words used for storage of precomputed grid.
 Keep R1 ints in memory in canonical form, NReq=1117480302.
 FoFCou: FMM=F IPFlag=           0 FMFlag=           0 FMFlg1=           0
         NFxFlg=           0 DoJE=F BraDBF=F KetDBF=F FulRan=T
         wScrn=  0.000000 ICntrl=       600 IOpCl=  0 I1Cent=           0 NGrid=           0
         NMat0=    1 NMatS0=  33153 NMatT0=    0 NMatD0=    1 NMtDS0=    0 NMtDT0=    0
 Symmetry not used in FoFCou.
 Two-electron integral symmetry not used.
          MDV=    3758096384 using IRadAn=       1.
          Solving linear equations simultaneously, MaxMat=       0.
          There are    39 degrees of freedom in the 1st order CPHF.  IDoFFX=6 NUNeed=     0.
     33 vectors produced by pass  0 Test12= 2.61D-14 2.56D-09 XBig12= 1.40D-01 8.38D-02.
 AX will form    33 AO Fock derivatives at one time.
     33 vectors produced by pass  1 Test12= 2.61D-14 2.56D-09 XBig12= 4.03D-02 3.99D-02.
     33 vectors produced by pass  2 Test12= 2.61D-14 2.56D-09 XBig12= 1.39D-03 6.40D-03.
     33 vectors produced by pass  3 Test12= 2.61D-14 2.56D-09 XBig12= 2.81D-05 8.74D-04.
     33 vectors produced by pass  4 Test12= 2.61D-14 2.56D-09 XBig12= 4.18D-07 1.17D-04.
     33 vectors produced by pass  5 Test12= 2.61D-14 2.56D-09 XBig12= 6.07D-09 1.34D-05.
     33 vectors produced by pass  6 Test12= 2.61D-14 2.56D-09 XBig12= 5.79D-11 1.18D-06.
     22 vectors produced by pass  7 Test12= 2.61D-14 2.56D-09 XBig12= 4.20D-13 7.02D-08.
      7 vectors produced by pass  8 Test12= 2.61D-14 2.56D-09 XBig12= 2.76D-15 6.72D-09.
 InvSVY:  IOpt=1 It=  1 EMax= 1.33D-15
 Solved reduced A of dimension   260 with    33 vectors.
 End of Minotr F.D. properties file   721 does not exist.
 End of Minotr F.D. properties file   722 does not exist.
 End of Minotr F.D. properties file   788 does not exist.
 Leave Link 1002 at Fri May 23 05:16:14 2025, MaxMem=  3758096384 cpu:             185.3 elap:              23.7
 (Enter /apps/easybuild-2022/easybuild/software/Compiler/NVHPC/22.11-CUDA-11.7.0/Gaussian/g16c01-CUDA-11.7.0/g16/l701.exe)
 ... and contract with generalized density number  0.
 Compute integral second derivatives.
 R6Disp: Adding Grimme-D2 dispersion energy 2nd derivatives to the Hessian.
 Leave Link  701 at Fri May 23 05:16:15 2025, MaxMem=  3758096384 cpu:               0.5 elap:               0.1
 (Enter /apps/easybuild-2022/easybuild/software/Compiler/NVHPC/22.11-CUDA-11.7.0/Gaussian/g16c01-CUDA-11.7.0/g16/l702.exe)
 L702 exits ... SP integral derivatives will be done elsewhere.
 Leave Link  702 at Fri May 23 05:16:15 2025, MaxMem=  3758096384 cpu:               0.0 elap:               0.0
 (Enter /apps/easybuild-2022/easybuild/software/Compiler/NVHPC/22.11-CUDA-11.7.0/Gaussian/g16c01-CUDA-11.7.0/g16/l703.exe)
 Integral derivatives from FoFJK, PRISM(SPDF).
 Compute integral second derivatives, UseDBF=F ICtDFT=           0.
 Calling FoFJK, ICntrl=    100127 FMM=F ISym2X=0 I1Cent= 0 IOpClX= 0 NMat=1 NMatS=1 NMatT=0.
 FoFJK:  IHMeth= 1 ICntrl=  100127 DoSepK=T KAlg= 0 I1Cent=           0 FoldK=F
 IRaf=         1 NMat=       1 IRICut=       1 DoRegI=T DoRafI=F ISym2E= 0 IDoP0=0 IntGTp=1.
 FoFCou: FMM=F IPFlag=           0 FMFlag=      100000 FMFlg1=         800
         NFxFlg=           0 DoJE=F BraDBF=F KetDBF=F FulRan=T
         wScrn=  0.000000 ICntrl=    100527 IOpCl=  0 I1Cent=           0 NGrid=           0
         NMat0=    1 NMatS0=      1 NMatT0=    0 NMatD0=    1 NMtDS0=    0 NMtDT0=    0
 Symmetry not used in FoFCou.
 Leave Link  703 at Fri May 23 05:16:52 2025, MaxMem=  3758096384 cpu:             295.2 elap:              37.2
 (Enter /apps/easybuild-2022/easybuild/software/Compiler/NVHPC/22.11-CUDA-11.7.0/Gaussian/g16c01-CUDA-11.7.0/g16/l716.exe)
 Dipole        =-2.54666839D-01 6.04165546D-01-2.04788230D-01
 Polarizability= 0.00000000D+00 0.00000000D+00 0.00000000D+00
                 0.00000000D+00 0.00000000D+00 0.00000000D+00
 -------------------------------------------------------------------
 Center     Atomic                   Forces (Hartrees/Bohr)
 Number     Number              X              Y              Z
 -------------------------------------------------------------------
      1        6           0.008867813   -0.009441997    0.001409205
      2        6           0.010176180   -0.003306922   -0.001128740
      3        9          -0.003302481   -0.000086374    0.004528318
      4        9          -0.007033958    0.002862075   -0.009286797
      5       16           0.014744186    0.034516459   -0.007135757
      6        8           0.017792177   -0.009049711    0.004477928
      7        8          -0.002543307   -0.013117558    0.001153551
      8        8          -0.024228927    0.000309862    0.007249072
      9        9          -0.002672424    0.004659767    0.001744013
     10        9          -0.001679824    0.005634610   -0.010341205
     11        9          -0.000889154    0.001000333   -0.000173607
     12        1          -0.009230281   -0.013980545    0.007504019
 -------------------------------------------------------------------
 Cartesian Forces:  Max     0.034516459 RMS     0.010097892
 Force constants in Cartesian coordinates: 
                1             2             3             4             5 
      1  0.558729D+00
      2  0.108030D-01  0.579731D+00
      3 -0.243787D-01 -0.103797D-01  0.554816D+00
      4 -0.119118D+00 -0.490130D-01  0.632125D-01  0.536919D+00
      5 -0.560437D-01 -0.735370D-01  0.387238D-01  0.170425D-01  0.517516D+00
      6  0.333384D-01  0.131737D-01 -0.874346D-01  0.326403D-01 -0.233873D-02
      7 -0.414495D-01  0.169377D-01 -0.345031D-01 -0.263743D+00  0.237004D-01
      8 -0.483654D-02  0.271858D-02 -0.639112D-02  0.319602D-01 -0.735382D-01
      9  0.120288D-02  0.234514D-02  0.668177D-03 -0.107505D+00  0.188516D-01
     10  0.787814D-02 -0.186222D-01 -0.563568D-02 -0.715540D-01  0.173286D-01
     11  0.140972D-01 -0.469763D-01 -0.112772D-01  0.386772D-02 -0.295449D+00
     12 -0.108915D-02  0.124847D-01  0.177058D-02  0.614861D-02 -0.425031D-01
     13  0.123731D-01  0.450276D-03  0.233902D-01 -0.224313D-01 -0.105260D-01
     14 -0.271772D-02  0.139283D-01  0.104024D-01 -0.617528D-02 -0.508595D-01
     15  0.177394D-01  0.104156D-01 -0.149276D-01 -0.380279D-02 -0.605207D-01
     16 -0.263625D-02  0.297198D-03 -0.167528D-02  0.343647D-02 -0.437482D-02
     17  0.153400D-02 -0.968721D-03  0.884719D-04  0.579336D-03  0.729107D-03
     18  0.453334D-03  0.000000D+00  0.391723D-03  0.171879D-02 -0.587099D-02
     19  0.459622D-02  0.655650D-02 -0.671684D-03 -0.191119D-01 -0.115212D-01
     20  0.315119D-02  0.193119D-04 -0.323924D-02 -0.620318D-02  0.992659D-03
     21 -0.935864D-02 -0.923824D-02 -0.430747D-02  0.315635D-01  0.314367D-01
     22 -0.801746D-02 -0.184892D-02 -0.177849D-02 -0.147663D-01  0.170910D-01
     23  0.193640D-02 -0.107225D-02 -0.309577D-03 -0.494176D-03  0.199041D-02
     24  0.121068D-02 -0.261626D-02  0.276807D-02 -0.199349D-01  0.166838D-01
     25 -0.814320D-01  0.203533D-01  0.131639D-02  0.696532D-02 -0.151281D-01
     26  0.111049D-01 -0.302412D+00  0.283653D-01  0.178333D-01 -0.374004D-01
     27  0.288026D-02  0.269464D-01 -0.791451D-01 -0.715262D-02  0.140989D-01
     28 -0.241881D+00  0.480134D-02 -0.684695D-01 -0.333458D-01  0.144521D-01
     29  0.107092D-01 -0.790879D-01  0.799160D-02 -0.833369D-02  0.624599D-02
     30 -0.738047D-01  0.574076D-02 -0.110698D+00 -0.201258D-02  0.160254D-02
     31 -0.903487D-01  0.925375D-02  0.483509D-01 -0.275581D-02  0.963833D-02
     32  0.117773D-01 -0.916789D-01 -0.537685D-01 -0.238991D-02  0.168472D-02
     33  0.508946D-01 -0.493913D-01 -0.263821D+00  0.589812D-02 -0.173029D-01
     34  0.130637D-02  0.310925D-04  0.842361D-03 -0.494716D-03 -0.165908D-02
     35 -0.151511D-02 -0.665058D-03 -0.206294D-03  0.132624D-02  0.162527D-02
     36  0.911662D-03  0.519790D-03 -0.804240D-04 -0.773568D-03  0.713905D-02
                6             7             8             9            10 
      6  0.407021D+00
      7 -0.928089D-01  0.336988D+00
      8  0.162570D-01 -0.733694D-01  0.924212D-01
      9 -0.123077D+00  0.134665D+00 -0.374466D-01  0.116419D+00
     10  0.445592D-02 -0.164479D-01  0.535888D-01 -0.444679D-02  0.777322D-01
     11 -0.260456D-01  0.396271D-01 -0.307313D-01  0.128520D-01 -0.517032D-01
     12 -0.696980D-01 -0.897541D-02  0.236928D-01  0.102403D-01  0.709321D-02
     13  0.166293D-01 -0.167790D-01  0.919231D-03 -0.292712D-01  0.538599D-03
     14  0.928580D-02  0.779627D-04  0.534120D-02  0.332006D-02  0.918161D-02
     15 -0.775703D-01 -0.239359D-02  0.586339D-02 -0.594236D-02  0.480164D-02
     16 -0.163094D-03  0.106184D-02  0.326914D-03  0.246872D-02 -0.669514D-03
     17 -0.344550D-02 -0.869087D-04  0.150942D-04  0.526156D-03 -0.239343D-03
     18 -0.458407D-03 -0.448928D-03  0.111010D-02  0.640025D-03 -0.748553D-02
     19  0.932576D-03  0.106924D-01 -0.132790D-02  0.675008D-02  0.160870D-02
     20 -0.699392D-02  0.436458D-02 -0.688734D-03  0.277107D-02 -0.904522D-03
     21 -0.106601D-01 -0.227294D-02 -0.148729D-02  0.161300D-02 -0.242228D-02
     22 -0.108831D-02 -0.255576D-02  0.200041D-03 -0.846022D-02  0.286480D-02
     23 -0.382177D-02 -0.126811D-02  0.866337D-04 -0.185057D-02 -0.621592D-03
     24 -0.273412D-03 -0.348717D-02 -0.100321D-02 -0.912072D-02  0.751552D-03
     25  0.119189D-04  0.271895D-02 -0.262689D-02  0.142127D-02 -0.263211D-02
     26  0.113964D-02 -0.405178D-02  0.385978D-02 -0.146069D-02 -0.684469D-02
     27  0.675782D-02  0.285208D-02 -0.813198D-03  0.112881D-02  0.322865D-02
     28 -0.303288D-01 -0.125122D-01 -0.460716D-02  0.427503D-02  0.104895D-02
     29 -0.482045D-02 -0.492710D-02 -0.175641D-03  0.214880D-03 -0.309649D-03
     30  0.415847D-02  0.215205D-02  0.104958D-03  0.176013D-02  0.719999D-03
     31  0.353300D-01  0.274048D-02 -0.359819D-03 -0.455592D-03  0.585723D-03
     32  0.564395D-02 -0.920044D-03  0.865184D-03  0.151022D-03 -0.113551D-02
     33 -0.477461D-01  0.444416D-02  0.103605D-02  0.531286D-02 -0.748293D-03
     34  0.105067D-02 -0.714314D-03  0.132526D-03 -0.644233D-03 -0.953571D-03
     35  0.196587D-02 -0.843577D-04 -0.173795D-03 -0.274098D-03  0.281645D-03
     36 -0.101929D-02  0.776332D-03 -0.922907D-03  0.358575D-03 -0.312405D-03
               11            12            13            14            15 
     11  0.393194D+00
     12  0.233495D-01  0.795671D-01
     13  0.925819D-03 -0.292033D-03  0.472454D+00
     14 -0.401400D-01 -0.408938D-01  0.192501D+00  0.473390D+00
     15 -0.120228D-01 -0.173378D-01 -0.117186D+00 -0.861214D-01  0.255345D+00
     16  0.296735D-02 -0.686960D-02 -0.236600D-01  0.267076D-01  0.114798D-02
     17  0.419868D-02  0.531697D-02  0.262904D-01 -0.646166D-01  0.595970D-02
     18  0.965468D-02 -0.149598D-01  0.303578D-02  0.379474D-02 -0.112067D-02
     19  0.638745D-02  0.747438D-03 -0.346048D+00 -0.221380D+00  0.138028D+00
     20  0.132230D-01  0.676249D-02 -0.251638D+00 -0.244702D+00  0.111773D+00
     21  0.753129D-03  0.575595D-02  0.131627D+00  0.967997D-01 -0.109254D+00
     22 -0.530393D-02  0.185910D-02 -0.842053D-01 -0.152447D-01 -0.238399D-01
     23  0.308666D-02  0.308754D-02  0.513204D-01 -0.649854D-01  0.221514D-01
     24  0.214889D-03  0.341535D-02 -0.217006D-01  0.715065D-03 -0.464583D-01
     25 -0.633130D-02  0.193900D-02 -0.192596D-02  0.123061D-02 -0.107639D-02
     26 -0.727903D-02  0.499594D-02  0.189102D-02 -0.313726D-02 -0.298169D-02
     27  0.465335D-02 -0.105023D-02 -0.125463D-02 -0.146808D-02 -0.619724D-04
     28 -0.534692D-02  0.242245D-02 -0.433313D-02  0.130720D-02 -0.341146D-02
     29  0.309030D-02 -0.275128D-03  0.151469D-02 -0.245723D-02  0.138522D-03
     30  0.973036D-04  0.111446D-02 -0.537016D-02  0.222397D-03 -0.188148D-02
     31 -0.934884D-03 -0.107864D-02 -0.355761D-02 -0.152734D-02 -0.503666D-02
     32  0.526844D-02  0.322894D-02 -0.101849D-02 -0.183390D-02 -0.585550D-03
     33  0.193467D-02  0.436896D-02  0.665508D-03  0.186324D-02  0.749113D-02
     34  0.174760D-02 -0.190497D-02  0.175743D-01  0.160390D-01 -0.496967D-02
     35 -0.148493D-02  0.753096D-03 -0.126305D-01 -0.199273D-01  0.593024D-02
     36 -0.416391D-02 -0.318686D-02 -0.273182D-03  0.207985D-02  0.117187D-01
               16            17            18            19            20 
     16  0.598408D+00
     17 -0.229127D-02  0.340994D+00
     18  0.128232D-01 -0.725577D-02  0.154408D-01
     19 -0.143188D-02 -0.830422D-02  0.370202D-03  0.385851D+00
     20  0.207366D-01  0.860747D-02 -0.137897D-02  0.238999D+00  0.208923D+00
     21 -0.530478D-04  0.178192D-02  0.234339D-02 -0.157623D+00 -0.114519D+00
     22 -0.726302D-01 -0.750629D-02 -0.114282D-01 -0.290202D-01  0.100993D-01
     23 -0.945289D-01 -0.246708D+00 -0.239336D-02 -0.601745D-02  0.618661D-02
     24 -0.629397D-02 -0.386115D-03 -0.346873D-02  0.717029D-02 -0.942200D-03
     25  0.484102D-03 -0.374146D-03  0.714754D-04 -0.590750D-04 -0.404821D-03
     26 -0.114612D-03  0.453503D-03  0.441583D-03 -0.267187D-02 -0.219721D-03
     27 -0.199663D-04  0.932962D-04 -0.894475D-04  0.301048D-03  0.815516D-03
     28  0.105085D-02 -0.844919D-03  0.381437D-03 -0.389167D-03 -0.737441D-03
     29 -0.394190D-04  0.398268D-03 -0.449149D-04 -0.790431D-03  0.226249D-03
     30  0.170901D-02 -0.135394D-03 -0.105937D-02  0.635443D-03  0.578375D-03
     31  0.417982D-03 -0.243205D-03 -0.207367D-03 -0.219572D-02 -0.104902D-02
     32  0.212846D-03  0.847472D-04  0.172241D-03 -0.515908D-03  0.482731D-03
     33  0.426393D-03  0.140912D-03  0.270310D-03  0.372867D-02  0.202613D-02
     34 -0.503831D+00 -0.851346D-02  0.715752D-03 -0.449256D-02 -0.164140D-01
     35  0.501005D-01 -0.431881D-01  0.177133D-02  0.585800D-03  0.694983D-02
     36 -0.350037D-02 -0.268464D-02  0.207013D-02 -0.368954D-03  0.234664D-02
               21            22            23            24            25 
     21  0.114410D+00
     22  0.172061D-02  0.211139D+00
     23 -0.788653D-02  0.536022D-01  0.333444D+00
     24  0.101026D-01  0.370193D-01 -0.214943D-01  0.620022D-01
     25  0.576475D-03  0.106065D-02 -0.576120D-03 -0.278787D-03  0.872040D-01
     26  0.245846D-02 -0.364284D-03  0.427769D-03  0.880986D-03 -0.714985D-01
     27  0.302496D-03  0.107538D-03  0.238124D-03 -0.165127D-03  0.758058D-02
     28  0.182081D-02  0.269884D-02 -0.325487D-02  0.561387D-02 -0.213813D-01
     29  0.406727D-03 -0.389403D-02 -0.506813D-03  0.804308D-02  0.557086D-01
     30  0.120336D-02  0.775147D-02  0.643635D-02 -0.132545D-01 -0.206907D-01
     31  0.368379D-02  0.213210D-02 -0.429203D-03  0.188122D-03  0.915535D-02
     32  0.102529D-02  0.354020D-03  0.279250D-03 -0.148525D-03  0.194657D-01
     33 -0.450068D-02 -0.146671D-02  0.777181D-03 -0.112320D-02  0.937533D-02
     34  0.737470D-03 -0.870065D-02  0.331334D-03 -0.258453D-03 -0.157954D-03
     35 -0.153069D-02 -0.471844D-01 -0.322295D-01  0.527627D-04  0.181659D-03
     36 -0.700826D-02 -0.396171D-03  0.506545D-02 -0.442420D-02 -0.246515D-03
               26            27            28            29            30 
     26  0.421040D+00
     27 -0.154394D-01  0.786139D-01
     28  0.396634D-01 -0.187306D-01  0.305571D+00
     29 -0.266330D-01  0.287741D-01 -0.399641D-01  0.869955D-01
     30  0.221853D-01  0.180055D-02  0.139434D+00 -0.286807D-01  0.179635D+00
     31  0.149566D-01  0.102639D-01  0.389720D-02 -0.986245D-02 -0.500826D-01
     32 -0.487849D-01 -0.578391D-01 -0.587158D-02  0.118969D-01 -0.866580D-02
     33 -0.399037D-01 -0.823297D-02 -0.325696D-01 -0.116184D-01 -0.624529D-01
     34  0.966224D-04 -0.562859D-04 -0.423982D-03  0.188418D-03 -0.440902D-03
     35  0.850750D-04 -0.599078D-04  0.402990D-03  0.732677D-05  0.513954D-03
     36 -0.681695D-03  0.141244D-03 -0.437353D-03 -0.129304D-03 -0.325755D-03
               31            32            33            34            35 
     31  0.803029D-01
     32 -0.199406D-01  0.121709D+00
     33 -0.408543D-01  0.110996D+00  0.370500D+00
     34 -0.373852D-03 -0.178518D-04  0.206125D-03  0.501262D+00
     35  0.497837D-03  0.266809D-04 -0.558266D-03  0.803782D-02  0.889745D-01
     36 -0.101608D-03 -0.210337D-03 -0.666284D-04  0.472213D-02 -0.835801D-02
               36 
     36  0.182276D-02
 FormGI is forming the generalized inverse of G from B-inverse, IUseBI=4.
 Leave Link  716 at Fri May 23 05:16:52 2025, MaxMem=  3758096384 cpu:               0.0 elap:               0.0
 (Enter /apps/easybuild-2022/easybuild/software/Compiler/NVHPC/22.11-CUDA-11.7.0/Gaussian/g16c01-CUDA-11.7.0/g16/l103.exe)

 GradGradGradGradGradGradGradGradGradGradGradGradGradGradGradGradGradGrad
 Berny optimization.
 Red2BG is reusing G-inverse.
 Internal  Forces:  Max     0.065623020 RMS     0.015577546
 Search for a local minimum.
 Step number   1 out of a maximum of   56
 All quantities printed in internal units (Hartrees-Bohrs-Radians)
 RMS Force = .15578D-01 SwitMx=.10000D-02 MixMth= 1
 Mixed Optimization -- RFO/linear search
 Second derivative matrix not updated -- analytic derivatives used.
 ITU=  0
     Eigenvalues ---   -0.00906  -0.00151   0.00151   0.03910   0.05614
     Eigenvalues ---    0.08965   0.09693   0.10193   0.12244   0.12736
     Eigenvalues ---    0.13039   0.16217   0.17190   0.19408   0.22197
     Eigenvalues ---    0.23447   0.23991   0.24301   0.31501   0.35994
     Eigenvalues ---    0.36470   0.37437   0.39516   0.44623   0.47789
     Eigenvalues ---    0.50262   0.55473   0.61640   0.64203   0.85430
 Eigenvalue     1 is  -9.06D-03 should be greater than     0.000000 Eigenvector:
                          D15       D14       D11       D18       D13
   1                    0.34623   0.31743   0.31482  -0.31384   0.30204
                          D10       D12       D16       D17       D6
   1                    0.28603   0.27324   0.25179   0.24292   0.17861
 Eigenvalue     2 is  -1.51D-03 should be greater than     0.000000 Eigenvector:
                          D18       D17       D16       D4        D7
   1                   -0.78878   0.26166   0.20988  -0.17001  -0.16866
                          D5        D8        D1        D2        D11
   1                   -0.15773  -0.15638  -0.15201  -0.13973  -0.12741
 RFO step:  Lambda=-2.08337159D-02 EMin=-9.05716128D-03
 Linear search not attempted -- first point.
 Iteration  1 RMS(Cart)=  0.16537793 RMS(Int)=  0.07295051
 Iteration  2 RMS(Cart)=  0.04490918 RMS(Int)=  0.03981104
 Iteration  3 RMS(Cart)=  0.05096461 RMS(Int)=  0.01161290
 Iteration  4 RMS(Cart)=  0.01795914 RMS(Int)=  0.00126334
 Iteration  5 RMS(Cart)=  0.00066441 RMS(Int)=  0.00107849
 Iteration  6 RMS(Cart)=  0.00000080 RMS(Int)=  0.00107849
 ITry= 1 IFail=0 DXMaxC= 5.78D-01 DCOld= 1.00D+10 DXMaxT= 3.00D-01 DXLimC= 3.00D+00 Rises=F
 Variable       Old X    -DE/DX   Delta X   Delta X   Delta X     New X
                                 (Linear)    (Quad)   (Total)
    R1        2.93153   0.00687   0.00000  -0.00931  -0.00931   2.92222
    R2        2.50010   0.00500   0.00000   0.01715   0.01715   2.51726
    R3        2.52583  -0.00766   0.00000  -0.02031  -0.02031   2.50551
    R4        2.50983  -0.00031   0.00000   0.00035   0.00035   2.51018
    R5        2.51389   0.00081   0.00000   0.01409   0.01409   2.52799
    R6        2.52746  -0.00310   0.00000  -0.01603  -0.01603   2.51143
    R7        3.62052   0.01282   0.00000  -0.00742  -0.00742   3.61310
    R8        2.76069   0.00960   0.00000   0.02356   0.02356   2.78425
    R9        3.20625   0.00027   0.00000  -0.09264  -0.09264   3.11360
   R10        2.68624   0.02093   0.00000   0.00228   0.00228   2.68852
   R11        1.82486   0.00923   0.00000   0.03513   0.03513   1.85999
    A1        1.93794  -0.00747   0.00000  -0.02252  -0.02252   1.91542
    A2        1.90506   0.01773   0.00000   0.01778   0.01780   1.92286
    A3        1.91878  -0.00186   0.00000   0.00004  -0.00006   1.91871
    A4        1.90195  -0.00451   0.00000   0.00510   0.00521   1.90716
    A5        1.90227   0.00171   0.00000  -0.00043  -0.00056   1.90171
    A6        1.89732  -0.00568   0.00000   0.00047   0.00039   1.89772
    A7        1.90649  -0.00358   0.00000   0.00940   0.01109   1.91759
    A8        1.89615  -0.00316   0.00000   0.01103   0.00785   1.90400
    A9        1.93337   0.01837   0.00000   0.06819   0.06682   2.00019
   A10        1.92042  -0.00153   0.00000  -0.01120  -0.01093   1.90949
   A11        1.93842  -0.01492   0.00000  -0.11751  -0.11673   1.82170
   A12        1.86831   0.00515   0.00000   0.04274   0.04004   1.90836
   A13        1.81990  -0.00611   0.00000  -0.05693  -0.05454   1.76536
   A14        1.62934   0.05231   0.00000   0.13720   0.13834   1.76768
   A15        1.92254  -0.01919   0.00000  -0.07089  -0.06838   1.85416
   A16        1.76660   0.02552   0.00000  -0.00745  -0.00745   1.75915
   A17        1.85450   0.06562   0.00000   0.08854   0.08854   1.94304
    D1        0.90170  -0.00197   0.00000   0.02332   0.02349   0.92519
    D2        2.99677  -0.00783   0.00000   0.02189   0.02159   3.01836
    D3       -1.23891   0.00710   0.00000   0.11967   0.12000  -1.11891
    D4        2.99878  -0.00078   0.00000   0.02706   0.02711   3.02589
    D5       -1.18933  -0.00664   0.00000   0.02562   0.02521  -1.16413
    D6        0.85817   0.00829   0.00000   0.12341   0.12362   0.98179
    D7       -1.20475   0.00197   0.00000   0.03848   0.03856  -1.16619
    D8        0.89032  -0.00389   0.00000   0.03704   0.03666   0.92698
    D9        2.93783   0.01104   0.00000   0.13483   0.13507   3.07290
   D10       -3.11530  -0.00277   0.00000   0.14872   0.14770  -2.96760
   D11       -1.16439  -0.00827   0.00000   0.10607   0.10377  -1.06062
   D12        1.04595  -0.00064   0.00000   0.17019   0.17148   1.21743
   D13        2.99685  -0.00614   0.00000   0.12753   0.12755   3.12441
   D14       -1.05079   0.00664   0.00000   0.22512   0.22677  -0.82403
   D15        0.90011   0.00114   0.00000   0.18247   0.18284   1.08295
   D16       -1.35363  -0.01839   0.00000   0.26447   0.26619  -1.08744
   D17        0.50572  -0.00731   0.00000   0.24591   0.24419   0.74992
   D18       -0.19010  -0.01343   0.00000  -0.67629  -0.67629  -0.86639
         Item               Value     Threshold  Converged?
 Maximum Force            0.065623     0.000015     NO 
 RMS     Force            0.015578     0.000010     NO 
 Maximum Displacement     0.577636     0.000060     NO 
 RMS     Displacement     0.217601     0.000040     NO 
 Predicted change in Energy=-1.784098D-02
 Lowest energy point so far.  Saving SCF results.
 GradGradGradGradGradGradGradGradGradGradGradGradGradGradGradGradGradGrad

 Leave Link  103 at Fri May 23 05:16:52 2025, MaxMem=  3758096384 cpu:               0.0 elap:               0.0
 (Enter /apps/easybuild-2022/easybuild/software/Compiler/NVHPC/22.11-CUDA-11.7.0/Gaussian/g16c01-CUDA-11.7.0/g16/l202.exe)
                          Input orientation:                          
 ---------------------------------------------------------------------
 Center     Atomic      Atomic             Coordinates (Angstroms)
 Number     Number       Type             X           Y           Z
 ---------------------------------------------------------------------
      1          6           0        1.023750    2.508809   -2.896834
      2          6           0       -0.190311    1.826572   -2.224616
      3          9           0       -1.326074    2.299532   -2.749908
      4          9           0       -0.121072    0.515422   -2.430314
      5         16           0       -0.356889    2.165566   -0.350326
      6          8           0        1.136379    0.137118   -0.034859
      7          8           0       -1.414040    1.208228    0.019450
      8          8           0        1.055148    1.534806    0.218035
      9          9           0        0.889291    3.832470   -2.831536
     10          9           0        2.144952    2.152161   -2.285591
     11          9           0        1.098874    2.145029   -4.172168
     12          1           0        0.262977   -0.162853    0.305672
 ---------------------------------------------------------------------
                    Distance matrix (angstroms):
                    1          2          3          4          5
     1  C    0.000000
     2  C    1.546373   0.000000
     3  F    2.363696   1.337752   0.000000
     4  F    2.345602   1.328992   2.176515   0.000000
     5  S    2.916965   1.911970   2.591382   2.665509   0.000000
     6  O    3.718669   3.067473   4.255726   2.731758   2.538497
     7  O    4.017342   2.629770   2.977923   2.855362   1.473362
     8  O    3.263751   2.757324   3.881200   3.071871   1.647647
     9  F    1.332074   2.357439   2.695256   3.490647   3.238509
    10  F    1.325861   2.358639   3.505043   2.799057   3.163011
    11  F    1.328329   2.357197   2.815505   2.679168   4.089762
    12  H    4.239410   3.250482   4.233792   2.844850   2.497219
                    6          7          8          9         10
     6  O    0.000000
     7  O    2.766742   0.000000
     8  O    1.422704   2.498595   0.000000
     9  F    4.640914   4.507782   3.821864   0.000000
    10  F    3.184873   4.344035   2.799454   2.167528   0.000000
    11  F    4.598961   4.976143   4.432625   2.165335   2.157198
    12  H    0.984263   2.184988   1.875437   5.118295   3.951679
                   11         12
    11  F    0.000000
    12  H    5.106476   0.000000
 Symmetry turned off by external request.
 Stoichiometry    C2HF5O3S
 Rotational constants (GHZ):           1.5049353           0.8217815           0.7298213
 Leave Link  202 at Fri May 23 05:16:52 2025, MaxMem=  3758096384 cpu:               0.0 elap:               0.0
 (Enter /apps/easybuild-2022/easybuild/software/Compiler/NVHPC/22.11-CUDA-11.7.0/Gaussian/g16c01-CUDA-11.7.0/g16/l301.exe)
 Standard basis: 6-311++G(d,p) (5D, 7F)
 Ernie: Thresh=  0.10000D-02 Tol=  0.10000D-05 Strict=F.
   257 basis functions,   419 primitive gaussians,   268 cartesian basis functions
    49 alpha electrons       49 beta electrons
       nuclear repulsion energy       902.3480796359 Hartrees.
 IExCor= 4639 DFT=T Ex+Corr=wB97XD ExCW=0 ScaHFX=  1.000000
 ScaDFX=  1.000000  1.000000  1.000000  1.000000 ScalE2=  1.000000  1.000000
 IRadAn=      5 IRanWt=     -1 IRanGd=            0 ICorTp=0 IEmpDi=121
 HFx  wShort=  0.000000 wLong=  0.200000 cFull=  0.222036 cShort=  0.000000 cLong=  0.777964
 DFx  wShort=  0.000000 wLong=  0.200000 cFull=  0.000000 cShort=  0.000000 cLong=  1.000000
 NAtoms=   12 NActive=   12 NUniq=   12 SFac= 1.00D+00 NAtFMM=   60 NAOKFM=F Big=F
 Integral buffers will be    131072 words long.
 Raffenetti 2 integral format.
 Two-electron integral symmetry is turned off.
 R6Disp:  Grimme-D2 Dispersion energy=       -0.0054150279 Hartrees.
 Nuclear repulsion after empirical dispersion term =      902.3426646080 Hartrees.
 Leave Link  301 at Fri May 23 05:16:52 2025, MaxMem=  3758096384 cpu:               0.0 elap:               0.0
 (Enter /apps/easybuild-2022/easybuild/software/Compiler/NVHPC/22.11-CUDA-11.7.0/Gaussian/g16c01-CUDA-11.7.0/g16/l302.exe)
 NPDir=0 NMtPBC=     1 NCelOv=     1 NCel=       1 NClECP=     1 NCelD=      1
         NCelK=      1 NCelE2=     1 NClLst=     1 CellRange=     0.0.
 One-electron integrals computed using PRISM.
 NBasis=   257 RedAO= T EigKep=  5.65D-05  NBF=   257
 NBsUse=   257 1.00D-06 EigRej= -1.00D+00 NBFU=   257
 Precomputing XC quadrature grid using
 IXCGrd= 4 IRadAn=           5 IRanWt=          -1 IRanGd=           0 AccXCQ= 0.00D+00.
 Generated NRdTot=       0 NPtTot=           0 NUsed=           0 NTot=          32
 NSgBfM=   268   268   268   268   268 MxSgAt=    12 MxSgA2=    12.
 Leave Link  302 at Fri May 23 05:16:52 2025, MaxMem=  3758096384 cpu:               0.5 elap:               0.1
 (Enter /apps/easybuild-2022/easybuild/software/Compiler/NVHPC/22.11-CUDA-11.7.0/Gaussian/g16c01-CUDA-11.7.0/g16/l303.exe)
 DipDrv:  MaxL=1.
 Leave Link  303 at Fri May 23 05:16:52 2025, MaxMem=  3758096384 cpu:               0.1 elap:               0.0
 (Enter /apps/easybuild-2022/easybuild/software/Compiler/NVHPC/22.11-CUDA-11.7.0/Gaussian/g16c01-CUDA-11.7.0/g16/l401.exe)
 Initial guess from the checkpoint file:  "/tmp/Gau-3266.chk"
 B after Tr=    -0.161631    0.000172   -0.097147
         Rot=    0.999912   -0.005972    0.004681    0.010896 Ang=  -1.52 deg.
 Guess basis will be translated and rotated to current coordinates.
 JPrj=2 DoOrth=T DoCkMO=T.
 Generating alternative initial guess.
 ExpMin= 3.60D-02 ExpMax= 9.34D+04 ExpMxC= 3.17D+03 IAcc=3 IRadAn=         5 AccDes= 0.00D+00
 Harris functional with IExCor= 4639 and IRadAn=       5 diagonalized for initial guess.
 HarFok:  IExCor= 4639 AccDes= 0.00D+00 IRadAn=         5 IDoV= 1 UseB2=F ITyADJ=14
 ICtDFT=  3500011 ScaDFX=  1.000000  1.000000  1.000000  1.000000
 FoFCou: FMM=F IPFlag=           0 FMFlag=      100000 FMFlg1=           0
         NFxFlg=           0 DoJE=T BraDBF=F KetDBF=T FulRan=T
         wScrn=  0.000000 ICntrl=       500 IOpCl=  0 I1Cent=   200000004 NGrid=           0
         NMat0=    1 NMatS0=      1 NMatT0=    0 NMatD0=    1 NMtDS0=    0 NMtDT0=    0
 Symmetry not used in FoFCou.
 Harris En= -1167.05328907774    
 Leave Link  401 at Fri May 23 05:16:52 2025, MaxMem=  3758096384 cpu:               2.5 elap:               0.4
 (Enter /apps/easybuild-2022/easybuild/software/Compiler/NVHPC/22.11-CUDA-11.7.0/Gaussian/g16c01-CUDA-11.7.0/g16/l502.exe)
 Keep R1 ints in memory in canonical form, NReq=1117474609.
 FoFCou: FMM=F IPFlag=           0 FMFlag=           0 FMFlg1=           0
         NFxFlg=           0 DoJE=F BraDBF=F KetDBF=F FulRan=T
         wScrn=  0.000000 ICntrl=       600 IOpCl=  0 I1Cent=           0 NGrid=           0
         NMat0=    1 NMatS0=  33153 NMatT0=    0 NMatD0=    1 NMtDS0=    0 NMtDT0=    0
 Symmetry not used in FoFCou.
 Two-electron integral symmetry not used.
 Closed shell SCF:
 Using DIIS extrapolation, IDIIS=  1040.
 NGot=  3758096384 LenX=  2658793876 LenY=  2658721611
 Requested convergence on RMS density matrix=1.00D-08 within  32 cycles.
 Requested convergence on MAX density matrix=1.00D-06.
 Requested convergence on             energy=1.00D-06.
 No special actions if energy rises.

 Cycle   1  Pass 1  IDiag  1:
 E= -1199.57099085779    
 DIIS: error= 1.10D-02 at cycle   1 NSaved=   1.
 NSaved= 1 IEnMin= 1 EnMin= -1199.57099085779     IErMin= 1 ErrMin= 1.10D-02
 ErrMax= 1.10D-02  0.00D+00 EMaxC= 1.00D-01 BMatC= 1.07D-01 BMatP= 1.07D-01
 IDIUse=3 WtCom= 8.90D-01 WtEn= 1.10D-01
 Coeff-Com:  0.100D+01
 Coeff-En:   0.100D+01
 Coeff:      0.100D+01
 Recover alternate guess density for next cycle.
 RMSDP=9.58D-03 MaxDP=6.04D-01              OVMax= 0.00D+00

 Cycle   2  Pass 1  IDiag  1:
 E= -1199.02659071036     Delta-E=        0.544400147433 Rises=F Damp=F
 Switch densities from cycles 1 and 2 for lowest energy.
 DIIS: error= 1.13D-01 at cycle   2 NSaved=   2.
 NSaved= 2 IEnMin= 1 EnMin= -1199.57099085779     IErMin= 1 ErrMin= 1.10D-02
 ErrMax= 1.13D-01  0.00D+00 EMaxC= 1.00D+00 BMatC= 3.34D+00 BMatP= 1.07D-01
 IDIUse=1 WtCom= 1.00D+00 WtEn= 0.00D+00
 Coeff-Com:  0.968D+00 0.318D-01
 Coeff:      0.968D+00 0.318D-01
 Gap=     0.441 Goal=   None    Shift=    0.000
 RMSDP=3.99D-03 MaxDP=9.55D-02 DE= 5.44D-01 OVMax= 1.35D-01

 Cycle   3  Pass 1  IDiag  1:
 E= -1199.72139977037     Delta-E=       -0.694809060014 Rises=F Damp=F
 DIIS: error= 4.04D-03 at cycle   3 NSaved=   3.
 NSaved= 3 IEnMin= 3 EnMin= -1199.72139977037     IErMin= 3 ErrMin= 4.04D-03
 ErrMax= 4.04D-03  0.00D+00 EMaxC= 1.00D+00 BMatC= 8.83D-03 BMatP= 1.07D-01
 IDIUse=1 WtCom= 1.00D+00 WtEn= 0.00D+00
 Coeff-Com: -0.424D-01 0.106D-01 0.103D+01
 Coeff:     -0.424D-01 0.106D-01 0.103D+01
 Gap=     0.389 Goal=   None    Shift=    0.000
 RMSDP=9.01D-04 MaxDP=2.53D-02 DE=-6.95D-01 OVMax= 3.43D-02

 Cycle   4  Pass 1  IDiag  1:
 E= -1199.72612348274     Delta-E=       -0.004723712366 Rises=F Damp=F
 DIIS: error= 6.77D-03 at cycle   4 NSaved=   4.
 NSaved= 4 IEnMin= 4 EnMin= -1199.72612348274     IErMin= 3 ErrMin= 4.04D-03
 ErrMax= 6.77D-03  0.00D+00 EMaxC= 1.00D+00 BMatC= 1.19D-02 BMatP= 8.83D-03
 IDIUse=1 WtCom= 1.00D+00 WtEn= 0.00D+00
 Coeff-Com: -0.966D-01 0.341D-02 0.613D+00 0.480D+00
 Coeff:     -0.966D-01 0.341D-02 0.613D+00 0.480D+00
 Gap=     0.382 Goal=   None    Shift=    0.000
 RMSDP=3.97D-04 MaxDP=1.67D-02 DE=-4.72D-03 OVMax= 1.68D-02

 Cycle   5  Pass 1  IDiag  1:
 E= -1199.73400433400     Delta-E=       -0.007880851264 Rises=F Damp=F
 DIIS: error= 8.42D-04 at cycle   5 NSaved=   5.
 NSaved= 5 IEnMin= 5 EnMin= -1199.73400433400     IErMin= 5 ErrMin= 8.42D-04
 ErrMax= 8.42D-04  0.00D+00 EMaxC= 1.00D+00 BMatC= 3.19D-04 BMatP= 8.83D-03
 IDIUse=1 WtCom= 1.00D+00 WtEn= 0.00D+00
 Coeff-Com: -0.253D-01 0.161D-03 0.873D-01 0.149D+00 0.789D+00
 Coeff:     -0.253D-01 0.161D-03 0.873D-01 0.149D+00 0.789D+00
 Gap=     0.385 Goal=   None    Shift=    0.000
 RMSDP=1.30D-04 MaxDP=4.28D-03 DE=-7.88D-03 OVMax= 6.85D-03

 Cycle   6  Pass 1  IDiag  1:
 E= -1199.73427849828     Delta-E=       -0.000274164272 Rises=F Damp=F
 DIIS: error= 3.92D-04 at cycle   6 NSaved=   6.
 NSaved= 6 IEnMin= 6 EnMin= -1199.73427849828     IErMin= 6 ErrMin= 3.92D-04
 ErrMax= 3.92D-04  0.00D+00 EMaxC= 1.00D+00 BMatC= 1.15D-04 BMatP= 3.19D-04
 IDIUse=1 WtCom= 1.00D+00 WtEn= 0.00D+00
 Coeff-Com:  0.439D-02-0.679D-03-0.701D-01-0.123D-01 0.427D+00 0.652D+00
 Coeff:      0.439D-02-0.679D-03-0.701D-01-0.123D-01 0.427D+00 0.652D+00
 Gap=     0.383 Goal=   None    Shift=    0.000
 RMSDP=5.72D-05 MaxDP=2.08D-03 DE=-2.74D-04 OVMax= 3.27D-03

 Cycle   7  Pass 1  IDiag  1:
 E= -1199.73437978459     Delta-E=       -0.000101286314 Rises=F Damp=F
 DIIS: error= 8.41D-05 at cycle   7 NSaved=   7.
 NSaved= 7 IEnMin= 7 EnMin= -1199.73437978459     IErMin= 7 ErrMin= 8.41D-05
 ErrMax= 8.41D-05  0.00D+00 EMaxC= 1.00D+00 BMatC= 4.59D-06 BMatP= 1.15D-04
 IDIUse=1 WtCom= 1.00D+00 WtEn= 0.00D+00
 Coeff-Com:  0.341D-02-0.336D-04-0.298D-01-0.173D-01 0.633D-01 0.202D+00
 Coeff-Com:  0.778D+00
 Coeff:      0.341D-02-0.336D-04-0.298D-01-0.173D-01 0.633D-01 0.202D+00
 Coeff:      0.778D+00
 Gap=     0.383 Goal=   None    Shift=    0.000
 RMSDP=1.92D-05 MaxDP=5.11D-04 DE=-1.01D-04 OVMax= 8.11D-04

 Cycle   8  Pass 1  IDiag  1:
 E= -1199.73438474518     Delta-E=       -0.000004960589 Rises=F Damp=F
 DIIS: error= 4.19D-05 at cycle   8 NSaved=   8.
 NSaved= 8 IEnMin= 8 EnMin= -1199.73438474518     IErMin= 8 ErrMin= 4.19D-05
 ErrMax= 4.19D-05  0.00D+00 EMaxC= 1.00D+00 BMatC= 1.19D-06 BMatP= 4.59D-06
 IDIUse=1 WtCom= 1.00D+00 WtEn= 0.00D+00
 Coeff-Com:  0.106D-02 0.535D-04-0.602D-02-0.669D-02-0.192D-01 0.216D-01
 Coeff-Com:  0.380D+00 0.629D+00
 Coeff:      0.106D-02 0.535D-04-0.602D-02-0.669D-02-0.192D-01 0.216D-01
 Coeff:      0.380D+00 0.629D+00
 Gap=     0.383 Goal=   None    Shift=    0.000
 RMSDP=6.39D-06 MaxDP=1.45D-04 DE=-4.96D-06 OVMax= 3.82D-04

 Cycle   9  Pass 1  IDiag  1:
 E= -1199.73438582754     Delta-E=       -0.000001082358 Rises=F Damp=F
 DIIS: error= 1.31D-05 at cycle   9 NSaved=   9.
 NSaved= 9 IEnMin= 9 EnMin= -1199.73438582754     IErMin= 9 ErrMin= 1.31D-05
 ErrMax= 1.31D-05  0.00D+00 EMaxC= 1.00D+00 BMatC= 1.26D-07 BMatP= 1.19D-06
 IDIUse=1 WtCom= 1.00D+00 WtEn= 0.00D+00
 Coeff-Com: -0.215D-03 0.758D-05 0.334D-02 0.876D-03-0.187D-01-0.300D-01
 Coeff-Com: -0.932D-02 0.248D+00 0.806D+00
 Coeff:     -0.215D-03 0.758D-05 0.334D-02 0.876D-03-0.187D-01-0.300D-01
 Coeff:     -0.932D-02 0.248D+00 0.806D+00
 Gap=     0.383 Goal=   None    Shift=    0.000
 RMSDP=3.37D-06 MaxDP=1.71D-04 DE=-1.08D-06 OVMax= 1.63D-04

 Cycle  10  Pass 1  IDiag  1:
 E= -1199.73438598825     Delta-E=       -0.000000160716 Rises=F Damp=F
 DIIS: error= 3.02D-06 at cycle  10 NSaved=  10.
 NSaved=10 IEnMin=10 EnMin= -1199.73438598825     IErMin=10 ErrMin= 3.02D-06
 ErrMax= 3.02D-06  0.00D+00 EMaxC= 1.00D+00 BMatC= 7.14D-09 BMatP= 1.26D-07
 IDIUse=1 WtCom= 1.00D+00 WtEn= 0.00D+00
 Coeff-Com: -0.160D-03 0.876D-06 0.155D-02 0.817D-03-0.411D-02-0.112D-01
 Coeff-Com: -0.353D-01 0.285D-01 0.213D+00 0.807D+00
 Coeff:     -0.160D-03 0.876D-06 0.155D-02 0.817D-03-0.411D-02-0.112D-01
 Coeff:     -0.353D-01 0.285D-01 0.213D+00 0.807D+00
 Gap=     0.383 Goal=   None    Shift=    0.000
 RMSDP=1.09D-06 MaxDP=4.90D-05 DE=-1.61D-07 OVMax= 5.59D-05

 Cycle  11  Pass 1  IDiag  1:
 E= -1199.73438600092     Delta-E=       -0.000000012666 Rises=F Damp=F
 DIIS: error= 1.26D-06 at cycle  11 NSaved=  11.
 NSaved=11 IEnMin=11 EnMin= -1199.73438600092     IErMin=11 ErrMin= 1.26D-06
 ErrMax= 1.26D-06  0.00D+00 EMaxC= 1.00D+00 BMatC= 1.25D-09 BMatP= 7.14D-09
 IDIUse=1 WtCom= 1.00D+00 WtEn= 0.00D+00
 Coeff-Com: -0.184D-04-0.116D-05 0.186D-04 0.104D-03 0.128D-02 0.562D-03
 Coeff-Com: -0.934D-02-0.247D-01-0.537D-01 0.244D+00 0.842D+00
 Coeff:     -0.184D-04-0.116D-05 0.186D-04 0.104D-03 0.128D-02 0.562D-03
 Coeff:     -0.934D-02-0.247D-01-0.537D-01 0.244D+00 0.842D+00
 Gap=     0.383 Goal=   None    Shift=    0.000
 RMSDP=4.78D-07 MaxDP=1.30D-05 DE=-1.27D-08 OVMax= 2.60D-05

 Cycle  12  Pass 1  IDiag  1:
 E= -1199.73438600321     Delta-E=       -0.000000002289 Rises=F Damp=F
 DIIS: error= 5.97D-07 at cycle  12 NSaved=  12.
 NSaved=12 IEnMin=12 EnMin= -1199.73438600321     IErMin=12 ErrMin= 5.97D-07
 ErrMax= 5.97D-07  0.00D+00 EMaxC= 1.00D+00 BMatC= 1.99D-10 BMatP= 1.25D-09
 IDIUse=1 WtCom= 1.00D+00 WtEn= 0.00D+00
 Coeff-Com:  0.159D-04-0.180D-06-0.212D-03-0.870D-04 0.103D-02 0.179D-02
 Coeff-Com:  0.204D-02-0.121D-01-0.489D-01-0.336D-01 0.300D+00 0.789D+00
 Coeff:      0.159D-04-0.180D-06-0.212D-03-0.870D-04 0.103D-02 0.179D-02
 Coeff:      0.204D-02-0.121D-01-0.489D-01-0.336D-01 0.300D+00 0.789D+00
 Gap=     0.383 Goal=   None    Shift=    0.000
 RMSDP=1.86D-07 MaxDP=9.08D-06 DE=-2.29D-09 OVMax= 8.83D-06

 Cycle  13  Pass 1  IDiag  1:
 E= -1199.73438600348     Delta-E=       -0.000000000267 Rises=F Damp=F
 DIIS: error= 2.92D-07 at cycle  13 NSaved=  13.
 NSaved=13 IEnMin=13 EnMin= -1199.73438600348     IErMin=13 ErrMin= 2.92D-07
 ErrMax= 2.92D-07  0.00D+00 EMaxC= 1.00D+00 BMatC= 2.92D-11 BMatP= 1.99D-10
 IDIUse=1 WtCom= 1.00D+00 WtEn= 0.00D+00
 Coeff-Com:  0.658D-05 0.589D-07-0.600D-04-0.396D-04 0.111D-03 0.455D-03
 Coeff-Com:  0.207D-02 0.173D-03-0.736D-02-0.473D-01-0.199D-01 0.288D+00
 Coeff-Com:  0.784D+00
 Coeff:      0.658D-05 0.589D-07-0.600D-04-0.396D-04 0.111D-03 0.455D-03
 Coeff:      0.207D-02 0.173D-03-0.736D-02-0.473D-01-0.199D-01 0.288D+00
 Coeff:      0.784D+00
 Gap=     0.383 Goal=   None    Shift=    0.000
 RMSDP=6.31D-08 MaxDP=2.58D-06 DE=-2.67D-10 OVMax= 3.70D-06

 Cycle  14  Pass 1  IDiag  1:
 E= -1199.73438600353     Delta-E=       -0.000000000055 Rises=F Damp=F
 DIIS: error= 6.93D-08 at cycle  14 NSaved=  14.
 NSaved=14 IEnMin=14 EnMin= -1199.73438600353     IErMin=14 ErrMin= 6.93D-08
 ErrMax= 6.93D-08  0.00D+00 EMaxC= 1.00D+00 BMatC= 2.50D-12 BMatP= 2.92D-11
 IDIUse=1 WtCom= 1.00D+00 WtEn= 0.00D+00
 Coeff-Com: -0.742D-06 0.420D-07 0.169D-04 0.332D-05-0.127D-03-0.157D-03
 Coeff-Com:  0.202D-03 0.175D-02 0.485D-02-0.445D-02-0.477D-01-0.576D-01
 Coeff-Com:  0.173D+00 0.930D+00
 Coeff:     -0.742D-06 0.420D-07 0.169D-04 0.332D-05-0.127D-03-0.157D-03
 Coeff:      0.202D-03 0.175D-02 0.485D-02-0.445D-02-0.477D-01-0.576D-01
 Coeff:      0.173D+00 0.930D+00
 Gap=     0.383 Goal=   None    Shift=    0.000
 RMSDP=2.26D-08 MaxDP=5.06D-07 DE=-5.50D-11 OVMax= 1.97D-06

 Cycle  15  Pass 1  IDiag  1:
 E= -1199.73438600363     Delta-E=       -0.000000000095 Rises=F Damp=F
 DIIS: error= 2.72D-08 at cycle  15 NSaved=  15.
 NSaved=15 IEnMin=15 EnMin= -1199.73438600363     IErMin=15 ErrMin= 2.72D-08
 ErrMax= 2.72D-08  0.00D+00 EMaxC= 1.00D+00 BMatC= 3.70D-13 BMatP= 2.50D-12
 IDIUse=1 WtCom= 1.00D+00 WtEn= 0.00D+00
 Coeff-Com: -0.882D-06 0.350D-07 0.118D-04 0.429D-05-0.594D-04-0.104D-03
 Coeff-Com: -0.786D-04 0.642D-03 0.231D-02 0.216D-02-0.158D-01-0.451D-01
 Coeff-Com: -0.439D-02 0.322D+00 0.739D+00
 Coeff:     -0.882D-06 0.350D-07 0.118D-04 0.429D-05-0.594D-04-0.104D-03
 Coeff:     -0.786D-04 0.642D-03 0.231D-02 0.216D-02-0.158D-01-0.451D-01
 Coeff:     -0.439D-02 0.322D+00 0.739D+00
 Gap=     0.383 Goal=   None    Shift=    0.000
 RMSDP=5.53D-09 MaxDP=9.82D-08 DE=-9.50D-11 OVMax= 5.46D-07

 SCF Done:  E(RwB97XD) =  -1199.73438600     A.U. after   15 cycles
            NFock= 15  Conv=0.55D-08     -V/T= 2.0019
 KE= 1.197429198540D+03 PE=-4.652616618065D+03 EE= 1.353110368914D+03
 Leave Link  502 at Fri May 23 05:17:06 2025, MaxMem=  3758096384 cpu:              65.6 elap:              13.2
 (Enter /apps/easybuild-2022/easybuild/software/Compiler/NVHPC/22.11-CUDA-11.7.0/Gaussian/g16c01-CUDA-11.7.0/g16/l508.exe)
 QCSCF skips out because SCF is already converged.
 Leave Link  508 at Fri May 23 05:17:06 2025, MaxMem=  3758096384 cpu:               0.0 elap:               0.0
 (Enter /apps/easybuild-2022/easybuild/software/Compiler/NVHPC/22.11-CUDA-11.7.0/Gaussian/g16c01-CUDA-11.7.0/g16/l701.exe)
 ... and contract with generalized density number  0.
 Compute integral first derivatives.
 R6Disp: Adding Grimme-D2 dispersion energy 1st derivatives to the gradient.
 Leave Link  701 at Fri May 23 05:17:06 2025, MaxMem=  3758096384 cpu:               0.3 elap:               0.1
 (Enter /apps/easybuild-2022/easybuild/software/Compiler/NVHPC/22.11-CUDA-11.7.0/Gaussian/g16c01-CUDA-11.7.0/g16/l702.exe)
 L702 exits ... SP integral derivatives will be done elsewhere.
 Leave Link  702 at Fri May 23 05:17:06 2025, MaxMem=  3758096384 cpu:               0.0 elap:               0.0
 (Enter /apps/easybuild-2022/easybuild/software/Compiler/NVHPC/22.11-CUDA-11.7.0/Gaussian/g16c01-CUDA-11.7.0/g16/l703.exe)
 Integral derivatives from FoFJK, PRISM(SPDF).
 Compute integral first derivatives, UseDBF=F ICtDFT=           0.
 Calling FoFJK, ICntrl=      2127 FMM=F ISym2X=0 I1Cent= 0 IOpClX= 0 NMat=1 NMatS=1 NMatT=0.
 FoFJK:  IHMeth= 1 ICntrl=    2127 DoSepK=T KAlg= 0 I1Cent=           0 FoldK=F
 IRaf=         1 NMat=       1 IRICut=       1 DoRegI=T DoRafI=F ISym2E= 0 IDoP0=0 IntGTp=1.
 FoFCou: FMM=F IPFlag=           0 FMFlag=      100000 FMFlg1=         800
         NFxFlg=           0 DoJE=F BraDBF=F KetDBF=F FulRan=T
         wScrn=  0.000000 ICntrl=      2527 IOpCl=  0 I1Cent=           0 NGrid=           0
         NMat0=    1 NMatS0=      1 NMatT0=    0 NMatD0=    1 NMtDS0=    0 NMtDT0=    0
 Symmetry not used in FoFCou.
 Leave Link  703 at Fri May 23 05:17:10 2025, MaxMem=  3758096384 cpu:              34.0 elap:               4.3
 (Enter /apps/easybuild-2022/easybuild/software/Compiler/NVHPC/22.11-CUDA-11.7.0/Gaussian/g16c01-CUDA-11.7.0/g16/l716.exe)
 Dipole        =-1.05388330D-02 3.54644771D-01 4.12038215D-02
 -------------------------------------------------------------------
 Center     Atomic                   Forces (Hartrees/Bohr)
 Number     Number              X              Y              Z
 -------------------------------------------------------------------
      1        6          -0.000731944   -0.001867398   -0.001402646
      2        6           0.005610137   -0.004189054    0.000852471
      3        9           0.000152112    0.001137198   -0.000902757
      4        9          -0.002928941   -0.000001530   -0.002501712
      5       16          -0.010273635    0.004289917    0.002244523
      6        8          -0.009558904   -0.002403107    0.005938494
      7        8           0.000512822    0.001871957   -0.000326555
      8        8           0.005629403    0.000393271   -0.001257186
      9        9           0.000640946    0.000443288    0.001280472
     10        9           0.001098073    0.001351504   -0.001188698
     11        9          -0.000479666    0.001385427   -0.000588316
     12        1           0.010329598   -0.002411474   -0.002148089
 -------------------------------------------------------------------
 Cartesian Forces:  Max     0.010329598 RMS     0.003718298
 Leave Link  716 at Fri May 23 05:17:10 2025, MaxMem=  3758096384 cpu:               0.0 elap:               0.0
 (Enter /apps/easybuild-2022/easybuild/software/Compiler/NVHPC/22.11-CUDA-11.7.0/Gaussian/g16c01-CUDA-11.7.0/g16/l103.exe)

 GradGradGradGradGradGradGradGradGradGradGradGradGradGradGradGradGradGrad
 Berny optimization.
 Using GEDIIS/GDIIS optimizer.
 FormGI is forming the generalized inverse of G from B-inverse, IUseBI=4.
 Internal  Forces:  Max     0.013573576 RMS     0.003679487
 Search for a local minimum.
 Step number   2 out of a maximum of   56
 All quantities printed in internal units (Hartrees-Bohrs-Radians)
 RMS Force = .36795D-02 SwitMx=.10000D-02 MixMth= 1
 Mixed Optimization -- RFO/linear search
 Update second derivatives using D2CorX and points    1    2
 DE= -1.53D-02 DEPred=-1.78D-02 R= 8.56D-01
 TightC=F SS=  1.41D+00  RLast= 9.33D-01 DXNew= 5.0454D-01 2.8003D+00
 Trust test= 8.56D-01 RLast= 9.33D-01 DXMaxT set to 5.05D-01
 ITU=  1  0
 Use linear search instead of GDIIS.
     Eigenvalues ---   -0.03406  -0.00186   0.00152   0.03869   0.05067
     Eigenvalues ---    0.08963   0.09327   0.10034   0.11778   0.12349
     Eigenvalues ---    0.13073   0.16640   0.16912   0.19354   0.20749
     Eigenvalues ---    0.22453   0.23828   0.24308   0.28893   0.35491
     Eigenvalues ---    0.36392   0.37204   0.37854   0.39545   0.47550
     Eigenvalues ---    0.51187   0.51860   0.55937   0.62657   0.66043
 Eigenvalue     1 is  -3.41D-02 should be greater than     0.000000 Eigenvector:
                          D18       D17       D16       D11       D13
   1                    0.43873  -0.37920  -0.33367  -0.31703  -0.28563
                          D15       D10       D12       D14       A17
   1                   -0.25844  -0.24229  -0.21089  -0.18370   0.18168
 Eigenvalue     2 is  -1.86D-03 should be greater than     0.000000 Eigenvector:
                          D18       D15       D7        D4        D17
   1                    0.65610   0.20538   0.20246   0.20183  -0.19746
                          D11       D14       D8        D5        D10
   1                    0.19481   0.19091   0.18526   0.18462   0.18034
 RFO step:  Lambda=-3.40593797D-02 EMin=-3.40589655D-02
 I=     1 Eig=   -3.41D-02 Dot1= -6.95D-05
 I=     1 Stepn= -6.00D-01 RXN=   6.00D-01 EDone=F
 I=     2 Eig=   -1.86D-03 Dot1=  4.64D-04
 I=     2 Stepn=  3.00D-01 RXN=   6.71D-01 EDone=F
 Mixed    2 eigenvectors in step.  Raw Step.Grad=  5.33D-04.
 RFO eigenvector is Hessian eigenvector with negative curvature.
 Taking step of  6.00D-01 in eigenvector direction(s).  Step.Grad= -7.50D-04.
 Quartic linear search produced a step of  0.14837.
 Iteration  1 RMS(Cart)=  0.19411629 RMS(Int)=  0.01678116
[...]
    D8        1.23472   0.00000   0.00000   0.00000   0.00000   1.23473
    D9       -2.84235   0.00000   0.00000   0.00001   0.00001  -2.84234
   D10       -2.79295  -0.00000   0.00000   0.00000   0.00000  -2.79295
   D11       -0.83398  -0.00000   0.00000   0.00000   0.00000  -0.83397
   D12        1.44346  -0.00000   0.00000   0.00000   0.00000   1.44346
   D13       -2.88075  -0.00000   0.00000   0.00000   0.00000  -2.88075
   D14       -0.58605   0.00000   0.00000   0.00000   0.00000  -0.58604
   D15        1.37292   0.00000   0.00000   0.00000   0.00000   1.37293
   D16       -1.06702  -0.00000   0.00000   0.00000   0.00000  -1.06702
   D17        0.80432   0.00000   0.00000   0.00000   0.00000   0.80432
   D18       -1.48708  -0.00000   0.00000  -0.00000  -0.00000  -1.48709
         Item               Value     Threshold  Converged?
 Maximum Force            0.000001     0.000015     YES
 RMS     Force            0.000000     0.000010     YES
 Maximum Displacement     0.000018     0.000060     YES
 RMS     Displacement     0.000006     0.000040     YES
 Predicted change in Energy=-5.364801D-12
 Optimization completed.
    -- Stationary point found.
                           ----------------------------
                           !   Optimized Parameters   !
                           ! (Angstroms and Degrees)  !
 --------------------------                            --------------------------
 ! Name  Definition              Value          Derivative Info.                !
 --------------------------------------------------------------------------------
 ! R1    R(1,2)                  1.5499         -DE/DX =    0.0                 !
 ! R2    R(1,9)                  1.3367         -DE/DX =    0.0                 !
 ! R3    R(1,10)                 1.3214         -DE/DX =    0.0                 !
 ! R4    R(1,11)                 1.3298         -DE/DX =    0.0                 !
 ! R5    R(2,3)                  1.3465         -DE/DX =    0.0                 !
 ! R6    R(2,4)                  1.3242         -DE/DX =    0.0                 !
 ! R7    R(2,5)                  1.9188         -DE/DX =    0.0                 !
 ! R8    R(5,7)                  1.4632         -DE/DX =    0.0                 !
 ! R9    R(5,8)                  1.6792         -DE/DX =    0.0                 !
 ! R10   R(6,8)                  1.4196         -DE/DX =    0.0                 !
 ! R11   R(6,12)                 0.967          -DE/DX =    0.0                 !
 ! A1    A(2,1,9)              108.9015         -DE/DX =    0.0                 !
 ! A2    A(2,1,10)             111.5537         -DE/DX =    0.0                 !
 ! A3    A(2,1,11)             109.8633         -DE/DX =    0.0                 !
 ! A4    A(9,1,10)             109.1661         -DE/DX =    0.0                 !
 ! A5    A(9,1,11)             108.5419         -DE/DX =    0.0                 !
 ! A6    A(10,1,11)            108.7611         -DE/DX =    0.0                 !
 ! A7    A(1,2,3)              108.084          -DE/DX =    0.0                 !
 ! A8    A(1,2,4)              110.7469         -DE/DX =    0.0                 !
 ! A9    A(1,2,5)              115.046          -DE/DX =    0.0                 !
 ! A10   A(3,2,4)              108.9865         -DE/DX =    0.0                 !
 ! A11   A(3,2,5)              102.8683         -DE/DX =    0.0                 !
 ! A12   A(4,2,5)              110.6588         -DE/DX =    0.0                 !
 ! A13   A(2,5,7)              103.1837         -DE/DX =    0.0                 !
 ! A14   A(2,5,8)               98.3736         -DE/DX =    0.0                 !
 ! A15   A(7,5,8)              109.3527         -DE/DX =    0.0                 !
 ! A16   A(8,6,12)             102.3297         -DE/DX =    0.0                 !
 ! A17   A(5,8,6)              112.1812         -DE/DX =    0.0                 !
 ! D1    D(9,1,2,3)             70.1814         -DE/DX =    0.0                 !
 ! D2    D(9,1,2,4)           -170.4992         -DE/DX =    0.0                 !
 ! D3    D(9,1,2,5)            -44.0982         -DE/DX =    0.0                 !
 ! D4    D(10,1,2,3)          -169.2641         -DE/DX =    0.0                 !
 ! D5    D(10,1,2,4)           -49.9446         -DE/DX =    0.0                 !
 ! D6    D(10,1,2,5)            76.4564         -DE/DX =    0.0                 !
 ! D7    D(11,1,2,3)           -48.575          -DE/DX =    0.0                 !
 ! D8    D(11,1,2,4)            70.7444         -DE/DX =    0.0                 !
 ! D9    D(11,1,2,5)          -162.8546         -DE/DX =    0.0                 !
 ! D10   D(1,2,5,7)           -160.0242         -DE/DX =    0.0                 !
 ! D11   D(1,2,5,8)            -47.7834         -DE/DX =    0.0                 !
 ! D12   D(3,2,5,7)             82.7044         -DE/DX =    0.0                 !
 ! D13   D(3,2,5,8)           -165.0548         -DE/DX =    0.0                 !
 ! D14   D(4,2,5,7)            -33.5781         -DE/DX =    0.0                 !
 ! D15   D(4,2,5,8)             78.6628         -DE/DX =    0.0                 !
 ! D16   D(2,5,8,6)            -61.1357         -DE/DX =    0.0                 !
 ! D17   D(7,5,8,6)             46.084          -DE/DX =    0.0                 !
 ! D18   D(12,6,8,5)           -85.2035         -DE/DX =    0.0                 !
 --------------------------------------------------------------------------------
 GradGradGradGradGradGradGradGradGradGradGradGradGradGradGradGradGradGrad

 Leave Link  103 at Fri May 23 05:23:21 2025, MaxMem=  3758096384 cpu:               0.0 elap:               0.0
 (Enter /apps/easybuild-2022/easybuild/software/Compiler/NVHPC/22.11-CUDA-11.7.0/Gaussian/g16c01-CUDA-11.7.0/g16/l9999.exe)

 ----------------------------------------------------------------------

 Electric dipole moment (input orientation):
 (Debye = 10**-18 statcoulomb cm , SI units = C m)
                  (au)            (Debye)         (10**-30 SI)
   Tot        0.454348D+00      0.115484D+01      0.385212D+01
   x          0.171802D+00      0.436678D+00      0.145660D+01
   y          0.130651D+00      0.332082D+00      0.110770D+01
   z          0.399808D+00      0.101621D+01      0.338971D+01

 Dipole polarizability, Alpha (input orientation).
 (esu units = cm**3 , SI units = C**2 m**2 J**-1)
 Alpha(0;0):
               (au)            (10**-24 esu)      (10**-40 SI)
   iso        0.602745D+02      0.893176D+01      0.993793D+01
   aniso      0.127153D+02      0.188421D+01      0.209646D+01
   xx         0.606187D+02      0.898276D+01      0.999467D+01
   yx        -0.164423D+01     -0.243650D+00     -0.271097D+00
   yy         0.558939D+02      0.828262D+01      0.921566D+01
   zx        -0.191486D+01     -0.283753D+00     -0.315717D+00
   zy        -0.545177D+01     -0.807868D+00     -0.898875D+00
   zz         0.643110D+02      0.952991D+01      0.106034D+02

 ----------------------------------------------------------------------

 Dipole orientation:
     6          3.59727804          5.77469973         -2.68396519
     6          0.97162127          4.52473088         -3.03232932
     9         -0.46173019          6.07936863         -4.44763547
     9          1.18601877          2.32378163         -4.20342806
    16         -0.97626418          4.17288887          0.00577868
     8          2.18344653          0.58690962          0.92797359
     8         -2.80887504          2.20714211         -0.64419864
     8          1.28074568          2.93442579          1.86098012
     9          3.35460942          7.77843480         -1.16525849
     9          5.24495613          4.18520896         -1.68705119
     9          4.47192366          6.55742254         -4.90604362
     1          0.97697865         -0.59804709          1.62025988

 Electric dipole moment (dipole orientation):
 (Debye = 10**-18 statcoulomb cm , SI units = C m)
                  (au)            (Debye)         (10**-30 SI)
   Tot        0.454348D+00      0.115484D+01      0.385212D+01
   x          0.000000D+00      0.000000D+00      0.000000D+00
   y          0.000000D+00      0.000000D+00      0.000000D+00
   z          0.454348D+00      0.115484D+01      0.385212D+01

 Dipole polarizability, Alpha (dipole orientation).
 (esu units = cm**3 , SI units = C**2 m**2 J**-1)
 Alpha(0;0):
               (au)            (10**-24 esu)      (10**-40 SI)
   iso        0.602745D+02      0.893176D+01      0.993793D+01
   aniso      0.127153D+02      0.188421D+01      0.209646D+01
   xx         0.624061D+02      0.924763D+01      0.102894D+02
   yx         0.155188D+01      0.229964D+00      0.255870D+00
   yy         0.597213D+02      0.884979D+01      0.984671D+01
   zx        -0.196367D+01     -0.290986D+00     -0.323766D+00
   zy        -0.663008D+01     -0.982477D+00     -0.109315D+01
   zz         0.586962D+02      0.869788D+01      0.967769D+01

 ----------------------------------------------------------------------
 Unable to Open any file for archive entry.
 1\1\GINC-SPARTAN-BM203\Freq\RwB97XD\6-311++G(d,p)\C2H1F5O3S1\AKHALILOV
 \23-May-2025\0\\#P Geom=AllCheck Guess=TCheck SCRF=Check GenChk RwB97X
 D/6-311++G(d,p) Freq\\Gaussian input prepared by ASE\\0,1\C,1.04501809
 98,2.4029135217,-2.8483355326\C,-0.2701940437,1.7979049954,-2.29495931
 77\F,-1.3017845434,2.4129037479,-2.9037601443\F,-0.3323387068,0.499674
 6731,-2.5482717256\S,-0.6038873176,2.1418308412,-0.4369439781\O,1.2352
 74738,0.3712988058,-0.094096397\O,-1.5697998021,1.1045404729,-0.073782
 8993\O,0.9087595097,1.728514129,0.1637722054\F,1.1689317379,3.65513319
 32,-2.3974910859\F,2.0987468454,1.7000565528,-2.4719436263\F,1.0040696
 821,2.433993487,-4.1771768648\H,0.8201886566,-0.0859023622,0.649994432
 4\\Version=ES64L-G16RevC.01\HF=-1199.7392727\RMSD=2.124e-09\RMSF=8.731
 e-07\ZeroPoint=0.0496545\Thermal=0.0608143\ETot=-1199.6784584\HTot=-11
 99.6775142\GTot=-1199.7273992\Dipole=0.1718024,0.1306509,0.3998078\Dip
 oleDeriv=1.4540684,-0.05365,-0.2831561,-0.0535061,1.5910888,-0.1431187
 ,0.0640217,0.0116002,1.6997269,0.7309265,-0.1913263,0.5635981,-0.15784
 75,1.1209085,0.1037726,0.2606532,-0.0495628,0.9761303,-0.6328526,0.256
 3087,-0.3348419,0.1533256,-0.3851173,0.1756357,-0.2563502,0.2040375,-0
 .5520099,-0.2411971,-0.0807999,-0.0204078,0.0200225,-0.7923689,-0.3463
 455,0.0114553,-0.1608513,-0.4576075,1.6029844,-0.0346427,-0.1430805,0.
 2710686,0.8305833,-0.3192733,-0.177879,-0.1511555,1.0509686,-0.2923303
 ,-0.0281227,-0.1907734,0.232691,-0.287735,0.1278957,-0.173431,0.081038
 5,-0.121563,-0.8510627,-0.0672632,0.3045411,-0.5623931,-0.592399,0.340
 9913,0.1931712,0.0648644,-0.5901059,-0.6196796,0.1319576,-0.1456771,0.
 009084,-0.2041393,0.0562302,-0.0768543,0.0324745,-0.4474462,-0.334709,
 -0.1460433,0.041319,-0.0722663,-0.8513709,-0.146084,0.0308331,-0.12866
 73,-0.3794403,-0.7273484,0.2614152,-0.0604079,0.1929732,-0.426325,0.09
 62891,-0.0574065,0.0924709,-0.3331975,-0.3458634,-0.0456047,0.1686744,
 -0.0419113,-0.2973198,0.112063,0.0611479,0.0607366,-1.129866,0.2570637
 ,-0.0022287,0.100212,0.0087596,0.2941946,-0.058056,0.1206387,-0.056985
 5,0.2844104\Polar=60.6186814,-1.6442316,55.8938891,-1.9148572,-5.45176
 66,64.3109882\PG=Unknown\NImag=0\\0.59321211,-0.00038996,0.54845595,-0
 .01202179,-0.01384116,0.54630874,-0.14044740,-0.04405782,0.06390068,0.
 50650205,-0.05060219,-0.06169174,0.02542128,0.03099697,0.54205502,0.02
 934111,0.00730428,-0.07638456,0.01904051,0.01266593,0.40120713,-0.0359
 0404,0.02922706,-0.03157164,-0.20898880,0.05122046,-0.07718212,0.26008
 796,0.00330237,-0.00050155,0.00047300,0.06037249,-0.09153456,0.0357334
 1,-0.11117258,0.13725068,0.00093533,0.00489892,-0.00373341,-0.09584413
 ,0.04018841,-0.12314171,0.11604492,-0.06470487,0.12863329,0.00486788,-
 0.02743722,-0.01220279,-0.07684929,-0.03189141,-0.00582454,0.00117061,
 0.04726830,0.00234564,0.07287232,0.00414582,-0.04151798,-0.01586337,-0
 .03972715,-0.30965700,-0.05364804,0.03370708,-0.05561372,0.01064092,0.
 01564406,0.42036082,0.00069119,0.00624393,0.00236765,-0.00403744,-0.06
 163379,-0.08082200,-0.00170867,0.02236459,0.01429466,0.00883290,0.0585
 8033,0.07020021,0.00636303,-0.00174894,0.02281125,-0.02831098,0.007093
 61,0.02400471,-0.01441527,0.00645097,-0.03317215,0.00053381,-0.0035576
 2,0.00043966,0.43001326,-0.00395289,0.01041659,0.00700863,0.00891603,-
 0.04594689,0.00340101,0.00417678,0.00266938,0.01542998,0.00151941,-0.0
 3448833,-0.03901201,0.18642168,0.51874605,0.01786806,0.00548361,-0.008
 48805,0.01324241,-0.05401748,-0.08058343,-0.00572036,0.00680844,-0.012
 01967,0.00552519,-0.00983872,-0.01547212,-0.06033946,-0.06859182,0.254
 12460,-0.00198093,-0.00068927,-0.00084999,0.00265371,-0.00508328,0.001
 41091,0.00059296,0.00013813,0.00181773,-0.00068216,0.00096574,-0.00289
 583,-0.02998837,0.03888237,-0.00024935,0.16501501,0.00261784,-0.000732
 70,0.00127251,-0.00307329,0.00055755,-0.00236012,-0.00047386,0.0001670
 0,-0.00049348,0.00053908,0.00328380,0.00279725,0.03141799,-0.03913401,
 0.00647315,0.02759753,0.38650052,-0.00003009,0.00052366,-0.00007808,0.
 00249637,-0.00160630,-0.00078635,0.00063455,-0.00039920,0.00137610,-0.
 00205539,0.00307105,-0.00157872,0.00217224,0.00905656,0.01022355,-0.20
 111976,-0.13856160,0.38164435,0.00643738,0.00601496,0.00113899,-0.0221
 0398,-0.01548036,0.00293696,0.00837991,-0.00312099,0.00580398,0.002476
 04,0.00431702,-0.00179111,-0.26371323,-0.22454722,0.08400411,0.0064894
 8,-0.00372009,0.00006925,0.29730839,0.00572250,0.00081261,-0.00137377,
 -0.01527007,-0.00369771,-0.00645472,0.00386540,-0.00105042,0.00147029,
 0.00298974,0.01396502,0.00596827,-0.26123802,-0.34547613,0.09760321,0.
 00007082,0.01274786,-0.00071889,0.26584955,0.31572700,-0.00831191,-0.0
 0530581,-0.00392980,0.02537352,0.02670054,-0.00631204,-0.00251936,-0.0
 0056341,-0.00167492,-0.00157411,0.00438206,0.00600004,0.08133994,0.085
 11622,-0.08373312,0.00106470,-0.00121206,-0.00117028,-0.09755585,-0.10
 246856,0.08066880,-0.00706543,0.00071614,-0.00400019,-0.00542854,0.007
 48057,0.00043523,-0.00023018,0.00079489,-0.00355638,0.00108082,-0.0032
 6684,-0.00116486,-0.09838583,-0.02184855,-0.04052540,-0.03407317,0.047
 63787,0.00674564,-0.03205378,0.00714337,-0.00582916,0.17151642,-0.0008
 7943,-0.00094637,-0.00135979,-0.00278658,0.00517116,-0.00189263,-0.001
 67162,0.00137839,-0.00335285,0.00036211,0.00022106,0.00163272,0.033155
 84,-0.05806912,0.01661771,0.00792925,-0.23635130,-0.01068600,-0.025214
 06,0.00663570,-0.00890458,-0.02713775,0.31975808,-0.00129862,-0.001408
 43,0.00258914,-0.02480752,0.01410615,0.00514911,-0.00416748,0.00137395
 ,-0.01343685,0.00170103,-0.00387081,-0.00076318,-0.02933363,-0.0128544
 8,-0.06722858,0.01776187,-0.05509166,-0.05667624,0.00000563,0.00225418
 ,0.01265159,0.04928927,0.02647273,0.10703231,-0.09082768,-0.04175887,-
 0.00660978,0.00465319,-0.02752024,-0.01047533,0.00016622,-0.00047540,0
 .00053327,-0.00659036,-0.00719790,0.00205117,-0.00217872,0.00087354,-0
 .00106411,0.00054914,-0.00042985,0.00004794,-0.00014226,-0.00076106,0.
 00053607,0.00127925,0.00005455,0.00033250,0.07699514,-0.04737350,-0.25
 224531,-0.04424669,0.00375548,-0.03682536,-0.01616477,-0.00572860,0.00
 428550,-0.00031066,-0.00845250,-0.00509881,0.00372401,0.00057800,-0.00
 232891,-0.00139353,0.00044672,0.00020382,-0.00003845,-0.00171177,-0.00
 004440,0.00119188,-0.00008690,0.00007449,0.00088658,0.02857116,0.36646
 236,-0.00859410,-0.04725981,-0.08746526,0.00014423,0.00124168,0.005554
 51,0.00141927,0.00003544,0.00109200,0.00112988,0.00188508,0.00117394,-
 0.00097678,-0.00138952,-0.00041151,0.00034281,0.00009665,-0.00024553,-
 0.00053590,0.00066957,0.00058113,0.00012722,0.00084139,-0.00053811,0.0
 1344409,0.10174209,0.11507249,-0.25362513,0.08241744,-0.03764436,-0.02
 904573,0.03284544,-0.01577635,-0.01336061,-0.00180944,0.00221431,0.001
 18300,-0.00345556,0.00063732,-0.00309668,0.00070013,-0.00515162,0.0008
 0731,-0.00089374,0.00027672,-0.00110876,-0.00133975,0.00245594,0.00284
 958,0.00013187,0.00190515,0.00318713,0.03314748,0.00381236,0.29888944,
 0.09132122,-0.12434471,0.02500546,0.00190897,-0.00168636,0.00212288,-0
 .00146442,0.00142133,-0.00122420,-0.00146233,0.00545952,0.00006610,0.0
 0157123,-0.00173280,0.00109039,-0.00048174,-0.00019364,0.00121220,-0.0
 0024626,0.00056621,-0.00030873,-0.00091892,-0.00002530,-0.00048364,0.0
 4954375,-0.06384446,0.00070784,-0.15557787,0.18113839,-0.04207301,0.02
 603313,-0.08780743,0.00054743,-0.00177713,0.00774118,0.00326019,-0.000
 03395,0.00129701,0.00090824,0.00106257,0.00038526,-0.00382632,0.000175
 25,-0.00124537,0.00061287,-0.00018815,-0.00103963,0.00030504,0.0001456
 1,0.00081184,0.00277037,0.00063461,-0.00205268,0.00625959,-0.00406315,
 0.01399364,0.08483770,-0.05385788,0.11309499,-0.08119241,-0.00279296,0
 .01697664,-0.00201042,0.00027875,0.03186376,0.00245705,-0.00159489,0.0
 0309914,0.00014762,-0.00101774,-0.00072632,-0.00251277,-0.00044967,-0.
 00414266,0.00044947,-0.00063193,0.00000104,-0.00220133,-0.00153744,0.0
 0264591,0.00157054,0.00025398,0.00025949,0.01302229,-0.00292346,-0.010
 24654,-0.00671736,0.01601128,-0.05374457,0.07706408,-0.00419224,-0.076
 61927,0.01683051,-0.00145978,0.00350972,0.01837016,-0.00133177,0.00133
 682,-0.00213733,0.00115768,0.00366538,-0.00006399,-0.00041788,-0.00159
 118,-0.00215525,0.00019555,-0.00005217,-0.00008537,-0.00160820,-0.0004
 6035,0.00156288,0.00031235,0.00021077,0.00027297,-0.00094331,-0.010959
 90,-0.05862712,0.01402146,0.00275800,0.03237373,-0.00561052,0.07806259
 ,0.02192516,0.01783334,-0.28332792,-0.00011463,-0.00153954,-0.05076835
 ,0.00132693,-0.00088324,0.00686853,0.00153159,0.00368688,0.00405440,-0
 .00104503,-0.00007300,0.00641854,-0.00017186,0.00060124,-0.00012305,0.
 00405608,0.00318448,-0.00339931,-0.00034100,0.00026672,-0.00055750,-0.
 00479561,-0.04139734,-0.04900081,-0.03692645,0.02511925,-0.04486307,0.
 01435177,-0.00630059,0.41446744,0.00016262,0.00049943,0.00007299,-0.00
 062382,0.00066168,0.00022515,0.00004420,-0.00015384,-0.00022167,-0.000
 21029,-0.00055690,-0.00032802,0.00569174,0.00930840,-0.00344680,-0.109
 83244,-0.10058754,0.19076150,0.00023215,-0.00549505,0.00237432,-0.0010
 5968,0.01580183,-0.01164768,-0.00011334,-0.00022212,-0.00006654,0.0000
 3780,-0.00020491,0.00014247,-0.00007677,-0.00012335,0.00020304,0.10574
 783,0.00028045,-0.00108550,0.00067341,0.00042475,-0.00025384,0.0009226
 2,-0.00035393,0.00019115,-0.00040512,-0.00023692,-0.00057977,-0.000667
 40,0.00027313,-0.00306464,0.00192030,-0.06997181,-0.12699674,0.1382323
 5,-0.00053258,0.00027462,-0.00019044,-0.01082623,-0.03805757,0.0283424
 5,0.00004364,0.00032097,0.00005671,-0.00018747,0.00048382,-0.00050465,
 0.00001460,0.00013960,-0.00049821,0.08107237,0.16862789,0.00156867,-0.
 00050566,-0.00005102,0.00005858,0.00025026,-0.00085347,0.00018378,-0.0
 0020417,0.00044496,-0.00031764,-0.00008795,0.00015986,-0.00207443,0.00
 173318,-0.00158484,0.18227590,0.18666628,-0.33154611,0.00156280,-0.000
 27967,-0.00049393,-0.00395073,-0.02027003,0.01383100,-0.00025979,0.000
 07002,0.00019352,-0.00064071,0.00055034,-0.00031575,-0.00033766,-0.000
 04060,0.00023110,-0.17806877,-0.16788201,0.31998468\\-0.00000036,0.000
 00045,0.00000033,-0.00000022,0.00000059,0.00000029,-0.00000017,0.00000
 186,0.00000133,-0.00000121,0.00000109,-0.00000026,0.00000124,0.0000001
 0,0.00000060,-0.00000011,-0.00000146,-0.00000137,0.00000049,0.00000039
 ,0.00000082,0.00000102,-0.00000116,-0.00000042,0.00000088,-0.00000014,
 0.00000065,-0.00000061,-0.00000088,-0.00000081,-0.00000096,0.00000086,
 0.,0.00000001,-0.00000171,-0.00000117\\\@
 The archive entry for this job was punched.


 In the race for quality, there is no finish line.
                               -- David T. Kearns
 Job cpu time:       0 days  0 hours 10 minutes 29.6 seconds.
 Elapsed time:       0 days  0 hours  1 minutes 20.8 seconds.
 File lengths (MBytes):  RWF=     99 Int=      0 D2E=      0 Chk=      6 Scr=      1
 Normal termination of Gaussian 16 at Fri May 23 05:23:21 2025.
done
