 Entering Gaussian System, Link 0=g16
 Initial command:
 /apps/easybuild-2022/easybuild/software/Compiler/NVHPC/22.11-CUDA-11.7.0/Gaussian/g16c01-CUDA-11.7.0/g16/l1.exe "/tmp/Gau-251145.inp" -scrdir="/tmp/"
 Entering Link 1 = /apps/easybuild-2022/easybuild/software/Compiler/NVHPC/22.11-CUDA-11.7.0/Gaussian/g16c01-CUDA-11.7.0/g16/l1.exe PID=    251146.
  
 Copyright (c) 1988-2019, Gaussian, Inc.  All Rights Reserved.
  
 This is part of the Gaussian(R) 16 program.  It is based on
 the Gaussian(R) 09 system (copyright 2009, Gaussian, Inc.),
 the Gaussian(R) 03 system (copyright 2003, Gaussian, Inc.),
 the Gaussian(R) 98 system (copyright 1998, Gaussian, Inc.),
 the Gaussian(R) 94 system (copyright 1995, Gaussian, Inc.),
 the Gaussian 92(TM) system (copyright 1992, Gaussian, Inc.),
 the Gaussian 90(TM) system (copyright 1990, Gaussian, Inc.),
 the Gaussian 88(TM) system (copyright 1988, Gaussian, Inc.),
 the Gaussian 86(TM) system (copyright 1986, Carnegie Mellon
 University), and the Gaussian 82(TM) system (copyright 1983,
 Carnegie Mellon University). Gaussian is a federally registered
 trademark of Gaussian, Inc.
  
 This software contains proprietary and confidential information,
 including trade secrets, belonging to Gaussian, Inc.
  
 This software is provided under written license and may be
 used, copied, transmitted, or stored only in accord with that
 written license.
  
 The following legend is applicable only to US Government
 contracts under FAR:
  
                    RESTRICTED RIGHTS LEGEND
  
 Use, reproduction and disclosure by the US Government is
 subject to restrictions as set forth in subparagraphs (a)
 and (c) of the Commercial Computer Software - Restricted
 Rights clause in FAR 52.227-19.
  
 Gaussian, Inc.
 340 Quinnipiac St., Bldg. 40, Wallingford CT 06492
  
  
 ---------------------------------------------------------------
 Warning -- This program may not be used in any manner that
 competes with the business of Gaussian, Inc. or will provide
 assistance to any competitor of Gaussian, Inc.  The licensee
 of this program is prohibited from giving any competitor of
 Gaussian, Inc. access to this program.  By using this program,
 the user acknowledges that Gaussian, Inc. is engaged in the
 business of creating and licensing software in the field of
 computational chemistry and represents and warrants to the
 licensee that it is not a competitor of Gaussian, Inc. and that
 it will not use this program in any manner prohibited above.
 ---------------------------------------------------------------
  

 Cite this work as:
 Gaussian 16, Revision C.01,
 M. J. Frisch, G. W. Trucks, H. B. Schlegel, G. E. Scuseria, 
 M. A. Robb, J. R. Cheeseman, G. Scalmani, V. Barone, 
 G. A. Petersson, H. Nakatsuji, X. Li, M. Caricato, A. V. Marenich, 
 J. Bloino, B. G. Janesko, R. Gomperts, B. Mennucci, H. P. Hratchian, 
 J. V. Ortiz, A. F. Izmaylov, J. L. Sonnenberg, D. Williams-Young, 
 F. Ding, F. Lipparini, F. Egidi, J. Goings, B. Peng, A. Petrone, 
 T. Henderson, D. Ranasinghe, V. G. Zakrzewski, J. Gao, N. Rega, 
 G. Zheng, W. Liang, M. Hada, M. Ehara, K. Toyota, R. Fukuda, 
 J. Hasegawa, M. Ishida, T. Nakajima, Y. Honda, O. Kitao, H. Nakai, 
 T. Vreven, K. Throssell, J. A. Montgomery, Jr., J. E. Peralta, 
 F. Ogliaro, M. J. Bearpark, J. J. Heyd, E. N. Brothers, K. N. Kudin, 
 V. N. Staroverov, T. A. Keith, R. Kobayashi, J. Normand, 
 K. Raghavachari, A. P. Rendell, J. C. Burant, S. S. Iyengar, 
 J. Tomasi, M. Cossi, J. M. Millam, M. Klene, C. Adamo, R. Cammi, 
 J. W. Ochterski, R. L. Martin, K. Morokuma, O. Farkas, 
 J. B. Foresman, and D. J. Fox, Gaussian, Inc., Wallingford CT, 2019.
 
 ******************************************
 Gaussian 16:  ES64L-G16RevC.01  3-Jul-2019
                23-May-2025 
 ******************************************
 %mem=28GB
 %nprocshared=8
 Will use up to    8 processors via shared memory.
 ----------------------------------------------------------------------
 #P wb97xd/6-311++G(d,p) Symm(None) scf(xqc) pop(None) opt(NoFreeze,TS,
 CalcAll,NoEigentest,MaxCycle=999)
 ----------------------------------------------------------------------
 1/5=1,6=999,10=4,11=1,18=20,26=3,29=2000,38=1/1,3;
 2/9=110,12=2,15=3,17=6,18=5,40=1/2;
 3/5=4,6=6,7=1111,11=2,25=1,30=1,71=2,74=-58,140=1/1,2,3;
 4//1;
 5/5=2,8=3,13=1,38=5/2,8;
 8/6=4,10=90,11=11/1;
 11/6=1,8=1,9=11,15=111,16=1,31=1/1,2,10;
 10/6=1,31=1/2;
 7/10=1,25=1,30=1/1,2,3,16;
 1/5=1,6=999,10=4,11=1,18=20,26=3/3(3);
 2/9=110,15=3/2;
 7/8=1,9=1,25=1,30=1,44=-1/16;
 99//99;
 2/9=110,15=3/2;
 3/5=4,6=6,7=1111,11=2,25=1,30=1,71=2,74=-58,140=1/1,2,3;
 4/5=5,16=3,69=1/1;
 5/5=2,8=3,13=1,38=5/2,8;
 8/6=4,10=90,11=11/1;
 11/6=1,8=1,9=11,15=111,16=1,31=1/1,2,10;
 10/6=1,31=1/2;
 7/10=1,25=1,30=1/1,2,3,16;
 1/5=1,6=999,10=4,11=1,18=20,26=3/3(-8);
 2/9=110,15=3/2;
 7/8=1,9=1,25=1,30=1,44=-1/16;
 99//99;
 Leave Link    1 at Fri May 23 07:32:02 2025, MaxMem=  3758096384 cpu:               0.0 elap:               0.0
 (Enter /apps/easybuild-2022/easybuild/software/Compiler/NVHPC/22.11-CUDA-11.7.0/Gaussian/g16c01-CUDA-11.7.0/g16/l101.exe)
 ------------------------------
 Gaussian input prepared by ASE
 ------------------------------
 Symbolic Z-matrix:
 Charge =  0 Multiplicity = 1
 C                    -0.60464  -1.38262  -0.32654 
 C                     0.        0.        0. 
 F                    -0.49225   0.93347  -0.79697 
 F                    -0.26766   0.31493   1.28182 
 S                     1.92774   0.        0. 
 O                     1.40634   0.93855   2.45388 
 O                     2.38808  -0.49523  -1.286 
 O                     2.06309   1.60791   0. 
 F                    -0.4652   -1.64587  -1.61519 
 F                     0.02894  -2.31425   0.38528 
 F                    -1.89581  -1.40826  -0.01539 
 H                     2.01249   1.85289   0.95036 
 
 Add virtual bond connecting atoms H12        and O6         Dist= 3.52D+00.
 ITRead=  0  0  0  0  0  0  0  0  0  0  0  0
 MicOpt= -1 -1 -1 -1 -1 -1 -1 -1 -1 -1 -1 -1
 NAtoms=     12 NQM=       12 NQMF=       0 NMMI=      0 NMMIF=      0
                NMic=       0 NMicF=      0.
                    Isotopes and Nuclear Properties:
 (Nuclear quadrupole moments (NQMom) in fm**2, nuclear magnetic moments (NMagM)
  in nuclear magnetons)

  Atom         1           2           3           4           5           6           7           8           9          10
 IAtWgt=          12          12          19          19          32          16          16          16          19          19
 AtmWgt=  12.0000000  12.0000000  18.9984032  18.9984032  31.9720718  15.9949146  15.9949146  15.9949146  18.9984032  18.9984032
 NucSpn=           0           0           1           1           0           0           0           0           1           1
 AtZEff=  -0.0000000  -0.0000000  -0.0000000  -0.0000000  -0.0000000  -0.0000000  -0.0000000  -0.0000000  -0.0000000  -0.0000000
 NQMom=    0.0000000   0.0000000   0.0000000   0.0000000   0.0000000   0.0000000   0.0000000   0.0000000   0.0000000   0.0000000
 NMagM=    0.0000000   0.0000000   2.6288670   2.6288670   0.0000000   0.0000000   0.0000000   0.0000000   2.6288670   2.6288670
 AtZNuc=   6.0000000   6.0000000   9.0000000   9.0000000  16.0000000   8.0000000   8.0000000   8.0000000   9.0000000   9.0000000

  Atom        11          12
 IAtWgt=          19           1
 AtmWgt=  18.9984032   1.0078250
 NucSpn=           1           1
 AtZEff=  -0.0000000  -0.0000000
 NQMom=    0.0000000   0.0000000
 NMagM=    2.6288670   2.7928460
 AtZNuc=   9.0000000   1.0000000
 Leave Link  101 at Fri May 23 07:32:03 2025, MaxMem=  3758096384 cpu:               0.2 elap:               0.2
 (Enter /apps/easybuild-2022/easybuild/software/Compiler/NVHPC/22.11-CUDA-11.7.0/Gaussian/g16c01-CUDA-11.7.0/g16/l103.exe)

 GradGradGradGradGradGradGradGradGradGradGradGradGradGradGradGradGradGrad
 Berny optimization.
 Initialization pass.
                           ----------------------------
                           !    Initial Parameters    !
                           ! (Angstroms and Degrees)  !
 --------------------------                            --------------------------
 ! Name  Definition              Value          Derivative Info.                !
 --------------------------------------------------------------------------------
 ! R1    R(1,2)                  1.544          calculate D2E/DX2 analytically  !
 ! R2    R(1,9)                  1.3226         calculate D2E/DX2 analytically  !
 ! R3    R(1,10)                 1.3327         calculate D2E/DX2 analytically  !
 ! R4    R(1,11)                 1.3284         calculate D2E/DX2 analytically  !
 ! R5    R(2,3)                  1.3224         calculate D2E/DX2 analytically  !
 ! R6    R(2,4)                  1.3468         calculate D2E/DX2 analytically  !
 ! R7    R(2,5)                  1.9277         calculate D2E/DX2 analytically  !
 ! R8    R(5,7)                  1.4529         calculate D2E/DX2 analytically  !
 ! R9    R(5,8)                  1.6136         calculate D2E/DX2 analytically  !
 ! R10   R(6,12)                 1.8612         calculate D2E/DX2 analytically  !
 ! R11   R(8,12)                 0.9827         calculate D2E/DX2 analytically  !
 ! A1    A(2,1,9)              110.0602         calculate D2E/DX2 analytically  !
 ! A2    A(2,1,10)             109.0791         calculate D2E/DX2 analytically  !
 ! A3    A(2,1,11)             110.3891         calculate D2E/DX2 analytically  !
 ! A4    A(9,1,10)             109.338          calculate D2E/DX2 analytically  !
 ! A5    A(9,1,11)             109.0769         calculate D2E/DX2 analytically  !
 ! A6    A(10,1,11)            108.8744         calculate D2E/DX2 analytically  !
 ! A7    A(1,2,3)              111.0314         calculate D2E/DX2 analytically  !
 ! A8    A(1,2,4)              109.4422         calculate D2E/DX2 analytically  !
 ! A9    A(1,2,5)              113.0548         calculate D2E/DX2 analytically  !
 ! A10   A(3,2,4)              109.5447         calculate D2E/DX2 analytically  !
 ! A11   A(3,2,5)              111.8532         calculate D2E/DX2 analytically  !
 ! A12   A(4,2,5)              101.4631         calculate D2E/DX2 analytically  !
 ! A13   A(2,5,7)              108.4717         calculate D2E/DX2 analytically  !
 ! A14   A(2,5,8)               94.8117         calculate D2E/DX2 analytically  !
 ! A15   A(7,5,8)              108.2448         calculate D2E/DX2 analytically  !
 ! A16   A(5,8,12)             104.1282         calculate D2E/DX2 analytically  !
 ! A17   A(6,12,8)             132.4946         calculate D2E/DX2 analytically  !
 ! D1    D(9,1,2,3)             52.7636         calculate D2E/DX2 analytically  !
 ! D2    D(9,1,2,4)            173.8154         calculate D2E/DX2 analytically  !
 ! D3    D(9,1,2,5)            -73.8956         calculate D2E/DX2 analytically  !
 ! D4    D(10,1,2,3)           172.7184         calculate D2E/DX2 analytically  !
 ! D5    D(10,1,2,4)           -66.2299         calculate D2E/DX2 analytically  !
 ! D6    D(10,1,2,5)            46.0592         calculate D2E/DX2 analytically  !
 ! D7    D(11,1,2,3)           -67.6956         calculate D2E/DX2 analytically  !
 ! D8    D(11,1,2,4)            53.3561         calculate D2E/DX2 analytically  !
 ! D9    D(11,1,2,5)           165.6452         calculate D2E/DX2 analytically  !
 ! D10   D(1,2,5,7)             55.6503         calculate D2E/DX2 analytically  !
 ! D11   D(1,2,5,8)            166.7118         calculate D2E/DX2 analytically  !
 ! D12   D(3,2,5,7)            -70.5718         calculate D2E/DX2 analytically  !
 ! D13   D(3,2,5,8)             40.4897         calculate D2E/DX2 analytically  !
 ! D14   D(4,2,5,7)            172.7419         calculate D2E/DX2 analytically  !
 ! D15   D(4,2,5,8)            -76.1966         calculate D2E/DX2 analytically  !
 ! D16   D(2,5,8,12)            85.7287         calculate D2E/DX2 analytically  !
 ! D17   D(7,5,8,12)          -163.0153         calculate D2E/DX2 analytically  !
 ! D18   D(5,8,12,6)           -17.5525         calculate D2E/DX2 analytically  !
 --------------------------------------------------------------------------------
 Trust Radius=3.00D-01 FncErr=1.00D-07 GrdErr=1.00D-06 EigMax=2.50D+02 EigMin=1.00D-04
 Number of steps in this run=    100 maximum allowed number of steps=    100.
 Search for a saddle point of order  1.
 GradGradGradGradGradGradGradGradGradGradGradGradGradGradGradGradGradGrad

 Leave Link  103 at Fri May 23 07:32:03 2025, MaxMem=  3758096384 cpu:               0.1 elap:               0.0
 (Enter /apps/easybuild-2022/easybuild/software/Compiler/NVHPC/22.11-CUDA-11.7.0/Gaussian/g16c01-CUDA-11.7.0/g16/l202.exe)
                          Input orientation:                          
 ---------------------------------------------------------------------
 Center     Atomic      Atomic             Coordinates (Angstroms)
 Number     Number       Type             X           Y           Z
 ---------------------------------------------------------------------
      1          6           0       -0.604635   -1.382618   -0.326537
      2          6           0        0.000000    0.000000    0.000000
      3          9           0       -0.492252    0.933471   -0.796970
      4          9           0       -0.267659    0.314925    1.281816
      5         16           0        1.927744    0.000000    0.000000
      6          8           0        1.406342    0.938547    2.453881
      7          8           0        2.388081   -0.495235   -1.286004
      8          8           0        2.063095    1.607906    0.000000
      9          9           0       -0.465196   -1.645870   -1.615195
     10          9           0        0.028937   -2.314250    0.385277
     11          9           0       -1.895815   -1.408264   -0.015393
     12          1           0        2.012487    1.852892    0.950363
 ---------------------------------------------------------------------
                    Distance matrix (angstroms):
                    1          2          3          4          5
     1  C    0.000000
     2  C    1.543970   0.000000
     3  F    2.366053   1.322437   0.000000
     4  F    2.362627   1.346800   2.180457   0.000000
     5  S    2.903654   1.927744   2.713468   2.561645   0.000000
     6  O    4.142772   2.979966   3.764667   2.136567   2.678481
     7  O    3.265636   2.757172   3.252180   3.781933   1.452919
     8  O    4.020776   2.615668   2.760402   2.957577   1.613593
     9  F    1.322643   2.352477   2.706145   3.503771   3.323237
    10  F    1.332678   2.346280   3.495288   2.793621   3.018222
    11  F    1.328387   2.361686   2.839820   2.702411   4.074684
    12  H    4.352967   2.895946   3.189392   2.770247   2.084125
                    6          7          8          9         10
     6  O    0.000000
     7  O    4.123867   0.000000
     8  O    2.626956   2.486488   0.000000
     9  F    5.171000   3.094110   4.425852   0.000000
    10  F    4.093538   3.415781   4.435036   2.166284   0.000000
    11  F    4.744373   4.560684   4.976996   2.159280   2.164721
    12  H    1.861184   3.264369   0.982735   4.996231   4.649609
                   11         12
    11  F    0.000000
    12  H    5.180989   0.000000
 Symmetry turned off by external request.
 Stoichiometry    C2HF5O3S
 Rotational constants (GHZ):           1.3947898           0.8159545           0.6988105
 Leave Link  202 at Fri May 23 07:32:03 2025, MaxMem=  3758096384 cpu:               0.1 elap:               0.0
 (Enter /apps/easybuild-2022/easybuild/software/Compiler/NVHPC/22.11-CUDA-11.7.0/Gaussian/g16c01-CUDA-11.7.0/g16/l301.exe)
 Standard basis: 6-311++G(d,p) (5D, 7F)
 Ernie: Thresh=  0.10000D-02 Tol=  0.10000D-05 Strict=F.
   257 basis functions,   419 primitive gaussians,   268 cartesian basis functions
    49 alpha electrons       49 beta electrons
       nuclear repulsion energy       888.5809263357 Hartrees.
 IExCor= 4639 DFT=T Ex+Corr=wB97XD ExCW=0 ScaHFX=  1.000000
 ScaDFX=  1.000000  1.000000  1.000000  1.000000 ScalE2=  1.000000  1.000000
 IRadAn=      5 IRanWt=     -1 IRanGd=            0 ICorTp=0 IEmpDi=121
 HFx  wShort=  0.000000 wLong=  0.200000 cFull=  0.222036 cShort=  0.000000 cLong=  0.777964
 DFx  wShort=  0.000000 wLong=  0.200000 cFull=  0.000000 cShort=  0.000000 cLong=  1.000000
 NAtoms=   12 NActive=   12 NUniq=   12 SFac= 1.00D+00 NAtFMM=   60 NAOKFM=F Big=F
 Integral buffers will be    131072 words long.
 Raffenetti 2 integral format.
 Two-electron integral symmetry is turned off.
 R6Disp:  Grimme-D2 Dispersion energy=       -0.0053240952 Hartrees.
 Nuclear repulsion after empirical dispersion term =      888.5756022405 Hartrees.
 Leave Link  301 at Fri May 23 07:32:03 2025, MaxMem=  3758096384 cpu:               0.1 elap:               0.0
 (Enter /apps/easybuild-2022/easybuild/software/Compiler/NVHPC/22.11-CUDA-11.7.0/Gaussian/g16c01-CUDA-11.7.0/g16/l302.exe)
 NPDir=0 NMtPBC=     1 NCelOv=     1 NCel=       1 NClECP=     1 NCelD=      1
         NCelK=      1 NCelE2=     1 NClLst=     1 CellRange=     0.0.
 One-electron integrals computed using PRISM.
 NBasis=   257 RedAO= T EigKep=  5.94D-05  NBF=   257
 NBsUse=   257 1.00D-06 EigRej= -1.00D+00 NBFU=   257
 Precomputing XC quadrature grid using
 IXCGrd= 4 IRadAn=           5 IRanWt=          -1 IRanGd=           0 AccXCQ= 0.00D+00.
 Generated NRdTot=       0 NPtTot=           0 NUsed=           0 NTot=          32
 NSgBfM=   268   268   268   268   268 MxSgAt=    12 MxSgA2=    12.
 Leave Link  302 at Fri May 23 07:32:03 2025, MaxMem=  3758096384 cpu:               0.6 elap:               0.1
 (Enter /apps/easybuild-2022/easybuild/software/Compiler/NVHPC/22.11-CUDA-11.7.0/Gaussian/g16c01-CUDA-11.7.0/g16/l303.exe)
 DipDrv:  MaxL=1.
 Leave Link  303 at Fri May 23 07:32:03 2025, MaxMem=  3758096384 cpu:               0.1 elap:               0.0
 (Enter /apps/easybuild-2022/easybuild/software/Compiler/NVHPC/22.11-CUDA-11.7.0/Gaussian/g16c01-CUDA-11.7.0/g16/l401.exe)
 ExpMin= 3.60D-02 ExpMax= 9.34D+04 ExpMxC= 3.17D+03 IAcc=3 IRadAn=         5 AccDes= 0.00D+00
 Harris functional with IExCor= 4639 and IRadAn=       5 diagonalized for initial guess.
 HarFok:  IExCor= 4639 AccDes= 0.00D+00 IRadAn=         5 IDoV= 1 UseB2=F ITyADJ=14
 ICtDFT=  3500011 ScaDFX=  1.000000  1.000000  1.000000  1.000000
 FoFCou: FMM=F IPFlag=           0 FMFlag=      100000 FMFlg1=           0
         NFxFlg=           0 DoJE=T BraDBF=F KetDBF=T FulRan=T
         wScrn=  0.000000 ICntrl=       500 IOpCl=  0 I1Cent=   200000004 NGrid=           0
         NMat0=    1 NMatS0=      1 NMatT0=    0 NMatD0=    1 NMtDS0=    0 NMtDT0=    0
 Symmetry not used in FoFCou.
 Harris En= -1167.01989983225    
 JPrj=0 DoOrth=F DoCkMO=F.
 Leave Link  401 at Fri May 23 07:32:03 2025, MaxMem=  3758096384 cpu:               2.4 elap:               0.4
 (Enter /apps/easybuild-2022/easybuild/software/Compiler/NVHPC/22.11-CUDA-11.7.0/Gaussian/g16c01-CUDA-11.7.0/g16/l502.exe)
 Keep R1 ints in memory in canonical form, NReq=1117474609.
 FoFCou: FMM=F IPFlag=           0 FMFlag=           0 FMFlg1=           0
         NFxFlg=           0 DoJE=F BraDBF=F KetDBF=F FulRan=T
         wScrn=  0.000000 ICntrl=       600 IOpCl=  0 I1Cent=           0 NGrid=           0
         NMat0=    1 NMatS0=  33153 NMatT0=    0 NMatD0=    1 NMtDS0=    0 NMtDT0=    0
 Symmetry not used in FoFCou.
 Two-electron integral symmetry not used.
 Closed shell SCF:
 Using DIIS extrapolation, IDIIS=  1040.
 NGot=  3758096384 LenX=  2658793876 LenY=  2658721611
 Requested convergence on RMS density matrix=1.00D-08 within  32 cycles.
 Requested convergence on MAX density matrix=1.00D-06.
 Requested convergence on             energy=1.00D-06.
 No special actions if energy rises.

 Cycle   1  Pass 1  IDiag  1:
 E= -1198.46257134232    
 DIIS: error= 1.07D-01 at cycle   1 NSaved=   1.
 NSaved= 1 IEnMin= 1 EnMin= -1198.46257134232     IErMin= 1 ErrMin= 1.07D-01
 ErrMax= 1.07D-01  0.00D+00 EMaxC= 1.00D-01 BMatC= 3.60D+00 BMatP= 3.60D+00
 IDIUse=3 WtCom= 0.00D+00 WtEn= 1.00D+00
 Coeff-Com:  0.100D+01
 Coeff-En:   0.100D+01
 Coeff:      0.100D+01
 Gap=    -0.181 Goal=   None    Shift=    0.000
 GapD=   -0.181 DampG=0.250 DampE=0.250 DampFc=0.2500 IDamp=-1.
 Damping current iteration by 2.50D-01
 RMSDP=1.57D-02 MaxDP=4.81D-01              OVMax= 9.86D-01

 Cycle   2  Pass 1  IDiag  1:
 E= -1198.59397133061     Delta-E=       -0.131399988291 Rises=F Damp=T
 DIIS: error= 7.65D-02 at cycle   2 NSaved=   2.
 NSaved= 2 IEnMin= 2 EnMin= -1198.59397133061     IErMin= 2 ErrMin= 7.65D-02
 ErrMax= 7.65D-02  0.00D+00 EMaxC= 1.00D-01 BMatC= 1.51D+00 BMatP= 3.60D+00
 IDIUse=3 WtCom= 2.35D-01 WtEn= 7.65D-01
 Coeff-Com: -0.675D+00 0.168D+01
 Coeff-En:   0.399D+00 0.601D+00
 Coeff:      0.146D+00 0.854D+00
 Gap=     0.074 Goal=   None    Shift=    0.000
 RMSDP=5.90D-03 MaxDP=3.57D-01 DE=-1.31D-01 OVMax= 9.21D-01

 Cycle   3  Pass 1  IDiag  1:
 E= -1198.68524439637     Delta-E=       -0.091273065756 Rises=F Damp=F
 DIIS: error= 5.97D-02 at cycle   3 NSaved=   3.
 NSaved= 3 IEnMin= 3 EnMin= -1198.68524439637     IErMin= 3 ErrMin= 5.97D-02
 ErrMax= 5.97D-02  0.00D+00 EMaxC= 1.00D-01 BMatC= 1.01D+00 BMatP= 1.51D+00
 IDIUse=3 WtCom= 4.03D-01 WtEn= 5.97D-01
 Coeff-Com: -0.450D+00 0.928D+00 0.522D+00
 Coeff-En:   0.000D+00 0.464D+00 0.536D+00
 Coeff:     -0.181D+00 0.651D+00 0.530D+00
 Gap=     0.231 Goal=   None    Shift=    0.000
 RMSDP=5.20D-03 MaxDP=1.42D-01 DE=-9.13D-02 OVMax= 7.21D-01

 Cycle   4  Pass 1  IDiag  1:
 E= -1199.36582367747     Delta-E=       -0.680579281102 Rises=F Damp=F
 DIIS: error= 2.22D-02 at cycle   4 NSaved=   4.
 NSaved= 4 IEnMin= 4 EnMin= -1199.36582367747     IErMin= 4 ErrMin= 2.22D-02
 ErrMax= 2.22D-02  0.00D+00 EMaxC= 1.00D-01 BMatC= 2.81D-01 BMatP= 1.01D+00
 IDIUse=3 WtCom= 7.78D-01 WtEn= 2.22D-01
 Coeff-Com: -0.343D-01 0.147D+00 0.335D+00 0.552D+00
 Coeff-En:   0.000D+00 0.000D+00 0.252D+00 0.748D+00
 Coeff:     -0.267D-01 0.115D+00 0.317D+00 0.595D+00
 Gap=     0.180 Goal=   None    Shift=    0.000
 RMSDP=2.95D-03 MaxDP=7.36D-02 DE=-6.81D-01 OVMax= 1.83D-01

 Cycle   5  Pass 1  IDiag  1:
 E= -1199.57572086181     Delta-E=       -0.209897184341 Rises=F Damp=F
 DIIS: error= 5.60D-03 at cycle   5 NSaved=   5.
 NSaved= 5 IEnMin= 5 EnMin= -1199.57572086181     IErMin= 5 ErrMin= 5.60D-03
 ErrMax= 5.60D-03  0.00D+00 EMaxC= 1.00D-01 BMatC= 2.04D-02 BMatP= 2.81D-01
 IDIUse=3 WtCom= 9.44D-01 WtEn= 5.60D-02
 Coeff-Com:  0.355D-01-0.364D-01 0.107D+00 0.259D+00 0.635D+00
 Coeff-En:   0.000D+00 0.000D+00 0.000D+00 0.000D+00 0.100D+01
 Coeff:      0.335D-01-0.344D-01 0.101D+00 0.244D+00 0.655D+00
 Gap=     0.208 Goal=   None    Shift=    0.000
 RMSDP=1.34D-03 MaxDP=8.69D-02 DE=-2.10D-01 OVMax= 7.34D-02

 Cycle   6  Pass 1  IDiag  1:
 E= -1199.58234045301     Delta-E=       -0.006619591202 Rises=F Damp=F
 DIIS: error= 5.03D-03 at cycle   6 NSaved=   6.
 NSaved= 6 IEnMin= 6 EnMin= -1199.58234045301     IErMin= 6 ErrMin= 5.03D-03
 ErrMax= 5.03D-03  0.00D+00 EMaxC= 1.00D-01 BMatC= 1.39D-02 BMatP= 2.04D-02
 IDIUse=3 WtCom= 9.50D-01 WtEn= 5.03D-02
 Coeff-Com:  0.405D-01-0.602D-01-0.437D-02-0.690D-01 0.365D+00 0.728D+00
 Coeff-En:   0.000D+00 0.000D+00 0.000D+00 0.000D+00 0.365D+00 0.635D+00
 Coeff:      0.385D-01-0.571D-01-0.415D-02-0.655D-01 0.365D+00 0.724D+00
 Gap=     0.224 Goal=   None    Shift=    0.000
 RMSDP=7.83D-04 MaxDP=2.12D-02 DE=-6.62D-03 OVMax= 2.43D-02

 Cycle   7  Pass 1  IDiag  1:
 E= -1199.59393431880     Delta-E=       -0.011593865788 Rises=F Damp=F
 DIIS: error= 2.28D-03 at cycle   7 NSaved=   7.
 NSaved= 7 IEnMin= 7 EnMin= -1199.59393431880     IErMin= 7 ErrMin= 2.28D-03
 ErrMax= 2.28D-03  0.00D+00 EMaxC= 1.00D-01 BMatC= 1.26D-03 BMatP= 1.39D-02
 IDIUse=3 WtCom= 9.77D-01 WtEn= 2.28D-02
 Coeff-Com:  0.194D-01-0.267D-01-0.606D-02-0.762D-01 0.332D-01 0.257D+00
 Coeff-Com:  0.800D+00
 Coeff-En:   0.000D+00 0.000D+00 0.000D+00 0.000D+00 0.000D+00 0.000D+00
 Coeff-En:   0.100D+01
 Coeff:      0.190D-01-0.261D-01-0.593D-02-0.744D-01 0.324D-01 0.251D+00
 Coeff:      0.804D+00
 Gap=     0.213 Goal=   None    Shift=    0.000
 RMSDP=2.99D-04 MaxDP=9.08D-03 DE=-1.16D-02 OVMax= 1.27D-02

 Cycle   8  Pass 1  IDiag  1:
 E= -1199.59524141485     Delta-E=       -0.001307096055 Rises=F Damp=F
 DIIS: error= 7.08D-04 at cycle   8 NSaved=   8.
 NSaved= 8 IEnMin= 8 EnMin= -1199.59524141485     IErMin= 8 ErrMin= 7.08D-04
 ErrMax= 7.08D-04  0.00D+00 EMaxC= 1.00D-01 BMatC= 2.20D-04 BMatP= 1.26D-03
 IDIUse=3 WtCom= 9.93D-01 WtEn= 7.08D-03
 Coeff-Com:  0.752D-02-0.945D-02-0.717D-04-0.240D-01-0.596D-01-0.232D-01
 Coeff-Com:  0.320D+00 0.789D+00
 Coeff-En:   0.000D+00 0.000D+00 0.000D+00 0.000D+00 0.000D+00 0.000D+00
 Coeff-En:   0.000D+00 0.100D+01
 Coeff:      0.747D-02-0.938D-02-0.712D-04-0.239D-01-0.592D-01-0.230D-01
 Coeff:      0.318D+00 0.790D+00
 Gap=     0.209 Goal=   None    Shift=    0.000
 RMSDP=1.53D-04 MaxDP=8.94D-03 DE=-1.31D-03 OVMax= 8.83D-03

 Cycle   9  Pass 1  IDiag  1:
 E= -1199.59556607712     Delta-E=       -0.000324662265 Rises=F Damp=F
 DIIS: error= 4.28D-04 at cycle   9 NSaved=   9.
 NSaved= 9 IEnMin= 9 EnMin= -1199.59556607712     IErMin= 9 ErrMin= 4.28D-04
 ErrMax= 4.28D-04  0.00D+00 EMaxC= 1.00D-01 BMatC= 3.88D-05 BMatP= 2.20D-04
 IDIUse=3 WtCom= 9.96D-01 WtEn= 4.28D-03
 Coeff-Com:  0.236D-02-0.301D-02 0.138D-02 0.233D-03-0.272D-01-0.440D-01
 Coeff-Com: -0.160D-01 0.280D+00 0.806D+00
 Coeff-En:   0.000D+00 0.000D+00 0.000D+00 0.000D+00 0.000D+00 0.000D+00
 Coeff-En:   0.000D+00 0.000D+00 0.100D+01
 Coeff:      0.235D-02-0.299D-02 0.138D-02 0.232D-03-0.271D-01-0.438D-01
 Coeff:     -0.160D-01 0.279D+00 0.807D+00
 Gap=     0.208 Goal=   None    Shift=    0.000
 RMSDP=6.70D-05 MaxDP=2.34D-03 DE=-3.25D-04 OVMax= 7.80D-03

 Cycle  10  Pass 1  IDiag  1:
 E= -1199.59568296961     Delta-E=       -0.000116892487 Rises=F Damp=F
 DIIS: error= 1.87D-04 at cycle  10 NSaved=  10.
 NSaved=10 IEnMin=10 EnMin= -1199.59568296961     IErMin=10 ErrMin= 1.87D-04
 ErrMax= 1.87D-04  0.00D+00 EMaxC= 1.00D-01 BMatC= 1.19D-05 BMatP= 3.88D-05
 IDIUse=3 WtCom= 9.98D-01 WtEn= 1.87D-03
 Coeff-Com: -0.174D-04 0.585D-04 0.122D-02 0.325D-02 0.362D-02-0.834D-02
 Coeff-Com: -0.706D-01-0.614D-01 0.341D+00 0.792D+00
 Coeff-En:   0.000D+00 0.000D+00 0.000D+00 0.000D+00 0.000D+00 0.000D+00
 Coeff-En:   0.000D+00 0.000D+00 0.000D+00 0.100D+01
 Coeff:     -0.173D-04 0.584D-04 0.122D-02 0.324D-02 0.361D-02-0.832D-02
 Coeff:     -0.704D-01-0.613D-01 0.340D+00 0.792D+00
 Gap=     0.207 Goal=   None    Shift=    0.000
 RMSDP=4.34D-05 MaxDP=1.28D-03 DE=-1.17D-04 OVMax= 8.04D-03

 Cycle  11  Pass 1  IDiag  1:
 E= -1199.59576837833     Delta-E=       -0.000085408726 Rises=F Damp=F
 DIIS: error= 1.44D-04 at cycle  11 NSaved=  11.
 NSaved=11 IEnMin=11 EnMin= -1199.59576837833     IErMin=11 ErrMin= 1.44D-04
 ErrMax= 1.44D-04  0.00D+00 EMaxC= 1.00D-01 BMatC= 5.66D-06 BMatP= 1.19D-05
 IDIUse=3 WtCom= 9.99D-01 WtEn= 1.44D-03
 Coeff-Com:  0.154D-03-0.195D-03 0.233D-03-0.570D-04 0.581D-02 0.674D-02
 Coeff-Com:  0.773D-02-0.295D-01-0.156D+00-0.901D-01 0.126D+01
 Coeff-En:   0.000D+00 0.000D+00 0.000D+00 0.000D+00 0.000D+00 0.000D+00
 Coeff-En:   0.000D+00 0.000D+00 0.000D+00 0.000D+00 0.100D+01
 Coeff:      0.153D-03-0.195D-03 0.233D-03-0.569D-04 0.580D-02 0.673D-02
 Coeff:      0.772D-02-0.295D-01-0.156D+00-0.900D-01 0.125D+01
 Gap=     0.207 Goal=   None    Shift=    0.000
 RMSDP=5.26D-05 MaxDP=1.72D-03 DE=-8.54D-05 OVMax= 1.07D-02

 Cycle  12  Pass 1  IDiag  1:
 E= -1199.59586871113     Delta-E=       -0.000100332800 Rises=F Damp=F
 DIIS: error= 1.30D-04 at cycle  12 NSaved=  12.
 NSaved=12 IEnMin=12 EnMin= -1199.59586871113     IErMin=12 ErrMin= 1.30D-04
 ErrMax= 1.30D-04  0.00D+00 EMaxC= 1.00D-01 BMatC= 5.19D-06 BMatP= 5.66D-06
 IDIUse=3 WtCom= 9.99D-01 WtEn= 1.30D-03
 Coeff-Com:  0.732D-03-0.939D-03-0.484D-03-0.293D-02-0.447D-02 0.462D-02
 Coeff-Com:  0.669D-01 0.544D-01-0.358D+00-0.924D+00-0.246D+00 0.241D+01
 Coeff-En:   0.000D+00 0.000D+00 0.000D+00 0.000D+00 0.000D+00 0.000D+00
 Coeff-En:   0.000D+00 0.000D+00 0.000D+00 0.000D+00 0.000D+00 0.100D+01
 Coeff:      0.731D-03-0.937D-03-0.484D-03-0.292D-02-0.446D-02 0.461D-02
 Coeff:      0.669D-01 0.544D-01-0.358D+00-0.923D+00-0.246D+00 0.241D+01
 Gap=     0.207 Goal=   None    Shift=    0.000
 RMSDP=1.43D-04 MaxDP=5.13D-03 DE=-1.00D-04 OVMax= 2.98D-02

 Cycle  13  Pass 1  IDiag  1:
 E= -1199.59611549970     Delta-E=       -0.000246788571 Rises=F Damp=F
 DIIS: error= 1.32D-04 at cycle  13 NSaved=  13.
 NSaved=13 IEnMin=13 EnMin= -1199.59611549970     IErMin=12 ErrMin= 1.30D-04
 ErrMax= 1.32D-04  0.00D+00 EMaxC= 1.00D-01 BMatC= 5.36D-06 BMatP= 5.19D-06
 IDIUse=3 WtCom= 9.99D-01 WtEn= 1.30D-03
 Coeff-Com:  0.126D-02-0.169D-02-0.252D-03-0.209D-02-0.110D-01-0.781D-02
 Coeff-Com:  0.321D-01 0.275D-01-0.132D+00-0.614D+00-0.163D+01 0.179D+01
 Coeff-Com:  0.155D+01
 Coeff-En:   0.000D+00 0.000D+00 0.000D+00 0.000D+00 0.000D+00 0.000D+00
 Coeff-En:   0.000D+00 0.000D+00 0.000D+00 0.000D+00 0.000D+00 0.000D+00
 Coeff-En:   0.100D+01
 Coeff:      0.126D-02-0.169D-02-0.251D-03-0.209D-02-0.110D-01-0.780D-02
 Coeff:      0.321D-01 0.275D-01-0.132D+00-0.613D+00-0.163D+01 0.179D+01
 Coeff:      0.154D+01
 Gap=     0.205 Goal=   None    Shift=    0.000
 RMSDP=2.33D-04 MaxDP=8.87D-03 DE=-2.47D-04 OVMax= 4.36D-02

 Cycle  14  Pass 1  IDiag  1:
 E= -1199.59638601849     Delta-E=       -0.000270518788 Rises=F Damp=F
 DIIS: error= 1.58D-04 at cycle  14 NSaved=  14.
 NSaved=14 IEnMin=14 EnMin= -1199.59638601849     IErMin=12 ErrMin= 1.30D-04
 ErrMax= 1.58D-04  0.00D+00 EMaxC= 1.00D-01 BMatC= 6.12D-06 BMatP= 5.19D-06
 IDIUse=3 WtCom= 9.99D-01 WtEn= 1.30D-03
 Coeff-Com:  0.129D-02-0.180D-02 0.997D-04-0.383D-03 0.593D-03-0.779D-04
 Coeff-Com:  0.204D-03-0.534D-01-0.115D+00-0.179D+00-0.315D+00 0.331D+00
 Coeff-Com:  0.410D+00 0.921D+00
 Coeff-En:   0.000D+00 0.000D+00 0.000D+00 0.000D+00 0.000D+00 0.000D+00
 Coeff-En:   0.000D+00 0.000D+00 0.000D+00 0.000D+00 0.000D+00 0.000D+00
 Coeff-En:   0.000D+00 0.100D+01
 Coeff:      0.129D-02-0.180D-02 0.996D-04-0.382D-03 0.592D-03-0.778D-04
 Coeff:      0.204D-03-0.534D-01-0.115D+00-0.179D+00-0.314D+00 0.331D+00
 Coeff:      0.409D+00 0.922D+00
 Gap=     0.204 Goal=   None    Shift=    0.000
 RMSDP=9.06D-05 MaxDP=3.47D-03 DE=-2.71D-04 OVMax= 1.76D-02

 Cycle  15  Pass 1  IDiag  1:
 E= -1199.59644905283     Delta-E=       -0.000063034342 Rises=F Damp=F
 DIIS: error= 9.03D-05 at cycle  15 NSaved=  15.
 NSaved=15 IEnMin=15 EnMin= -1199.59644905283     IErMin=15 ErrMin= 9.03D-05
 ErrMax= 9.03D-05  0.00D+00 EMaxC= 1.00D-01 BMatC= 2.33D-06 BMatP= 5.19D-06
 IDIUse=1 WtCom= 1.00D+00 WtEn= 0.00D+00
 Coeff-Com:  0.766D-03-0.105D-02 0.397D-04-0.361D-03 0.550D-02 0.944D-02
 Coeff-Com:  0.168D-01-0.127D-01-0.156D+00-0.225D+00 0.578D+00 0.119D+00
 Coeff-Com: -0.584D+00-0.429D+00 0.168D+01
 Coeff:      0.766D-03-0.105D-02 0.397D-04-0.361D-03 0.550D-02 0.944D-02
 Coeff:      0.168D-01-0.127D-01-0.156D+00-0.225D+00 0.578D+00 0.119D+00
 Coeff:     -0.584D+00-0.429D+00 0.168D+01
 Gap=     0.202 Goal=   None    Shift=    0.000
 RMSDP=8.17D-05 MaxDP=3.22D-03 DE=-6.30D-05 OVMax= 1.76D-02

 Cycle  16  Pass 1  IDiag  1:
 E= -1199.59648522543     Delta-E=       -0.000036172597 Rises=F Damp=F
 DIIS: error= 3.48D-05 at cycle  16 NSaved=  16.
 NSaved=16 IEnMin=16 EnMin= -1199.59648522543     IErMin=16 ErrMin= 3.48D-05
 ErrMax= 3.48D-05  0.00D+00 EMaxC= 1.00D-01 BMatC= 2.94D-07 BMatP= 2.33D-06
 IDIUse=1 WtCom= 1.00D+00 WtEn= 0.00D+00
 Coeff-Com:  0.278D-03-0.372D-03-0.325D-04-0.508D-04 0.749D-04 0.294D-02
 Coeff-Com:  0.970D-02 0.255D-01-0.835D-03-0.119D+00-0.493D-01 0.107D+00
 Coeff-Com:  0.209D-01-0.508D+00 0.492D+00 0.102D+01
 Coeff:      0.278D-03-0.372D-03-0.325D-04-0.508D-04 0.749D-04 0.294D-02
 Coeff:      0.970D-02 0.255D-01-0.835D-03-0.119D+00-0.493D-01 0.107D+00
 Coeff:      0.209D-01-0.508D+00 0.492D+00 0.102D+01
 Gap=     0.202 Goal=   None    Shift=    0.000
 RMSDP=5.71D-05 MaxDP=2.40D-03 DE=-3.62D-05 OVMax= 1.22D-02

 Cycle  17  Pass 1  IDiag  1:
 E= -1199.59649555973     Delta-E=       -0.000010334303 Rises=F Damp=F
 DIIS: error= 1.87D-05 at cycle  17 NSaved=  17.
 NSaved=17 IEnMin=17 EnMin= -1199.59649555973     IErMin=17 ErrMin= 1.87D-05
 ErrMax= 1.87D-05  0.00D+00 EMaxC= 1.00D-01 BMatC= 1.05D-07 BMatP= 2.94D-07
 IDIUse=1 WtCom= 1.00D+00 WtEn= 0.00D+00
 Coeff-Com:  0.346D-04-0.550D-04-0.489D-04 0.988D-04-0.767D-03-0.532D-03
 Coeff-Com:  0.250D-02 0.131D-01 0.181D-01-0.411D-01-0.115D+00 0.748D-01
 Coeff-Com:  0.151D+00-0.383D-01-0.356D+00 0.267D+00 0.103D+01
 Coeff:      0.346D-04-0.550D-04-0.489D-04 0.988D-04-0.767D-03-0.532D-03
 Coeff:      0.250D-02 0.131D-01 0.181D-01-0.411D-01-0.115D+00 0.748D-01
 Coeff:      0.151D+00-0.383D-01-0.356D+00 0.267D+00 0.103D+01
 Gap=     0.202 Goal=   None    Shift=    0.000
 RMSDP=1.03D-05 MaxDP=2.95D-04 DE=-1.03D-05 OVMax= 2.24D-03

 Cycle  18  Pass 1  IDiag  1:
 E= -1199.59649685878     Delta-E=       -0.000001299045 Rises=F Damp=F
 DIIS: error= 9.39D-06 at cycle  18 NSaved=  18.
 NSaved=18 IEnMin=18 EnMin= -1199.59649685878     IErMin=18 ErrMin= 9.39D-06
 ErrMax= 9.39D-06  0.00D+00 EMaxC= 1.00D-01 BMatC= 4.36D-08 BMatP= 1.05D-07
 IDIUse=1 WtCom= 1.00D+00 WtEn= 0.00D+00
 Coeff-Com: -0.475D-04 0.596D-04-0.165D-04 0.309D-04-0.342D-04-0.479D-03
 Coeff-Com: -0.140D-02-0.193D-02 0.751D-02 0.128D-01-0.348D-01-0.216D-01
 Coeff-Com:  0.714D-01 0.117D+00-0.247D+00-0.118D+00 0.381D+00 0.835D+00
 Coeff:     -0.475D-04 0.596D-04-0.165D-04 0.309D-04-0.342D-04-0.479D-03
 Coeff:     -0.140D-02-0.193D-02 0.751D-02 0.128D-01-0.348D-01-0.216D-01
 Coeff:      0.714D-01 0.117D+00-0.247D+00-0.118D+00 0.381D+00 0.835D+00
 Gap=     0.202 Goal=   None    Shift=    0.000
 RMSDP=5.21D-06 MaxDP=1.90D-04 DE=-1.30D-06 OVMax= 1.30D-03

 Cycle  19  Pass 1  IDiag  1:
 E= -1199.59649739025     Delta-E=       -0.000000531471 Rises=F Damp=F
 DIIS: error= 7.05D-06 at cycle  19 NSaved=  19.
 NSaved=19 IEnMin=19 EnMin= -1199.59649739025     IErMin=19 ErrMin= 7.05D-06
 ErrMax= 7.05D-06  0.00D+00 EMaxC= 1.00D-01 BMatC= 2.61D-08 BMatP= 4.36D-08
 IDIUse=1 WtCom= 1.00D+00 WtEn= 0.00D+00
 Coeff-Com: -0.604D-04 0.843D-04 0.127D-04-0.826D-05 0.524D-03 0.245D-03
 Coeff-Com: -0.138D-02-0.528D-02-0.573D-02 0.257D-01 0.866D-01-0.652D-01
 Coeff-Com: -0.856D-01 0.364D-01 0.106D+00-0.154D+00-0.247D+00 0.256D+00
 Coeff-Com:  0.105D+01
 Coeff:     -0.604D-04 0.843D-04 0.127D-04-0.826D-05 0.524D-03 0.245D-03
 Coeff:     -0.138D-02-0.528D-02-0.573D-02 0.257D-01 0.866D-01-0.652D-01
 Coeff:     -0.856D-01 0.364D-01 0.106D+00-0.154D+00-0.247D+00 0.256D+00
 Coeff:      0.105D+01
 Gap=     0.202 Goal=   None    Shift=    0.000
 RMSDP=3.34D-06 MaxDP=1.49D-04 DE=-5.31D-07 OVMax= 7.44D-04

 Cycle  20  Pass 1  IDiag  1:
 E= -1199.59649785650     Delta-E=       -0.000000466248 Rises=F Damp=F
 DIIS: error= 7.39D-06 at cycle  20 NSaved=  20.
 NSaved=20 IEnMin=20 EnMin= -1199.59649785650     IErMin=19 ErrMin= 7.05D-06
 ErrMax= 7.39D-06  0.00D+00 EMaxC= 1.00D-01 BMatC= 2.06D-08 BMatP= 2.61D-08
 IDIUse=1 WtCom= 1.00D+00 WtEn= 0.00D+00
 Coeff-Com:  0.271D-04-0.315D-04 0.216D-04-0.334D-04-0.279D-03 0.141D-03
 Coeff-Com:  0.116D-02 0.267D-02 0.152D-03-0.755D-02 0.708D-03 0.178D-01
 Coeff-Com: -0.531D-01-0.118D+00 0.279D+00 0.127D+00-0.371D+00-0.871D+00
 Coeff-Com:  0.315D-01 0.196D+01
 Coeff:      0.271D-04-0.315D-04 0.216D-04-0.334D-04-0.279D-03 0.141D-03
 Coeff:      0.116D-02 0.267D-02 0.152D-03-0.755D-02 0.708D-03 0.178D-01
 Coeff:     -0.531D-01-0.118D+00 0.279D+00 0.127D+00-0.371D+00-0.871D+00
 Coeff:      0.315D-01 0.196D+01
 Gap=     0.202 Goal=   None    Shift=    0.000
 RMSDP=6.83D-06 MaxDP=2.82D-04 DE=-4.66D-07 OVMax= 1.32D-03

 Cycle  21  Pass 1  IDiag  1:
 E= -1199.59649857221     Delta-E=       -0.000000715710 Rises=F Damp=F
 DIIS: error= 7.02D-06 at cycle  21 NSaved=  20.
 NSaved=20 IEnMin=20 EnMin= -1199.59649857221     IErMin=20 ErrMin= 7.02D-06
 ErrMax= 7.02D-06  0.00D+00 EMaxC= 1.00D-01 BMatC= 2.03D-08 BMatP= 2.06D-08
 IDIUse=1 WtCom= 1.00D+00 WtEn= 0.00D+00
 Coeff-Com:  0.392D-05-0.280D-05 0.449D-04-0.310D-03-0.148D-03 0.204D-02
 Coeff-Com:  0.287D-02-0.511D-02-0.355D-01-0.355D-01 0.110D+00 0.313D-01
 Coeff-Com: -0.725D-01-0.123D+00 0.107D+00 0.257D+00-0.395D+00-0.132D+01
 Coeff-Com:  0.792D+00 0.169D+01
 Coeff:      0.392D-05-0.280D-05 0.449D-04-0.310D-03-0.148D-03 0.204D-02
 Coeff:      0.287D-02-0.511D-02-0.355D-01-0.355D-01 0.110D+00 0.313D-01
 Coeff:     -0.725D-01-0.123D+00 0.107D+00 0.257D+00-0.395D+00-0.132D+01
 Coeff:      0.792D+00 0.169D+01
 Gap=     0.202 Goal=   None    Shift=    0.000
 RMSDP=8.94D-06 MaxDP=4.04D-04 DE=-7.16D-07 OVMax= 2.33D-03

 Cycle  22  Pass 1  IDiag  1:
 E= -1199.59649917416     Delta-E=       -0.000000601957 Rises=F Damp=F
 DIIS: error= 6.54D-06 at cycle  22 NSaved=  20.
 NSaved=20 IEnMin=20 EnMin= -1199.59649917416     IErMin=20 ErrMin= 6.54D-06
 ErrMax= 6.54D-06  0.00D+00 EMaxC= 1.00D-01 BMatC= 1.36D-08 BMatP= 2.03D-08
 IDIUse=1 WtCom= 1.00D+00 WtEn= 0.00D+00
 Coeff-Com: -0.204D-05 0.884D-05-0.955D-04-0.172D-03 0.286D-03 0.214D-03
 Coeff-Com:  0.442D-03-0.992D-02-0.345D-01 0.330D-01 0.526D-01 0.295D-01
 Coeff-Com: -0.159D+00-0.809D-02 0.278D+00 0.974D-01-0.574D+00-0.582D+00
 Coeff-Com:  0.102D+01 0.855D+00
 Coeff:     -0.204D-05 0.884D-05-0.955D-04-0.172D-03 0.286D-03 0.214D-03
 Coeff:      0.442D-03-0.992D-02-0.345D-01 0.330D-01 0.526D-01 0.295D-01
 Coeff:     -0.159D+00-0.809D-02 0.278D+00 0.974D-01-0.574D+00-0.582D+00
 Coeff:      0.102D+01 0.855D+00
 Gap=     0.202 Goal=   None    Shift=    0.000
 RMSDP=4.40D-06 MaxDP=1.81D-04 DE=-6.02D-07 OVMax= 9.20D-04

 Cycle  23  Pass 1  IDiag  1:
 E= -1199.59649928215     Delta-E=       -0.000000107990 Rises=F Damp=F
 DIIS: error= 2.18D-06 at cycle  23 NSaved=  20.
 NSaved=20 IEnMin=20 EnMin= -1199.59649928215     IErMin=20 ErrMin= 2.18D-06
 ErrMax= 2.18D-06  0.00D+00 EMaxC= 1.00D-01 BMatC= 1.26D-09 BMatP= 1.36D-08
 IDIUse=1 WtCom= 1.00D+00 WtEn= 0.00D+00
 Coeff-Com: -0.158D-04-0.133D-04-0.680D-04-0.599D-04 0.130D-03 0.985D-03
 Coeff-Com:  0.155D-02-0.460D-02-0.727D-02 0.135D-01 0.265D-01-0.427D-01
 Coeff-Com: -0.288D-01 0.757D-01 0.101D+00 0.961D-02-0.430D+00 0.205D+00
 Coeff-Com:  0.278D+00 0.802D+00
 Coeff:     -0.158D-04-0.133D-04-0.680D-04-0.599D-04 0.130D-03 0.985D-03
 Coeff:      0.155D-02-0.460D-02-0.727D-02 0.135D-01 0.265D-01-0.427D-01
 Coeff:     -0.288D-01 0.757D-01 0.101D+00 0.961D-02-0.430D+00 0.205D+00
 Coeff:      0.278D+00 0.802D+00
 Gap=     0.202 Goal=   None    Shift=    0.000
 RMSDP=9.56D-07 MaxDP=3.60D-05 DE=-1.08D-07 OVMax= 1.98D-04

 Cycle  24  Pass 1  IDiag  1:
 E= -1199.59649928773     Delta-E=       -0.000000005577 Rises=F Damp=F
 DIIS: error= 1.66D-07 at cycle  24 NSaved=  20.
 NSaved=20 IEnMin=20 EnMin= -1199.59649928773     IErMin=20 ErrMin= 1.66D-07
 ErrMax= 1.66D-07  0.00D+00 EMaxC= 1.00D-01 BMatC= 2.16D-11 BMatP= 1.26D-09
 IDIUse=1 WtCom= 1.00D+00 WtEn= 0.00D+00
 Coeff-Com:  0.317D-04 0.344D-04-0.456D-04-0.104D-03-0.114D-03 0.137D-02
 Coeff-Com:  0.546D-02-0.461D-02-0.572D-02-0.156D-02 0.121D-01-0.195D-02
 Coeff-Com: -0.205D-01-0.942D-04 0.507D-01 0.284D-01-0.798D-01-0.839D-01
 Coeff-Com:  0.589D-01 0.104D+01
 Coeff:      0.317D-04 0.344D-04-0.456D-04-0.104D-03-0.114D-03 0.137D-02
 Coeff:      0.546D-02-0.461D-02-0.572D-02-0.156D-02 0.121D-01-0.195D-02
 Coeff:     -0.205D-01-0.942D-04 0.507D-01 0.284D-01-0.798D-01-0.839D-01
 Coeff:      0.589D-01 0.104D+01
 Gap=     0.202 Goal=   None    Shift=    0.000
 RMSDP=2.05D-07 MaxDP=9.41D-06 DE=-5.58D-09 OVMax= 4.97D-05

 Cycle  25  Pass 1  IDiag  1:
 E= -1199.59649928800     Delta-E=       -0.000000000264 Rises=F Damp=F
 DIIS: error= 7.56D-08 at cycle  25 NSaved=  20.
 NSaved=20 IEnMin=20 EnMin= -1199.59649928800     IErMin=20 ErrMin= 7.56D-08
 ErrMax= 7.56D-08  0.00D+00 EMaxC= 1.00D-01 BMatC= 3.87D-12 BMatP= 2.16D-11
 IDIUse=1 WtCom= 1.00D+00 WtEn= 0.00D+00
 Coeff-Com:  0.667D-05-0.907D-05-0.214D-04-0.168D-04 0.730D-04 0.772D-03
 Coeff-Com: -0.547D-03-0.100D-02-0.155D-02 0.370D-02 0.184D-02-0.577D-02
 Coeff-Com: -0.804D-02 0.742D-02 0.280D-01-0.198D-01-0.301D-01-0.494D-01
 Coeff-Com:  0.158D-01 0.106D+01
 Coeff:      0.667D-05-0.907D-05-0.214D-04-0.168D-04 0.730D-04 0.772D-03
 Coeff:     -0.547D-03-0.100D-02-0.155D-02 0.370D-02 0.184D-02-0.577D-02
 Coeff:     -0.804D-02 0.742D-02 0.280D-01-0.198D-01-0.301D-01-0.494D-01
 Coeff:      0.158D-01 0.106D+01
 Gap=     0.202 Goal=   None    Shift=    0.000
 RMSDP=7.79D-08 MaxDP=2.27D-06 DE=-2.64D-10 OVMax= 1.24D-05

 Cycle  26  Pass 1  IDiag  1:
 E= -1199.59649928796     Delta-E=        0.000000000030 Rises=F Damp=F
 DIIS: error= 5.44D-08 at cycle  26 NSaved=  20.
 NSaved=20 IEnMin=19 EnMin= -1199.59649928800     IErMin=20 ErrMin= 5.44D-08
 ErrMax= 5.44D-08  0.00D+00 EMaxC= 1.00D-01 BMatC= 1.32D-12 BMatP= 3.87D-12
 IDIUse=1 WtCom= 1.00D+00 WtEn= 0.00D+00
 Coeff-Com: -0.475D-05-0.808D-05-0.250D-04-0.563D-04-0.161D-04 0.396D-04
 Coeff-Com:  0.157D-03-0.950D-04-0.193D-03 0.321D-03 0.181D-03-0.559D-03
 Coeff-Com: -0.199D-03 0.163D-02-0.672D-03 0.145D-02-0.109D-01-0.798D-01
 Coeff-Com:  0.241D+00 0.847D+00
 Coeff:     -0.475D-05-0.808D-05-0.250D-04-0.563D-04-0.161D-04 0.396D-04
 Coeff:      0.157D-03-0.950D-04-0.193D-03 0.321D-03 0.181D-03-0.559D-03
 Coeff:     -0.199D-03 0.163D-02-0.672D-03 0.145D-02-0.109D-01-0.798D-01
 Coeff:      0.241D+00 0.847D+00
 Gap=     0.202 Goal=   None    Shift=    0.000
 RMSDP=1.34D-08 MaxDP=4.60D-07 DE= 3.05D-11 OVMax= 1.66D-06

 Cycle  27  Pass 1  IDiag  1:
 E= -1199.59649928796     Delta-E=        0.000000000009 Rises=F Damp=F
 DIIS: error= 2.21D-08 at cycle  27 NSaved=  20.
 NSaved=20 IEnMin=18 EnMin= -1199.59649928800     IErMin=20 ErrMin= 2.21D-08
 ErrMax= 2.21D-08  0.00D+00 EMaxC= 1.00D-01 BMatC= 2.47D-13 BMatP= 1.32D-12
 IDIUse=1 WtCom= 1.00D+00 WtEn= 0.00D+00
 Coeff-Com:  0.724D-05-0.466D-05-0.724D-04-0.245D-03 0.272D-03 0.290D-03
 Coeff-Com: -0.863D-04-0.607D-03 0.227D-03 0.980D-03 0.286D-03-0.225D-02
 Coeff-Com: -0.267D-02 0.357D-02 0.639D-02 0.315D-02-0.460D-01-0.124D+00
 Coeff-Com:  0.390D+00 0.772D+00
 Coeff:      0.724D-05-0.466D-05-0.724D-04-0.245D-03 0.272D-03 0.290D-03
 Coeff:     -0.863D-04-0.607D-03 0.227D-03 0.980D-03 0.286D-03-0.225D-02
 Coeff:     -0.267D-02 0.357D-02 0.639D-02 0.315D-02-0.460D-01-0.124D+00
 Coeff:      0.390D+00 0.772D+00
 Gap=     0.202 Goal=   None    Shift=    0.000
 RMSDP=6.95D-09 MaxDP=2.84D-07 DE= 8.64D-12 OVMax= 7.38D-07

 SCF Done:  E(RwB97XD) =  -1199.59649929     A.U. after   27 cycles
            NFock= 27  Conv=0.69D-08     -V/T= 2.0020
 KE= 1.197236298816D+03 PE=-4.624286302059D+03 EE= 1.338877901715D+03
 Leave Link  502 at Fri May 23 07:32:25 2025, MaxMem=  3758096384 cpu:             104.2 elap:              22.2
 (Enter /apps/easybuild-2022/easybuild/software/Compiler/NVHPC/22.11-CUDA-11.7.0/Gaussian/g16c01-CUDA-11.7.0/g16/l508.exe)
 QCSCF skips out because SCF is already converged.
 Leave Link  508 at Fri May 23 07:32:25 2025, MaxMem=  3758096384 cpu:               0.0 elap:               0.0
 (Enter /apps/easybuild-2022/easybuild/software/Compiler/NVHPC/22.11-CUDA-11.7.0/Gaussian/g16c01-CUDA-11.7.0/g16/l801.exe)
 DoSCS=F DFT=T ScalE2(SS,OS)=  1.000000  1.000000
 Range of M.O.s used for correlation:     1   257
 NBasis=   257 NAE=    49 NBE=    49 NFC=     0 NFV=     0
 NROrb=    257 NOA=    49 NOB=    49 NVA=   208 NVB=   208

 **** Warning!!: The largest alpha MO coefficient is  0.36404906D+02

 Leave Link  801 at Fri May 23 07:32:25 2025, MaxMem=  3758096384 cpu:               0.0 elap:               0.0
 (Enter /apps/easybuild-2022/easybuild/software/Compiler/NVHPC/22.11-CUDA-11.7.0/Gaussian/g16c01-CUDA-11.7.0/g16/l1101.exe)
 Using compressed storage, NAtomX=    12.
 Will process     13 centers per pass.
 R6Disp: Adding Grimme-D2 dispersion energy 1st derivatives to the gradient.
 Leave Link 1101 at Fri May 23 07:32:26 2025, MaxMem=  3758096384 cpu:               0.5 elap:               0.1
 (Enter /apps/easybuild-2022/easybuild/software/Compiler/NVHPC/22.11-CUDA-11.7.0/Gaussian/g16c01-CUDA-11.7.0/g16/l1102.exe)
 Symmetrizing basis deriv contribution to polar:
 IMax=3 JMax=2 DiffMx= 0.00D+00
 Leave Link 1102 at Fri May 23 07:32:26 2025, MaxMem=  3758096384 cpu:               0.1 elap:               0.0
 (Enter /apps/easybuild-2022/easybuild/software/Compiler/NVHPC/22.11-CUDA-11.7.0/Gaussian/g16c01-CUDA-11.7.0/g16/l1110.exe)
 Forming Gx(P) for the SCF density, NAtomX=    12.
 Integral derivatives from FoFJK, PRISM(SPDF).
 Do as many integral derivatives as possible in FoFJK.
 G2DrvN: MDV=    3758095012.
 G2DrvN: will do    13 centers at a time, making    1 passes.
 Calling FoFCou, ICntrl=  3107 FMM=F I1Cent=   0 AccDes= 0.00D+00.
 FoFJK:  IHMeth= 1 ICntrl=    3107 DoSepK=T KAlg= 0 I1Cent=           0 FoldK=F
 IRaf=         1 NMat=       1 IRICut=       1 DoRegI=T DoRafI=F ISym2E= 0 IDoP0=0 IntGTp=1.
 FoFCou: FMM=F IPFlag=           0 FMFlag=      100000 FMFlg1=           0
         NFxFlg=           0 DoJE=F BraDBF=F KetDBF=F FulRan=T
         wScrn=  0.000000 ICntrl=      3507 IOpCl=  0 I1Cent=           0 NGrid=           0
         NMat0=    1 NMatS0=      1 NMatT0=    0 NMatD0=    1 NMtDS0=    0 NMtDT0=    0
 Symmetry not used in FoFCou.
 End of G2Drv F.D. properties file   721 does not exist.
 End of G2Drv F.D. properties file   722 does not exist.
 End of G2Drv F.D. properties file   788 does not exist.
 Leave Link 1110 at Fri May 23 07:32:38 2025, MaxMem=  3758096384 cpu:              99.4 elap:              12.6
 (Enter /apps/easybuild-2022/easybuild/software/Compiler/NVHPC/22.11-CUDA-11.7.0/Gaussian/g16c01-CUDA-11.7.0/g16/l1002.exe)
 Minotr:  Closed shell wavefunction.
          IDoAtm=111111111111
          Direct CPHF calculation.
          Differentiating once with respect to electric field.
                with respect to dipole field.
          Differentiating once with respect to nuclear coordinates.
          Requested convergence is 1.0D-08 RMS, and 1.0D-07 maximum.
          Secondary convergence is 1.0D-12 RMS, and 1.0D-12 maximum.
          NewPWx=T KeepS1=F KeepF1=F KeepIn=T MapXYZ=F SortEE=F KeepMc=T.
         3717 words used for storage of precomputed grid.
 Keep R1 ints in memory in canonical form, NReq=1117480309.
 FoFCou: FMM=F IPFlag=           0 FMFlag=           0 FMFlg1=           0
         NFxFlg=           0 DoJE=F BraDBF=F KetDBF=F FulRan=T
         wScrn=  0.000000 ICntrl=       600 IOpCl=  0 I1Cent=           0 NGrid=           0
         NMat0=    1 NMatS0=  33153 NMatT0=    0 NMatD0=    1 NMtDS0=    0 NMtDT0=    0
 Symmetry not used in FoFCou.
 Two-electron integral symmetry not used.
          MDV=    3758096384 using IRadAn=       1.
          Solving linear equations simultaneously, MaxMat=       0.
          There are    39 degrees of freedom in the 1st order CPHF.  IDoFFX=6 NUNeed=     3.
     36 vectors produced by pass  0 Test12= 2.61D-14 2.56D-09 XBig12= 6.16D+01 5.15D+00.
 AX will form    36 AO Fock derivatives at one time.
     36 vectors produced by pass  1 Test12= 2.61D-14 2.56D-09 XBig12= 1.27D+01 8.67D-01.
     36 vectors produced by pass  2 Test12= 2.61D-14 2.56D-09 XBig12= 6.51D-01 1.86D-01.
     36 vectors produced by pass  3 Test12= 2.61D-14 2.56D-09 XBig12= 1.14D-02 1.69D-02.
     36 vectors produced by pass  4 Test12= 2.61D-14 2.56D-09 XBig12= 1.83D-04 1.63D-03.
     36 vectors produced by pass  5 Test12= 2.61D-14 2.56D-09 XBig12= 1.78D-06 1.74D-04.
     36 vectors produced by pass  6 Test12= 2.61D-14 2.56D-09 XBig12= 1.37D-08 1.17D-05.
     27 vectors produced by pass  7 Test12= 2.61D-14 2.56D-09 XBig12= 1.06D-10 1.10D-06.
      7 vectors produced by pass  8 Test12= 2.61D-14 2.56D-09 XBig12= 6.94D-13 1.38D-07.
      3 vectors produced by pass  9 Test12= 2.61D-14 2.56D-09 XBig12= 4.60D-15 1.25D-08.
 InvSVY:  IOpt=1 It=  1 EMax= 3.55D-15
 Solved reduced A of dimension   289 with    39 vectors.
 FullF1:  Do perturbations      1 to       3.
 Isotropic polarizability for W=    0.000000       74.36 Bohr**3.
 End of Minotr F.D. properties file   721 does not exist.
 End of Minotr F.D. properties file   722 does not exist.
 End of Minotr F.D. properties file   788 does not exist.
 Leave Link 1002 at Fri May 23 07:33:06 2025, MaxMem=  3758096384 cpu:             215.1 elap:              27.5
 (Enter /apps/easybuild-2022/easybuild/software/Compiler/NVHPC/22.11-CUDA-11.7.0/Gaussian/g16c01-CUDA-11.7.0/g16/l701.exe)
 ... and contract with generalized density number  0.
 Compute integral second derivatives.
 R6Disp: Adding Grimme-D2 dispersion energy 2nd derivatives to the Hessian.
 Leave Link  701 at Fri May 23 07:33:06 2025, MaxMem=  3758096384 cpu:               0.8 elap:               0.2
 (Enter /apps/easybuild-2022/easybuild/software/Compiler/NVHPC/22.11-CUDA-11.7.0/Gaussian/g16c01-CUDA-11.7.0/g16/l702.exe)
 L702 exits ... SP integral derivatives will be done elsewhere.
 Leave Link  702 at Fri May 23 07:33:06 2025, MaxMem=  3758096384 cpu:               0.0 elap:               0.0
 (Enter /apps/easybuild-2022/easybuild/software/Compiler/NVHPC/22.11-CUDA-11.7.0/Gaussian/g16c01-CUDA-11.7.0/g16/l703.exe)
 Integral derivatives from FoFJK, PRISM(SPDF).
 Compute integral second derivatives, UseDBF=F ICtDFT=           0.
 Calling FoFJK, ICntrl=    100127 FMM=F ISym2X=0 I1Cent= 0 IOpClX= 0 NMat=1 NMatS=1 NMatT=0.
 FoFJK:  IHMeth= 1 ICntrl=  100127 DoSepK=T KAlg= 0 I1Cent=           0 FoldK=F
 IRaf=         1 NMat=       1 IRICut=       1 DoRegI=T DoRafI=F ISym2E= 0 IDoP0=0 IntGTp=1.
 FoFCou: FMM=F IPFlag=           0 FMFlag=      100000 FMFlg1=         800
         NFxFlg=           0 DoJE=F BraDBF=F KetDBF=F FulRan=T
         wScrn=  0.000000 ICntrl=    100527 IOpCl=  0 I1Cent=           0 NGrid=           0
         NMat0=    1 NMatS0=      1 NMatT0=    0 NMatD0=    1 NMtDS0=    0 NMtDT0=    0
 Symmetry not used in FoFCou.
 Leave Link  703 at Fri May 23 07:33:39 2025, MaxMem=  3758096384 cpu:             266.6 elap:              33.6
 (Enter /apps/easybuild-2022/easybuild/software/Compiler/NVHPC/22.11-CUDA-11.7.0/Gaussian/g16c01-CUDA-11.7.0/g16/l716.exe)
 Dipole        =-1.50744296D-01 1.13496913D-01 3.71752638D-01
 Polarizability= 6.48513352D+01 3.70048541D+00 6.12452879D+01
                -3.80785028D+00 1.80003497D+01 9.69769370D+01
 -------------------------------------------------------------------
 Center     Atomic                   Forces (Hartrees/Bohr)
 Number     Number              X              Y              Z
 -------------------------------------------------------------------
      1        6          -0.000002827   -0.000003623    0.000009487
      2        6          -0.000011240   -0.000005383    0.000005433
      3        9           0.000005479    0.000002956   -0.000008085
      4        9           0.000024867    0.000011493    0.000009778
      5       16          -0.000040783   -0.000012690    0.000053221
      6        8          -0.000049164    0.000003708   -0.000060797
      7        8           0.000053687   -0.000048609   -0.000129798
      8        8          -0.000002816   -0.000007281    0.000008970
      9        9          -0.000012670   -0.000002242    0.000005565
     10        9           0.000005389    0.000004123    0.000008531
     11        9           0.000001158    0.000006761    0.000003560
     12        1           0.000028919    0.000050787    0.000094136
 -------------------------------------------------------------------
 Cartesian Forces:  Max     0.000129798 RMS     0.000036100
 Force constants in Cartesian coordinates: 
                1             2             3             4             5 
      1  0.551983D+00
      2  0.177113D-01  0.573983D+00
      3  0.494014D-02  0.107906D-01  0.566703D+00
      4 -0.803079D-01 -0.330854D-01 -0.212160D-02  0.370623D+00
      5 -0.686916D-01 -0.154289D+00 -0.254743D-01 -0.291488D-01  0.553895D+00
      6 -0.152928D-01 -0.266393D-01 -0.430490D-01  0.550652D-01 -0.102897D-01
      7  0.104275D-02 -0.186413D-02  0.198077D-03 -0.102292D+00  0.833169D-01
      8  0.293675D-01 -0.284228D-01  0.339384D-01  0.736754D-01 -0.225177D+00
      9 -0.564232D-02  0.874056D-02 -0.780067D-02 -0.569189D-01  0.110179D+00
     10  0.278903D-03 -0.223854D-02 -0.861398D-02 -0.829248D-01  0.175725D-01
     11  0.137518D-01 -0.180254D-02 -0.352606D-01  0.382270D-02 -0.916889D-01
     12  0.117394D-01 -0.445087D-02 -0.362652D-01  0.155015D-01 -0.691513D-01
     13 -0.133121D-01 -0.179939D-01 -0.666060D-02 -0.945166D-01  0.233693D-01
     14 -0.236636D-01  0.108730D-01  0.285804D-02  0.213657D-02 -0.218486D-01
     15 -0.803700D-02  0.811886D-02  0.172608D-01 -0.910612D-02 -0.144926D-02
     16  0.116388D-02 -0.100921D-04  0.138739D-02  0.180908D-01 -0.165615D-02
     17  0.158053D-03  0.995597D-03  0.539225D-03  0.104824D-02 -0.343918D-02
     18  0.323766D-03 -0.527430D-03  0.368940D-03 -0.628088D-02 -0.176196D-02
     19  0.234928D-02  0.389269D-02 -0.223370D-02  0.108859D-01  0.274878D-02
     20  0.425391D-02 -0.650136D-02 -0.311162D-02  0.337272D-02  0.214014D-02
     21  0.396731D-02 -0.994018D-02 -0.101047D-01  0.912591D-02  0.189325D-02
     22 -0.243930D-02  0.506547D-02  0.194180D-02 -0.900114D-03 -0.222497D-01
     23  0.197399D-02  0.451768D-02  0.250832D-02 -0.113684D-01 -0.270338D-01
     24 -0.143449D-02  0.198044D-02 -0.178585D-02 -0.908489D-02 -0.751991D-02
     25 -0.772092D-01 -0.103702D-02  0.104011D-01  0.843475D-02  0.483597D-03
     26 -0.143073D-02 -0.104171D+00 -0.635608D-01  0.303797D-02 -0.594243D-03
     27  0.790832D-02 -0.704955D-01 -0.281033D+00  0.170632D-02 -0.201496D-02
     28 -0.106602D+00  0.609046D-01 -0.388065D-01  0.395966D-02  0.864030D-03
     29  0.570408D-01 -0.210881D+00  0.736001D-01  0.260001D-01 -0.294727D-01
     30 -0.387227D-01  0.771674D-01 -0.121248D+00 -0.706666D-02  0.701706D-02
     31 -0.276624D+00 -0.311857D-01  0.394224D-01 -0.479575D-01 -0.223872D-02
     32 -0.296051D-01 -0.837936D-01  0.378327D-02 -0.372039D-01 -0.162133D-02
     33  0.402900D-01  0.459076D-02 -0.829270D-01  0.426638D-03 -0.120652D-02
     34 -0.322823D-03 -0.159283D-03  0.145487D-03 -0.309515D-02 -0.437006D-02
     35 -0.866297D-03 -0.508030D-03 -0.610573D-03 -0.228707D-02 -0.870420D-03
     36 -0.395726D-04  0.664650D-03 -0.119398D-03  0.875349D-02 -0.221135D-03
                6             7             8             9            10 
      6  0.475465D+00
      7 -0.667824D-01  0.100559D+00
      8  0.101770D+00 -0.933791D-01  0.255067D+00
      9 -0.138837D+00  0.823558D-01 -0.157881D+00  0.207907D+00
     10  0.587170D-01  0.130560D-01 -0.379748D-02 -0.190471D-01  0.975989D-01
     11 -0.462935D-01 -0.288045D-02  0.121703D-01  0.334139D-01 -0.195443D-01
     12 -0.202381D+00  0.291998D-02  0.187030D-01 -0.702813D-01 -0.667332D-01
     13 -0.187569D-01 -0.179778D-01  0.470322D-02 -0.797294D-02 -0.230419D-01
     14 -0.252225D-01  0.149340D-01 -0.108240D-01  0.878627D-02  0.216457D-01
     15 -0.381906D-01 -0.308116D-01  0.161903D-01 -0.100730D-01  0.374820D-01
     16 -0.279287D-01 -0.553827D-02  0.189231D-02  0.295441D-02 -0.232012D-02
     17 -0.508384D-02 -0.429612D-03  0.125062D-02 -0.654736D-04 -0.195084D-02
     18 -0.528430D-02 -0.773394D-04 -0.161764D-03  0.533517D-03  0.246907D-02
     19  0.235397D-01  0.151981D-02 -0.488192D-03 -0.176057D-02 -0.854720D-02
     20 -0.118062D-02  0.439678D-03  0.783612D-04  0.144648D-02 -0.157314D-02
     21 -0.112525D-01  0.774842D-02 -0.660668D-02  0.838360D-02  0.321732D-02
     22 -0.104393D-02  0.283006D-02 -0.497245D-02  0.216517D-02  0.194351D-02
     23  0.904237D-02  0.230492D-02  0.761737D-02 -0.274559D-02 -0.342772D-02
     24  0.555975D-02  0.433389D-02 -0.319058D-02  0.172273D-02 -0.241348D-02
     25 -0.954959D-02  0.617728D-03 -0.205867D-02  0.112449D-02 -0.106968D-03
     26 -0.320472D-01 -0.561235D-03  0.393021D-03 -0.134176D-02 -0.377205D-02
     27 -0.335247D-01  0.103165D-02 -0.276208D-02  0.551209D-02 -0.441129D-02
     28 -0.314804D-02  0.177001D-02 -0.170392D-02  0.787999D-03  0.119092D-02
     29  0.316659D-01 -0.365864D-02 -0.135886D-01 -0.293478D-03 -0.167543D-02
     30 -0.367410D-02  0.140472D-02  0.627784D-03  0.170241D-02  0.800631D-03
     31  0.644791D-02  0.419637D-02 -0.385179D-02  0.129062D-02  0.451188D-02
     32  0.343610D-02  0.261998D-03  0.219891D-02 -0.853479D-03 -0.134361D-04
     33  0.264652D-02  0.218390D-03 -0.197582D-02  0.145426D-02 -0.235901D-02
     34 -0.126749D-02  0.216043D-03  0.613178D-03  0.663391D-03 -0.163907D-02
     35  0.842271D-03  0.151566D-02 -0.763254D-03  0.614871D-03 -0.122536D-02
     36 -0.747853D-02 -0.253951D-02  0.134835D-02 -0.223654D-03  0.891975D-03
               11            12            13            14            15 
     11  0.833319D-01
     12  0.539533D-01  0.310528D+00
     13 -0.103837D-01 -0.162516D-01  0.253298D+00
     14  0.151760D-01  0.296094D-01 -0.139378D-01  0.360892D+00
     15 -0.546124D-02 -0.173502D-01 -0.120346D+00  0.139201D+00  0.649848D+00
     16  0.111423D-01  0.320957D-01  0.239255D-01 -0.374113D-01 -0.495884D-02
     17 -0.348105D-02 -0.146320D-02 -0.456611D-02 -0.906121D-02 -0.193271D-02
     18 -0.299735D-02 -0.990160D-02 -0.254779D-02  0.149779D-01 -0.739863D-02
     19  0.536739D-02  0.156717D-01 -0.102239D+00  0.522942D-01  0.139167D+00
     20 -0.124899D-02 -0.601311D-02  0.448159D-01 -0.104577D+00 -0.134554D+00
     21  0.730018D-02  0.150234D-01  0.166058D+00 -0.182087D+00 -0.510726D+00
     22  0.209243D-02  0.310945D-02 -0.367094D-01 -0.209339D-01 -0.133611D-02
     23 -0.310709D-02 -0.125140D-01 -0.351330D-01 -0.218752D+00  0.251678D-01
     24 -0.218383D-02 -0.351624D-02  0.222125D-02  0.458416D-01 -0.756970D-01
     25 -0.349783D-02 -0.250664D-02 -0.380721D-03  0.234820D-02  0.230523D-02
     26 -0.857389D-02 -0.809444D-02  0.149037D-02 -0.574016D-03 -0.140762D-02
     27 -0.760812D-02 -0.514533D-02  0.242896D-02  0.356405D-03 -0.618641D-02
     28 -0.341568D-03  0.103495D-02  0.437092D-03  0.243305D-02  0.445676D-03
     29 -0.756825D-03 -0.334299D-02  0.258597D-02 -0.334763D-02 -0.139735D-02
     30  0.708360D-03  0.478215D-02 -0.592912D-03  0.912378D-03 -0.262079D-02
     31  0.102660D-02  0.180904D-02  0.827910D-02 -0.293095D-02 -0.236864D-02
     32  0.118073D-02  0.223335D-02  0.550556D-02 -0.472448D-02 -0.306167D-02
     33  0.863829D-03  0.361582D-02 -0.228954D-03 -0.176074D-04 -0.174206D-02
     34 -0.555452D-03  0.160969D-02  0.223774D-02  0.308582D-02 -0.243570D-02
     35 -0.119970D-02  0.530785D-03 -0.455845D-03 -0.132324D-01 -0.394146D-01
     36  0.356506D-02  0.108917D-01  0.264929D-02 -0.352159D-01  0.287563D-02
               16            17            18            19            20 
     16 -0.194665D-01
     17  0.486751D-02  0.796239D-02
     18  0.326904D-02  0.420849D-02  0.406564D-01
     19 -0.719115D-02  0.224772D-03  0.954229D-03  0.100729D+00
     20  0.460692D-02  0.184945D-02 -0.186623D-02 -0.652886D-01  0.119291D+00
     21 -0.126866D-01 -0.800068D-03  0.912904D-03 -0.177616D+00  0.185314D+00
     22 -0.161317D-02 -0.221819D-03  0.674205D-02  0.414893D-02  0.102404D-01
     23  0.139253D-01  0.614903D-02 -0.775043D-02  0.431559D-02 -0.582021D-02
     24  0.161550D-01  0.131899D-01 -0.273020D-01  0.221281D-02 -0.483995D-01
     25 -0.797103D-04 -0.885312D-05 -0.158580D-04 -0.167795D-02 -0.143533D-02
     26  0.178184D-02 -0.125852D-03  0.364550D-03 -0.125147D-02  0.101199D-02
     27  0.242767D-02 -0.357691D-03  0.353992D-03  0.335775D-03  0.139768D-02
     28 -0.840773D-03 -0.848903D-04 -0.845531D-04 -0.709024D-04 -0.164985D-02
     29  0.358501D-03  0.160195D-03  0.344190D-03 -0.128811D-02  0.149632D-02
     30  0.533929D-04 -0.105561D-03 -0.138867D-03  0.895828D-03  0.793464D-04
     31 -0.250647D-02 -0.589552D-03 -0.103079D-03 -0.161144D-02  0.712335D-03
     32 -0.823054D-03 -0.256719D-03  0.107285D-05 -0.990008D-03  0.175531D-02
     33  0.441200D-03  0.395843D-04 -0.100981D-03  0.429447D-03  0.393480D-03
     34 -0.362392D-02  0.155310D-02 -0.464865D-02  0.170434D-02  0.150505D-02
     35  0.132592D-02 -0.200327D-02 -0.483106D-02  0.462956D-03 -0.947509D-02
     36 -0.132097D-01 -0.816868D-02  0.730061D-02 -0.159619D-02  0.649425D-02
               21            22            23            24            25 
     21  0.493843D+00
     22  0.859446D-04  0.446531D-01
     23 -0.361152D-02  0.322086D-01  0.300038D+00
     24  0.799929D-02 -0.267978D-01  0.821498D-01  0.500193D+00
     25 -0.205435D-02  0.425865D-03 -0.587251D-03 -0.260590D-04  0.848666D-01
     26  0.232665D-02 -0.677454D-03 -0.846013D-03 -0.149154D-03 -0.107150D-01
     27  0.617788D-02 -0.896056D-03 -0.167008D-02  0.599425D-03 -0.364734D-01
     28 -0.856241D-03  0.168584D-03 -0.643014D-03  0.940302D-03  0.898665D-02
     29  0.199354D-02 -0.809562D-03  0.230275D-04 -0.310259D-03  0.279540D-02
     30  0.980613D-03  0.127160D-03 -0.488044D-03  0.808247D-03 -0.246564D-01
     31  0.988475D-03 -0.205320D-02 -0.297764D-02 -0.318972D-03 -0.239638D-01
     32  0.269952D-02 -0.187747D-02 -0.156379D-02 -0.724366D-03  0.136056D-01
     33  0.143861D-02 -0.790426D-05 -0.184251D-03  0.219565D-03  0.614379D-01
     34  0.202167D-02 -0.104549D-01 -0.591367D-03  0.142124D-01  0.866614D-04
     35  0.151894D-02  0.213545D-02 -0.612224D-01 -0.806842D-01  0.107216D-03
     36 -0.267610D-02  0.159102D-01 -0.899044D-01 -0.408801D+00  0.136376D-04
               26            27            28            29            30 
     26  0.870295D-01
     27  0.682546D-01  0.417886D+00
     28  0.479804D-02 -0.189831D-01  0.152500D+00
     29  0.124271D-01  0.224299D-01 -0.112813D+00  0.241956D+00
     30  0.394275D-01 -0.675591D-01  0.815575D-01 -0.128518D+00  0.174339D+00
     31  0.704040D-02  0.447132D-01 -0.614842D-01  0.311527D-01 -0.137808D-01
     32  0.138337D-01 -0.788190D-02  0.478962D-01  0.181619D-02  0.301534D-02
     33 -0.386412D-02 -0.372433D-01 -0.229029D-01  0.394472D-02  0.124978D-01
     34  0.259359D-03  0.211941D-03 -0.149855D-04  0.311317D-03 -0.196963D-04
     35  0.190116D-03  0.351746D-03  0.340287D-03  0.167726D-03  0.156038D-03
     36  0.918003D-04  0.162607D-03  0.149663D-04 -0.116562D-03  0.130577D-03
               31            32            33            34            35 
     31  0.399346D+00
     32  0.329329D-02  0.710400D-01
     33 -0.777460D-01 -0.257904D-02  0.999653D-01
     34 -0.132227D-03 -0.496947D-04  0.129334D-05  0.150383D-01
     35  0.549053D-03  0.135199D-03 -0.501486D-05 -0.160197D-02  0.887816D-01
     36 -0.354174D-03 -0.682044D-04  0.175504D-03 -0.104944D-01  0.121531D+00
               36 
     36  0.397762D+00
 FormGI is forming the generalized inverse of G from B-inverse, IUseBI=4.
 Leave Link  716 at Fri May 23 07:33:40 2025, MaxMem=  3758096384 cpu:               0.1 elap:               0.0
 (Enter /apps/easybuild-2022/easybuild/software/Compiler/NVHPC/22.11-CUDA-11.7.0/Gaussian/g16c01-CUDA-11.7.0/g16/l103.exe)

 GradGradGradGradGradGradGradGradGradGradGradGradGradGradGradGradGradGrad
 Berny optimization.
 Red2BG is reusing G-inverse.
 Internal  Forces:  Max     0.000176611 RMS     0.000052899
 Search for a saddle point.
 Step number   1 out of a maximum of  100
 All quantities printed in internal units (Hartrees-Bohrs-Radians)
 Swapping is turned off.
 Second derivative matrix not updated -- analytic derivatives used.
 ITU=  0
     Eigenvalues ---   -0.46378   0.00311   0.00376   0.00594   0.01124
     Eigenvalues ---    0.04806   0.07982   0.09048   0.09962   0.10045
     Eigenvalues ---    0.11647   0.13225   0.14317   0.17460   0.18159
     Eigenvalues ---    0.20564   0.22773   0.23299   0.23919   0.25163
     Eigenvalues ---    0.31553   0.36717   0.38382   0.39464   0.39679
     Eigenvalues ---    0.44044   0.47732   0.55768   0.64000   0.80570
 Eigenvectors required to have negative eigenvalues:
                          D18       D16       D17       A14       R6
   1                    0.54254   0.53695   0.46305   0.24883  -0.19055
                          A13       A16       R10       R9        A12
   1                   -0.15823  -0.15750  -0.11177  -0.08575   0.07550
 RFO step:  Lambda0=1.057550078D-07 Lambda=-1.01017235D-06.
 Linear search not attempted -- option 19 set.
 Iteration  1 RMS(Cart)=  0.00332288 RMS(Int)=  0.00000361
 Iteration  2 RMS(Cart)=  0.00000462 RMS(Int)=  0.00000001
 Iteration  3 RMS(Cart)=  0.00000000 RMS(Int)=  0.00000001
 ITry= 1 IFail=0 DXMaxC= 8.66D-03 DCOld= 1.00D+10 DXMaxT= 3.00D-01 DXLimC= 3.00D+00 Rises=F
 Variable       Old X    -DE/DX   Delta X   Delta X   Delta X     New X
                                 (Linear)    (Quad)   (Total)
    R1        2.91768  -0.00000   0.00000   0.00006   0.00006   2.91774
    R2        2.49943  -0.00001   0.00000  -0.00000  -0.00000   2.49943
    R3        2.51840   0.00001   0.00000   0.00005   0.00005   2.51844
    R4        2.51029  -0.00000   0.00000  -0.00004  -0.00004   2.51025
    R5        2.49904   0.00000   0.00000  -0.00002  -0.00002   2.49903
    R6        2.54508   0.00001   0.00000  -0.00027  -0.00027   2.54482
    R7        3.64291  -0.00002   0.00000  -0.00019  -0.00019   3.64272
    R8        2.74562   0.00015   0.00000   0.00022   0.00022   2.74584
    R9        3.04925   0.00005   0.00000  -0.00008  -0.00008   3.04917
   R10        3.51713  -0.00004   0.00000  -0.00488  -0.00488   3.51225
   R11        1.85710   0.00005   0.00000   0.00041   0.00041   1.85751
    A1        1.92091   0.00002   0.00000   0.00020   0.00020   1.92112
    A2        1.90379  -0.00002   0.00000  -0.00015  -0.00015   1.90364
    A3        1.92665  -0.00001   0.00000  -0.00005  -0.00005   1.92660
    A4        1.90831   0.00000   0.00000  -0.00004  -0.00004   1.90827
    A5        1.90375  -0.00000   0.00000   0.00001   0.00001   1.90376
    A6        1.90022   0.00001   0.00000   0.00002   0.00002   1.90024
    A7        1.93786   0.00001   0.00000   0.00024   0.00024   1.93811
    A8        1.91013  -0.00001   0.00000  -0.00025  -0.00025   1.90988
    A9        1.97318   0.00002   0.00000  -0.00011  -0.00011   1.97306
   A10        1.91192   0.00001   0.00000   0.00028   0.00028   1.91219
   A11        1.95221  -0.00000   0.00000  -0.00024  -0.00024   1.95197
   A12        1.77087  -0.00004   0.00000   0.00008   0.00008   1.77094
   A13        1.89319   0.00009   0.00000  -0.00014  -0.00014   1.89305
   A14        1.65478   0.00001   0.00000   0.00012   0.00012   1.65490
   A15        1.88923   0.00001   0.00000   0.00022   0.00022   1.88944
   A16        1.81738  -0.00002   0.00000   0.00002   0.00002   1.81740
   A17        2.31247  -0.00015   0.00000   0.00027   0.00027   2.31274
    D1        0.92090   0.00000   0.00000  -0.00119  -0.00119   0.91971
    D2        3.03365   0.00001   0.00000  -0.00085  -0.00085   3.03280
    D3       -1.28972  -0.00002   0.00000  -0.00097  -0.00097  -1.29069
    D4        3.01450   0.00001   0.00000  -0.00120  -0.00120   3.01330
    D5       -1.15593   0.00002   0.00000  -0.00087  -0.00087  -1.15680
    D6        0.80388  -0.00002   0.00000  -0.00099  -0.00099   0.80290
    D7       -1.18151  -0.00000   0.00000  -0.00130  -0.00130  -1.18281
    D8        0.93124   0.00001   0.00000  -0.00096  -0.00096   0.93028
    D9        2.89105  -0.00003   0.00000  -0.00108  -0.00108   2.88997
   D10        0.97128   0.00002   0.00000   0.00494   0.00494   0.97622
   D11        2.90967   0.00006   0.00000   0.00519   0.00519   2.91486
   D12       -1.23171  -0.00001   0.00000   0.00490   0.00490  -1.22681
   D13        0.70668   0.00003   0.00000   0.00515   0.00515   0.71183
   D14        3.01492   0.00000   0.00000   0.00464   0.00464   3.01956
   D15       -1.32988   0.00004   0.00000   0.00489   0.00489  -1.32499
   D16        1.49625  -0.00018   0.00000   0.00177   0.00177   1.49802
   D17       -2.84515  -0.00007   0.00000   0.00172   0.00172  -2.84344
   D18       -0.30635  -0.00014   0.00000  -0.00287  -0.00287  -0.30922
         Item               Value     Threshold  Converged?
 Maximum Force            0.000177     0.000450     YES
 RMS     Force            0.000053     0.000300     YES
 Maximum Displacement     0.008657     0.001800     NO 
 RMS     Displacement     0.003323     0.001200     NO 
 Predicted change in Energy=-4.522086D-07
 Lowest energy point so far.  Saving SCF results.
 GradGradGradGradGradGradGradGradGradGradGradGradGradGradGradGradGradGrad

 Leave Link  103 at Fri May 23 07:33:40 2025, MaxMem=  3758096384 cpu:               0.1 elap:               0.0
 (Enter /apps/easybuild-2022/easybuild/software/Compiler/NVHPC/22.11-CUDA-11.7.0/Gaussian/g16c01-CUDA-11.7.0/g16/l202.exe)
                          Input orientation:                          
 ---------------------------------------------------------------------
 Center     Atomic      Atomic             Coordinates (Angstroms)
 Number     Number       Type             X           Y           Z
 ---------------------------------------------------------------------
      1          6           0       -0.604759   -1.382863   -0.325536
      2          6           0       -0.000320    0.000607   -0.002121
      3          9           0       -0.491959    0.932283   -0.801551
      4          9           0       -0.268471    0.318227    1.278778
      5         16           0        1.927323    0.000520   -0.001470
      6          8           0        1.406919    0.935181    2.453750
      7          8           0        2.387913   -0.491560   -1.288725
      8          8           0        2.062941    1.608354    0.003028
      9          9           0       -0.466023   -1.648944   -1.613686
     10          9           0        0.029562   -2.312750    0.387936
     11          9           0       -1.895720   -1.408197   -0.013544
     12          1           0        2.013724    1.850644    0.954378
 ---------------------------------------------------------------------
                    Distance matrix (angstroms):
                    1          2          3          4          5
     1  C    0.000000
     2  C    1.543999   0.000000
     3  F    2.366266   1.322428   0.000000
     4  F    2.362333   1.346659   2.180545   0.000000
     5  S    2.903482   1.927643   2.713160   2.561539   0.000000
     6  O    4.140605   2.980781   3.768651   2.137317   2.678156
     7  O    3.267758   2.757033   3.249358   3.782090   1.453035
     8  O    4.021438   2.615707   2.762596   2.954226   1.613550
     9  F    1.322641   2.352667   2.706099   3.503589   3.323865
    10  F    1.332702   2.346201   3.495297   2.793647   3.017341
    11  F    1.328367   2.361652   2.840659   2.701587   4.074344
    12  H    4.353183   2.897223   3.194546   2.768023   2.084244
                    6          7          8          9         10
     6  O    0.000000
     7  O    4.123598   0.000000
     8  O    2.624798   2.486739   0.000000
     9  F    5.170073   3.096787   4.429381   0.000000
    10  F    4.088246   3.419027   4.433716   2.166272   0.000000
    11  F    4.741981   4.562435   4.977033   2.159270   2.164743
    12  H    1.858602   3.264575   0.982951   4.999122   4.646677
                   11         12
    11  F    0.000000
    12  H    5.180798   0.000000
 Symmetry turned off by external request.
 Stoichiometry    C2HF5O3S
 Rotational constants (GHZ):           1.3947918           0.8158636           0.6989229
 Leave Link  202 at Fri May 23 07:33:40 2025, MaxMem=  3758096384 cpu:               0.1 elap:               0.0
 (Enter /apps/easybuild-2022/easybuild/software/Compiler/NVHPC/22.11-CUDA-11.7.0/Gaussian/g16c01-CUDA-11.7.0/g16/l301.exe)
 Standard basis: 6-311++G(d,p) (5D, 7F)
 Ernie: Thresh=  0.10000D-02 Tol=  0.10000D-05 Strict=F.
   257 basis functions,   419 primitive gaussians,   268 cartesian basis functions
    49 alpha electrons       49 beta electrons
       nuclear repulsion energy       888.5857154772 Hartrees.
 IExCor= 4639 DFT=T Ex+Corr=wB97XD ExCW=0 ScaHFX=  1.000000
 ScaDFX=  1.000000  1.000000  1.000000  1.000000 ScalE2=  1.000000  1.000000
 IRadAn=      5 IRanWt=     -1 IRanGd=            0 ICorTp=0 IEmpDi=121
 HFx  wShort=  0.000000 wLong=  0.200000 cFull=  0.222036 cShort=  0.000000 cLong=  0.777964
 DFx  wShort=  0.000000 wLong=  0.200000 cFull=  0.000000 cShort=  0.000000 cLong=  1.000000
 NAtoms=   12 NActive=   12 NUniq=   12 SFac= 1.00D+00 NAtFMM=   60 NAOKFM=F Big=F
 Integral buffers will be    131072 words long.
 Raffenetti 2 integral format.
 Two-electron integral symmetry is turned off.
 R6Disp:  Grimme-D2 Dispersion energy=       -0.0053226401 Hartrees.
 Nuclear repulsion after empirical dispersion term =      888.5803928371 Hartrees.
 Leave Link  301 at Fri May 23 07:33:40 2025, MaxMem=  3758096384 cpu:               0.1 elap:               0.0
 (Enter /apps/easybuild-2022/easybuild/software/Compiler/NVHPC/22.11-CUDA-11.7.0/Gaussian/g16c01-CUDA-11.7.0/g16/l302.exe)
 NPDir=0 NMtPBC=     1 NCelOv=     1 NCel=       1 NClECP=     1 NCelD=      1
         NCelK=      1 NCelE2=     1 NClLst=     1 CellRange=     0.0.
 One-electron integrals computed using PRISM.
 NBasis=   257 RedAO= T EigKep=  5.94D-05  NBF=   257
 NBsUse=   257 1.00D-06 EigRej= -1.00D+00 NBFU=   257
 Precomputing XC quadrature grid using
 IXCGrd= 4 IRadAn=           5 IRanWt=          -1 IRanGd=           0 AccXCQ= 0.00D+00.
 Generated NRdTot=       0 NPtTot=           0 NUsed=           0 NTot=          32
 NSgBfM=   268   268   268   268   268 MxSgAt=    12 MxSgA2=    12.
 Leave Link  302 at Fri May 23 07:33:40 2025, MaxMem=  3758096384 cpu:               0.8 elap:               0.2
 (Enter /apps/easybuild-2022/easybuild/software/Compiler/NVHPC/22.11-CUDA-11.7.0/Gaussian/g16c01-CUDA-11.7.0/g16/l303.exe)
 DipDrv:  MaxL=1.
 Leave Link  303 at Fri May 23 07:33:40 2025, MaxMem=  3758096384 cpu:               0.1 elap:               0.0
 (Enter /apps/easybuild-2022/easybuild/software/Compiler/NVHPC/22.11-CUDA-11.7.0/Gaussian/g16c01-CUDA-11.7.0/g16/l401.exe)
 Initial guess from the checkpoint file:  "/tmp/Gau-251146.chk"
 B after Tr=    -0.000314    0.000220   -0.000852
         Rot=    1.000000    0.000187   -0.000054   -0.000081 Ang=   0.02 deg.
 Guess basis will be translated and rotated to current coordinates.
 JPrj=2 DoOrth=T DoCkMO=T.
 Leave Link  401 at Fri May 23 07:33:40 2025, MaxMem=  3758096384 cpu:               0.3 elap:               0.1
 (Enter /apps/easybuild-2022/easybuild/software/Compiler/NVHPC/22.11-CUDA-11.7.0/Gaussian/g16c01-CUDA-11.7.0/g16/l502.exe)
 Keep R1 ints in memory in canonical form, NReq=1117474609.
 FoFCou: FMM=F IPFlag=           0 FMFlag=           0 FMFlg1=           0
         NFxFlg=           0 DoJE=F BraDBF=F KetDBF=F FulRan=T
         wScrn=  0.000000 ICntrl=       600 IOpCl=  0 I1Cent=           0 NGrid=           0
         NMat0=    1 NMatS0=  33153 NMatT0=    0 NMatD0=    1 NMtDS0=    0 NMtDT0=    0
 Symmetry not used in FoFCou.
 Two-electron integral symmetry not used.
 Closed shell SCF:
 Using DIIS extrapolation, IDIIS=  1040.
 NGot=  3758096384 LenX=  2658793876 LenY=  2658721611
 Requested convergence on RMS density matrix=1.00D-08 within  32 cycles.
 Requested convergence on MAX density matrix=1.00D-06.
 Requested convergence on             energy=1.00D-06.
 No special actions if energy rises.

 Cycle   1  Pass 1  IDiag  1:
 E= -1199.59647622062    
 DIIS: error= 1.26D-04 at cycle   1 NSaved=   1.
 NSaved= 1 IEnMin= 1 EnMin= -1199.59647622062     IErMin= 1 ErrMin= 1.26D-04
 ErrMax= 1.26D-04  0.00D+00 EMaxC= 1.00D-01 BMatC= 1.42D-05 BMatP= 1.42D-05
 IDIUse=3 WtCom= 9.99D-01 WtEn= 1.26D-03
 Coeff-Com:  0.100D+01
 Coeff-En:   0.100D+01
 Coeff:      0.100D+01
 Gap=     0.698 Goal=   None    Shift=    0.000
 RMSDP=5.54D-05 MaxDP=3.64D-03              OVMax= 9.05D-04

 Cycle   2  Pass 1  IDiag  1:
 E= -1199.59649784723     Delta-E=       -0.000021626604 Rises=F Damp=F
 DIIS: error= 2.85D-05 at cycle   2 NSaved=   2.
 NSaved= 2 IEnMin= 2 EnMin= -1199.59649784723     IErMin= 2 ErrMin= 2.85D-05
 ErrMax= 2.85D-05  0.00D+00 EMaxC= 1.00D-01 BMatC= 7.38D-07 BMatP= 1.42D-05
 IDIUse=1 WtCom= 1.00D+00 WtEn= 0.00D+00
 Coeff-Com: -0.137D+00 0.114D+01
 Coeff:     -0.137D+00 0.114D+01
 Gap=     0.201 Goal=   None    Shift=    0.000
 RMSDP=1.07D-05 MaxDP=3.72D-04 DE=-2.16D-05 OVMax= 5.33D-04

 Cycle   3  Pass 1  IDiag  1:
 E= -1199.59649874207     Delta-E=       -0.000000894848 Rises=F Damp=F
 DIIS: error= 3.46D-05 at cycle   3 NSaved=   3.
 NSaved= 3 IEnMin= 3 EnMin= -1199.59649874207     IErMin= 2 ErrMin= 2.85D-05
 ErrMax= 3.46D-05  0.00D+00 EMaxC= 1.00D-01 BMatC= 8.19D-07 BMatP= 7.38D-07
 IDIUse=1 WtCom= 1.00D+00 WtEn= 0.00D+00
 Coeff-Com: -0.108D+00 0.659D+00 0.448D+00
 Coeff:     -0.108D+00 0.659D+00 0.448D+00
 Gap=     0.202 Goal=   None    Shift=    0.000
 RMSDP=5.82D-06 MaxDP=2.02D-04 DE=-8.95D-07 OVMax= 2.83D-04

 Cycle   4  Pass 1  IDiag  1:
 E= -1199.59649934564     Delta-E=       -0.000000603563 Rises=F Damp=F
 DIIS: error= 1.01D-05 at cycle   4 NSaved=   4.
 NSaved= 4 IEnMin= 4 EnMin= -1199.59649934564     IErMin= 4 ErrMin= 1.01D-05
 ErrMax= 1.01D-05  0.00D+00 EMaxC= 1.00D-01 BMatC= 3.96D-08 BMatP= 7.38D-07
 IDIUse=1 WtCom= 1.00D+00 WtEn= 0.00D+00
 Coeff-Com: -0.629D-02-0.146D-01 0.150D+00 0.871D+00
 Coeff:     -0.629D-02-0.146D-01 0.150D+00 0.871D+00
 Gap=     0.202 Goal=   None    Shift=    0.000
 RMSDP=1.66D-06 MaxDP=5.10D-05 DE=-6.04D-07 OVMax= 2.08D-04

 Cycle   5  Pass 1  IDiag  1:
 E= -1199.59649943955     Delta-E=       -0.000000093909 Rises=F Damp=F
 DIIS: error= 5.22D-06 at cycle   5 NSaved=   5.
 NSaved= 5 IEnMin= 5 EnMin= -1199.59649943955     IErMin= 5 ErrMin= 5.22D-06
 ErrMax= 5.22D-06  0.00D+00 EMaxC= 1.00D-01 BMatC= 1.37D-08 BMatP= 3.96D-08
 IDIUse=1 WtCom= 1.00D+00 WtEn= 0.00D+00
 Coeff-Com:  0.728D-02-0.751D-01 0.349D-01 0.479D+00 0.554D+00
 Coeff:      0.728D-02-0.751D-01 0.349D-01 0.479D+00 0.554D+00
 Gap=     0.202 Goal=   None    Shift=    0.000
 RMSDP=7.90D-07 MaxDP=2.70D-05 DE=-9.39D-08 OVMax= 1.35D-04

 Cycle   6  Pass 1  IDiag  1:
 E= -1199.59649947947     Delta-E=       -0.000000039927 Rises=F Damp=F
 DIIS: error= 3.00D-06 at cycle   6 NSaved=   6.
 NSaved= 6 IEnMin= 6 EnMin= -1199.59649947947     IErMin= 6 ErrMin= 3.00D-06
 ErrMax= 3.00D-06  0.00D+00 EMaxC= 1.00D-01 BMatC= 3.59D-09 BMatP= 1.37D-08
 IDIUse=1 WtCom= 1.00D+00 WtEn= 0.00D+00
 Coeff-Com:  0.330D-02-0.160D-01-0.301D-01-0.798D-01 0.626D-01 0.106D+01
 Coeff:      0.330D-02-0.160D-01-0.301D-01-0.798D-01 0.626D-01 0.106D+01
 Gap=     0.202 Goal=   None    Shift=    0.000
 RMSDP=9.76D-07 MaxDP=3.81D-05 DE=-3.99D-08 OVMax= 2.23D-04

 Cycle   7  Pass 1  IDiag  1:
 E= -1199.59649953032     Delta-E=       -0.000000050851 Rises=F Damp=F
 DIIS: error= 2.77D-06 at cycle   7 NSaved=   7.
 NSaved= 7 IEnMin= 7 EnMin= -1199.59649953032     IErMin= 7 ErrMin= 2.77D-06
 ErrMax= 2.77D-06  0.00D+00 EMaxC= 1.00D-01 BMatC= 2.88D-09 BMatP= 3.59D-09
 IDIUse=1 WtCom= 1.00D+00 WtEn= 0.00D+00
 Coeff-Com: -0.257D-02 0.325D-01-0.279D-01-0.247D+00-0.286D+00 0.310D+00
 Coeff-Com:  0.122D+01
 Coeff:     -0.257D-02 0.325D-01-0.279D-01-0.247D+00-0.286D+00 0.310D+00
 Coeff:      0.122D+01
 Gap=     0.202 Goal=   None    Shift=    0.000
 RMSDP=1.26D-06 MaxDP=5.82D-05 DE=-5.09D-08 OVMax= 3.17D-04

 Cycle   8  Pass 1  IDiag  1:
 E= -1199.59649959093     Delta-E=       -0.000000060610 Rises=F Damp=F
 DIIS: error= 2.24D-06 at cycle   8 NSaved=   8.
 NSaved= 8 IEnMin= 8 EnMin= -1199.59649959093     IErMin= 8 ErrMin= 2.24D-06
 ErrMax= 2.24D-06  0.00D+00 EMaxC= 1.00D-01 BMatC= 2.10D-09 BMatP= 2.88D-09
 IDIUse=1 WtCom= 1.00D+00 WtEn= 0.00D+00
 Coeff-Com: -0.571D-02 0.436D-01 0.184D-01-0.668D-01-0.255D+00-0.968D+00
 Coeff-Com:  0.880D+00 0.135D+01
 Coeff:     -0.571D-02 0.436D-01 0.184D-01-0.668D-01-0.255D+00-0.968D+00
 Coeff:      0.880D+00 0.135D+01
 Gap=     0.202 Goal=   None    Shift=    0.000
 RMSDP=1.98D-06 MaxDP=9.07D-05 DE=-6.06D-08 OVMax= 5.13D-04

 Cycle   9  Pass 1  IDiag  1:
 E= -1199.59649966649     Delta-E=       -0.000000075554 Rises=F Damp=F
 DIIS: error= 1.43D-06 at cycle   9 NSaved=   9.
 NSaved= 9 IEnMin= 9 EnMin= -1199.59649966649     IErMin= 9 ErrMin= 1.43D-06
[...]
     20 -0.125947D-02 -0.606430D-02  0.443415D-01 -0.103697D+00 -0.133366D+00
     21  0.730456D-02  0.150246D-01  0.166202D+00 -0.180976D+00 -0.511237D+00
     22  0.203563D-02  0.306540D-02 -0.366988D-01 -0.210563D-01 -0.141898D-02
     23 -0.310587D-02 -0.125210D-01 -0.351569D-01 -0.218834D+00  0.247880D-01
     24 -0.220089D-02 -0.360137D-02  0.203503D-02  0.455797D-01 -0.755477D-01
     25 -0.350782D-02 -0.250152D-02 -0.364327D-03  0.234183D-02  0.228975D-02
     26 -0.860075D-02 -0.808922D-02  0.149803D-02 -0.572267D-03 -0.141037D-02
     27 -0.758740D-02 -0.511323D-02  0.241839D-02  0.361739D-03 -0.616767D-02
     28 -0.340213D-03  0.104044D-02  0.434709D-03  0.241312D-02  0.417522D-03
     29 -0.760440D-03 -0.333580D-02  0.258093D-02 -0.334255D-02 -0.138085D-02
     30  0.724726D-03  0.478289D-02 -0.601589D-03  0.919297D-03 -0.262419D-02
     31  0.102475D-02  0.181433D-02  0.828343D-02 -0.293703D-02 -0.236459D-02
     32  0.118307D-02  0.224817D-02  0.551303D-02 -0.472371D-02 -0.304542D-02
     33  0.862692D-03  0.360987D-02 -0.246844D-03 -0.383728D-05 -0.173086D-02
     34 -0.550317D-03  0.163738D-02  0.225354D-02  0.309093D-02 -0.251855D-02
     35 -0.120820D-02  0.513694D-03 -0.550670D-03 -0.130049D-01 -0.394325D-01
     36  0.359624D-02  0.109398D-01  0.254310D-02 -0.353904D-01  0.276578D-02
               16            17            18            19            20 
     16 -0.196878D-01
     17  0.492577D-02  0.783159D-02
     18  0.337046D-02  0.411357D-02  0.405817D-01
     19 -0.720476D-02  0.254624D-03  0.948607D-03  0.100725D+00
     20  0.465663D-02  0.184010D-02 -0.187517D-02 -0.648420D-01  0.118259D+00
     21 -0.127111D-01 -0.759747D-03  0.921169D-03 -0.177780D+00  0.184190D+00
     22 -0.159727D-02 -0.208877D-03  0.675711D-02  0.415024D-02  0.102333D-01
     23  0.139352D-01  0.614952D-02 -0.769764D-02  0.429777D-02 -0.570128D-02
     24  0.163635D-01  0.133294D-01 -0.275924D-01  0.223336D-02 -0.484195D-01
     25 -0.797988D-04 -0.818591D-05 -0.156587D-04 -0.160033D-02 -0.138801D-02
     26  0.178118D-02 -0.132084D-03  0.366471D-03 -0.122109D-02  0.102760D-02
     27  0.241693D-02 -0.366507D-03  0.352311D-03  0.342473D-03  0.139264D-02
     28 -0.844551D-03 -0.831654D-04 -0.868970D-04 -0.625921D-04 -0.163351D-02
     29  0.357878D-03  0.157686D-03  0.347634D-03 -0.128740D-02  0.148488D-02
     30  0.543237D-04 -0.107817D-03 -0.142628D-03  0.893021D-03  0.745449D-04
     31 -0.251179D-02 -0.584359D-03 -0.101583D-03 -0.161540D-02  0.713824D-03
     32 -0.825791D-03 -0.254702D-03  0.249660D-05 -0.998389D-03  0.174937D-02
     33  0.446166D-03  0.401577D-04 -0.101719D-03  0.429738D-03  0.387143D-03
     34 -0.358903D-02  0.154757D-02 -0.482800D-02  0.169686D-02  0.150180D-02
     35  0.132921D-02 -0.193620D-02 -0.485639D-02  0.468761D-03 -0.948780D-02
     36 -0.134676D-01 -0.824631D-02  0.765247D-02 -0.158819D-02  0.649931D-02
               21            22            23            24            25 
     21  0.494451D+00
     22  0.977722D-04  0.446004D-01
     23 -0.362437D-02  0.325017D-01  0.299472D+00
     24  0.790633D-02 -0.260126D-01  0.812250D-01  0.500079D+00
     25 -0.201565D-02  0.423414D-03 -0.584977D-03 -0.245697D-04  0.847369D-01
     26  0.234603D-02 -0.680701D-03 -0.847131D-03 -0.153087D-03 -0.107985D-01
     27  0.616592D-02 -0.896673D-03 -0.166480D-02  0.592357D-03 -0.362783D-01
     28 -0.852138D-03  0.166779D-03 -0.648116D-03  0.950242D-03  0.895941D-02
     29  0.198626D-02 -0.809525D-03  0.216757D-04 -0.312647D-03  0.275345D-02
     30  0.981647D-03  0.127987D-03 -0.490781D-03  0.809779D-03 -0.247243D-01
     31  0.991817D-03 -0.205401D-02 -0.297265D-02 -0.326579D-03 -0.239075D-01
     32  0.269875D-02 -0.187873D-02 -0.155999D-02 -0.733631D-03  0.137262D-01
     33  0.142893D-02 -0.433278D-05 -0.177541D-03  0.220700D-03  0.614041D-01
     34  0.203805D-02 -0.104248D-01 -0.847993D-03  0.134486D-01  0.873178D-04
     35  0.149647D-02  0.196368D-02 -0.607418D-01 -0.794993D-01  0.107381D-03
     36 -0.268903D-02  0.152123D-01 -0.885517D-01 -0.408380D+00  0.133577D-04
               26            27            28            29            30 
     26  0.872977D-01
     27  0.689711D-01  0.417642D+00
     28  0.477841D-02 -0.190500D-01  0.152651D+00
     29  0.125662D-01  0.222465D-01 -0.112704D+00  0.241316D+00
     30  0.392406D-01 -0.676712D-01  0.818497D-01 -0.128550D+00  0.174789D+00
     31  0.712512D-02  0.446925D-01 -0.615276D-01  0.311053D-01 -0.138002D-01
     32  0.138104D-01 -0.799123D-02  0.478262D-01  0.185709D-02  0.300316D-02
     33 -0.396616D-02 -0.372813D-01 -0.229641D-01  0.394065D-02  0.125045D-01
     34  0.261182D-03  0.213638D-03 -0.137058D-04  0.311138D-03 -0.185061D-04
     35  0.189767D-03  0.350616D-03  0.342501D-03  0.167161D-03  0.156360D-03
     36  0.910916D-04  0.163158D-03  0.165566D-04 -0.118500D-03  0.133166D-03
               31            32            33            34            35 
     31  0.399292D+00
     32  0.322561D-02  0.710309D-01
     33 -0.779460D-01 -0.252574D-02  0.100083D+00
     34 -0.132782D-03 -0.503554D-04  0.227642D-05  0.149576D-01
     35  0.547503D-03  0.133334D-03 -0.571934D-05 -0.133080D-02  0.880447D-01
     36 -0.356491D-03 -0.697681D-04  0.176590D-03 -0.949068D-02  0.120415D+00
               36 
     36  0.397109D+00
 Red2BG is reusing G-inverse.
 Leave Link  716 at Fri May 23 07:35:12 2025, MaxMem=  3758096384 cpu:               0.0 elap:               0.0
 (Enter /apps/easybuild-2022/easybuild/software/Compiler/NVHPC/22.11-CUDA-11.7.0/Gaussian/g16c01-CUDA-11.7.0/g16/l9999.exe)

 ----------------------------------------------------------------------

 Electric dipole moment (input orientation):
 (Debye = 10**-18 statcoulomb cm , SI units = C m)
                  (au)            (Debye)         (10**-30 SI)
   Tot        0.415894D+00      0.105710D+01      0.352610D+01
   x         -0.150552D+00     -0.382665D+00     -0.127643D+01
   y          0.111173D+00      0.282574D+00      0.942564D+00
   z          0.371407D+00      0.944021D+00      0.314892D+01

 Dipole polarizability, Alpha (input orientation).
 (esu units = cm**3 , SI units = C**2 m**2 J**-1)
 Alpha(0;0):
               (au)            (10**-24 esu)      (10**-40 SI)
   iso        0.743670D+02      0.110200D+02      0.122615D+02
   aniso      0.471341D+02      0.698455D+01      0.777136D+01
   xx         0.648452D+02      0.960906D+01      0.106915D+02
   yx         0.371267D+01      0.550161D+00      0.612136D+00
   yy         0.611778D+02      0.906561D+01      0.100869D+02
   zx        -0.379556D+01     -0.562444D+00     -0.625803D+00
   zy         0.179484D+02      0.265967D+01      0.295929D+01
   zz         0.970780D+02      0.143855D+02      0.160060D+02

 ----------------------------------------------------------------------

 Dipole orientation:
     6         -1.41998927         -2.40856678         -0.83421482
     6         -0.00195513          0.00214508         -0.00305388
     9         -1.32357659          2.05263685         -0.54521237
     9          0.43329758         -0.09323649          2.50244926
    16          3.38904023          0.18785933         -1.32064535
     8          4.24352695          0.59693552          3.65087709
     8          3.27107021         -0.01219496         -4.05664460
     8          3.78596989          3.12236712         -0.59363961
     9         -2.08285413         -2.22830541         -3.23739152
     9          0.09396962         -4.39860235         -0.53381922
     9         -3.47970029         -2.73693715          0.56260966
     1          4.37359722          3.07762375          1.16790277

 Electric dipole moment (dipole orientation):
 (Debye = 10**-18 statcoulomb cm , SI units = C m)
                  (au)            (Debye)         (10**-30 SI)
   Tot        0.415894D+00      0.105710D+01      0.352610D+01
   x          0.000000D+00      0.000000D+00      0.000000D+00
   y          0.000000D+00      0.000000D+00      0.000000D+00
   z          0.415894D+00      0.105710D+01      0.352610D+01

 Dipole polarizability, Alpha (dipole orientation).
 (esu units = cm**3 , SI units = C**2 m**2 J**-1)
 Alpha(0;0):
               (au)            (10**-24 esu)      (10**-40 SI)
   iso        0.743670D+02      0.110200D+02      0.122615D+02
   aniso      0.471341D+02      0.698455D+01      0.777136D+01
   xx         0.675192D+02      0.100053D+02      0.111324D+02
   yx         0.691638D+01      0.102490D+01      0.114036D+01
   yy         0.549882D+02      0.814841D+01      0.906632D+01
   zx         0.111235D+02      0.164833D+01      0.183401D+01
   zy         0.372004D+01      0.551252D+00      0.613351D+00
   zz         0.100594D+03      0.149064D+02      0.165856D+02

 ----------------------------------------------------------------------
 Unable to Open any file for archive entry.
 1\1\GINC-SPARTAN-BM170\Freq\RwB97XD\6-311++G(d,p)\C2H1F5O3S1\AKHALILOV
 \23-May-2025\0\\#P wb97xd/6-311++G(d,p) Symm(None) scf(xqc) pop(None) 
 opt(NoFreeze,TS,CalcAll,NoEigentest,MaxCycle=999)\\Gaussian input prep
 ared by ASE\\0,1\C,-0.6047593739,-1.3828626269,-0.3255359527\C,-0.0003
 199657,0.0006074099,-0.0021211323\F,-0.4919586581,0.9322830799,-0.8015
 508856\F,-0.2684713081,0.3182274316,1.2787777219\S,1.9273227031,0.0005
 195585,-0.0014697457\O,1.4069190594,0.9351809488,2.4537504067\O,2.3879
 127227,-0.4915595533,-1.2887251819\O,2.0629414696,1.6083540961,0.00302
 84579\F,-0.466023172,-1.6489439116,-1.6136861828\F,0.0295617212,-2.312
 7496522,0.3879357883\F,-1.8957196983,-1.408196939,-0.0135443002\H,2.01
 37242896,1.8506441916,0.9543783529\\Version=ES64L-G16RevC.01\HF=-1199.
 5964997\RMSD=5.137e-09\RMSF=1.746e-06\ZeroPoint=0.0470231\Thermal=0.05
 78214\ETot=-1199.5386783\HTot=-1199.5377341\GTot=-1199.5870739\Dipole=
 -0.1505518,0.111173,0.3714066\DipoleDeriv=1.7462875,-0.0174574,0.04017
 85,0.3703011,1.5796684,0.1326355,0.1153454,-0.0286249,1.5990634,0.6672
 408,0.0773749,0.7598438,-0.4671123,0.6674167,-0.3462644,0.1121382,-0.3
 853373,0.3482026,-0.5295081,0.0832887,-0.3959123,0.3311319,-0.5045052,
 0.3664036,-0.3065795,0.1794037,-0.4265921,-0.4919758,-0.0391243,0.1797
 056,-0.0489651,-0.1954046,0.157402,-0.0717979,0.1433988,0.1776581,1.00
 97652,0.0691811,0.1451773,0.2020386,1.1905971,-0.7113168,-0.408101,0.3
 663432,1.17543,0.0571009,-0.1203179,-0.564794,-0.0095524,-0.1929045,0.
 0276222,0.0716248,0.1516383,0.0982549,-0.5471341,0.0633114,0.0308672,0
 .1068377,-0.4480116,0.0079532,0.5373254,-0.4443427,-1.2376947,-0.44558
 46,-0.0955449,-0.1300384,-0.3402446,-1.0099548,0.3074273,0.0070806,0.0
 134263,-0.2564969,-0.2999439,-0.0450712,-0.0072529,-0.08385,-0.3672612
 ,-0.1990632,-0.0341599,-0.1213126,-0.8188292,-0.4293932,0.1098215,-0.1
 61282,0.1160556,-0.6915352,0.2167602,-0.1547026,0.2047413,-0.4111906,-
 1.0681116,-0.1399004,0.0156663,-0.2161642,-0.3892647,-0.0536675,0.1202
 754,-0.0000301,-0.2750177,0.331257,0.0544385,0.0878409,0.0395238,0.361
 1596,0.0941078,0.0115511,-0.079304,0.0272121\Polar=64.8451736,3.712667
 6,61.1777629,-3.7955587,17.9483663,97.0780137\PG=Unknown\NImag=1\\0.55
 203007,0.01774761,0.57399333,0.00487127,0.01084565,0.56670258,-0.08031
 941,-0.03309880,-0.00205975,0.37049440,-0.06869823,-0.15442909,-0.0252
 1885,-0.02905613,0.55384382,-0.01513242,-0.02637818,-0.04295167,0.0549
 9279,-0.01049918,0.47597722,0.00106821,-0.00186522,0.00020560,-0.10218
 710,0.08309087,-0.06694801,0.10042706,0.02933773,-0.02829158,0.0339870
 6,0.07345650,-0.22471139,0.10201449,-0.09311656,0.25433563,-0.00570574
 ,0.00877860,-0.00790030,-0.05706281,0.11044039,-0.13940473,0.08251921,
 -0.15805106,0.20871068,0.00027151,-0.00227506,-0.00858313,-0.08292723,
 0.01780209,0.05876946,0.01304442,-0.00385257,-0.01899978,0.09754075,0.
 01378362,-0.00190985,-0.03535198,0.00396088,-0.09198725,-0.04670571,-0
 .00290952,0.01229764,0.03323267,-0.01976988,0.08367355,0.01170793,-0.0
 0456348,-0.03619596,0.01556531,-0.06944618,-0.20239078,0.00298730,0.01
 850981,-0.07038514,-0.06691754,0.05459275,0.31038566,-0.01331687,-0.01
 801826,-0.00661248,-0.09443545,0.02347759,-0.01877479,-0.01801254,0.00
 469838,-0.00801110,-0.02314644,-0.01030971,-0.01624965,0.25334146,-0.0
 2365746,0.01085737,0.00282425,0.00216540,-0.02191501,-0.02513755,0.014
 96693,-0.01079136,0.00883077,0.02172556,0.01512624,0.02966457,-0.01339
 440,0.35990143,-0.00796247,0.00807894,0.01722988,-0.00901085,-0.001316
 25,-0.03815692,-0.03088459,0.01618593,-0.01016500,0.03749226,-0.005488
 45,-0.01715541,-0.12022122,0.13831823,0.65021298,0.00117543,0.00001059
 ,0.00137889,0.01809683,-0.00174475,-0.02790085,-0.00554344,0.00190921,
 0.00295591,-0.00216653,0.01120258,0.03217682,0.02395272,-0.03753772,-0
 .00508348,-0.01968781,0.00015369,0.00099824,0.00053633,0.00102408,-0.0
 0344718,-0.00502026,-0.00041788,0.00124529,-0.00007844,-0.00192371,-0.
 00344866,-0.00150902,-0.00467955,-0.00900360,-0.00193137,0.00492577,0.
 00783159,0.00032658,-0.00053633,0.00037447,-0.00629560,-0.00173704,-0.
 00524535,-0.00007473,-0.00015752,0.00052450,0.00248070,-0.00297922,-0.
 00990093,-0.00248097,0.01500915,-0.00742363,0.00337046,0.00411357,0.04
 058172,0.00232655,0.00391622,-0.00223131,0.01083971,0.00265704,0.02355
 639,0.00156725,-0.00050473,-0.00174357,-0.00853067,0.00538000,0.015673
 81,-0.10229144,0.05187918,0.13926519,-0.00720476,0.00025462,0.00094861
 ,0.10072458,0.00423753,-0.00647071,-0.00309154,0.00337114,0.00215948,-
 0.00114728,0.00039835,0.00009595,0.00141988,-0.00159060,-0.00125947,-0
 .00606430,0.04434153,-0.10369745,-0.13336595,0.00465663,0.00184010,-0.
 00187517,-0.06484199,0.11825934,0.00394750,-0.00993999,-0.01006625,0.0
 0912157,0.00187840,-0.01131685,0.00772073,-0.00660071,0.00842976,0.003
 23888,0.00730456,0.01502457,0.16620212,-0.18097589,-0.51123724,-0.0127
 1113,-0.00075975,0.00092117,-0.17777952,0.18419023,0.49445104,-0.00243
 841,0.00507051,0.00193365,-0.00089016,-0.02225456,-0.00100705,0.002832
 43,-0.00491606,0.00214546,0.00193015,0.00203563,0.00306540,-0.03669879
 ,-0.02105634,-0.00141898,-0.00159727,-0.00020888,0.00675711,0.00415024
 ,0.01023330,0.00009777,0.04460040,0.00197577,0.00450692,0.00249600,-0.
 01136304,-0.02695632,0.00896860,0.00227372,0.00759673,-0.00274985,-0.0
 0341046,-0.00310587,-0.01252100,-0.03515690,-0.21883420,0.02478804,0.0
 1393521,0.00614952,-0.00769764,0.00429777,-0.00570128,-0.00362437,0.03
 250167,0.29947177,-0.00145417,0.00201090,-0.00178488,-0.00915957,-0.00
 765435,0.00556735,0.00436928,-0.00317170,0.00173047,-0.00242248,-0.002
 20089,-0.00360137,0.00203503,0.04557970,-0.07554772,0.01636353,0.01332
 942,-0.02759239,0.00223336,-0.04841949,0.00790633,-0.02601264,0.081225
 04,0.50007917,-0.07719776,-0.00104862,0.01029135,0.00843516,0.00046257
 ,-0.00956698,0.00061350,-0.00205534,0.00112852,-0.00010598,-0.00350782
 ,-0.00250152,-0.00036433,0.00234183,0.00228975,-0.00007980,-0.00000819
 ,-0.00001566,-0.00160033,-0.00138801,-0.00201565,0.00042341,-0.0005849
 8,-0.00002457,0.08473685,-0.00144393,-0.10446996,-0.06394585,0.0030350
 7,-0.00065780,-0.03212034,-0.00055998,0.00038834,-0.00133023,-0.003774
 82,-0.00860075,-0.00808922,0.00149803,-0.00057227,-0.00141037,0.001781
 18,-0.00013208,0.00036647,-0.00122109,0.00102760,0.00234603,-0.0006807
 0,-0.00084713,-0.00015309,-0.01079848,0.08729770,0.00780924,-0.0708977
 6,-0.28076676,0.00169345,-0.00206633,-0.03343939,0.00103461,-0.0027485
 6,0.00552346,-0.00439626,-0.00758740,-0.00511323,0.00241839,0.00036174
 ,-0.00616767,0.00241693,-0.00036651,0.00035231,0.00034247,0.00139264,0
 .00616592,-0.00089667,-0.00166480,0.00059236,-0.03627832,0.06897107,0.
 41764226,-0.10666817,0.06087949,-0.03894941,0.00393802,0.00086337,-0.0
 0316500,0.00177028,-0.00169363,0.00079311,0.00119601,-0.00034021,0.001
 04044,0.00043471,0.00241312,0.00041752,-0.00084455,-0.00008317,-0.0000
 8690,-0.00006259,-0.00163351,-0.00085214,0.00016678,-0.00064812,0.0009
 5024,0.00895941,0.00477841,-0.01905004,0.15265139,0.05701167,-0.210486
 85,0.07372327,0.02601633,-0.02939189,0.03171514,-0.00365736,-0.0135887
 0,-0.00026206,-0.00167797,-0.00076044,-0.00333580,0.00258093,-0.003342
 55,-0.00138085,0.00035788,0.00015769,0.00034763,-0.00128740,0.00148488
 ,0.00198626,-0.00080952,0.00002168,-0.00031265,0.00275345,0.01256618,0
 .02224652,-0.11270448,0.24131577,-0.03886381,0.07729873,-0.12151819,-0
 .00713245,0.00706974,-0.00374651,0.00141331,0.00066106,0.00170165,0.00
 080250,0.00072473,0.00478289,-0.00060159,0.00091930,-0.00262419,0.0000
 5432,-0.00010782,-0.00014263,0.00089302,0.00007454,0.00098165,0.000127
 99,-0.00049078,0.00080978,-0.02472433,0.03924059,-0.06767116,0.0818497
 5,-0.12854962,0.17478908,-0.27660243,-0.03115857,0.03961136,-0.0479314
 8,-0.00222800,0.00648393,0.00418835,-0.00386153,0.00130143,0.00451863,
 0.00102475,0.00181433,0.00828343,-0.00293703,-0.00236459,-0.00251179,-
 0.00058436,-0.00010158,-0.00161540,0.00071382,0.00099182,-0.00205401,-
 0.00297265,-0.00032658,-0.02390745,0.00712512,0.04469255,-0.06152757,0
 .03110534,-0.01380020,0.39929249,-0.02957685,-0.08379491,0.00380762,-0
 .03720949,-0.00161422,0.00345612,0.00027164,0.00218339,-0.00085053,-0.
 00002309,0.00118307,0.00224817,0.00551303,-0.00472371,-0.00304542,-0.0
 0082579,-0.00025470,0.00000250,-0.00099839,0.00174937,0.00269875,-0.00
 187873,-0.00155999,-0.00073363,0.01372619,0.01381040,-0.00799123,0.047
 82622,0.00185709,0.00300316,0.00322561,0.07103088,0.04049405,0.0046290
 4,-0.08300070,0.00054809,-0.00120339,0.00263131,0.00021310,-0.00197729
 ,0.00145965,-0.00237618,0.00086269,0.00360987,-0.00024684,-0.00000384,
 -0.00173086,0.00044617,0.00004016,-0.00010172,0.00042974,0.00038714,0.
 00142893,-0.00000433,-0.00017754,0.00022070,0.06140405,-0.00396616,-0.
 03728127,-0.02296414,0.00394065,0.01250446,-0.07794597,-0.00252574,0.1
 0008304,-0.00032873,-0.00015989,0.00014396,-0.00311329,-0.00437186,-0.
 00130748,0.00023158,0.00059860,0.00067934,-0.00162461,-0.00055032,0.00
 163738,0.00225354,0.00309093,-0.00251855,-0.00358903,0.00154757,-0.004
 82800,0.00169686,0.00150180,0.00203805,-0.01042477,-0.00084799,0.01344
 858,0.00008732,0.00026118,0.00021364,-0.00001371,0.00031114,-0.0000185
 1,-0.00013278,-0.00005036,0.00000228,0.01495764,-0.00087116,-0.0005029
 1,-0.00061195,-0.00230195,-0.00089315,0.00085415,0.00152503,-0.0007599
 4,0.00061987,-0.00122949,-0.00120820,0.00051369,-0.00055067,-0.0130048
 9,-0.03943248,0.00132921,-0.00193620,-0.00485639,0.00046876,-0.0094878
 0,0.00149647,0.00196368,-0.06074182,-0.07949927,0.00010738,0.00018977,
 0.00035062,0.00034250,0.00016716,0.00015636,0.00054750,0.00013333,-0.0
 0000572,-0.00133080,0.08804466,-0.00003796,0.00067389,-0.00012222,0.00
 879981,-0.00024696,-0.00752368,-0.00255580,0.00134849,-0.00022501,0.00
 091158,0.00359624,0.01093984,0.00254310,-0.03539043,0.00276578,-0.0134
 6758,-0.00824631,0.00765247,-0.00158819,0.00649931,-0.00268903,0.01521
 230,-0.08855170,-0.40837978,0.00001336,0.00009109,0.00016316,0.0000165
 6,-0.00011850,0.00013317,-0.00035649,-0.00006977,0.00017659,-0.0094906
 8,0.12041465,0.39710871\\0.00000178,-0.00000156,0.00000033,-0.00000045
 ,-0.00000065,0.00000057,-0.00000235,-0.00000154,0.00000066,0.00000040,
 -0.00000128,-0.00000034,-0.00000038,0.00000221,-0.00000092,-0.00000091
 ,0.00000069,0.00000003,-0.00000067,0.00000307,-0.00000107,-0.00000344,
 0.00000257,-0.00000013,0.00000160,-0.00000136,0.00000064,0.00000405,-0
 .00000076,0.,0.00000221,-0.00000398,0.00000145,-0.00000183,0.00000259,
 -0.00000122\\\@
 The archive entry for this job was punched.


 EVANS BOLDLY PUT 50 ATM. OF ETHYLENE IN A CELL WITH 25 ATM. OF OXYGEN.
 THE APPARATUS SUBSEQUENTLY BLEW UP, BUT LUCKILY NOT BEFORE HE
 OBTAINED THE SPECTRA SHOWN IN FIGURE 8.
 A.J.MERER AND R.S.MULLIKEN, CHEM.REV. 69, 645 (1969)
 Job cpu time:       0 days  0 hours 22 minutes 35.7 seconds.
 Elapsed time:       0 days  0 hours  3 minutes  9.6 seconds.
 File lengths (MBytes):  RWF=    102 Int=      0 D2E=      0 Chk=      6 Scr=      1
 Normal termination of Gaussian 16 at Fri May 23 07:35:12 2025.
done
