 Entering Gaussian System, Link 0=g16
 Initial command:
 /apps/easybuild-2022/easybuild/software/Compiler/NVHPC/22.11-CUDA-11.7.0/Gaussian/g16c01-CUDA-11.7.0/g16/l1.exe "/tmp/Gau-283891.inp" -scrdir="/tmp/"
 Entering Link 1 = /apps/easybuild-2022/easybuild/software/Compiler/NVHPC/22.11-CUDA-11.7.0/Gaussian/g16c01-CUDA-11.7.0/g16/l1.exe PID=    283892.
  
 Copyright (c) 1988-2019, Gaussian, Inc.  All Rights Reserved.
  
 This is part of the Gaussian(R) 16 program.  It is based on
 the Gaussian(R) 09 system (copyright 2009, Gaussian, Inc.),
 the Gaussian(R) 03 system (copyright 2003, Gaussian, Inc.),
 the Gaussian(R) 98 system (copyright 1998, Gaussian, Inc.),
 the Gaussian(R) 94 system (copyright 1995, Gaussian, Inc.),
 the Gaussian 92(TM) system (copyright 1992, Gaussian, Inc.),
 the Gaussian 90(TM) system (copyright 1990, Gaussian, Inc.),
 the Gaussian 88(TM) system (copyright 1988, Gaussian, Inc.),
 the Gaussian 86(TM) system (copyright 1986, Carnegie Mellon
 University), and the Gaussian 82(TM) system (copyright 1983,
 Carnegie Mellon University). Gaussian is a federally registered
 trademark of Gaussian, Inc.
  
 This software contains proprietary and confidential information,
 including trade secrets, belonging to Gaussian, Inc.
  
 This software is provided under written license and may be
 used, copied, transmitted, or stored only in accord with that
 written license.
  
 The following legend is applicable only to US Government
 contracts under FAR:
  
                    RESTRICTED RIGHTS LEGEND
  
 Use, reproduction and disclosure by the US Government is
 subject to restrictions as set forth in subparagraphs (a)
 and (c) of the Commercial Computer Software - Restricted
 Rights clause in FAR 52.227-19.
  
 Gaussian, Inc.
 340 Quinnipiac St., Bldg. 40, Wallingford CT 06492
  
  
 ---------------------------------------------------------------
 Warning -- This program may not be used in any manner that
 competes with the business of Gaussian, Inc. or will provide
 assistance to any competitor of Gaussian, Inc.  The licensee
 of this program is prohibited from giving any competitor of
 Gaussian, Inc. access to this program.  By using this program,
 the user acknowledges that Gaussian, Inc. is engaged in the
 business of creating and licensing software in the field of
 computational chemistry and represents and warrants to the
 licensee that it is not a competitor of Gaussian, Inc. and that
 it will not use this program in any manner prohibited above.
 ---------------------------------------------------------------
  

 Cite this work as:
 Gaussian 16, Revision C.01,
 M. J. Frisch, G. W. Trucks, H. B. Schlegel, G. E. Scuseria, 
 M. A. Robb, J. R. Cheeseman, G. Scalmani, V. Barone, 
 G. A. Petersson, H. Nakatsuji, X. Li, M. Caricato, A. V. Marenich, 
 J. Bloino, B. G. Janesko, R. Gomperts, B. Mennucci, H. P. Hratchian, 
 J. V. Ortiz, A. F. Izmaylov, J. L. Sonnenberg, D. Williams-Young, 
 F. Ding, F. Lipparini, F. Egidi, J. Goings, B. Peng, A. Petrone, 
 T. Henderson, D. Ranasinghe, V. G. Zakrzewski, J. Gao, N. Rega, 
 G. Zheng, W. Liang, M. Hada, M. Ehara, K. Toyota, R. Fukuda, 
 J. Hasegawa, M. Ishida, T. Nakajima, Y. Honda, O. Kitao, H. Nakai, 
 T. Vreven, K. Throssell, J. A. Montgomery, Jr., J. E. Peralta, 
 F. Ogliaro, M. J. Bearpark, J. J. Heyd, E. N. Brothers, K. N. Kudin, 
 V. N. Staroverov, T. A. Keith, R. Kobayashi, J. Normand, 
 K. Raghavachari, A. P. Rendell, J. C. Burant, S. S. Iyengar, 
 J. Tomasi, M. Cossi, J. M. Millam, M. Klene, C. Adamo, R. Cammi, 
 J. W. Ochterski, R. L. Martin, K. Morokuma, O. Farkas, 
 J. B. Foresman, and D. J. Fox, Gaussian, Inc., Wallingford CT, 2019.
 
 ******************************************
 Gaussian 16:  ES64L-G16RevC.01  3-Jul-2019
                23-May-2025 
 ******************************************
 %mem=28GB
 %nprocshared=8
 Will use up to    8 processors via shared memory.
 ----------------------------------------------------------------------
 #P wb97xd/6-311++G(d,p) Symm(None) scf(xqc) pop(None) freq opt(CalcFC,
  Tight)
 ----------------------------------------------------------------------
 1/7=10,10=4,18=20,19=15,26=3,38=1/1,3;
 2/9=110,12=2,15=3,17=6,18=5,40=1/2;
 3/5=4,6=6,7=1111,11=2,25=1,30=1,71=2,74=-58,140=1/1,2,3;
 4//1;
 5/5=2,8=3,13=1,38=5/2,8;
 8/6=4,10=90,11=11/1;
 11/6=1,8=1,9=11,15=111,16=1,31=1/1,2,10;
 10/6=1,13=1,31=1/2;
 7/10=1,25=1,30=1/1,2,3,16;
 1/7=10,10=4,18=20,19=15,26=3/3(2);
 2/9=110,15=3/2;
 99//99;
 2/9=110,15=3/2;
 3/5=4,6=6,7=1111,11=2,25=1,30=1,71=1,74=-58/1,2,3;
 4/5=5,16=3,69=1/1;
 5/5=2,8=3,13=1,38=5/2,8;
 7/30=1/1,2,3,16;
 1/7=10,18=20,19=15,26=3/3(-5);
 2/9=110,15=3/2;
 99/9=1/99;
 Leave Link    1 at Fri May 23 05:20:29 2025, MaxMem=  3758096384 cpu:               0.1 elap:               0.0
 (Enter /apps/easybuild-2022/easybuild/software/Compiler/NVHPC/22.11-CUDA-11.7.0/Gaussian/g16c01-CUDA-11.7.0/g16/l101.exe)
 ------------------------------
 Gaussian input prepared by ASE
 ------------------------------
 Symbolic Z-matrix:
 Charge =  0 Multiplicity = 1
 C                     3.8758    0.20244   2.84206 
 C                     2.95785   0.1888    1.59158 
 F                     3.70891   0.09497   0.4976 
 F                     2.13689  -0.86374   1.67535 
 S                     1.85765   1.75644   1.53911 
 O                     0.96567   0.        0. 
 O                     2.80924   2.86158   1.45346 
 O                     1.24224   1.39434   0. 
 F                     4.82385   1.1178    2.72526 
 F                     3.13938   0.47507   3.92367 
 F                     4.442    -0.98837   3.00126 
 H                     0.        0.        0. 
 
 ITRead=  0  0  0  0  0  0  0  0  0  0  0  0
 MicOpt= -1 -1 -1 -1 -1 -1 -1 -1 -1 -1 -1 -1
 NAtoms=     12 NQM=       12 NQMF=       0 NMMI=      0 NMMIF=      0
                NMic=       0 NMicF=      0.
                    Isotopes and Nuclear Properties:
 (Nuclear quadrupole moments (NQMom) in fm**2, nuclear magnetic moments (NMagM)
  in nuclear magnetons)

  Atom         1           2           3           4           5           6           7           8           9          10
 IAtWgt=          12          12          19          19          32          16          16          16          19          19
 AtmWgt=  12.0000000  12.0000000  18.9984032  18.9984032  31.9720718  15.9949146  15.9949146  15.9949146  18.9984032  18.9984032
 NucSpn=           0           0           1           1           0           0           0           0           1           1
 AtZEff=  -0.0000000  -0.0000000  -0.0000000  -0.0000000  -0.0000000  -0.0000000  -0.0000000  -0.0000000  -0.0000000  -0.0000000
 NQMom=    0.0000000   0.0000000   0.0000000   0.0000000   0.0000000   0.0000000   0.0000000   0.0000000   0.0000000   0.0000000
 NMagM=    0.0000000   0.0000000   2.6288670   2.6288670   0.0000000   0.0000000   0.0000000   0.0000000   2.6288670   2.6288670
 AtZNuc=   6.0000000   6.0000000   9.0000000   9.0000000  16.0000000   8.0000000   8.0000000   8.0000000   9.0000000   9.0000000

  Atom        11          12
 IAtWgt=          19           1
 AtmWgt=  18.9984032   1.0078250
 NucSpn=           1           1
 AtZEff=  -0.0000000  -0.0000000
 NQMom=    0.0000000   0.0000000
 NMagM=    2.6288670   2.7928460
 AtZNuc=   9.0000000   1.0000000
 Leave Link  101 at Fri May 23 05:20:29 2025, MaxMem=  3758096384 cpu:               0.3 elap:               0.2
 (Enter /apps/easybuild-2022/easybuild/software/Compiler/NVHPC/22.11-CUDA-11.7.0/Gaussian/g16c01-CUDA-11.7.0/g16/l103.exe)

 GradGradGradGradGradGradGradGradGradGradGradGradGradGradGradGradGradGrad
 Berny optimization.
 Initialization pass.
                           ----------------------------
                           !    Initial Parameters    !
                           ! (Angstroms and Degrees)  !
 --------------------------                            --------------------------
 ! Name  Definition              Value          Derivative Info.                !
 --------------------------------------------------------------------------------
 ! R1    R(1,2)                  1.5513         calculate D2E/DX2 analytically  !
 ! R2    R(1,9)                  1.323          calculate D2E/DX2 analytically  !
 ! R3    R(1,10)                 1.3366         calculate D2E/DX2 analytically  !
 ! R4    R(1,11)                 1.3281         calculate D2E/DX2 analytically  !
 ! R5    R(2,3)                  1.3303         calculate D2E/DX2 analytically  !
 ! R6    R(2,4)                  1.3375         calculate D2E/DX2 analytically  !
 ! R7    R(2,5)                  1.9159         calculate D2E/DX2 analytically  !
 ! R8    R(5,7)                  1.4609         calculate D2E/DX2 analytically  !
 ! R9    R(5,8)                  1.6967         calculate D2E/DX2 analytically  !
 ! R10   R(6,8)                  1.4215         calculate D2E/DX2 analytically  !
 ! R11   R(6,12)                 0.9657         calculate D2E/DX2 analytically  !
 ! A1    A(2,1,9)              111.036          calculate D2E/DX2 analytically  !
 ! A2    A(2,1,10)             109.1519         calculate D2E/DX2 analytically  !
 ! A3    A(2,1,11)             109.9378         calculate D2E/DX2 analytically  !
 ! A4    A(9,1,10)             108.9736         calculate D2E/DX2 analytically  !
 ! A5    A(9,1,11)             108.9918         calculate D2E/DX2 analytically  !
 ! A6    A(10,1,11)            108.7087         calculate D2E/DX2 analytically  !
 ! A7    A(1,2,3)              109.2341         calculate D2E/DX2 analytically  !
 ! A8    A(1,2,4)              108.6414         calculate D2E/DX2 analytically  !
 ! A9    A(1,2,5)              110.7739         calculate D2E/DX2 analytically  !
 ! A10   A(3,2,4)              110.0321         calculate D2E/DX2 analytically  !
 ! A11   A(3,2,5)              111.0636         calculate D2E/DX2 analytically  !
 ! A12   A(4,2,5)              107.0466         calculate D2E/DX2 analytically  !
 ! A13   A(2,5,7)              104.2723         calculate D2E/DX2 analytically  !
 ! A14   A(2,5,8)               93.3541         calculate D2E/DX2 analytically  !
 ! A15   A(7,5,8)              110.1532         calculate D2E/DX2 analytically  !
 ! A16   A(8,6,12)             101.219          calculate D2E/DX2 analytically  !
 ! A17   A(5,8,6)              106.2548         calculate D2E/DX2 analytically  !
 ! D1    D(9,1,2,3)             51.6637         calculate D2E/DX2 analytically  !
 ! D2    D(9,1,2,4)            171.7024         calculate D2E/DX2 analytically  !
 ! D3    D(9,1,2,5)            -70.9841         calculate D2E/DX2 analytically  !
 ! D4    D(10,1,2,3)           171.8175         calculate D2E/DX2 analytically  !
 ! D5    D(10,1,2,4)           -68.1438         calculate D2E/DX2 analytically  !
 ! D6    D(10,1,2,5)            49.1698         calculate D2E/DX2 analytically  !
 ! D7    D(11,1,2,3)           -69.0272         calculate D2E/DX2 analytically  !
 ! D8    D(11,1,2,4)            51.0115         calculate D2E/DX2 analytically  !
 ! D9    D(11,1,2,5)           168.325          calculate D2E/DX2 analytically  !
 ! D10   D(1,2,5,7)             61.5066         calculate D2E/DX2 analytically  !
 ! D11   D(1,2,5,8)            173.2853         calculate D2E/DX2 analytically  !
 ! D12   D(3,2,5,7)            -60.0716         calculate D2E/DX2 analytically  !
 ! D13   D(3,2,5,8)             51.7071         calculate D2E/DX2 analytically  !
 ! D14   D(4,2,5,7)            179.7939         calculate D2E/DX2 analytically  !
 ! D15   D(4,2,5,8)            -68.4274         calculate D2E/DX2 analytically  !
 ! D16   D(2,5,8,6)             42.4427         calculate D2E/DX2 analytically  !
 ! D17   D(7,5,8,6)            148.9758         calculate D2E/DX2 analytically  !
 ! D18   D(12,6,8,5)           109.1078         calculate D2E/DX2 analytically  !
 --------------------------------------------------------------------------------
 Trust Radius=3.00D-01 FncErr=1.00D-07 GrdErr=1.00D-06 EigMax=2.50D+02 EigMin=1.00D-04
 Number of steps in this run=     56 maximum allowed number of steps=    100.
 GradGradGradGradGradGradGradGradGradGradGradGradGradGradGradGradGradGrad

 Leave Link  103 at Fri May 23 05:20:29 2025, MaxMem=  3758096384 cpu:               0.1 elap:               0.0
 (Enter /apps/easybuild-2022/easybuild/software/Compiler/NVHPC/22.11-CUDA-11.7.0/Gaussian/g16c01-CUDA-11.7.0/g16/l202.exe)
                          Input orientation:                          
 ---------------------------------------------------------------------
 Center     Atomic      Atomic             Coordinates (Angstroms)
 Number     Number       Type             X           Y           Z
 ---------------------------------------------------------------------
      1          6           0        3.875800    0.202443    2.842057
      2          6           0        2.957847    0.188801    1.591577
      3          9           0        3.708909    0.094968    0.497601
      4          9           0        2.136891   -0.863740    1.675349
      5         16           0        1.857649    1.756436    1.539108
      6          8           0        0.965673    0.000000    0.000000
      7          8           0        2.809239    2.861582    1.453462
      8          8           0        1.242239    1.394335    0.000000
      9          9           0        4.823852    1.117801    2.725263
     10          9           0        3.139379    0.475067    3.923670
     11          9           0        4.441999   -0.988371    3.001259
     12          1           0        0.000000    0.000000    0.000000
 ---------------------------------------------------------------------
                    Distance matrix (angstroms):
                    1          2          3          4          5
     1  C    0.000000
     2  C    1.551298   0.000000
     3  F    2.352845   1.330294   0.000000
     4  F    2.349843   1.337472   2.185738   0.000000
     5  S    2.861032   1.915899   2.696735   2.638534   0.000000
     6  O    4.072728   2.556857   2.789617   2.219142   2.499908
     7  O    3.183829   2.680470   3.062227   3.792007   1.460892
     8  O    4.053830   2.632440   2.832035   2.950611   1.696673
     9  F    1.322998   2.372817   2.692910   3.499798   3.257788
    10  F    1.336609   2.356599   3.493821   2.802202   2.995142
    11  F    1.328143   2.361281   2.824774   2.662160   4.043602
    12  H    4.810416   3.364167   3.743344   2.849411   2.984088
                    6          7          8          9         10
     6  O    0.000000
     7  O    3.701343   0.000000
     8  O    1.421499   2.592461   0.000000
     9  F    4.854079   2.952443   4.509044   0.000000
    10  F    4.510640   3.450561   4.454142   2.164886   0.000000
    11  F    4.697795   4.459117   4.992325   2.158227   2.165482
    12  H    0.965673   4.265329   1.867439   5.652087   5.047433
                   11         12
    11  F    0.000000
    12  H    5.451219   0.000000
 Symmetry turned off by external request.
 Stoichiometry    C2HF5O3S
 Rotational constants (GHZ):           1.5654222           0.8340731           0.6960378
 Leave Link  202 at Fri May 23 05:20:29 2025, MaxMem=  3758096384 cpu:               0.1 elap:               0.0
 (Enter /apps/easybuild-2022/easybuild/software/Compiler/NVHPC/22.11-CUDA-11.7.0/Gaussian/g16c01-CUDA-11.7.0/g16/l301.exe)
 Standard basis: 6-311++G(d,p) (5D, 7F)
 Ernie: Thresh=  0.10000D-02 Tol=  0.10000D-05 Strict=F.
   257 basis functions,   419 primitive gaussians,   268 cartesian basis functions
    49 alpha electrons       49 beta electrons
       nuclear repulsion energy       903.2164705276 Hartrees.
 IExCor= 4639 DFT=T Ex+Corr=wB97XD ExCW=0 ScaHFX=  1.000000
 ScaDFX=  1.000000  1.000000  1.000000  1.000000 ScalE2=  1.000000  1.000000
 IRadAn=      5 IRanWt=     -1 IRanGd=            0 ICorTp=0 IEmpDi=121
 HFx  wShort=  0.000000 wLong=  0.200000 cFull=  0.222036 cShort=  0.000000 cLong=  0.777964
 DFx  wShort=  0.000000 wLong=  0.200000 cFull=  0.000000 cShort=  0.000000 cLong=  1.000000
 NAtoms=   12 NActive=   12 NUniq=   12 SFac= 1.00D+00 NAtFMM=   60 NAOKFM=F Big=F
 Integral buffers will be    131072 words long.
 Raffenetti 2 integral format.
 Two-electron integral symmetry is turned off.
 R6Disp:  Grimme-D2 Dispersion energy=       -0.0051507026 Hartrees.
 Nuclear repulsion after empirical dispersion term =      903.2113198250 Hartrees.
 Leave Link  301 at Fri May 23 05:20:29 2025, MaxMem=  3758096384 cpu:               0.0 elap:               0.0
 (Enter /apps/easybuild-2022/easybuild/software/Compiler/NVHPC/22.11-CUDA-11.7.0/Gaussian/g16c01-CUDA-11.7.0/g16/l302.exe)
 NPDir=0 NMtPBC=     1 NCelOv=     1 NCel=       1 NClECP=     1 NCelD=      1
         NCelK=      1 NCelE2=     1 NClLst=     1 CellRange=     0.0.
 One-electron integrals computed using PRISM.
 NBasis=   257 RedAO= T EigKep=  6.04D-05  NBF=   257
 NBsUse=   257 1.00D-06 EigRej= -1.00D+00 NBFU=   257
 Precomputing XC quadrature grid using
 IXCGrd= 4 IRadAn=           5 IRanWt=          -1 IRanGd=           0 AccXCQ= 0.00D+00.
 Generated NRdTot=       0 NPtTot=           0 NUsed=           0 NTot=          32
 NSgBfM=   268   268   268   268   268 MxSgAt=    12 MxSgA2=    12.
 Leave Link  302 at Fri May 23 05:20:30 2025, MaxMem=  3758096384 cpu:               0.6 elap:               0.1
 (Enter /apps/easybuild-2022/easybuild/software/Compiler/NVHPC/22.11-CUDA-11.7.0/Gaussian/g16c01-CUDA-11.7.0/g16/l303.exe)
 DipDrv:  MaxL=1.
 Leave Link  303 at Fri May 23 05:20:30 2025, MaxMem=  3758096384 cpu:               0.1 elap:               0.0
 (Enter /apps/easybuild-2022/easybuild/software/Compiler/NVHPC/22.11-CUDA-11.7.0/Gaussian/g16c01-CUDA-11.7.0/g16/l401.exe)
 ExpMin= 3.60D-02 ExpMax= 9.34D+04 ExpMxC= 3.17D+03 IAcc=3 IRadAn=         5 AccDes= 0.00D+00
 Harris functional with IExCor= 4639 and IRadAn=       5 diagonalized for initial guess.
 HarFok:  IExCor= 4639 AccDes= 0.00D+00 IRadAn=         5 IDoV= 1 UseB2=F ITyADJ=14
 ICtDFT=  3500011 ScaDFX=  1.000000  1.000000  1.000000  1.000000
 FoFCou: FMM=F IPFlag=           0 FMFlag=      100000 FMFlg1=           0
         NFxFlg=           0 DoJE=T BraDBF=F KetDBF=T FulRan=T
         wScrn=  0.000000 ICntrl=       500 IOpCl=  0 I1Cent=   200000004 NGrid=           0
         NMat0=    1 NMatS0=      1 NMatT0=    0 NMatD0=    1 NMtDS0=    0 NMtDT0=    0
 Symmetry not used in FoFCou.
 Harris En= -1167.02864689976    
 JPrj=0 DoOrth=F DoCkMO=F.
 Leave Link  401 at Fri May 23 05:20:30 2025, MaxMem=  3758096384 cpu:               2.5 elap:               0.4
 (Enter /apps/easybuild-2022/easybuild/software/Compiler/NVHPC/22.11-CUDA-11.7.0/Gaussian/g16c01-CUDA-11.7.0/g16/l502.exe)
 Keep R1 ints in memory in canonical form, NReq=1117474609.
 FoFCou: FMM=F IPFlag=           0 FMFlag=           0 FMFlg1=           0
         NFxFlg=           0 DoJE=F BraDBF=F KetDBF=F FulRan=T
         wScrn=  0.000000 ICntrl=       600 IOpCl=  0 I1Cent=           0 NGrid=           0
         NMat0=    1 NMatS0=  33153 NMatT0=    0 NMatD0=    1 NMtDS0=    0 NMtDT0=    0
 Symmetry not used in FoFCou.
 Two-electron integral symmetry not used.
 Closed shell SCF:
 Using DIIS extrapolation, IDIIS=  1040.
 NGot=  3758096384 LenX=  2658793876 LenY=  2658721611
 Requested convergence on RMS density matrix=1.00D-08 within  32 cycles.
 Requested convergence on MAX density matrix=1.00D-06.
 Requested convergence on             energy=1.00D-06.
 No special actions if energy rises.

 Cycle   1  Pass 1  IDiag  1:
 E= -1199.01268002819    
 DIIS: error= 1.06D-01 at cycle   1 NSaved=   1.
 NSaved= 1 IEnMin= 1 EnMin= -1199.01268002819     IErMin= 1 ErrMin= 1.06D-01
 ErrMax= 1.06D-01  0.00D+00 EMaxC= 1.00D-01 BMatC= 3.33D+00 BMatP= 3.33D+00
 IDIUse=3 WtCom= 0.00D+00 WtEn= 1.00D+00
 Coeff-Com:  0.100D+01
 Coeff-En:   0.100D+01
 Coeff:      0.100D+01
 Gap=     0.537 Goal=   None    Shift=    0.000
 GapD=    0.537 DampG=2.000 DampE=0.250 DampFc=0.5000 IDamp=-1.
 Damping current iteration by 5.00D-01
 RMSDP=7.28D-03 MaxDP=5.32D-01              OVMax= 2.42D-01

 Cycle   2  Pass 1  IDiag  1:
 E= -1199.36309214336     Delta-E=       -0.350412115170 Rises=F Damp=T
 DIIS: error= 4.56D-02 at cycle   2 NSaved=   2.
 NSaved= 2 IEnMin= 2 EnMin= -1199.36309214336     IErMin= 2 ErrMin= 4.56D-02
 ErrMax= 4.56D-02  0.00D+00 EMaxC= 1.00D-01 BMatC= 4.85D-01 BMatP= 3.33D+00
 IDIUse=3 WtCom= 5.44D-01 WtEn= 4.56D-01
 Coeff-Com: -0.376D+00 0.138D+01
 Coeff-En:   0.000D+00 0.100D+01
 Coeff:     -0.205D+00 0.120D+01
 Gap=     0.495 Goal=   None    Shift=    0.000
 RMSDP=3.68D-03 MaxDP=3.24D-01 DE=-3.50D-01 OVMax= 1.27D-01

 Cycle   3  Pass 1  IDiag  1:
 E= -1199.62046214733     Delta-E=       -0.257370003977 Rises=F Damp=F
 DIIS: error= 1.60D-02 at cycle   3 NSaved=   3.
 NSaved= 3 IEnMin= 3 EnMin= -1199.62046214733     IErMin= 3 ErrMin= 1.60D-02
 ErrMax= 1.60D-02  0.00D+00 EMaxC= 1.00D-01 BMatC= 1.40D-01 BMatP= 4.85D-01
 IDIUse=3 WtCom= 8.40D-01 WtEn= 1.60D-01
 Coeff-Com: -0.206D+00 0.601D+00 0.605D+00
 Coeff-En:   0.000D+00 0.000D+00 0.100D+01
 Coeff:     -0.173D+00 0.505D+00 0.668D+00
 Gap=     0.421 Goal=   None    Shift=    0.000
 RMSDP=2.40D-03 MaxDP=9.97D-02 DE=-2.57D-01 OVMax= 1.40D-01

 Cycle   4  Pass 1  IDiag  1:
 E= -1199.68404224599     Delta-E=       -0.063580098656 Rises=F Damp=F
 DIIS: error= 8.51D-03 at cycle   4 NSaved=   4.
 NSaved= 4 IEnMin= 4 EnMin= -1199.68404224599     IErMin= 4 ErrMin= 8.51D-03
 ErrMax= 8.51D-03  0.00D+00 EMaxC= 1.00D-01 BMatC= 4.40D-02 BMatP= 1.40D-01
 IDIUse=3 WtCom= 9.15D-01 WtEn= 8.51D-02
 Coeff-Com: -0.495D-01 0.122D+00 0.378D+00 0.550D+00
 Coeff-En:   0.000D+00 0.000D+00 0.269D+00 0.731D+00
 Coeff:     -0.453D-01 0.111D+00 0.369D+00 0.565D+00
 Gap=     0.384 Goal=   None    Shift=    0.000
 RMSDP=1.09D-03 MaxDP=5.31D-02 DE=-6.36D-02 OVMax= 4.30D-02

 Cycle   5  Pass 1  IDiag  1:
 E= -1199.71324210564     Delta-E=       -0.029199859646 Rises=F Damp=F
 DIIS: error= 2.38D-03 at cycle   5 NSaved=   5.
 NSaved= 5 IEnMin= 5 EnMin= -1199.71324210564     IErMin= 5 ErrMin= 2.38D-03
 ErrMax= 2.38D-03  0.00D+00 EMaxC= 1.00D-01 BMatC= 2.05D-03 BMatP= 4.40D-02
 IDIUse=3 WtCom= 9.76D-01 WtEn= 2.38D-02
 Coeff-Com: -0.101D-01 0.203D-01 0.150D+00 0.302D+00 0.537D+00
 Coeff-En:   0.000D+00 0.000D+00 0.000D+00 0.000D+00 0.100D+01
 Coeff:     -0.985D-02 0.198D-01 0.147D+00 0.295D+00 0.548D+00
 Gap=     0.372 Goal=   None    Shift=    0.000
 RMSDP=1.72D-04 MaxDP=4.29D-03 DE=-2.92D-02 OVMax= 5.61D-03

 Cycle   6  Pass 1  IDiag  1:
 E= -1199.71449588502     Delta-E=       -0.001253779387 Rises=F Damp=F
 DIIS: error= 3.67D-04 at cycle   6 NSaved=   6.
 NSaved= 6 IEnMin= 6 EnMin= -1199.71449588502     IErMin= 6 ErrMin= 3.67D-04
 ErrMax= 3.67D-04  0.00D+00 EMaxC= 1.00D-01 BMatC= 3.46D-05 BMatP= 2.05D-03
 IDIUse=3 WtCom= 9.96D-01 WtEn= 3.67D-03
 Coeff-Com:  0.287D-02-0.729D-02-0.108D-01 0.265D-02 0.109D+00 0.903D+00
 Coeff-En:   0.000D+00 0.000D+00 0.000D+00 0.000D+00 0.000D+00 0.100D+01
 Coeff:      0.286D-02-0.726D-02-0.107D-01 0.264D-02 0.109D+00 0.904D+00
 Gap=     0.372 Goal=   None    Shift=    0.000
 RMSDP=7.25D-05 MaxDP=3.58D-03 DE=-1.25D-03 OVMax= 2.54D-03

 Cycle   7  Pass 1  IDiag  1:
 E= -1199.71453464057     Delta-E=       -0.000038755548 Rises=F Damp=F
 DIIS: error= 8.18D-05 at cycle   7 NSaved=   7.
 NSaved= 7 IEnMin= 7 EnMin= -1199.71453464057     IErMin= 7 ErrMin= 8.18D-05
 ErrMax= 8.18D-05  0.00D+00 EMaxC= 1.00D-01 BMatC= 3.81D-06 BMatP= 3.46D-05
 IDIUse=1 WtCom= 1.00D+00 WtEn= 0.00D+00
 Coeff-Com:  0.147D-02-0.329D-02-0.111D-01-0.164D-01-0.410D-02 0.278D+00
 Coeff-Com:  0.756D+00
 Coeff:      0.147D-02-0.329D-02-0.111D-01-0.164D-01-0.410D-02 0.278D+00
 Coeff:      0.756D+00
 Gap=     0.372 Goal=   None    Shift=    0.000
 RMSDP=2.21D-05 MaxDP=1.14D-03 DE=-3.88D-05 OVMax= 8.50D-04

 Cycle   8  Pass 1  IDiag  1:
 E= -1199.71453831273     Delta-E=       -0.000003672160 Rises=F Damp=F
 DIIS: error= 5.52D-05 at cycle   8 NSaved=   8.
 NSaved= 8 IEnMin= 8 EnMin= -1199.71453831273     IErMin= 8 ErrMin= 5.52D-05
 ErrMax= 5.52D-05  0.00D+00 EMaxC= 1.00D-01 BMatC= 9.06D-07 BMatP= 3.81D-06
 IDIUse=1 WtCom= 1.00D+00 WtEn= 0.00D+00
 Coeff-Com:  0.441D-03-0.905D-03-0.464D-02-0.949D-02-0.178D-01 0.261D-01
 Coeff-Com:  0.358D+00 0.648D+00
 Coeff:      0.441D-03-0.905D-03-0.464D-02-0.949D-02-0.178D-01 0.261D-01
 Coeff:      0.358D+00 0.648D+00
 Gap=     0.372 Goal=   None    Shift=    0.000
 RMSDP=9.48D-06 MaxDP=4.54D-04 DE=-3.67D-06 OVMax= 4.12D-04

 Cycle   9  Pass 1  IDiag  1:
 E= -1199.71453915977     Delta-E=       -0.000000847035 Rises=F Damp=F
 DIIS: error= 2.20D-05 at cycle   9 NSaved=   9.
 NSaved= 9 IEnMin= 9 EnMin= -1199.71453915977     IErMin= 9 ErrMin= 2.20D-05
 ErrMax= 2.20D-05  0.00D+00 EMaxC= 1.00D-01 BMatC= 9.97D-08 BMatP= 9.06D-07
 IDIUse=1 WtCom= 1.00D+00 WtEn= 0.00D+00
 Coeff-Com: -0.670D-04 0.169D-03-0.713D-04-0.103D-02-0.612D-02-0.307D-01
 Coeff-Com:  0.267D-01 0.260D+00 0.751D+00
 Coeff:     -0.670D-04 0.169D-03-0.713D-04-0.103D-02-0.612D-02-0.307D-01
 Coeff:      0.267D-01 0.260D+00 0.751D+00
 Gap=     0.372 Goal=   None    Shift=    0.000
 RMSDP=4.35D-06 MaxDP=1.99D-04 DE=-8.47D-07 OVMax= 2.30D-04

 Cycle  10  Pass 1  IDiag  1:
 E= -1199.71453929910     Delta-E=       -0.000000139338 Rises=F Damp=F
 DIIS: error= 5.36D-06 at cycle  10 NSaved=  10.
 NSaved=10 IEnMin=10 EnMin= -1199.71453929910     IErMin=10 ErrMin= 5.36D-06
 ErrMax= 5.36D-06  0.00D+00 EMaxC= 1.00D-01 BMatC= 2.05D-08 BMatP= 9.97D-08
 IDIUse=1 WtCom= 1.00D+00 WtEn= 0.00D+00
 Coeff-Com: -0.936D-04 0.203D-03 0.593D-03 0.982D-03 0.954D-04-0.176D-01
 Coeff-Com: -0.482D-01 0.492D-02 0.341D+00 0.718D+00
 Coeff:     -0.936D-04 0.203D-03 0.593D-03 0.982D-03 0.954D-04-0.176D-01
 Coeff:     -0.482D-01 0.492D-02 0.341D+00 0.718D+00
 Gap=     0.372 Goal=   None    Shift=    0.000
 RMSDP=1.95D-06 MaxDP=8.06D-05 DE=-1.39D-07 OVMax= 1.09D-04

 Cycle  11  Pass 1  IDiag  1:
 E= -1199.71453933027     Delta-E=       -0.000000031170 Rises=F Damp=F
 DIIS: error= 1.83D-06 at cycle  11 NSaved=  11.
 NSaved=11 IEnMin=11 EnMin= -1199.71453933027     IErMin=11 ErrMin= 1.83D-06
 ErrMax= 1.83D-06  0.00D+00 EMaxC= 1.00D-01 BMatC= 2.00D-09 BMatP= 2.05D-08
 IDIUse=1 WtCom= 1.00D+00 WtEn= 0.00D+00
 Coeff-Com: -0.163D-04 0.335D-04 0.145D-03 0.427D-03 0.108D-02 0.819D-03
 Coeff-Com: -0.146D-01-0.423D-01-0.500D-01 0.194D+00 0.910D+00
 Coeff:     -0.163D-04 0.335D-04 0.145D-03 0.427D-03 0.108D-02 0.819D-03
 Coeff:     -0.146D-01-0.423D-01-0.500D-01 0.194D+00 0.910D+00
 Gap=     0.372 Goal=   None    Shift=    0.000
 RMSDP=8.38D-07 MaxDP=2.64D-05 DE=-3.12D-08 OVMax= 5.91D-05

 Cycle  12  Pass 1  IDiag  1:
 E= -1199.71453933495     Delta-E=       -0.000000004679 Rises=F Damp=F
 DIIS: error= 7.05D-07 at cycle  12 NSaved=  12.
 NSaved=12 IEnMin=12 EnMin= -1199.71453933495     IErMin=12 ErrMin= 7.05D-07
 ErrMax= 7.05D-07  0.00D+00 EMaxC= 1.00D-01 BMatC= 3.95D-10 BMatP= 2.00D-09
 IDIUse=1 WtCom= 1.00D+00 WtEn= 0.00D+00
 Coeff-Com:  0.470D-05-0.103D-04-0.149D-04 0.296D-04 0.373D-03 0.218D-02
 Coeff-Com:  0.147D-02-0.149D-01-0.697D-01-0.433D-02 0.364D+00 0.721D+00
 Coeff:      0.470D-05-0.103D-04-0.149D-04 0.296D-04 0.373D-03 0.218D-02
 Coeff:      0.147D-02-0.149D-01-0.697D-01-0.433D-02 0.364D+00 0.721D+00
 Gap=     0.372 Goal=   None    Shift=    0.000
 RMSDP=2.64D-07 MaxDP=1.07D-05 DE=-4.68D-09 OVMax= 1.87D-05

 Cycle  13  Pass 1  IDiag  1:
 E= -1199.71453933554     Delta-E=       -0.000000000590 Rises=F Damp=F
 DIIS: error= 3.61D-07 at cycle  13 NSaved=  13.
 NSaved=13 IEnMin=13 EnMin= -1199.71453933554     IErMin=13 ErrMin= 3.61D-07
 ErrMax= 3.61D-07  0.00D+00 EMaxC= 1.00D-01 BMatC= 3.69D-11 BMatP= 3.95D-10
 IDIUse=1 WtCom= 1.00D+00 WtEn= 0.00D+00
 Coeff-Com:  0.406D-05-0.854D-05-0.188D-04-0.606D-04-0.105D-03 0.104D-03
 Coeff-Com:  0.277D-02 0.537D-02-0.526D-02-0.261D-01-0.102D+00 0.471D-01
 Coeff-Com:  0.108D+01
 Coeff:      0.406D-05-0.854D-05-0.188D-04-0.606D-04-0.105D-03 0.104D-03
 Coeff:      0.277D-02 0.537D-02-0.526D-02-0.261D-01-0.102D+00 0.471D-01
 Coeff:      0.108D+01
 Gap=     0.372 Goal=   None    Shift=    0.000
 RMSDP=1.43D-07 MaxDP=4.67D-06 DE=-5.90D-10 OVMax= 1.17D-05

 Cycle  14  Pass 1  IDiag  1:
 E= -1199.71453933575     Delta-E=       -0.000000000209 Rises=F Damp=F
 DIIS: error= 1.09D-07 at cycle  14 NSaved=  14.
 NSaved=14 IEnMin=14 EnMin= -1199.71453933575     IErMin=14 ErrMin= 1.09D-07
 ErrMax= 1.09D-07  0.00D+00 EMaxC= 1.00D-01 BMatC= 6.03D-12 BMatP= 3.69D-11
 IDIUse=1 WtCom= 1.00D+00 WtEn= 0.00D+00
 Coeff-Com:  0.131D-05-0.276D-05-0.757D-05-0.276D-04-0.813D-04-0.140D-03
 Coeff-Com:  0.104D-02 0.326D-02 0.419D-02-0.883D-02-0.687D-01-0.598D-01
 Coeff-Com:  0.374D+00 0.755D+00
 Coeff:      0.131D-05-0.276D-05-0.757D-05-0.276D-04-0.813D-04-0.140D-03
 Coeff:      0.104D-02 0.326D-02 0.419D-02-0.883D-02-0.687D-01-0.598D-01
 Coeff:      0.374D+00 0.755D+00
 Gap=     0.372 Goal=   None    Shift=    0.000
 RMSDP=3.46D-08 MaxDP=8.98D-07 DE=-2.09D-10 OVMax= 2.94D-06

 Cycle  15  Pass 1  IDiag  1:
 E= -1199.71453933574     Delta-E=        0.000000000012 Rises=F Damp=F
 DIIS: error= 4.78D-08 at cycle  15 NSaved=  15.
 NSaved=15 IEnMin=14 EnMin= -1199.71453933575     IErMin=15 ErrMin= 4.78D-08
 ErrMax= 4.78D-08  0.00D+00 EMaxC= 1.00D-01 BMatC= 1.27D-12 BMatP= 6.03D-12
 IDIUse=1 WtCom= 1.00D+00 WtEn= 0.00D+00
 Coeff-Com: -0.291D-06 0.580D-06 0.249D-06 0.130D-05-0.131D-04-0.654D-04
 Coeff-Com: -0.807D-04 0.822D-04 0.230D-02 0.160D-02-0.505D-02-0.348D-01
 Coeff-Com: -0.678D-01 0.305D+00 0.799D+00
 Coeff:     -0.291D-06 0.580D-06 0.249D-06 0.130D-05-0.131D-04-0.654D-04
 Coeff:     -0.807D-04 0.822D-04 0.230D-02 0.160D-02-0.505D-02-0.348D-01
 Coeff:     -0.678D-01 0.305D+00 0.799D+00
 Gap=     0.372 Goal=   None    Shift=    0.000
 RMSDP=1.56D-08 MaxDP=4.41D-07 DE= 1.18D-11 OVMax= 1.16D-06

 Cycle  16  Pass 1  IDiag  1:
 E= -1199.71453933580     Delta-E=       -0.000000000063 Rises=F Damp=F
 DIIS: error= 7.90D-09 at cycle  16 NSaved=  16.
 NSaved=16 IEnMin=16 EnMin= -1199.71453933580     IErMin=16 ErrMin= 7.90D-09
 ErrMax= 7.90D-09  0.00D+00 EMaxC= 1.00D-01 BMatC= 4.23D-14 BMatP= 1.27D-12
 IDIUse=1 WtCom= 1.00D+00 WtEn= 0.00D+00
 Coeff-Com: -0.177D-06 0.373D-06 0.677D-06 0.251D-05 0.372D-05-0.559D-05
 Coeff-Com: -0.913D-04-0.244D-03 0.965D-05 0.988D-03 0.467D-02-0.208D-02
 Coeff-Com: -0.382D-01-0.949D-02 0.118D+00 0.927D+00
 Coeff:     -0.177D-06 0.373D-06 0.677D-06 0.251D-05 0.372D-05-0.559D-05
 Coeff:     -0.913D-04-0.244D-03 0.965D-05 0.988D-03 0.467D-02-0.208D-02
 Coeff:     -0.382D-01-0.949D-02 0.118D+00 0.927D+00
 Gap=     0.372 Goal=   None    Shift=    0.000
 RMSDP=3.89D-09 MaxDP=1.09D-07 DE=-6.28D-11 OVMax= 2.62D-07

 SCF Done:  E(RwB97XD) =  -1199.71453934     A.U. after   16 cycles
            NFock= 16  Conv=0.39D-08     -V/T= 2.0018
 KE= 1.197533071816D+03 PE=-4.655144493459D+03 EE= 1.354685562481D+03
 Leave Link  502 at Fri May 23 05:20:45 2025, MaxMem=  3758096384 cpu:              67.7 elap:              14.7
 (Enter /apps/easybuild-2022/easybuild/software/Compiler/NVHPC/22.11-CUDA-11.7.0/Gaussian/g16c01-CUDA-11.7.0/g16/l508.exe)
 QCSCF skips out because SCF is already converged.
 Leave Link  508 at Fri May 23 05:20:45 2025, MaxMem=  3758096384 cpu:               0.1 elap:               0.0
 (Enter /apps/easybuild-2022/easybuild/software/Compiler/NVHPC/22.11-CUDA-11.7.0/Gaussian/g16c01-CUDA-11.7.0/g16/l801.exe)
 DoSCS=F DFT=T ScalE2(SS,OS)=  1.000000  1.000000
 Range of M.O.s used for correlation:     1   257
 NBasis=   257 NAE=    49 NBE=    49 NFC=     0 NFV=     0
 NROrb=    257 NOA=    49 NOB=    49 NVA=   208 NVB=   208

 **** Warning!!: The largest alpha MO coefficient is  0.34223895D+02

 Leave Link  801 at Fri May 23 05:20:45 2025, MaxMem=  3758096384 cpu:               0.1 elap:               0.0
 (Enter /apps/easybuild-2022/easybuild/software/Compiler/NVHPC/22.11-CUDA-11.7.0/Gaussian/g16c01-CUDA-11.7.0/g16/l1101.exe)
 Using compressed storage, NAtomX=    12.
 Will process     13 centers per pass.
 R6Disp: Adding Grimme-D2 dispersion energy 1st derivatives to the gradient.
 Leave Link 1101 at Fri May 23 05:20:45 2025, MaxMem=  3758096384 cpu:               0.5 elap:               0.1
 (Enter /apps/easybuild-2022/easybuild/software/Compiler/NVHPC/22.11-CUDA-11.7.0/Gaussian/g16c01-CUDA-11.7.0/g16/l1102.exe)
 Symmetrizing basis deriv contribution to polar:
 IMax=3 JMax=2 DiffMx= 0.00D+00
 Leave Link 1102 at Fri May 23 05:20:45 2025, MaxMem=  3758096384 cpu:               0.2 elap:               0.0
 (Enter /apps/easybuild-2022/easybuild/software/Compiler/NVHPC/22.11-CUDA-11.7.0/Gaussian/g16c01-CUDA-11.7.0/g16/l1110.exe)
 Forming Gx(P) for the SCF density, NAtomX=    12.
 Integral derivatives from FoFJK, PRISM(SPDF).
 Do as many integral derivatives as possible in FoFJK.
 G2DrvN: MDV=    3758095012.
 G2DrvN: will do    13 centers at a time, making    1 passes.
 Calling FoFCou, ICntrl=  3107 FMM=F I1Cent=   0 AccDes= 0.00D+00.
 FoFJK:  IHMeth= 1 ICntrl=    3107 DoSepK=T KAlg= 0 I1Cent=           0 FoldK=F
 IRaf=         1 NMat=       1 IRICut=       1 DoRegI=T DoRafI=F ISym2E= 0 IDoP0=0 IntGTp=1.
 FoFCou: FMM=F IPFlag=           0 FMFlag=      100000 FMFlg1=           0
         NFxFlg=           0 DoJE=F BraDBF=F KetDBF=F FulRan=T
         wScrn=  0.000000 ICntrl=      3507 IOpCl=  0 I1Cent=           0 NGrid=           0
         NMat0=    1 NMatS0=      1 NMatT0=    0 NMatD0=    1 NMtDS0=    0 NMtDT0=    0
 Symmetry not used in FoFCou.
 End of G2Drv F.D. properties file   721 does not exist.
 End of G2Drv F.D. properties file   722 does not exist.
 End of G2Drv F.D. properties file   788 does not exist.
 Leave Link 1110 at Fri May 23 05:20:57 2025, MaxMem=  3758096384 cpu:              90.9 elap:              11.7
 (Enter /apps/easybuild-2022/easybuild/software/Compiler/NVHPC/22.11-CUDA-11.7.0/Gaussian/g16c01-CUDA-11.7.0/g16/l1002.exe)
 Minotr:  Closed shell wavefunction.
          IDoAtm=111111111111
          Direct CPHF calculation.
          Differentiating once with respect to nuclear coordinates.
          Requested convergence is 1.0D-08 RMS, and 1.0D-07 maximum.
          Secondary convergence is 1.0D-12 RMS, and 1.0D-12 maximum.
          NewPWx=T KeepS1=F KeepF1=F KeepIn=T MapXYZ=F SortEE=F KeepMc=T.
         3731 words used for storage of precomputed grid.
 Keep R1 ints in memory in canonical form, NReq=1117480323.
 FoFCou: FMM=F IPFlag=           0 FMFlag=           0 FMFlg1=           0
         NFxFlg=           0 DoJE=F BraDBF=F KetDBF=F FulRan=T
         wScrn=  0.000000 ICntrl=       600 IOpCl=  0 I1Cent=           0 NGrid=           0
         NMat0=    1 NMatS0=  33153 NMatT0=    0 NMatD0=    1 NMtDS0=    0 NMtDT0=    0
 Symmetry not used in FoFCou.
 Two-electron integral symmetry not used.
          MDV=    3758096384 using IRadAn=       1.
          Solving linear equations simultaneously, MaxMat=       0.
          There are    39 degrees of freedom in the 1st order CPHF.  IDoFFX=6 NUNeed=     0.
     33 vectors produced by pass  0 Test12= 2.61D-14 2.56D-09 XBig12= 1.42D-01 8.21D-02.
 AX will form    33 AO Fock derivatives at one time.
     33 vectors produced by pass  1 Test12= 2.61D-14 2.56D-09 XBig12= 1.92D-02 2.52D-02.
     33 vectors produced by pass  2 Test12= 2.61D-14 2.56D-09 XBig12= 1.86D-03 4.98D-03.
     33 vectors produced by pass  3 Test12= 2.61D-14 2.56D-09 XBig12= 3.28D-05 7.96D-04.
     33 vectors produced by pass  4 Test12= 2.61D-14 2.56D-09 XBig12= 5.83D-07 1.27D-04.
     33 vectors produced by pass  5 Test12= 2.61D-14 2.56D-09 XBig12= 8.20D-09 9.22D-06.
     33 vectors produced by pass  6 Test12= 2.61D-14 2.56D-09 XBig12= 6.97D-11 9.57D-07.
     25 vectors produced by pass  7 Test12= 2.61D-14 2.56D-09 XBig12= 5.21D-13 6.64D-08.
      5 vectors produced by pass  8 Test12= 2.61D-14 2.56D-09 XBig12= 3.19D-15 5.65D-09.
 InvSVY:  IOpt=1 It=  1 EMax= 1.11D-15
 Solved reduced A of dimension   261 with    33 vectors.
 End of Minotr F.D. properties file   721 does not exist.
 End of Minotr F.D. properties file   722 does not exist.
 End of Minotr F.D. properties file   788 does not exist.
 Leave Link 1002 at Fri May 23 05:21:19 2025, MaxMem=  3758096384 cpu:             177.8 elap:              22.8
 (Enter /apps/easybuild-2022/easybuild/software/Compiler/NVHPC/22.11-CUDA-11.7.0/Gaussian/g16c01-CUDA-11.7.0/g16/l701.exe)
 ... and contract with generalized density number  0.
 Compute integral second derivatives.
 R6Disp: Adding Grimme-D2 dispersion energy 2nd derivatives to the Hessian.
 Leave Link  701 at Fri May 23 05:21:20 2025, MaxMem=  3758096384 cpu:               0.7 elap:               0.1
 (Enter /apps/easybuild-2022/easybuild/software/Compiler/NVHPC/22.11-CUDA-11.7.0/Gaussian/g16c01-CUDA-11.7.0/g16/l702.exe)
 L702 exits ... SP integral derivatives will be done elsewhere.
 Leave Link  702 at Fri May 23 05:21:20 2025, MaxMem=  3758096384 cpu:               0.1 elap:               0.0
 (Enter /apps/easybuild-2022/easybuild/software/Compiler/NVHPC/22.11-CUDA-11.7.0/Gaussian/g16c01-CUDA-11.7.0/g16/l703.exe)
 Integral derivatives from FoFJK, PRISM(SPDF).
 Compute integral second derivatives, UseDBF=F ICtDFT=           0.
 Calling FoFJK, ICntrl=    100127 FMM=F ISym2X=0 I1Cent= 0 IOpClX= 0 NMat=1 NMatS=1 NMatT=0.
 FoFJK:  IHMeth= 1 ICntrl=  100127 DoSepK=T KAlg= 0 I1Cent=           0 FoldK=F
 IRaf=         1 NMat=       1 IRICut=       1 DoRegI=T DoRafI=F ISym2E= 0 IDoP0=0 IntGTp=1.
 FoFCou: FMM=F IPFlag=           0 FMFlag=      100000 FMFlg1=         800
         NFxFlg=           0 DoJE=F BraDBF=F KetDBF=F FulRan=T
         wScrn=  0.000000 ICntrl=    100527 IOpCl=  0 I1Cent=           0 NGrid=           0
         NMat0=    1 NMatS0=      1 NMatT0=    0 NMatD0=    1 NMtDS0=    0 NMtDT0=    0
 Symmetry not used in FoFCou.
 Leave Link  703 at Fri May 23 05:21:52 2025, MaxMem=  3758096384 cpu:             259.9 elap:              32.8
 (Enter /apps/easybuild-2022/easybuild/software/Compiler/NVHPC/22.11-CUDA-11.7.0/Gaussian/g16c01-CUDA-11.7.0/g16/l716.exe)
 Dipole        =-1.27624052D+00-6.10050493D-01 1.77794899D-01
 Polarizability= 0.00000000D+00 0.00000000D+00 0.00000000D+00
                 0.00000000D+00 0.00000000D+00 0.00000000D+00
 -------------------------------------------------------------------
 Center     Atomic                   Forces (Hartrees/Bohr)
 Number     Number              X              Y              Z
 -------------------------------------------------------------------
      1        6          -0.000242931    0.001143135   -0.001810875
      2        6          -0.000342820   -0.004195175    0.000683145
      3        9          -0.000866912    0.001118022   -0.000045967
      4        9           0.018008676   -0.011738530    0.022579019
      5       16           0.003556388   -0.001452760    0.021188664
      6        8          -0.020906165    0.012829745   -0.020927479
      7        8          -0.004956726    0.001207017   -0.008608569
      8        8           0.005359257    0.002698717   -0.013331992
      9        9           0.000482599   -0.000391057    0.000543971
     10        9          -0.000141975   -0.000056289    0.000685815
     11        9           0.000205615   -0.000313469    0.000417678
     12        1          -0.000155006   -0.000849357   -0.001373409
 -------------------------------------------------------------------
 Cartesian Forces:  Max     0.022579019 RMS     0.008847629
 Force constants in Cartesian coordinates: 
                1             2             3             4             5 
      1  0.573779D+00
      2  0.867853D-02  0.553697D+00
      3  0.239007D-01 -0.633683D-02  0.566344D+00
      4 -0.928149D-01  0.220210D-01 -0.589754D-01  0.473603D+00
      5  0.699960D-04 -0.537948D-01 -0.141746D-01  0.515214D-01  0.452191D+00
      6 -0.777291D-01  0.148638D-01 -0.131159D+00 -0.227970D-01  0.353940D-01
      7  0.186673D-02 -0.119522D-02 -0.128223D-04 -0.132136D+00  0.181776D-01
      8  0.280651D-02  0.270513D-03 -0.259921D-04  0.181238D-01 -0.711371D-01
      9  0.391305D-01 -0.920914D-02 -0.394630D-01  0.962193D-01 -0.311312D-01
     10 -0.224000D-01 -0.353948D-01  0.572472D-02 -0.140327D+00 -0.101533D+00
     11 -0.135620D-01 -0.239821D-01  0.835779D-02 -0.114465D+00 -0.224837D+00
     12 -0.107100D-01 -0.217517D-01  0.614389D-02 -0.348357D-02 -0.522039D-02
     13 -0.359313D-02  0.252587D-01 -0.513681D-02 -0.710718D-01  0.201425D-01
     14  0.154920D-01  0.136886D-01  0.169926D-01  0.458579D-01 -0.563553D-01
     15 -0.154336D-01  0.182319D-01  0.733540D-02 -0.859258D-02  0.137314D-01
     16  0.681743D-03 -0.126175D-02 -0.265648D-03 -0.403847D-03  0.150114D-02
     17  0.517447D-03 -0.110265D-02 -0.244761D-04  0.215302D-02 -0.113404D-02
     18  0.105670D-02 -0.250257D-03  0.392161D-03  0.606775D-03  0.481731D-02
     19 -0.749014D-02 -0.137319D-01 -0.452023D-02  0.113181D-01  0.760192D-02
     20 -0.384607D-02 -0.458098D-02 -0.804059D-02 -0.297172D-01 -0.134571D-01
     21  0.164272D-02 -0.303468D-02 -0.189318D-02  0.247469D-02 -0.341167D-02
     22  0.168999D-03  0.447674D-02  0.681214D-02 -0.113023D-01 -0.346208D-02
     23 -0.233884D-03 -0.309396D-02 -0.174955D-02  0.351362D-02  0.194669D-02
     24  0.400630D-02  0.430211D-03  0.300132D-02 -0.762133D-02 -0.941166D-02
     25 -0.210007D+00 -0.110443D+00 -0.134843D-01 -0.221546D-01 -0.283435D-01
     26 -0.113453D+00 -0.171230D+00 -0.499572D-02 -0.169071D-01 -0.814241D-02
     27 -0.513099D-02  0.512770D-03 -0.827593D-01 -0.134866D-01 -0.142693D-01
     28 -0.113049D+00  0.159674D-01  0.733745D-01  0.269264D-02 -0.137965D-02
     29  0.147655D-01 -0.804863D-01 -0.321381D-01  0.289501D-02  0.441426D-02
     30  0.659353D-01 -0.319378D-01 -0.238332D+00  0.362403D-01 -0.794524D-02
     31 -0.126687D+00  0.855391D-01 -0.266750D-01 -0.175135D-01  0.342142D-01
     32  0.890638D-01 -0.229229D+00  0.426193D-01  0.150890D-01 -0.297741D-01
     33 -0.261758D-01  0.383822D-01 -0.896978D-01 -0.201950D-01  0.326601D-01
     34 -0.455907D-03  0.848179D-04 -0.741913D-03  0.110752D-03  0.148899D-02
     35 -0.298682D-03 -0.155729D-03 -0.483908D-03 -0.855940D-04  0.797661D-04
     36 -0.492809D-03  0.995837D-04  0.864809D-04 -0.389633D-03 -0.103887D-02
                6             7             8             9            10 
      6  0.530809D+00
      7  0.112548D+00  0.172255D+00
      8 -0.343222D-01 -0.248129D-02  0.638378D-01
      9 -0.249669D+00 -0.160730D+00  0.188140D-01  0.311197D+00
     10 -0.954671D-02 -0.343037D-01 -0.319511D-01  0.301947D-01  0.205894D+00
     11 -0.158099D-01 -0.200819D-01  0.257873D-02  0.221330D-01  0.154123D+00
     12 -0.679508D-01  0.363936D-01  0.348192D-01 -0.803373D-02  0.146860D-01
     13  0.172091D-01 -0.289619D-01  0.225596D-01  0.180530D-01  0.691724D-02
     14 -0.321628D-01  0.691397D-02 -0.715914D-02 -0.532939D-03  0.140174D-03
     15 -0.345934D-01  0.258679D-01 -0.219754D-01 -0.160456D-01 -0.415798D-03
     16 -0.609630D-03 -0.290698D-02  0.677372D-04  0.128589D-03 -0.131322D-01
     17  0.442535D-02 -0.182613D-02  0.865445D-03  0.965471D-03  0.142311D-01
     18 -0.180141D-02 -0.191471D-02  0.378881D-03  0.148846D-02 -0.303189D-01
     19  0.385054D-03  0.111784D-01 -0.506645D-02 -0.880251D-02 -0.171566D-02
     20  0.814182D-02  0.384311D-02  0.291800D-02 -0.268480D-02  0.133193D-02
     21  0.215655D-02 -0.403489D-02  0.282649D-02  0.370496D-02 -0.112306D-02
     22 -0.281050D-01  0.472798D-02 -0.244249D-02 -0.175839D-02  0.186821D-02
     23  0.184229D-01 -0.238902D-02  0.152222D-02  0.512727D-03  0.131640D-03
     24 -0.203539D-01 -0.915263D-03  0.103735D-02  0.641857D-02  0.327728D-02
     25  0.136281D-01  0.387100D-02  0.173306D-02 -0.455675D-02 -0.778600D-02
     26  0.514684D-02  0.153918D-02  0.172829D-02 -0.372169D-03 -0.265687D-02
     27  0.753112D-02 -0.242500D-02 -0.748837D-03  0.171159D-02 -0.660116D-02
     28 -0.130852D-02  0.142646D-02 -0.682104D-03 -0.351374D-02  0.328427D-02
     29 -0.460386D-02 -0.686822D-03  0.100024D-02 -0.123757D-02  0.158821D-02
     30 -0.325207D-01 -0.529921D-02 -0.155595D-03 -0.134811D-01 -0.542747D-02
     31 -0.536271D-02  0.276493D-02 -0.234888D-02 -0.371571D-02  0.240331D-02
     32  0.215862D-02 -0.208429D-02  0.347152D-02  0.204605D-02 -0.349030D-03
     33 -0.300223D-02 -0.166122D-03 -0.635046D-03  0.258215D-02  0.188370D-03
     34  0.168796D-02  0.218231D-03 -0.318356D-03 -0.649361D-03 -0.702538D-03
     35 -0.165446D-02  0.270848D-03  0.103487D-03  0.696466D-03  0.338252D-03
     36  0.553158D-03  0.687668D-03 -0.128969D-04 -0.410215D-03 -0.637886D-03
               11            12            13            14            15 
     11  0.270770D+00
     12 -0.269096D-01  0.987180D-01
     13 -0.253093D-01 -0.331085D-02  0.435400D+00
     14 -0.197247D-01  0.222194D-02  0.231080D+00  0.480536D+00
     15 -0.338834D-02  0.248804D-02 -0.263659D-01 -0.171171D-01  0.291125D+00
     16  0.147256D-01 -0.269381D-01 -0.617887D-02 -0.189607D-01  0.737852D-02
     17  0.101435D-02  0.163300D-01 -0.630394D-02 -0.191217D-01 -0.169820D-01
     18  0.155466D-01 -0.272548D-01  0.446384D-04 -0.206479D-01  0.504731D-02
     19  0.253682D-02  0.196269D-02 -0.288572D+00 -0.276273D+00  0.369542D-01
     20 -0.169403D-01  0.201749D-02 -0.251533D+00 -0.350246D+00  0.266458D-01
     21 -0.428886D-03  0.651974D-03  0.469479D-01  0.524978D-01 -0.656501D-01
     22  0.268716D-02  0.141173D-02 -0.368776D-01  0.930320D-02 -0.183979D-01
     23  0.125820D-02  0.131344D-03 -0.391779D-02 -0.306313D-01  0.855891D-03
     24  0.538836D-02  0.812429D-03 -0.421270D-01  0.100758D-01 -0.184592D+00
     25 -0.297186D-02 -0.719918D-02 -0.165353D-02 -0.513668D-02  0.546513D-03
     26  0.562215D-03 -0.262340D-02 -0.461357D-02 -0.786424D-02 -0.137531D-02
     27 -0.377425D-02 -0.383181D-02  0.921905D-03 -0.102496D-02 -0.156711D-02
     28  0.148815D-02 -0.114221D-02 -0.161008D-02 -0.311329D-03  0.237906D-02
     29  0.214290D-02  0.218943D-03 -0.171189D-02 -0.235006D-02 -0.191802D-02
     30 -0.246507D-02  0.462946D-03 -0.277597D-03 -0.244458D-02 -0.282927D-02
     31  0.102853D-02 -0.100804D-03 -0.102041D-02 -0.615339D-02 -0.535057D-03
     32  0.806800D-02 -0.948030D-03 -0.195953D-02  0.309926D-02 -0.784326D-03
     33 -0.122015D-02  0.597051D-03 -0.805419D-03 -0.622635D-02 -0.281729D-02
     34 -0.199475D-03 -0.156933D-02 -0.277783D-02 -0.195251D-02 -0.338544D-02
     35 -0.910476D-03  0.171427D-02 -0.369225D-02 -0.387146D-02  0.407538D-02
     36  0.257042D-02 -0.280319D-02 -0.515307D-02 -0.163157D-02  0.209880D-02
               16            17            18            19            20 
     16  0.608488D+00
     17  0.211924D-01  0.314903D+00
     18  0.421426D-01 -0.169313D-02  0.452993D-01
     19 -0.146391D-02  0.982775D-03 -0.112064D-02  0.266817D+00
     20 -0.329584D-02 -0.284747D-03 -0.354801D-03  0.280572D+00  0.384529D+00
     21 -0.809634D-02 -0.336199D-02 -0.529174D-02 -0.253542D-01 -0.271420D-01
     22 -0.585221D-01 -0.284950D-01 -0.957762D-02  0.321636D-02 -0.393305D-02
     23 -0.717418D-01 -0.256337D+00  0.330975D-02 -0.521036D-02 -0.404095D-02
     24 -0.147741D-01  0.854125D-02 -0.169977D-01 -0.164370D-02 -0.407650D-02
     25  0.148133D-03  0.137498D-03 -0.471802D-03  0.207555D-02  0.362508D-02
     26  0.437804D-03  0.414054D-03 -0.491652D-04  0.700197D-02  0.238766D-02
     27  0.590356D-04  0.138175D-04 -0.164295D-03 -0.133925D-02  0.193404D-02
     28 -0.149452D-03 -0.168049D-03  0.148904D-04  0.101789D-02 -0.174849D-03
     29  0.180373D-03  0.197128D-03 -0.202655D-03  0.158643D-02  0.104926D-02
     30 -0.221364D-04 -0.150937D-03 -0.169751D-03  0.913729D-03  0.215675D-02
     31 -0.319228D-05 -0.281333D-04 -0.192167D-03  0.267506D-02  0.192234D-02
     32  0.653667D-05  0.314219D-03 -0.270260D-03  0.196057D-03 -0.662203D-03
     33  0.224212D-03  0.276220D-04  0.427213D-04  0.236742D-02  0.225836D-02
     34 -0.526558D+00 -0.239292D-02 -0.269749D-03  0.943163D-03  0.120521D-02
     35  0.571486D-01 -0.397280D-01 -0.584422D-03 -0.196552D-03 -0.672286D-03
     36  0.772936D-03 -0.809099D-02 -0.590275D-03  0.197434D-03 -0.855608D-03
               21            22            23            24            25 
     21  0.394850D-01
     22 -0.110465D-01  0.936585D-01
     23 -0.185928D-01  0.735291D-01  0.312734D+00
     24  0.276339D-01  0.622715D-01 -0.852356D-02  0.186219D+00
     25 -0.850234D-03 -0.572304D-03  0.786082D-03 -0.104032D-02  0.260412D+00
     26  0.123118D-02 -0.787882D-03  0.126011D-02 -0.459051D-03  0.174384D+00
     27  0.284290D-03 -0.636079D-03  0.211646D-03 -0.327136D-04 -0.275466D-01
     28 -0.816723D-03  0.986830D-03  0.443404D-03 -0.117611D-02 -0.452840D-01
     29  0.960654D-03 -0.740329D-03 -0.130745D-04  0.758708D-03 -0.234113D-01
     30  0.490443D-03 -0.103262D-02 -0.110001D-03  0.181727D-03  0.373855D-01
     31 -0.205295D-03 -0.193803D-02  0.654662D-03 -0.221832D-02  0.208249D-01
     32  0.650547D-03  0.167035D-02 -0.458846D-03  0.247674D-02 -0.104097D-01
     33  0.300256D-03 -0.244618D-02  0.814053D-03 -0.151528D-02  0.334732D-02
     34  0.461916D-03  0.458556D-02  0.443439D-02  0.196104D-02  0.125476D-03
     35 -0.219460D-02 -0.518057D-01 -0.241453D-01 -0.623767D-02  0.499096D-04
     36 -0.187235D-02  0.250496D-02  0.471766D-02 -0.775238D-03  0.241732D-03
               26            27            28            29            30 
     26  0.252083D+00
     27 -0.225079D-01  0.769831D-01
     28 -0.170824D-01  0.503319D-01  0.172801D+00
     29  0.929317D-02  0.259776D-01 -0.353433D-01  0.931063D-01
     30  0.161228D-01 -0.105630D-01 -0.148636D+00  0.522457D-01  0.292898D+00
     31 -0.278473D-01  0.575020D-02 -0.222022D-01  0.409402D-01  0.200453D-01
     32 -0.805429D-01  0.135987D-01  0.372358D-01 -0.283713D-01 -0.255343D-01
     33  0.975569D-02  0.123784D-01  0.303042D-01 -0.400435D-01  0.393935D-02
     34 -0.147321D-04  0.102655D-03  0.857918D-04 -0.620775D-04  0.174503D-03
     35  0.513637D-04  0.766595D-04  0.692090D-05  0.174775D-04  0.218303D-03
     36  0.126206D-03  0.296538D-04  0.188380D-03 -0.177591D-04 -0.767653D-04
               31            32            33            34            35 
     31  0.140381D+00
     32 -0.128091D+00  0.354211D+00
     33  0.130828D-01 -0.359509D-01  0.771987D-01
     34  0.314817D-03 -0.367642D-03  0.274146D-03  0.524110D+00
     35  0.169939D-03 -0.125556D-03  0.177943D-03 -0.190569D-02  0.693567D-01
     36  0.126709D-03 -0.622069D-04 -0.600017D-05  0.195357D-02  0.419604D-02
               36 
     36  0.376594D-02
 FormGI is forming the generalized inverse of G from B-inverse, IUseBI=4.
 Leave Link  716 at Fri May 23 05:21:52 2025, MaxMem=  3758096384 cpu:               0.1 elap:               0.0
 (Enter /apps/easybuild-2022/easybuild/software/Compiler/NVHPC/22.11-CUDA-11.7.0/Gaussian/g16c01-CUDA-11.7.0/g16/l103.exe)

 GradGradGradGradGradGradGradGradGradGradGradGradGradGradGradGradGradGrad
 Berny optimization.
 Red2BG is reusing G-inverse.
 Internal  Forces:  Max     0.106286668 RMS     0.023094606
 Search for a local minimum.
 Step number   1 out of a maximum of   56
 All quantities printed in internal units (Hartrees-Bohrs-Radians)
 RMS Force = .23095D-01 SwitMx=.10000D-02 MixMth= 1
 Mixed Optimization -- RFO/linear search
 Second derivative matrix not updated -- analytic derivatives used.
 ITU=  0
     Eigenvalues ---   -0.06253  -0.00164   0.00304   0.01043   0.04455
     Eigenvalues ---    0.08144   0.09371   0.09829   0.10491   0.11966
     Eigenvalues ---    0.13752   0.14415   0.17400   0.19547   0.19967
     Eigenvalues ---    0.20738   0.22804   0.23385   0.23775   0.25912
     Eigenvalues ---    0.36289   0.37231   0.38129   0.38783   0.39408
     Eigenvalues ---    0.47304   0.52429   0.55666   0.62061   1.68584
 Eigenvalue     1 is  -6.25D-02 should be greater than     0.000000 Eigenvector:
                          D16       D17       A17       A13       A12
   1                    0.72092   0.57474  -0.23121  -0.12689   0.10544
                          D15       D18       D14       D13       A11
   1                    0.09315   0.07897   0.07780   0.06983  -0.06429
 Eigenvalue     2 is  -1.64D-03 should be greater than     0.000000 Eigenvector:
                          D13       D12       D15       D14       D11
   1                    0.41055   0.40650   0.39262   0.38857   0.34084
                          D10       D17       A12       D16       D3
   1                    0.33680  -0.16237   0.13307  -0.12666   0.11318
 RFO step:  Lambda=-6.26696921D-02 EMin=-6.25326899D-02
 I=     1 Eig=   -6.25D-02 Dot1=  1.50D-03
 I=     1 Stepn=  6.00D-01 RXN=   6.00D-01 EDone=F
 I=     2 Eig=   -1.64D-03 Dot1= -9.89D-04
 I=     2 Stepn= -3.00D-01 RXN=   6.71D-01 EDone=F
 Mixed    2 eigenvectors in step.  Raw Step.Grad=  2.49D-03.
 RFO eigenvector is Hessian eigenvector with negative curvature.
 Taking step of  6.00D-01 in eigenvector direction(s).  Step.Grad=  4.15D-03.
 Linear search not attempted -- first point.
 Iteration  1 RMS(Cart)=  0.08256799 RMS(Int)=  0.04609109
 Iteration  2 RMS(Cart)=  0.09978768 RMS(Int)=  0.00764492
 Iteration  3 RMS(Cart)=  0.01058824 RMS(Int)=  0.00039034
 Iteration  4 RMS(Cart)=  0.00012447 RMS(Int)=  0.00038600
 Iteration  5 RMS(Cart)=  0.00000001 RMS(Int)=  0.00038600
 ITry= 1 IFail=0 DXMaxC= 5.08D-01 DCOld= 1.00D+10 DXMaxT= 3.00D-01 DXLimC= 3.00D+00 Rises=F
 Variable       Old X    -DE/DX   Delta X   Delta X   Delta X     New X
                                 (Linear)    (Quad)   (Total)
    R1        2.93153   0.00005   0.00000  -0.00140  -0.00140   2.93013
    R2        2.50010   0.00003   0.00000  -0.00041  -0.00041   2.49970
    R3        2.52583   0.00062   0.00000   0.00158   0.00158   2.52741
    R4        2.50983   0.00042   0.00000   0.00122   0.00122   2.51104
    R5        2.51389  -0.00053   0.00000   0.00114   0.00114   2.51503
    R6        2.52746  -0.00040   0.00000  -0.00666  -0.00666   2.52079
    R7        3.62052   0.02226   0.00000   0.02295   0.02295   3.64347
    R8        2.76069  -0.00181   0.00000   0.00146   0.00146   2.76215
    R9        3.20625   0.03489   0.00000  -0.00767  -0.00767   3.19858
   R10        2.68624  -0.00765   0.00000   0.01063   0.01063   2.69688
   R11        1.82486   0.00015   0.00000   0.00186   0.00186   1.82672
    A1        1.93794   0.00127   0.00000   0.00491   0.00491   1.94285
    A2        1.90506   0.00021   0.00000  -0.00388  -0.00388   1.90119
    A3        1.91878   0.00021   0.00000   0.00183   0.00182   1.92060
    A4        1.90195  -0.00049   0.00000   0.00025   0.00026   1.90221
    A5        1.90227  -0.00075   0.00000  -0.00247  -0.00247   1.89979
    A6        1.89732  -0.00048   0.00000  -0.00075  -0.00075   1.89657
    A7        1.90649   0.00329   0.00000   0.00945   0.00946   1.91595
    A8        1.89615  -0.02118   0.00000   0.00001  -0.00011   1.89604
    A9        1.93337  -0.01375   0.00000   0.00312   0.00306   1.93643
   A10        1.92042   0.00343   0.00000  -0.01727  -0.01720   1.90323
   A11        1.93842   0.00027   0.00000  -0.01611  -0.01607   1.92236
   A12        1.86831   0.02774   0.00000   0.02088   0.02085   1.88916
   A13        1.81990  -0.01993   0.00000  -0.05100  -0.05059   1.76930
   A14        1.62934   0.10629   0.00000  -0.04658  -0.04678   1.58256
   A15        1.92254  -0.03851   0.00000   0.02814   0.02624   1.94878
   A16        1.76660   0.00155   0.00000  -0.00023  -0.00023   1.76637
   A17        1.85450   0.07678   0.00000  -0.14084  -0.14084   1.71366
    D1        0.90170  -0.00016   0.00000  -0.00820  -0.00820   0.89351
    D2        2.99677  -0.00671   0.00000  -0.02356  -0.02356   2.97321
    D3       -1.23891   0.00633   0.00000   0.00360   0.00360  -1.23530
    D4        2.99878   0.00016   0.00000  -0.00732  -0.00732   2.99146
    D5       -1.18933  -0.00640   0.00000  -0.02268  -0.02269  -1.21202
    D6        0.85817   0.00665   0.00000   0.00448   0.00448   0.86265
    D7       -1.20475  -0.00018   0.00000  -0.00951  -0.00951  -1.21426
    D8        0.89032  -0.00674   0.00000  -0.02487  -0.02487   0.86545
    D9        2.93783   0.00631   0.00000   0.00229   0.00229   2.94012
   D10        1.07349   0.00066   0.00000  -0.07669  -0.07738   0.99612
   D11        3.02440  -0.01126   0.00000  -0.06954  -0.06895   2.95544
   D12       -1.04845   0.00572   0.00000  -0.07984  -0.08050  -1.12895
   D13        0.90246  -0.00620   0.00000  -0.07269  -0.07208   0.83038
   D14        3.13800  -0.01591   0.00000  -0.06251  -0.06307   3.07493
   D15       -1.19428  -0.02782   0.00000  -0.05536  -0.05465  -1.24893
   D16        0.74076   0.01092   0.00000   0.42087   0.42141   1.16218
   D17        2.60012   0.02540   0.00000   0.35201   0.35146   2.95158
   D18        1.90429   0.00246   0.00000   0.01949   0.01949   1.92378
         Item               Value     Threshold  Converged?
 Maximum Force            0.106287     0.000015     NO 
 RMS     Force            0.023095     0.000010     NO 
 Maximum Displacement     0.507608     0.000060     NO 
 RMS     Displacement     0.161783     0.000040     NO 
 Predicted change in Energy=-1.130375D-02
 Lowest energy point so far.  Saving SCF results.
 GradGradGradGradGradGradGradGradGradGradGradGradGradGradGradGradGradGrad

 Leave Link  103 at Fri May 23 05:21:53 2025, MaxMem=  3758096384 cpu:               0.1 elap:               0.0
 (Enter /apps/easybuild-2022/easybuild/software/Compiler/NVHPC/22.11-CUDA-11.7.0/Gaussian/g16c01-CUDA-11.7.0/g16/l202.exe)
                          Input orientation:                          
 ---------------------------------------------------------------------
 Center     Atomic      Atomic             Coordinates (Angstroms)
 Number     Number       Type             X           Y           Z
 ---------------------------------------------------------------------
      1          6           0        3.892987    0.225426    2.852968
      2          6           0        3.015107    0.151713    1.576987
      3          9           0        3.792417    0.105877    0.497647
      4          9           0        2.278155   -0.958909    1.630200
      5         16           0        1.822415    1.662979    1.472554
      6          8           0        0.737356    0.027961    0.153900
      7          8           0        2.765903    2.778445    1.517703
      8          8           0        1.412885    1.255244   -0.118354
      9          9           0        4.791322    1.192238    2.763409
     10          9           0        3.105586    0.459425    3.908433
     11          9           0        4.522622   -0.929690    3.039895
     12          1           0       -0.177276    0.268614   -0.045995
 ---------------------------------------------------------------------
                    Distance matrix (angstroms):
                    1          2          3          4          5
     1  C    0.000000
     2  C    1.550559   0.000000
     3  F    2.360496   1.330897   0.000000
     4  F    2.346379   1.333946   2.170123   0.000000
     5  S    2.873912   1.928043   2.693682   2.665867   0.000000
     6  O    4.157158   2.688613   3.075326   2.351049   2.364209
     7  O    3.093729   2.639193   3.039221   3.770725   1.461668
     8  O    4.005020   2.580519   2.713425   2.951034   1.692616
     9  F    1.322783   2.375969   2.704010   3.496799   3.271439
    10  F    1.337446   2.353404   3.497169   2.808320   3.004759
    11  F    1.328787   2.362653   2.840532   2.650609   4.058277
    12  H    4.997289   3.583162   4.010049   3.216455   2.872109
                    6          7          8          9         10
     6  O    0.000000
     7  O    3.679691   0.000000
     8  O    1.427125   2.612945   0.000000
     9  F    4.959810   2.858349   4.440986   0.000000
    10  F    4.459954   3.347958   4.439997   2.165594   0.000000
    11  F    4.855337   4.376459   4.941552   2.156670   2.166101
    12  H    0.966656   4.172134   1.872775   5.782110   5.143063
                   11         12
    11  F    0.000000
    12  H    5.748712   0.000000
 Symmetry turned off by external request.
 Stoichiometry    C2HF5O3S
 Rotational constants (GHZ):           1.5881503           0.8215193           0.6985264
 Leave Link  202 at Fri May 23 05:21:53 2025, MaxMem=  3758096384 cpu:               0.1 elap:               0.0
 (Enter /apps/easybuild-2022/easybuild/software/Compiler/NVHPC/22.11-CUDA-11.7.0/Gaussian/g16c01-CUDA-11.7.0/g16/l301.exe)
 Standard basis: 6-311++G(d,p) (5D, 7F)
 Ernie: Thresh=  0.10000D-02 Tol=  0.10000D-05 Strict=F.
   257 basis functions,   419 primitive gaussians,   268 cartesian basis functions
    49 alpha electrons       49 beta electrons
       nuclear repulsion energy       903.0263790935 Hartrees.
 IExCor= 4639 DFT=T Ex+Corr=wB97XD ExCW=0 ScaHFX=  1.000000
 ScaDFX=  1.000000  1.000000  1.000000  1.000000 ScalE2=  1.000000  1.000000
 IRadAn=      5 IRanWt=     -1 IRanGd=            0 ICorTp=0 IEmpDi=121
 HFx  wShort=  0.000000 wLong=  0.200000 cFull=  0.222036 cShort=  0.000000 cLong=  0.777964
 DFx  wShort=  0.000000 wLong=  0.200000 cFull=  0.000000 cShort=  0.000000 cLong=  1.000000
 NAtoms=   12 NActive=   12 NUniq=   12 SFac= 1.00D+00 NAtFMM=   60 NAOKFM=F Big=F
 Integral buffers will be    131072 words long.
 Raffenetti 2 integral format.
 Two-electron integral symmetry is turned off.
 R6Disp:  Grimme-D2 Dispersion energy=       -0.0050620945 Hartrees.
 Nuclear repulsion after empirical dispersion term =      903.0213169989 Hartrees.
 Leave Link  301 at Fri May 23 05:21:53 2025, MaxMem=  3758096384 cpu:               0.1 elap:               0.0
 (Enter /apps/easybuild-2022/easybuild/software/Compiler/NVHPC/22.11-CUDA-11.7.0/Gaussian/g16c01-CUDA-11.7.0/g16/l302.exe)
 NPDir=0 NMtPBC=     1 NCelOv=     1 NCel=       1 NClECP=     1 NCelD=      1
         NCelK=      1 NCelE2=     1 NClLst=     1 CellRange=     0.0.
 One-electron integrals computed using PRISM.
 NBasis=   257 RedAO= T EigKep=  6.57D-05  NBF=   257
 NBsUse=   257 1.00D-06 EigRej= -1.00D+00 NBFU=   257
 Precomputing XC quadrature grid using
 IXCGrd= 4 IRadAn=           5 IRanWt=          -1 IRanGd=           0 AccXCQ= 0.00D+00.
 Generated NRdTot=       0 NPtTot=           0 NUsed=           0 NTot=          32
 NSgBfM=   268   268   268   268   268 MxSgAt=    12 MxSgA2=    12.
 Leave Link  302 at Fri May 23 05:21:53 2025, MaxMem=  3758096384 cpu:               0.6 elap:               0.1
 (Enter /apps/easybuild-2022/easybuild/software/Compiler/NVHPC/22.11-CUDA-11.7.0/Gaussian/g16c01-CUDA-11.7.0/g16/l303.exe)
 DipDrv:  MaxL=1.
 Leave Link  303 at Fri May 23 05:21:53 2025, MaxMem=  3758096384 cpu:               0.1 elap:               0.0
 (Enter /apps/easybuild-2022/easybuild/software/Compiler/NVHPC/22.11-CUDA-11.7.0/Gaussian/g16c01-CUDA-11.7.0/g16/l401.exe)
 Initial guess from the checkpoint file:  "/tmp/Gau-283892.chk"
 B after Tr=     0.080054   -0.212112   -0.035531
         Rot=    0.999891    0.001969    0.003510   -0.014188 Ang=   1.69 deg.
 Guess basis will be translated and rotated to current coordinates.
 JPrj=2 DoOrth=T DoCkMO=T.
 Generating alternative initial guess.
 ExpMin= 3.60D-02 ExpMax= 9.34D+04 ExpMxC= 3.17D+03 IAcc=3 IRadAn=         5 AccDes= 0.00D+00
 Harris functional with IExCor= 4639 and IRadAn=       5 diagonalized for initial guess.
 HarFok:  IExCor= 4639 AccDes= 0.00D+00 IRadAn=         5 IDoV= 1 UseB2=F ITyADJ=14
 ICtDFT=  3500011 ScaDFX=  1.000000  1.000000  1.000000  1.000000
 FoFCou: FMM=F IPFlag=           0 FMFlag=      100000 FMFlg1=           0
         NFxFlg=           0 DoJE=T BraDBF=F KetDBF=T FulRan=T
         wScrn=  0.000000 ICntrl=       500 IOpCl=  0 I1Cent=   200000004 NGrid=           0
         NMat0=    1 NMatS0=      1 NMatT0=    0 NMatD0=    1 NMtDS0=    0 NMtDT0=    0
 Symmetry not used in FoFCou.
 Harris En= -1167.03634072288    
 Leave Link  401 at Fri May 23 05:21:53 2025, MaxMem=  3758096384 cpu:               2.5 elap:               0.4
 (Enter /apps/easybuild-2022/easybuild/software/Compiler/NVHPC/22.11-CUDA-11.7.0/Gaussian/g16c01-CUDA-11.7.0/g16/l502.exe)
 Keep R1 ints in memory in canonical form, NReq=1117474609.
 FoFCou: FMM=F IPFlag=           0 FMFlag=           0 FMFlg1=           0
         NFxFlg=           0 DoJE=F BraDBF=F KetDBF=F FulRan=T
         wScrn=  0.000000 ICntrl=       600 IOpCl=  0 I1Cent=           0 NGrid=           0
         NMat0=    1 NMatS0=  33153 NMatT0=    0 NMatD0=    1 NMtDS0=    0 NMtDT0=    0
 Symmetry not used in FoFCou.
 Two-electron integral symmetry not used.
 Closed shell SCF:
 Using DIIS extrapolation, IDIIS=  1040.
 NGot=  3758096384 LenX=  2658793876 LenY=  2658721611
 Requested convergence on RMS density matrix=1.00D-08 within  32 cycles.
 Requested convergence on MAX density matrix=1.00D-06.
 Requested convergence on             energy=1.00D-06.
 No special actions if energy rises.

 Cycle   1  Pass 1  IDiag  1:
 E= -1199.60918573568    
 DIIS: error= 1.18D-02 at cycle   1 NSaved=   1.
 NSaved= 1 IEnMin= 1 EnMin= -1199.60918573568     IErMin= 1 ErrMin= 1.18D-02
 ErrMax= 1.18D-02  0.00D+00 EMaxC= 1.00D-01 BMatC= 6.42D-02 BMatP= 6.42D-02
 IDIUse=3 WtCom= 8.82D-01 WtEn= 1.18D-01
 Coeff-Com:  0.100D+01
 Coeff-En:   0.100D+01
 Coeff:      0.100D+01
 Recover alternate guess density for next cycle.
 RMSDP=6.21D-03 MaxDP=4.41D-01              OVMax= 0.00D+00

 Cycle   2  Pass 1  IDiag  1:
 E= -1199.01761314031     Delta-E=        0.591572595371 Rises=F Damp=F
 Switch densities from cycles 1 and 2 for lowest energy.
 DIIS: error= 1.10D-01 at cycle   2 NSaved=   2.
 NSaved= 2 IEnMin= 1 EnMin= -1199.60918573568     IErMin= 1 ErrMin= 1.18D-02
 ErrMax= 1.10D-01  0.00D+00 EMaxC= 1.00D+00 BMatC= 3.34D+00 BMatP= 6.42D-02
 IDIUse=1 WtCom= 1.00D+00 WtEn= 0.00D+00
 Coeff-Com:  0.983D+00 0.175D-01
 Coeff:      0.983D+00 0.175D-01
 Gap=     0.395 Goal=   None    Shift=    0.000
 RMSDP=2.40D-03 MaxDP=8.32D-02 DE= 5.92D-01 OVMax= 1.62D-01

 Cycle   3  Pass 1  IDiag  1:
 E= -1199.71043769919     Delta-E=       -0.692824558880 Rises=F Damp=F
 DIIS: error= 6.42D-03 at cycle   3 NSaved=   3.
 NSaved= 3 IEnMin= 3 EnMin= -1199.71043769919     IErMin= 3 ErrMin= 6.42D-03
 ErrMax= 6.42D-03  0.00D+00 EMaxC= 1.00D+00 BMatC= 5.02D-03 BMatP= 6.42D-02
 IDIUse=1 WtCom= 1.00D+00 WtEn= 0.00D+00
 Coeff-Com: -0.817D-01 0.662D-02 0.108D+01
 Coeff:     -0.817D-01 0.662D-02 0.108D+01
 Gap=     0.379 Goal=   None    Shift=    0.000
 RMSDP=6.15D-04 MaxDP=1.44D-02 DE=-6.93D-01 OVMax= 3.72D-02

 Cycle   4  Pass 1  IDiag  1:
 E= -1199.71629793804     Delta-E=       -0.005860238844 Rises=F Damp=F
 DIIS: error= 6.58D-03 at cycle   4 NSaved=   4.
 NSaved= 4 IEnMin= 4 EnMin= -1199.71629793804     IErMin= 3 ErrMin= 6.42D-03
 ErrMax= 6.58D-03  0.00D+00 EMaxC= 1.00D+00 BMatC= 6.88D-03 BMatP= 5.02D-03
 IDIUse=1 WtCom= 1.00D+00 WtEn= 0.00D+00
 Coeff-Com: -0.112D+00 0.272D-02 0.643D+00 0.466D+00
 Coeff:     -0.112D+00 0.272D-02 0.643D+00 0.466D+00
 Gap=     0.378 Goal=   None    Shift=    0.000
 RMSDP=2.76D-04 MaxDP=1.00D-02 DE=-5.86D-03 OVMax= 1.42D-02

 Cycle   5  Pass 1  IDiag  1:
 E= -1199.72108010799     Delta-E=       -0.004782169955 Rises=F Damp=F
 DIIS: error= 1.13D-03 at cycle   5 NSaved=   5.
 NSaved= 5 IEnMin= 5 EnMin= -1199.72108010799     IErMin= 5 ErrMin= 1.13D-03
 ErrMax= 1.13D-03  0.00D+00 EMaxC= 1.00D+00 BMatC= 1.61D-04 BMatP= 5.02D-03
 IDIUse=1 WtCom= 1.00D+00 WtEn= 0.00D+00
 Coeff-Com: -0.879D-03-0.150D-02-0.990D-01 0.486D-01 0.105D+01
 Coeff:     -0.879D-03-0.150D-02-0.990D-01 0.486D-01 0.105D+01
 Gap=     0.377 Goal=   None    Shift=    0.000
 RMSDP=1.27D-04 MaxDP=3.45D-03 DE=-4.78D-03 OVMax= 7.82D-03

 Cycle   6  Pass 1  IDiag  1:
 E= -1199.72140522432     Delta-E=       -0.000325116333 Rises=F Damp=F
 DIIS: error= 3.33D-04 at cycle   6 NSaved=   6.
 NSaved= 6 IEnMin= 6 EnMin= -1199.72140522432     IErMin= 6 ErrMin= 3.33D-04
 ErrMax= 3.33D-04  0.00D+00 EMaxC= 1.00D+00 BMatC= 5.43D-05 BMatP= 1.61D-04
 IDIUse=1 WtCom= 1.00D+00 WtEn= 0.00D+00
 Coeff-Com:  0.945D-02-0.335D-03-0.108D+00-0.203D-01 0.508D+00 0.611D+00
 Coeff:      0.945D-02-0.335D-03-0.108D+00-0.203D-01 0.508D+00 0.611D+00
 Gap=     0.378 Goal=   None    Shift=    0.000
 RMSDP=5.53D-05 MaxDP=3.84D-03 DE=-3.25D-04 OVMax= 2.09D-03

 Cycle   7  Pass 1  IDiag  1:
 E= -1199.72145313182     Delta-E=       -0.000047907498 Rises=F Damp=F
 DIIS: error= 9.58D-05 at cycle   7 NSaved=   7.
 NSaved= 7 IEnMin= 7 EnMin= -1199.72145313182     IErMin= 7 ErrMin= 9.58D-05
 ErrMax= 9.58D-05  0.00D+00 EMaxC= 1.00D+00 BMatC= 4.67D-06 BMatP= 5.43D-05
 IDIUse=1 WtCom= 1.00D+00 WtEn= 0.00D+00
 Coeff-Com:  0.363D-02 0.754D-04-0.254D-01-0.140D-01 0.366D-01 0.233D+00
 Coeff-Com:  0.766D+00
 Coeff:      0.363D-02 0.754D-04-0.254D-01-0.140D-01 0.366D-01 0.233D+00
 Coeff:      0.766D+00
 Gap=     0.378 Goal=   None    Shift=    0.000
 RMSDP=1.84D-05 MaxDP=4.11D-04 DE=-4.79D-05 OVMax= 1.22D-03

 Cycle   8  Pass 1  IDiag  1:
 E= -1199.72145915752     Delta-E=       -0.000006025699 Rises=F Damp=F
 DIIS: error= 4.13D-05 at cycle   8 NSaved=   8.
 NSaved= 8 IEnMin= 8 EnMin= -1199.72145915752     IErMin= 8 ErrMin= 4.13D-05
 ErrMax= 4.13D-05  0.00D+00 EMaxC= 1.00D+00 BMatC= 1.02D-06 BMatP= 4.67D-06
 IDIUse=1 WtCom= 1.00D+00 WtEn= 0.00D+00
 Coeff-Com:  0.510D-03 0.678D-04 0.244D-02-0.405D-02-0.519D-01 0.248D-01
 Coeff-Com:  0.357D+00 0.671D+00
 Coeff:      0.510D-03 0.678D-04 0.244D-02-0.405D-02-0.519D-01 0.248D-01
 Coeff:      0.357D+00 0.671D+00
 Gap=     0.378 Goal=   None    Shift=    0.000
 RMSDP=1.05D-05 MaxDP=7.09D-04 DE=-6.03D-06 OVMax= 5.40D-04

 Cycle   9  Pass 1  IDiag  1:
 E= -1199.72146035853     Delta-E=       -0.000001201013 Rises=F Damp=F
 DIIS: error= 1.67D-05 at cycle   9 NSaved=   9.
 NSaved= 9 IEnMin= 9 EnMin= -1199.72146035853     IErMin= 9 ErrMin= 1.67D-05
 ErrMax= 1.67D-05  0.00D+00 EMaxC= 1.00D+00 BMatC= 2.02D-07 BMatP= 1.02D-06
 IDIUse=1 WtCom= 1.00D+00 WtEn= 0.00D+00
 Coeff-Com: -0.626D-03-0.418D-05 0.701D-02 0.125D-02-0.312D-01-0.476D-01
 Coeff-Com: -0.280D-01 0.329D+00 0.770D+00
 Coeff:     -0.626D-03-0.418D-05 0.701D-02 0.125D-02-0.312D-01-0.476D-01
 Coeff:     -0.280D-01 0.329D+00 0.770D+00
 Gap=     0.378 Goal=   None    Shift=    0.000
 RMSDP=4.23D-06 MaxDP=1.36D-04 DE=-1.20D-06 OVMax= 3.29D-04

 Cycle  10  Pass 1  IDiag  1:
 E= -1199.72146065504     Delta-E=       -0.000000296503 Rises=F Damp=F
 DIIS: error= 5.08D-06 at cycle  10 NSaved=  10.
 NSaved=10 IEnMin=10 EnMin= -1199.72146065504     IErMin=10 ErrMin= 5.08D-06
 ErrMax= 5.08D-06  0.00D+00 EMaxC= 1.00D+00 BMatC= 8.44D-09 BMatP= 2.02D-07
 IDIUse=1 WtCom= 1.00D+00 WtEn= 0.00D+00
 Coeff-Com: -0.641D-04-0.444D-05 0.686D-04 0.149D-03 0.447D-02-0.671D-02
 Coeff-Com: -0.390D-01-0.503D-01 0.580D-01 0.103D+01
 Coeff:     -0.641D-04-0.444D-05 0.686D-04 0.149D-03 0.447D-02-0.671D-02
 Coeff:     -0.390D-01-0.503D-01 0.580D-01 0.103D+01
 Gap=     0.378 Goal=   None    Shift=    0.000
 RMSDP=1.65D-06 MaxDP=7.22D-05 DE=-2.97D-07 OVMax= 1.12D-04

 Cycle  11  Pass 1  IDiag  1:
 E= -1199.72146067606     Delta-E=       -0.000000021027 Rises=F Damp=F
 DIIS: error= 2.11D-06 at cycle  11 NSaved=  11.
 NSaved=11 IEnMin=11 EnMin= -1199.72146067606     IErMin=11 ErrMin= 2.11D-06
 ErrMax= 2.11D-06  0.00D+00 EMaxC= 1.00D+00 BMatC= 2.39D-09 BMatP= 8.44D-09
 IDIUse=1 WtCom= 1.00D+00 WtEn= 0.00D+00
 Coeff-Com:  0.317D-04-0.891D-06-0.646D-03-0.627D-04 0.524D-02 0.151D-02
 Coeff-Com: -0.159D-01-0.568D-01-0.483D-01 0.488D+00 0.627D+00
 Coeff:      0.317D-04-0.891D-06-0.646D-03-0.627D-04 0.524D-02 0.151D-02
 Coeff:     -0.159D-01-0.568D-01-0.483D-01 0.488D+00 0.627D+00
 Gap=     0.378 Goal=   None    Shift=    0.000
 RMSDP=3.37D-07 MaxDP=8.88D-06 DE=-2.10D-08 OVMax= 2.14D-05

 Cycle  12  Pass 1  IDiag  1:
 E= -1199.72146067846     Delta-E=       -0.000000002397 Rises=F Damp=F
 DIIS: error= 4.38D-07 at cycle  12 NSaved=  12.
 NSaved=12 IEnMin=12 EnMin= -1199.72146067846     IErMin=12 ErrMin= 4.38D-07
 ErrMax= 4.38D-07  0.00D+00 EMaxC= 1.00D+00 BMatC= 1.37D-10 BMatP= 2.39D-09
 IDIUse=1 WtCom= 1.00D+00 WtEn= 0.00D+00
 Coeff-Com:  0.212D-04 0.246D-06-0.239D-03-0.428D-04 0.110D-02 0.163D-02
 Coeff-Com:  0.624D-03-0.934D-02-0.218D-01 0.206D-02 0.159D+00 0.867D+00
 Coeff:      0.212D-04 0.246D-06-0.239D-03-0.428D-04 0.110D-02 0.163D-02
 Coeff:      0.624D-03-0.934D-02-0.218D-01 0.206D-02 0.159D+00 0.867D+00
 Gap=     0.378 Goal=   None    Shift=    0.000
 RMSDP=1.54D-07 MaxDP=4.82D-06 DE=-2.40D-09 OVMax= 8.42D-06

 Cycle  13  Pass 1  IDiag  1:
 E= -1199.72146067867     Delta-E=       -0.000000000206 Rises=F Damp=F
 DIIS: error= 1.97D-07 at cycle  13 NSaved=  13.
 NSaved=13 IEnMin=13 EnMin= -1199.72146067867     IErMin=13 ErrMin= 1.97D-07
 ErrMax= 1.97D-07  0.00D+00 EMaxC= 1.00D+00 BMatC= 1.84D-11 BMatP= 1.37D-10
 IDIUse=1 WtCom= 1.00D+00 WtEn= 0.00D+00
 Coeff-Com:  0.360D-05 0.428D-07-0.116D-04-0.765D-05-0.165D-03 0.344D-03
 Coeff-Com:  0.164D-02 0.255D-02-0.220D-02-0.469D-01-0.221D-01 0.229D+00
 Coeff-Com:  0.838D+00
 Coeff:      0.360D-05 0.428D-07-0.116D-04-0.765D-05-0.165D-03 0.344D-03
 Coeff:      0.164D-02 0.255D-02-0.220D-02-0.469D-01-0.221D-01 0.229D+00
 Coeff:      0.838D+00
 Gap=     0.378 Goal=   None    Shift=    0.000
 RMSDP=5.51D-08 MaxDP=1.21D-06 DE=-2.06D-10 OVMax= 3.52D-06

 Cycle  14  Pass 1  IDiag  1:
 E= -1199.72146067877     Delta-E=       -0.000000000100 Rises=F Damp=F
 DIIS: error= 5.97D-08 at cycle  14 NSaved=  14.
 NSaved=14 IEnMin=14 EnMin= -1199.72146067877     IErMin=14 ErrMin= 5.97D-08
 ErrMax= 5.97D-08  0.00D+00 EMaxC= 1.00D+00 BMatC= 3.39D-12 BMatP= 1.84D-11
 IDIUse=1 WtCom= 1.00D+00 WtEn= 0.00D+00
 Coeff-Com: -0.200D-05 0.362D-07 0.331D-04 0.315D-05-0.232D-03-0.140D-03
 Coeff-Com:  0.462D-03 0.236D-02 0.265D-02-0.170D-01-0.323D-01-0.589D-01
 Coeff-Com:  0.283D+00 0.820D+00
 Coeff:     -0.200D-05 0.362D-07 0.331D-04 0.315D-05-0.232D-03-0.140D-03
 Coeff:      0.462D-03 0.236D-02 0.265D-02-0.170D-01-0.323D-01-0.589D-01
 Coeff:      0.283D+00 0.820D+00
 Gap=     0.378 Goal=   None    Shift=    0.000
 RMSDP=2.29D-08 MaxDP=4.74D-07 DE=-9.96D-11 OVMax= 1.44D-06

 Cycle  15  Pass 1  IDiag  1:
 E= -1199.72146067882     Delta-E=       -0.000000000048 Rises=F Damp=F
 DIIS: error= 2.88D-08 at cycle  15 NSaved=  15.
 NSaved=15 IEnMin=15 EnMin= -1199.72146067882     IErMin=15 ErrMin= 2.88D-08
 ErrMax= 2.88D-08  0.00D+00 EMaxC= 1.00D+00 BMatC= 4.57D-13 BMatP= 3.39D-12
 IDIUse=1 WtCom= 1.00D+00 WtEn= 0.00D+00
 Coeff-Com: -0.806D-06-0.305D-07 0.881D-05 0.115D-05-0.375D-04-0.666D-04
 Coeff-Com: -0.634D-04 0.286D-03 0.840D-03 0.153D-02-0.671D-02-0.492D-01
 Coeff-Com: -0.584D-02 0.269D+00 0.790D+00
 Coeff:     -0.806D-06-0.305D-07 0.881D-05 0.115D-05-0.375D-04-0.666D-04
 Coeff:     -0.634D-04 0.286D-03 0.840D-03 0.153D-02-0.671D-02-0.492D-01
 Coeff:     -0.584D-02 0.269D+00 0.790D+00
 Gap=     0.378 Goal=   None    Shift=    0.000
 RMSDP=8.10D-09 MaxDP=2.02D-07 DE=-4.82D-11 OVMax= 4.40D-07

 SCF Done:  E(RwB97XD) =  -1199.72146068     A.U. after   15 cycles
            NFock= 15  Conv=0.81D-08     -V/T= 2.0019
 KE= 1.197504725851D+03 PE=-4.654853233632D+03 EE= 1.354605730104D+03
 Leave Link  502 at Fri May 23 05:22:06 2025, MaxMem=  3758096384 cpu:              62.7 elap:              13.0
 (Enter /apps/easybuild-2022/easybuild/software/Compiler/NVHPC/22.11-CUDA-11.7.0/Gaussian/g16c01-CUDA-11.7.0/g16/l508.exe)
 QCSCF skips out because SCF is already converged.
 Leave Link  508 at Fri May 23 05:22:06 2025, MaxMem=  3758096384 cpu:               0.1 elap:               0.0
 (Enter /apps/easybuild-2022/easybuild/software/Compiler/NVHPC/22.11-CUDA-11.7.0/Gaussian/g16c01-CUDA-11.7.0/g16/l701.exe)
 ... and contract with generalized density number  0.
 Compute integral first derivatives.
 R6Disp: Adding Grimme-D2 dispersion energy 1st derivatives to the gradient.
 Leave Link  701 at Fri May 23 05:22:06 2025, MaxMem=  3758096384 cpu:               0.3 elap:               0.1
 (Enter /apps/easybuild-2022/easybuild/software/Compiler/NVHPC/22.11-CUDA-11.7.0/Gaussian/g16c01-CUDA-11.7.0/g16/l702.exe)
 L702 exits ... SP integral derivatives will be done elsewhere.
 Leave Link  702 at Fri May 23 05:22:06 2025, MaxMem=  3758096384 cpu:               0.1 elap:               0.0
 (Enter /apps/easybuild-2022/easybuild/software/Compiler/NVHPC/22.11-CUDA-11.7.0/Gaussian/g16c01-CUDA-11.7.0/g16/l703.exe)
 Integral derivatives from FoFJK, PRISM(SPDF).
 Compute integral first derivatives, UseDBF=F ICtDFT=           0.
 Calling FoFJK, ICntrl=      2127 FMM=F ISym2X=0 I1Cent= 0 IOpClX= 0 NMat=1 NMatS=1 NMatT=0.
 FoFJK:  IHMeth= 1 ICntrl=    2127 DoSepK=T KAlg= 0 I1Cent=           0 FoldK=F
 IRaf=         1 NMat=       1 IRICut=       1 DoRegI=T DoRafI=F ISym2E= 0 IDoP0=0 IntGTp=1.
 FoFCou: FMM=F IPFlag=           0 FMFlag=      100000 FMFlg1=         800
         NFxFlg=           0 DoJE=F BraDBF=F KetDBF=F FulRan=T
         wScrn=  0.000000 ICntrl=      2527 IOpCl=  0 I1Cent=           0 NGrid=           0
         NMat0=    1 NMatS0=      1 NMatT0=    0 NMatD0=    1 NMtDS0=    0 NMtDT0=    0
 Symmetry not used in FoFCou.
 Leave Link  703 at Fri May 23 05:22:10 2025, MaxMem=  3758096384 cpu:              28.8 elap:               3.7
 (Enter /apps/easybuild-2022/easybuild/software/Compiler/NVHPC/22.11-CUDA-11.7.0/Gaussian/g16c01-CUDA-11.7.0/g16/l716.exe)
 Dipole        =-1.38208215D+00-3.75281147D-01-3.67673080D-02
 -------------------------------------------------------------------
 Center     Atomic                   Forces (Hartrees/Bohr)
 Number     Number              X              Y              Z
 -------------------------------------------------------------------
      1        6           0.000690923    0.001771681   -0.002128750
      2        6          -0.002231726   -0.003471663    0.002683074
      3        9           0.000047211    0.002922209    0.001156576
      4        9           0.008967326   -0.008124379    0.010024405
      5       16           0.015399306   -0.000943660    0.019872055
      6        8          -0.016694261    0.005100918   -0.016178102
      7        8          -0.006670277    0.004442403   -0.008802424
      8        8           0.000023265    0.001332831   -0.007716801
      9        9           0.000584412   -0.000843916    0.000693024
     10        9          -0.000197890   -0.000163231    0.000615539
     11        9          -0.000015133   -0.000542213    0.000537023
     12        1           0.000096843   -0.001480981   -0.000755620
 -------------------------------------------------------------------
 Cartesian Forces:  Max     0.019872055 RMS     0.006865602
 Leave Link  716 at Fri May 23 05:22:10 2025, MaxMem=  3758096384 cpu:               0.1 elap:               0.0
 (Enter /apps/easybuild-2022/easybuild/software/Compiler/NVHPC/22.11-CUDA-11.7.0/Gaussian/g16c01-CUDA-11.7.0/g16/l103.exe)

 GradGradGradGradGradGradGradGradGradGradGradGradGradGradGradGradGradGrad
 Berny optimization.
 Using GEDIIS/GDIIS optimizer.
 FormGI is forming the generalized inverse of G from B-inverse, IUseBI=4.
 Internal  Forces:  Max     0.057176475 RMS     0.013820338
 Search for a local minimum.
 Step number   2 out of a maximum of   56
 All quantities printed in internal units (Hartrees-Bohrs-Radians)
 RMS Force = .13820D-01 SwitMx=.10000D-02 MixMth= 1
 Mixed Optimization -- RFO/linear search
 Update second derivatives using D2CorX and points    1    2
 ITU=  0  0
 Use linear search instead of GDIIS.
     Eigenvalues ---   -0.20460  -0.00079   0.00304   0.01035   0.03342
     Eigenvalues ---    0.07004   0.08150   0.09405   0.09941   0.10504
     Eigenvalues ---    0.12065   0.13912   0.17322   0.19356   0.19804
     Eigenvalues ---    0.20458   0.22764   0.23357   0.23767   0.25845
     Eigenvalues ---    0.32834   0.36357   0.38048   0.38780   0.39354
     Eigenvalues ---    0.47152   0.52420   0.55665   0.58348   0.62413
 Eigenvalue     1 is  -2.05D-01 should be greater than     0.000000 Eigenvector:
                          D17       A14       D15       D16       D11
   1                   -0.40725   0.40583  -0.39374  -0.33978  -0.23726
                          A15       D13       D14       A13       A12
[...]
    D9        2.93567   0.00000   0.00000  -0.00001  -0.00001   2.93566
   D10        1.10692   0.00000   0.00000  -0.00001  -0.00001   1.10691
   D11        3.02760  -0.00000   0.00000  -0.00002  -0.00002   3.02758
   D12       -1.01523   0.00000   0.00000  -0.00001  -0.00001  -1.01524
   D13        0.90545  -0.00000   0.00000  -0.00002  -0.00002   0.90544
   D14       -3.11205   0.00000   0.00000  -0.00001  -0.00001  -3.11206
   D15       -1.19137  -0.00000   0.00000  -0.00002  -0.00002  -1.19139
   D16        2.83383   0.00000   0.00000   0.00004   0.00004   2.83387
   D17       -1.59006   0.00000   0.00000   0.00004   0.00004  -1.59002
   D18        1.90521  -0.00000   0.00000  -0.00004  -0.00004   1.90517
         Item               Value     Threshold  Converged?
 Maximum Force            0.000003     0.000015     YES
 RMS     Force            0.000001     0.000010     YES
 Maximum Displacement     0.000092     0.000060     NO 
 RMS     Displacement     0.000028     0.000040     YES
 Predicted change in Energy=-4.660946D-11
                           ----------------------------
                           ! Non-Optimized Parameters !
                           ! (Angstroms and Degrees)  !
 --------------------------                            --------------------------
 ! Name  Definition              Value          Derivative Info.                !
 --------------------------------------------------------------------------------
 ! R1    R(1,2)                  1.5513         -DE/DX =    0.0                 !
 ! R2    R(1,9)                  1.323          -DE/DX =    0.0                 !
 ! R3    R(1,10)                 1.3366         -DE/DX =    0.0                 !
 ! R4    R(1,11)                 1.3281         -DE/DX =    0.0                 !
 ! R5    R(2,3)                  1.3303         -DE/DX =    0.0                 !
 ! R6    R(2,4)                  1.3374         -DE/DX =    0.0                 !
 ! R7    R(2,5)                  1.9159         -DE/DX =    0.0                 !
 ! R8    R(5,7)                  1.4609         -DE/DX =    0.0                 !
 ! R9    R(5,8)                  1.6966         -DE/DX =    0.0                 !
 ! R10   R(6,8)                  1.4215         -DE/DX =    0.0                 !
 ! R11   R(6,12)                 0.9657         -DE/DX =    0.0                 !
 ! A1    A(2,1,9)              111.0409         -DE/DX =    0.0                 !
 ! A2    A(2,1,10)             109.1395         -DE/DX =    0.0                 !
 ! A3    A(2,1,11)             109.949          -DE/DX =    0.0                 !
 ! A4    A(9,1,10)             108.9709         -DE/DX =    0.0                 !
 ! A5    A(9,1,11)             108.9927         -DE/DX =    0.0                 !
 ! A6    A(10,1,11)            108.7065         -DE/DX =    0.0                 !
 ! A7    A(1,2,3)              109.2515         -DE/DX =    0.0                 !
 ! A8    A(1,2,4)              108.6296         -DE/DX =    0.0                 !
 ! A9    A(1,2,5)              110.7628         -DE/DX =    0.0                 !
 ! A10   A(3,2,4)              110.0347         -DE/DX =    0.0                 !
 ! A11   A(3,2,5)              111.0597         -DE/DX =    0.0                 !
 ! A12   A(4,2,5)              107.0526         -DE/DX =    0.0                 !
 ! A13   A(2,5,7)              106.6689         -DE/DX =    0.0                 !
 ! A14   A(2,5,8)               86.6375         -DE/DX =    0.0                 !
 ! A15   A(7,5,8)              110.1596         -DE/DX =    0.0                 !
 ! A16   A(8,6,12)             101.2167         -DE/DX =    0.0                 !
 ! A17   A(5,8,6)              106.2641         -DE/DX =    0.0                 !
 ! D1    D(9,1,2,3)             51.551          -DE/DX =    0.0                 !
 ! D2    D(9,1,2,4)            171.5961         -DE/DX =    0.0                 !
 ! D3    D(9,1,2,5)            -71.0965         -DE/DX =    0.0                 !
 ! D4    D(10,1,2,3)           171.6965         -DE/DX =    0.0                 !
 ! D5    D(10,1,2,4)           -68.2583         -DE/DX =    0.0                 !
 ! D6    D(10,1,2,5)            49.0491         -DE/DX =    0.0                 !
 ! D7    D(11,1,2,3)           -69.1516         -DE/DX =    0.0                 !
 ! D8    D(11,1,2,4)            50.8935         -DE/DX =    0.0                 !
 ! D9    D(11,1,2,5)           168.2009         -DE/DX =    0.0                 !
 ! D10   D(1,2,5,7)             63.4213         -DE/DX =    0.0                 !
 ! D11   D(1,2,5,8)            173.4678         -DE/DX =    0.0                 !
 ! D12   D(3,2,5,7)            -58.1689         -DE/DX =    0.0                 !
 ! D13   D(3,2,5,8)             51.8776         -DE/DX =    0.0                 !
 ! D14   D(4,2,5,7)           -178.3081         -DE/DX =    0.0                 !
 ! D15   D(4,2,5,8)            -68.2616         -DE/DX =    0.0                 !
 ! D16   D(2,5,8,6)            162.3687         -DE/DX =    0.0                 !
 ! D17   D(7,5,8,6)            -91.1013         -DE/DX =    0.0                 !
 ! D18   D(12,6,8,5)           109.1584         -DE/DX =    0.0                 !
 --------------------------------------------------------------------------------
 GradGradGradGradGradGradGradGradGradGradGradGradGradGradGradGradGradGrad

 Leave Link  103 at Fri May 23 05:29:32 2025, MaxMem=  3758096384 cpu:               0.0 elap:               0.0
 (Enter /apps/easybuild-2022/easybuild/software/Compiler/NVHPC/22.11-CUDA-11.7.0/Gaussian/g16c01-CUDA-11.7.0/g16/l9999.exe)

 ----------------------------------------------------------------------

 Electric dipole moment (input orientation):
 (Debye = 10**-18 statcoulomb cm , SI units = C m)
                  (au)            (Debye)         (10**-30 SI)
   Tot        0.529589D+00      0.134608D+01      0.449004D+01
   x         -0.471477D+00     -0.119838D+01     -0.399735D+01
   y         -0.729478D-01     -0.185415D+00     -0.618477D+00
   z         -0.229896D+00     -0.584337D+00     -0.194914D+01

 Dipole polarizability, Alpha (input orientation).
 (esu units = cm**3 , SI units = C**2 m**2 J**-1)
 Alpha(0;0):
               (au)            (10**-24 esu)      (10**-40 SI)
   iso        0.610671D+02      0.904921D+01      0.100686D+02
   aniso      0.221049D+02      0.327561D+01      0.364461D+01
   xx         0.657502D+02      0.974318D+01      0.108407D+02
   yx        -0.352849D+01     -0.522868D+00     -0.581769D+00
   yy         0.608841D+02      0.902210D+01      0.100384D+02
   zx         0.112921D+02      0.167332D+01      0.186182D+01
   zy        -0.134385D+01     -0.199139D+00     -0.221571D+00
   zz         0.565670D+02      0.838236D+01      0.932664D+01

 ----------------------------------------------------------------------

 Dipole orientation:
     6         -1.51706459          0.84066941         -9.35058519
     6         -0.23682267          1.06199551         -6.72261114
     9          2.25448371          0.86514425         -6.99506251
     9         -0.82391618          3.30881952         -5.72517484
    16         -1.50212619         -1.46668404         -4.46148917
     8         -0.00891331         -1.38684757          0.01988940
     8         -0.78530993         -3.91097102         -5.52592555
     8          0.73207429         -0.46476576         -2.39191211
     9         -0.72731146         -1.19698475        -10.56505117
     9         -4.01984829          0.69473257         -9.04287042
     9         -0.99284646          2.86941866        -10.73205889
     1          1.25140258         -2.67423964          0.31027218

 Electric dipole moment (dipole orientation):
 (Debye = 10**-18 statcoulomb cm , SI units = C m)
                  (au)            (Debye)         (10**-30 SI)
   Tot        0.529589D+00      0.134608D+01      0.449004D+01
   x          0.000000D+00      0.000000D+00      0.000000D+00
   y          0.000000D+00      0.000000D+00      0.000000D+00
   z          0.529589D+00      0.134608D+01      0.449004D+01

 Dipole polarizability, Alpha (dipole orientation).
 (esu units = cm**3 , SI units = C**2 m**2 J**-1)
 Alpha(0;0):
               (au)            (10**-24 esu)      (10**-40 SI)
   iso        0.610671D+02      0.904921D+01      0.100686D+02
   aniso      0.221049D+02      0.327561D+01      0.364461D+01
   xx         0.495074D+02      0.733624D+01      0.816267D+01
   yx         0.970292D+00      0.143782D+00      0.159980D+00
   yy         0.620646D+02      0.919702D+01      0.102331D+02
   zx         0.288490D+01      0.427499D+00      0.475657D+00
   zy        -0.552455D+01     -0.818654D+00     -0.910875D+00
   zz         0.716294D+02      0.106144D+02      0.118101D+02

 ----------------------------------------------------------------------
 Unable to Open any file for archive entry.
 1\1\GINC-SPARTAN-BM191\Freq\RwB97XD\6-311++G(d,p)\C2H1F5O3S1\AKHALILOV
 \23-May-2025\0\\#P Geom=AllCheck Guess=TCheck SCRF=Check GenChk RwB97X
 D/6-311++G(d,p) Freq\\Gaussian input prepared by ASE\\0,1\C,4.08408624
 1,0.3112434552,2.9239715294\C,3.1590903803,-0.0538142073,1.7332779114\
 F,3.868275126,-0.0438949183,0.6078342679\F,2.6518797963,-1.2731903482,
 1.9445093819\S,1.6799086969,1.1590408863,1.6256398838\O,-0.074234566,0
 .72313221,-0.1014585719\O,2.2404563275,2.4805412564,1.3542923778\O,1.2
 791206558,0.3839124099,0.1706974466\F,4.7509799671,1.428045325,2.68236
 69185\F,3.3400605576,0.4782688708,4.0217354672\F,4.9508059379,-0.67114
 45591,3.1422323552\H,0.0290483807,1.3171822808,-0.8557524098\\Version=
 ES64L-G16RevC.01\HF=-1199.7361998\RMSD=2.631e-09\RMSF=1.517e-06\ZeroPo
 int=0.0496049\Thermal=0.0609141\ETot=-1199.6752857\HTot=-1199.6743416\
 GTot=-1199.7252385\Dipole=-0.4714774,-0.0729478,-0.2298957\DipoleDeriv
 =1.7247885,-0.181261,-0.0518671,0.0641643,1.5106297,-0.0180836,0.10821
 45,-0.2458303,1.5648933,0.9014206,0.0871936,-0.2133566,-0.12566,1.1841
 202,-0.2043215,-0.3579163,-0.0352656,0.9057131,-0.6090268,0.1503106,0.
 2196608,0.0939332,-0.287554,-0.0435281,0.3985433,-0.0902466,-0.6658291
 ,-0.3467741,-0.1642904,0.0237178,-0.0624204,-0.9610778,0.1996094,-0.03
 2588,0.0932537,-0.294955,0.822845,0.2938075,0.1244574,0.1615001,1.6060
 097,0.2932645,0.2900153,0.1213982,1.1152364,-0.1839811,0.0011345,-0.13
 88951,0.1508825,-0.2263932,-0.0167998,-0.191356,-0.0622284,-0.3116592,
 -0.4473989,-0.3411911,-0.0156994,-0.0194126,-1.1475053,-0.116386,0.049
 6904,0.2489626,-0.4354127,-0.2950187,0.0230315,0.0163991,-0.2978942,-0
 .4063703,-0.2263625,-0.3137975,-0.2700199,-0.6893474,-0.5240244,-0.276
 6656,0.0146975,-0.2973932,-0.6545503,0.0891269,-0.0364881,0.044335,-0.
 3296512,-0.5155254,0.0421097,0.1678719,0.0464181,-0.2764603,-0.0708216
 ,0.2354215,-0.0239016,-0.8056966,-0.7295636,0.4074292,-0.1767899,0.346
 3153,-0.6376138,0.0915339,-0.233429,0.1655906,-0.3930706,0.2022587,-0.
 0416084,0.0298035,-0.0604331,0.2967655,0.0227684,0.08369,0.0539523,0.3
 397789\Polar=65.7502378,-3.5284893,60.8841416,11.2921093,-1.3438533,56
 .5669994\PG=Unknown\NImag=0\\0.57055218,0.01472428,0.56034678,0.024316
 78,0.00111930,0.56539793,-0.10122928,0.00320291,-0.05777181,0.44726830
 ,-0.01982738,-0.05507710,-0.03517962,0.05073211,0.48873584,-0.07817974
 ,-0.01385526,-0.12395955,-0.02906874,0.02950430,0.52660573,0.00275927,
 -0.00137618,-0.00142819,-0.13038355,0.01058174,0.11417926,0.15692628,0
 .00640549,0.00062065,-0.00401644,0.00881929,-0.06924072,-0.02060098,0.
 00970570,0.06713330,0.03845291,-0.00174652,-0.04023586,0.09485328,-0.0
 2168127,-0.25515002,-0.15608101,-0.00269235,0.32453527,-0.00987521,-0.
 03179669,0.00720358,-0.09380171,-0.06705888,-0.00130447,-0.01631004,-0
 .03366601,0.02706086,0.11366714,-0.00926140,-0.03675239,0.01362261,-0.
 07998929,-0.27670362,0.00421794,-0.02258961,-0.00648097,0.02995961,0.1
 2325836,0.34778924,-0.00376019,-0.01956815,0.00720781,0.00501680,0.015
 45538,-0.07053527,0.02861717,0.04475720,-0.01569396,-0.02102048,-0.043
 04636,0.07849395,-0.01318413,0.01707039,-0.01091474,-0.08532481,0.0171
 3210,0.02725208,-0.03084933,0.01514348,0.01644616,0.01076853,-0.016164
 39,-0.00254509,0.32662397,0.00685937,0.02706501,0.01404561,0.03133578,
 -0.04578868,-0.02581301,-0.00005673,-0.00111710,0.00458137,0.00866226,
 -0.02624251,0.00347422,0.15998484,0.59921406,-0.01948272,0.01463055,0.
 00849288,-0.02134456,0.00724159,-0.04011461,0.03080444,-0.01591049,-0.
 01396575,0.00033577,0.00184440,0.00157180,-0.05351733,-0.05362225,0.28
 480152,0.00028581,0.00142793,0.00196890,0.00109574,-0.00423470,-0.0030
 9066,0.00039445,-0.00018191,-0.00040464,0.00055698,0.00209932,0.000014
 38,-0.02422944,-0.00329778,-0.01502064,0.31527818,-0.00034499,-0.00048
 673,-0.00046930,-0.00024315,0.00047635,-0.00034703,-0.00026226,0.00011
 056,0.00062097,0.00000762,0.00177386,-0.00011942,-0.00630973,-0.006158
 45,0.00200566,-0.00583667,0.23333691,0.00040539,0.00327026,0.00334947,
 -0.00188718,-0.00801993,-0.01114668,-0.00022033,0.00017245,0.00259324,
 0.00078911,0.00108424,0.00036387,-0.03400579,0.01322608,0.00099260,0.0
 0449045,-0.27431719,0.39318164,-0.00275038,-0.01179898,0.00019450,0.01
 405881,0.01318185,-0.00708587,0.00988142,-0.00345176,-0.00680334,-0.00
 356053,0.00667447,0.00083281,-0.14301343,-0.20044120,0.05804004,0.0004
 6663,0.00114451,0.00226773,0.11512796,-0.00336990,-0.01111096,-0.00808
 365,-0.01911046,-0.01171221,0.00962404,0.00621709,0.00228467,-0.005323
 36,0.00415879,-0.01312636,0.00360314,-0.18320513,-0.48286939,0.0933147
 5,-0.00486465,0.00499727,-0.00061896,0.19527668,0.52195286,0.00279026,
 -0.00118743,-0.00103636,0.00668282,-0.00145286,0.00239559,-0.00570923,
 0.00186001,0.00446599,-0.00112132,0.00053402,0.00046997,0.05761410,0.1
 1447393,-0.08006854,-0.00126598,-0.00126763,-0.00085600,-0.04181894,-0
 .09409703,0.05681077,-0.00113464,0.00435294,0.00469034,-0.01409111,-0.
 00390893,-0.02630603,-0.00072701,-0.00066231,-0.00182511,0.00008054,0.
 00083290,-0.00029161,-0.03798075,-0.00033634,0.01815971,-0.23994205,0.
 07565691,-0.05711985,0.00831955,0.00050113,-0.01531874,0.30544384,0.00
 128178,-0.00486867,-0.00131457,0.00482994,0.00115360,0.01311949,-0.000
 75299,0.00161722,0.00030921,0.00193644,0.00159562,0.00174082,0.0023474
 3,-0.05574238,-0.04487723,0.04629970,-0.03743866,0.01855212,-0.0081547
 0,-0.01578998,-0.02142101,-0.07832314,0.11241463,0.00383899,-0.0044556
 0,-0.00237508,0.00327372,0.00327248,0.00154789,-0.00300378,0.00138974,
 0.00153819,-0.00319190,0.00338821,-0.00122792,-0.00113230,-0.06306366,
 -0.14827227,-0.02178437,0.02389358,-0.06537364,-0.00491497,-0.00456674
 ,0.01654348,0.07518501,0.03489542,0.19347297,-0.15051323,-0.10525275,0
 .00029684,-0.00925780,-0.02832401,0.01494713,0.00260825,0.00161037,-0.
 00446183,-0.00622047,-0.00513045,-0.00601040,0.00050717,-0.00269483,0.
 00098553,-0.00022681,0.00016885,-0.00041693,-0.00101058,0.00274648,-0.
 00152899,-0.00014710,0.00012979,-0.00055551,0.16924539,-0.10732443,-0.
 22981238,0.00862083,-0.01700627,-0.02137067,0.01206692,0.00159385,0.00
 245362,-0.00172506,-0.00511560,-0.00193960,-0.00468133,-0.00232422,-0.
 01034979,-0.00113133,-0.00043904,0.00019670,-0.00075941,0.00552954,0.0
 0547022,0.00018428,-0.00077631,0.00165168,0.00074427,0.14823312,0.3333
 1712,0.00686146,0.01595806,-0.08311626,-0.00694372,-0.01393103,0.00777
 612,-0.00235103,-0.00149831,0.00221009,-0.00486461,-0.00514798,-0.0027
 0679,0.00139623,0.00021911,-0.00152143,-0.00016430,0.00009344,-0.00023
 820,-0.00241487,0.00086035,0.00013855,-0.00035425,-0.00011237,0.000136
 29,-0.03721723,-0.05710020,0.08693520,-0.11356002,0.01194541,0.0742263
 5,0.00320112,-0.00170794,-0.00161380,0.00147553,-0.00090029,-0.0035263
 3,0.00219181,0.00123282,-0.00120004,-0.00118620,0.00046955,0.00303987,
 0.00019768,0.00007891,0.00025362,0.00087554,-0.00019158,-0.00102904,0.
 00092865,-0.00025452,-0.00173452,-0.02843434,-0.02346061,0.04459094,0.
 17465122,0.00987182,-0.07879602,-0.02679538,0.00581659,0.00412994,-0.0
 0805214,-0.00105068,0.00026059,-0.00340398,0.00116941,0.00263213,-0.00
 023615,-0.00122700,-0.00343074,-0.00141380,-0.00014512,0.00004641,-0.0
 0022673,0.00127799,0.00173181,0.00044380,-0.00047874,0.00050066,0.0008
 0195,-0.03016192,0.00090520,0.03829709,-0.02341661,0.08471490,0.066880
 70,-0.02833927,-0.23967840,0.03565562,-0.00158607,-0.03349428,-0.00548
 474,-0.00276808,-0.01272519,-0.00463885,-0.00406165,0.00109843,0.00070
 576,-0.00292733,-0.00308121,-0.00046875,0.00021824,-0.00062698,-0.0000
 3638,0.00227523,0.00027737,-0.00069204,0.00014482,0.00096970,0.0352857
 7,0.02508719,-0.01906692,-0.15143216,0.03115407,0.30010788,-0.18130113
 ,0.09683346,-0.04313043,-0.03112440,0.03448794,-0.00733868,0.00396811,
 -0.00268444,-0.00413080,0.00244664,-0.00055858,0.00019539,0.00141454,-
 0.00732428,-0.00118313,-0.00067439,0.00027717,-0.00171566,0.00147331,0
 .00280550,-0.00059272,-0.00185193,0.00049220,-0.00005007,0.02350221,0.
 00126069,0.00145110,-0.04034959,0.03839288,0.02423639,0.22274136,0.100
 80530,-0.17157907,0.03809848,0.01206545,-0.01409032,0.00093702,-0.0019
 6626,0.00239162,0.00115654,-0.00164709,0.00753879,-0.00139995,-0.00238
 098,0.00008544,-0.00071972,0.00025960,-0.00001602,0.00059414,0.0010475
 6,0.00045180,0.00042551,0.00054074,0.00040692,0.00066523,0.01877436,-0
 .08035356,0.02238887,0.03624416,-0.01265231,-0.01909088,-0.16378571,0.
 26776935,-0.04154777,0.03403273,-0.09362291,-0.02741326,0.02607509,-0.
 00365982,0.00026800,-0.00059473,0.00255721,0.00049170,-0.00172548,0.00
 074442,0.00107589,-0.00665886,-0.00336922,-0.00065105,0.00019389,-0.00
 142481,0.00107705,0.00281982,0.00002292,-0.00184927,0.00075223,0.00085
 663,-0.00149167,0.01866953,0.00936692,0.03828135,-0.03053008,0.0061064
 6,0.03195853,-0.04286715,0.08225753,-0.00004924,0.00066727,0.00034788,
 -0.00041131,-0.00105390,-0.00239048,0.00025662,-0.00013761,0.00041985,
 0.00005631,-0.00040415,0.00015127,-0.00354613,0.00683937,-0.00081696,-
 0.05320279,-0.06433715,0.08715943,0.00013170,-0.00096394,0.00129776,-0
 .01889800,0.03016806,-0.04593029,-0.00005270,-0.00017072,0.00001028,0.
 00000860,-0.00004862,-0.00001132,-0.00024472,0.00004288,-0.00019952,0.
 07595165,0.00018007,0.00045088,0.00035215,-0.00045290,-0.00051240,-0.0
 0080130,-0.00004367,-0.00003344,-0.00005516,0.00009139,-0.00008420,0.0
 0002060,-0.00006679,0.00533453,-0.00136213,-0.03108666,-0.19683819,0.2
 4704291,-0.00028595,-0.00227973,0.00150441,0.00260115,-0.00550064,0.00
 303511,-0.00009903,-0.00016853,-0.00002704,-0.00003930,-0.00004256,-0.
 00010627,-0.00019683,0.00004735,-0.00016698,0.02939852,0.19962693,-0.0
 0057607,0.00014133,-0.00042367,-0.00105297,0.00030195,-0.00026511,0.00
 040944,-0.00009803,-0.00012922,0.00026061,-0.00066958,0.00021370,-0.00
 237498,0.00206480,-0.00546578,0.03637667,0.24949480,-0.32081451,0.0006
 6224,0.00019242,0.00083628,0.00572184,-0.00178893,0.00218378,0.0001672
 9,0.00002429,0.00008643,0.00014376,-0.00003866,0.00011314,0.00030008,-
 0.00018808,0.00016467,-0.04003790,-0.24943630,0.32350028\\-0.00000028,
 0.00000144,0.00000067,-0.00000013,-0.00000043,0.00000034,-0.00000048,-
 0.00000276,0.00000090,-0.00000130,0.00000099,0.00000290,-0.00000004,0.
 00000106,-0.00000254,-0.00000061,-0.00000098,-0.00000050,0.00000113,-0
 .00000013,-0.00000280,0.00000141,-0.00000190,0.00000211,0.00000069,0.0
 0000053,-0.00000168,0.00000010,0.00000366,0.00000001,-0.00000072,0.000
 00121,0.00000192,0.00000021,-0.00000270,-0.00000134\\\@
 The archive entry for this job was punched.


 Where a calculator on the ENIAC is equipped with 18,000
 vacuum tubes and weighs 30 tons, computers inthe future
 may  have only 1,000 vacuum tubes and weigh only 1 1/2 tons.
              ---Popular Mechanics, March 1949
 Job cpu time:       0 days  0 hours  9 minutes  4.7 seconds.
 Elapsed time:       0 days  0 hours  1 minutes 10.5 seconds.
 File lengths (MBytes):  RWF=     99 Int=      0 D2E=      0 Chk=      6 Scr=      1
 Normal termination of Gaussian 16 at Fri May 23 05:29:32 2025.
done
