 Entering Gaussian System, Link 0=g16
 Initial command:
 /apps/easybuild-2022/easybuild/software/Compiler/NVHPC/22.11-CUDA-11.7.0/Gaussian/g16c01-CUDA-11.7.0/g16/l1.exe "/tmp/Gau-163152.inp" -scrdir="/tmp/"
 Entering Link 1 = /apps/easybuild-2022/easybuild/software/Compiler/NVHPC/22.11-CUDA-11.7.0/Gaussian/g16c01-CUDA-11.7.0/g16/l1.exe PID=    163153.
  
 Copyright (c) 1988-2019, Gaussian, Inc.  All Rights Reserved.
  
 This is part of the Gaussian(R) 16 program.  It is based on
 the Gaussian(R) 09 system (copyright 2009, Gaussian, Inc.),
 the Gaussian(R) 03 system (copyright 2003, Gaussian, Inc.),
 the Gaussian(R) 98 system (copyright 1998, Gaussian, Inc.),
 the Gaussian(R) 94 system (copyright 1995, Gaussian, Inc.),
 the Gaussian 92(TM) system (copyright 1992, Gaussian, Inc.),
 the Gaussian 90(TM) system (copyright 1990, Gaussian, Inc.),
 the Gaussian 88(TM) system (copyright 1988, Gaussian, Inc.),
 the Gaussian 86(TM) system (copyright 1986, Carnegie Mellon
 University), and the Gaussian 82(TM) system (copyright 1983,
 Carnegie Mellon University). Gaussian is a federally registered
 trademark of Gaussian, Inc.
  
 This software contains proprietary and confidential information,
 including trade secrets, belonging to Gaussian, Inc.
  
 This software is provided under written license and may be
 used, copied, transmitted, or stored only in accord with that
 written license.
  
 The following legend is applicable only to US Government
 contracts under FAR:
  
                    RESTRICTED RIGHTS LEGEND
  
 Use, reproduction and disclosure by the US Government is
 subject to restrictions as set forth in subparagraphs (a)
 and (c) of the Commercial Computer Software - Restricted
 Rights clause in FAR 52.227-19.
  
 Gaussian, Inc.
 340 Quinnipiac St., Bldg. 40, Wallingford CT 06492
  
  
 ---------------------------------------------------------------
 Warning -- This program may not be used in any manner that
 competes with the business of Gaussian, Inc. or will provide
 assistance to any competitor of Gaussian, Inc.  The licensee
 of this program is prohibited from giving any competitor of
 Gaussian, Inc. access to this program.  By using this program,
 the user acknowledges that Gaussian, Inc. is engaged in the
 business of creating and licensing software in the field of
 computational chemistry and represents and warrants to the
 licensee that it is not a competitor of Gaussian, Inc. and that
 it will not use this program in any manner prohibited above.
 ---------------------------------------------------------------
  

 Cite this work as:
 Gaussian 16, Revision C.01,
 M. J. Frisch, G. W. Trucks, H. B. Schlegel, G. E. Scuseria, 
 M. A. Robb, J. R. Cheeseman, G. Scalmani, V. Barone, 
 G. A. Petersson, H. Nakatsuji, X. Li, M. Caricato, A. V. Marenich, 
 J. Bloino, B. G. Janesko, R. Gomperts, B. Mennucci, H. P. Hratchian, 
 J. V. Ortiz, A. F. Izmaylov, J. L. Sonnenberg, D. Williams-Young, 
 F. Ding, F. Lipparini, F. Egidi, J. Goings, B. Peng, A. Petrone, 
 T. Henderson, D. Ranasinghe, V. G. Zakrzewski, J. Gao, N. Rega, 
 G. Zheng, W. Liang, M. Hada, M. Ehara, K. Toyota, R. Fukuda, 
 J. Hasegawa, M. Ishida, T. Nakajima, Y. Honda, O. Kitao, H. Nakai, 
 T. Vreven, K. Throssell, J. A. Montgomery, Jr., J. E. Peralta, 
 F. Ogliaro, M. J. Bearpark, J. J. Heyd, E. N. Brothers, K. N. Kudin, 
 V. N. Staroverov, T. A. Keith, R. Kobayashi, J. Normand, 
 K. Raghavachari, A. P. Rendell, J. C. Burant, S. S. Iyengar, 
 J. Tomasi, M. Cossi, J. M. Millam, M. Klene, C. Adamo, R. Cammi, 
 J. W. Ochterski, R. L. Martin, K. Morokuma, O. Farkas, 
 J. B. Foresman, and D. J. Fox, Gaussian, Inc., Wallingford CT, 2019.
 
 ******************************************
 Gaussian 16:  ES64L-G16RevC.01  3-Jul-2019
                23-May-2025 
 ******************************************
 %mem=28GB
 %nprocshared=8
 Will use up to    8 processors via shared memory.
 ----------------------------------------------------------------------
 #P wb97xd/6-311++G(d,p) Symm(None) scf(xqc) pop(None) freq opt(CalcFC,
  Tight)
 ----------------------------------------------------------------------
 1/7=10,10=4,18=20,19=15,26=3,38=1/1,3;
 2/9=110,12=2,15=3,17=6,18=5,40=1/2;
 3/5=4,6=6,7=1111,11=2,25=1,30=1,71=2,74=-58,140=1/1,2,3;
 4//1;
 5/5=2,8=3,13=1,38=5/2,8;
 8/6=4,10=90,11=11/1;
 11/6=1,8=1,9=11,15=111,16=1,31=1/1,2,10;
 10/6=1,13=1,31=1/2;
 7/10=1,25=1,30=1/1,2,3,16;
 1/7=10,10=4,18=20,19=15,26=3/3(2);
 2/9=110,15=3/2;
 99//99;
 2/9=110,15=3/2;
 3/5=4,6=6,7=1111,11=2,25=1,30=1,71=1,74=-58/1,2,3;
 4/5=5,16=3,69=1/1;
 5/5=2,8=3,13=1,38=5/2,8;
 7/30=1/1,2,3,16;
 1/7=10,18=20,19=15,26=3/3(-5);
 2/9=110,15=3/2;
 99/9=1/99;
 Leave Link    1 at Fri May 23 04:18:21 2025, MaxMem=  3758096384 cpu:               0.1 elap:               0.0
 (Enter /apps/easybuild-2022/easybuild/software/Compiler/NVHPC/22.11-CUDA-11.7.0/Gaussian/g16c01-CUDA-11.7.0/g16/l101.exe)
 ------------------------------
 Gaussian input prepared by ASE
 ------------------------------
 Symbolic Z-matrix:
 Charge =  0 Multiplicity = 1
 C                     3.53373  -1.71571  -1.15889 
 C                     1.35039   0.        0. 
 F                     0.        0.        0. 
 F                     1.77227  -0.67522   1.05149 
 S                     1.88799  -0.88748  -1.59771 
 O                     2.17108   0.07386  -2.63094 
 O                     0.89951  -1.93999  -1.74326 
 O                     1.8736    1.22319   0. 
 F                     4.06519  -2.14094  -2.28955 
 F                     4.33185  -0.82459  -0.59442 
 F                     3.34312  -2.73325  -0.34405 
 H                     1.43962   1.76848   0.67137 
 
 ITRead=  0  0  0  0  0  0  0  0  0  0  0  0
 MicOpt= -1 -1 -1 -1 -1 -1 -1 -1 -1 -1 -1 -1
 NAtoms=     12 NQM=       12 NQMF=       0 NMMI=      0 NMMIF=      0
                NMic=       0 NMicF=      0.
                    Isotopes and Nuclear Properties:
 (Nuclear quadrupole moments (NQMom) in fm**2, nuclear magnetic moments (NMagM)
  in nuclear magnetons)

  Atom         1           2           3           4           5           6           7           8           9          10
 IAtWgt=          12          12          19          19          32          16          16          16          19          19
 AtmWgt=  12.0000000  12.0000000  18.9984032  18.9984032  31.9720718  15.9949146  15.9949146  15.9949146  18.9984032  18.9984032
 NucSpn=           0           0           1           1           0           0           0           0           1           1
 AtZEff=  -0.0000000  -0.0000000  -0.0000000  -0.0000000  -0.0000000  -0.0000000  -0.0000000  -0.0000000  -0.0000000  -0.0000000
 NQMom=    0.0000000   0.0000000   0.0000000   0.0000000   0.0000000   0.0000000   0.0000000   0.0000000   0.0000000   0.0000000
 NMagM=    0.0000000   0.0000000   2.6288670   2.6288670   0.0000000   0.0000000   0.0000000   0.0000000   2.6288670   2.6288670
 AtZNuc=   6.0000000   6.0000000   9.0000000   9.0000000  16.0000000   8.0000000   8.0000000   8.0000000   9.0000000   9.0000000

  Atom        11          12
 IAtWgt=          19           1
 AtmWgt=  18.9984032   1.0078250
 NucSpn=           1           1
 AtZEff=  -0.0000000  -0.0000000
 NQMom=    0.0000000   0.0000000
 NMagM=    2.6288670   2.7928460
 AtZNuc=   9.0000000   1.0000000
 Leave Link  101 at Fri May 23 04:18:21 2025, MaxMem=  3758096384 cpu:               0.3 elap:               0.2
 (Enter /apps/easybuild-2022/easybuild/software/Compiler/NVHPC/22.11-CUDA-11.7.0/Gaussian/g16c01-CUDA-11.7.0/g16/l103.exe)

 GradGradGradGradGradGradGradGradGradGradGradGradGradGradGradGradGradGrad
 Berny optimization.
 Initialization pass.
                           ----------------------------
                           !    Initial Parameters    !
                           ! (Angstroms and Degrees)  !
 --------------------------                            --------------------------
 ! Name  Definition              Value          Derivative Info.                !
 --------------------------------------------------------------------------------
 ! R1    R(1,5)                  1.8939         calculate D2E/DX2 analytically  !
 ! R2    R(1,9)                  1.3197         calculate D2E/DX2 analytically  !
 ! R3    R(1,10)                 1.3228         calculate D2E/DX2 analytically  !
 ! R4    R(1,11)                 1.3175         calculate D2E/DX2 analytically  !
 ! R5    R(2,3)                  1.3504         calculate D2E/DX2 analytically  !
 ! R6    R(2,4)                  1.3189         calculate D2E/DX2 analytically  !
 ! R7    R(2,5)                  1.9051         calculate D2E/DX2 analytically  !
 ! R8    R(2,8)                  1.3304         calculate D2E/DX2 analytically  !
 ! R9    R(5,6)                  1.4394         calculate D2E/DX2 analytically  !
 ! R10   R(5,7)                  1.4512         calculate D2E/DX2 analytically  !
 ! R11   R(8,12)                 0.9677         calculate D2E/DX2 analytically  !
 ! A1    A(5,1,9)              106.9976         calculate D2E/DX2 analytically  !
 ! A2    A(5,1,10)             109.182          calculate D2E/DX2 analytically  !
 ! A3    A(5,1,11)             110.8138         calculate D2E/DX2 analytically  !
 ! A4    A(9,1,10)             109.8585         calculate D2E/DX2 analytically  !
 ! A5    A(9,1,11)             109.834          calculate D2E/DX2 analytically  !
 ! A6    A(10,1,11)            110.1009         calculate D2E/DX2 analytically  !
 ! A7    A(3,2,4)              108.6548         calculate D2E/DX2 analytically  !
 ! A8    A(3,2,5)              106.391          calculate D2E/DX2 analytically  !
 ! A9    A(3,2,8)              113.1583         calculate D2E/DX2 analytically  !
 ! A10   A(4,2,5)              109.8683         calculate D2E/DX2 analytically  !
 ! A11   A(4,2,8)              110.1758         calculate D2E/DX2 analytically  !
 ! A12   A(5,2,8)              108.5019         calculate D2E/DX2 analytically  !
 ! A13   A(1,5,2)              104.7508         calculate D2E/DX2 analytically  !
 ! A14   A(1,5,6)              106.7071         calculate D2E/DX2 analytically  !
 ! A15   A(1,5,7)              107.3351         calculate D2E/DX2 analytically  !
 ! A16   A(2,5,6)              110.2657         calculate D2E/DX2 analytically  !
 ! A17   A(2,5,7)              103.283          calculate D2E/DX2 analytically  !
 ! A18   A(6,5,7)              123.1169         calculate D2E/DX2 analytically  !
 ! A19   A(2,8,12)             109.9815         calculate D2E/DX2 analytically  !
 ! D1    D(9,1,5,2)           -169.0062         calculate D2E/DX2 analytically  !
 ! D2    D(9,1,5,6)            -52.0704         calculate D2E/DX2 analytically  !
 ! D3    D(9,1,5,7)             81.6594         calculate D2E/DX2 analytically  !
 ! D4    D(10,1,5,2)           -50.1614         calculate D2E/DX2 analytically  !
 ! D5    D(10,1,5,6)            66.7745         calculate D2E/DX2 analytically  !
 ! D6    D(10,1,5,7)          -159.4958         calculate D2E/DX2 analytically  !
 ! D7    D(11,1,5,2)            71.2733         calculate D2E/DX2 analytically  !
 ! D8    D(11,1,5,6)          -171.7908         calculate D2E/DX2 analytically  !
 ! D9    D(11,1,5,7)           -38.061          calculate D2E/DX2 analytically  !
 ! D10   D(3,2,5,1)           -149.2257         calculate D2E/DX2 analytically  !
 ! D11   D(3,2,5,6)             96.3111         calculate D2E/DX2 analytically  !
 ! D12   D(3,2,5,7)            -36.97           calculate D2E/DX2 analytically  !
 ! D13   D(4,2,5,1)            -31.786          calculate D2E/DX2 analytically  !
 ! D14   D(4,2,5,6)           -146.2493         calculate D2E/DX2 analytically  !
 ! D15   D(4,2,5,7)             80.4697         calculate D2E/DX2 analytically  !
 ! D16   D(8,2,5,1)             88.7211         calculate D2E/DX2 analytically  !
 ! D17   D(8,2,5,6)            -25.7422         calculate D2E/DX2 analytically  !
 ! D18   D(8,2,5,7)           -159.0232         calculate D2E/DX2 analytically  !
 ! D19   D(3,2,8,12)            47.5807         calculate D2E/DX2 analytically  !
 ! D20   D(4,2,8,12)           -74.2772         calculate D2E/DX2 analytically  !
 ! D21   D(5,2,8,12)           165.4066         calculate D2E/DX2 analytically  !
 --------------------------------------------------------------------------------
 Trust Radius=3.00D-01 FncErr=1.00D-07 GrdErr=1.00D-06 EigMax=2.50D+02 EigMin=1.00D-04
 Number of steps in this run=     61 maximum allowed number of steps=    100.
 GradGradGradGradGradGradGradGradGradGradGradGradGradGradGradGradGradGrad

 Leave Link  103 at Fri May 23 04:18:21 2025, MaxMem=  3758096384 cpu:               0.1 elap:               0.1
 (Enter /apps/easybuild-2022/easybuild/software/Compiler/NVHPC/22.11-CUDA-11.7.0/Gaussian/g16c01-CUDA-11.7.0/g16/l202.exe)
                          Input orientation:                          
 ---------------------------------------------------------------------
 Center     Atomic      Atomic             Coordinates (Angstroms)
 Number     Number       Type             X           Y           Z
 ---------------------------------------------------------------------
      1          6           0        3.533735   -1.715710   -1.158895
      2          6           0        1.350395    0.000000    0.000000
      3          9           0        0.000000    0.000000    0.000000
      4          9           0        1.772270   -0.675216    1.051495
      5         16           0        1.887991   -0.887484   -1.597712
      6          8           0        2.171085    0.073858   -2.630943
      7          8           0        0.899507   -1.939989   -1.743259
      8          8           0        1.873601    1.223190    0.000000
      9          9           0        4.065187   -2.140942   -2.289553
     10          9           0        4.331846   -0.824593   -0.594419
     11          9           0        3.343121   -2.733250   -0.344047
     12          1           0        1.439616    1.768478    0.671373
 ---------------------------------------------------------------------
                    Distance matrix (angstroms):
                    1          2          3          4          5
     1  C    0.000000
     2  C    3.008932   0.000000
     3  F    4.095605   1.350395   0.000000
     4  F    3.011844   1.318915   2.168525   0.000000
     5  S    1.893935   1.905078   2.627702   2.660215   0.000000
     6  O    2.688177   2.756964   3.411880   3.778957   1.439405
     7  O    2.707571   2.646849   2.758917   3.189360   1.451224
     8  O    3.568783   1.330390   2.237538   2.172523   2.647232
     9  F    1.319716   4.146779   5.133364   4.309108   2.605760
    10  F    1.322764   3.149975   4.449514   3.046764   2.642533
    11  F    1.317459   3.399997   4.331914   2.941192   2.663819
    12  H    4.458114   1.893731   2.377131   2.495355   3.521920
                    6          7          8          9         10
     6  O    0.000000
     7  O    2.541746   0.000000
     8  O    2.886403   3.740791   0.000000
     9  F    2.934196   3.218750   4.621956   0.000000
    10  F    3.102182   3.787466   3.254184   2.162720   0.000000
    11  F    3.805709   2.925458   4.234534   2.158055   2.164079
    12  H    3.783130   4.458127   0.967690   5.562757   4.085492
                   11         12
    11  F    0.000000
    12  H    4.991990   0.000000
 Symmetry turned off by external request.
 Stoichiometry    C2HF5O3S
 Rotational constants (GHZ):           1.5125249           0.8275201           0.7583054
 Leave Link  202 at Fri May 23 04:18:21 2025, MaxMem=  3758096384 cpu:               0.0 elap:               0.0
 (Enter /apps/easybuild-2022/easybuild/software/Compiler/NVHPC/22.11-CUDA-11.7.0/Gaussian/g16c01-CUDA-11.7.0/g16/l301.exe)
 Standard basis: 6-311++G(d,p) (5D, 7F)
 Ernie: Thresh=  0.10000D-02 Tol=  0.10000D-05 Strict=F.
   257 basis functions,   419 primitive gaussians,   268 cartesian basis functions
    49 alpha electrons       49 beta electrons
       nuclear repulsion energy       914.6003838995 Hartrees.
 IExCor= 4639 DFT=T Ex+Corr=wB97XD ExCW=0 ScaHFX=  1.000000
 ScaDFX=  1.000000  1.000000  1.000000  1.000000 ScalE2=  1.000000  1.000000
 IRadAn=      5 IRanWt=     -1 IRanGd=            0 ICorTp=0 IEmpDi=121
 HFx  wShort=  0.000000 wLong=  0.200000 cFull=  0.222036 cShort=  0.000000 cLong=  0.777964
 DFx  wShort=  0.000000 wLong=  0.200000 cFull=  0.000000 cShort=  0.000000 cLong=  1.000000
 NAtoms=   12 NActive=   12 NUniq=   12 SFac= 1.00D+00 NAtFMM=   60 NAOKFM=F Big=F
 Integral buffers will be    131072 words long.
 Raffenetti 2 integral format.
 Two-electron integral symmetry is turned off.
 R6Disp:  Grimme-D2 Dispersion energy=       -0.0054629432 Hartrees.
 Nuclear repulsion after empirical dispersion term =      914.5949209562 Hartrees.
 Leave Link  301 at Fri May 23 04:18:21 2025, MaxMem=  3758096384 cpu:               0.0 elap:               0.0
 (Enter /apps/easybuild-2022/easybuild/software/Compiler/NVHPC/22.11-CUDA-11.7.0/Gaussian/g16c01-CUDA-11.7.0/g16/l302.exe)
 NPDir=0 NMtPBC=     1 NCelOv=     1 NCel=       1 NClECP=     1 NCelD=      1
         NCelK=      1 NCelE2=     1 NClLst=     1 CellRange=     0.0.
 One-electron integrals computed using PRISM.
 NBasis=   257 RedAO= T EigKep=  7.88D-05  NBF=   257
 NBsUse=   257 1.00D-06 EigRej= -1.00D+00 NBFU=   257
 Precomputing XC quadrature grid using
 IXCGrd= 4 IRadAn=           5 IRanWt=          -1 IRanGd=           0 AccXCQ= 0.00D+00.
 Generated NRdTot=       0 NPtTot=           0 NUsed=           0 NTot=          32
 NSgBfM=   267   267   267   267   267 MxSgAt=    12 MxSgA2=    12.
 Leave Link  302 at Fri May 23 04:18:21 2025, MaxMem=  3758096384 cpu:               0.6 elap:               0.1
 (Enter /apps/easybuild-2022/easybuild/software/Compiler/NVHPC/22.11-CUDA-11.7.0/Gaussian/g16c01-CUDA-11.7.0/g16/l303.exe)
 DipDrv:  MaxL=1.
 Leave Link  303 at Fri May 23 04:18:21 2025, MaxMem=  3758096384 cpu:               0.1 elap:               0.0
 (Enter /apps/easybuild-2022/easybuild/software/Compiler/NVHPC/22.11-CUDA-11.7.0/Gaussian/g16c01-CUDA-11.7.0/g16/l401.exe)
 ExpMin= 3.60D-02 ExpMax= 9.34D+04 ExpMxC= 3.17D+03 IAcc=3 IRadAn=         5 AccDes= 0.00D+00
 Harris functional with IExCor= 4639 and IRadAn=       5 diagonalized for initial guess.
 HarFok:  IExCor= 4639 AccDes= 0.00D+00 IRadAn=         5 IDoV= 1 UseB2=F ITyADJ=14
 ICtDFT=  3500011 ScaDFX=  1.000000  1.000000  1.000000  1.000000
 FoFCou: FMM=F IPFlag=           0 FMFlag=      100000 FMFlg1=           0
         NFxFlg=           0 DoJE=T BraDBF=F KetDBF=T FulRan=T
         wScrn=  0.000000 ICntrl=       500 IOpCl=  0 I1Cent=   200000004 NGrid=           0
         NMat0=    1 NMatS0=      1 NMatT0=    0 NMatD0=    1 NMtDS0=    0 NMtDT0=    0
 Symmetry not used in FoFCou.
 Harris En= -1167.10549274863    
 JPrj=0 DoOrth=F DoCkMO=F.
 Leave Link  401 at Fri May 23 04:18:21 2025, MaxMem=  3758096384 cpu:               1.9 elap:               0.3
 (Enter /apps/easybuild-2022/easybuild/software/Compiler/NVHPC/22.11-CUDA-11.7.0/Gaussian/g16c01-CUDA-11.7.0/g16/l502.exe)
 Keep R1 ints in memory in canonical form, NReq=1117474609.
 FoFCou: FMM=F IPFlag=           0 FMFlag=           0 FMFlg1=           0
         NFxFlg=           0 DoJE=F BraDBF=F KetDBF=F FulRan=T
         wScrn=  0.000000 ICntrl=       600 IOpCl=  0 I1Cent=           0 NGrid=           0
         NMat0=    1 NMatS0=  33153 NMatT0=    0 NMatD0=    1 NMtDS0=    0 NMtDT0=    0
 Symmetry not used in FoFCou.
 Two-electron integral symmetry not used.
 Closed shell SCF:
 Using DIIS extrapolation, IDIIS=  1040.
 NGot=  3758096384 LenX=  2658793876 LenY=  2658721611
 Requested convergence on RMS density matrix=1.00D-08 within  32 cycles.
 Requested convergence on MAX density matrix=1.00D-06.
 Requested convergence on             energy=1.00D-06.
 No special actions if energy rises.

 Cycle   1  Pass 1  IDiag  1:
 E= -1199.12206956705    
 DIIS: error= 1.09D-01 at cycle   1 NSaved=   1.
 NSaved= 1 IEnMin= 1 EnMin= -1199.12206956705     IErMin= 1 ErrMin= 1.09D-01
 ErrMax= 1.09D-01  0.00D+00 EMaxC= 1.00D-01 BMatC= 3.33D+00 BMatP= 3.33D+00
 IDIUse=3 WtCom= 0.00D+00 WtEn= 1.00D+00
 Coeff-Com:  0.100D+01
 Coeff-En:   0.100D+01
 Coeff:      0.100D+01
 Gap=     0.619 Goal=   None    Shift=    0.000
 GapD=    0.619 DampG=2.000 DampE=0.250 DampFc=0.5000 IDamp=-1.
 Damping current iteration by 5.00D-01
 RMSDP=8.88D-03 MaxDP=3.82D-01              OVMax= 2.28D-01

 Cycle   2  Pass 1  IDiag  1:
 E= -1199.47314387199     Delta-E=       -0.351074304941 Rises=F Damp=T
 DIIS: error= 4.66D-02 at cycle   2 NSaved=   2.
 NSaved= 2 IEnMin= 2 EnMin= -1199.47314387199     IErMin= 2 ErrMin= 4.66D-02
 ErrMax= 4.66D-02  0.00D+00 EMaxC= 1.00D-01 BMatC= 4.84D-01 BMatP= 3.33D+00
 IDIUse=3 WtCom= 5.34D-01 WtEn= 4.66D-01
 Coeff-Com: -0.383D+00 0.138D+01
 Coeff-En:   0.000D+00 0.100D+01
 Coeff:     -0.204D+00 0.120D+01
 Gap=     0.549 Goal=   None    Shift=    0.000
 RMSDP=3.44D-03 MaxDP=2.23D-01 DE=-3.51D-01 OVMax= 1.36D-01

 Cycle   3  Pass 1  IDiag  1:
 E= -1199.76066912783     Delta-E=       -0.287525255835 Rises=F Damp=F
 DIIS: error= 1.25D-02 at cycle   3 NSaved=   3.
 NSaved= 3 IEnMin= 3 EnMin= -1199.76066912783     IErMin= 3 ErrMin= 1.25D-02
 ErrMax= 1.25D-02  0.00D+00 EMaxC= 1.00D-01 BMatC= 9.12D-02 BMatP= 4.84D-01
 IDIUse=3 WtCom= 8.75D-01 WtEn= 1.25D-01
 Coeff-Com: -0.182D+00 0.522D+00 0.661D+00
 Coeff-En:   0.000D+00 0.000D+00 0.100D+01
 Coeff:     -0.159D+00 0.456D+00 0.703D+00
 Gap=     0.439 Goal=   None    Shift=    0.000
 RMSDP=3.06D-03 MaxDP=1.58D-01 DE=-2.88D-01 OVMax= 6.99D-02

 Cycle   4  Pass 1  IDiag  1:
 E= -1199.80464426871     Delta-E=       -0.043975140876 Rises=F Damp=F
 DIIS: error= 6.29D-03 at cycle   4 NSaved=   4.
 NSaved= 4 IEnMin= 4 EnMin= -1199.80464426871     IErMin= 4 ErrMin= 6.29D-03
 ErrMax= 6.29D-03  0.00D+00 EMaxC= 1.00D-01 BMatC= 2.01D-02 BMatP= 9.12D-02
 IDIUse=3 WtCom= 9.37D-01 WtEn= 6.29D-02
 Coeff-Com: -0.462D-01 0.111D+00 0.350D+00 0.585D+00
 Coeff-En:   0.000D+00 0.000D+00 0.177D+00 0.823D+00
 Coeff:     -0.433D-01 0.104D+00 0.339D+00 0.600D+00
 Gap=     0.447 Goal=   None    Shift=    0.000
 RMSDP=1.29D-03 MaxDP=7.12D-02 DE=-4.40D-02 OVMax= 2.54D-02

 Cycle   5  Pass 1  IDiag  1:
 E= -1199.81701683584     Delta-E=       -0.012372567137 Rises=F Damp=F
 DIIS: error= 1.63D-03 at cycle   5 NSaved=   5.
 NSaved= 5 IEnMin= 5 EnMin= -1199.81701683584     IErMin= 5 ErrMin= 1.63D-03
 ErrMax= 1.63D-03  0.00D+00 EMaxC= 1.00D-01 BMatC= 1.07D-03 BMatP= 2.01D-02
 IDIUse=3 WtCom= 9.84D-01 WtEn= 1.63D-02
 Coeff-Com: -0.119D-01 0.251D-01 0.137D+00 0.315D+00 0.535D+00
 Coeff-En:   0.000D+00 0.000D+00 0.000D+00 0.000D+00 0.100D+01
 Coeff:     -0.117D-01 0.246D-01 0.135D+00 0.309D+00 0.543D+00
 Gap=     0.446 Goal=   None    Shift=    0.000
 RMSDP=2.11D-04 MaxDP=1.18D-02 DE=-1.24D-02 OVMax= 3.74D-03

 Cycle   6  Pass 1  IDiag  1:
 E= -1199.81763137538     Delta-E=       -0.000614539537 Rises=F Damp=F
 DIIS: error= 1.62D-04 at cycle   6 NSaved=   6.
 NSaved= 6 IEnMin= 6 EnMin= -1199.81763137538     IErMin= 6 ErrMin= 1.62D-04
 ErrMax= 1.62D-04  0.00D+00 EMaxC= 1.00D-01 BMatC= 1.96D-05 BMatP= 1.07D-03
 IDIUse=3 WtCom= 9.98D-01 WtEn= 1.62D-03
 Coeff-Com:  0.169D-02-0.468D-02 0.240D-04 0.271D-01 0.122D+00 0.854D+00
 Coeff-En:   0.000D+00 0.000D+00 0.000D+00 0.000D+00 0.000D+00 0.100D+01
 Coeff:      0.169D-02-0.468D-02 0.240D-04 0.271D-01 0.122D+00 0.854D+00
 Gap=     0.444 Goal=   None    Shift=    0.000
 RMSDP=4.79D-05 MaxDP=2.32D-03 DE=-6.15D-04 OVMax= 1.15D-03

 Cycle   7  Pass 1  IDiag  1:
 E= -1199.81765002419     Delta-E=       -0.000018648815 Rises=F Damp=F
 DIIS: error= 7.34D-05 at cycle   7 NSaved=   7.
 NSaved= 7 IEnMin= 7 EnMin= -1199.81765002419     IErMin= 7 ErrMin= 7.34D-05
 ErrMax= 7.34D-05  0.00D+00 EMaxC= 1.00D-01 BMatC= 4.15D-06 BMatP= 1.96D-05
 IDIUse=1 WtCom= 1.00D+00 WtEn= 0.00D+00
 Coeff-Com:  0.171D-02-0.395D-02-0.119D-01-0.170D-01-0.130D-01 0.326D+00
 Coeff-Com:  0.719D+00
 Coeff:      0.171D-02-0.395D-02-0.119D-01-0.170D-01-0.130D-01 0.326D+00
 Coeff:      0.719D+00
 Gap=     0.444 Goal=   None    Shift=    0.000
 RMSDP=1.81D-05 MaxDP=8.35D-04 DE=-1.86D-05 OVMax= 5.77D-04

 Cycle   8  Pass 1  IDiag  1:
 E= -1199.81765268843     Delta-E=       -0.000002664235 Rises=F Damp=F
 DIIS: error= 5.09D-05 at cycle   8 NSaved=   8.
 NSaved= 8 IEnMin= 8 EnMin= -1199.81765268843     IErMin= 8 ErrMin= 5.09D-05
 ErrMax= 5.09D-05  0.00D+00 EMaxC= 1.00D-01 BMatC= 1.15D-06 BMatP= 4.15D-06
 IDIUse=1 WtCom= 1.00D+00 WtEn= 0.00D+00
 Coeff-Com:  0.786D-03-0.170D-02-0.703D-02-0.140D-01-0.268D-01 0.713D-01
 Coeff-Com:  0.415D+00 0.562D+00
 Coeff:      0.786D-03-0.170D-02-0.703D-02-0.140D-01-0.268D-01 0.713D-01
 Coeff:      0.415D+00 0.562D+00
 Gap=     0.444 Goal=   None    Shift=    0.000
 RMSDP=7.07D-06 MaxDP=2.37D-04 DE=-2.66D-06 OVMax= 2.41D-04

 Cycle   9  Pass 1  IDiag  1:
 E= -1199.81765351504     Delta-E=       -0.000000826607 Rises=F Damp=F
 DIIS: error= 7.89D-06 at cycle   9 NSaved=   9.
 NSaved= 9 IEnMin= 9 EnMin= -1199.81765351504     IErMin= 9 ErrMin= 7.89D-06
 ErrMax= 7.89D-06  0.00D+00 EMaxC= 1.00D-01 BMatC= 4.31D-08 BMatP= 1.15D-06
 IDIUse=1 WtCom= 1.00D+00 WtEn= 0.00D+00
 Coeff-Com:  0.181D-03-0.373D-03-0.192D-02-0.447D-02-0.934D-02 0.692D-02
 Coeff-Com:  0.110D+00 0.217D+00 0.682D+00
 Coeff:      0.181D-03-0.373D-03-0.192D-02-0.447D-02-0.934D-02 0.692D-02
 Coeff:      0.110D+00 0.217D+00 0.682D+00
 Gap=     0.444 Goal=   None    Shift=    0.000
 RMSDP=3.38D-06 MaxDP=2.19D-04 DE=-8.27D-07 OVMax= 6.42D-05

 Cycle  10  Pass 1  IDiag  1:
 E= -1199.81765355230     Delta-E=       -0.000000037263 Rises=F Damp=F
 DIIS: error= 4.09D-06 at cycle  10 NSaved=  10.
 NSaved=10 IEnMin=10 EnMin= -1199.81765355230     IErMin=10 ErrMin= 4.09D-06
 ErrMax= 4.09D-06  0.00D+00 EMaxC= 1.00D-01 BMatC= 9.45D-09 BMatP= 4.31D-08
 IDIUse=1 WtCom= 1.00D+00 WtEn= 0.00D+00
 Coeff-Com: -0.101D-03 0.223D-03 0.711D-03 0.112D-02 0.220D-02-0.117D-01
 Coeff-Com: -0.467D-01-0.316D-01 0.321D+00 0.765D+00
 Coeff:     -0.101D-03 0.223D-03 0.711D-03 0.112D-02 0.220D-02-0.117D-01
 Coeff:     -0.467D-01-0.316D-01 0.321D+00 0.765D+00
 Gap=     0.444 Goal=   None    Shift=    0.000
 RMSDP=1.94D-06 MaxDP=1.16D-04 DE=-3.73D-08 OVMax= 3.70D-05

 Cycle  11  Pass 1  IDiag  1:
 E= -1199.81765356201     Delta-E=       -0.000000009707 Rises=F Damp=F
 DIIS: error= 7.57D-07 at cycle  11 NSaved=  11.
 NSaved=11 IEnMin=11 EnMin= -1199.81765356201     IErMin=11 ErrMin= 7.57D-07
 ErrMax= 7.57D-07  0.00D+00 EMaxC= 1.00D-01 BMatC= 3.55D-10 BMatP= 9.45D-09
 IDIUse=1 WtCom= 1.00D+00 WtEn= 0.00D+00
 Coeff-Com: -0.260D-04 0.555D-04 0.204D-03 0.482D-03 0.101D-02-0.168D-02
 Coeff-Com: -0.156D-01-0.222D-01-0.650D-02 0.106D+00 0.938D+00
 Coeff:     -0.260D-04 0.555D-04 0.204D-03 0.482D-03 0.101D-02-0.168D-02
 Coeff:     -0.156D-01-0.222D-01-0.650D-02 0.106D+00 0.938D+00
 Gap=     0.444 Goal=   None    Shift=    0.000
 RMSDP=5.43D-07 MaxDP=3.27D-05 DE=-9.71D-09 OVMax= 1.09D-05

 Cycle  12  Pass 1  IDiag  1:
 E= -1199.81765356260     Delta-E=       -0.000000000596 Rises=F Damp=F
 DIIS: error= 3.07D-07 at cycle  12 NSaved=  12.
 NSaved=12 IEnMin=12 EnMin= -1199.81765356260     IErMin=12 ErrMin= 3.07D-07
 ErrMax= 3.07D-07  0.00D+00 EMaxC= 1.00D-01 BMatC= 6.61D-11 BMatP= 3.55D-10
 IDIUse=1 WtCom= 1.00D+00 WtEn= 0.00D+00
 Coeff-Com:  0.398D-06-0.149D-05-0.128D-05 0.551D-04 0.107D-03 0.443D-03
 Coeff-Com: -0.794D-03-0.461D-02-0.351D-01-0.356D-01 0.385D+00 0.690D+00
 Coeff:      0.398D-06-0.149D-05-0.128D-05 0.551D-04 0.107D-03 0.443D-03
 Coeff:     -0.794D-03-0.461D-02-0.351D-01-0.356D-01 0.385D+00 0.690D+00
 Gap=     0.444 Goal=   None    Shift=    0.000
 RMSDP=1.43D-07 MaxDP=8.37D-06 DE=-5.96D-10 OVMax= 3.09D-06

 Cycle  13  Pass 1  IDiag  1:
 E= -1199.81765356268     Delta-E=       -0.000000000078 Rises=F Damp=F
 DIIS: error= 7.89D-08 at cycle  13 NSaved=  13.
 NSaved=13 IEnMin=13 EnMin= -1199.81765356268     IErMin=13 ErrMin= 7.89D-08
 ErrMax= 7.89D-08  0.00D+00 EMaxC= 1.00D-01 BMatC= 3.80D-12 BMatP= 6.61D-11
 IDIUse=1 WtCom= 1.00D+00 WtEn= 0.00D+00
 Coeff-Com:  0.262D-05-0.570D-05-0.172D-04-0.323D-04-0.598D-04 0.221D-03
 Coeff-Com:  0.123D-02 0.987D-03-0.707D-02-0.160D-01-0.369D-02 0.132D+00
 Coeff-Com:  0.892D+00
 Coeff:      0.262D-05-0.570D-05-0.172D-04-0.323D-04-0.598D-04 0.221D-03
 Coeff:      0.123D-02 0.987D-03-0.707D-02-0.160D-01-0.369D-02 0.132D+00
 Coeff:      0.892D+00
 Gap=     0.444 Goal=   None    Shift=    0.000
 RMSDP=5.75D-08 MaxDP=3.30D-06 DE=-7.82D-11 OVMax= 1.05D-06

 Cycle  14  Pass 1  IDiag  1:
 E= -1199.81765356260     Delta-E=        0.000000000082 Rises=F Damp=F
 DIIS: error= 4.26D-08 at cycle  14 NSaved=  14.
 NSaved=14 IEnMin=13 EnMin= -1199.81765356268     IErMin=14 ErrMin= 4.26D-08
 ErrMax= 4.26D-08  0.00D+00 EMaxC= 1.00D-01 BMatC= 8.92D-13 BMatP= 3.80D-12
 IDIUse=1 WtCom= 1.00D+00 WtEn= 0.00D+00
 Coeff-Com:  0.107D-05-0.226D-05-0.625D-05-0.180D-04-0.288D-04 0.526D-04
 Coeff-Com:  0.537D-03 0.824D-03 0.103D-02-0.219D-02-0.451D-01-0.313D-01
 Coeff-Com:  0.373D+00 0.703D+00
 Coeff:      0.107D-05-0.226D-05-0.625D-05-0.180D-04-0.288D-04 0.526D-04
 Coeff:      0.537D-03 0.824D-03 0.103D-02-0.219D-02-0.451D-01-0.313D-01
 Coeff:      0.373D+00 0.703D+00
 Gap=     0.444 Goal=   None    Shift=    0.000
 RMSDP=1.67D-08 MaxDP=9.09D-07 DE= 8.23D-11 OVMax= 3.47D-07

 Cycle  15  Pass 1  IDiag  1:
 E= -1199.81765356263     Delta-E=       -0.000000000033 Rises=F Damp=F
 DIIS: error= 8.68D-09 at cycle  15 NSaved=  15.
 NSaved=15 IEnMin=13 EnMin= -1199.81765356268     IErMin=15 ErrMin= 8.68D-09
 ErrMax= 8.68D-09  0.00D+00 EMaxC= 1.00D-01 BMatC= 4.27D-14 BMatP= 8.92D-13
 IDIUse=1 WtCom= 1.00D+00 WtEn= 0.00D+00
 Coeff-Com: -0.271D-07 0.624D-07 0.342D-07-0.105D-05-0.190D-05-0.535D-05
 Coeff-Com:  0.165D-04 0.114D-03 0.867D-03 0.830D-03-0.826D-02-0.197D-01
 Coeff-Com: -0.292D-01 0.138D+00 0.918D+00
 Coeff:     -0.271D-07 0.624D-07 0.342D-07-0.105D-05-0.190D-05-0.535D-05
 Coeff:      0.165D-04 0.114D-03 0.867D-03 0.830D-03-0.826D-02-0.197D-01
 Coeff:     -0.292D-01 0.138D+00 0.918D+00
 Gap=     0.444 Goal=   None    Shift=    0.000
 RMSDP=4.77D-09 MaxDP=2.25D-07 DE=-3.32D-11 OVMax= 1.22D-07

 SCF Done:  E(RwB97XD) =  -1199.81765356     A.U. after   15 cycles
            NFock= 15  Conv=0.48D-08     -V/T= 2.0020
 KE= 1.197423137208D+03 PE=-4.676334145910D+03 EE= 1.364498434183D+03
 Leave Link  502 at Fri May 23 04:18:34 2025, MaxMem=  3758096384 cpu:              56.4 elap:              12.7
 (Enter /apps/easybuild-2022/easybuild/software/Compiler/NVHPC/22.11-CUDA-11.7.0/Gaussian/g16c01-CUDA-11.7.0/g16/l508.exe)
 QCSCF skips out because SCF is already converged.
 Leave Link  508 at Fri May 23 04:18:34 2025, MaxMem=  3758096384 cpu:               0.1 elap:               0.0
 (Enter /apps/easybuild-2022/easybuild/software/Compiler/NVHPC/22.11-CUDA-11.7.0/Gaussian/g16c01-CUDA-11.7.0/g16/l801.exe)
 DoSCS=F DFT=T ScalE2(SS,OS)=  1.000000  1.000000
 Range of M.O.s used for correlation:     1   257
 NBasis=   257 NAE=    49 NBE=    49 NFC=     0 NFV=     0
 NROrb=    257 NOA=    49 NOB=    49 NVA=   208 NVB=   208

 **** Warning!!: The largest alpha MO coefficient is  0.28255645D+02

 Leave Link  801 at Fri May 23 04:18:34 2025, MaxMem=  3758096384 cpu:               0.1 elap:               0.0
 (Enter /apps/easybuild-2022/easybuild/software/Compiler/NVHPC/22.11-CUDA-11.7.0/Gaussian/g16c01-CUDA-11.7.0/g16/l1101.exe)
 Using compressed storage, NAtomX=    12.
 Will process     13 centers per pass.
 R6Disp: Adding Grimme-D2 dispersion energy 1st derivatives to the gradient.
 Leave Link 1101 at Fri May 23 04:18:34 2025, MaxMem=  3758096384 cpu:               0.6 elap:               0.1
 (Enter /apps/easybuild-2022/easybuild/software/Compiler/NVHPC/22.11-CUDA-11.7.0/Gaussian/g16c01-CUDA-11.7.0/g16/l1102.exe)
 Symmetrizing basis deriv contribution to polar:
 IMax=3 JMax=2 DiffMx= 0.00D+00
 Leave Link 1102 at Fri May 23 04:18:34 2025, MaxMem=  3758096384 cpu:               0.1 elap:               0.0
 (Enter /apps/easybuild-2022/easybuild/software/Compiler/NVHPC/22.11-CUDA-11.7.0/Gaussian/g16c01-CUDA-11.7.0/g16/l1110.exe)
 Forming Gx(P) for the SCF density, NAtomX=    12.
 Integral derivatives from FoFJK, PRISM(SPDF).
 Do as many integral derivatives as possible in FoFJK.
 G2DrvN: MDV=    3758095012.
 G2DrvN: will do    13 centers at a time, making    1 passes.
 Calling FoFCou, ICntrl=  3107 FMM=F I1Cent=   0 AccDes= 0.00D+00.
 FoFJK:  IHMeth= 1 ICntrl=    3107 DoSepK=T KAlg= 0 I1Cent=           0 FoldK=F
 IRaf=         1 NMat=       1 IRICut=       1 DoRegI=T DoRafI=F ISym2E= 0 IDoP0=0 IntGTp=1.
 FoFCou: FMM=F IPFlag=           0 FMFlag=      100000 FMFlg1=           0
         NFxFlg=           0 DoJE=F BraDBF=F KetDBF=F FulRan=T
         wScrn=  0.000000 ICntrl=      3507 IOpCl=  0 I1Cent=           0 NGrid=           0
         NMat0=    1 NMatS0=      1 NMatT0=    0 NMatD0=    1 NMtDS0=    0 NMtDT0=    0
 Symmetry not used in FoFCou.
 End of G2Drv F.D. properties file   721 does not exist.
 End of G2Drv F.D. properties file   722 does not exist.
 End of G2Drv F.D. properties file   788 does not exist.
 Leave Link 1110 at Fri May 23 04:18:44 2025, MaxMem=  3758096384 cpu:              75.9 elap:               9.6
 (Enter /apps/easybuild-2022/easybuild/software/Compiler/NVHPC/22.11-CUDA-11.7.0/Gaussian/g16c01-CUDA-11.7.0/g16/l1002.exe)
 Minotr:  Closed shell wavefunction.
          IDoAtm=111111111111
          Direct CPHF calculation.
          Differentiating once with respect to nuclear coordinates.
          Requested convergence is 1.0D-08 RMS, and 1.0D-07 maximum.
          Secondary convergence is 1.0D-12 RMS, and 1.0D-12 maximum.
          NewPWx=T KeepS1=F KeepF1=F KeepIn=T MapXYZ=F SortEE=F KeepMc=T.
         3724 words used for storage of precomputed grid.
 Keep R1 ints in memory in canonical form, NReq=1117480316.
 FoFCou: FMM=F IPFlag=           0 FMFlag=           0 FMFlg1=           0
         NFxFlg=           0 DoJE=F BraDBF=F KetDBF=F FulRan=T
         wScrn=  0.000000 ICntrl=       600 IOpCl=  0 I1Cent=           0 NGrid=           0
         NMat0=    1 NMatS0=  33153 NMatT0=    0 NMatD0=    1 NMtDS0=    0 NMtDT0=    0
 Symmetry not used in FoFCou.
 Two-electron integral symmetry not used.
          MDV=    3758096384 using IRadAn=       1.
          Solving linear equations simultaneously, MaxMat=       0.
          There are    39 degrees of freedom in the 1st order CPHF.  IDoFFX=6 NUNeed=     0.
     33 vectors produced by pass  0 Test12= 2.61D-14 2.56D-09 XBig12= 2.13D-01 8.19D-02.
 AX will form    33 AO Fock derivatives at one time.
     33 vectors produced by pass  1 Test12= 2.61D-14 2.56D-09 XBig12= 2.54D-02 2.42D-02.
     33 vectors produced by pass  2 Test12= 2.61D-14 2.56D-09 XBig12= 1.86D-03 8.61D-03.
     33 vectors produced by pass  3 Test12= 2.61D-14 2.56D-09 XBig12= 3.60D-05 1.32D-03.
     33 vectors produced by pass  4 Test12= 2.61D-14 2.56D-09 XBig12= 5.51D-07 1.75D-04.
     33 vectors produced by pass  5 Test12= 2.61D-14 2.56D-09 XBig12= 5.93D-09 1.61D-05.
     33 vectors produced by pass  6 Test12= 2.61D-14 2.56D-09 XBig12= 4.67D-11 1.01D-06.
     23 vectors produced by pass  7 Test12= 2.61D-14 2.56D-09 XBig12= 3.18D-13 5.58D-08.
      7 vectors produced by pass  8 Test12= 2.61D-14 2.56D-09 XBig12= 1.96D-15 7.10D-09.
 InvSVY:  IOpt=1 It=  1 EMax= 1.55D-15
 Solved reduced A of dimension   261 with    33 vectors.
 End of Minotr F.D. properties file   721 does not exist.
 End of Minotr F.D. properties file   722 does not exist.
 End of Minotr F.D. properties file   788 does not exist.
 Leave Link 1002 at Fri May 23 04:19:07 2025, MaxMem=  3758096384 cpu:             177.5 elap:              22.7
 (Enter /apps/easybuild-2022/easybuild/software/Compiler/NVHPC/22.11-CUDA-11.7.0/Gaussian/g16c01-CUDA-11.7.0/g16/l701.exe)
 ... and contract with generalized density number  0.
 Compute integral second derivatives.
 R6Disp: Adding Grimme-D2 dispersion energy 2nd derivatives to the Hessian.
 Leave Link  701 at Fri May 23 04:19:07 2025, MaxMem=  3758096384 cpu:               0.7 elap:               0.1
 (Enter /apps/easybuild-2022/easybuild/software/Compiler/NVHPC/22.11-CUDA-11.7.0/Gaussian/g16c01-CUDA-11.7.0/g16/l702.exe)
 L702 exits ... SP integral derivatives will be done elsewhere.
 Leave Link  702 at Fri May 23 04:19:07 2025, MaxMem=  3758096384 cpu:               0.1 elap:               0.0
 (Enter /apps/easybuild-2022/easybuild/software/Compiler/NVHPC/22.11-CUDA-11.7.0/Gaussian/g16c01-CUDA-11.7.0/g16/l703.exe)
 Integral derivatives from FoFJK, PRISM(SPDF).
 Compute integral second derivatives, UseDBF=F ICtDFT=           0.
 Calling FoFJK, ICntrl=    100127 FMM=F ISym2X=0 I1Cent= 0 IOpClX= 0 NMat=1 NMatS=1 NMatT=0.
 FoFJK:  IHMeth= 1 ICntrl=  100127 DoSepK=T KAlg= 0 I1Cent=           0 FoldK=F
 IRaf=         1 NMat=       1 IRICut=       1 DoRegI=T DoRafI=F ISym2E= 0 IDoP0=0 IntGTp=1.
 FoFCou: FMM=F IPFlag=           0 FMFlag=      100000 FMFlg1=         800
         NFxFlg=           0 DoJE=F BraDBF=F KetDBF=F FulRan=T
         wScrn=  0.000000 ICntrl=    100527 IOpCl=  0 I1Cent=           0 NGrid=           0
         NMat0=    1 NMatS0=      1 NMatT0=    0 NMatD0=    1 NMtDS0=    0 NMtDT0=    0
 Symmetry not used in FoFCou.
 Leave Link  703 at Fri May 23 04:19:42 2025, MaxMem=  3758096384 cpu:             275.9 elap:              34.8
 (Enter /apps/easybuild-2022/easybuild/software/Compiler/NVHPC/22.11-CUDA-11.7.0/Gaussian/g16c01-CUDA-11.7.0/g16/l716.exe)
 Dipole        = 2.43474461D-01 7.70875798D-01 1.23942371D+00
 Polarizability= 0.00000000D+00 0.00000000D+00 0.00000000D+00
                 0.00000000D+00 0.00000000D+00 0.00000000D+00
 -------------------------------------------------------------------
 Center     Atomic                   Forces (Hartrees/Bohr)
 Number     Number              X              Y              Z
 -------------------------------------------------------------------
      1        6          -0.000313466    0.001635055    0.000964502
      2        6          -0.000572918    0.016380672   -0.009307651
      3        9           0.009642797   -0.001512006    0.000291252
      4        9           0.000054202   -0.020565632    0.014112462
      5       16          -0.020157537   -0.011016519   -0.001665784
      6        8           0.001372408    0.000640894    0.002733705
      7        8           0.011189795    0.004879817   -0.001918041
      8        8          -0.004061365    0.010441658   -0.004592995
      9        9          -0.000625706    0.000183603    0.000316463
     10        9           0.001247405    0.000104051    0.001006799
     11        9          -0.000008676    0.000300211    0.000299005
     12        1           0.002233062   -0.001471804   -0.002239717
 -------------------------------------------------------------------
 Cartesian Forces:  Max     0.020565632 RMS     0.007324733
 Force constants in Cartesian coordinates: 
                1             2             3             4             5 
      1  0.488019D+00
      2  0.277759D-01  0.538436D+00
      3 -0.146426D-01 -0.175994D-02  0.542386D+00
      4  0.705287D-02  0.768632D-02  0.175788D-01  0.472014D+00
      5  0.932038D-02  0.713824D-02 -0.603857D-02  0.315517D-01  0.595444D+00
      6  0.149716D-01 -0.359527D-02  0.299719D-01  0.172197D-01 -0.173505D-01
      7  0.538409D-02 -0.194157D-02  0.458763D-02 -0.238784D+00  0.300741D-03
      8 -0.380946D-02 -0.674834D-03 -0.257576D-02  0.310359D-02 -0.792103D-01
      9 -0.579696D-02  0.106783D-02 -0.703901D-02  0.225602D-01 -0.546199D-02
     10 -0.172209D-02 -0.448459D-03 -0.604198D-02 -0.823191D-01  0.322568D-01
     11 -0.117834D-02 -0.315119D-02  0.566672D-02  0.315502D-01 -0.124228D+00
     12 -0.401374D-02  0.150616D-02 -0.708599D-02 -0.612303D-01  0.985324D-01
     13 -0.119385D+00  0.549600D-01 -0.175919D-01 -0.419384D-01  0.162245D-01
     14  0.482433D-01 -0.476785D-01 -0.182493D-02  0.290993D-01 -0.504101D-01
     15 -0.367690D-01  0.120861D-01 -0.448969D-01  0.291304D-01 -0.487088D-01
     16  0.100443D-01  0.332437D-02 -0.792096D-02  0.679963D-02 -0.971934D-02
     17 -0.232752D-01 -0.217613D-02  0.116407D-01 -0.124724D-02 -0.686144D-02
     18  0.223312D-01  0.418024D-02 -0.853913D-02 -0.765932D-02  0.294979D-01
     19  0.819748D-02 -0.335487D-01 -0.154438D-02 -0.109643D-01 -0.290288D-02
     20  0.428263D-02 -0.853437D-02  0.518054D-02 -0.245107D-01 -0.516603D-02
     21 -0.265293D-03 -0.517069D-02  0.161335D-02 -0.159438D-01 -0.888346D-02
     22 -0.232996D-02 -0.241599D-02 -0.141645D-02 -0.115554D+00 -0.532205D-01
     23 -0.611715D-02 -0.556875D-03 -0.336030D-02 -0.917813D-01 -0.293068D+00
     24 -0.402617D-02  0.104523D-02 -0.560285D-02  0.828784D-02 -0.416631D-01
     25 -0.132548D+00  0.444279D-01  0.960834D-01 -0.305791D-02 -0.287523D-02
     26  0.404634D-01 -0.104840D+00 -0.685148D-01  0.680271D-03  0.385301D-03
     27  0.852570D-01 -0.639329D-01 -0.223176D+00 -0.688727D-03  0.171349D-02
     28 -0.184893D+00 -0.954189D-01 -0.717454D-01 -0.132795D-02 -0.161230D-02
     29 -0.861504D-01 -0.153896D+00 -0.556290D-01 -0.399398D-02 -0.297553D-02
     30 -0.659257D-01 -0.585223D-01 -0.115039D+00 -0.398434D-02 -0.724294D-04
     31 -0.776273D-01 -0.450292D-02  0.309486D-02 -0.115277D-02 -0.244398D-02
     32 -0.970251D-02 -0.223469D+00  0.118078D+00  0.970585D-03 -0.141036D-02
     33  0.888486D-02  0.113356D+00 -0.162257D+00 -0.317100D-02  0.239669D-02
     34 -0.193237D-03  0.102025D-03 -0.441072D-03  0.923306D-02 -0.168800D-01
     35  0.147347D-03 -0.597782D-03 -0.862533D-03  0.168913D-01 -0.396372D-01
     36 -0.531254D-05 -0.260133D-03 -0.335538D-03 -0.209950D-02 -0.396166D-02
                6             7             8             9            10 
      6  0.496035D+00
      7  0.103927D-01  0.362696D+00
      8 -0.132297D-02  0.810780D-02  0.785356D-01
      9 -0.746498D-01  0.835206D-02 -0.622435D-02  0.692734D-01
     10 -0.503971D-01 -0.465620D-01  0.299341D-01 -0.514427D-01  0.108927D+00
     11  0.885772D-01  0.218235D-01  0.471352D-02  0.138376D-01 -0.542783D-01
     12 -0.246370D+00 -0.292181D-01  0.102915D-01 -0.418167D-02  0.939072D-01
     13  0.917101D-02 -0.400171D-01  0.117364D-01  0.235442D-01  0.332806D-02
     14 -0.415221D-01 -0.309458D-02 -0.252142D-02 -0.378620D-02 -0.237799D-03
     15 -0.112551D+00 -0.671903D-02  0.291148D-03  0.476706D-02  0.468573D-03
     16 -0.179803D-02  0.168078D-02  0.607454D-03 -0.764978D-03  0.319821D-03
     17 -0.616764D-02 -0.160446D-02  0.287533D-02  0.139018D-02 -0.124798D-04
     18  0.829296D-02  0.932958D-02 -0.454818D-02 -0.381483D-02  0.139614D-03
     19  0.109755D-01  0.107176D-01  0.299964D-02  0.733802D-03  0.113229D-02
     20  0.147351D-01  0.315471D-02  0.279916D-03 -0.906355D-03  0.277091D-03
     21  0.978470D-02 -0.531102D-03 -0.116732D-02 -0.100672D-02  0.743968D-03
     22  0.214444D-01 -0.504432D-01 -0.572970D-01 -0.199026D-02  0.174742D-01
     23 -0.713330D-02 -0.337941D-01 -0.765519D-02  0.404616D-03 -0.724060D-02
     24 -0.988560D-01  0.444333D-03  0.138417D-02  0.144210D-01  0.572319D-02
     25 -0.112952D-01 -0.365821D-02  0.173207D-02  0.287223D-02  0.796775D-03
     26  0.606457D-02  0.218523D-02 -0.686588D-03 -0.149006D-02 -0.283821D-03
     27  0.148889D-02  0.207182D-02 -0.567660D-03 -0.599704D-03  0.685553D-03
     28 -0.462261D-02  0.140590D-03  0.882065D-03  0.112916D-02 -0.364182D-03
     29 -0.220719D-02  0.408048D-03  0.874607D-03  0.664106D-03  0.101010D-02
     30 -0.590547D-02  0.946968D-04  0.670832D-03  0.130048D-02  0.263971D-02
     31 -0.188778D-02 -0.707544D-03  0.563826D-03  0.741522D-03 -0.479717D-03
     32  0.646435D-02  0.203845D-02 -0.444071D-03 -0.178192D-02  0.145219D-03
     33 -0.928717D-02 -0.153291D-02  0.540828D-03  0.214638D-02  0.263448D-02
     34 -0.141742D-01 -0.446369D-03  0.143955D-02  0.616664D-04 -0.530926D-03
     35 -0.365423D-01  0.241627D-02  0.391347D-02  0.228655D-02 -0.112185D-02
     36  0.204672D-02  0.272835D-02  0.322776D-02 -0.616553D-03  0.939367D-03
               11            12            13            14            15 
     11  0.183700D+00
     12 -0.165757D+00  0.290394D+00
     13  0.980608D-04 -0.139103D-01  0.635588D+00
     14 -0.378608D-03  0.315174D-01  0.263550D+00  0.854146D+00
     15  0.106708D-02 -0.208772D-01 -0.441078D-01 -0.196676D+00  0.665936D+00
     16  0.123309D-03  0.571226D-02 -0.104339D+00 -0.680914D-01  0.761562D-01
     17  0.224725D-02 -0.284588D-02 -0.736747D-01 -0.336452D+00  0.268205D+00
     18 -0.140163D-02 -0.122018D-01  0.831415D-01  0.280000D+00 -0.376564D+00
     19  0.479062D-03 -0.155021D-02 -0.324412D+00 -0.258248D+00 -0.367563D-01
     20  0.274512D-02 -0.111188D-01 -0.248515D+00 -0.356887D+00 -0.399287D-01
     21 -0.212725D-03 -0.166522D-02 -0.408985D-01 -0.485793D-01 -0.927388D-01
     22  0.179134D-03  0.326027D-02  0.361766D-02  0.275247D-02 -0.232075D-03
     23 -0.705791D-01  0.410848D-01 -0.912788D-02 -0.253667D-01  0.916121D-02
     24  0.605908D-01 -0.155536D-02 -0.613922D-02 -0.168415D-01  0.345936D-02
     25 -0.176345D-03  0.142292D-02 -0.858128D-02  0.142820D-01  0.396463D-01
     26  0.477678D-03 -0.723364D-03  0.693414D-02 -0.624346D-02 -0.223467D-01
     27 -0.917032D-03  0.964425D-03  0.373246D-02 -0.391165D-02 -0.206359D-01
     28  0.490891D-04  0.346441D-02 -0.113806D-01 -0.358127D-01 -0.125176D-01
     29  0.567609D-03  0.723219D-03 -0.174675D-02 -0.537357D-02 -0.403263D-03
     30 -0.921312D-03  0.197356D-02 -0.725296D-02 -0.137140D-01 -0.101745D-02
     31  0.181799D-02  0.222531D-02  0.668411D-02  0.110648D-01 -0.979535D-02
     32  0.627075D-03 -0.503004D-02 -0.177140D-01 -0.200267D-01  0.159986D-01
     33 -0.379303D-02  0.380797D-02  0.913794D-02  0.174815D-01 -0.573036D-02
     34 -0.487279D-03 -0.697483D-04  0.834791D-03 -0.350684D-02  0.149565D-02
     35  0.325908D-02  0.181936D-02 -0.272433D-02 -0.280783D-02  0.125496D-02
     36  0.326304D-02 -0.320220D-02  0.117359D-02 -0.214320D-02  0.849716D-03
               16            17            18            19            20 
     16  0.762439D-01
     17  0.837363D-01  0.334222D+00
     18 -0.839413D-01 -0.300821D+00  0.373963D+00
     19  0.113517D-01 -0.301849D-02 -0.867648D-02  0.320801D+00
     20 -0.211588D-01  0.593966D-04 -0.748208D-02  0.285466D+00  0.361735D+00
     21  0.179856D-01  0.248486D-01  0.144194D-01  0.442264D-01  0.474256D-01
     22  0.358788D-03  0.954741D-03  0.672460D-03  0.230322D-02  0.262266D-02
     23  0.276281D-02  0.660200D-02 -0.511685D-02 -0.226072D-02 -0.773832D-02
     24  0.157210D-02 -0.124617D-02 -0.131049D-02 -0.263128D-02 -0.701360D-02
     25  0.735277D-03  0.208379D-02 -0.654399D-02 -0.367944D-02 -0.362864D-02
     26 -0.287507D-03  0.204698D-03  0.171413D-02  0.524738D-02  0.412364D-02
     27 -0.256780D-02 -0.235646D-02  0.823529D-02  0.373109D-02  0.299277D-02
     28 -0.356770D-04  0.939706D-02 -0.362406D-02 -0.135325D-01  0.206421D-02
     29  0.933966D-03  0.436321D-02 -0.135755D-02 -0.551721D-03  0.219370D-02
     30  0.373537D-03  0.281207D-02  0.439043D-04 -0.556577D-02  0.384727D-03
     31 -0.314081D-02  0.596709D-02 -0.497735D-02 -0.108276D-02  0.903289D-03
     32  0.744084D-02 -0.601781D-02  0.477198D-02  0.624956D-02  0.747605D-02
     33 -0.445506D-02  0.394647D-02 -0.279644D-02 -0.225430D-02 -0.417310D-02
     34 -0.188749D-04  0.693603D-03 -0.191850D-03 -0.831880D-03 -0.957563D-03
     35  0.328002D-03  0.932934D-03  0.562883D-03  0.889209D-04 -0.286648D-03
     36 -0.351514D-03  0.594549D-03  0.272486D-03 -0.688059D-03 -0.960813D-04
               21            22            23            24            25 
     21  0.695192D-01
     22  0.178732D-02  0.269061D+00
     23 -0.848212D-02  0.114573D-01  0.573060D+00
     24 -0.550390D-02 -0.183717D+00  0.172656D+00  0.339369D+00
     25 -0.417856D-02  0.293090D-03  0.338898D-02  0.214044D-02  0.123222D+00
     26  0.316485D-02  0.210977D-03 -0.161620D-02 -0.106255D-02 -0.390038D-01
     27  0.383421D-02  0.264039D-03 -0.159664D-02 -0.226541D-03 -0.122892D+00
     28 -0.185402D-02  0.422555D-03  0.334767D-02  0.245632D-02  0.219318D-01
     29 -0.837571D-04  0.186552D-02  0.132398D-02  0.622785D-03 -0.121479D-01
     30 -0.314052D-03  0.102385D-02  0.136274D-02  0.166234D-02 -0.209090D-01
     31  0.543877D-04  0.472181D-03  0.111185D-02  0.558684D-03  0.417636D-02
     32 -0.239779D-02  0.395031D-03 -0.299815D-03 -0.124877D-02 -0.790036D-02
     33  0.220039D-02  0.218117D-04  0.183761D-03  0.177127D-02  0.235233D-01
     34 -0.112645D-02 -0.125675D+00  0.128253D+00  0.175330D+00  0.370031D-03
     35 -0.461916D-03  0.924956D-01 -0.174106D+00 -0.167223D+00 -0.182502D-03
     36 -0.142540D-03  0.158881D+00 -0.199164D+00 -0.247628D+00  0.129635D-03
               26            27            28            29            30 
     26  0.115101D+00
     27  0.962856D-01  0.340243D+00
     28  0.756213D-03 -0.313962D-02  0.193240D+00
     29 -0.218933D-01 -0.446877D-01  0.147069D+00  0.234863D+00
     30 -0.476866D-01 -0.445428D-01  0.857060D-01  0.100469D+00  0.142781D+00
     31 -0.166655D-01  0.337444D-01 -0.405153D-02 -0.467138D-01  0.138617D-01
     32  0.147958D-01  0.166348D-01 -0.308951D-01 -0.604080D-01  0.148848D-01
     33  0.346481D-01 -0.655455D-01  0.482244D-02  0.176270D-02  0.190096D-01
     34 -0.237094D-03 -0.198713D-03 -0.149511D-03  0.181424D-04 -0.617315D-04
     35  0.191058D-03  0.343270D-03  0.173914D-03  0.360292D-03  0.332358D-03
     36 -0.532417D-04 -0.386610D-04 -0.750348D-04  0.126497D-03  0.473008D-04
               31            32            33            34            35 
     31  0.769028D-01
     32  0.489800D-01  0.289052D+00
     33 -0.375936D-01 -0.166495D+00  0.216765D+00
     34  0.699035D-05 -0.763405D-05 -0.179668D-04  0.117401D+00
     35 -0.826209D-04  0.124485D-03  0.145538D-03 -0.108430D+00  0.208654D+00
     36 -0.267443D-04  0.121279D-03 -0.842947D-04 -0.160606D+00  0.198345D+00
               36 
     36  0.248831D+00
 FormGI is forming the generalized inverse of G from B-inverse, IUseBI=4.
 Leave Link  716 at Fri May 23 04:19:42 2025, MaxMem=  3758096384 cpu:               0.1 elap:               0.0
 (Enter /apps/easybuild-2022/easybuild/software/Compiler/NVHPC/22.11-CUDA-11.7.0/Gaussian/g16c01-CUDA-11.7.0/g16/l103.exe)

 GradGradGradGradGradGradGradGradGradGradGradGradGradGradGradGradGradGrad
 Berny optimization.
 Red2BG is reusing G-inverse.
 Internal  Forces:  Max     0.021797877 RMS     0.005085123
 Search for a local minimum.
 Step number   1 out of a maximum of   61
 All quantities printed in internal units (Hartrees-Bohrs-Radians)
 RMS Force = .50851D-02 SwitMx=.10000D-02 MixMth= 1
 Mixed Optimization -- RFO/linear search
 Second derivative matrix not updated -- analytic derivatives used.
 ITU=  0
     Eigenvalues ---    0.00058   0.00079   0.00256   0.06330   0.07511
     Eigenvalues ---    0.08978   0.09459   0.10244   0.10465   0.11246
     Eigenvalues ---    0.13547   0.14057   0.14926   0.15940   0.18676
     Eigenvalues ---    0.19395   0.20325   0.21119   0.22935   0.27753
     Eigenvalues ---    0.35494   0.36080   0.39046   0.39287   0.41533
     Eigenvalues ---    0.52290   0.56421   0.56838   0.64097   0.68325
 RFO step:  Lambda=-4.88851741D-03 EMin= 5.82243945D-04
 Linear search not attempted -- first point.
 Iteration  1 RMS(Cart)=  0.06120700 RMS(Int)=  0.00163578
 Iteration  2 RMS(Cart)=  0.00201364 RMS(Int)=  0.00032628
 Iteration  3 RMS(Cart)=  0.00000261 RMS(Int)=  0.00032627
 Iteration  4 RMS(Cart)=  0.00000000 RMS(Int)=  0.00032627
 ITry= 1 IFail=0 DXMaxC= 2.20D-01 DCOld= 1.00D+10 DXMaxT= 3.00D-01 DXLimC= 3.00D+00 Rises=F
 Variable       Old X    -DE/DX   Delta X   Delta X   Delta X     New X
                                 (Linear)    (Quad)   (Total)
    R1        3.57902  -0.00011   0.00000   0.00137   0.00137   3.58039
    R2        2.49390  -0.00058   0.00000   0.00200   0.00200   2.49590
    R3        2.49966   0.00125   0.00000   0.00224   0.00224   2.50190
    R4        2.48964  -0.00005   0.00000   0.00150   0.00150   2.49114
    R5        2.55188  -0.00964   0.00000  -0.02021  -0.02021   2.53166
    R6        2.49239   0.02180   0.00000   0.04975   0.04975   2.54214
    R7        3.60007  -0.00199   0.00000  -0.01848  -0.01848   3.58159
    R8        2.51407   0.00753   0.00000  -0.00118  -0.00118   2.51290
    R9        2.72008  -0.00127   0.00000  -0.00114  -0.00114   2.71894
   R10        2.74242  -0.01097   0.00000  -0.02198  -0.02198   2.72044
   R11        1.82867  -0.00338   0.00000  -0.00584  -0.00584   1.82283
    A1        1.86746  -0.00084   0.00000  -0.00381  -0.00381   1.86365
    A2        1.90559   0.00179   0.00000   0.00978   0.00977   1.91536
    A3        1.93407  -0.00039   0.00000   0.00157   0.00156   1.93563
    A4        1.91739  -0.00008   0.00000  -0.00157  -0.00156   1.91583
    A5        1.91697   0.00039   0.00000  -0.00207  -0.00207   1.91489
    A6        1.92162  -0.00084   0.00000  -0.00382  -0.00384   1.91779
    A7        1.89638  -0.00229   0.00000  -0.02696  -0.02742   1.86896
    A8        1.85687   0.00007   0.00000   0.00099   0.00080   1.85767
    A9        1.97498  -0.00024   0.00000   0.00109   0.00108   1.97607
   A10        1.91756  -0.00675   0.00000  -0.03147  -0.03171   1.88585
   A11        1.92293   0.01134   0.00000   0.04651   0.04667   1.96960
   A12        1.89372  -0.00288   0.00000   0.00675   0.00678   1.90050
   A13        1.82825  -0.00951   0.00000  -0.04405  -0.04438   1.78387
   A14        1.86239   0.00215   0.00000  -0.00020  -0.00145   1.86094
   A15        1.87335  -0.00136   0.00000  -0.00449  -0.00358   1.86977
   A16        1.92450  -0.00071   0.00000  -0.02848  -0.02917   1.89533
   A17        1.80263   0.00823   0.00000   0.05906   0.05912   1.86175
   A18        2.14879  -0.00071   0.00000   0.00862   0.00867   2.15746
   A19        1.91954   0.00133   0.00000   0.00643   0.00643   1.92597
    D1       -2.94971   0.00273   0.00000   0.04004   0.04003  -2.90968
    D2       -0.90880  -0.00159   0.00000  -0.01313  -0.01302  -0.92182
    D3        1.42523  -0.00192   0.00000  -0.00555  -0.00564   1.41959
    D4       -0.87548   0.00312   0.00000   0.04131   0.04129  -0.83419
    D5        1.16543  -0.00120   0.00000  -0.01186  -0.01176   1.15367
    D6       -2.78373  -0.00153   0.00000  -0.00429  -0.00438  -2.78810
    D7        1.24395   0.00300   0.00000   0.04400   0.04399   1.28794
    D8       -2.99832  -0.00132   0.00000  -0.00918  -0.00907  -3.00738
    D9       -0.66429  -0.00165   0.00000  -0.00160  -0.00168  -0.66597
   D10       -2.60448   0.00072   0.00000  -0.05554  -0.05503  -2.65951
   D11        1.68095   0.00355   0.00000  -0.01914  -0.01962   1.66133
   D12       -0.64525  -0.00109   0.00000  -0.05394  -0.05436  -0.69961
   D13       -0.55477  -0.00546   0.00000  -0.10323  -0.10238  -0.65716
   D14       -2.55253  -0.00263   0.00000  -0.06682  -0.06697  -2.61950
   D15        1.40446  -0.00727   0.00000  -0.10162  -0.10171   1.30275
   D16        1.54847   0.00256   0.00000  -0.06117  -0.06060   1.48788
   D17       -0.44929   0.00539   0.00000  -0.02476  -0.02519  -0.47447
   D18       -2.77548   0.00076   0.00000  -0.05957  -0.05993  -2.83540
   D19        0.83044   0.00262   0.00000   0.05882   0.05884   0.88928
   D20       -1.29638  -0.00255   0.00000   0.05887   0.05902  -1.23736
   D21        2.88689   0.00067   0.00000   0.06517   0.06501   2.95190
         Item               Value     Threshold  Converged?
 Maximum Force            0.021798     0.000015     NO 
 RMS     Force            0.005085     0.000010     NO 
 Maximum Displacement     0.219857     0.000060     NO 
 RMS     Displacement     0.061572     0.000040     NO 
 Predicted change in Energy=-2.617200D-03
 Lowest energy point so far.  Saving SCF results.
 GradGradGradGradGradGradGradGradGradGradGradGradGradGradGradGradGradGrad

 Leave Link  103 at Fri May 23 04:19:42 2025, MaxMem=  3758096384 cpu:               0.1 elap:               0.0
 (Enter /apps/easybuild-2022/easybuild/software/Compiler/NVHPC/22.11-CUDA-11.7.0/Gaussian/g16c01-CUDA-11.7.0/g16/l202.exe)
                          Input orientation:                          
 ---------------------------------------------------------------------
 Center     Atomic      Atomic             Coordinates (Angstroms)
 Number     Number       Type             X           Y           Z
 ---------------------------------------------------------------------
      1          6           0        3.512057   -1.678736   -1.136319
      2          6           0        1.356034   -0.002223   -0.022099
      3          9           0        0.017185    0.043382   -0.008104
      4          9           0        1.736734   -0.756178    1.024945
      5         16           0        1.845025   -0.913294   -1.610490
      6          8           0        2.115757    0.061392   -2.633643
      7          8           0        0.910726   -1.996937   -1.769329
      8          8           0        1.921620    1.201268   -0.024570
      9          9           0        4.074575   -2.092013   -2.257575
     10          9           0        4.277305   -0.763474   -0.562274
     11          9           0        3.345377   -2.700049   -0.319659
     12          1           0        1.555959    1.745205    0.683157
 ---------------------------------------------------------------------
                    Distance matrix (angstroms):
                    1          2          3          4          5
     1  C    0.000000
     2  C    2.949680   0.000000
     3  F    4.056191   1.339698   0.000000
     4  F    2.945157   1.345244   2.159475   0.000000
     5  S    1.894659   1.895297   2.612254   2.642335   0.000000
     6  O    2.686946   2.720549   3.361217   3.767937   1.438802
     7  O    2.696085   2.688865   2.839583   3.166976   1.439593
     8  O    3.472736   1.329768   2.228865   2.228735   2.644311
     9  F    1.320772   4.093292   5.107097   4.245574   2.603649
    10  F    1.323948   3.066777   4.371126   2.995634   2.652770
    11  F    1.318255   3.365159   4.324390   2.859079   2.666419
    12  H    4.342831   1.894957   2.396220   2.531089   3.523066
                    6          7          8          9         10
     6  O    0.000000
     7  O    2.536900   0.000000
     8  O    2.853816   3.780821   0.000000
     9  F    2.935226   3.202712   4.524072   0.000000
    10  F    3.105361   3.783157   3.114256   2.163369   0.000000
    11  F    3.806842   2.919492   4.163465   2.157997   2.162794
    12  H    3.761617   4.520469   0.964600   5.451199   3.905162
                   11         12
    11  F    0.000000
    12  H    4.895706   0.000000
 Symmetry turned off by external request.
 Stoichiometry    C2HF5O3S
 Rotational constants (GHZ):           1.4958422           0.8471960           0.7737438
 Leave Link  202 at Fri May 23 04:19:42 2025, MaxMem=  3758096384 cpu:               0.1 elap:               0.0
 (Enter /apps/easybuild-2022/easybuild/software/Compiler/NVHPC/22.11-CUDA-11.7.0/Gaussian/g16c01-CUDA-11.7.0/g16/l301.exe)
 Standard basis: 6-311++G(d,p) (5D, 7F)
 Ernie: Thresh=  0.10000D-02 Tol=  0.10000D-05 Strict=F.
   257 basis functions,   419 primitive gaussians,   268 cartesian basis functions
    49 alpha electrons       49 beta electrons
       nuclear repulsion energy       917.8682058905 Hartrees.
 IExCor= 4639 DFT=T Ex+Corr=wB97XD ExCW=0 ScaHFX=  1.000000
 ScaDFX=  1.000000  1.000000  1.000000  1.000000 ScalE2=  1.000000  1.000000
 IRadAn=      5 IRanWt=     -1 IRanGd=            0 ICorTp=0 IEmpDi=121
 HFx  wShort=  0.000000 wLong=  0.200000 cFull=  0.222036 cShort=  0.000000 cLong=  0.777964
 DFx  wShort=  0.000000 wLong=  0.200000 cFull=  0.000000 cShort=  0.000000 cLong=  1.000000
 NAtoms=   12 NActive=   12 NUniq=   12 SFac= 1.00D+00 NAtFMM=   60 NAOKFM=F Big=F
 Integral buffers will be    131072 words long.
 Raffenetti 2 integral format.
 Two-electron integral symmetry is turned off.
 R6Disp:  Grimme-D2 Dispersion energy=       -0.0055204837 Hartrees.
 Nuclear repulsion after empirical dispersion term =      917.8626854068 Hartrees.
 Leave Link  301 at Fri May 23 04:19:42 2025, MaxMem=  3758096384 cpu:               0.1 elap:               0.0
 (Enter /apps/easybuild-2022/easybuild/software/Compiler/NVHPC/22.11-CUDA-11.7.0/Gaussian/g16c01-CUDA-11.7.0/g16/l302.exe)
 NPDir=0 NMtPBC=     1 NCelOv=     1 NCel=       1 NClECP=     1 NCelD=      1
         NCelK=      1 NCelE2=     1 NClLst=     1 CellRange=     0.0.
 One-electron integrals computed using PRISM.
 NBasis=   257 RedAO= T EigKep=  7.53D-05  NBF=   257
 NBsUse=   257 1.00D-06 EigRej= -1.00D+00 NBFU=   257
 Precomputing XC quadrature grid using
 IXCGrd= 4 IRadAn=           5 IRanWt=          -1 IRanGd=           0 AccXCQ= 0.00D+00.
 Generated NRdTot=       0 NPtTot=           0 NUsed=           0 NTot=          32
 NSgBfM=   267   267   267   267   267 MxSgAt=    12 MxSgA2=    12.
 Leave Link  302 at Fri May 23 04:19:42 2025, MaxMem=  3758096384 cpu:               0.7 elap:               0.2
 (Enter /apps/easybuild-2022/easybuild/software/Compiler/NVHPC/22.11-CUDA-11.7.0/Gaussian/g16c01-CUDA-11.7.0/g16/l303.exe)
 DipDrv:  MaxL=1.
 Leave Link  303 at Fri May 23 04:19:42 2025, MaxMem=  3758096384 cpu:               0.1 elap:               0.0
 (Enter /apps/easybuild-2022/easybuild/software/Compiler/NVHPC/22.11-CUDA-11.7.0/Gaussian/g16c01-CUDA-11.7.0/g16/l401.exe)
 Initial guess from the checkpoint file:  "/tmp/Gau-163153.chk"
 B after Tr=    -0.041169   -0.030182   -0.020347
         Rot=    0.999990    0.001217    0.001612   -0.003969 Ang=   0.51 deg.
 Guess basis will be translated and rotated to current coordinates.
 JPrj=2 DoOrth=T DoCkMO=T.
 Generating alternative initial guess.
 ExpMin= 3.60D-02 ExpMax= 9.34D+04 ExpMxC= 3.17D+03 IAcc=3 IRadAn=         5 AccDes= 0.00D+00
 Harris functional with IExCor= 4639 and IRadAn=       5 diagonalized for initial guess.
 HarFok:  IExCor= 4639 AccDes= 0.00D+00 IRadAn=         5 IDoV= 1 UseB2=F ITyADJ=14
 ICtDFT=  3500011 ScaDFX=  1.000000  1.000000  1.000000  1.000000
 FoFCou: FMM=F IPFlag=           0 FMFlag=      100000 FMFlg1=           0
         NFxFlg=           0 DoJE=T BraDBF=F KetDBF=T FulRan=T
         wScrn=  0.000000 ICntrl=       500 IOpCl=  0 I1Cent=   200000004 NGrid=           0
         NMat0=    1 NMatS0=      1 NMatT0=    0 NMatD0=    1 NMtDS0=    0 NMtDT0=    0
 Symmetry not used in FoFCou.
 Harris En= -1167.10434567949    
 Leave Link  401 at Fri May 23 04:19:43 2025, MaxMem=  3758096384 cpu:               3.2 elap:               0.6
 (Enter /apps/easybuild-2022/easybuild/software/Compiler/NVHPC/22.11-CUDA-11.7.0/Gaussian/g16c01-CUDA-11.7.0/g16/l502.exe)
 Keep R1 ints in memory in canonical form, NReq=1117474609.
 FoFCou: FMM=F IPFlag=           0 FMFlag=           0 FMFlg1=           0
         NFxFlg=           0 DoJE=F BraDBF=F KetDBF=F FulRan=T
         wScrn=  0.000000 ICntrl=       600 IOpCl=  0 I1Cent=           0 NGrid=           0
         NMat0=    1 NMatS0=  33153 NMatT0=    0 NMatD0=    1 NMtDS0=    0 NMtDT0=    0
 Symmetry not used in FoFCou.
 Two-electron integral symmetry not used.
 Closed shell SCF:
 Using DIIS extrapolation, IDIIS=  1040.
 NGot=  3758096384 LenX=  2658793876 LenY=  2658721611
 Requested convergence on RMS density matrix=1.00D-08 within  32 cycles.
 Requested convergence on MAX density matrix=1.00D-06.
 Requested convergence on             energy=1.00D-06.
 No special actions if energy rises.

 Cycle   1  Pass 1  IDiag  1:
 E= -1199.81078439339    
 DIIS: error= 3.14D-03 at cycle   1 NSaved=   1.
 NSaved= 1 IEnMin= 1 EnMin= -1199.81078439339     IErMin= 1 ErrMin= 3.14D-03
 ErrMax= 3.14D-03  0.00D+00 EMaxC= 1.00D-01 BMatC= 6.50D-03 BMatP= 6.50D-03
 IDIUse=3 WtCom= 9.69D-01 WtEn= 3.14D-02
 Coeff-Com:  0.100D+01
 Coeff-En:   0.100D+01
 Coeff:      0.100D+01
 Gap=     0.721 Goal=   None    Shift=    0.000
 GapD=    0.721 DampG=2.000 DampE=1.000 DampFc=2.0000 IDamp=-1.
 RMSDP=1.06D-03 MaxDP=5.43D-02              OVMax= 1.85D-02

 Cycle   2  Pass 1  IDiag  1:
 E= -1199.81961085067     Delta-E=       -0.008826457279 Rises=F Damp=F
 DIIS: error= 1.11D-03 at cycle   2 NSaved=   2.
 NSaved= 2 IEnMin= 2 EnMin= -1199.81961085067     IErMin= 2 ErrMin= 1.11D-03
 ErrMax= 1.11D-03  0.00D+00 EMaxC= 1.00D-01 BMatC= 5.93D-04 BMatP= 6.50D-03
 IDIUse=3 WtCom= 9.89D-01 WtEn= 1.11D-02
 Coeff-Com: -0.153D-01 0.102D+01
 Coeff-En:   0.000D+00 0.100D+01
 Coeff:     -0.152D-01 0.102D+01
 Gap=     0.446 Goal=   None    Shift=    0.000
 RMSDP=3.38D-04 MaxDP=1.35D-02 DE=-8.83D-03 OVMax= 1.14D-02

 Cycle   3  Pass 1  IDiag  1:
 E= -1199.81959696592     Delta-E=        0.000013884751 Rises=F Damp=F
 DIIS: error= 1.72D-03 at cycle   3 NSaved=   3.
 NSaved= 3 IEnMin= 2 EnMin= -1199.81961085067     IErMin= 2 ErrMin= 1.11D-03
 ErrMax= 1.72D-03  0.00D+00 EMaxC= 1.00D-01 BMatC= 1.02D-03 BMatP= 5.93D-04
 IDIUse=3 WtCom= 1.94D-01 WtEn= 8.06D-01
 Coeff-Com: -0.100D+00 0.640D+00 0.461D+00
 Coeff-En:   0.000D+00 0.507D+00 0.493D+00
 Coeff:     -0.195D-01 0.533D+00 0.487D+00
 Gap=     0.447 Goal=   None    Shift=    0.000
 RMSDP=2.44D-04 MaxDP=9.84D-03 DE= 1.39D-05 OVMax= 8.51D-03

 Cycle   4  Pass 1  IDiag  1:
 E= -1199.82025595271     Delta-E=       -0.000658986789 Rises=F Damp=F
 DIIS: error= 4.44D-04 at cycle   4 NSaved=   4.
 NSaved= 4 IEnMin= 4 EnMin= -1199.82025595271     IErMin= 4 ErrMin= 4.44D-04
 ErrMax= 4.44D-04  0.00D+00 EMaxC= 1.00D-01 BMatC= 7.63D-05 BMatP= 5.93D-04
 IDIUse=3 WtCom= 9.96D-01 WtEn= 4.44D-03
 Coeff-Com: -0.129D-01-0.507D-01 0.202D+00 0.861D+00
 Coeff-En:   0.000D+00 0.000D+00 0.178D-01 0.982D+00
 Coeff:     -0.128D-01-0.505D-01 0.201D+00 0.862D+00
 Gap=     0.446 Goal=   None    Shift=    0.000
 RMSDP=5.98D-05 MaxDP=2.15D-03 DE=-6.59D-04 OVMax= 1.99D-03

 Cycle   5  Pass 1  IDiag  1:
 E= -1199.82031462081     Delta-E=       -0.000058668099 Rises=F Damp=F
 DIIS: error= 6.05D-05 at cycle   5 NSaved=   5.
 NSaved= 5 IEnMin= 5 EnMin= -1199.82031462081     IErMin= 5 ErrMin= 6.05D-05
 ErrMax= 6.05D-05  0.00D+00 EMaxC= 1.00D-01 BMatC= 2.17D-06 BMatP= 7.63D-05
 IDIUse=1 WtCom= 1.00D+00 WtEn= 0.00D+00
 Coeff-Com:  0.286D-02-0.777D-01 0.530D-01 0.393D+00 0.629D+00
 Coeff:      0.286D-02-0.777D-01 0.530D-01 0.393D+00 0.629D+00
 Gap=     0.446 Goal=   None    Shift=    0.000
 RMSDP=1.09D-05 MaxDP=4.61D-04 DE=-5.87D-05 OVMax= 2.60D-04

 Cycle   6  Pass 1  IDiag  1:
 E= -1199.82031609993     Delta-E=       -0.000001479125 Rises=F Damp=F
 DIIS: error= 1.49D-05 at cycle   6 NSaved=   6.
 NSaved= 6 IEnMin= 6 EnMin= -1199.82031609993     IErMin= 6 ErrMin= 1.49D-05
 ErrMax= 1.49D-05  0.00D+00 EMaxC= 1.00D-01 BMatC= 1.51D-07 BMatP= 2.17D-06
 IDIUse=1 WtCom= 1.00D+00 WtEn= 0.00D+00
 Coeff-Com:  0.231D-02-0.227D-01-0.453D-02 0.426D-01 0.234D+00 0.748D+00
 Coeff:      0.231D-02-0.227D-01-0.453D-02 0.426D-01 0.234D+00 0.748D+00
 Gap=     0.446 Goal=   None    Shift=    0.000
 RMSDP=3.69D-06 MaxDP=1.75D-04 DE=-1.48D-06 OVMax= 1.05D-04

 Cycle   7  Pass 1  IDiag  1:
 E= -1199.82031623463     Delta-E=       -0.000000134695 Rises=F Damp=F
 DIIS: error= 6.04D-06 at cycle   7 NSaved=   7.
 NSaved= 7 IEnMin= 7 EnMin= -1199.82031623463     IErMin= 7 ErrMin= 6.04D-06
 ErrMax= 6.04D-06  0.00D+00 EMaxC= 1.00D-01 BMatC= 1.52D-08 BMatP= 1.51D-07
 IDIUse=1 WtCom= 1.00D+00 WtEn= 0.00D+00
 Coeff-Com:  0.731D-03-0.306D-02-0.638D-02-0.144D-01 0.417D-01 0.275D+00
 Coeff-Com:  0.707D+00
 Coeff:      0.731D-03-0.306D-02-0.638D-02-0.144D-01 0.417D-01 0.275D+00
 Coeff:      0.707D+00
 Gap=     0.446 Goal=   None    Shift=    0.000
 RMSDP=1.71D-06 MaxDP=6.99D-05 DE=-1.35D-07 OVMax= 3.89D-05

 Cycle   8  Pass 1  IDiag  1:
 E= -1199.82031624989     Delta-E=       -0.000000015266 Rises=F Damp=F
 DIIS: error= 2.30D-06 at cycle   8 NSaved=   8.
 NSaved= 8 IEnMin= 8 EnMin= -1199.82031624989     IErMin= 8 ErrMin= 2.30D-06
 ErrMax= 2.30D-06  0.00D+00 EMaxC= 1.00D-01 BMatC= 2.85D-09 BMatP= 1.52D-08
 IDIUse=1 WtCom= 1.00D+00 WtEn= 0.00D+00
 Coeff-Com: -0.100D-03 0.278D-02-0.180D-02-0.132D-01-0.241D-01-0.197D-01
 Coeff-Com:  0.292D+00 0.765D+00
 Coeff:     -0.100D-03 0.278D-02-0.180D-02-0.132D-01-0.241D-01-0.197D-01
 Coeff:      0.292D+00 0.765D+00
 Gap=     0.446 Goal=   None    Shift=    0.000
 RMSDP=6.86D-07 MaxDP=4.15D-05 DE=-1.53D-08 OVMax= 2.09D-05

 Cycle   9  Pass 1  IDiag  1:
 E= -1199.82031625281     Delta-E=       -0.000000002915 Rises=F Damp=F
 DIIS: error= 9.24D-07 at cycle   9 NSaved=   9.
 NSaved= 9 IEnMin= 9 EnMin= -1199.82031625281     IErMin= 9 ErrMin= 9.24D-07
 ErrMax= 9.24D-07  0.00D+00 EMaxC= 1.00D-01 BMatC= 4.47D-10 BMatP= 2.85D-09
 IDIUse=1 WtCom= 1.00D+00 WtEn= 0.00D+00
 Coeff-Com: -0.130D-03 0.165D-02-0.730D-04-0.443D-02-0.163D-01-0.389D-01
 Coeff-Com:  0.588D-01 0.356D+00 0.644D+00
 Coeff:     -0.130D-03 0.165D-02-0.730D-04-0.443D-02-0.163D-01-0.389D-01
 Coeff:      0.588D-01 0.356D+00 0.644D+00
 Gap=     0.446 Goal=   None    Shift=    0.000
 RMSDP=2.87D-07 MaxDP=1.27D-05 DE=-2.92D-09 OVMax= 6.49D-06

 Cycle  10  Pass 1  IDiag  1:
 E= -1199.82031625327     Delta-E=       -0.000000000462 Rises=F Damp=F
 DIIS: error= 1.74D-07 at cycle  10 NSaved=  10.
 NSaved=10 IEnMin=10 EnMin= -1199.82031625327     IErMin=10 ErrMin= 1.74D-07
 ErrMax= 1.74D-07  0.00D+00 EMaxC= 1.00D-01 BMatC= 2.42D-11 BMatP= 4.47D-10
 IDIUse=1 WtCom= 1.00D+00 WtEn= 0.00D+00
 Coeff-Com: -0.159D-04 0.841D-05 0.228D-03 0.721D-03-0.966D-03-0.567D-02
 Coeff-Com: -0.230D-01-0.291D-01 0.142D+00 0.916D+00
 Coeff:     -0.159D-04 0.841D-05 0.228D-03 0.721D-03-0.966D-03-0.567D-02
 Coeff:     -0.230D-01-0.291D-01 0.142D+00 0.916D+00
 Gap=     0.446 Goal=   None    Shift=    0.000
 RMSDP=9.34D-08 MaxDP=3.74D-06 DE=-4.62D-10 OVMax= 2.98D-06

 Cycle  11  Pass 1  IDiag  1:
 E= -1199.82031625325     Delta-E=        0.000000000025 Rises=F Damp=F
 DIIS: error= 7.52D-08 at cycle  11 NSaved=  11.
 NSaved=11 IEnMin=10 EnMin= -1199.82031625327     IErMin=11 ErrMin= 7.52D-08
 ErrMax= 7.52D-08  0.00D+00 EMaxC= 1.00D-01 BMatC= 4.36D-12 BMatP= 2.42D-11
 IDIUse=1 WtCom= 1.00D+00 WtEn= 0.00D+00
 Coeff-Com:  0.270D-05-0.122D-03 0.989D-04 0.635D-03 0.884D-03 0.693D-03
 Coeff-Com: -0.146D-01-0.408D-01 0.539D-02 0.388D+00 0.660D+00
 Coeff:      0.270D-05-0.122D-03 0.989D-04 0.635D-03 0.884D-03 0.693D-03
 Coeff:     -0.146D-01-0.408D-01 0.539D-02 0.388D+00 0.660D+00
 Gap=     0.446 Goal=   None    Shift=    0.000
 RMSDP=2.63D-08 MaxDP=1.11D-06 DE= 2.46D-11 OVMax= 6.96D-07

 Cycle  12  Pass 1  IDiag  1:
 E= -1199.82031625322     Delta-E=        0.000000000031 Rises=F Damp=F
 DIIS: error= 2.21D-08 at cycle  12 NSaved=  12.
 NSaved=12 IEnMin=10 EnMin= -1199.82031625327     IErMin=12 ErrMin= 2.21D-08
 ErrMax= 2.21D-08  0.00D+00 EMaxC= 1.00D-01 BMatC= 3.01D-13 BMatP= 4.36D-12
 IDIUse=1 WtCom= 1.00D+00 WtEn= 0.00D+00
 Coeff-Com:  0.312D-05-0.390D-04-0.384D-05 0.910D-04 0.446D-03 0.105D-02
 Coeff-Com: -0.139D-02-0.829D-02-0.178D-01-0.552D-02 0.188D+00 0.844D+00
 Coeff:      0.312D-05-0.390D-04-0.384D-05 0.910D-04 0.446D-03 0.105D-02
 Coeff:     -0.139D-02-0.829D-02-0.178D-01-0.552D-02 0.188D+00 0.844D+00
 Gap=     0.446 Goal=   None    Shift=    0.000
 RMSDP=1.06D-08 MaxDP=3.93D-07 DE= 3.09D-11 OVMax= 2.75D-07

 Cycle  13  Pass 1  IDiag  1:
 E= -1199.82031625319     Delta-E=        0.000000000021 Rises=F Damp=F
 DIIS: error= 4.97D-09 at cycle  13 NSaved=  13.
 NSaved=13 IEnMin=10 EnMin= -1199.82031625327     IErMin=13 ErrMin= 4.97D-09
 ErrMax= 4.97D-09  0.00D+00 EMaxC= 1.00D-01 BMatC= 1.72D-14 BMatP= 3.01D-13
 IDIUse=1 WtCom= 1.00D+00 WtEn= 0.00D+00
 Coeff-Com:  0.211D-06 0.459D-05-0.922D-05-0.411D-04 0.545D-05 0.139D-03
 Coeff-Com:  0.104D-02 0.176D-02-0.360D-02-0.329D-01-0.220D-01 0.153D+00
 Coeff-Com:  0.902D+00
 Coeff:      0.211D-06 0.459D-05-0.922D-05-0.411D-04 0.545D-05 0.139D-03
 Coeff:      0.104D-02 0.176D-02-0.360D-02-0.329D-01-0.220D-01 0.153D+00
 Coeff:      0.902D+00
 Gap=     0.446 Goal=   None    Shift=    0.000
 RMSDP=3.18D-09 MaxDP=1.22D-07 DE= 2.09D-11 OVMax= 8.15D-08

 SCF Done:  E(RwB97XD) =  -1199.82031625     A.U. after   13 cycles
            NFock= 13  Conv=0.32D-08     -V/T= 2.0020
 KE= 1.197431572637D+03 PE=-4.682910350458D+03 EE= 1.367795776161D+03
 Leave Link  502 at Fri May 23 04:19:55 2025, MaxMem=  3758096384 cpu:              61.7 elap:              12.4
 (Enter /apps/easybuild-2022/easybuild/software/Compiler/NVHPC/22.11-CUDA-11.7.0/Gaussian/g16c01-CUDA-11.7.0/g16/l508.exe)
 QCSCF skips out because SCF is already converged.
 Leave Link  508 at Fri May 23 04:19:55 2025, MaxMem=  3758096384 cpu:               0.0 elap:               0.0
 (Enter /apps/easybuild-2022/easybuild/software/Compiler/NVHPC/22.11-CUDA-11.7.0/Gaussian/g16c01-CUDA-11.7.0/g16/l701.exe)
 ... and contract with generalized density number  0.
 Compute integral first derivatives.
 R6Disp: Adding Grimme-D2 dispersion energy 1st derivatives to the gradient.
 Leave Link  701 at Fri May 23 04:19:55 2025, MaxMem=  3758096384 cpu:               0.5 elap:               0.1
 (Enter /apps/easybuild-2022/easybuild/software/Compiler/NVHPC/22.11-CUDA-11.7.0/Gaussian/g16c01-CUDA-11.7.0/g16/l702.exe)
 L702 exits ... SP integral derivatives will be done elsewhere.
 Leave Link  702 at Fri May 23 04:19:55 2025, MaxMem=  3758096384 cpu:               0.1 elap:               0.0
 (Enter /apps/easybuild-2022/easybuild/software/Compiler/NVHPC/22.11-CUDA-11.7.0/Gaussian/g16c01-CUDA-11.7.0/g16/l703.exe)
 Integral derivatives from FoFJK, PRISM(SPDF).
 Compute integral first derivatives, UseDBF=F ICtDFT=           0.
 Calling FoFJK, ICntrl=      2127 FMM=F ISym2X=0 I1Cent= 0 IOpClX= 0 NMat=1 NMatS=1 NMatT=0.
 FoFJK:  IHMeth= 1 ICntrl=    2127 DoSepK=T KAlg= 0 I1Cent=           0 FoldK=F
 IRaf=         1 NMat=       1 IRICut=       1 DoRegI=T DoRafI=F ISym2E= 0 IDoP0=0 IntGTp=1.
 FoFCou: FMM=F IPFlag=           0 FMFlag=      100000 FMFlg1=         800
         NFxFlg=           0 DoJE=F BraDBF=F KetDBF=F FulRan=T
         wScrn=  0.000000 ICntrl=      2527 IOpCl=  0 I1Cent=           0 NGrid=           0
         NMat0=    1 NMatS0=      1 NMatT0=    0 NMatD0=    1 NMtDS0=    0 NMtDT0=    0
 Symmetry not used in FoFCou.
 Leave Link  703 at Fri May 23 04:20:00 2025, MaxMem=  3758096384 cpu:              34.6 elap:               5.1
 (Enter /apps/easybuild-2022/easybuild/software/Compiler/NVHPC/22.11-CUDA-11.7.0/Gaussian/g16c01-CUDA-11.7.0/g16/l716.exe)
 Dipole        = 2.10826176D-01 8.23593850D-01 1.22752997D+00
 -------------------------------------------------------------------
 Center     Atomic                   Forces (Hartrees/Bohr)
 Number     Number              X              Y              Z
 -------------------------------------------------------------------
      1        6           0.000021455    0.000159037   -0.000152005
      2        6           0.000185185    0.001390221   -0.000850390
      3        9          -0.000186260    0.000419318   -0.000088833
      4        9          -0.000181315   -0.002203757    0.001716050
      5       16           0.000071105    0.000297942    0.000397298
      6        8          -0.000292695    0.000047937   -0.000333551
      7        8           0.000139845   -0.000815727   -0.000171463
      8        8          -0.000245537    0.000859831   -0.000855940
      9        9           0.000070370    0.000018022   -0.000013555
     10        9           0.000077168   -0.000042896    0.000093936
     11        9          -0.000005293   -0.000029519    0.000007673
     12        1           0.000345973   -0.000100412    0.000250781
 -------------------------------------------------------------------
 Cartesian Forces:  Max     0.002203757 RMS     0.000617002
 Leave Link  716 at Fri May 23 04:20:00 2025, MaxMem=  3758096384 cpu:               0.1 elap:               0.0
 (Enter /apps/easybuild-2022/easybuild/software/Compiler/NVHPC/22.11-CUDA-11.7.0/Gaussian/g16c01-CUDA-11.7.0/g16/l103.exe)

 GradGradGradGradGradGradGradGradGradGradGradGradGradGradGradGradGradGrad
 Berny optimization.
 Using GEDIIS/GDIIS optimizer.
 FormGI is forming the generalized inverse of G from B-inverse, IUseBI=4.
 Internal  Forces:  Max     0.002520857 RMS     0.000477043
 Search for a local minimum.
 Step number   2 out of a maximum of   61
 All quantities printed in internal units (Hartrees-Bohrs-Radians)
 RMS Force = .47704D-03 SwitMx=.10000D-02 MixMth= 2
 Mixed Optimization -- En-DIIS/RFO-DIIS
 Update second derivatives using D2CorX and points    1    2
 DE= -2.66D-03 DEPred=-2.62D-03 R= 1.02D+00
 TightC=F SS=  1.41D+00  RLast= 2.66D-01 DXNew= 5.0454D-01 7.9802D-01
 Trust test= 1.02D+00 RLast= 2.66D-01 DXMaxT set to 5.05D-01
 ITU=  1  0
 Use linear search instead of GDIIS.
     Eigenvalues ---    0.00058   0.00079   0.00256   0.06419   0.07513
     Eigenvalues ---    0.09019   0.09452   0.10242   0.10454   0.11236
     Eigenvalues ---    0.13524   0.13997   0.14899   0.15926   0.18665
     Eigenvalues ---    0.19117   0.20340   0.21118   0.23024   0.27703
     Eigenvalues ---    0.35060   0.36066   0.39039   0.39289   0.41197
     Eigenvalues ---    0.52251   0.55516   0.56482   0.64505   0.68319
 RFO step:  Lambda=-6.88376701D-04 EMin= 5.84258707D-04
 Quartic linear search produced a step of  0.11198.
 Iteration  1 RMS(Cart)=  0.13155565 RMS(Int)=  0.00742764
 Iteration  2 RMS(Cart)=  0.00985295 RMS(Int)=  0.00006879
 Iteration  3 RMS(Cart)=  0.00007422 RMS(Int)=  0.00003742
 Iteration  4 RMS(Cart)=  0.00000001 RMS(Int)=  0.00003742
 ITry= 1 IFail=0 DXMaxC= 4.37D-01 DCOld= 1.00D+10 DXMaxT= 5.05D-01 DXLimC= 3.00D+00 Rises=F
 Variable       Old X    -DE/DX   Delta X   Delta X   Delta X     New X
                                 (Linear)    (Quad)   (Total)
    R1        3.58039   0.00008   0.00015   0.00244   0.00259   3.58298
    R2        2.49590   0.00004   0.00022  -0.00080  -0.00058   2.49532
    R3        2.50190   0.00006   0.00025  -0.00000   0.00025   2.50215
    R4        2.49114   0.00003   0.00017  -0.00032  -0.00015   2.49099
    R5        2.53166   0.00020  -0.00226   0.00636   0.00410   2.53576
    R6        2.54214   0.00252   0.00557  -0.00071   0.00486   2.54700
    R7        3.58159   0.00034  -0.00207  -0.01425  -0.01632   3.56527
    R8        2.51290   0.00073  -0.00013   0.00042   0.00029   2.51319
    R9        2.71894   0.00021  -0.00013   0.00037   0.00024   2.71918
   R10        2.72044   0.00054  -0.00246   0.00303   0.00057   2.72101
   R11        1.82283  -0.00000  -0.00065   0.00159   0.00094   1.82377
    A1        1.86365   0.00006  -0.00043   0.00148   0.00105   1.86470
    A2        1.91536   0.00016   0.00109   0.00088   0.00197   1.91733
    A3        1.93563  -0.00004   0.00017  -0.00271  -0.00254   1.93309
    A4        1.91583  -0.00008  -0.00017   0.00085   0.00068   1.91651
    A5        1.91489  -0.00001  -0.00023   0.00092   0.00068   1.91558
    A6        1.91779  -0.00008  -0.00043  -0.00131  -0.00174   1.91604
    A7        1.86896  -0.00024  -0.00307  -0.00051  -0.00365   1.86532
    A8        1.85767   0.00045   0.00009  -0.00464  -0.00458   1.85309
    A9        1.97607  -0.00018   0.00012   0.00271   0.00283   1.97890
   A10        1.88585  -0.00053  -0.00355   0.00210  -0.00149   1.88436
   A11        1.96960   0.00102   0.00523  -0.00144   0.00380   1.97340
   A12        1.90050  -0.00057   0.00076   0.00158   0.00234   1.90283
   A13        1.78387  -0.00017  -0.00497   0.00083  -0.00418   1.77970
   A14        1.86094   0.00009  -0.00016   0.00433   0.00402   1.86497
   A15        1.86977  -0.00028  -0.00040  -0.00057  -0.00087   1.86889
   A16        1.89533  -0.00003  -0.00327   0.00330  -0.00004   1.89529
   A17        1.86175   0.00048   0.00662  -0.00601   0.00061   1.86236
   A18        2.15746  -0.00012   0.00097  -0.00142  -0.00044   2.15702
   A19        1.92597   0.00011   0.00072  -0.00171  -0.00099   1.92498
    D1       -2.90968   0.00016   0.00448   0.03748   0.04196  -2.86773
    D2       -0.92182   0.00009  -0.00146   0.04307   0.04162  -0.88020
[...]
   D18       -3.00822   0.00000   0.00000  -0.00000  -0.00000  -3.00822
   D19        1.01986   0.00000   0.00000   0.00001   0.00001   1.01987
   D20       -1.10759  -0.00000   0.00000   0.00001   0.00001  -1.10758
   D21        3.07761   0.00000   0.00000   0.00001   0.00001   3.07762
         Item               Value     Threshold  Converged?
 Maximum Force            0.000000     0.000015     YES
 RMS     Force            0.000000     0.000010     YES
 Maximum Displacement     0.000011     0.000060     YES
 RMS     Displacement     0.000004     0.000040     YES
 Predicted change in Energy=-1.556911D-12
 Optimization completed.
    -- Stationary point found.
                           ----------------------------
                           !   Optimized Parameters   !
                           ! (Angstroms and Degrees)  !
 --------------------------                            --------------------------
 ! Name  Definition              Value          Derivative Info.                !
 --------------------------------------------------------------------------------
 ! R1    R(1,5)                  1.8958         -DE/DX =    0.0                 !
 ! R2    R(1,9)                  1.3207         -DE/DX =    0.0                 !
 ! R3    R(1,10)                 1.3232         -DE/DX =    0.0                 !
 ! R4    R(1,11)                 1.3189         -DE/DX =    0.0                 !
 ! R5    R(2,3)                  1.3408         -DE/DX =    0.0                 !
 ! R6    R(2,4)                  1.3474         -DE/DX =    0.0                 !
 ! R7    R(2,5)                  1.8909         -DE/DX =    0.0                 !
 ! R8    R(2,8)                  1.3306         -DE/DX =    0.0                 !
 ! R9    R(5,6)                  1.4392         -DE/DX =    0.0                 !
 ! R10   R(5,7)                  1.4398         -DE/DX =    0.0                 !
 ! R11   R(8,12)                 0.9647         -DE/DX =    0.0                 !
 ! A1    A(5,1,9)              106.6924         -DE/DX =    0.0                 !
 ! A2    A(5,1,10)             110.2135         -DE/DX =    0.0                 !
 ! A3    A(5,1,11)             110.6135         -DE/DX =    0.0                 !
 ! A4    A(9,1,10)             109.791          -DE/DX =    0.0                 !
 ! A5    A(9,1,11)             109.7562         -DE/DX =    0.0                 !
 ! A6    A(10,1,11)            109.7283         -DE/DX =    0.0                 !
 ! A7    A(3,2,4)              107.0129         -DE/DX =    0.0                 !
 ! A8    A(3,2,5)              106.1894         -DE/DX =    0.0                 !
 ! A9    A(3,2,8)              113.2255         -DE/DX =    0.0                 !
 ! A10   A(4,2,5)              108.1233         -DE/DX =    0.0                 !
 ! A11   A(4,2,8)              113.0268         -DE/DX =    0.0                 !
 ! A12   A(5,2,8)              108.9317         -DE/DX =    0.0                 !
 ! A13   A(1,5,2)              102.4868         -DE/DX =    0.0                 !
 ! A14   A(1,5,6)              106.8864         -DE/DX =    0.0                 !
 ! A15   A(1,5,7)              106.8064         -DE/DX =    0.0                 !
 ! A16   A(2,5,6)              108.3001         -DE/DX =    0.0                 !
 ! A17   A(2,5,7)              106.892          -DE/DX =    0.0                 !
 ! A18   A(6,5,7)              123.5413         -DE/DX =    0.0                 !
 ! A19   A(2,8,12)             110.389          -DE/DX =    0.0                 !
 ! D1    D(9,1,5,2)           -167.0582         -DE/DX =    0.0                 !
 ! D2    D(9,1,5,6)            -53.2725         -DE/DX =    0.0                 !
 ! D3    D(9,1,5,7)             80.7459         -DE/DX =    0.0                 !
 ! D4    D(10,1,5,2)           -47.9084         -DE/DX =    0.0                 !
 ! D5    D(10,1,5,6)            65.8774         -DE/DX =    0.0                 !
 ! D6    D(10,1,5,7)          -160.1043         -DE/DX =    0.0                 !
 ! D7    D(11,1,5,2)            73.6129         -DE/DX =    0.0                 !
 ! D8    D(11,1,5,6)          -172.6014         -DE/DX =    0.0                 !
 ! D9    D(11,1,5,7)           -38.583          -DE/DX =    0.0                 !
 ! D10   D(3,2,5,1)           -162.2349         -DE/DX =    0.0                 !
 ! D11   D(3,2,5,6)             85.022          -DE/DX =    0.0                 !
 ! D12   D(3,2,5,7)            -50.1026         -DE/DX =    0.0                 !
 ! D13   D(4,2,5,1)            -47.678          -DE/DX =    0.0                 !
 ! D14   D(4,2,5,6)           -160.4211         -DE/DX =    0.0                 !
 ! D15   D(4,2,5,7)             64.4543         -DE/DX =    0.0                 !
 ! D16   D(8,2,5,1)             75.5094         -DE/DX =    0.0                 !
 ! D17   D(8,2,5,6)            -37.2336         -DE/DX =    0.0                 !
 ! D18   D(8,2,5,7)           -172.3583         -DE/DX =    0.0                 !
 ! D19   D(3,2,8,12)            58.4337         -DE/DX =    0.0                 !
 ! D20   D(4,2,8,12)           -63.46           -DE/DX =    0.0                 !
 ! D21   D(5,2,8,12)           176.3343         -DE/DX =    0.0                 !
 --------------------------------------------------------------------------------
 GradGradGradGradGradGradGradGradGradGradGradGradGradGradGradGradGradGrad

 Leave Link  103 at Fri May 23 04:22:50 2025, MaxMem=  3758096384 cpu:               0.1 elap:               0.0
 (Enter /apps/easybuild-2022/easybuild/software/Compiler/NVHPC/22.11-CUDA-11.7.0/Gaussian/g16c01-CUDA-11.7.0/g16/l9999.exe)

 ----------------------------------------------------------------------

 Electric dipole moment (input orientation):
 (Debye = 10**-18 statcoulomb cm , SI units = C m)
                  (au)            (Debye)         (10**-30 SI)
   Tot        0.155055D+01      0.394110D+01      0.131461D+02
   x          0.321317D+00      0.816706D+00      0.272424D+01
   y          0.832063D+00      0.211489D+01      0.705452D+01
   z          0.126831D+01      0.322373D+01      0.107532D+02

 Dipole polarizability, Alpha (input orientation).
 (esu units = cm**3 , SI units = C**2 m**2 J**-1)
 Alpha(0;0):
               (au)            (10**-24 esu)      (10**-40 SI)
   iso        0.581973D+02      0.862395D+01      0.959544D+01
   aniso      0.600449D+01      0.889773D+00      0.990006D+00
   xx         0.577149D+02      0.855247D+01      0.951591D+01
   yx        -0.153895D+01     -0.228048D+00     -0.253738D+00
   yy         0.591602D+02      0.876663D+01      0.975419D+01
   zx        -0.142857D+01     -0.211693D+00     -0.235540D+00
   zy         0.262934D+01      0.389628D+00      0.433520D+00
   zz         0.577168D+02      0.855275D+01      0.951621D+01

 ----------------------------------------------------------------------

 Dipole orientation:
     6          7.14372525         -1.84784126         -2.03421141
     6          2.45435484         -0.11752474          0.44669782
     9          0.01891835          0.40608773         -0.01662473
     9          2.54465375         -2.49119094          1.36375896
    16          4.10057515         -0.08779977         -2.72461591
     8          4.78689821          2.47866255         -3.30646524
     8          2.63855059         -1.66726741         -4.38914268
     8          3.56016354          1.56262773          1.95567623
     9          8.65197339         -1.46460942         -3.98537115
     9          8.20602614         -0.95396338          0.04546777
     9          6.70652728         -4.28776465         -1.77376901
     1          2.68256217          1.65819876          3.55078612

 Electric dipole moment (dipole orientation):
 (Debye = 10**-18 statcoulomb cm , SI units = C m)
                  (au)            (Debye)         (10**-30 SI)
   Tot        0.155055D+01      0.394110D+01      0.131461D+02
   x          0.000000D+00      0.000000D+00      0.000000D+00
   y          0.000000D+00      0.000000D+00      0.000000D+00
   z          0.155055D+01      0.394110D+01      0.131461D+02

 Dipole polarizability, Alpha (dipole orientation).
 (esu units = cm**3 , SI units = C**2 m**2 J**-1)
 Alpha(0;0):
               (au)            (10**-24 esu)      (10**-40 SI)
   iso        0.581973D+02      0.862395D+01      0.959544D+01
   aniso      0.600449D+01      0.889773D+00      0.990006D+00
   xx         0.585490D+02      0.867607D+01      0.965343D+01
   yx        -0.986402D+00     -0.146170D+00     -0.162636D+00
   yy         0.564288D+02      0.836189D+01      0.930386D+01
   zx        -0.233812D+01     -0.346474D+00     -0.385504D+00
   zy         0.171725D+01      0.254470D+00      0.283136D+00
   zz         0.596141D+02      0.883389D+01      0.982903D+01

 ----------------------------------------------------------------------
 Unable to Open any file for archive entry.
 1\1\GINC-SPARTAN-BM194\Freq\RwB97XD\6-311++G(d,p)\C2H1F5O3S1\AKHALILOV
 \23-May-2025\0\\#P Geom=AllCheck Guess=TCheck SCRF=Check GenChk RwB97X
 D/6-311++G(d,p) Freq\\Gaussian input prepared by ASE\\0,1\C,3.52774079
 71,-1.631838779,-1.1391725969\C,1.320898481,-0.0049371233,-0.042416341
 7\F,-0.0051931425,0.1755202245,-0.1245874472\F,1.5449529407,-0.8045681
 48,1.0186867128\S,1.8227332339,-0.9455438507,-1.6041040863\O,2.0304604
 569,0.0100014931,-2.6600217706\O,0.9359319088,-2.0743199948,-1.7157564
 608\O,2.0033346003,1.1360389595,0.01237733\F,4.0806483271,-2.064055970
 2,-2.2579648811\F,4.2757318155,-0.6775644183,-0.6092982929\F,3.4093892
 46,-2.6303631947,-0.2856301938\H,1.721724829,1.6599727447,0.7719287196
 \\Version=ES64L-G16RevC.01\HF=-1199.8206105\RMSD=3.480e-09\RMSF=1.450e
 -06\ZeroPoint=0.0512181\Thermal=0.0620663\ETot=-1199.7585442\HTot=-119
 9.7576\GTot=-1199.8073937\Dipole=0.321317,0.832063,1.2683145\DipoleDer
 iv=1.7162191,-0.1423946,-0.0454352,-0.1066316,1.6075935,0.0328714,0.01
 01967,-0.0112223,1.5266892,1.532762,0.0197014,-0.0226485,-0.022804,1.5
 865591,0.0320308,-0.0875161,0.0366247,1.4552868,-1.0581261,0.1412612,0
 .0590283,0.1625927,-0.3661809,-0.0851186,0.0996125,-0.0680729,-0.35072
 32,-0.3056466,0.0401516,-0.0286523,0.0554723,-0.5476649,0.241935,0.013
 4535,0.2587926,-0.9059117,1.4633987,0.2583985,0.0569209,0.2674309,1.75
 8122,-0.1323976,0.0632403,-0.1182617,1.6538176,-0.5501966,-0.012008,0.
 0825005,0.0448938,-0.7507486,0.3434102,-0.011928,0.2260069,-0.9760488,
 -0.8217151,-0.2507081,-0.1295912,-0.3110951,-0.8958069,-0.1985667,-0.0
 343589,-0.0728868,-0.5716789,-0.5281716,-0.1807767,-0.0938085,-0.17580
 71,-1.1095544,-0.2090348,-0.1075405,-0.2498672,-0.5165395,-0.6171567,0
 .2409955,0.3089993,0.2241808,-0.3903491,-0.2186374,0.3009465,-0.226618
 7,-0.6979073,-0.7529377,-0.2173015,-0.2045316,-0.2483288,-0.5463523,-0
 .1783146,-0.2338314,-0.1699504,-0.375185,-0.3959007,0.1183745,-0.05069
 95,0.131544,-0.7342025,0.3525382,-0.0784784,0.3908522,-0.5418769,0.317
 4712,-0.0156937,0.0679179,-0.0214479,0.3885849,0.019284,0.0662038,0.00
 46035,0.3000775\Polar=57.7149481,-1.5389472,59.1601639,-1.4285743,2.62
 93425,57.7167993\PG=Unknown\NImag=0\\0.48836032,0.02177693,0.53844968,
 -0.01351746,-0.00075886,0.54036263,0.00720074,0.01169625,0.01954542,0.
 50041247,0.01116761,0.01011514,-0.00510693,0.05192515,0.56868225,0.013
 72568,-0.00258529,0.02908928,0.00017602,0.01900995,0.46723724,0.005298
 35,-0.00161778,0.00486737,-0.25781867,0.02937592,0.00087205,0.38070673
 ,-0.00488616,-0.00130457,-0.00377357,0.03223749,-0.08133992,-0.0028294
 2,-0.03776276,0.08235890,-0.00563011,0.00049132,-0.00744762,0.01268013
 ,-0.00896576,-0.07210534,0.02467229,-0.01185149,0.06768754,-0.00112399
 ,-0.00010726,-0.00499258,-0.06986873,0.00867638,-0.01217071,-0.0327344
 2,0.03731063,-0.05067417,0.08884769,-0.00134763,-0.00432423,0.00538252
 ,0.00964523,-0.12304043,0.07062799,0.02853812,-0.00575501,0.02519868,-
 0.02659211,0.17955108,-0.00348356,0.00140623,-0.00679709,-0.02150219,0
 .07927498,-0.20353599,-0.02974715,0.01861232,-0.00971717,0.04388332,-0
 .14714666,0.24883742,-0.12846249,0.04846181,-0.02024075,-0.04474583,0.
 01740975,0.01247177,-0.04119281,0.01834295,0.02320962,0.00382999,-0.00
 033518,-0.00847516,0.61199019,0.04110722,-0.04153203,-0.00307140,0.026
 45467,-0.05579095,-0.04797978,0.00307987,-0.00289496,-0.00520642,-0.00
 358287,-0.00355819,0.03394397,0.26709528,0.91863102,-0.03778580,0.0089
 1072,-0.04564164,0.02716045,-0.05603297,-0.11430057,-0.00941011,0.0036
 4489,0.00638712,0.00253337,0.00233503,-0.02280927,-0.03346915,-0.19790
 019,0.67953508,0.01169933,0.00412369,-0.00926984,0.00642070,-0.0096956
 5,-0.00124418,0.00278554,-0.00015289,-0.00098934,-0.00003533,0.0001200
 5,0.00544441,-0.09521384,-0.04736348,0.05683187,0.06393569,-0.02205945
 ,-0.00281586,0.01066375,-0.00102223,-0.00552744,-0.00574755,-0.0027440
 9,0.00280922,0.00084858,0.00068656,0.00251277,-0.00305798,-0.05247017,
 -0.33078991,0.27120452,0.06133157,0.32861675,0.02230495,0.00566329,-0.
 00875559,-0.00817455,0.03224782,0.00414829,0.00859225,-0.00558076,-0.0
 0205593,0.00122275,-0.00112808,-0.01277246,0.06165011,0.28182513,-0.39
 192845,-0.06177892,-0.30423351,0.39336240,0.01021743,-0.03371490,-0.00
 093513,-0.00630012,-0.00180334,0.00904350,0.01024618,0.00028927,-0.000
 80239,0.00100726,0.00095292,-0.00111274,-0.30066323,-0.27497827,-0.026
 96837,0.01386543,-0.00268027,-0.00804194,0.29018672,0.00586518,-0.0110
 4412,0.00525548,-0.02403829,-0.00518509,0.01857910,0.00417871,0.000591
 88,-0.00071915,0.00138072,0.00391080,-0.00964641,-0.26819540,-0.427710
 32,-0.03513974,-0.01951014,-0.00135963,-0.00802826,0.30309652,0.434354
 14,-0.00053635,-0.00534542,0.00180635,-0.01536866,-0.00663203,0.009899
 13,0.00122787,-0.00039299,-0.00075429,0.00060040,-0.00134240,0.0001289
 2,-0.03121757,-0.04374927,-0.08737995,0.01658594,0.02648104,0.01407849
 ,0.03488819,0.03917416,0.06189190,-0.00416372,-0.00404891,-0.00303187,
 -0.13541972,-0.07918291,0.01709484,-0.06207120,-0.05121074,-0.00863174
 ,0.01145146,-0.01252495,0.00802756,0.00217116,-0.00040556,0.00050867,0
 .00095288,0.00123301,0.00027992,0.00138165,0.00138177,0.00054220,0.252
 02324,-0.00534462,-0.00134655,-0.00238029,-0.11021609,-0.26487914,-0.0
 1930529,-0.02975315,0.00317238,0.00001010,-0.01893706,-0.05699524,0.03
 015914,-0.01551619,-0.02152700,0.00740843,0.00330645,0.00548197,-0.005
 62554,-0.00047835,-0.00768921,-0.00781319,0.08769551,0.50602042,-0.003
 96829,0.00087107,-0.00523554,-0.00528553,-0.05296672,-0.10704181,-0.00
 483136,-0.00107474,0.01504305,0.01459268,0.04876256,0.00165226,-0.0126
 0430,-0.01688024,0.00323717,0.00205384,-0.00065508,-0.00186297,-0.0013
 2457,-0.00851707,-0.00586769,-0.13666190,0.22164424,0.42272243,-0.1376
 5691,0.04580312,0.09763003,-0.00408515,-0.00341067,-0.01134999,-0.0040
 6219,0.00251635,0.00313195,0.00065775,-0.00020638,0.00154658,-0.008966
 65,0.01543141,0.04100229,0.00074166,0.00202112,-0.00684576,-0.00385291
 ,-0.00426131,-0.00429199,0.00095022,0.00281055,0.00200535,0.12755433,0
 .04174271,-0.10378356,-0.06617161,0.00079308,0.00015970,0.00538273,0.0
 0223980,-0.00096348,-0.00145887,-0.00026479,0.00056332,-0.00073038,0.0
 0630461,-0.00554198,-0.02069083,-0.00055251,0.00024326,0.00163660,0.00
 500851,0.00455765,0.00302577,0.00017685,-0.00106942,-0.00077758,-0.042
 47362,0.11598515,0.08745821,-0.06271961,-0.21736937,-0.00044838,0.0014
 6512,0.00124887,0.00226191,-0.00082655,-0.00057108,0.00049211,-0.00083
 662,0.00077219,0.00335813,-0.00428158,-0.02015347,-0.00232018,-0.00243
 335,0.00838902,0.00349288,0.00338256,0.00373092,0.00039244,-0.00118129
 ,-0.00004236,-0.12593905,0.09636133,0.33293351,-0.17411691,-0.09845024
 ,-0.06413570,-0.00145553,-0.00192975,-0.00413076,-0.00002065,0.0009084
 2,0.00111887,-0.00007416,0.00010884,0.00233805,-0.00641709,-0.03614936
 ,-0.01043858,-0.00090625,0.00895694,-0.00373628,-0.01408134,0.00060875
 ,-0.00195829,0.00004129,0.00482505,0.00347497,0.02233322,0.00317496,-0
 .00111866,0.17486091,-0.08973402,-0.16838419,-0.05738361,-0.00490871,-
 0.00482988,-0.00229794,0.00048509,0.00120582,0.00085616,0.00052734,0.0
 0116638,0.00052394,-0.00138234,-0.00814371,-0.00079640,0.00041307,0.00
 490638,-0.00167293,-0.00174379,0.00220078,-0.00028714,0.00431346,0.000
 96722,0.00042411,-0.01022383,-0.02558262,-0.04529869,0.14501728,0.2611
 6480,-0.05900506,-0.05949411,-0.11038751,-0.00415546,-0.00104808,-0.00
 543892,0.00004973,0.00083326,0.00130091,0.00157628,-0.00038564,0.00176
 299,-0.00483763,-0.01374756,-0.00026893,0.00013244,0.00271869,0.000003
 07,-0.00564794,-0.00019434,-0.00032378,0.00236230,0.00107985,0.0018546
 9,-0.01791930,-0.04956206,-0.04138990,0.07307258,0.10040260,0.13445734
 ,-0.07757243,0.00620295,-0.00579920,-0.00148531,-0.00275101,-0.0019046
 5,-0.00075534,0.00078711,0.00074796,-0.00088402,0.00179045,0.00232808,
 0.00746007,0.01243718,-0.01143134,-0.00422915,0.00602841,-0.00543960,-
 0.00162666,0.00024533,0.00030170,0.00083680,0.00112804,0.00068752,0.00
 619262,-0.01599052,0.03255435,0.00042633,-0.04281594,0.01455115,0.0717
 3088,0.00172470,-0.21341565,0.11836270,0.00057079,-0.00193529,0.005759
 99,0.00172502,-0.00056306,-0.00157511,0.00061482,0.00142763,-0.0046423
 2,-0.01614130,-0.01876995,0.01595781,0.00750938,-0.00496182,0.00440156
 ,0.00571475,0.00778194,-0.00261636,0.00049894,-0.00000362,-0.00113137,
 -0.00781249,0.01522200,0.01593557,-0.02744816,-0.06514010,0.01895396,0
 .03299078,0.28027607,0.00012456,0.11406788,-0.16954939,-0.00303188,0.0
 0267021,-0.00916777,-0.00141895,0.00071694,0.00220716,0.00223747,-0.00
 392794,0.00412681,0.00894742,0.01816070,-0.00711561,-0.00500124,0.0038
 4990,-0.00305770,-0.00226327,-0.00448983,0.00246519,0.00015657,0.00004
 409,0.00171387,0.02107344,0.03294237,-0.06755823,0.00580874,0.00535397
 ,0.01838942,-0.02650901,-0.16959162,0.22769947,0.00032028,-0.00012564,
 -0.00012030,0.00714513,-0.01978149,-0.02258358,-0.00038152,0.00162033,
 0.00116692,-0.00107351,-0.00014937,0.00075280,0.00021056,-0.00312609,0
 .00146670,-0.00001665,0.00071859,-0.00003294,-0.00038040,-0.00075183,-
 0.00077346,-0.06815405,0.08047985,0.14186158,0.00019401,-0.00015908,-0
 .00018376,-0.00058983,0.00005239,-0.00017908,-0.00009381,0.00005278,-0
 .00012385,0.06281979,-0.00001246,-0.00061407,-0.00101819,0.00686267,-0
 .03642895,-0.03861449,0.00225524,0.00268280,0.00237196,0.00028764,0.00
 454112,0.00130316,-0.00357381,-0.00237201,0.00109872,0.00047046,0.0008
 8432,0.00049467,0.00033695,-0.00040880,-0.00050217,0.05207351,-0.16213
 182,-0.18969918,-0.00019425,0.00020997,0.00043311,0.00037728,0.0004691
 1,0.00044343,-0.00005280,0.00008186,0.00020334,-0.05883043,0.19308646,
 0.00031324,-0.00050722,-0.00007452,-0.00159537,-0.00391559,-0.00003241
 ,0.00286411,0.00252211,0.00002566,0.00069908,0.00246056,-0.00164861,0.
 00120751,-0.00111336,0.00043853,-0.00044481,0.00036099,0.00045182,-0.0
 0032822,0.00034349,0.00032481,0.11896100,-0.22404025,-0.32617310,-0.00
 004357,0.00004253,0.00000991,-0.00029495,0.00017593,0.00004062,-0.0000
 8697,0.00018518,-0.00015321,-0.12125105,0.22348563,0.32679052\\0.00000
 045,0.00000002,0.00000120,-0.00000039,0.00000041,-0.00000063,-0.000000
 19,-0.00000035,-0.00000060,0.00000047,0.00000266,0.00000021,-0.0000000
 9,-0.00000150,0.00000055,-0.00000086,-0.00000302,-0.00000102,0.0000007
 0,-0.00000214,0.00000241,-0.00000072,0.00000063,-0.00000268,0.00000041
 ,-0.00000127,0.00000167,0.00000001,0.00000127,-0.00000046,0.00000120,0
 .00000132,0.00000270,-0.00000100,0.00000196,-0.00000335\\\@
 The archive entry for this job was punched.


 HE THAT WALD REACHE THE SWEITE ROSE
 SULD NOW AND THEN BE SCRATCHED WT THE SCHARPE BREERES.
 -- PROVERBS AND REASONS OF THE YEAR 1585
           AS REPRINTED IN PAISLEY MAGAZINE 1828.
 Job cpu time:       0 days  0 hours  9 minutes 15.0 seconds.
 Elapsed time:       0 days  0 hours  1 minutes 11.8 seconds.
 File lengths (MBytes):  RWF=     99 Int=      0 D2E=      0 Chk=      6 Scr=      1
 Normal termination of Gaussian 16 at Fri May 23 04:22:50 2025.
done
