 Entering Gaussian System, Link 0=g16
 Initial command:
 /apps/easybuild-2022/easybuild/software/Compiler/NVHPC/22.11-CUDA-11.7.0/Gaussian/g16c01-CUDA-11.7.0/g16/l1.exe "/tmp/Gau-245728.inp" -scrdir="/tmp/"
 Entering Link 1 = /apps/easybuild-2022/easybuild/software/Compiler/NVHPC/22.11-CUDA-11.7.0/Gaussian/g16c01-CUDA-11.7.0/g16/l1.exe PID=    245729.
  
 Copyright (c) 1988-2019, Gaussian, Inc.  All Rights Reserved.
  
 This is part of the Gaussian(R) 16 program.  It is based on
 the Gaussian(R) 09 system (copyright 2009, Gaussian, Inc.),
 the Gaussian(R) 03 system (copyright 2003, Gaussian, Inc.),
 the Gaussian(R) 98 system (copyright 1998, Gaussian, Inc.),
 the Gaussian(R) 94 system (copyright 1995, Gaussian, Inc.),
 the Gaussian 92(TM) system (copyright 1992, Gaussian, Inc.),
 the Gaussian 90(TM) system (copyright 1990, Gaussian, Inc.),
 the Gaussian 88(TM) system (copyright 1988, Gaussian, Inc.),
 the Gaussian 86(TM) system (copyright 1986, Carnegie Mellon
 University), and the Gaussian 82(TM) system (copyright 1983,
 Carnegie Mellon University). Gaussian is a federally registered
 trademark of Gaussian, Inc.
  
 This software contains proprietary and confidential information,
 including trade secrets, belonging to Gaussian, Inc.
  
 This software is provided under written license and may be
 used, copied, transmitted, or stored only in accord with that
 written license.
  
 The following legend is applicable only to US Government
 contracts under FAR:
  
                    RESTRICTED RIGHTS LEGEND
  
 Use, reproduction and disclosure by the US Government is
 subject to restrictions as set forth in subparagraphs (a)
 and (c) of the Commercial Computer Software - Restricted
 Rights clause in FAR 52.227-19.
  
 Gaussian, Inc.
 340 Quinnipiac St., Bldg. 40, Wallingford CT 06492
  
  
 ---------------------------------------------------------------
 Warning -- This program may not be used in any manner that
 competes with the business of Gaussian, Inc. or will provide
 assistance to any competitor of Gaussian, Inc.  The licensee
 of this program is prohibited from giving any competitor of
 Gaussian, Inc. access to this program.  By using this program,
 the user acknowledges that Gaussian, Inc. is engaged in the
 business of creating and licensing software in the field of
 computational chemistry and represents and warrants to the
 licensee that it is not a competitor of Gaussian, Inc. and that
 it will not use this program in any manner prohibited above.
 ---------------------------------------------------------------
  

 Cite this work as:
 Gaussian 16, Revision C.01,
 M. J. Frisch, G. W. Trucks, H. B. Schlegel, G. E. Scuseria, 
 M. A. Robb, J. R. Cheeseman, G. Scalmani, V. Barone, 
 G. A. Petersson, H. Nakatsuji, X. Li, M. Caricato, A. V. Marenich, 
 J. Bloino, B. G. Janesko, R. Gomperts, B. Mennucci, H. P. Hratchian, 
 J. V. Ortiz, A. F. Izmaylov, J. L. Sonnenberg, D. Williams-Young, 
 F. Ding, F. Lipparini, F. Egidi, J. Goings, B. Peng, A. Petrone, 
 T. Henderson, D. Ranasinghe, V. G. Zakrzewski, J. Gao, N. Rega, 
 G. Zheng, W. Liang, M. Hada, M. Ehara, K. Toyota, R. Fukuda, 
 J. Hasegawa, M. Ishida, T. Nakajima, Y. Honda, O. Kitao, H. Nakai, 
 T. Vreven, K. Throssell, J. A. Montgomery, Jr., J. E. Peralta, 
 F. Ogliaro, M. J. Bearpark, J. J. Heyd, E. N. Brothers, K. N. Kudin, 
 V. N. Staroverov, T. A. Keith, R. Kobayashi, J. Normand, 
 K. Raghavachari, A. P. Rendell, J. C. Burant, S. S. Iyengar, 
 J. Tomasi, M. Cossi, J. M. Millam, M. Klene, C. Adamo, R. Cammi, 
 J. W. Ochterski, R. L. Martin, K. Morokuma, O. Farkas, 
 J. B. Foresman, and D. J. Fox, Gaussian, Inc., Wallingford CT, 2019.
 
 ******************************************
 Gaussian 16:  ES64L-G16RevC.01  3-Jul-2019
                23-May-2025 
 ******************************************
 %mem=28GB
 %nprocshared=8
 Will use up to    8 processors via shared memory.
 ----------------------------------------------------------------------
 #P wb97xd/6-311++G(d,p) Symm(None) scf(xqc) pop(None) opt(NoFreeze,TS,
 CalcAll,NoEigentest,MaxCycle=999)
 ----------------------------------------------------------------------
 1/5=1,6=999,10=4,11=1,18=20,26=3,29=2000,38=1/1,3;
 2/9=110,12=2,15=3,17=6,18=5,40=1/2;
 3/5=4,6=6,7=1111,11=2,25=1,30=1,71=2,74=-58,140=1/1,2,3;
 4//1;
 5/5=2,8=3,13=1,38=5/2,8;
 8/6=4,10=90,11=11/1;
 11/6=1,8=1,9=11,15=111,16=1,31=1/1,2,10;
 10/6=1,31=1/2;
 7/10=1,25=1,30=1/1,2,3,16;
 1/5=1,6=999,10=4,11=1,18=20,26=3/3(3);
 2/9=110,15=3/2;
 7/8=1,9=1,25=1,30=1,44=-1/16;
 99//99;
 2/9=110,15=3/2;
 3/5=4,6=6,7=1111,11=2,25=1,30=1,71=2,74=-58,140=1/1,2,3;
 4/5=5,16=3,69=1/1;
 5/5=2,8=3,13=1,38=5/2,8;
 8/6=4,10=90,11=11/1;
 11/6=1,8=1,9=11,15=111,16=1,31=1/1,2,10;
 10/6=1,31=1/2;
 7/10=1,25=1,30=1/1,2,3,16;
 1/5=1,6=999,10=4,11=1,18=20,26=3/3(-8);
 2/9=110,15=3/2;
 7/8=1,9=1,25=1,30=1,44=-1/16;
 99//99;
 Leave Link    1 at Fri May 23 05:00:37 2025, MaxMem=  3758096384 cpu:               0.1 elap:               0.0
 (Enter /apps/easybuild-2022/easybuild/software/Compiler/NVHPC/22.11-CUDA-11.7.0/Gaussian/g16c01-CUDA-11.7.0/g16/l101.exe)
 ------------------------------
 Gaussian input prepared by ASE
 ------------------------------
 Symbolic Z-matrix:
 Charge =  0 Multiplicity = 1
 C                    -0.31217   1.29778   0.47114 
 C                     0.        0.        0. 
 F                    -0.31279  -1.03436   0.76823 
 F                    -0.39966  -0.31927  -1.21999 
 S                     2.30194   0.        0. 
 O                     2.26107  -0.58118   1.31624 
 O                     2.2395   -0.51415  -1.34228 
 O                     3.70468   0.78654   0. 
 F                     1.5841    1.82151   0.28531 
 F                    -0.64987   2.28644  -0.26569 
 F                    -0.33845   1.6414    1.70009 
 H                     3.88665   1.48115  -0.6464 
 
 Add virtual bond connecting atoms F9         and C1         Dist= 3.73D+00.
 Add virtual bond connecting atoms F9         and S5         Dist= 3.74D+00.
 ITRead=  0  0  0  0  0  0  0  0  0  0  0  0
 MicOpt= -1 -1 -1 -1 -1 -1 -1 -1 -1 -1 -1 -1
 NAtoms=     12 NQM=       12 NQMF=       0 NMMI=      0 NMMIF=      0
                NMic=       0 NMicF=      0.
                    Isotopes and Nuclear Properties:
 (Nuclear quadrupole moments (NQMom) in fm**2, nuclear magnetic moments (NMagM)
  in nuclear magnetons)

  Atom         1           2           3           4           5           6           7           8           9          10
 IAtWgt=          12          12          19          19          32          16          16          16          19          19
 AtmWgt=  12.0000000  12.0000000  18.9984032  18.9984032  31.9720718  15.9949146  15.9949146  15.9949146  18.9984032  18.9984032
 NucSpn=           0           0           1           1           0           0           0           0           1           1
 AtZEff=  -0.0000000  -0.0000000  -0.0000000  -0.0000000  -0.0000000  -0.0000000  -0.0000000  -0.0000000  -0.0000000  -0.0000000
 NQMom=    0.0000000   0.0000000   0.0000000   0.0000000   0.0000000   0.0000000   0.0000000   0.0000000   0.0000000   0.0000000
 NMagM=    0.0000000   0.0000000   2.6288670   2.6288670   0.0000000   0.0000000   0.0000000   0.0000000   2.6288670   2.6288670
 AtZNuc=   6.0000000   6.0000000   9.0000000   9.0000000  16.0000000   8.0000000   8.0000000   8.0000000   9.0000000   9.0000000

  Atom        11          12
 IAtWgt=          19           1
 AtmWgt=  18.9984032   1.0078250
 NucSpn=           1           1
 AtZEff=  -0.0000000  -0.0000000
 NQMom=    0.0000000   0.0000000
 NMagM=    2.6288670   2.7928460
 AtZNuc=   9.0000000   1.0000000
 Leave Link  101 at Fri May 23 05:00:37 2025, MaxMem=  3758096384 cpu:               0.3 elap:               0.2
 (Enter /apps/easybuild-2022/easybuild/software/Compiler/NVHPC/22.11-CUDA-11.7.0/Gaussian/g16c01-CUDA-11.7.0/g16/l103.exe)

 GradGradGradGradGradGradGradGradGradGradGradGradGradGradGradGradGradGrad
 Berny optimization.
 Initialization pass.
                           ----------------------------
                           !    Initial Parameters    !
                           ! (Angstroms and Degrees)  !
 --------------------------                            --------------------------
 ! Name  Definition              Value          Derivative Info.                !
 --------------------------------------------------------------------------------
 ! R1    R(1,2)                  1.4155         calculate D2E/DX2 analytically  !
 ! R2    R(1,9)                  1.976          calculate D2E/DX2 analytically  !
 ! R3    R(1,10)                 1.2784         calculate D2E/DX2 analytically  !
 ! R4    R(1,11)                 1.2763         calculate D2E/DX2 analytically  !
 ! R5    R(2,3)                  1.3259         calculate D2E/DX2 analytically  !
 ! R6    R(2,4)                  1.3229         calculate D2E/DX2 analytically  !
 ! R7    R(5,6)                  1.4394         calculate D2E/DX2 analytically  !
 ! R8    R(5,7)                  1.4387         calculate D2E/DX2 analytically  !
 ! R9    R(5,8)                  1.6082         calculate D2E/DX2 analytically  !
 ! R10   R(5,9)                  1.9785         calculate D2E/DX2 analytically  !
 ! R11   R(8,12)                 0.9661         calculate D2E/DX2 analytically  !
 ! A1    A(2,1,9)               90.0037         calculate D2E/DX2 analytically  !
 ! A2    A(2,1,10)             125.13           calculate D2E/DX2 analytically  !
 ! A3    A(2,1,11)             124.8793         calculate D2E/DX2 analytically  !
 ! A4    A(9,1,10)              89.6751         calculate D2E/DX2 analytically  !
 ! A5    A(9,1,11)              92.233          calculate D2E/DX2 analytically  !
 ! A6    A(10,1,11)            109.9569         calculate D2E/DX2 analytically  !
 ! A7    A(1,2,3)              118.0586         calculate D2E/DX2 analytically  !
 ! A8    A(1,2,4)              117.4903         calculate D2E/DX2 analytically  !
 ! A9    A(3,2,4)              105.9496         calculate D2E/DX2 analytically  !
 ! A10   A(6,5,7)              135.0399         calculate D2E/DX2 analytically  !
 ! A11   A(6,5,8)              102.8405         calculate D2E/DX2 analytically  !
 ! A12   A(6,5,9)              103.2706         calculate D2E/DX2 analytically  !
 ! A13   A(7,5,8)              102.2769         calculate D2E/DX2 analytically  !
 ! A14   A(7,5,9)              116.6018         calculate D2E/DX2 analytically  !
 ! A15   A(8,5,9)               82.3106         calculate D2E/DX2 analytically  !
 ! A16   A(5,8,12)             121.0585         calculate D2E/DX2 analytically  !
 ! A17   A(1,9,5)               96.7611         calculate D2E/DX2 analytically  !
 ! D1    D(9,1,2,3)            123.5435         calculate D2E/DX2 analytically  !
 ! D2    D(9,1,2,4)           -107.5256         calculate D2E/DX2 analytically  !
 ! D3    D(10,1,2,3)          -146.8512         calculate D2E/DX2 analytically  !
 ! D4    D(10,1,2,4)           -17.9203         calculate D2E/DX2 analytically  !
 ! D5    D(11,1,2,3)            30.8186         calculate D2E/DX2 analytically  !
 ! D6    D(11,1,2,4)           159.7496         calculate D2E/DX2 analytically  !
 ! D7    D(2,1,9,5)            -11.7928         calculate D2E/DX2 analytically  !
 ! D8    D(10,1,9,5)          -136.9234         calculate D2E/DX2 analytically  !
 ! D9    D(11,1,9,5)           113.117          calculate D2E/DX2 analytically  !
 ! D10   D(6,5,8,12)          -161.6559         calculate D2E/DX2 analytically  !
 ! D11   D(7,5,8,12)            55.9398         calculate D2E/DX2 analytically  !
 ! D12   D(9,5,8,12)           -59.7211         calculate D2E/DX2 analytically  !
 ! D13   D(6,5,9,1)            -75.1764         calculate D2E/DX2 analytically  !
 ! D14   D(7,5,9,1)             83.4461         calculate D2E/DX2 analytically  !
 ! D15   D(8,5,9,1)           -176.6293         calculate D2E/DX2 analytically  !
 --------------------------------------------------------------------------------
 Trust Radius=3.00D-01 FncErr=1.00D-07 GrdErr=1.00D-06 EigMax=2.50D+02 EigMin=1.00D-04
 Number of steps in this run=    100 maximum allowed number of steps=    100.
 Search for a saddle point of order  1.
 GradGradGradGradGradGradGradGradGradGradGradGradGradGradGradGradGradGrad

 Leave Link  103 at Fri May 23 05:00:37 2025, MaxMem=  3758096384 cpu:               0.1 elap:               0.0
 (Enter /apps/easybuild-2022/easybuild/software/Compiler/NVHPC/22.11-CUDA-11.7.0/Gaussian/g16c01-CUDA-11.7.0/g16/l202.exe)
                          Input orientation:                          
 ---------------------------------------------------------------------
 Center     Atomic      Atomic             Coordinates (Angstroms)
 Number     Number       Type             X           Y           Z
 ---------------------------------------------------------------------
      1          6           0       -0.312166    1.297784    0.471143
      2          6           0        0.000000    0.000000    0.000000
      3          9           0       -0.312794   -1.034360    0.768229
      4          9           0       -0.399664   -0.319271   -1.219986
      5         16           0        2.301942    0.000000    0.000000
      6          8           0        2.261071   -0.581179    1.316241
      7          8           0        2.239497   -0.514147   -1.342281
      8          8           0        3.704681    0.786545    0.000000
      9          9           0        1.584096    1.821508    0.285312
     10          9           0       -0.649875    2.286443   -0.265692
     11          9           0       -0.338455    1.641398    1.700087
     12          1           0        3.886653    1.481147   -0.646396
 ---------------------------------------------------------------------
                    Distance matrix (angstroms):
                    1          2          3          4          5
     1  C    0.000000
     2  C    1.415510   0.000000
     3  F    2.350991   1.325865   0.000000
     4  F    2.341462   1.322888   2.114687   0.000000
     5  S    2.956312   2.301942   2.914948   2.981439   0.000000
     6  O    3.296398   2.680056   2.670294   3.685181   1.439420
     7  O    3.616986   2.661092   3.352471   2.649171   1.438738
     8  O    4.076567   3.787257   4.477273   4.422312   1.608207
     9  F    1.976013   2.430772   3.462280   3.283925   1.978534
    10  F    1.278444   2.391809   3.494331   2.786221   3.743212
    11  F    1.276348   2.387265   2.833496   3.517783   3.543470
    12  H    4.348861   4.209239   5.095517   4.684338   2.263389
                    6          7          8          9         10
     6  O    0.000000
     7  O    2.659454   0.000000
     8  O    2.384778   2.374928   0.000000
     9  F    2.700743   2.921283   2.376853   0.000000
    10  F    4.381709   4.165432   4.613290   2.347423   0.000000
    11  F    3.441616   4.533014   4.468559   2.393790   2.092212
    12  H    3.278360   2.679287   0.966133   2.507129   4.623151
                   11         12
    11  F    0.000000
    12  H    4.835618   0.000000
 Symmetry turned off by external request.
 Stoichiometry    C2HF5O3S
 Rotational constants (GHZ):           1.4015769           0.8594048           0.7545135
 Leave Link  202 at Fri May 23 05:00:38 2025, MaxMem=  3758096384 cpu:               0.1 elap:               0.0
 (Enter /apps/easybuild-2022/easybuild/software/Compiler/NVHPC/22.11-CUDA-11.7.0/Gaussian/g16c01-CUDA-11.7.0/g16/l301.exe)
 Standard basis: 6-311++G(d,p) (5D, 7F)
 Ernie: Thresh=  0.10000D-02 Tol=  0.10000D-05 Strict=F.
   257 basis functions,   419 primitive gaussians,   268 cartesian basis functions
    49 alpha electrons       49 beta electrons
       nuclear repulsion energy       911.7386714847 Hartrees.
 IExCor= 4639 DFT=T Ex+Corr=wB97XD ExCW=0 ScaHFX=  1.000000
 ScaDFX=  1.000000  1.000000  1.000000  1.000000 ScalE2=  1.000000  1.000000
 IRadAn=      5 IRanWt=     -1 IRanGd=            0 ICorTp=0 IEmpDi=121
 HFx  wShort=  0.000000 wLong=  0.200000 cFull=  0.222036 cShort=  0.000000 cLong=  0.777964
 DFx  wShort=  0.000000 wLong=  0.200000 cFull=  0.000000 cShort=  0.000000 cLong=  1.000000
 NAtoms=   12 NActive=   12 NUniq=   12 SFac= 1.00D+00 NAtFMM=   60 NAOKFM=F Big=F
 Integral buffers will be    131072 words long.
 Raffenetti 2 integral format.
 Two-electron integral symmetry is turned off.
 R6Disp:  Grimme-D2 Dispersion energy=       -0.0053404433 Hartrees.
 Nuclear repulsion after empirical dispersion term =      911.7333310414 Hartrees.
 Leave Link  301 at Fri May 23 05:00:38 2025, MaxMem=  3758096384 cpu:               0.1 elap:               0.0
 (Enter /apps/easybuild-2022/easybuild/software/Compiler/NVHPC/22.11-CUDA-11.7.0/Gaussian/g16c01-CUDA-11.7.0/g16/l302.exe)
 NPDir=0 NMtPBC=     1 NCelOv=     1 NCel=       1 NClECP=     1 NCelD=      1
         NCelK=      1 NCelE2=     1 NClLst=     1 CellRange=     0.0.
 One-electron integrals computed using PRISM.
 NBasis=   257 RedAO= T EigKep=  4.30D-05  NBF=   257
 NBsUse=   257 1.00D-06 EigRej= -1.00D+00 NBFU=   257
 Precomputing XC quadrature grid using
 IXCGrd= 4 IRadAn=           5 IRanWt=          -1 IRanGd=           0 AccXCQ= 0.00D+00.
 Generated NRdTot=       0 NPtTot=           0 NUsed=           0 NTot=          32
 NSgBfM=   268   268   268   268   268 MxSgAt=    12 MxSgA2=    12.
 Leave Link  302 at Fri May 23 05:00:38 2025, MaxMem=  3758096384 cpu:               0.5 elap:               0.1
 (Enter /apps/easybuild-2022/easybuild/software/Compiler/NVHPC/22.11-CUDA-11.7.0/Gaussian/g16c01-CUDA-11.7.0/g16/l303.exe)
 DipDrv:  MaxL=1.
 Leave Link  303 at Fri May 23 05:00:38 2025, MaxMem=  3758096384 cpu:               0.2 elap:               0.1
 (Enter /apps/easybuild-2022/easybuild/software/Compiler/NVHPC/22.11-CUDA-11.7.0/Gaussian/g16c01-CUDA-11.7.0/g16/l401.exe)
 ExpMin= 3.60D-02 ExpMax= 9.34D+04 ExpMxC= 3.17D+03 IAcc=3 IRadAn=         5 AccDes= 0.00D+00
 Harris functional with IExCor= 4639 and IRadAn=       5 diagonalized for initial guess.
 HarFok:  IExCor= 4639 AccDes= 0.00D+00 IRadAn=         5 IDoV= 1 UseB2=F ITyADJ=14
 ICtDFT=  3500011 ScaDFX=  1.000000  1.000000  1.000000  1.000000
 FoFCou: FMM=F IPFlag=           0 FMFlag=      100000 FMFlg1=           0
         NFxFlg=           0 DoJE=T BraDBF=F KetDBF=T FulRan=T
         wScrn=  0.000000 ICntrl=       500 IOpCl=  0 I1Cent=   200000004 NGrid=           0
         NMat0=    1 NMatS0=      1 NMatT0=    0 NMatD0=    1 NMtDS0=    0 NMtDT0=    0
 Symmetry not used in FoFCou.
 Harris En= -1167.00213167849    
 JPrj=0 DoOrth=F DoCkMO=F.
 Leave Link  401 at Fri May 23 05:00:38 2025, MaxMem=  3758096384 cpu:               2.2 elap:               0.3
 (Enter /apps/easybuild-2022/easybuild/software/Compiler/NVHPC/22.11-CUDA-11.7.0/Gaussian/g16c01-CUDA-11.7.0/g16/l502.exe)
 Keep R1 ints in memory in canonical form, NReq=1117474609.
 FoFCou: FMM=F IPFlag=           0 FMFlag=           0 FMFlg1=           0
         NFxFlg=           0 DoJE=F BraDBF=F KetDBF=F FulRan=T
         wScrn=  0.000000 ICntrl=       600 IOpCl=  0 I1Cent=           0 NGrid=           0
         NMat0=    1 NMatS0=  33153 NMatT0=    0 NMatD0=    1 NMtDS0=    0 NMtDT0=    0
 Symmetry not used in FoFCou.
 Two-electron integral symmetry not used.
 Closed shell SCF:
 Using DIIS extrapolation, IDIIS=  1040.
 NGot=  3758096384 LenX=  2658793876 LenY=  2658721611
 Requested convergence on RMS density matrix=1.00D-08 within  32 cycles.
 Requested convergence on MAX density matrix=1.00D-06.
 Requested convergence on             energy=1.00D-06.
 No special actions if energy rises.

 Cycle   1  Pass 1  IDiag  1:
 E= -1198.96212711664    
 DIIS: error= 1.11D-01 at cycle   1 NSaved=   1.
 NSaved= 1 IEnMin= 1 EnMin= -1198.96212711664     IErMin= 1 ErrMin= 1.11D-01
 ErrMax= 1.11D-01  0.00D+00 EMaxC= 1.00D-01 BMatC= 3.37D+00 BMatP= 3.37D+00
 IDIUse=3 WtCom= 0.00D+00 WtEn= 1.00D+00
 Coeff-Com:  0.100D+01
 Coeff-En:   0.100D+01
 Coeff:      0.100D+01
 Gap=     0.510 Goal=   None    Shift=    0.000
 GapD=    0.510 DampG=2.000 DampE=0.250 DampFc=0.5000 IDamp=-1.
 Damping current iteration by 5.00D-01
 RMSDP=8.98D-03 MaxDP=5.89D-01              OVMax= 2.00D-01

 Cycle   2  Pass 1  IDiag  1:
 E= -1199.31119482172     Delta-E=       -0.349067705084 Rises=F Damp=T
 DIIS: error= 4.76D-02 at cycle   2 NSaved=   2.
 NSaved= 2 IEnMin= 2 EnMin= -1199.31119482172     IErMin= 2 ErrMin= 4.76D-02
 ErrMax= 4.76D-02  0.00D+00 EMaxC= 1.00D-01 BMatC= 4.83D-01 BMatP= 3.37D+00
 IDIUse=3 WtCom= 5.24D-01 WtEn= 4.76D-01
 Coeff-Com: -0.365D+00 0.137D+01
 Coeff-En:   0.000D+00 0.100D+01
 Coeff:     -0.192D+00 0.119D+01
 Gap=     0.344 Goal=   None    Shift=    0.000
 RMSDP=4.54D-03 MaxDP=4.03D-01 DE=-3.49D-01 OVMax= 1.17D-01

 Cycle   3  Pass 1  IDiag  1:
 E= -1199.59214766205     Delta-E=       -0.280952840325 Rises=F Damp=F
 DIIS: error= 1.50D-02 at cycle   3 NSaved=   3.
 NSaved= 3 IEnMin= 3 EnMin= -1199.59214766205     IErMin= 3 ErrMin= 1.50D-02
 ErrMax= 1.50D-02  0.00D+00 EMaxC= 1.00D-01 BMatC= 1.06D-01 BMatP= 4.83D-01
 IDIUse=3 WtCom= 8.50D-01 WtEn= 1.50D-01
 Coeff-Com: -0.188D+00 0.539D+00 0.649D+00
 Coeff-En:   0.000D+00 0.000D+00 0.100D+01
 Coeff:     -0.160D+00 0.458D+00 0.702D+00
 Gap=     0.289 Goal=   None    Shift=    0.000
 RMSDP=2.83D-03 MaxDP=1.78D-01 DE=-2.81D-01 OVMax= 9.29D-02

 Cycle   4  Pass 1  IDiag  1:
 E= -1199.63999575048     Delta-E=       -0.047848088432 Rises=F Damp=F
 DIIS: error= 7.59D-03 at cycle   4 NSaved=   4.
 NSaved= 4 IEnMin= 4 EnMin= -1199.63999575048     IErMin= 4 ErrMin= 7.59D-03
 ErrMax= 7.59D-03  0.00D+00 EMaxC= 1.00D-01 BMatC= 3.00D-02 BMatP= 1.06D-01
 IDIUse=3 WtCom= 9.24D-01 WtEn= 7.59D-02
 Coeff-Com: -0.471D-01 0.118D+00 0.376D+00 0.553D+00
 Coeff-En:   0.000D+00 0.000D+00 0.235D+00 0.765D+00
 Coeff:     -0.436D-01 0.109D+00 0.365D+00 0.569D+00
 Gap=     0.276 Goal=   None    Shift=    0.000
 RMSDP=1.23D-03 MaxDP=8.32D-02 DE=-4.78D-02 OVMax= 4.40D-02

 Cycle   5  Pass 1  IDiag  1:
 E= -1199.65845376070     Delta-E=       -0.018458010224 Rises=F Damp=F
 DIIS: error= 2.00D-03 at cycle   5 NSaved=   5.
 NSaved= 5 IEnMin= 5 EnMin= -1199.65845376070     IErMin= 5 ErrMin= 2.00D-03
 ErrMax= 2.00D-03  0.00D+00 EMaxC= 1.00D-01 BMatC= 1.68D-03 BMatP= 3.00D-02
 IDIUse=3 WtCom= 9.80D-01 WtEn= 2.00D-02
 Coeff-Com: -0.103D-01 0.221D-01 0.154D+00 0.310D+00 0.524D+00
 Coeff-En:   0.000D+00 0.000D+00 0.000D+00 0.000D+00 0.100D+01
 Coeff:     -0.101D-01 0.216D-01 0.151D+00 0.304D+00 0.534D+00
 Gap=     0.275 Goal=   None    Shift=    0.000
 RMSDP=1.60D-04 MaxDP=6.62D-03 DE=-1.85D-02 OVMax= 8.08D-03

 Cycle   6  Pass 1  IDiag  1:
 E= -1199.65946923544     Delta-E=       -0.001015474740 Rises=F Damp=F
 DIIS: error= 3.21D-04 at cycle   6 NSaved=   6.
 NSaved= 6 IEnMin= 6 EnMin= -1199.65946923544     IErMin= 6 ErrMin= 3.21D-04
 ErrMax= 3.21D-04  0.00D+00 EMaxC= 1.00D-01 BMatC= 2.96D-05 BMatP= 1.68D-03
 IDIUse=3 WtCom= 9.97D-01 WtEn= 3.21D-03
 Coeff-Com:  0.257D-02-0.662D-02-0.522D-02 0.997D-02 0.118D+00 0.882D+00
 Coeff-En:   0.000D+00 0.000D+00 0.000D+00 0.000D+00 0.000D+00 0.100D+01
 Coeff:      0.257D-02-0.659D-02-0.521D-02 0.993D-02 0.117D+00 0.882D+00
 Gap=     0.275 Goal=   None    Shift=    0.000
 RMSDP=7.45D-05 MaxDP=6.19D-03 DE=-1.02D-03 OVMax= 3.01D-03

 Cycle   7  Pass 1  IDiag  1:
 E= -1199.65950894421     Delta-E=       -0.000039708766 Rises=F Damp=F
 DIIS: error= 9.12D-05 at cycle   7 NSaved=   7.
 NSaved= 7 IEnMin= 7 EnMin= -1199.65950894421     IErMin= 7 ErrMin= 9.12D-05
 ErrMax= 9.12D-05  0.00D+00 EMaxC= 1.00D-01 BMatC= 4.70D-06 BMatP= 2.96D-05
 IDIUse=1 WtCom= 1.00D+00 WtEn= 0.00D+00
 Coeff-Com:  0.176D-02-0.412D-02-0.137D-01-0.198D-01-0.185D-02 0.311D+00
 Coeff-Com:  0.726D+00
 Coeff:      0.176D-02-0.412D-02-0.137D-01-0.198D-01-0.185D-02 0.311D+00
 Coeff:      0.726D+00
 Gap=     0.275 Goal=   None    Shift=    0.000
 RMSDP=2.88D-05 MaxDP=1.85D-03 DE=-3.97D-05 OVMax= 1.54D-03

 Cycle   8  Pass 1  IDiag  1:
 E= -1199.65951554553     Delta-E=       -0.000006601319 Rises=F Damp=F
 DIIS: error= 5.67D-05 at cycle   8 NSaved=   8.
 NSaved= 8 IEnMin= 8 EnMin= -1199.65951554553     IErMin= 8 ErrMin= 5.67D-05
 ErrMax= 5.67D-05  0.00D+00 EMaxC= 1.00D-01 BMatC= 1.80D-06 BMatP= 4.70D-06
 IDIUse=1 WtCom= 1.00D+00 WtEn= 0.00D+00
 Coeff-Com:  0.624D-03-0.131D-02-0.789D-02-0.152D-01-0.275D-01-0.305D-04
 Coeff-Com:  0.406D+00 0.645D+00
 Coeff:      0.624D-03-0.131D-02-0.789D-02-0.152D-01-0.275D-01-0.305D-04
 Coeff:      0.406D+00 0.645D+00
 Gap=     0.275 Goal=   None    Shift=    0.000
 RMSDP=1.50D-05 MaxDP=1.04D-03 DE=-6.60D-06 OVMax= 1.15D-03

 Cycle   9  Pass 1  IDiag  1:
 E= -1199.65951846136     Delta-E=       -0.000002915828 Rises=F Damp=F
 DIIS: error= 3.11D-05 at cycle   9 NSaved=   9.
 NSaved= 9 IEnMin= 9 EnMin= -1199.65951846136     IErMin= 9 ErrMin= 3.11D-05
 ErrMax= 3.11D-05  0.00D+00 EMaxC= 1.00D-01 BMatC= 1.92D-07 BMatP= 1.80D-06
 IDIUse=1 WtCom= 1.00D+00 WtEn= 0.00D+00
 Coeff-Com: -0.211D-03 0.497D-03 0.150D-02 0.194D-02 0.180D-03-0.474D-01
 Coeff-Com: -0.994D-01 0.106D+00 0.104D+01
 Coeff:     -0.211D-03 0.497D-03 0.150D-02 0.194D-02 0.180D-03-0.474D-01
 Coeff:     -0.994D-01 0.106D+00 0.104D+01
 Gap=     0.275 Goal=   None    Shift=    0.000
 RMSDP=1.01D-05 MaxDP=3.75D-04 DE=-2.92D-06 OVMax= 8.90D-04

 Cycle  10  Pass 1  IDiag  1:
 E= -1199.65951927646     Delta-E=       -0.000000815104 Rises=F Damp=F
 DIIS: error= 1.54D-05 at cycle  10 NSaved=  10.
 NSaved=10 IEnMin=10 EnMin= -1199.65951927646     IErMin=10 ErrMin= 1.54D-05
 ErrMax= 1.54D-05  0.00D+00 EMaxC= 1.00D-01 BMatC= 1.06D-07 BMatP= 1.92D-07
 IDIUse=1 WtCom= 1.00D+00 WtEn= 0.00D+00
 Coeff-Com: -0.304D-03 0.670D-03 0.302D-02 0.520D-02 0.751D-02-0.356D-01
 Coeff-Com: -0.175D+00-0.995D-01 0.637D+00 0.656D+00
 Coeff:     -0.304D-03 0.670D-03 0.302D-02 0.520D-02 0.751D-02-0.356D-01
 Coeff:     -0.175D+00-0.995D-01 0.637D+00 0.656D+00
 Gap=     0.275 Goal=   None    Shift=    0.000
 RMSDP=4.76D-06 MaxDP=1.75D-04 DE=-8.15D-07 OVMax= 4.48D-04

 Cycle  11  Pass 1  IDiag  1:
 E= -1199.65951950614     Delta-E=       -0.000000229679 Rises=F Damp=F
 DIIS: error= 6.12D-06 at cycle  11 NSaved=  11.
 NSaved=11 IEnMin=11 EnMin= -1199.65951950614     IErMin=11 ErrMin= 6.12D-06
 ErrMax= 6.12D-06  0.00D+00 EMaxC= 1.00D-01 BMatC= 9.23D-09 BMatP= 1.06D-07
 IDIUse=1 WtCom= 1.00D+00 WtEn= 0.00D+00
 Coeff-Com: -0.260D-04 0.519D-04 0.361D-03 0.801D-03 0.220D-02-0.898D-03
 Coeff-Com: -0.214D-01-0.427D-01-0.469D-01 0.171D+00 0.937D+00
 Coeff:     -0.260D-04 0.519D-04 0.361D-03 0.801D-03 0.220D-02-0.898D-03
 Coeff:     -0.214D-01-0.427D-01-0.469D-01 0.171D+00 0.937D+00
 Gap=     0.275 Goal=   None    Shift=    0.000
 RMSDP=2.18D-06 MaxDP=7.69D-05 DE=-2.30D-07 OVMax= 2.04D-04

 Cycle  12  Pass 1  IDiag  1:
 E= -1199.65951953823     Delta-E=       -0.000000032093 Rises=F Damp=F
 DIIS: error= 2.67D-06 at cycle  12 NSaved=  12.
 NSaved=12 IEnMin=12 EnMin= -1199.65951953823     IErMin=12 ErrMin= 2.67D-06
 ErrMax= 2.67D-06  0.00D+00 EMaxC= 1.00D-01 BMatC= 4.14D-09 BMatP= 9.23D-09
 IDIUse=1 WtCom= 1.00D+00 WtEn= 0.00D+00
 Coeff-Com:  0.314D-04-0.723D-04-0.200D-03-0.215D-03 0.516D-03 0.646D-02
 Coeff-Com:  0.150D-01-0.114D-01-0.140D+00-0.199D-01 0.538D+00 0.612D+00
 Coeff:      0.314D-04-0.723D-04-0.200D-03-0.215D-03 0.516D-03 0.646D-02
 Coeff:      0.150D-01-0.114D-01-0.140D+00-0.199D-01 0.538D+00 0.612D+00
 Gap=     0.275 Goal=   None    Shift=    0.000
 RMSDP=7.90D-07 MaxDP=2.31D-05 DE=-3.21D-08 OVMax= 6.19D-05

 Cycle  13  Pass 1  IDiag  1:
 E= -1199.65951954405     Delta-E=       -0.000000005816 Rises=F Damp=F
 DIIS: error= 6.29D-07 at cycle  13 NSaved=  13.
 NSaved=13 IEnMin=13 EnMin= -1199.65951954405     IErMin=13 ErrMin= 6.29D-07
 ErrMax= 6.29D-07  0.00D+00 EMaxC= 1.00D-01 BMatC= 1.96D-10 BMatP= 4.14D-09
 IDIUse=1 WtCom= 1.00D+00 WtEn= 0.00D+00
 Coeff-Com:  0.180D-04-0.392D-04-0.144D-03-0.268D-03-0.396D-03 0.147D-02
 Coeff-Com:  0.842D-02 0.782D-02-0.256D-01-0.366D-01-0.249D-01 0.107D+00
 Coeff-Com:  0.964D+00
 Coeff:      0.180D-04-0.392D-04-0.144D-03-0.268D-03-0.396D-03 0.147D-02
 Coeff:      0.842D-02 0.782D-02-0.256D-01-0.366D-01-0.249D-01 0.107D+00
 Coeff:      0.964D+00
 Gap=     0.275 Goal=   None    Shift=    0.000
 RMSDP=2.51D-07 MaxDP=7.22D-06 DE=-5.82D-09 OVMax= 2.08D-05

 Cycle  14  Pass 1  IDiag  1:
 E= -1199.65951954465     Delta-E=       -0.000000000604 Rises=F Damp=F
 DIIS: error= 3.07D-07 at cycle  14 NSaved=  14.
 NSaved=14 IEnMin=14 EnMin= -1199.65951954465     IErMin=14 ErrMin= 3.07D-07
 ErrMax= 3.07D-07  0.00D+00 EMaxC= 1.00D-01 BMatC= 5.35D-11 BMatP= 1.96D-10
 IDIUse=1 WtCom= 1.00D+00 WtEn= 0.00D+00
 Coeff-Com:  0.272D-05-0.550D-05-0.259D-04-0.752D-04-0.223D-03-0.274D-03
 Coeff-Com:  0.147D-02 0.454D-02 0.699D-02-0.133D-01-0.832D-01-0.335D-01
 Coeff-Com:  0.435D+00 0.683D+00
 Coeff:      0.272D-05-0.550D-05-0.259D-04-0.752D-04-0.223D-03-0.274D-03
 Coeff:      0.147D-02 0.454D-02 0.699D-02-0.133D-01-0.832D-01-0.335D-01
 Coeff:      0.435D+00 0.683D+00
 Gap=     0.275 Goal=   None    Shift=    0.000
 RMSDP=9.94D-08 MaxDP=6.19D-06 DE=-6.04D-10 OVMax= 5.77D-06

 Cycle  15  Pass 1  IDiag  1:
 E= -1199.65951954463     Delta-E=        0.000000000022 Rises=F Damp=F
 DIIS: error= 7.20D-08 at cycle  15 NSaved=  15.
 NSaved=15 IEnMin=14 EnMin= -1199.65951954465     IErMin=15 ErrMin= 7.20D-08
 ErrMax= 7.20D-08  0.00D+00 EMaxC= 1.00D-01 BMatC= 2.84D-12 BMatP= 5.35D-11
 IDIUse=1 WtCom= 1.00D+00 WtEn= 0.00D+00
 Coeff-Com: -0.137D-05 0.297D-05 0.815D-05 0.116D-04 0.940D-05-0.149D-03
 Coeff-Com: -0.401D-03-0.532D-03 0.265D-02 0.192D-02-0.890D-02-0.486D-02
 Coeff-Com: -0.619D-01 0.657D-01 0.101D+01
 Coeff:     -0.137D-05 0.297D-05 0.815D-05 0.116D-04 0.940D-05-0.149D-03
 Coeff:     -0.401D-03-0.532D-03 0.265D-02 0.192D-02-0.890D-02-0.486D-02
 Coeff:     -0.619D-01 0.657D-01 0.101D+01
 Gap=     0.275 Goal=   None    Shift=    0.000
 RMSDP=3.42D-08 MaxDP=1.89D-06 DE= 2.18D-11 OVMax= 2.32D-06

 Cycle  16  Pass 1  IDiag  1:
 E= -1199.65951954468     Delta-E=       -0.000000000053 Rises=F Damp=F
 DIIS: error= 3.89D-08 at cycle  16 NSaved=  16.
 NSaved=16 IEnMin=16 EnMin= -1199.65951954468     IErMin=16 ErrMin= 3.89D-08
 ErrMax= 3.89D-08  0.00D+00 EMaxC= 1.00D-01 BMatC= 5.32D-13 BMatP= 2.84D-12
 IDIUse=1 WtCom= 1.00D+00 WtEn= 0.00D+00
 Coeff-Com: -0.588D-06 0.124D-05 0.406D-05 0.952D-05 0.258D-04-0.277D-05
 Coeff-Com: -0.234D-03-0.598D-03 0.274D-03 0.203D-02 0.536D-02 0.419D-02
 Coeff-Com: -0.584D-01-0.599D-01 0.321D+00 0.786D+00
 Coeff:     -0.588D-06 0.124D-05 0.406D-05 0.952D-05 0.258D-04-0.277D-05
 Coeff:     -0.234D-03-0.598D-03 0.274D-03 0.203D-02 0.536D-02 0.419D-02
 Coeff:     -0.584D-01-0.599D-01 0.321D+00 0.786D+00
 Gap=     0.275 Goal=   None    Shift=    0.000
 RMSDP=1.11D-08 MaxDP=3.90D-07 DE=-5.32D-11 OVMax= 5.06D-07

 Cycle  17  Pass 1  IDiag  1:
 E= -1199.65951954468     Delta-E=        0.000000000008 Rises=F Damp=F
 DIIS: error= 1.52D-08 at cycle  17 NSaved=  17.
 NSaved=17 IEnMin=16 EnMin= -1199.65951954468     IErMin=17 ErrMin= 1.52D-08
 ErrMax= 1.52D-08  0.00D+00 EMaxC= 1.00D-01 BMatC= 9.61D-14 BMatP= 5.32D-13
 IDIUse=1 WtCom= 1.00D+00 WtEn= 0.00D+00
 Coeff-Com:  0.676D-07-0.154D-06-0.382D-06 0.537D-06 0.548D-05 0.237D-04
 Coeff-Com: -0.553D-05-0.748D-04-0.441D-03 0.193D-03 0.324D-02 0.246D-02
 Coeff-Com: -0.577D-02-0.452D-01-0.887D-01 0.290D+00 0.845D+00
 Coeff:      0.676D-07-0.154D-06-0.382D-06 0.537D-06 0.548D-05 0.237D-04
 Coeff:     -0.553D-05-0.748D-04-0.441D-03 0.193D-03 0.324D-02 0.246D-02
 Coeff:     -0.577D-02-0.452D-01-0.887D-01 0.290D+00 0.845D+00
 Gap=     0.275 Goal=   None    Shift=    0.000
 RMSDP=5.46D-09 MaxDP=1.76D-07 DE= 7.73D-12 OVMax= 2.87D-07

 SCF Done:  E(RwB97XD) =  -1199.65951954     A.U. after   17 cycles
            NFock= 17  Conv=0.55D-08     -V/T= 2.0020
 KE= 1.197298361884D+03 PE=-4.670934017821D+03 EE= 1.362242805351D+03
 Leave Link  502 at Fri May 23 05:00:54 2025, MaxMem=  3758096384 cpu:              70.0 elap:              15.5
 (Enter /apps/easybuild-2022/easybuild/software/Compiler/NVHPC/22.11-CUDA-11.7.0/Gaussian/g16c01-CUDA-11.7.0/g16/l508.exe)
 QCSCF skips out because SCF is already converged.
 Leave Link  508 at Fri May 23 05:00:54 2025, MaxMem=  3758096384 cpu:               0.1 elap:               0.0
 (Enter /apps/easybuild-2022/easybuild/software/Compiler/NVHPC/22.11-CUDA-11.7.0/Gaussian/g16c01-CUDA-11.7.0/g16/l801.exe)
 DoSCS=F DFT=T ScalE2(SS,OS)=  1.000000  1.000000
 Range of M.O.s used for correlation:     1   257
 NBasis=   257 NAE=    49 NBE=    49 NFC=     0 NFV=     0
 NROrb=    257 NOA=    49 NOB=    49 NVA=   208 NVB=   208

 **** Warning!!: The largest alpha MO coefficient is  0.39127344D+02

 Leave Link  801 at Fri May 23 05:00:54 2025, MaxMem=  3758096384 cpu:               0.1 elap:               0.0
 (Enter /apps/easybuild-2022/easybuild/software/Compiler/NVHPC/22.11-CUDA-11.7.0/Gaussian/g16c01-CUDA-11.7.0/g16/l1101.exe)
 Using compressed storage, NAtomX=    12.
 Will process     13 centers per pass.
 R6Disp: Adding Grimme-D2 dispersion energy 1st derivatives to the gradient.
 Leave Link 1101 at Fri May 23 05:00:54 2025, MaxMem=  3758096384 cpu:               0.8 elap:               0.2
 (Enter /apps/easybuild-2022/easybuild/software/Compiler/NVHPC/22.11-CUDA-11.7.0/Gaussian/g16c01-CUDA-11.7.0/g16/l1102.exe)
 Symmetrizing basis deriv contribution to polar:
 IMax=3 JMax=2 DiffMx= 0.00D+00
 Leave Link 1102 at Fri May 23 05:00:54 2025, MaxMem=  3758096384 cpu:               0.0 elap:               0.0
 (Enter /apps/easybuild-2022/easybuild/software/Compiler/NVHPC/22.11-CUDA-11.7.0/Gaussian/g16c01-CUDA-11.7.0/g16/l1110.exe)
 Forming Gx(P) for the SCF density, NAtomX=    12.
 Integral derivatives from FoFJK, PRISM(SPDF).
 Do as many integral derivatives as possible in FoFJK.
 G2DrvN: MDV=    3758095012.
 G2DrvN: will do    13 centers at a time, making    1 passes.
 Calling FoFCou, ICntrl=  3107 FMM=F I1Cent=   0 AccDes= 0.00D+00.
 FoFJK:  IHMeth= 1 ICntrl=    3107 DoSepK=T KAlg= 0 I1Cent=           0 FoldK=F
 IRaf=         1 NMat=       1 IRICut=       1 DoRegI=T DoRafI=F ISym2E= 0 IDoP0=0 IntGTp=1.
 FoFCou: FMM=F IPFlag=           0 FMFlag=      100000 FMFlg1=           0
         NFxFlg=           0 DoJE=F BraDBF=F KetDBF=F FulRan=T
         wScrn=  0.000000 ICntrl=      3507 IOpCl=  0 I1Cent=           0 NGrid=           0
         NMat0=    1 NMatS0=      1 NMatT0=    0 NMatD0=    1 NMtDS0=    0 NMtDT0=    0
 Symmetry not used in FoFCou.
 End of G2Drv F.D. properties file   721 does not exist.
 End of G2Drv F.D. properties file   722 does not exist.
 End of G2Drv F.D. properties file   788 does not exist.
 Leave Link 1110 at Fri May 23 05:01:05 2025, MaxMem=  3758096384 cpu:              90.3 elap:              11.4
 (Enter /apps/easybuild-2022/easybuild/software/Compiler/NVHPC/22.11-CUDA-11.7.0/Gaussian/g16c01-CUDA-11.7.0/g16/l1002.exe)
 Minotr:  Closed shell wavefunction.
          IDoAtm=111111111111
          Direct CPHF calculation.
          Differentiating once with respect to electric field.
                with respect to dipole field.
          Differentiating once with respect to nuclear coordinates.
          Requested convergence is 1.0D-08 RMS, and 1.0D-07 maximum.
          Secondary convergence is 1.0D-12 RMS, and 1.0D-12 maximum.
          NewPWx=T KeepS1=F KeepF1=F KeepIn=T MapXYZ=F SortEE=F KeepMc=T.
         3710 words used for storage of precomputed grid.
 Keep R1 ints in memory in canonical form, NReq=1117480302.
 FoFCou: FMM=F IPFlag=           0 FMFlag=           0 FMFlg1=           0
         NFxFlg=           0 DoJE=F BraDBF=F KetDBF=F FulRan=T
         wScrn=  0.000000 ICntrl=       600 IOpCl=  0 I1Cent=           0 NGrid=           0
         NMat0=    1 NMatS0=  33153 NMatT0=    0 NMatD0=    1 NMtDS0=    0 NMtDT0=    0
 Symmetry not used in FoFCou.
 Two-electron integral symmetry not used.
          MDV=    3758096384 using IRadAn=       1.
          Solving linear equations simultaneously, MaxMat=       0.
          There are    39 degrees of freedom in the 1st order CPHF.  IDoFFX=6 NUNeed=     3.
     36 vectors produced by pass  0 Test12= 2.61D-14 2.56D-09 XBig12= 4.44D+01 4.97D+00.
 AX will form    36 AO Fock derivatives at one time.
     36 vectors produced by pass  1 Test12= 2.61D-14 2.56D-09 XBig12= 7.97D+00 4.96D-01.
     36 vectors produced by pass  2 Test12= 2.61D-14 2.56D-09 XBig12= 2.10D-01 1.03D-01.
     36 vectors produced by pass  3 Test12= 2.61D-14 2.56D-09 XBig12= 5.91D-03 1.44D-02.
     36 vectors produced by pass  4 Test12= 2.61D-14 2.56D-09 XBig12= 1.30D-04 1.64D-03.
     36 vectors produced by pass  5 Test12= 2.61D-14 2.56D-09 XBig12= 1.53D-06 1.60D-04.
     36 vectors produced by pass  6 Test12= 2.61D-14 2.56D-09 XBig12= 1.27D-08 1.95D-05.
     28 vectors produced by pass  7 Test12= 2.61D-14 2.56D-09 XBig12= 8.50D-11 1.19D-06.
      7 vectors produced by pass  8 Test12= 2.61D-14 2.56D-09 XBig12= 5.31D-13 7.98D-08.
      3 vectors produced by pass  9 Test12= 2.61D-14 2.56D-09 XBig12= 3.67D-15 6.41D-09.
 InvSVY:  IOpt=1 It=  1 EMax= 5.33D-15
 Solved reduced A of dimension   290 with    39 vectors.
 FullF1:  Do perturbations      1 to       3.
 Isotropic polarizability for W=    0.000000       69.89 Bohr**3.
 End of Minotr F.D. properties file   721 does not exist.
 End of Minotr F.D. properties file   722 does not exist.
 End of Minotr F.D. properties file   788 does not exist.
 Leave Link 1002 at Fri May 23 05:01:31 2025, MaxMem=  3758096384 cpu:             204.3 elap:              26.1
 (Enter /apps/easybuild-2022/easybuild/software/Compiler/NVHPC/22.11-CUDA-11.7.0/Gaussian/g16c01-CUDA-11.7.0/g16/l701.exe)
 ... and contract with generalized density number  0.
 Compute integral second derivatives.
 R6Disp: Adding Grimme-D2 dispersion energy 2nd derivatives to the Hessian.
 Leave Link  701 at Fri May 23 05:01:32 2025, MaxMem=  3758096384 cpu:               0.8 elap:               0.2
 (Enter /apps/easybuild-2022/easybuild/software/Compiler/NVHPC/22.11-CUDA-11.7.0/Gaussian/g16c01-CUDA-11.7.0/g16/l702.exe)
 L702 exits ... SP integral derivatives will be done elsewhere.
 Leave Link  702 at Fri May 23 05:01:32 2025, MaxMem=  3758096384 cpu:               0.1 elap:               0.0
 (Enter /apps/easybuild-2022/easybuild/software/Compiler/NVHPC/22.11-CUDA-11.7.0/Gaussian/g16c01-CUDA-11.7.0/g16/l703.exe)
 Integral derivatives from FoFJK, PRISM(SPDF).
 Compute integral second derivatives, UseDBF=F ICtDFT=           0.
 Calling FoFJK, ICntrl=    100127 FMM=F ISym2X=0 I1Cent= 0 IOpClX= 0 NMat=1 NMatS=1 NMatT=0.
 FoFJK:  IHMeth= 1 ICntrl=  100127 DoSepK=T KAlg= 0 I1Cent=           0 FoldK=F
 IRaf=         1 NMat=       1 IRICut=       1 DoRegI=T DoRafI=F ISym2E= 0 IDoP0=0 IntGTp=1.
 FoFCou: FMM=F IPFlag=           0 FMFlag=      100000 FMFlg1=         800
         NFxFlg=           0 DoJE=F BraDBF=F KetDBF=F FulRan=T
         wScrn=  0.000000 ICntrl=    100527 IOpCl=  0 I1Cent=           0 NGrid=           0
         NMat0=    1 NMatS0=      1 NMatT0=    0 NMatD0=    1 NMtDS0=    0 NMtDT0=    0
 Symmetry not used in FoFCou.
 Leave Link  703 at Fri May 23 05:02:03 2025, MaxMem=  3758096384 cpu:             253.1 elap:              31.9
 (Enter /apps/easybuild-2022/easybuild/software/Compiler/NVHPC/22.11-CUDA-11.7.0/Gaussian/g16c01-CUDA-11.7.0/g16/l716.exe)
 Dipole        =-4.32235508D-01 8.88401948D-01-2.99317100D-01
 Polarizability= 8.58470468D+01-1.11595012D+01 6.46814994D+01
                -5.59877071D+00 3.23713554D+00 5.91348407D+01
 -------------------------------------------------------------------
 Center     Atomic                   Forces (Hartrees/Bohr)
 Number     Number              X              Y              Z
 -------------------------------------------------------------------
      1        6           0.010696083    0.020171970    0.003981407
      2        6          -0.016471297   -0.022699775   -0.003797448
      3        9           0.000549284    0.001584527    0.018813470
      4        9          -0.000538078    0.015142168   -0.013423604
      5       16          -0.000743298    0.044794425    0.007876117
      6        8           0.008280352   -0.006573440   -0.016593063
      7        8          -0.005643932   -0.009886387    0.003266553
      8        8           0.013108901   -0.006381871    0.017871767
      9        9           0.018609256   -0.006233282   -0.007931059
     10        9          -0.009481637   -0.006259064   -0.016759126
     11        9          -0.004374301   -0.017575818    0.010109148
     12        1          -0.013991333   -0.006083452   -0.003414161
 -------------------------------------------------------------------
 Cartesian Forces:  Max     0.044794425 RMS     0.013709112
 Force constants in Cartesian coordinates: 
                1             2             3             4             5 
      1  0.110613D+00
      2 -0.171709D+00  0.688278D+00
      3  0.363014D-01  0.286927D-01  0.710640D+00
      4 -0.910437D-01 -0.112865D+00 -0.295562D-01  0.993382D-01
      5  0.728554D-01 -0.231519D+00 -0.677507D-01  0.141827D+00  0.644501D+00
      6  0.236362D-01 -0.573302D-01 -0.814733D-01  0.726647D-01  0.313005D-01
      7  0.572027D-02  0.353862D-01  0.769433D-02 -0.371545D-01 -0.849332D-01
      8 -0.143396D-01 -0.442546D-01  0.344166D-01 -0.646760D-01 -0.243946D+00
      9 -0.366146D-02  0.475004D-03 -0.271566D-02  0.331408D-01  0.119391D+00
     10  0.216940D-02  0.287492D-01  0.856977D-02 -0.551985D-01 -0.447104D-01
     11 -0.165435D-01 -0.103343D-01 -0.386768D-01 -0.347407D-01 -0.893947D-01
     12 -0.107294D-01 -0.863671D-02 -0.393952D-01 -0.852879D-01 -0.755745D-01
     13  0.228267D-01  0.124950D+00  0.354936D-01  0.762254D-01 -0.910250D-01
     14  0.851173D-01  0.795386D-01  0.716391D-02  0.528884D-01 -0.401890D-01
     15  0.190084D-01  0.150000D-01  0.136105D-01  0.113531D-01 -0.113339D-01
     16 -0.125384D-01 -0.310007D-01 -0.799057D-02 -0.276021D-01  0.267384D-01
     17 -0.245313D-02  0.598756D-02  0.314311D-02 -0.692291D-03 -0.109086D-01
     18 -0.110217D-01 -0.254764D-01 -0.121214D-01 -0.177191D-01  0.303005D-01
     19 -0.168429D-01 -0.374962D-01 -0.977600D-02 -0.338806D-01  0.321638D-01
     20  0.959289D-03  0.871186D-02  0.360773D-02  0.104456D-02 -0.914375D-02
     21  0.105840D-01  0.274074D-01  0.456238D-02  0.168602D-01 -0.300501D-01
     22  0.867671D-02 -0.194105D-02 -0.247170D-02  0.999773D-03  0.264513D-02
     23 -0.111439D-01 -0.168863D-01 -0.237743D-02 -0.966712D-02  0.779430D-02
     24 -0.235727D-02 -0.775347D-03 -0.883903D-03 -0.106742D-02  0.767445D-03
     25  0.726424D-01  0.691670D-01  0.705512D-02  0.352641D-01 -0.643429D-01
     26 -0.394308D-01 -0.643176D-01 -0.683274D-02 -0.263697D-01 -0.416237D-02
     27 -0.217409D-01 -0.196458D-01 -0.186032D-01 -0.107391D-01  0.524298D-02
     28 -0.572126D-01  0.844214D-01 -0.480907D-01  0.144322D-01  0.603568D-02
     29  0.782858D-01 -0.300305D+00  0.146981D+00  0.413579D-01 -0.245463D-01
     30 -0.407762D-01  0.140597D+00 -0.181295D+00 -0.261092D-01  0.574759D-02
     31 -0.417906D-01  0.135365D-01  0.222331D-02  0.198277D-01  0.253867D-02
     32  0.177980D-01 -0.117800D+00 -0.108977D+00  0.106928D-01  0.335834D-02
     33 -0.148531D-02 -0.100474D+00 -0.392523D+00  0.356704D-01 -0.815843D-02
     34 -0.322039D-02 -0.119768D-02  0.547677D-03 -0.120799D-02  0.207631D-03
     35  0.604682D-03  0.290004D-02  0.609843D-03  0.120079D-02 -0.184495D-02
     36  0.224232D-02  0.165966D-03  0.197912D-03  0.789559D-03  0.117327D-03
                6             7             8             9            10 
      6  0.555432D+00
      7  0.338753D-01  0.498000D-01
      8  0.115749D+00  0.629672D-01  0.289520D+00
      9 -0.140116D+00 -0.349431D-01 -0.176883D+00  0.218216D+00
     10 -0.954939D-01  0.907927D-02  0.462301D-02  0.445334D-02  0.625326D-01
     11 -0.745284D-01  0.112335D-01  0.830522D-02  0.480307D-01  0.273009D-01
     12 -0.288997D+00 -0.821641D-02  0.262291D-01 -0.814435D-01  0.943313D-01
     13 -0.337508D-01 -0.128025D-01  0.194302D-01 -0.516779D-02 -0.543122D-02
     14 -0.161134D-01 -0.182481D-01 -0.841213D-02  0.863767D-02 -0.715704D-02
     15  0.179778D-03  0.456128D-02  0.102457D-01 -0.881815D-02 -0.126284D-01
     16 -0.220570D-02 -0.247592D-03 -0.151481D-02 -0.219180D-02 -0.439121D-02
     17  0.566357D-02 -0.130820D-03  0.729786D-02 -0.486812D-02  0.478833D-02
     18 -0.456416D-02  0.262019D-02 -0.794755D-02  0.621495D-02 -0.342050D-02
     19  0.200882D-01  0.406444D-03 -0.821954D-02  0.290943D-02 -0.106782D-02
     20 -0.103038D-01  0.429542D-02  0.674200D-02 -0.360214D-02  0.103305D-02
     21 -0.244792D-01  0.146491D-02  0.710166D-02 -0.744967D-03 -0.129053D-02
     22  0.156021D-02 -0.152806D-02 -0.225537D-02  0.612232D-03 -0.154016D-02
     23  0.309965D-02  0.144988D-02  0.142104D-03 -0.655053D-03  0.236671D-03
     24 -0.137139D-02  0.411971D-04 -0.864902D-03  0.865848D-03  0.117445D-02
     25 -0.173737D-01 -0.117028D-01 -0.375921D-03  0.115719D-02 -0.720342D-02
     26  0.667032D-02 -0.636183D-02 -0.887948D-02  0.541524D-02 -0.692142D-02
     27  0.111128D-01 -0.167379D-02 -0.363062D-02  0.163456D-02  0.244475D-02
     28 -0.963404D-02  0.160404D-02  0.178307D-02  0.243357D-02 -0.157827D-02
     29  0.286110D-01 -0.168202D-02 -0.891419D-02  0.245451D-02 -0.938977D-02
     30  0.391778D-02  0.447258D-02 -0.133299D-02 -0.170687D-02  0.638891D-02
     31  0.643374D-02 -0.387696D-02  0.178535D-02  0.161051D-02  0.236090D-02
     32 -0.321112D-01 -0.390426D-02  0.200083D-02  0.178633D-02  0.144109D-02
     33 -0.298850D-01 -0.959194D-02 -0.272077D-02  0.853859D-02 -0.412358D-02
     34  0.199922D-03  0.702392D-03  0.792350D-03 -0.352979D-03  0.268430D-03
     35 -0.706582D-03 -0.720172D-04  0.398366D-03 -0.181950D-03  0.635623D-05
     36  0.243397D-03 -0.304563D-03 -0.361428D-03  0.760999D-04 -0.405583D-03
               11            12            13            14            15 
     11  0.918118D-01
     12  0.708974D-01  0.412310D+00
     13  0.124335D-01  0.178904D-01  0.283259D+00
     14 -0.135228D-03 -0.180999D-02  0.742681D-01  0.417091D+00
     15 -0.481450D-02 -0.152315D-01  0.995481D-03 -0.454661D-01  0.120773D+01
     16 -0.395455D-02 -0.839143D-02 -0.596087D-01  0.948276D-02  0.850380D-03
     17  0.259500D-02  0.450420D-02 -0.148286D-01 -0.159031D+00  0.192067D+00
     18 -0.349476D-02 -0.434593D-02  0.359861D-01  0.199950D+00 -0.520735D+00
     19 -0.100315D-03  0.928022D-03 -0.561290D-01  0.154798D-02 -0.100974D-01
     20  0.247137D-02  0.506547D-02 -0.228058D-01 -0.147899D+00 -0.180819D+00
     21  0.548195D-02  0.121713D-01 -0.489475D-01 -0.183892D+00 -0.556963D+00
     22 -0.811689D-03 -0.160663D-02 -0.151080D+00 -0.650958D-01 -0.185246D-01
     23 -0.355522D-04 -0.345250D-03 -0.593302D-01 -0.995837D-01  0.116269D-01
     24  0.689605D-03  0.206934D-02  0.274650D-02  0.264796D-01 -0.798978D-01
     25  0.104210D-02  0.775455D-03 -0.705525D-01 -0.729347D-01 -0.113069D-01
     26 -0.319718D-02 -0.106420D-01  0.557217D-02 -0.136512D-01  0.898500D-02
     27  0.558610D-03 -0.111638D-03  0.840569D-02  0.121937D-01 -0.335222D-01
     28  0.147678D-02  0.231521D-02 -0.736507D-02 -0.191392D-01 -0.484893D-02
     29  0.366201D-02 -0.399227D-02 -0.294546D-01 -0.106774D-01 -0.180107D-02
     30 -0.141617D-02  0.683160D-02  0.145798D-01  0.201482D-02 -0.173016D-02
     31  0.253107D-02 -0.204061D-02 -0.965767D-02 -0.158313D-01 -0.241621D-02
     32 -0.585615D-02 -0.594272D-02 -0.159382D-01 -0.892822D-02 -0.264790D-02
     33 -0.255770D-02 -0.340215D-02 -0.280235D-01 -0.171807D-02 -0.633948D-02
     34  0.132994D-03  0.320113D-04 -0.968475D-02 -0.248984D-01  0.230539D-01
     35  0.107684D-03  0.247286D-03 -0.327171D-02 -0.812269D-02  0.895791D-02
     36 -0.169951D-03 -0.455467D-03 -0.207894D-03 -0.743999D-02  0.171435D-02
               16            17            18            19            20 
     16  0.829066D-01
     17  0.210678D-01  0.157961D+00
     18 -0.182561D-01 -0.222016D+00  0.530737D+00
     19  0.103721D-01  0.300321D-03 -0.713263D-02  0.850623D-01
     20 -0.336586D-04  0.120947D-01  0.156410D-01  0.327305D-01  0.126541D+00
     21  0.689597D-02 -0.146260D-01  0.223160D-02  0.395406D-01  0.209792D+00
     22 -0.779587D-02 -0.776245D-02  0.249766D-02 -0.164873D-01 -0.186684D-01
     23 -0.322124D-01 -0.131823D-01  0.129085D-01 -0.351680D-01 -0.454239D-02
     24  0.334374D-01  0.262812D-01 -0.935751D-02 -0.348229D-01 -0.322960D-01
     25  0.162884D-01  0.372895D-02  0.972896D-02  0.199848D-01 -0.944186D-03
     26 -0.112164D-03 -0.349264D-02 -0.728193D-02 -0.199876D-02  0.581519D-02
     27 -0.410947D-02  0.110928D-01  0.264916D-02 -0.187697D-02 -0.452285D-02
     28  0.268007D-02  0.163939D-04  0.264637D-02  0.391014D-02 -0.303981D-03
     29  0.664676D-02 -0.149451D-02  0.500605D-02  0.844566D-02 -0.232922D-02
     30 -0.311848D-02  0.727988D-03 -0.140919D-02 -0.338218D-02  0.828264D-03
     31  0.335778D-02  0.128086D-03  0.245391D-02  0.392945D-02 -0.718287D-03
     32  0.422224D-02 -0.129042D-02  0.409794D-02  0.478477D-02 -0.119061D-02
     33  0.572598D-02 -0.260555D-02  0.805064D-02  0.695173D-02 -0.199519D-02
     34 -0.342104D-02 -0.416263D-02  0.161688D-02  0.742385D-03  0.341148D-02
     35  0.670271D-03  0.346293D-02 -0.168706D-02  0.300981D-02  0.272887D-02
     36 -0.646159D-03  0.636624D-03  0.264942D-02 -0.332993D-02 -0.139550D-02
               21            22            23            24            25 
     21  0.564762D+00
     22 -0.948226D-02  0.249970D+00
     23 -0.153306D-01  0.157834D+00  0.388851D+00
     24 -0.332729D-02 -0.395700D-01 -0.263885D+00  0.323559D+00
     25 -0.104139D-01 -0.387473D-01  0.352354D-01  0.762176D-02  0.605014D-01
     26  0.598630D-02  0.123243D-01 -0.289393D-03 -0.365029D-02  0.325481D-01
     27  0.709405D-02  0.554008D-02 -0.592406D-02  0.785804D-02  0.935788D-02
     28 -0.181520D-02 -0.310101D-02  0.319302D-02  0.872572D-03 -0.488996D-01
     29 -0.707939D-02  0.293033D-02  0.281030D-02 -0.413878D-03  0.292929D-02
     30  0.341112D-02 -0.198693D-02 -0.798875D-03  0.482967D-03 -0.896966D-02
     31 -0.273235D-02 -0.140275D-02  0.262144D-02  0.127458D-03 -0.308048D-01
     32 -0.313022D-02  0.837184D-03  0.205786D-02  0.166317D-03 -0.810407D-02
     33 -0.374786D-02  0.355399D-02  0.119380D-02  0.399342D-03  0.157247D-01
     34 -0.663993D-03 -0.379645D-01 -0.530487D-01  0.317962D-01  0.322927D-02
     35 -0.166040D-02 -0.800361D-01 -0.267136D+00  0.247501D+00  0.205094D-02
     36 -0.497020D-02  0.598779D-01  0.260488D+00 -0.240397D+00 -0.335688D-02
               26            27            28            29            30 
     26  0.710393D-01
     27 -0.329704D-02  0.249356D-01
     28  0.207438D-01 -0.699138D-02  0.836566D-01
     29  0.140253D-01  0.372543D-02 -0.100364D+00  0.314565D+00
     30 -0.862113D-03  0.344208D-02  0.787224D-01 -0.197577D+00  0.254206D+00
     31  0.697166D-02  0.233634D-01  0.110354D-01  0.613523D-03 -0.200852D-01
     32  0.111473D-01  0.478001D-02  0.217358D-02  0.140822D-01  0.516540D-01
     33  0.582680D-02 -0.638531D-02 -0.149617D-01  0.235250D-01 -0.856883D-01
     34  0.303474D-02 -0.198025D-02  0.838054D-03 -0.318584D-03  0.264122D-03
     35 -0.403730D-02 -0.573125D-03 -0.363236D-04 -0.878250D-03  0.416870D-03
     36 -0.317583D-03 -0.103934D-03 -0.648154D-03  0.560675D-03 -0.462034D-03
               31            32            33            34            35 
     31  0.463291D-01
     32 -0.139855D-01  0.102853D+00
     33 -0.856187D-02  0.903040D-01  0.510628D+00
     34  0.692474D-03 -0.176987D-04 -0.878900D-03  0.490257D-01
     35 -0.191196D-03 -0.434161D-03 -0.620155D-03  0.760645D-01  0.272856D+00
     36 -0.376038D-03  0.203606D-04  0.355107D-03 -0.536346D-01 -0.252304D+00
               36 
     36  0.241152D+00
 FormGI is forming the generalized inverse of G from B-inverse, IUseBI=4.
 Leave Link  716 at Fri May 23 05:02:04 2025, MaxMem=  3758096384 cpu:               0.1 elap:               0.1
 (Enter /apps/easybuild-2022/easybuild/software/Compiler/NVHPC/22.11-CUDA-11.7.0/Gaussian/g16c01-CUDA-11.7.0/g16/l103.exe)

 GradGradGradGradGradGradGradGradGradGradGradGradGradGradGradGradGradGrad
 Berny optimization.
 Red2BG is reusing G-inverse.
 Internal  Forces:  Max     0.027155225 RMS     0.012411998
 Search for a saddle point.
 Step number   1 out of a maximum of  100
 All quantities printed in internal units (Hartrees-Bohrs-Radians)
 Swapping is turned off.
 Second derivative matrix not updated -- analytic derivatives used.
 ITU=  0
     Eigenvalues ---   -0.24429  -0.00161   0.00038   0.02750   0.03278
     Eigenvalues ---    0.03779   0.05113   0.09379   0.09806   0.11369
     Eigenvalues ---    0.12088   0.12702   0.13885   0.19340   0.21141
     Eigenvalues ---    0.23631   0.25560   0.29803   0.31145   0.34705
     Eigenvalues ---    0.40590   0.42512   0.46295   0.47328   0.52865
     Eigenvalues ---    0.53955   0.61051   0.64406   0.66962   1.20269
 Eigenvectors required to have negative eigenvalues:
                          R2        R10       R1        A15       A17
   1                   -0.55224   0.41721   0.27099  -0.22075  -0.21195
                          D3        D14       D13       A14       D6
   1                    0.20825   0.20286  -0.19130   0.16768  -0.16171
 Eigenvalue     2 is  -1.61D-03 should be greater than     0.000000 Eigenvector:
                          D8        D9        D7        D1        D2
   1                   -0.40924  -0.40227  -0.38089   0.28942   0.28782
                          D5        D6        D14       D13       D15
   1                    0.25886   0.25726   0.20473   0.19878   0.19354
 RFO step:  Lambda0=1.799016596D-03 Lambda=-2.48306392D-02.
 Linear search not attempted -- option 19 set.
 Maximum step size (   0.300) exceeded in Quadratic search.
    -- Step size scaled by   0.807
 Iteration  1 RMS(Cart)=  0.17720492 RMS(Int)=  0.02162240
 Iteration  2 RMS(Cart)=  0.04648086 RMS(Int)=  0.00174191
 Iteration  3 RMS(Cart)=  0.00093914 RMS(Int)=  0.00161772
 Iteration  4 RMS(Cart)=  0.00000058 RMS(Int)=  0.00161772
 ITry= 1 IFail=0 DXMaxC= 5.25D-01 DCOld= 1.00D+10 DXMaxT= 3.00D-01 DXLimC= 3.00D+00 Rises=F
 Variable       Old X    -DE/DX   Delta X   Delta X   Delta X     New X
                                 (Linear)    (Quad)   (Total)
    R1        2.67493   0.00132   0.00000   0.01390   0.01390   2.68882
    R2        3.73412   0.02129   0.00000  -0.08467  -0.08467   3.64945
    R3        2.41591   0.00732   0.00000  -0.00249  -0.00249   2.41342
    R4        2.41195   0.00509   0.00000   0.00006   0.00006   2.41201
    R5        2.50552   0.00954   0.00000  -0.00031  -0.00031   2.50521
    R6        2.49990   0.00889   0.00000   0.00950   0.00950   2.50940
    R7        2.72011  -0.01275   0.00000  -0.01044  -0.01044   2.70967
    R8        2.71882   0.00073   0.00000   0.00362   0.00362   2.72244
    R9        3.03907  -0.00686   0.00000   0.01043   0.01043   3.04950
   R10        3.73889  -0.01556   0.00000  -0.03056  -0.03056   3.70833
   R11        1.82573  -0.00472   0.00000  -0.00222  -0.00222   1.82350
    A1        1.57086   0.02534   0.00000   0.06313   0.06538   1.63624
    A2        2.18393  -0.01098   0.00000  -0.04314  -0.04923   2.13470
    A3        2.17955  -0.01035   0.00000  -0.03486  -0.03938   2.14018
    A4        1.56513  -0.00551   0.00000   0.07675   0.07952   1.64465
    A5        1.60977  -0.00447   0.00000   0.01458   0.01616   1.62593
    A6        1.91911   0.02065   0.00000   0.07217   0.06734   1.98645
    A7        2.06051  -0.01582   0.00000  -0.05456  -0.05491   2.00560
    A8        2.05059  -0.01986   0.00000  -0.03889  -0.03923   2.01136
    A9        1.84917   0.02652   0.00000   0.07142   0.07091   1.92007
   A10        2.35689  -0.01507   0.00000  -0.06070  -0.06126   2.29563
   A11        1.79491  -0.00958   0.00000  -0.03110  -0.03102   1.76388
   A12        1.80241   0.01465   0.00000   0.12804   0.12799   1.93040
   A13        1.78507   0.00889   0.00000   0.02272   0.02260   1.80767
   A14        2.03508  -0.00056   0.00000  -0.05049  -0.05056   1.98453
   A15        1.43659   0.00989   0.00000  -0.00704  -0.00688   1.42971
   A16        2.11287  -0.02716   0.00000  -0.15829  -0.15829   1.95458
   A17        1.68880   0.01375   0.00000   0.01793   0.01793   1.70673
    D1        2.15624  -0.00069   0.00000  -0.17144  -0.17096   1.98528
    D2       -1.87667   0.00183   0.00000  -0.16166  -0.16095  -2.03763
    D3       -2.56304   0.01046   0.00000  -0.03297  -0.03478  -2.59782
    D4       -0.31277   0.01298   0.00000  -0.02319  -0.02477  -0.33754
    D5        0.53789  -0.01257   0.00000  -0.23211  -0.23113   0.30676
    D6        2.78816  -0.01005   0.00000  -0.22233  -0.22112   2.56704
    D7       -0.20582  -0.00307   0.00000   0.24410   0.24585   0.04002
    D8       -2.38976   0.00806   0.00000   0.28797   0.28624  -2.10353
    D9        1.97426  -0.01235   0.00000   0.21260   0.21259   2.18686
   D10       -2.82143  -0.01272   0.00000  -0.06722  -0.06676  -2.88819
   D11        0.97633   0.00602   0.00000   0.01197   0.01155   0.98789
   D12       -1.04233   0.00525   0.00000   0.06595   0.06590  -0.97643
   D13       -1.31207  -0.00300   0.00000  -0.12014  -0.12047  -1.43254
   D14        1.45641  -0.00869   0.00000  -0.09956  -0.09942   1.35699
   D15       -3.08276   0.00609   0.00000  -0.07504  -0.07485   3.12557
         Item               Value     Threshold  Converged?
 Maximum Force            0.027155     0.000450     NO 
 RMS     Force            0.012412     0.000300     NO 
 Maximum Displacement     0.525329     0.001800     NO 
 RMS     Displacement     0.213053     0.001200     NO 
 Predicted change in Energy=-1.297008D-02
 Lowest energy point so far.  Saving SCF results.
 GradGradGradGradGradGradGradGradGradGradGradGradGradGradGradGradGradGrad

 Leave Link  103 at Fri May 23 05:02:04 2025, MaxMem=  3758096384 cpu:               0.0 elap:               0.0
 (Enter /apps/easybuild-2022/easybuild/software/Compiler/NVHPC/22.11-CUDA-11.7.0/Gaussian/g16c01-CUDA-11.7.0/g16/l202.exe)
                          Input orientation:                          
 ---------------------------------------------------------------------
 Center     Atomic      Atomic             Coordinates (Angstroms)
 Number     Number       Type             X           Y           Z
 ---------------------------------------------------------------------
      1          6           0       -0.250434    1.327965    0.400132
      2          6           0       -0.018260   -0.039025    0.080794
      3          9           0       -0.371164   -0.900668    1.024464
      4          9           0       -0.491546   -0.434092   -1.095338
      5         16           0        2.327372    0.005536   -0.062058
      6          8           0        2.386637   -0.859171    1.080233
      7          8           0        2.221160   -0.278356   -1.470461
      8          8           0        3.737301    0.780543    0.062758
      9          9           0        1.629299    1.768871    0.442136
     10          9           0       -0.531604    2.198829   -0.490708
     11          9           0       -0.444194    1.732108    1.595236
     12          1           0        3.770420    1.563326   -0.500532
 ---------------------------------------------------------------------
                    Distance matrix (angstroms):
                    1          2          3          4          5
     1  C    0.000000
     2  C    1.422865   0.000000
     3  F    2.317579   1.325700   0.000000
     4  F    2.323663   1.327917   2.173877   0.000000
     5  S    2.933857   2.350401   3.046938   3.034343   0.000000
     6  O    3.492885   2.730394   2.758677   3.632869   1.433897
     7  O    3.491155   2.734717   3.651311   2.742945   1.440651
     8  O    4.039248   3.843990   4.542118   4.549688   1.613727
     9  F    1.931206   2.472551   3.386355   3.422697   1.962362
    10  F    1.277128   2.366036   3.453747   2.701750   3.628776
    11  F    1.276381   2.368937   2.694925   3.454540   3.661864
    12  H    4.127209   4.154464   5.054661   4.744241   2.168261
                    6          7          8          9         10
     6  O    0.000000
     7  O    2.621215   0.000000
     8  O    2.355464   2.402230   0.000000
     9  F    2.808440   2.863471   2.358897   0.000000
    10  F    4.509474   3.830676   4.532263   2.392606   0.000000
    11  F    3.872152   4.532613   4.553994   2.372838   2.139307
    12  H    3.206582   2.594756   0.964957   2.348462   4.348721
                   11         12
    11  F    0.000000
    12  H    4.709958   0.000000
 Symmetry turned off by external request.
 Stoichiometry    C2HF5O3S
 Rotational constants (GHZ):           1.4074963           0.8355077           0.7473166
 Leave Link  202 at Fri May 23 05:02:04 2025, MaxMem=  3758096384 cpu:               0.1 elap:               0.0
 (Enter /apps/easybuild-2022/easybuild/software/Compiler/NVHPC/22.11-CUDA-11.7.0/Gaussian/g16c01-CUDA-11.7.0/g16/l301.exe)
 Standard basis: 6-311++G(d,p) (5D, 7F)
 Ernie: Thresh=  0.10000D-02 Tol=  0.10000D-05 Strict=F.
   257 basis functions,   419 primitive gaussians,   268 cartesian basis functions
    49 alpha electrons       49 beta electrons
       nuclear repulsion energy       907.8851315767 Hartrees.
 IExCor= 4639 DFT=T Ex+Corr=wB97XD ExCW=0 ScaHFX=  1.000000
 ScaDFX=  1.000000  1.000000  1.000000  1.000000 ScalE2=  1.000000  1.000000
 IRadAn=      5 IRanWt=     -1 IRanGd=            0 ICorTp=0 IEmpDi=121
 HFx  wShort=  0.000000 wLong=  0.200000 cFull=  0.222036 cShort=  0.000000 cLong=  0.777964
 DFx  wShort=  0.000000 wLong=  0.200000 cFull=  0.000000 cShort=  0.000000 cLong=  1.000000
 NAtoms=   12 NActive=   12 NUniq=   12 SFac= 1.00D+00 NAtFMM=   60 NAOKFM=F Big=F
 Integral buffers will be    131072 words long.
 Raffenetti 2 integral format.
 Two-electron integral symmetry is turned off.
 R6Disp:  Grimme-D2 Dispersion energy=       -0.0053272167 Hartrees.
 Nuclear repulsion after empirical dispersion term =      907.8798043599 Hartrees.
 Leave Link  301 at Fri May 23 05:02:04 2025, MaxMem=  3758096384 cpu:               0.0 elap:               0.0
 (Enter /apps/easybuild-2022/easybuild/software/Compiler/NVHPC/22.11-CUDA-11.7.0/Gaussian/g16c01-CUDA-11.7.0/g16/l302.exe)
 NPDir=0 NMtPBC=     1 NCelOv=     1 NCel=       1 NClECP=     1 NCelD=      1
         NCelK=      1 NCelE2=     1 NClLst=     1 CellRange=     0.0.
 One-electron integrals computed using PRISM.
 NBasis=   257 RedAO= T EigKep=  4.17D-05  NBF=   257
 NBsUse=   257 1.00D-06 EigRej= -1.00D+00 NBFU=   257
 Precomputing XC quadrature grid using
 IXCGrd= 4 IRadAn=           5 IRanWt=          -1 IRanGd=           0 AccXCQ= 0.00D+00.
 Generated NRdTot=       0 NPtTot=           0 NUsed=           0 NTot=          32
 NSgBfM=   268   268   268   268   268 MxSgAt=    12 MxSgA2=    12.
 Leave Link  302 at Fri May 23 05:02:04 2025, MaxMem=  3758096384 cpu:               0.7 elap:               0.2
 (Enter /apps/easybuild-2022/easybuild/software/Compiler/NVHPC/22.11-CUDA-11.7.0/Gaussian/g16c01-CUDA-11.7.0/g16/l303.exe)
 DipDrv:  MaxL=1.
 Leave Link  303 at Fri May 23 05:02:04 2025, MaxMem=  3758096384 cpu:               0.1 elap:               0.1
 (Enter /apps/easybuild-2022/easybuild/software/Compiler/NVHPC/22.11-CUDA-11.7.0/Gaussian/g16c01-CUDA-11.7.0/g16/l401.exe)
 Initial guess from the checkpoint file:  "/tmp/Gau-245729.chk"
 B after Tr=     0.007948   -0.001026    0.007406
         Rot=    0.999957    0.006926   -0.005183    0.003204 Ang=   1.06 deg.
 Guess basis will be translated and rotated to current coordinates.
 JPrj=2 DoOrth=T DoCkMO=T.
 Generating alternative initial guess.
 ExpMin= 3.60D-02 ExpMax= 9.34D+04 ExpMxC= 3.17D+03 IAcc=3 IRadAn=         5 AccDes= 0.00D+00
 Harris functional with IExCor= 4639 and IRadAn=       5 diagonalized for initial guess.
 HarFok:  IExCor= 4639 AccDes= 0.00D+00 IRadAn=         5 IDoV= 1 UseB2=F ITyADJ=14
 ICtDFT=  3500011 ScaDFX=  1.000000  1.000000  1.000000  1.000000
 FoFCou: FMM=F IPFlag=           0 FMFlag=      100000 FMFlg1=           0
         NFxFlg=           0 DoJE=T BraDBF=F KetDBF=T FulRan=T
         wScrn=  0.000000 ICntrl=       500 IOpCl=  0 I1Cent=   200000004 NGrid=           0
         NMat0=    1 NMatS0=      1 NMatT0=    0 NMatD0=    1 NMtDS0=    0 NMtDT0=    0
 Symmetry not used in FoFCou.
 Harris En= -1167.01820799615    
 Leave Link  401 at Fri May 23 05:02:04 2025, MaxMem=  3758096384 cpu:               2.4 elap:               0.4
 (Enter /apps/easybuild-2022/easybuild/software/Compiler/NVHPC/22.11-CUDA-11.7.0/Gaussian/g16c01-CUDA-11.7.0/g16/l502.exe)
 Keep R1 ints in memory in canonical form, NReq=1117474609.
 FoFCou: FMM=F IPFlag=           0 FMFlag=           0 FMFlg1=           0
         NFxFlg=           0 DoJE=F BraDBF=F KetDBF=F FulRan=T
         wScrn=  0.000000 ICntrl=       600 IOpCl=  0 I1Cent=           0 NGrid=           0
         NMat0=    1 NMatS0=  33153 NMatT0=    0 NMatD0=    1 NMtDS0=    0 NMtDT0=    0
 Symmetry not used in FoFCou.
 Two-electron integral symmetry not used.
 Closed shell SCF:
 Using DIIS extrapolation, IDIIS=  1040.
 NGot=  3758096384 LenX=  2658793876 LenY=  2658721611
 Requested convergence on RMS density matrix=1.00D-08 within  32 cycles.
 Requested convergence on MAX density matrix=1.00D-06.
 Requested convergence on             energy=1.00D-06.
 No special actions if energy rises.

 Cycle   1  Pass 1  IDiag  1:
 E= -1199.48587694299    
 DIIS: error= 1.34D-02 at cycle   1 NSaved=   1.
 NSaved= 1 IEnMin= 1 EnMin= -1199.48587694299     IErMin= 1 ErrMin= 1.34D-02
 ErrMax= 1.34D-02  0.00D+00 EMaxC= 1.00D-01 BMatC= 1.19D-01 BMatP= 1.19D-01
 IDIUse=3 WtCom= 8.66D-01 WtEn= 1.34D-01
 Coeff-Com:  0.100D+01
 Coeff-En:   0.100D+01
 Coeff:      0.100D+01
 Recover alternate guess density for next cycle.
 RMSDP=8.42D-03 MaxDP=5.69D-01              OVMax= 0.00D+00

 Cycle   2  Pass 1  IDiag  1:
 E= -1198.95559171465     Delta-E=        0.530285228335 Rises=F Damp=F
 Switch densities from cycles 1 and 2 for lowest energy.
 DIIS: error= 1.30D-01 at cycle   2 NSaved=   2.
 NSaved= 2 IEnMin= 1 EnMin= -1199.48587694299     IErMin= 1 ErrMin= 1.34D-02
 ErrMax= 1.30D-01  0.00D+00 EMaxC= 1.00D+00 BMatC= 3.39D+00 BMatP= 1.19D-01
 IDIUse=1 WtCom= 1.00D+00 WtEn= 0.00D+00
 Coeff-Com:  0.969D+00 0.313D-01
 Coeff:      0.969D+00 0.313D-01
 Gap=     0.373 Goal=   None    Shift=    0.000
 RMSDP=4.98D-03 MaxDP=2.11D-01 DE= 5.30D-01 OVMax= 2.06D-01

 Cycle   3  Pass 1  IDiag  1:
 E= -1199.65792554635     Delta-E=       -0.702333831699 Rises=F Damp=F
 DIIS: error= 4.40D-03 at cycle   3 NSaved=   3.
 NSaved= 3 IEnMin= 3 EnMin= -1199.65792554635     IErMin= 3 ErrMin= 4.40D-03
 ErrMax= 4.40D-03  0.00D+00 EMaxC= 1.00D+00 BMatC= 1.16D-02 BMatP= 1.19D-01
 IDIUse=1 WtCom= 1.00D+00 WtEn= 0.00D+00
 Coeff-Com: -0.179D-01 0.163D-01 0.100D+01
 Coeff:     -0.179D-01 0.163D-01 0.100D+01
 Gap=     0.281 Goal=   None    Shift=    0.000
 RMSDP=1.07D-03 MaxDP=3.49D-02 DE=-7.02D-01 OVMax= 4.62D-02

 Cycle   4  Pass 1  IDiag  1:
 E= -1199.65927151204     Delta-E=       -0.001345965690 Rises=F Damp=F
 DIIS: error= 7.71D-03 at cycle   4 NSaved=   4.
 NSaved= 4 IEnMin= 4 EnMin= -1199.65927151204     IErMin= 3 ErrMin= 4.40D-03
 ErrMax= 7.71D-03  0.00D+00 EMaxC= 1.00D+00 BMatC= 1.74D-02 BMatP= 1.16D-02
 IDIUse=1 WtCom= 1.00D+00 WtEn= 0.00D+00
 Coeff-Com: -0.925D-01 0.599D-02 0.622D+00 0.465D+00
 Coeff:     -0.925D-01 0.599D-02 0.622D+00 0.465D+00
 Gap=     0.277 Goal=   None    Shift=    0.000
 RMSDP=7.52D-04 MaxDP=2.90D-02 DE=-1.35D-03 OVMax= 2.99D-02

 Cycle   5  Pass 1  IDiag  1:
 E= -1199.67122400796     Delta-E=       -0.011952495917 Rises=F Damp=F
 DIIS: error= 9.28D-04 at cycle   5 NSaved=   5.
 NSaved= 5 IEnMin= 5 EnMin= -1199.67122400796     IErMin= 5 ErrMin= 9.28D-04
 ErrMax= 9.28D-04  0.00D+00 EMaxC= 1.00D+00 BMatC= 3.18D-04 BMatP= 1.16D-02
 IDIUse=1 WtCom= 1.00D+00 WtEn= 0.00D+00
 Coeff-Com: -0.235D-01-0.105D-02 0.935D-01 0.142D+00 0.790D+00
 Coeff:     -0.235D-01-0.105D-02 0.935D-01 0.142D+00 0.790D+00
 Gap=     0.274 Goal=   None    Shift=    0.000
 RMSDP=1.40D-04 MaxDP=6.85D-03 DE=-1.20D-02 OVMax= 7.49D-03

 Cycle   6  Pass 1  IDiag  1:
 E= -1199.67151780218     Delta-E=       -0.000293794226 Rises=F Damp=F
 DIIS: error= 3.07D-04 at cycle   6 NSaved=   6.
 NSaved= 6 IEnMin= 6 EnMin= -1199.67151780218     IErMin= 6 ErrMin= 3.07D-04
 ErrMax= 3.07D-04  0.00D+00 EMaxC= 1.00D+00 BMatC= 6.29D-05 BMatP= 3.18D-04
 IDIUse=1 WtCom= 1.00D+00 WtEn= 0.00D+00
 Coeff-Com: -0.106D-02-0.531D-03-0.238D-01 0.118D-01 0.345D+00 0.669D+00
 Coeff:     -0.106D-02-0.531D-03-0.238D-01 0.118D-01 0.345D+00 0.669D+00
 Gap=     0.274 Goal=   None    Shift=    0.000
 RMSDP=6.96D-05 MaxDP=4.35D-03 DE=-2.94D-04 OVMax= 2.48D-03

 Cycle   7  Pass 1  IDiag  1:
 E= -1199.67158014920     Delta-E=       -0.000062347014 Rises=F Damp=F
 DIIS: error= 1.07D-04 at cycle   7 NSaved=   7.
 NSaved= 7 IEnMin= 7 EnMin= -1199.67158014920     IErMin= 7 ErrMin= 1.07D-04
 ErrMax= 1.07D-04  0.00D+00 EMaxC= 1.00D+00 BMatC= 6.89D-06 BMatP= 6.29D-05
 IDIUse=1 WtCom= 1.00D+00 WtEn= 0.00D+00
 Coeff-Com:  0.299D-02 0.980D-05-0.252D-01-0.178D-01 0.316D-01 0.256D+00
 Coeff-Com:  0.752D+00
 Coeff:      0.299D-02 0.980D-05-0.252D-01-0.178D-01 0.316D-01 0.256D+00
 Coeff:      0.752D+00
 Gap=     0.274 Goal=   None    Shift=    0.000
 RMSDP=2.69D-05 MaxDP=1.24D-03 DE=-6.23D-05 OVMax= 1.82D-03

 Cycle   8  Pass 1  IDiag  1:
 E= -1199.67159077255     Delta-E=       -0.000010623349 Rises=F Damp=F
 DIIS: error= 5.17D-05 at cycle   8 NSaved=   8.
 NSaved= 8 IEnMin= 8 EnMin= -1199.67159077255     IErMin= 8 ErrMin= 5.17D-05
 ErrMax= 5.17D-05  0.00D+00 EMaxC= 1.00D+00 BMatC= 1.40D-06 BMatP= 6.89D-06
 IDIUse=1 WtCom= 1.00D+00 WtEn= 0.00D+00
 Coeff-Com:  0.139D-02 0.463D-04-0.818D-02-0.943D-02-0.245D-01 0.235D-01
 Coeff-Com:  0.330D+00 0.687D+00
 Coeff:      0.139D-02 0.463D-04-0.818D-02-0.943D-02-0.245D-01 0.235D-01
 Coeff:      0.330D+00 0.687D+00
 Gap=     0.274 Goal=   None    Shift=    0.000
 RMSDP=1.47D-05 MaxDP=6.41D-04 DE=-1.06D-05 OVMax= 7.53D-04

 Cycle   9  Pass 1  IDiag  1:
 E= -1199.67159320973     Delta-E=       -0.000002437188 Rises=F Damp=F
 DIIS: error= 2.41D-05 at cycle   9 NSaved=   9.
 NSaved= 9 IEnMin= 9 EnMin= -1199.67159320973     IErMin= 9 ErrMin= 2.41D-05
 ErrMax= 2.41D-05  0.00D+00 EMaxC= 1.00D+00 BMatC= 2.91D-07 BMatP= 1.40D-06
 IDIUse=1 WtCom= 1.00D+00 WtEn= 0.00D+00
 Coeff-Com: -0.249D-03-0.462D-05 0.398D-02 0.105D-02-0.193D-01-0.730D-01
 Coeff-Com: -0.763D-01 0.289D+00 0.875D+00
 Coeff:     -0.249D-03-0.462D-05 0.398D-02 0.105D-02-0.193D-01-0.730D-01
 Coeff:     -0.763D-01 0.289D+00 0.875D+00
 Gap=     0.274 Goal=   None    Shift=    0.000
 RMSDP=8.59D-06 MaxDP=3.24D-04 DE=-2.44D-06 OVMax= 6.74D-04

 Cycle  10  Pass 1  IDiag  1:
 E= -1199.67159403040     Delta-E=       -0.000000820663 Rises=F Damp=F
 DIIS: error= 9.70D-06 at cycle  10 NSaved=  10.
 NSaved=10 IEnMin=10 EnMin= -1199.67159403040     IErMin=10 ErrMin= 9.70D-06
 ErrMax= 9.70D-06  0.00D+00 EMaxC= 1.00D+00 BMatC= 5.09D-08 BMatP= 2.91D-07
 IDIUse=1 WtCom= 1.00D+00 WtEn= 0.00D+00
 Coeff-Com: -0.333D-03-0.392D-05 0.312D-02 0.188D-02-0.491D-02-0.391D-01
 Coeff-Com: -0.761D-01 0.471D-01 0.370D+00 0.699D+00
 Coeff:     -0.333D-03-0.392D-05 0.312D-02 0.188D-02-0.491D-02-0.391D-01
 Coeff:     -0.761D-01 0.471D-01 0.370D+00 0.699D+00
 Gap=     0.274 Goal=   None    Shift=    0.000
 RMSDP=2.94D-06 MaxDP=1.14D-04 DE=-8.21D-07 OVMax= 1.73D-04

 Cycle  11  Pass 1  IDiag  1:
 E= -1199.67159413948     Delta-E=       -0.000000109086 Rises=F Damp=F
 DIIS: error= 5.43D-06 at cycle  11 NSaved=  11.
 NSaved=11 IEnMin=11 EnMin= -1199.67159413948     IErMin=11 ErrMin= 5.43D-06
 ErrMax= 5.43D-06  0.00D+00 EMaxC= 1.00D+00 BMatC= 8.21D-09 BMatP= 5.09D-08
 IDIUse=1 WtCom= 1.00D+00 WtEn= 0.00D+00
 Coeff-Com: -0.594D-04-0.120D-05 0.112D-03 0.387D-03 0.335D-02 0.339D-02
 Coeff-Com: -0.324D-02-0.497D-01-0.121D+00 0.220D+00 0.947D+00
 Coeff:     -0.594D-04-0.120D-05 0.112D-03 0.387D-03 0.335D-02 0.339D-02
 Coeff:     -0.324D-02-0.497D-01-0.121D+00 0.220D+00 0.947D+00
 Gap=     0.274 Goal=   None    Shift=    0.000
 RMSDP=1.81D-06 MaxDP=5.23D-05 DE=-1.09D-07 OVMax= 1.31D-04

 Cycle  12  Pass 1  IDiag  1:
 E= -1199.67159416698     Delta-E=       -0.000000027500 Rises=F Damp=F
 DIIS: error= 1.77D-06 at cycle  12 NSaved=  12.
 NSaved=12 IEnMin=12 EnMin= -1199.67159416698     IErMin=12 ErrMin= 1.77D-06
 ErrMax= 1.77D-06  0.00D+00 EMaxC= 1.00D+00 BMatC= 1.49D-09 BMatP= 8.21D-09
 IDIUse=1 WtCom= 1.00D+00 WtEn= 0.00D+00
 Coeff-Com:  0.156D-04 0.110D-05-0.309D-03-0.692D-04 0.166D-02 0.483D-02
 Coeff-Com:  0.826D-02-0.201D-01-0.863D-01-0.128D-01 0.367D+00 0.738D+00
 Coeff:      0.156D-04 0.110D-05-0.309D-03-0.692D-04 0.166D-02 0.483D-02
 Coeff:      0.826D-02-0.201D-01-0.863D-01-0.128D-01 0.367D+00 0.738D+00
 Gap=     0.274 Goal=   None    Shift=    0.000
 RMSDP=5.51D-07 MaxDP=1.75D-05 DE=-2.75D-08 OVMax= 4.66D-05

 Cycle  13  Pass 1  IDiag  1:
 E= -1199.67159416990     Delta-E=       -0.000000002918 Rises=F Damp=F
 DIIS: error= 9.14D-07 at cycle  13 NSaved=  13.
 NSaved=13 IEnMin=13 EnMin= -1199.67159416990     IErMin=13 ErrMin= 9.14D-07
 ErrMax= 9.14D-07  0.00D+00 EMaxC= 1.00D+00 BMatC= 5.10D-10 BMatP= 1.49D-09
 IDIUse=1 WtCom= 1.00D+00 WtEn= 0.00D+00
 Coeff-Com:  0.180D-04-0.387D-06-0.169D-03-0.936D-04 0.122D-03 0.137D-02
 Coeff-Com:  0.496D-02 0.151D-02-0.188D-01-0.624D-01-0.687D-02 0.408D+00
 Coeff-Com:  0.672D+00
 Coeff:      0.180D-04-0.387D-06-0.169D-03-0.936D-04 0.122D-03 0.137D-02
 Coeff:      0.496D-02 0.151D-02-0.188D-01-0.624D-01-0.687D-02 0.408D+00
 Coeff:      0.672D+00
 Gap=     0.274 Goal=   None    Shift=    0.000
 RMSDP=2.73D-07 MaxDP=9.91D-06 DE=-2.92D-09 OVMax= 1.85D-05

 Cycle  14  Pass 1  IDiag  1:
 E= -1199.67159417084     Delta-E=       -0.000000000940 Rises=F Damp=F
 DIIS: error= 4.49D-07 at cycle  14 NSaved=  14.
 NSaved=14 IEnMin=14 EnMin= -1199.67159417084     IErMin=14 ErrMin= 4.49D-07
 ErrMax= 4.49D-07  0.00D+00 EMaxC= 1.00D+00 BMatC= 4.38D-11 BMatP= 5.10D-10
 IDIUse=1 WtCom= 1.00D+00 WtEn= 0.00D+00
 Coeff-Com:  0.807D-06-0.281D-06 0.288D-04 0.104D-04-0.326D-03-0.939D-03
 Coeff-Com: -0.271D-03 0.598D-02 0.124D-01-0.164D-01-0.660D-01-0.501D-01
 Coeff-Com:  0.695D-01 0.105D+01
 Coeff:      0.807D-06-0.281D-06 0.288D-04 0.104D-04-0.326D-03-0.939D-03
 Coeff:     -0.271D-03 0.598D-02 0.124D-01-0.164D-01-0.660D-01-0.501D-01
 Coeff:      0.695D-01 0.105D+01
 Gap=     0.274 Goal=   None    Shift=    0.000
 RMSDP=1.46D-07 MaxDP=5.16D-06 DE=-9.40D-10 OVMax= 1.45D-05

 Cycle  15  Pass 1  IDiag  1:
 E= -1199.67159417100     Delta-E=       -0.000000000160 Rises=F Damp=F
 DIIS: error= 2.45D-07 at cycle  15 NSaved=  15.
 NSaved=15 IEnMin=15 EnMin= -1199.67159417100     IErMin=15 ErrMin= 2.45D-07
 ErrMax= 2.45D-07  0.00D+00 EMaxC= 1.00D+00 BMatC= 1.81D-11 BMatP= 4.38D-11
 IDIUse=1 WtCom= 1.00D+00 WtEn= 0.00D+00
 Coeff-Com: -0.335D-05 0.474D-07 0.469D-04 0.271D-04-0.184D-03-0.792D-03
 Coeff-Com: -0.109D-02 0.302D-02 0.960D-02 0.182D-02-0.323D-01-0.968D-01
 Coeff-Com: -0.106D+00 0.531D+00 0.691D+00
 Coeff:     -0.335D-05 0.474D-07 0.469D-04 0.271D-04-0.184D-03-0.792D-03
 Coeff:     -0.109D-02 0.302D-02 0.960D-02 0.182D-02-0.323D-01-0.968D-01
 Coeff:     -0.106D+00 0.531D+00 0.691D+00
 Gap=     0.274 Goal=   None    Shift=    0.000
 RMSDP=6.18D-08 MaxDP=2.24D-06 DE=-1.60D-10 OVMax= 5.16D-06

 Cycle  16  Pass 1  IDiag  1:
 E= -1199.67159417105     Delta-E=       -0.000000000050 Rises=F Damp=F
 DIIS: error= 6.43D-08 at cycle  16 NSaved=  16.
 NSaved=16 IEnMin=16 EnMin= -1199.67159417105     IErMin=16 ErrMin= 6.43D-08
 ErrMax= 6.43D-08  0.00D+00 EMaxC= 1.00D+00 BMatC= 1.22D-12 BMatP= 1.81D-11
 IDIUse=1 WtCom= 1.00D+00 WtEn= 0.00D+00
 Coeff-Com: -0.485D-06-0.119D-07 0.124D-06 0.114D-05 0.356D-04 0.698D-04
 Coeff-Com:  0.173D-04-0.690D-03-0.195D-02 0.321D-02 0.121D-01 0.130D-02
 Coeff-Com: -0.375D-01-0.144D+00 0.694D-01 0.110D+01
 Coeff:     -0.485D-06-0.119D-07 0.124D-06 0.114D-05 0.356D-04 0.698D-04
 Coeff:      0.173D-04-0.690D-03-0.195D-02 0.321D-02 0.121D-01 0.130D-02
 Coeff:     -0.375D-01-0.144D+00 0.694D-01 0.110D+01
 Gap=     0.274 Goal=   None    Shift=    0.000
 RMSDP=3.09D-08 MaxDP=1.25D-06 DE=-4.96D-11 OVMax= 2.49D-06

 Cycle  17  Pass 1  IDiag  1:
 E= -1199.67159417105     Delta-E=       -0.000000000003 Rises=F Damp=F
 DIIS: error= 2.47D-08 at cycle  17 NSaved=  17.
 NSaved=17 IEnMin=17 EnMin= -1199.67159417105     IErMin=17 ErrMin= 2.47D-08
 ErrMax= 2.47D-08  0.00D+00 EMaxC= 1.00D+00 BMatC= 9.99D-14 BMatP= 1.22D-12
 IDIUse=1 WtCom= 1.00D+00 WtEn= 0.00D+00
 Coeff-Com:  0.154D-06 0.694D-08-0.362D-05-0.164D-05 0.212D-04 0.698D-04
 Coeff-Com:  0.980D-04-0.339D-03-0.113D-02 0.355D-03 0.495D-02 0.840D-02
 Coeff-Com:  0.833D-03-0.667D-01-0.435D-01 0.197D+00 0.900D+00
 Coeff:      0.154D-06 0.694D-08-0.362D-05-0.164D-05 0.212D-04 0.698D-04
 Coeff:      0.980D-04-0.339D-03-0.113D-02 0.355D-03 0.495D-02 0.840D-02
 Coeff:      0.833D-03-0.667D-01-0.435D-01 0.197D+00 0.900D+00
 Gap=     0.274 Goal=   None    Shift=    0.000
 RMSDP=5.87D-09 MaxDP=2.47D-07 DE=-2.73D-12 OVMax= 4.32D-07

 SCF Done:  E(RwB97XD) =  -1199.67159417     A.U. after   17 cycles
            NFock= 17  Conv=0.59D-08     -V/T= 2.0020
 KE= 1.197281942181D+03 PE=-4.662969469454D+03 EE= 1.358136128742D+03
 Leave Link  502 at Fri May 23 05:02:20 2025, MaxMem=  3758096384 cpu:              72.3 elap:              15.6
 (Enter /apps/easybuild-2022/easybuild/software/Compiler/NVHPC/22.11-CUDA-11.7.0/Gaussian/g16c01-CUDA-11.7.0/g16/l508.exe)
 QCSCF skips out because SCF is already converged.
 Leave Link  508 at Fri May 23 05:02:20 2025, MaxMem=  3758096384 cpu:               0.1 elap:               0.0
 (Enter /apps/easybuild-2022/easybuild/software/Compiler/NVHPC/22.11-CUDA-11.7.0/Gaussian/g16c01-CUDA-11.7.0/g16/l801.exe)
 DoSCS=F DFT=T ScalE2(SS,OS)=  1.000000  1.000000
 Range of M.O.s used for correlation:     1   257
 NBasis=   257 NAE=    49 NBE=    49 NFC=     0 NFV=     0
 NROrb=    257 NOA=    49 NOB=    49 NVA=   208 NVB=   208

 **** Warning!!: The largest alpha MO coefficient is  0.37848632D+02

 Leave Link  801 at Fri May 23 05:02:20 2025, MaxMem=  3758096384 cpu:               0.0 elap:               0.0
 (Enter /apps/easybuild-2022/easybuild/software/Compiler/NVHPC/22.11-CUDA-11.7.0/Gaussian/g16c01-CUDA-11.7.0/g16/l1101.exe)
 Using compressed storage, NAtomX=    12.
 Will process     13 centers per pass.
 R6Disp: Adding Grimme-D2 dispersion energy 1st derivatives to the gradient.
 Leave Link 1101 at Fri May 23 05:02:20 2025, MaxMem=  3758096384 cpu:               0.7 elap:               0.3
 (Enter /apps/easybuild-2022/easybuild/software/Compiler/NVHPC/22.11-CUDA-11.7.0/Gaussian/g16c01-CUDA-11.7.0/g16/l1102.exe)
 Symmetrizing basis deriv contribution to polar:
 IMax=3 JMax=2 DiffMx= 0.00D+00
 Leave Link 1102 at Fri May 23 05:02:20 2025, MaxMem=  3758096384 cpu:               0.1 elap:               0.0
 (Enter /apps/easybuild-2022/easybuild/software/Compiler/NVHPC/22.11-CUDA-11.7.0/Gaussian/g16c01-CUDA-11.7.0/g16/l1110.exe)
 Forming Gx(P) for the SCF density, NAtomX=    12.
 Integral derivatives from FoFJK, PRISM(SPDF).
 Do as many integral derivatives as possible in FoFJK.
 G2DrvN: MDV=    3758095012.
 G2DrvN: will do    13 centers at a time, making    1 passes.
 Calling FoFCou, ICntrl=  3107 FMM=F I1Cent=   0 AccDes= 0.00D+00.
 FoFJK:  IHMeth= 1 ICntrl=    3107 DoSepK=T KAlg= 0 I1Cent=           0 FoldK=F
 IRaf=         1 NMat=       1 IRICut=       1 DoRegI=T DoRafI=F ISym2E= 0 IDoP0=0 IntGTp=1.
 FoFCou: FMM=F IPFlag=           0 FMFlag=      100000 FMFlg1=           0
         NFxFlg=           0 DoJE=F BraDBF=F KetDBF=F FulRan=T
         wScrn=  0.000000 ICntrl=      3507 IOpCl=  0 I1Cent=           0 NGrid=           0
         NMat0=    1 NMatS0=      1 NMatT0=    0 NMatD0=    1 NMtDS0=    0 NMtDT0=    0
 Symmetry not used in FoFCou.
 End of G2Drv F.D. properties file   721 does not exist.
[...]
     18 -0.105454D-02  0.143701D-02 -0.448428D-02  0.248681D+00 -0.255357D+00
     19 -0.154625D-02  0.154645D-02 -0.743498D-01  0.849097D-02 -0.604517D-01
     20  0.173423D-02  0.249117D-02  0.441166D-02 -0.765466D-01  0.304328D-01
     21  0.597329D-02  0.115544D-01 -0.958808D-01  0.319068D-01 -0.600928D+00
     22 -0.149059D-02 -0.113173D-02 -0.170693D+00 -0.489278D-01 -0.443501D-01
     23 -0.706634D-03 -0.384733D-03 -0.512122D-01 -0.102043D+00 -0.634298D-02
     24  0.584275D-03  0.146073D-02 -0.261028D-01  0.799256D-02 -0.765665D-01
     25  0.795317D-03  0.212629D-02 -0.724466D-01 -0.750509D-01 -0.890197D-02
     26 -0.682311D-02 -0.963233D-02  0.644352D-02 -0.935089D-02 -0.565032D-02
     27 -0.903577D-05 -0.808346D-03  0.389915D-02  0.762117D-02 -0.341075D-01
     28  0.243162D-02  0.245972D-02 -0.234465D-02 -0.124833D-01 -0.429707D-02
     29  0.319718D-02 -0.465287D-03 -0.220603D-01 -0.120099D-01  0.559254D-02
     30 -0.252167D-02  0.672396D-02  0.207422D-01  0.543030D-02 -0.947400D-02
     31  0.339967D-02 -0.483284D-03 -0.662296D-02 -0.177562D-01 -0.193853D-02
     32 -0.692654D-02 -0.446616D-02 -0.190793D-01 -0.113496D-01  0.242393D-02
     33 -0.130547D-02 -0.181826D-02 -0.236715D-01 -0.544899D-02  0.177270D-02
     34  0.287824D-03  0.229380D-03 -0.377919D-02 -0.423888D-01  0.101344D-01
     35  0.277454D-03  0.243061D-03 -0.111595D-01 -0.143332D-01  0.679718D-02
     36 -0.117827D-03 -0.265642D-03 -0.914455D-03 -0.785347D-02  0.629555D-02
               16            17            18            19            20 
     16  0.829382D-01
     17 -0.214179D-02  0.460260D+00
     18  0.166600D-01 -0.284781D+00  0.242353D+00
     19  0.123254D-01  0.240198D-02 -0.755022D-02  0.847954D-01
     20 -0.565279D-03  0.640044D-02  0.293329D-01  0.449687D-02  0.564794D-01
     21  0.522089D-02 -0.839121D-02 -0.651098D-02  0.876203D-01 -0.307890D-01
     22 -0.604447D-02 -0.690857D-02 -0.236482D-02 -0.117338D-01 -0.867730D-02
     23 -0.495090D-01 -0.359164D-01  0.605536D-02 -0.124247D-01  0.112900D-01
     24  0.172901D-01  0.196125D-01  0.867441D-02 -0.389156D-01 -0.171897D-01
     25  0.207731D-01 -0.903344D-02  0.288345D-02  0.157992D-01  0.799573D-02
     26 -0.176594D-02  0.888174D-02 -0.203331D-02 -0.332897D-03 -0.154110D-02
     27 -0.840290D-03  0.207308D-02  0.500965D-02  0.119905D-02 -0.145294D-01
     28  0.203357D-02 -0.142156D-02  0.702349D-03  0.160841D-02  0.906382D-03
     29  0.706597D-02 -0.449278D-02  0.599043D-03  0.426508D-02  0.158880D-02
     30 -0.605546D-02  0.340664D-02  0.286285D-05 -0.279898D-02 -0.158979D-02
     31  0.367487D-02 -0.179876D-02  0.371115D-03  0.197858D-02  0.131023D-02
     32  0.688009D-02 -0.485477D-02  0.141948D-02  0.382700D-02  0.104782D-02
     33  0.695685D-02 -0.502199D-02  0.210791D-02  0.449561D-02  0.379859D-03
     34 -0.612464D-02 -0.654280D-02 -0.371633D-04 -0.593018D-03  0.305563D-02
     35 -0.375153D-03  0.220716D-02 -0.262586D-03  0.456577D-02  0.235554D-02
     36 -0.908568D-03  0.502901D-03  0.267486D-02 -0.648151D-03  0.160238D-02
               21            22            23            24            25 
     21  0.635743D+00
     22 -0.934069D-02  0.258146D+00
     23 -0.416056D-02  0.640165D-01  0.599594D+00
     24 -0.115153D-01  0.571784D-01 -0.148114D+00  0.130532D+00
     25 -0.749139D-02 -0.389514D-01  0.393070D-01  0.136955D-01  0.442397D-01
     26  0.521818D-02  0.163360D-01 -0.472669D-02 -0.400199D-02  0.271300D-01
     27  0.979325D-03  0.333097D-02 -0.335240D-02  0.881519D-02  0.339670D-02
     28 -0.169781D-03 -0.168224D-02  0.199342D-02  0.114968D-02 -0.281626D-01
     29 -0.741295D-02  0.156507D-02  0.268394D-02 -0.890258D-04 -0.490406D-02
     30  0.766790D-02 -0.227204D-02 -0.123606D-02  0.788420D-03 -0.952260D-02
     31 -0.208005D-02 -0.232343D-02  0.293717D-02  0.752361D-03 -0.396402D-01
     32 -0.449217D-02  0.144088D-02  0.260019D-02  0.488891D-03 -0.453210D-02
     33 -0.380018D-02  0.294405D-02  0.181556D-02  0.465423D-03  0.120598D-01
     34  0.390672D-03 -0.341384D-01  0.238114D-01 -0.187593D-01  0.454454D-02
     35  0.147930D-02 -0.168350D-01 -0.464248D+00  0.143798D+00  0.457534D-02
     36 -0.377550D-02 -0.521728D-02  0.156473D+00 -0.612516D-01 -0.374097D-02
               26            27            28            29            30 
     26  0.608554D-01
     27  0.186897D-01  0.346655D-01
     28  0.108505D-01 -0.113641D-01  0.602374D-01
     29  0.126719D-01  0.170270D-02 -0.578739D-01  0.212170D+00
     30 -0.252306D-02 -0.186984D-02  0.691076D-01 -0.196738D+00  0.376254D+00
     31  0.125985D-01  0.194045D-01  0.109812D-01 -0.590737D-02 -0.237211D-02
     32  0.138162D-01  0.197269D-02 -0.521482D-02  0.245497D-01  0.184260D-01
     33  0.499806D-02 -0.984957D-05  0.422207D-02 -0.499409D-02 -0.771288D-01
     34  0.465191D-02 -0.365007D-03  0.106678D-02  0.155515D-03  0.385196D-03
     35 -0.542854D-02 -0.119549D-02  0.111955D-03 -0.748589D-03  0.722647D-03
     36 -0.136220D-02 -0.178884D-02 -0.710701D-03  0.158322D-03 -0.635294D-03
               31            32            33            34            35 
     31  0.665208D-01
     32 -0.484448D-01  0.157069D+00
     33 -0.812981D-01  0.162133D+00  0.416115D+00
     34  0.152617D-02  0.796669D-04 -0.686950D-03  0.443613D-01
     35  0.167395D-03 -0.636506D-03 -0.805468D-03  0.181748D-01  0.479097D+00
     36 -0.690530D-03 -0.162727D-03  0.493051D-04  0.902192D-02 -0.150046D+00
               36 
     36  0.578384D-01
 Red2BG is reusing G-inverse.
 Leave Link  716 at Fri May 23 05:10:57 2025, MaxMem=  3758096384 cpu:               0.1 elap:               0.0
 (Enter /apps/easybuild-2022/easybuild/software/Compiler/NVHPC/22.11-CUDA-11.7.0/Gaussian/g16c01-CUDA-11.7.0/g16/l9999.exe)

 ----------------------------------------------------------------------

 Electric dipole moment (input orientation):
 (Debye = 10**-18 statcoulomb cm , SI units = C m)
                  (au)            (Debye)         (10**-30 SI)
   Tot        0.137568D+01      0.349663D+01      0.116635D+02
   x         -0.739114D+00     -0.187864D+01     -0.626647D+01
   y          0.115859D+01      0.294485D+01      0.982296D+01
   z          0.622330D-01      0.158180D+00      0.527633D+00

 Dipole polarizability, Alpha (input orientation).
 (esu units = cm**3 , SI units = C**2 m**2 J**-1)
 Alpha(0;0):
               (au)            (10**-24 esu)      (10**-40 SI)
   iso        0.705861D+02      0.104598D+02      0.116381D+02
   aniso      0.349413D+02      0.517776D+01      0.576104D+01
   xx         0.878466D+02      0.130175D+02      0.144839D+02
   yx        -0.112711D+02     -0.167021D+01     -0.185836D+01
   yy         0.669240D+02      0.991711D+01      0.110343D+02
   zx        -0.554574D+01     -0.821794D+00     -0.914369D+00
   zy         0.102225D+01      0.151482D+00      0.168546D+00
   zz         0.569877D+02      0.844471D+01      0.939601D+01

 ----------------------------------------------------------------------

 Dipole orientation:
     6          1.09222421          0.10882427          2.41428707
     6          0.19442423         -0.34191505         -0.06462943
     9          0.46250233         -2.69236279         -0.87235151
     9         -2.05869285          0.60576291         -0.61488071
    16          2.97799938          2.13600396         -2.30934440
     8          2.92327308          0.18906585         -4.20646856
     8          1.33128111          4.29263107         -2.11947297
     8          5.80331837          3.18633940         -2.69597175
     9          4.21796731          1.75368830          1.19881058
     9          0.28000281          1.97925236          3.70236399
     9          2.31755972         -1.54821187          3.67492162
     1          6.25982443          4.22774064         -1.26749852

 Electric dipole moment (dipole orientation):
 (Debye = 10**-18 statcoulomb cm , SI units = C m)
                  (au)            (Debye)         (10**-30 SI)
   Tot        0.137568D+01      0.349663D+01      0.116635D+02
   x          0.000000D+00      0.000000D+00      0.000000D+00
   y          0.000000D+00      0.000000D+00      0.000000D+00
   z          0.137568D+01      0.349663D+01      0.116635D+02

 Dipole polarizability, Alpha (dipole orientation).
 (esu units = cm**3 , SI units = C**2 m**2 J**-1)
 Alpha(0;0):
               (au)            (10**-24 esu)      (10**-40 SI)
   iso        0.705861D+02      0.104598D+02      0.116381D+02
   aniso      0.349413D+02      0.517776D+01      0.576104D+01
   xx         0.641163D+02      0.950106D+01      0.105714D+02
   yx         0.821238D+01      0.121695D+01      0.135404D+01
   yy         0.641512D+02      0.950623D+01      0.105771D+02
   zx        -0.107258D+02     -0.158941D+01     -0.176845D+01
   zy        -0.997896D+01     -0.147873D+01     -0.164531D+01
   zz         0.834907D+02      0.123720D+02      0.137658D+02

 ----------------------------------------------------------------------
 Unable to Open any file for archive entry.
 1\1\GINC-SPARTAN-BM191\Freq\RwB97XD\6-311++G(d,p)\C2H1F5O3S1\AKHALILOV
 \23-May-2025\0\\#P wb97xd/6-311++G(d,p) Symm(None) scf(xqc) pop(None) 
 opt(NoFreeze,TS,CalcAll,NoEigentest,MaxCycle=999)\\Gaussian input prep
 ared by ASE\\0,1\C,-0.2431185515,1.3446956379,0.319827451\C,0.01451956
 25,-0.0424171471,0.2061114254\F,-0.1915990556,-0.7407474626,1.31051897
 35\F,-0.4749661473,-0.6426170462,-0.870000414\S,2.2865758074,0.0162924
 543,-0.1605581909\O,2.3589780645,-1.1728724731,0.6461608344\O,2.095886
 6244,0.0904771883,-1.5853394514\O,3.7193111121,0.6698566949,0.16535324
 47\F,1.6765375578,1.7988054619,0.446347178\F,-0.4919610272,2.050810488
 5,-0.7138564082\F,-0.5117820406,1.9053979619,1.4368751608\H,3.72660502
 41,1.5881846421,-0.1347828555\\Version=ES64L-G16RevC.01\HF=-1199.67453
 36\RMSD=6.529e-09\RMSF=1.125e-06\ZeroPoint=0.0486201\Thermal=0.0593784
 \ETot=-1199.6151552\HTot=-1199.614211\GTot=-1199.6630789\Dipole=-0.739
 1135,1.1585929,0.062233\DipoleDeriv=0.9431634,-0.1070871,0.0201547,-2.
 0923625,2.206535,0.3681056,-0.1811484,0.0856954,1.6760968,-0.6220125,1
 .2615232,0.3657104,1.6620353,0.1683673,-0.3276128,0.2784829,-0.2014564
 ,1.1211154,-0.2148584,-0.3088905,0.1466764,-0.3936417,-0.3629792,0.324
 9902,0.3783614,0.3111986,-0.6980561,-0.311675,-0.3808022,-0.2718913,-0
 .4415501,-0.3173314,-0.1802124,-0.489022,-0.2000777,-0.533894,3.805373
 1,-0.4903372,-0.2200577,0.5081694,1.9512135,-0.0773851,-0.2181725,0.08
 56584,2.0423717,-1.0243141,0.2307551,0.0237337,0.4440141,-0.8585532,0.
 135581,-0.1125843,0.2442985,-0.5786309,-0.905541,0.0760251,0.0451342,-
 0.0067192,-0.470712,0.0622421,0.405632,-0.1527632,-1.0806934,-1.181180
 6,-0.2729973,-0.0399966,-0.5293805,-0.5218827,-0.0500213,-0.0428606,-0
 .0451088,-0.4705455,-0.4645087,-0.2112199,-0.0324662,-0.3547841,-0.918
 8357,-0.1762998,-0.0420358,-0.1541727,-0.4433437,-0.2028197,0.0911498,
 -0.1309453,0.5635579,-0.6506542,0.2704804,-0.5980269,0.5112921,-0.5438
 109,-0.1579119,0.0350862,0.1241422,0.5065552,-0.5400997,-0.3776355,0.6
 869888,-0.4989532,-0.7954455,0.3362853,0.0767949,-0.0301944,0.1341061,
 0.3149321,0.0277675,-0.0656144,0.0143889,0.3048362\Polar=87.8465741,-1
 1.2711356,66.9239871,-5.5457374,1.0222514,56.9877427\PG=Unknown\NImag=
 1\\0.11930258,-0.17263980,0.68112341,-0.01514311,-0.01145638,0.7305290
 3,-0.07991929,-0.11533263,-0.01226082,0.10077059,0.07769058,-0.2613238
 7,-0.01704014,0.13556516,0.65763665,0.00981549,0.00070710,-0.05144547,
 0.06490270,-0.01603462,0.56628855,0.00064264,0.02792952,0.00132584,-0.
 03653906,-0.05047880,0.03951811,0.04411094,-0.01419550,-0.03443568,0.0
 4655356,-0.04164537,-0.16355297,0.12744185,0.03067982,0.18558908,0.007
 03832,0.01231458,-0.02383740,0.03497108,0.13468627,-0.23845443,-0.0332
 3220,-0.16998386,0.32418241,0.00200399,0.03030433,-0.00022672,-0.06137
 730,-0.08158454,-0.09560001,0.00429608,0.00764120,-0.00221620,0.076868
 38,-0.02348092,-0.02825036,-0.04143654,-0.06484033,-0.13861535,-0.1028
 4244,0.00964353,0.01896846,0.01202681,0.06713238,0.14963740,-0.0137454
 6,-0.01906824,-0.02479312,-0.08725330,-0.10773865,-0.22528213,-0.01528
 042,-0.00716350,-0.06572288,0.10398445,0.13973990,0.31392481,0.0143982
 4,0.12272886,0.01414161,0.06902441,-0.08776014,-0.01492787,-0.00545609
 ,0.01791185,-0.01427157,-0.01117195,0.01374275,0.01337591,0.32221885,0
 .08617197,0.08840274,0.00823316,0.05978004,-0.04891681,-0.01166096,-0.
 01254929,-0.00460367,0.00814017,-0.01671297,-0.00042790,-0.00153473,0.
 02576286,0.63204866,0.01575422,-0.01137870,0.01238679,-0.00110844,0.01
 063504,0.00099571,0.01018391,0.00519034,-0.00979125,-0.01360168,-0.009
 03676,-0.01641050,0.12809444,-0.29150720,0.98118415,-0.01604817,-0.040
 70695,-0.00363818,-0.03687171,0.04219652,0.00025095,0.00156113,-0.0006
 6686,0.00040914,0.00055999,-0.00607502,-0.00582802,-0.05877731,0.04566
 341,-0.02951743,0.08293816,0.00854817,0.02704859,0.00287923,0.01167061
 ,-0.03521787,0.00800307,-0.00074868,0.00861791,-0.00910644,0.00570475,
 0.00793516,0.00797949,0.00027009,-0.44086937,0.26284412,-0.00214179,0.
 46026015,-0.00346495,-0.00680226,-0.00312262,-0.00536614,0.01489671,-0
 .00293065,0.00121846,-0.00605063,0.00566189,0.00143220,-0.00105454,0.0
 0143701,-0.00448428,0.24868119,-0.25535749,0.01665999,-0.28478140,0.24
 235315,-0.00925648,-0.02501743,-0.00338426,-0.01836905,0.01666394,0.01
 189163,-0.00320260,-0.00539037,0.00699586,0.00099759,-0.00154625,0.001
 54645,-0.07434978,0.00849097,-0.06045174,0.01232544,0.00240198,-0.0075
 5022,0.08479542,-0.00711313,-0.00881479,0.00093560,-0.01061976,0.00462
 419,0.00095956,0.00246290,0.00138202,-0.00203637,0.00233607,0.00173423
 ,0.00249117,0.00441166,-0.07654657,0.03043281,-0.00056528,0.00640044,0
 .02933295,0.00449687,0.05647943,0.00707171,0.03048945,-0.00338229,0.00
 888280,-0.02553200,-0.01978007,0.00497048,0.00571092,-0.00625262,0.000
 80581,0.00597329,0.01155436,-0.09588080,0.03190680,-0.60092759,0.00522
 089,-0.00839121,-0.00651098,0.08762035,-0.03078905,0.63574295,0.007723
 02,-0.00179311,0.00007559,0.00309409,0.00300151,-0.00124104,-0.0017379
 7,-0.00172767,0.00238868,-0.00165886,-0.00149059,-0.00113173,-0.170692
 96,-0.04892779,-0.04435013,-0.00604447,-0.00690857,-0.00236482,-0.0117
 3375,-0.00867730,-0.00934069,0.25814643,-0.01154060,-0.01829585,-0.002
 51657,-0.01021650,0.00963741,0.00216803,0.00133847,0.00013209,-0.00040
 519,0.00149902,-0.00070663,-0.00038473,-0.05121224,-0.10204339,-0.0063
 4298,-0.04950901,-0.03591638,0.00605536,-0.01242467,0.01128998,-0.0041
 6056,0.06401655,0.59959353,-0.00377287,-0.00374333,-0.00198205,-0.0031
 5589,0.00129340,-0.00078196,-0.00035659,-0.00063125,0.00136122,0.00099
 696,0.00058427,0.00146073,-0.02610279,0.00799256,-0.07656652,0.0172901
 3,0.01961250,0.00867441,-0.03891559,-0.01718973,-0.01151531,0.05717843
 ,-0.14811388,0.13053204,0.07655623,0.07387316,0.00928670,0.03587575,-0
 .06186429,-0.01330270,-0.00694816,0.00170824,-0.00048877,-0.01163963,0
 .00079532,0.00212629,-0.07244662,-0.07505092,-0.00890197,0.02077315,-0
 .00903344,0.00288345,0.01579924,0.00799573,-0.00749139,-0.03895142,0.0
 3930702,0.01369550,0.04423972,-0.04196833,-0.07034199,-0.00742404,-0.0
 2017707,0.00844565,-0.00761735,-0.00443839,-0.00645847,0.01133871,-0.0
 0932778,-0.00682311,-0.00963233,0.00644352,-0.00935089,-0.00565032,-0.
 00176594,0.00888174,-0.00203331,-0.00033290,-0.00154110,0.00521818,0.0
 1633604,-0.00472669,-0.00400199,0.02713000,0.06085538,-0.01249713,-0.0
 1244980,-0.02024420,-0.00319879,0.00265158,0.00497775,-0.00333940,-0.0
 0317475,0.00438124,0.00037435,-0.00000904,-0.00080835,0.00389915,0.007
 62117,-0.03410754,-0.00084029,0.00207308,0.00500965,0.00119905,-0.0145
 2939,0.00097933,0.00333097,-0.00335240,0.00881519,0.00339670,0.0186896
 5,0.03466547,-0.05670727,0.05176189,-0.05096789,0.00986958,0.00620866,
 -0.01078252,0.00397153,0.00272915,0.00065069,-0.00087171,0.00243162,0.
 00245972,-0.00234465,-0.01248327,-0.00429707,0.00203357,-0.00142156,0.
 00070235,0.00160841,0.00090638,-0.00016978,-0.00168224,0.00199342,0.00
 114968,-0.02816261,0.01085050,-0.01136412,0.06023739,0.05306888,-0.211
 02774,0.16030734,0.03039884,-0.01978858,0.03791030,0.00081265,-0.00879
 394,0.00342864,-0.00658630,0.00319718,-0.00046529,-0.02206035,-0.01200
 992,0.00559254,0.00706597,-0.00449278,0.00059904,0.00426508,0.00158880
 ,-0.00741295,0.00156507,0.00268394,-0.00008903,-0.00490406,0.01267186,
 0.00170270,-0.05787392,0.21217010,-0.04336317,0.15901849,-0.29149436,-
 0.03671850,0.01709129,-0.00945878,0.00312322,0.00051272,-0.00137609,0.
 00974468,-0.00252167,0.00672396,0.02074218,0.00543030,-0.00947400,-0.0
 0605546,0.00340664,0.00000286,-0.00279898,-0.00158979,0.00766790,-0.00
 227204,-0.00123606,0.00078842,-0.00952260,-0.00252306,-0.00186984,0.06
 910758,-0.19673754,0.37625403,-0.05272038,0.05247857,0.06108385,0.0170
 7274,-0.00152201,0.00879479,-0.00158372,0.00253767,-0.00154403,0.00113
 632,0.00339967,-0.00048328,-0.00662296,-0.01775623,-0.00193853,0.00367
 487,-0.00179876,0.00037111,0.00197858,0.00131023,-0.00208005,-0.002323
 43,0.00293717,0.00075236,-0.03964019,0.01259845,0.01940452,0.01098121,
 -0.00590737,-0.00237211,0.06652079,0.04552666,-0.16693836,-0.13908281,
 0.02489129,-0.01103414,-0.03888513,-0.00496347,0.00265692,0.00022478,-
 0.00041106,-0.00692654,-0.00446616,-0.01907933,-0.01134964,0.00242393,
 0.00688009,-0.00485477,0.00141948,0.00382700,0.00104782,-0.00449217,0.
 00144088,0.00260019,0.00048889,-0.00453210,0.01381616,0.00197269,-0.00
 521482,0.02454967,0.01842603,-0.04844480,0.15706920,0.04938029,-0.1394
 4092,-0.32370093,0.03867980,-0.01378614,-0.02401247,-0.00787510,0.0014
 7639,0.00995970,-0.00520677,-0.00130547,-0.00181826,-0.02367153,-0.005
 44899,0.00177270,0.00695685,-0.00502199,0.00210791,0.00449561,0.000379
 86,-0.00380018,0.00294405,0.00181556,0.00046542,0.01205976,0.00499806,
 -0.00000985,0.00422207,-0.00499409,-0.07712882,-0.08129809,0.16213319,
 0.41611546,-0.00597511,-0.00358642,-0.00029262,-0.00263075,0.00188342,
 0.00068047,0.00088528,0.00041783,-0.00070100,0.00085711,0.00028782,0.0
 0022938,-0.00377919,-0.04238879,0.01013442,-0.00612464,-0.00654280,-0.
 00003716,-0.00059302,0.00305563,0.00039067,-0.03413845,0.02381137,-0.0
 1875932,0.00454454,0.00465191,-0.00036501,0.00106678,0.00015551,0.0003
 8520,0.00152617,0.00007967,-0.00068695,0.04436128,-0.00006797,0.002853
 89,0.00004759,0.00052573,-0.00189431,-0.00014941,0.00031176,0.00049824
 ,-0.00062811,0.00000489,0.00027745,0.00024306,-0.01115953,-0.01433324,
 0.00679718,-0.00037515,0.00220716,-0.00026259,0.00456577,0.00235554,0.
 00147930,-0.01683502,-0.46424819,0.14379758,0.00457534,-0.00542854,-0.
 00119549,0.00011195,-0.00074859,0.00072265,0.00016739,-0.00063651,-0.0
 0080547,0.01817484,0.47909710,0.00292664,0.00181000,0.00108662,0.00162
 549,-0.00112273,-0.00011604,-0.00025632,0.00011821,-0.00011179,-0.0004
 8707,-0.00011783,-0.00026564,-0.00091446,-0.00785347,0.00629555,-0.000
 90857,0.00050290,0.00267486,-0.00064815,0.00160238,-0.00377550,-0.0052
 1728,0.15647343,-0.06125160,-0.00374097,-0.00136220,-0.00178884,-0.000
 71070,0.00015832,-0.00063529,-0.00069053,-0.00016273,0.00004931,0.0090
 2192,-0.15004630,0.05783838\\0.00000077,0.00000033,0.00000222,-0.00000
 034,-0.00000111,-0.00000110,0.00000042,-0.00000161,-0.00000148,0.00000
 049,0.00000084,-0.00000087,-0.00000007,-0.00000034,-0.00000064,0.00000
 072,-0.00000057,-0.00000222,0.00000040,0.00000226,-0.00000079,-0.00000
 004,0.00000069,-0.00000008,-0.00000171,0.00000052,0.00000041,0.0000000
 1,0.00000041,0.00000210,-0.00000026,-0.00000238,0.00000164,-0.00000039
 ,0.00000095,0.00000081\\\@
 The archive entry for this job was punched.


 "PERFECTION IS NOT AN ACCIDENT"
         --  EAGLE ELECTRIC MANUFACTURING CO.,INC. NY
 Job cpu time:       0 days  1 hours 13 minutes 50.7 seconds.
 Elapsed time:       0 days  0 hours 10 minutes 18.9 seconds.
 File lengths (MBytes):  RWF=    104 Int=      0 D2E=      0 Chk=      6 Scr=      1
 Normal termination of Gaussian 16 at Fri May 23 05:10:57 2025.
done
