 Entering Gaussian System, Link 0=g16
 Initial command:
 /apps/easybuild-2022/easybuild/software/Compiler/NVHPC/22.11-CUDA-11.7.0/Gaussian/g16c01-CUDA-11.7.0/g16/l1.exe "/tmp/Gau-59358.inp" -scrdir="/tmp/"
 Entering Link 1 = /apps/easybuild-2022/easybuild/software/Compiler/NVHPC/22.11-CUDA-11.7.0/Gaussian/g16c01-CUDA-11.7.0/g16/l1.exe PID=     59359.
  
 Copyright (c) 1988-2019, Gaussian, Inc.  All Rights Reserved.
  
 This is part of the Gaussian(R) 16 program.  It is based on
 the Gaussian(R) 09 system (copyright 2009, Gaussian, Inc.),
 the Gaussian(R) 03 system (copyright 2003, Gaussian, Inc.),
 the Gaussian(R) 98 system (copyright 1998, Gaussian, Inc.),
 the Gaussian(R) 94 system (copyright 1995, Gaussian, Inc.),
 the Gaussian 92(TM) system (copyright 1992, Gaussian, Inc.),
 the Gaussian 90(TM) system (copyright 1990, Gaussian, Inc.),
 the Gaussian 88(TM) system (copyright 1988, Gaussian, Inc.),
 the Gaussian 86(TM) system (copyright 1986, Carnegie Mellon
 University), and the Gaussian 82(TM) system (copyright 1983,
 Carnegie Mellon University). Gaussian is a federally registered
 trademark of Gaussian, Inc.
  
 This software contains proprietary and confidential information,
 including trade secrets, belonging to Gaussian, Inc.
  
 This software is provided under written license and may be
 used, copied, transmitted, or stored only in accord with that
 written license.
  
 The following legend is applicable only to US Government
 contracts under FAR:
  
                    RESTRICTED RIGHTS LEGEND
  
 Use, reproduction and disclosure by the US Government is
 subject to restrictions as set forth in subparagraphs (a)
 and (c) of the Commercial Computer Software - Restricted
 Rights clause in FAR 52.227-19.
  
 Gaussian, Inc.
 340 Quinnipiac St., Bldg. 40, Wallingford CT 06492
  
  
 ---------------------------------------------------------------
 Warning -- This program may not be used in any manner that
 competes with the business of Gaussian, Inc. or will provide
 assistance to any competitor of Gaussian, Inc.  The licensee
 of this program is prohibited from giving any competitor of
 Gaussian, Inc. access to this program.  By using this program,
 the user acknowledges that Gaussian, Inc. is engaged in the
 business of creating and licensing software in the field of
 computational chemistry and represents and warrants to the
 licensee that it is not a competitor of Gaussian, Inc. and that
 it will not use this program in any manner prohibited above.
 ---------------------------------------------------------------
  

 Cite this work as:
 Gaussian 16, Revision C.01,
 M. J. Frisch, G. W. Trucks, H. B. Schlegel, G. E. Scuseria, 
 M. A. Robb, J. R. Cheeseman, G. Scalmani, V. Barone, 
 G. A. Petersson, H. Nakatsuji, X. Li, M. Caricato, A. V. Marenich, 
 J. Bloino, B. G. Janesko, R. Gomperts, B. Mennucci, H. P. Hratchian, 
 J. V. Ortiz, A. F. Izmaylov, J. L. Sonnenberg, D. Williams-Young, 
 F. Ding, F. Lipparini, F. Egidi, J. Goings, B. Peng, A. Petrone, 
 T. Henderson, D. Ranasinghe, V. G. Zakrzewski, J. Gao, N. Rega, 
 G. Zheng, W. Liang, M. Hada, M. Ehara, K. Toyota, R. Fukuda, 
 J. Hasegawa, M. Ishida, T. Nakajima, Y. Honda, O. Kitao, H. Nakai, 
 T. Vreven, K. Throssell, J. A. Montgomery, Jr., J. E. Peralta, 
 F. Ogliaro, M. J. Bearpark, J. J. Heyd, E. N. Brothers, K. N. Kudin, 
 V. N. Staroverov, T. A. Keith, R. Kobayashi, J. Normand, 
 K. Raghavachari, A. P. Rendell, J. C. Burant, S. S. Iyengar, 
 J. Tomasi, M. Cossi, J. M. Millam, M. Klene, C. Adamo, R. Cammi, 
 J. W. Ochterski, R. L. Martin, K. Morokuma, O. Farkas, 
 J. B. Foresman, and D. J. Fox, Gaussian, Inc., Wallingford CT, 2019.
 
 ******************************************
 Gaussian 16:  ES64L-G16RevC.01  3-Jul-2019
                23-May-2025 
 ******************************************
 %mem=28GB
 %nprocshared=8
 Will use up to    8 processors via shared memory.
 ----------------------------------------------------------------------
 #P wb97xd/6-311++G(d,p) Symm(None) scf(xqc) pop(None) opt(NoFreeze,TS,
 CalcAll,NoEigentest,MaxCycle=999)
 ----------------------------------------------------------------------
 1/5=1,6=999,10=4,11=1,18=20,26=3,29=2000,38=1/1,3;
 2/9=110,12=2,15=3,17=6,18=5,40=1/2;
 3/5=4,6=6,7=1111,11=2,25=1,30=1,71=2,74=-58,140=1/1,2,3;
 4//1;
 5/5=2,8=3,13=1,38=5/2,8;
 8/6=4,10=90,11=11/1;
 11/6=1,8=1,9=11,15=111,16=1,31=1/1,2,10;
 10/6=1,31=1/2;
 7/10=1,25=1,30=1/1,2,3,16;
 1/5=1,6=999,10=4,11=1,18=20,26=3/3(3);
 2/9=110,15=3/2;
 7/8=1,9=1,25=1,30=1,44=-1/16;
 99//99;
 2/9=110,15=3/2;
 3/5=4,6=6,7=1111,11=2,25=1,30=1,71=2,74=-58,140=1/1,2,3;
 4/5=5,16=3,69=1/1;
 5/5=2,8=3,13=1,38=5/2,8;
 8/6=4,10=90,11=11/1;
 11/6=1,8=1,9=11,15=111,16=1,31=1/1,2,10;
 10/6=1,31=1/2;
 7/10=1,25=1,30=1/1,2,3,16;
 1/5=1,6=999,10=4,11=1,18=20,26=3/3(-8);
 2/9=110,15=3/2;
 7/8=1,9=1,25=1,30=1,44=-1/16;
 99//99;
 Leave Link    1 at Fri May 23 04:53:29 2025, MaxMem=  3758096384 cpu:               0.0 elap:               0.0
 (Enter /apps/easybuild-2022/easybuild/software/Compiler/NVHPC/22.11-CUDA-11.7.0/Gaussian/g16c01-CUDA-11.7.0/g16/l101.exe)
 ------------------------------
 Gaussian input prepared by ASE
 ------------------------------
 Symbolic Z-matrix:
 Charge =  0 Multiplicity = 1
 C                    -0.36195  -1.34293   0.13596 
 C                     0.        0.        0. 
 F                    -0.25873   0.63694  -1.12356 
 F                    -0.26686   0.83753   0.99256 
 S                     2.40253   0.        0. 
 O                     2.90169  -0.40432   1.28958 
 O                     2.6724   -0.41832  -1.3416 
 O                     2.92573   1.57321   0. 
 F                    -0.48794  -1.95067   1.24951 
 F                     1.70205  -1.74008   0.17617 
 F                    -0.48399  -2.16611  -0.82775 
 H                     3.02662   2.02325   0.84855 
 
 Add virtual bond connecting atoms F10        and C1         Dist= 3.97D+00.
 ITRead=  0  0  0  0  0  0  0  0  0  0  0  0
 MicOpt= -1 -1 -1 -1 -1 -1 -1 -1 -1 -1 -1 -1
 NAtoms=     12 NQM=       12 NQMF=       0 NMMI=      0 NMMIF=      0
                NMic=       0 NMicF=      0.
                    Isotopes and Nuclear Properties:
 (Nuclear quadrupole moments (NQMom) in fm**2, nuclear magnetic moments (NMagM)
  in nuclear magnetons)

  Atom         1           2           3           4           5           6           7           8           9          10
 IAtWgt=          12          12          19          19          32          16          16          16          19          19
 AtmWgt=  12.0000000  12.0000000  18.9984032  18.9984032  31.9720718  15.9949146  15.9949146  15.9949146  18.9984032  18.9984032
 NucSpn=           0           0           1           1           0           0           0           0           1           1
 AtZEff=  -0.0000000  -0.0000000  -0.0000000  -0.0000000  -0.0000000  -0.0000000  -0.0000000  -0.0000000  -0.0000000  -0.0000000
 NQMom=    0.0000000   0.0000000   0.0000000   0.0000000   0.0000000   0.0000000   0.0000000   0.0000000   0.0000000   0.0000000
 NMagM=    0.0000000   0.0000000   2.6288670   2.6288670   0.0000000   0.0000000   0.0000000   0.0000000   2.6288670   2.6288670
 AtZNuc=   6.0000000   6.0000000   9.0000000   9.0000000  16.0000000   8.0000000   8.0000000   8.0000000   9.0000000   9.0000000

  Atom        11          12
 IAtWgt=          19           1
 AtmWgt=  18.9984032   1.0078250
 NucSpn=           1           1
 AtZEff=  -0.0000000  -0.0000000
 NQMom=    0.0000000   0.0000000
 NMagM=    2.6288670   2.7928460
 AtZNuc=   9.0000000   1.0000000
 Leave Link  101 at Fri May 23 04:53:29 2025, MaxMem=  3758096384 cpu:               0.2 elap:               0.2
 (Enter /apps/easybuild-2022/easybuild/software/Compiler/NVHPC/22.11-CUDA-11.7.0/Gaussian/g16c01-CUDA-11.7.0/g16/l103.exe)

 GradGradGradGradGradGradGradGradGradGradGradGradGradGradGradGradGradGrad
 Berny optimization.
 Initialization pass.
                           ----------------------------
                           !    Initial Parameters    !
                           ! (Angstroms and Degrees)  !
 --------------------------                            --------------------------
 ! Name  Definition              Value          Derivative Info.                !
 --------------------------------------------------------------------------------
 ! R1    R(1,2)                  1.3975         calculate D2E/DX2 analytically  !
 ! R2    R(1,9)                  1.2748         calculate D2E/DX2 analytically  !
 ! R3    R(1,10)                 2.1022         calculate D2E/DX2 analytically  !
 ! R4    R(1,11)                 1.2733         calculate D2E/DX2 analytically  !
 ! R5    R(2,3)                  1.3172         calculate D2E/DX2 analytically  !
 ! R6    R(2,4)                  1.3258         calculate D2E/DX2 analytically  !
 ! R7    R(5,6)                  1.4407         calculate D2E/DX2 analytically  !
 ! R8    R(5,7)                  1.431          calculate D2E/DX2 analytically  !
 ! R9    R(5,8)                  1.6579         calculate D2E/DX2 analytically  !
 ! R10   R(5,10)                 1.884          calculate D2E/DX2 analytically  !
 ! R11   R(8,12)                 0.9658         calculate D2E/DX2 analytically  !
 ! A1    A(2,1,9)              124.6587         calculate D2E/DX2 analytically  !
 ! A2    A(2,1,10)              85.9354         calculate D2E/DX2 analytically  !
 ! A3    A(2,1,11)             124.9217         calculate D2E/DX2 analytically  !
 ! A4    A(9,1,10)              89.4423         calculate D2E/DX2 analytically  !
 ! A5    A(9,1,11)             110.0865         calculate D2E/DX2 analytically  !
 ! A6    A(10,1,11)             89.2233         calculate D2E/DX2 analytically  !
 ! A7    A(1,2,3)              119.7881         calculate D2E/DX2 analytically  !
 ! A8    A(1,2,4)              118.8212         calculate D2E/DX2 analytically  !
 ! A9    A(3,2,4)              107.072          calculate D2E/DX2 analytically  !
 ! A10   A(6,5,7)              133.7734         calculate D2E/DX2 analytically  !
 ! A11   A(6,5,8)               99.0306         calculate D2E/DX2 analytically  !
 ! A12   A(6,5,10)              77.6386         calculate D2E/DX2 analytically  !
 ! A13   A(7,5,8)              102.5845         calculate D2E/DX2 analytically  !
 ! A14   A(7,5,10)              83.5571         calculate D2E/DX2 analytically  !
 ! A15   A(5,8,12)             118.368          calculate D2E/DX2 analytically  !
 ! A16   A(1,10,5)             100.8805         calculate D2E/DX2 analytically  !
 ! A17   L(8,5,10,6,-1)        176.6692         calculate D2E/DX2 analytically  !
 ! A18   L(8,5,10,6,-2)        174.4128         calculate D2E/DX2 analytically  !
 ! D1    D(9,1,2,3)           -160.6776         calculate D2E/DX2 analytically  !
 ! D2    D(9,1,2,4)            -26.165          calculate D2E/DX2 analytically  !
 ! D3    D(10,1,2,3)           112.8192         calculate D2E/DX2 analytically  !
 ! D4    D(10,1,2,4)          -112.6682         calculate D2E/DX2 analytically  !
 ! D5    D(11,1,2,3)            26.6142         calculate D2E/DX2 analytically  !
 ! D6    D(11,1,2,4)           161.1268         calculate D2E/DX2 analytically  !
 ! D7    D(2,1,10,5)             0.0            calculate D2E/DX2 analytically  !
 ! D8    D(9,1,10,5)          -124.8088         calculate D2E/DX2 analytically  !
 ! D9    D(11,1,10,5)          125.0938         calculate D2E/DX2 analytically  !
 ! D10   D(6,5,8,12)           -28.1193         calculate D2E/DX2 analytically  !
 ! D11   D(7,5,8,12)          -166.9889         calculate D2E/DX2 analytically  !
 ! D12   D(6,5,10,1)           118.025          calculate D2E/DX2 analytically  !
 ! D13   D(7,5,10,1)          -104.458          calculate D2E/DX2 analytically  !
 --------------------------------------------------------------------------------
 Trust Radius=3.00D-01 FncErr=1.00D-07 GrdErr=1.00D-06 EigMax=2.50D+02 EigMin=1.00D-04
 Number of steps in this run=    100 maximum allowed number of steps=    100.
 Search for a saddle point of order  1.
 GradGradGradGradGradGradGradGradGradGradGradGradGradGradGradGradGradGrad

 Leave Link  103 at Fri May 23 04:53:30 2025, MaxMem=  3758096384 cpu:               0.0 elap:               0.0
 (Enter /apps/easybuild-2022/easybuild/software/Compiler/NVHPC/22.11-CUDA-11.7.0/Gaussian/g16c01-CUDA-11.7.0/g16/l202.exe)
                          Input orientation:                          
 ---------------------------------------------------------------------
 Center     Atomic      Atomic             Coordinates (Angstroms)
 Number     Number       Type             X           Y           Z
 ---------------------------------------------------------------------
      1          6           0       -0.361946   -1.342928    0.135960
      2          6           0        0.000000    0.000000    0.000000
      3          9           0       -0.258733    0.636940   -1.123555
      4          9           0       -0.266858    0.837530    0.992558
      5         16           0        2.402529    0.000000    0.000000
      6          8           0        2.901693   -0.404323    1.289580
      7          8           0        2.672395   -0.418322   -1.341600
      8          8           0        2.925733    1.573214    0.000000
      9          9           0       -0.487941   -1.950669    1.249514
     10          9           0        1.702048   -1.740082    0.176168
     11          9           0       -0.483988   -2.166112   -0.827748
     12          1           0        3.026617    2.023251    0.848549
 ---------------------------------------------------------------------
                    Distance matrix (angstroms):
                    1          2          3          4          5
     1  C    0.000000
     2  C    1.397479   0.000000
     3  F    2.348810   1.317199   0.000000
     4  F    2.344611   1.325836   2.125615   0.000000
     5  S    3.076405   2.402529   2.958106   2.968545   0.000000
     6  O    3.586524   3.200986   4.110443   3.416158   1.440714
     7  O    3.499330   3.019368   3.122921   3.957862   1.430983
     8  O    4.396727   3.321885   3.504256   3.423309   1.657934
     9  F    1.274844   2.367379   3.518482   2.808729   3.704216
    10  F    2.102242   2.440469   3.344276   3.344723   1.884037
    11  F    1.273286   2.368850   2.827603   3.518881   3.702592
    12  H    4.829214   3.738180   4.074872   3.503377   2.281023
                    6          7          8          9         10
     6  O    0.000000
     7  O    2.641190   0.000000
     8  O    2.360984   2.414599   0.000000
     9  F    3.725910   4.364595   5.062826   0.000000
    10  F    2.112602   2.234333   3.536435   2.447953   0.000000
    11  F    4.364609   3.644389   5.127760   2.088408   2.442970
    12  H    2.470472   3.299016   0.965788   5.320238   4.045894
                   11         12
    11  F    0.000000
    12  H    5.717087   0.000000
 Symmetry turned off by external request.
 Stoichiometry    C2HF5O3S
 Rotational constants (GHZ):           1.4383491           0.8134720           0.7310702
 Leave Link  202 at Fri May 23 04:53:30 2025, MaxMem=  3758096384 cpu:               0.0 elap:               0.0
 (Enter /apps/easybuild-2022/easybuild/software/Compiler/NVHPC/22.11-CUDA-11.7.0/Gaussian/g16c01-CUDA-11.7.0/g16/l301.exe)
 Standard basis: 6-311++G(d,p) (5D, 7F)
 Ernie: Thresh=  0.10000D-02 Tol=  0.10000D-05 Strict=F.
   257 basis functions,   419 primitive gaussians,   268 cartesian basis functions
    49 alpha electrons       49 beta electrons
       nuclear repulsion energy       904.1220554041 Hartrees.
 IExCor= 4639 DFT=T Ex+Corr=wB97XD ExCW=0 ScaHFX=  1.000000
 ScaDFX=  1.000000  1.000000  1.000000  1.000000 ScalE2=  1.000000  1.000000
 IRadAn=      5 IRanWt=     -1 IRanGd=            0 ICorTp=0 IEmpDi=121
 HFx  wShort=  0.000000 wLong=  0.200000 cFull=  0.222036 cShort=  0.000000 cLong=  0.777964
 DFx  wShort=  0.000000 wLong=  0.200000 cFull=  0.000000 cShort=  0.000000 cLong=  1.000000
 NAtoms=   12 NActive=   12 NUniq=   12 SFac= 1.00D+00 NAtFMM=   60 NAOKFM=F Big=F
 Integral buffers will be    131072 words long.
 Raffenetti 2 integral format.
 Two-electron integral symmetry is turned off.
 R6Disp:  Grimme-D2 Dispersion energy=       -0.0054485714 Hartrees.
 Nuclear repulsion after empirical dispersion term =      904.1166068327 Hartrees.
 Leave Link  301 at Fri May 23 04:53:30 2025, MaxMem=  3758096384 cpu:               0.0 elap:               0.0
 (Enter /apps/easybuild-2022/easybuild/software/Compiler/NVHPC/22.11-CUDA-11.7.0/Gaussian/g16c01-CUDA-11.7.0/g16/l302.exe)
 NPDir=0 NMtPBC=     1 NCelOv=     1 NCel=       1 NClECP=     1 NCelD=      1
         NCelK=      1 NCelE2=     1 NClLst=     1 CellRange=     0.0.
 One-electron integrals computed using PRISM.
 NBasis=   257 RedAO= T EigKep=  5.16D-05  NBF=   257
 NBsUse=   257 1.00D-06 EigRej= -1.00D+00 NBFU=   257
 Precomputing XC quadrature grid using
 IXCGrd= 4 IRadAn=           5 IRanWt=          -1 IRanGd=           0 AccXCQ= 0.00D+00.
 Generated NRdTot=       0 NPtTot=           0 NUsed=           0 NTot=          32
 NSgBfM=   268   268   268   268   268 MxSgAt=    12 MxSgA2=    12.
 Leave Link  302 at Fri May 23 04:53:30 2025, MaxMem=  3758096384 cpu:               0.5 elap:               0.1
 (Enter /apps/easybuild-2022/easybuild/software/Compiler/NVHPC/22.11-CUDA-11.7.0/Gaussian/g16c01-CUDA-11.7.0/g16/l303.exe)
 DipDrv:  MaxL=1.
 Leave Link  303 at Fri May 23 04:53:30 2025, MaxMem=  3758096384 cpu:               0.1 elap:               0.0
 (Enter /apps/easybuild-2022/easybuild/software/Compiler/NVHPC/22.11-CUDA-11.7.0/Gaussian/g16c01-CUDA-11.7.0/g16/l401.exe)
 ExpMin= 3.60D-02 ExpMax= 9.34D+04 ExpMxC= 3.17D+03 IAcc=3 IRadAn=         5 AccDes= 0.00D+00
 Harris functional with IExCor= 4639 and IRadAn=       5 diagonalized for initial guess.
 HarFok:  IExCor= 4639 AccDes= 0.00D+00 IRadAn=         5 IDoV= 1 UseB2=F ITyADJ=14
 ICtDFT=  3500011 ScaDFX=  1.000000  1.000000  1.000000  1.000000
 FoFCou: FMM=F IPFlag=           0 FMFlag=      100000 FMFlg1=           0
         NFxFlg=           0 DoJE=T BraDBF=F KetDBF=T FulRan=T
         wScrn=  0.000000 ICntrl=       500 IOpCl=  0 I1Cent=   200000004 NGrid=           0
         NMat0=    1 NMatS0=      1 NMatT0=    0 NMatD0=    1 NMtDS0=    0 NMtDT0=    0
 Symmetry not used in FoFCou.
 Harris En= -1166.98395740759    
 JPrj=0 DoOrth=F DoCkMO=F.
 Leave Link  401 at Fri May 23 04:53:30 2025, MaxMem=  3758096384 cpu:               2.4 elap:               0.3
 (Enter /apps/easybuild-2022/easybuild/software/Compiler/NVHPC/22.11-CUDA-11.7.0/Gaussian/g16c01-CUDA-11.7.0/g16/l502.exe)
 Keep R1 ints in memory in canonical form, NReq=1117474609.
 FoFCou: FMM=F IPFlag=           0 FMFlag=           0 FMFlg1=           0
         NFxFlg=           0 DoJE=F BraDBF=F KetDBF=F FulRan=T
         wScrn=  0.000000 ICntrl=       600 IOpCl=  0 I1Cent=           0 NGrid=           0
         NMat0=    1 NMatS0=  33153 NMatT0=    0 NMatD0=    1 NMtDS0=    0 NMtDT0=    0
 Symmetry not used in FoFCou.
 Two-electron integral symmetry not used.
 Closed shell SCF:
 Using DIIS extrapolation, IDIIS=  1040.
 NGot=  3758096384 LenX=  2658793876 LenY=  2658721611
 Requested convergence on RMS density matrix=1.00D-08 within  32 cycles.
 Requested convergence on MAX density matrix=1.00D-06.
 Requested convergence on             energy=1.00D-06.
 No special actions if energy rises.

 Cycle   1  Pass 1  IDiag  1:
 E= -1198.84995648573    
 DIIS: error= 1.13D-01 at cycle   1 NSaved=   1.
 NSaved= 1 IEnMin= 1 EnMin= -1198.84995648573     IErMin= 1 ErrMin= 1.13D-01
 ErrMax= 1.13D-01  0.00D+00 EMaxC= 1.00D-01 BMatC= 3.39D+00 BMatP= 3.39D+00
 IDIUse=3 WtCom= 0.00D+00 WtEn= 1.00D+00
 Coeff-Com:  0.100D+01
 Coeff-En:   0.100D+01
 Coeff:      0.100D+01
 Gap=     0.305 Goal=   None    Shift=    0.000
 GapD=    0.305 DampG=1.000 DampE=0.250 DampFc=0.2500 IDamp=-1.
 Damping current iteration by 2.50D-01
 RMSDP=1.03D-02 MaxDP=7.21D-01              OVMax= 3.18D-01

 Cycle   2  Pass 1  IDiag  1:
 E= -1199.10002345423     Delta-E=       -0.250066968501 Rises=F Damp=T
 DIIS: error= 8.03D-02 at cycle   2 NSaved=   2.
 NSaved= 2 IEnMin= 2 EnMin= -1199.10002345423     IErMin= 2 ErrMin= 8.03D-02
 ErrMax= 8.03D-02  0.00D+00 EMaxC= 1.00D-01 BMatC= 1.51D+00 BMatP= 3.39D+00
 IDIUse=3 WtCom= 1.97D-01 WtEn= 8.03D-01
 Coeff-Com: -0.170D+01 0.270D+01
 Coeff-En:   0.000D+00 0.100D+01
 Coeff:     -0.335D+00 0.134D+01
 Gap=     0.200 Goal=   None    Shift=    0.000
 RMSDP=6.07D-03 MaxDP=6.06D-01 DE=-2.50D-01 OVMax= 1.28D-01

 Cycle   3  Pass 1  IDiag  1:
 E= -1199.55591948092     Delta-E=       -0.455896026690 Rises=F Damp=F
 DIIS: error= 2.32D-02 at cycle   3 NSaved=   3.
 NSaved= 3 IEnMin= 3 EnMin= -1199.55591948092     IErMin= 3 ErrMin= 2.32D-02
 ErrMax= 2.32D-02  0.00D+00 EMaxC= 1.00D-01 BMatC= 1.17D-01 BMatP= 1.51D+00
 IDIUse=3 WtCom= 7.68D-01 WtEn= 2.32D-01
 Coeff-Com:  0.548D+00-0.601D+00 0.105D+01
 Coeff-En:   0.000D+00 0.000D+00 0.100D+01
 Coeff:      0.421D+00-0.461D+00 0.104D+01
 Gap=     0.240 Goal=   None    Shift=    0.000
 RMSDP=1.60D-03 MaxDP=7.65D-02 DE=-4.56D-01 OVMax= 3.66D-02

 Cycle   4  Pass 1  IDiag  1:
 E= -1199.58835402774     Delta-E=       -0.032434546812 Rises=F Damp=F
 DIIS: error= 1.02D-02 at cycle   4 NSaved=   4.
 NSaved= 4 IEnMin= 4 EnMin= -1199.58835402774     IErMin= 4 ErrMin= 1.02D-02
 ErrMax= 1.02D-02  0.00D+00 EMaxC= 1.00D-01 BMatC= 2.97D-02 BMatP= 1.17D-01
 IDIUse=3 WtCom= 8.98D-01 WtEn= 1.02D-01
 Coeff-Com:  0.356D+00-0.452D+00 0.540D+00 0.555D+00
 Coeff-En:   0.000D+00 0.000D+00 0.124D+00 0.876D+00
 Coeff:      0.320D+00-0.405D+00 0.498D+00 0.588D+00
 Gap=     0.249 Goal=   None    Shift=    0.000
 RMSDP=1.21D-03 MaxDP=8.51D-02 DE=-3.24D-02 OVMax= 2.96D-02

 Cycle   5  Pass 1  IDiag  1:
 E= -1199.60425565355     Delta-E=       -0.015901625814 Rises=F Damp=F
 DIIS: error= 2.88D-03 at cycle   5 NSaved=   5.
 NSaved= 5 IEnMin= 5 EnMin= -1199.60425565355     IErMin= 5 ErrMin= 2.88D-03
 ErrMax= 2.88D-03  0.00D+00 EMaxC= 1.00D-01 BMatC= 2.88D-03 BMatP= 2.97D-02
 IDIUse=3 WtCom= 9.71D-01 WtEn= 2.88D-02
 Coeff-Com:  0.117D+00-0.155D+00 0.158D+00 0.296D+00 0.584D+00
 Coeff-En:   0.000D+00 0.000D+00 0.000D+00 0.111D-01 0.989D+00
 Coeff:      0.113D+00-0.151D+00 0.154D+00 0.288D+00 0.596D+00
 Gap=     0.243 Goal=   None    Shift=    0.000
 RMSDP=2.33D-04 MaxDP=1.05D-02 DE=-1.59D-02 OVMax= 8.51D-03

 Cycle   6  Pass 1  IDiag  1:
 E= -1199.60603305212     Delta-E=       -0.001777398569 Rises=F Damp=F
 DIIS: error= 4.52D-04 at cycle   6 NSaved=   6.
 NSaved= 6 IEnMin= 6 EnMin= -1199.60603305212     IErMin= 6 ErrMin= 4.52D-04
 ErrMax= 4.52D-04  0.00D+00 EMaxC= 1.00D-01 BMatC= 8.74D-05 BMatP= 2.88D-03
 IDIUse=3 WtCom= 9.95D-01 WtEn= 4.52D-03
 Coeff-Com:  0.106D-01-0.150D-01 0.105D-01 0.432D-01 0.194D+00 0.757D+00
 Coeff-En:   0.000D+00 0.000D+00 0.000D+00 0.000D+00 0.000D+00 0.100D+01
 Coeff:      0.106D-01-0.149D-01 0.104D-01 0.430D-01 0.193D+00 0.758D+00
 Gap=     0.244 Goal=   None    Shift=    0.000
 RMSDP=1.03D-04 MaxDP=7.77D-03 DE=-1.78D-03 OVMax= 4.25D-03

 Cycle   7  Pass 1  IDiag  1:
 E= -1199.60613892192     Delta-E=       -0.000105869802 Rises=F Damp=F
 DIIS: error= 1.80D-04 at cycle   7 NSaved=   7.
 NSaved= 7 IEnMin= 7 EnMin= -1199.60613892192     IErMin= 7 ErrMin= 1.80D-04
 ErrMax= 1.80D-04  0.00D+00 EMaxC= 1.00D-01 BMatC= 1.72D-05 BMatP= 8.74D-05
 IDIUse=3 WtCom= 9.98D-01 WtEn= 1.80D-03
 Coeff-Com: -0.886D-02 0.115D-01-0.142D-01-0.150D-01 0.179D-01 0.332D+00
 Coeff-Com:  0.676D+00
 Coeff-En:   0.000D+00 0.000D+00 0.000D+00 0.000D+00 0.000D+00 0.000D+00
 Coeff-En:   0.100D+01
 Coeff:     -0.885D-02 0.115D-01-0.141D-01-0.150D-01 0.179D-01 0.332D+00
 Coeff:      0.677D+00
 Gap=     0.243 Goal=   None    Shift=    0.000
 RMSDP=5.75D-05 MaxDP=4.20D-03 DE=-1.06D-04 OVMax= 3.44D-03

 Cycle   8  Pass 1  IDiag  1:
 E= -1199.60617225048     Delta-E=       -0.000033328562 Rises=F Damp=F
 DIIS: error= 1.26D-04 at cycle   8 NSaved=   8.
 NSaved= 8 IEnMin= 8 EnMin= -1199.60617225048     IErMin= 8 ErrMin= 1.26D-04
 ErrMax= 1.26D-04  0.00D+00 EMaxC= 1.00D-01 BMatC= 5.37D-06 BMatP= 1.72D-05
 IDIUse=3 WtCom= 9.99D-01 WtEn= 1.26D-03
 Coeff-Com: -0.510D-02 0.686D-02-0.773D-02-0.158D-01-0.450D-01-0.871D-01
 Coeff-Com:  0.334D+00 0.820D+00
 Coeff-En:   0.000D+00 0.000D+00 0.000D+00 0.000D+00 0.000D+00 0.000D+00
 Coeff-En:   0.000D+00 0.100D+01
 Coeff:     -0.509D-02 0.685D-02-0.772D-02-0.157D-01-0.449D-01-0.870D-01
 Coeff:      0.333D+00 0.820D+00
 Gap=     0.244 Goal=   None    Shift=    0.000
 RMSDP=3.75D-05 MaxDP=1.33D-03 DE=-3.33D-05 OVMax= 3.35D-03

 Cycle   9  Pass 1  IDiag  1:
 E= -1199.60619018722     Delta-E=       -0.000017936733 Rises=F Damp=F
 DIIS: error= 6.41D-05 at cycle   9 NSaved=   9.
 NSaved= 9 IEnMin= 9 EnMin= -1199.60619018722     IErMin= 9 ErrMin= 6.41D-05
 ErrMax= 6.41D-05  0.00D+00 EMaxC= 1.00D-01 BMatC= 1.20D-06 BMatP= 5.37D-06
 IDIUse=1 WtCom= 1.00D+00 WtEn= 0.00D+00
 Coeff-Com:  0.198D-02-0.260D-02 0.207D-02-0.492D-03-0.204D-01-0.139D+00
 Coeff-Com: -0.770D-01 0.292D+00 0.944D+00
 Coeff:      0.198D-02-0.260D-02 0.207D-02-0.492D-03-0.204D-01-0.139D+00
 Coeff:     -0.770D-01 0.292D+00 0.944D+00
 Gap=     0.244 Goal=   None    Shift=    0.000
 RMSDP=2.62D-05 MaxDP=7.79D-04 DE=-1.79D-05 OVMax= 2.21D-03

 Cycle  10  Pass 1  IDiag  1:
 E= -1199.60619655321     Delta-E=       -0.000006365992 Rises=F Damp=F
 DIIS: error= 3.41D-05 at cycle  10 NSaved=  10.
 NSaved=10 IEnMin=10 EnMin= -1199.60619655321     IErMin=10 ErrMin= 3.41D-05
 ErrMax= 3.41D-05  0.00D+00 EMaxC= 1.00D-01 BMatC= 2.71D-07 BMatP= 1.20D-06
 IDIUse=1 WtCom= 1.00D+00 WtEn= 0.00D+00
 Coeff-Com:  0.222D-02-0.297D-02 0.258D-02 0.344D-02 0.379D-02-0.344D-01
 Coeff-Com: -0.113D+00-0.759D-01 0.398D+00 0.816D+00
 Coeff:      0.222D-02-0.297D-02 0.258D-02 0.344D-02 0.379D-02-0.344D-01
 Coeff:     -0.113D+00-0.759D-01 0.398D+00 0.816D+00
 Gap=     0.244 Goal=   None    Shift=    0.000
 RMSDP=1.17D-05 MaxDP=3.43D-04 DE=-6.37D-06 OVMax= 1.12D-03

 Cycle  11  Pass 1  IDiag  1:
 E= -1199.60619795982     Delta-E=       -0.000001406612 Rises=F Damp=F
 DIIS: error= 1.59D-05 at cycle  11 NSaved=  11.
 NSaved=11 IEnMin=11 EnMin= -1199.60619795982     IErMin=11 ErrMin= 1.59D-05
 ErrMax= 1.59D-05  0.00D+00 EMaxC= 1.00D-01 BMatC= 6.13D-08 BMatP= 2.71D-07
 IDIUse=1 WtCom= 1.00D+00 WtEn= 0.00D+00
 Coeff-Com:  0.478D-03-0.636D-03 0.655D-03 0.150D-02 0.569D-02 0.124D-01
 Coeff-Com: -0.257D-01-0.789D-01-0.504D-01 0.298D+00 0.837D+00
 Coeff:      0.478D-03-0.636D-03 0.655D-03 0.150D-02 0.569D-02 0.124D-01
 Coeff:     -0.257D-01-0.789D-01-0.504D-01 0.298D+00 0.837D+00
 Gap=     0.244 Goal=   None    Shift=    0.000
 RMSDP=6.04D-06 MaxDP=3.51D-04 DE=-1.41D-06 OVMax= 4.70D-04

 Cycle  12  Pass 1  IDiag  1:
 E= -1199.60619827233     Delta-E=       -0.000000312509 Rises=F Damp=F
 DIIS: error= 1.07D-05 at cycle  12 NSaved=  12.
 NSaved=12 IEnMin=12 EnMin= -1199.60619827233     IErMin=12 ErrMin= 1.07D-05
 ErrMax= 1.07D-05  0.00D+00 EMaxC= 1.00D-01 BMatC= 2.29D-08 BMatP= 6.13D-08
 IDIUse=1 WtCom= 1.00D+00 WtEn= 0.00D+00
 Coeff-Com: -0.362D-03 0.488D-03-0.235D-03 0.580D-04 0.215D-02 0.150D-01
 Coeff-Com:  0.145D-01-0.243D-01-0.146D+00-0.889D-01 0.445D+00 0.783D+00
 Coeff:     -0.362D-03 0.488D-03-0.235D-03 0.580D-04 0.215D-02 0.150D-01
 Coeff:      0.145D-01-0.243D-01-0.146D+00-0.889D-01 0.445D+00 0.783D+00
 Gap=     0.244 Goal=   None    Shift=    0.000
 RMSDP=3.69D-06 MaxDP=1.61D-04 DE=-3.13D-07 OVMax= 2.79D-04

 Cycle  13  Pass 1  IDiag  1:
 E= -1199.60619837347     Delta-E=       -0.000000101139 Rises=F Damp=F
 DIIS: error= 2.85D-06 at cycle  13 NSaved=  13.
 NSaved=13 IEnMin=13 EnMin= -1199.60619837347     IErMin=13 ErrMin= 2.85D-06
 ErrMax= 2.85D-06  0.00D+00 EMaxC= 1.00D-01 BMatC= 2.65D-09 BMatP= 2.29D-08
 IDIUse=1 WtCom= 1.00D+00 WtEn= 0.00D+00
 Coeff-Com: -0.210D-03 0.281D-03-0.191D-03-0.236D-03-0.919D-03-0.587D-03
 Coeff-Com:  0.659D-02 0.150D-01 0.102D-01-0.729D-01-0.154D+00 0.754D-01
 Coeff-Com:  0.112D+01
 Coeff:     -0.210D-03 0.281D-03-0.191D-03-0.236D-03-0.919D-03-0.587D-03
 Coeff:      0.659D-02 0.150D-01 0.102D-01-0.729D-01-0.154D+00 0.754D-01
 Coeff:      0.112D+01
 Gap=     0.244 Goal=   None    Shift=    0.000
 RMSDP=1.40D-06 MaxDP=5.81D-05 DE=-1.01D-07 OVMax= 9.10D-05

 Cycle  14  Pass 1  IDiag  1:
 E= -1199.60619838820     Delta-E=       -0.000000014731 Rises=F Damp=F
 DIIS: error= 1.20D-06 at cycle  14 NSaved=  14.
 NSaved=14 IEnMin=14 EnMin= -1199.60619838820     IErMin=14 ErrMin= 1.20D-06
 ErrMax= 1.20D-06  0.00D+00 EMaxC= 1.00D-01 BMatC= 4.81D-10 BMatP= 2.65D-09
 IDIUse=1 WtCom= 1.00D+00 WtEn= 0.00D+00
 Coeff-Com: -0.644D-04 0.846D-04-0.731D-04-0.978D-04-0.621D-03-0.174D-02
 Coeff-Com:  0.109D-02 0.724D-02 0.167D-01-0.180D-01-0.981D-01-0.698D-01
 Coeff-Com:  0.393D+00 0.770D+00
 Coeff:     -0.644D-04 0.846D-04-0.731D-04-0.978D-04-0.621D-03-0.174D-02
 Coeff:      0.109D-02 0.724D-02 0.167D-01-0.180D-01-0.981D-01-0.698D-01
 Coeff:      0.393D+00 0.770D+00
 Gap=     0.244 Goal=   None    Shift=    0.000
 RMSDP=4.68D-07 MaxDP=2.03D-05 DE=-1.47D-08 OVMax= 3.27D-05

 Cycle  15  Pass 1  IDiag  1:
 E= -1199.60619839010     Delta-E=       -0.000000001906 Rises=F Damp=F
 DIIS: error= 4.23D-07 at cycle  15 NSaved=  15.
 NSaved=15 IEnMin=15 EnMin= -1199.60619839010     IErMin=15 ErrMin= 4.23D-07
 ErrMax= 4.23D-07  0.00D+00 EMaxC= 1.00D-01 BMatC= 1.00D-10 BMatP= 4.81D-10
 IDIUse=1 WtCom= 1.00D+00 WtEn= 0.00D+00
 Coeff-Com:  0.157D-04-0.217D-04 0.702D-05 0.230D-04 0.350D-04-0.123D-03
 Coeff-Com: -0.945D-03-0.202D-02-0.938D-03 0.118D-01 0.257D-01-0.409D-01
 Coeff-Com: -0.180D+00 0.199D+00 0.988D+00
 Coeff:      0.157D-04-0.217D-04 0.702D-05 0.230D-04 0.350D-04-0.123D-03
 Coeff:     -0.945D-03-0.202D-02-0.938D-03 0.118D-01 0.257D-01-0.409D-01
 Coeff:     -0.180D+00 0.199D+00 0.988D+00
 Gap=     0.244 Goal=   None    Shift=    0.000
 RMSDP=2.55D-07 MaxDP=1.07D-05 DE=-1.91D-09 OVMax= 1.68D-05

 Cycle  16  Pass 1  IDiag  1:
 E= -1199.60619839048     Delta-E=       -0.000000000377 Rises=F Damp=F
 DIIS: error= 2.11D-07 at cycle  16 NSaved=  16.
 NSaved=16 IEnMin=16 EnMin= -1199.60619839048     IErMin=16 ErrMin= 2.11D-07
 ErrMax= 2.11D-07  0.00D+00 EMaxC= 1.00D-01 BMatC= 2.22D-11 BMatP= 1.00D-10
 IDIUse=1 WtCom= 1.00D+00 WtEn= 0.00D+00
 Coeff-Com:  0.125D-04-0.166D-04 0.108D-04 0.201D-04 0.851D-04 0.184D-03
 Coeff-Com: -0.459D-03-0.124D-02-0.204D-02 0.571D-02 0.260D-01-0.101D-01
 Coeff-Com: -0.122D+00-0.361D-01 0.352D+00 0.789D+00
 Coeff:      0.125D-04-0.166D-04 0.108D-04 0.201D-04 0.851D-04 0.184D-03
 Coeff:     -0.459D-03-0.124D-02-0.204D-02 0.571D-02 0.260D-01-0.101D-01
 Coeff:     -0.122D+00-0.361D-01 0.352D+00 0.789D+00
 Gap=     0.244 Goal=   None    Shift=    0.000
 RMSDP=9.67D-08 MaxDP=4.92D-06 DE=-3.77D-10 OVMax= 7.93D-06

 Cycle  17  Pass 1  IDiag  1:
 E= -1199.60619839065     Delta-E=       -0.000000000173 Rises=F Damp=F
 DIIS: error= 1.33D-07 at cycle  17 NSaved=  17.
 NSaved=17 IEnMin=17 EnMin= -1199.60619839065     IErMin=17 ErrMin= 1.33D-07
 ErrMax= 1.33D-07  0.00D+00 EMaxC= 1.00D-01 BMatC= 7.00D-12 BMatP= 2.22D-11
 IDIUse=1 WtCom= 1.00D+00 WtEn= 0.00D+00
 Coeff-Com: -0.362D-06 0.820D-06 0.388D-05 0.487D-05 0.304D-04 0.143D-03
 Coeff-Com: -0.606D-04 0.491D-04-0.396D-03-0.258D-02 0.428D-02 0.559D-02
 Coeff-Com:  0.957D-02-0.655D-01-0.122D+00 0.288D+00 0.883D+00
 Coeff:     -0.362D-06 0.820D-06 0.388D-05 0.487D-05 0.304D-04 0.143D-03
 Coeff:     -0.606D-04 0.491D-04-0.396D-03-0.258D-02 0.428D-02 0.559D-02
 Coeff:      0.957D-02-0.655D-01-0.122D+00 0.288D+00 0.883D+00
 Gap=     0.244 Goal=   None    Shift=    0.000
 RMSDP=5.12D-08 MaxDP=1.86D-06 DE=-1.73D-10 OVMax= 5.42D-06

 Cycle  18  Pass 1  IDiag  1:
 E= -1199.60619839065     Delta-E=        0.000000000005 Rises=F Damp=F
 DIIS: error= 6.64D-08 at cycle  18 NSaved=  18.
 NSaved=18 IEnMin=17 EnMin= -1199.60619839065     IErMin=18 ErrMin= 6.64D-08
 ErrMax= 6.64D-08  0.00D+00 EMaxC= 1.00D-01 BMatC= 1.63D-12 BMatP= 7.00D-12
 IDIUse=1 WtCom= 1.00D+00 WtEn= 0.00D+00
 Coeff-Com: -0.172D-05 0.236D-05-0.400D-06-0.292D-05-0.145D-04-0.230D-04
 Coeff-Com:  0.258D-04 0.375D-03 0.705D-03-0.248D-02-0.458D-02 0.251D-02
 Coeff-Com:  0.346D-01-0.127D-01-0.108D+00-0.203D+00 0.123D+00 0.117D+01
 Coeff:     -0.172D-05 0.236D-05-0.400D-06-0.292D-05-0.145D-04-0.230D-04
 Coeff:      0.258D-04 0.375D-03 0.705D-03-0.248D-02-0.458D-02 0.251D-02
 Coeff:      0.346D-01-0.127D-01-0.108D+00-0.203D+00 0.123D+00 0.117D+01
 Gap=     0.244 Goal=   None    Shift=    0.000
 RMSDP=4.01D-08 MaxDP=1.06D-06 DE= 5.46D-12 OVMax= 4.84D-06

 Cycle  19  Pass 1  IDiag  1:
 E= -1199.60619839067     Delta-E=       -0.000000000020 Rises=F Damp=F
 DIIS: error= 2.72D-08 at cycle  19 NSaved=  19.
 NSaved=19 IEnMin=19 EnMin= -1199.60619839067     IErMin=19 ErrMin= 2.72D-08
 ErrMax= 2.72D-08  0.00D+00 EMaxC= 1.00D-01 BMatC= 3.14D-13 BMatP= 1.63D-12
 IDIUse=1 WtCom= 1.00D+00 WtEn= 0.00D+00
 Coeff-Com: -0.782D-06 0.988D-06-0.167D-05-0.311D-05-0.120D-04-0.264D-04
 Coeff-Com:  0.381D-04 0.139D-03 0.263D-03-0.420D-03-0.179D-02-0.822D-03
 Coeff-Com:  0.902D-02 0.507D-02 0.489D-03-0.114D+00-0.126D+00 0.271D+00
 Coeff-Com:  0.956D+00
 Coeff:     -0.782D-06 0.988D-06-0.167D-05-0.311D-05-0.120D-04-0.264D-04
 Coeff:      0.381D-04 0.139D-03 0.263D-03-0.420D-03-0.179D-02-0.822D-03
 Coeff:      0.902D-02 0.507D-02 0.489D-03-0.114D+00-0.126D+00 0.271D+00
 Coeff:      0.956D+00
 Gap=     0.244 Goal=   None    Shift=    0.000
 RMSDP=1.58D-08 MaxDP=4.10D-07 DE=-2.00D-11 OVMax= 2.02D-06

 Cycle  20  Pass 1  IDiag  1:
 E= -1199.60619839066     Delta-E=        0.000000000013 Rises=F Damp=F
 DIIS: error= 1.57D-08 at cycle  20 NSaved=  20.
 NSaved=20 IEnMin=19 EnMin= -1199.60619839067     IErMin=20 ErrMin= 1.57D-08
 ErrMax= 1.57D-08  0.00D+00 EMaxC= 1.00D-01 BMatC= 9.83D-14 BMatP= 3.14D-13
 IDIUse=1 WtCom= 1.00D+00 WtEn= 0.00D+00
 Coeff-Com: -0.196D-07-0.215D-07-0.932D-06-0.756D-06-0.252D-06 0.278D-05
 Coeff-Com:  0.167D-04-0.702D-04-0.226D-03 0.545D-03 0.114D-02-0.101D-02
 Coeff-Com: -0.758D-02 0.436D-02 0.393D-01 0.151D-01-0.844D-01-0.272D+00
 Coeff-Com:  0.411D+00 0.894D+00
 Coeff:     -0.196D-07-0.215D-07-0.932D-06-0.756D-06-0.252D-06 0.278D-05
 Coeff:      0.167D-04-0.702D-04-0.226D-03 0.545D-03 0.114D-02-0.101D-02
 Coeff:     -0.758D-02 0.436D-02 0.393D-01 0.151D-01-0.844D-01-0.272D+00
 Coeff:      0.411D+00 0.894D+00
 Gap=     0.244 Goal=   None    Shift=    0.000
 RMSDP=7.99D-09 MaxDP=2.74D-07 DE= 1.27D-11 OVMax= 9.85D-07

 SCF Done:  E(RwB97XD) =  -1199.60619839     A.U. after   20 cycles
            NFock= 20  Conv=0.80D-08     -V/T= 2.0018
 KE= 1.197477176164D+03 PE=-4.655986169421D+03 EE= 1.354786188033D+03
 Leave Link  502 at Fri May 23 04:53:47 2025, MaxMem=  3758096384 cpu:              80.2 elap:              16.6
 (Enter /apps/easybuild-2022/easybuild/software/Compiler/NVHPC/22.11-CUDA-11.7.0/Gaussian/g16c01-CUDA-11.7.0/g16/l508.exe)
 QCSCF skips out because SCF is already converged.
 Leave Link  508 at Fri May 23 04:53:47 2025, MaxMem=  3758096384 cpu:               0.0 elap:               0.0
 (Enter /apps/easybuild-2022/easybuild/software/Compiler/NVHPC/22.11-CUDA-11.7.0/Gaussian/g16c01-CUDA-11.7.0/g16/l801.exe)
 DoSCS=F DFT=T ScalE2(SS,OS)=  1.000000  1.000000
 Range of M.O.s used for correlation:     1   257
 NBasis=   257 NAE=    49 NBE=    49 NFC=     0 NFV=     0
 NROrb=    257 NOA=    49 NOB=    49 NVA=   208 NVB=   208

 **** Warning!!: The largest alpha MO coefficient is  0.34146540D+02

 Leave Link  801 at Fri May 23 04:53:47 2025, MaxMem=  3758096384 cpu:               0.0 elap:               0.0
 (Enter /apps/easybuild-2022/easybuild/software/Compiler/NVHPC/22.11-CUDA-11.7.0/Gaussian/g16c01-CUDA-11.7.0/g16/l1101.exe)
 Using compressed storage, NAtomX=    12.
 Will process     13 centers per pass.
 R6Disp: Adding Grimme-D2 dispersion energy 1st derivatives to the gradient.
 Leave Link 1101 at Fri May 23 04:53:47 2025, MaxMem=  3758096384 cpu:               0.5 elap:               0.1
 (Enter /apps/easybuild-2022/easybuild/software/Compiler/NVHPC/22.11-CUDA-11.7.0/Gaussian/g16c01-CUDA-11.7.0/g16/l1102.exe)
 Symmetrizing basis deriv contribution to polar:
 IMax=3 JMax=2 DiffMx= 0.00D+00
 Leave Link 1102 at Fri May 23 04:53:47 2025, MaxMem=  3758096384 cpu:               0.1 elap:               0.0
 (Enter /apps/easybuild-2022/easybuild/software/Compiler/NVHPC/22.11-CUDA-11.7.0/Gaussian/g16c01-CUDA-11.7.0/g16/l1110.exe)
 Forming Gx(P) for the SCF density, NAtomX=    12.
 Integral derivatives from FoFJK, PRISM(SPDF).
 Do as many integral derivatives as possible in FoFJK.
 G2DrvN: MDV=    3758095012.
 G2DrvN: will do    13 centers at a time, making    1 passes.
 Calling FoFCou, ICntrl=  3107 FMM=F I1Cent=   0 AccDes= 0.00D+00.
 FoFJK:  IHMeth= 1 ICntrl=    3107 DoSepK=T KAlg= 0 I1Cent=           0 FoldK=F
 IRaf=         1 NMat=       1 IRICut=       1 DoRegI=T DoRafI=F ISym2E= 0 IDoP0=0 IntGTp=1.
 FoFCou: FMM=F IPFlag=           0 FMFlag=      100000 FMFlg1=           0
         NFxFlg=           0 DoJE=F BraDBF=F KetDBF=F FulRan=T
         wScrn=  0.000000 ICntrl=      3507 IOpCl=  0 I1Cent=           0 NGrid=           0
         NMat0=    1 NMatS0=      1 NMatT0=    0 NMatD0=    1 NMtDS0=    0 NMtDT0=    0
 Symmetry not used in FoFCou.
 End of G2Drv F.D. properties file   721 does not exist.
 End of G2Drv F.D. properties file   722 does not exist.
 End of G2Drv F.D. properties file   788 does not exist.
 Leave Link 1110 at Fri May 23 04:54:00 2025, MaxMem=  3758096384 cpu:             100.5 elap:              12.7
 (Enter /apps/easybuild-2022/easybuild/software/Compiler/NVHPC/22.11-CUDA-11.7.0/Gaussian/g16c01-CUDA-11.7.0/g16/l1002.exe)
 Minotr:  Closed shell wavefunction.
          IDoAtm=111111111111
          Direct CPHF calculation.
          Differentiating once with respect to electric field.
                with respect to dipole field.
          Differentiating once with respect to nuclear coordinates.
          Requested convergence is 1.0D-08 RMS, and 1.0D-07 maximum.
          Secondary convergence is 1.0D-12 RMS, and 1.0D-12 maximum.
          NewPWx=T KeepS1=F KeepF1=F KeepIn=T MapXYZ=F SortEE=F KeepMc=T.
         3731 words used for storage of precomputed grid.
 Keep R1 ints in memory in canonical form, NReq=1117480323.
 FoFCou: FMM=F IPFlag=           0 FMFlag=           0 FMFlg1=           0
         NFxFlg=           0 DoJE=F BraDBF=F KetDBF=F FulRan=T
         wScrn=  0.000000 ICntrl=       600 IOpCl=  0 I1Cent=           0 NGrid=           0
         NMat0=    1 NMatS0=  33153 NMatT0=    0 NMatD0=    1 NMtDS0=    0 NMtDT0=    0
 Symmetry not used in FoFCou.
 Two-electron integral symmetry not used.
          MDV=    3758096384 using IRadAn=       1.
          Solving linear equations simultaneously, MaxMat=       0.
          There are    39 degrees of freedom in the 1st order CPHF.  IDoFFX=6 NUNeed=     3.
     36 vectors produced by pass  0 Test12= 2.61D-14 2.56D-09 XBig12= 7.01D+01 4.94D+00.
 AX will form    36 AO Fock derivatives at one time.
     36 vectors produced by pass  1 Test12= 2.61D-14 2.56D-09 XBig12= 7.66D+00 3.76D-01.
     36 vectors produced by pass  2 Test12= 2.61D-14 2.56D-09 XBig12= 3.26D-01 1.42D-01.
     36 vectors produced by pass  3 Test12= 2.61D-14 2.56D-09 XBig12= 9.97D-03 2.03D-02.
     36 vectors produced by pass  4 Test12= 2.61D-14 2.56D-09 XBig12= 1.89D-04 1.95D-03.
     36 vectors produced by pass  5 Test12= 2.61D-14 2.56D-09 XBig12= 2.58D-06 1.93D-04.
     36 vectors produced by pass  6 Test12= 2.61D-14 2.56D-09 XBig12= 2.11D-08 1.85D-05.
     32 vectors produced by pass  7 Test12= 2.61D-14 2.56D-09 XBig12= 1.57D-10 1.56D-06.
      8 vectors produced by pass  8 Test12= 2.61D-14 2.56D-09 XBig12= 1.11D-12 1.10D-07.
      3 vectors produced by pass  9 Test12= 2.61D-14 2.56D-09 XBig12= 8.25D-15 9.97D-09.
 InvSVY:  IOpt=1 It=  1 EMax= 5.33D-15
 Solved reduced A of dimension   295 with    39 vectors.
 FullF1:  Do perturbations      1 to       3.
 Isotropic polarizability for W=    0.000000       77.35 Bohr**3.
 End of Minotr F.D. properties file   721 does not exist.
 End of Minotr F.D. properties file   722 does not exist.
 End of Minotr F.D. properties file   788 does not exist.
 Leave Link 1002 at Fri May 23 04:54:25 2025, MaxMem=  3758096384 cpu:             200.3 elap:              25.6
 (Enter /apps/easybuild-2022/easybuild/software/Compiler/NVHPC/22.11-CUDA-11.7.0/Gaussian/g16c01-CUDA-11.7.0/g16/l701.exe)
 ... and contract with generalized density number  0.
 Compute integral second derivatives.
 R6Disp: Adding Grimme-D2 dispersion energy 2nd derivatives to the Hessian.
 Leave Link  701 at Fri May 23 04:54:25 2025, MaxMem=  3758096384 cpu:               0.5 elap:               0.1
 (Enter /apps/easybuild-2022/easybuild/software/Compiler/NVHPC/22.11-CUDA-11.7.0/Gaussian/g16c01-CUDA-11.7.0/g16/l702.exe)
 L702 exits ... SP integral derivatives will be done elsewhere.
 Leave Link  702 at Fri May 23 04:54:25 2025, MaxMem=  3758096384 cpu:               0.0 elap:               0.0
 (Enter /apps/easybuild-2022/easybuild/software/Compiler/NVHPC/22.11-CUDA-11.7.0/Gaussian/g16c01-CUDA-11.7.0/g16/l703.exe)
 Integral derivatives from FoFJK, PRISM(SPDF).
 Compute integral second derivatives, UseDBF=F ICtDFT=           0.
 Calling FoFJK, ICntrl=    100127 FMM=F ISym2X=0 I1Cent= 0 IOpClX= 0 NMat=1 NMatS=1 NMatT=0.
 FoFJK:  IHMeth= 1 ICntrl=  100127 DoSepK=T KAlg= 0 I1Cent=           0 FoldK=F
 IRaf=         1 NMat=       1 IRICut=       1 DoRegI=T DoRafI=F ISym2E= 0 IDoP0=0 IntGTp=1.
 FoFCou: FMM=F IPFlag=           0 FMFlag=      100000 FMFlg1=         800
         NFxFlg=           0 DoJE=F BraDBF=F KetDBF=F FulRan=T
         wScrn=  0.000000 ICntrl=    100527 IOpCl=  0 I1Cent=           0 NGrid=           0
         NMat0=    1 NMatS0=      1 NMatT0=    0 NMatD0=    1 NMtDS0=    0 NMtDT0=    0
 Symmetry not used in FoFCou.
 Leave Link  703 at Fri May 23 04:55:01 2025, MaxMem=  3758096384 cpu:             283.1 elap:              35.7
 (Enter /apps/easybuild-2022/easybuild/software/Compiler/NVHPC/22.11-CUDA-11.7.0/Gaussian/g16c01-CUDA-11.7.0/g16/l716.exe)
 Dipole        =-1.71101450D+00 7.26488356D-01 5.33377247D-01
 Polarizability= 1.00552389D+02 2.09709321D+01 7.19554713D+01
                -6.49844707D-02 1.59693180D-01 5.95447970D+01
 -------------------------------------------------------------------
 Center     Atomic                   Forces (Hartrees/Bohr)
 Number     Number              X              Y              Z
 -------------------------------------------------------------------
      1        6           0.042358595   -0.059974397    0.005860041
      2        6           0.020527675    0.065636703   -0.001304720
      3        9          -0.005244309   -0.011756878   -0.014357145
      4        9          -0.006408549   -0.007976204    0.015638383
      5       16           0.010163052   -0.023700247    0.020867685
      6        8           0.020664166    0.028546413    0.030778924
      7        8           0.010724776    0.027402475   -0.022000144
      8        8          -0.019852499    0.006139836   -0.026693181
      9        9          -0.013188047    0.019184557    0.009929335
     10        9          -0.040857662   -0.046212069   -0.009041253
     11        9          -0.013961736    0.016163878   -0.014464302
     12        1          -0.004925461   -0.013454066    0.004786376
 -------------------------------------------------------------------
 Cartesian Forces:  Max     0.065636703 RMS     0.024767060
 Force constants in Cartesian coordinates: 
                1             2             3             4             5 
      1  0.908604D-01
      2  0.161923D+00  0.760688D+00
      3 -0.166069D-01 -0.283840D-02  0.709448D+00
      4 -0.942182D-01  0.849017D-01 -0.778437D-02  0.463378D-01
      5 -0.109923D+00 -0.278072D+00  0.237118D-01 -0.124859D+00  0.682544D+00
      6  0.915477D-02  0.268165D-01 -0.541360D-01  0.877940D-02 -0.262699D-01
      7  0.786778D-02 -0.350255D-01  0.726478D-02 -0.360968D-01  0.599754D-01
      8  0.141523D-01 -0.233493D-01  0.435121D-01  0.388635D-01 -0.142884D+00
      9 -0.225625D-02  0.118743D-01 -0.243587D-01 -0.498784D-01  0.122875D+00
     10  0.919084D-02 -0.383540D-01  0.923673D-04 -0.348155D-01  0.731091D-01
     11  0.146457D-01 -0.328298D-01 -0.417825D-01  0.453866D-01 -0.184782D+00
     12 -0.451426D-04 -0.979831D-02 -0.148767D-01  0.392922D-01 -0.126089D+00
     13  0.992302D-02 -0.896486D-01  0.908037D-02  0.482537D-01  0.793374D-01
     14 -0.936029D-01  0.704387D-01 -0.556934D-02 -0.474620D-01 -0.483331D-01
     15  0.860584D-02 -0.626719D-02  0.113025D-01  0.929466D-02  0.411650D-02
     16  0.328996D-02  0.970936D-02 -0.121639D-02  0.323616D-02 -0.103572D-01
     17  0.184913D-01 -0.140577D-01  0.241668D-03  0.690888D-02  0.811167D-02
     18  0.945919D-02 -0.655759D-02 -0.354619D-02  0.126148D-01  0.213066D-02
     19 -0.208488D-02  0.169931D-01 -0.209396D-02 -0.646833D-02 -0.142128D-01
     20  0.155789D-01 -0.147905D-01  0.121655D-02  0.672972D-02  0.975233D-02
     21 -0.895353D-02  0.258289D-02 -0.441895D-02 -0.128099D-01  0.859076D-03
     22 -0.476005D-02  0.116642D-01 -0.101864D-02 -0.515062D-03 -0.120510D-01
     23  0.232053D-02  0.912762D-02 -0.112365D-02  0.355954D-02 -0.150912D-01
     24 -0.157987D-02  0.469823D-02 -0.220860D-02 -0.181490D-02 -0.538598D-02
     25 -0.437023D-01 -0.275608D-01  0.282132D-01  0.192023D-01 -0.184145D-02
     26 -0.303325D-01 -0.173572D+00  0.154857D+00 -0.215074D-01 -0.138712D-01
     27  0.238041D-01  0.143639D+00 -0.333515D+00  0.337353D-01  0.172167D-01
     28  0.667644D-01 -0.624860D-01  0.635669D-02  0.349251D-01  0.675935D-01
     29  0.400409D-01 -0.572263D-01  0.506714D-02  0.330228D-01  0.406002D-02
     30 -0.660950D-02  0.619532D-02 -0.145892D-01 -0.486845D-02 -0.152739D-02
     31 -0.426343D-01 -0.332980D-01 -0.218654D-01  0.204632D-01 -0.285913D-02
     32 -0.335727D-01 -0.243179D+00 -0.177288D+00 -0.273839D-01 -0.245102D-01
     33 -0.161788D-01 -0.166352D+00 -0.269766D+00 -0.281785D-01 -0.156795D-01
     34 -0.496614D-03  0.118113D-02 -0.421827D-03 -0.304349D-03 -0.391097D-02
     35  0.278362D-03 -0.317855D-02 -0.454730D-05  0.183997D-02  0.307600D-02
     36  0.120604D-02 -0.399344D-02  0.664909D-03  0.161808D-02  0.404187D-02
                6             7             8             9            10 
      6  0.546678D+00
      7 -0.652249D-01  0.436046D-01
      8  0.122373D+00 -0.360918D-01  0.149115D+00
      9 -0.258509D+00  0.598252D-01 -0.148366D+00  0.371418D+00
     10  0.531624D-01  0.869729D-02 -0.706980D-02 -0.637527D-02  0.436840D-01
     11 -0.125120D+00 -0.565671D-02  0.209619D-01  0.940939D-03 -0.475422D-01
     12 -0.197095D+00  0.834172D-02 -0.221016D-01 -0.886058D-01 -0.528689D-01
     13 -0.661433D-02 -0.790830D-02 -0.136900D-01  0.117568D-01 -0.761288D-02
     14  0.384674D-02  0.925404D-02  0.336891D-02 -0.112155D-02  0.135374D-01
     15 -0.351600D-02 -0.171986D-01  0.103224D-01 -0.163767D-01  0.130388D-01
     16 -0.359239D-02 -0.459640D-02  0.448120D-02 -0.585433D-02 -0.318348D-03
     17  0.905375D-03  0.971829D-03 -0.181575D-02  0.233732D-02 -0.124565D-02
     18 -0.416431D-02 -0.257999D-02  0.193673D-03  0.186235D-03 -0.422289D-02
     19  0.800244D-02  0.168965D-02  0.157466D-02 -0.227141D-02 -0.457125D-02
     20 -0.318068D-02 -0.989628D-03 -0.117345D-02  0.174481D-02  0.860551D-03
     21 -0.745544D-02  0.410679D-02 -0.413241D-02  0.786252D-02  0.410835D-02
     22  0.113922D-02 -0.128458D-02  0.332719D-02 -0.301027D-02 -0.267773D-03
     23 -0.246818D-03 -0.271652D-02  0.510724D-02 -0.469539D-02 -0.240258D-02
     24 -0.940769D-03  0.126031D-02 -0.183157D-03  0.910851D-03 -0.128962D-02
     25  0.923388D-02  0.135046D-02 -0.241084D-02 -0.225363D-02 -0.401424D-02
     26  0.376618D-01  0.713997D-04 -0.654441D-02  0.369191D-02  0.616052D-02
     27 -0.179194D-01 -0.494675D-02  0.806551D-03 -0.159363D-02 -0.904199D-02
     28 -0.528966D-02 -0.949683D-02 -0.200384D-02  0.552902D-03 -0.105312D-01
     29  0.606418D-03  0.260057D-02 -0.424227D-02  0.620313D-02  0.187374D-02
     30  0.450729D-02  0.204091D-02 -0.128015D-02  0.970616D-03 -0.184432D-02
     31 -0.748159D-02 -0.379154D-02 -0.184758D-02 -0.493997D-04  0.827242D-03
     32 -0.374031D-01  0.739260D-02  0.228617D-02  0.391302D-02  0.142062D-02
     33 -0.773353D-02  0.710005D-02 -0.465906D-03  0.757327D-02  0.516031D-02
     34 -0.126920D-02 -0.353600D-04  0.715024D-03 -0.186003D-03 -0.268152D-03
     35  0.107322D-04  0.214332D-03 -0.829826D-03  0.602620D-03 -0.347719D-03
     36  0.284503D-03  0.104368D-04 -0.678225D-03  0.522362D-03  0.807128D-04
               11            12            13            14            15 
     11  0.204417D+00
     12  0.169452D+00  0.297073D+00
     13 -0.161803D-01 -0.964420D-02  0.253676D+00
     14 -0.485383D-03 -0.251524D-02 -0.242264D-01  0.299203D+00
     15 -0.111839D-01 -0.106155D-01  0.603820D-01  0.414286D-01  0.119873D+01
     16  0.270134D-02  0.336223D-02 -0.120487D+00  0.607110D-01 -0.173829D+00
     17 -0.733282D-03 -0.108165D-02  0.372588D-01 -0.814417D-01  0.130340D+00
     18  0.393561D-02  0.499449D-02 -0.140553D+00  0.138647D+00 -0.492673D+00
     19  0.661585D-02  0.561038D-02 -0.766979D-01  0.298857D-01  0.110198D+00
     20 -0.219358D-02 -0.206356D-02  0.165415D-01 -0.863149D-01 -0.150725D+00
     21 -0.187264D-02 -0.124235D-02  0.805053D-01 -0.157076D+00 -0.565800D+00
     22  0.316267D-02  0.162848D-02 -0.405830D-01 -0.508979D-01  0.119310D-01
     23  0.671694D-02  0.480007D-02 -0.124752D-01 -0.135836D+00  0.149263D-01
     24  0.250355D-02  0.237633D-02 -0.171473D-03 -0.147796D-01 -0.910565D-01
     25 -0.167513D-02  0.299314D-03 -0.570849D-02  0.214032D-01 -0.135608D-02
     26  0.166045D-02 -0.246735D-02  0.145686D-01 -0.526635D-02  0.154263D-02
     27  0.142285D-02  0.820665D-02 -0.161860D-01 -0.532450D-02 -0.299669D-02
     28 -0.138835D-02 -0.959132D-04 -0.411301D-01  0.670627D-01 -0.575234D-02
     29 -0.488689D-02 -0.519757D-02 -0.670422D-02  0.565250D-03 -0.346383D-02
     30  0.247058D-02  0.164613D-02 -0.404927D-03 -0.897927D-02 -0.301190D-01
     31 -0.200023D-02  0.260809D-02 -0.637305D-02  0.226790D-01 -0.283272D-02
     32 -0.733349D-02 -0.286363D-02  0.172542D-01 -0.356652D-02 -0.118688D-02
     33  0.289147D-03 -0.854414D-03  0.124760D-01  0.645069D-02 -0.337234D-02
     34  0.193075D-02  0.151170D-02 -0.535225D-02 -0.834363D-02 -0.124811D-01
     35 -0.511579D-03 -0.741206D-04 -0.203574D-02 -0.123319D-01 -0.298492D-01
     36 -0.105558D-02 -0.100628D-02 -0.626400D-03  0.499261D-02  0.649177D-02
               16            17            18            19            20 
     16  0.120370D+00
     17 -0.245390D-02  0.163200D+00
     18  0.207691D+00 -0.130087D+00  0.526833D+00
     19  0.136962D-01  0.894339D-03 -0.145481D-01  0.667293D-01
     20  0.127976D-02  0.710468D-02  0.683407D-02 -0.369964D-03  0.135882D+00
     21  0.108803D-01 -0.812106D-02 -0.657292D-02 -0.123457D+00  0.143991D+00
     22  0.147046D-01  0.121185D-01 -0.105724D-01  0.442991D-02  0.562110D-02
     23 -0.123587D-01 -0.406255D-01  0.275488D-01 -0.118759D-01 -0.189732D-01
     24  0.197015D-02  0.474786D-01 -0.767747D-02 -0.899385D-02 -0.408642D-01
     25 -0.486737D-03 -0.390868D-02 -0.285867D-02  0.117503D-02 -0.451222D-02
     26 -0.250399D-02  0.900486D-03 -0.810143D-03 -0.278339D-02  0.979294D-03
     27  0.301733D-02  0.178542D-02  0.256351D-02  0.280245D-02  0.117450D-02
     28 -0.270560D-01 -0.649994D-01 -0.507200D-01 -0.156083D-02 -0.381033D-01
     29 -0.494653D-01 -0.457212D-01 -0.446695D-01 -0.208071D-01 -0.273856D-01
     30 -0.406759D-01 -0.435428D-01 -0.163740D-01  0.267137D-01  0.401132D-01
     31 -0.367828D-03 -0.640868D-02 -0.295740D-02  0.104659D-02 -0.345492D-02
     32 -0.247496D-02 -0.560373D-03  0.583330D-03 -0.376920D-02  0.142339D-02
     33 -0.193086D-02 -0.292198D-02  0.259198D-05 -0.230614D-02 -0.508876D-03
     34 -0.198447D-02  0.237263D-02 -0.751912D-03  0.261652D-02  0.818391D-03
     35  0.731393D-03  0.563868D-02  0.225140D-02 -0.214526D-02 -0.431065D-02
     36  0.178616D-03  0.266670D-02 -0.357188D-02  0.343484D-03  0.226874D-02
               21            22            23            24            25 
     21  0.608929D+00
     22  0.346460D-02  0.302483D-01
     23 -0.115857D-01  0.665366D-01  0.322637D+00
     24 -0.103331D-01  0.397334D-01  0.182128D+00  0.523630D+00
     25  0.224726D-02  0.102346D-02 -0.131390D-03  0.738964D-03  0.489055D-01
     26 -0.259315D-03 -0.196844D-02 -0.193408D-02 -0.812024D-03  0.307946D-01
     27  0.164340D-03  0.159281D-02  0.259565D-02  0.104170D-02 -0.468113D-01
     28  0.347041D-01  0.552661D-02 -0.103078D-03  0.239882D-02 -0.332080D-01
     29  0.351287D-01 -0.195735D-02 -0.288992D-02  0.144994D-02 -0.139451D-01
     30 -0.266617D-01 -0.830649D-03 -0.809543D-04  0.739032D-02  0.147729D-01
     31  0.268122D-02  0.138850D-02 -0.447796D-03  0.158306D-03  0.151142D-01
     32  0.197962D-02 -0.203504D-02 -0.248657D-02 -0.779871D-03  0.381270D-02
     33  0.268261D-02 -0.978894D-03 -0.217082D-02 -0.352241D-03 -0.186184D-02
     34  0.252218D-02 -0.991099D-02 -0.299056D-01 -0.324103D-01  0.348910D-03
     35 -0.149371D-02 -0.335206D-01 -0.125752D+00 -0.175453D+00 -0.248987D-04
     36  0.284638D-02 -0.430787D-01 -0.212095D+00 -0.422781D+00 -0.364006D-03
               26            27            28            29            30 
     26  0.163917D+00
     27 -0.165018D+00  0.446740D+00
     28  0.319283D-02  0.105080D-01  0.497051D-01
     29  0.914455D-02 -0.856735D-04  0.306791D-01  0.118156D+00
     30 -0.361807D-03 -0.116824D-02  0.202804D-01  0.651410D-02  0.736324D-01
     31  0.434058D-02  0.144673D-02 -0.342496D-01 -0.155651D-01 -0.993849D-02
     32  0.239618D-01  0.251679D-02  0.463094D-03  0.960027D-02 -0.104258D-02
     33 -0.287146D-01 -0.100781D+00 -0.117127D-01 -0.140281D-02  0.106803D-02
     34 -0.328416D-04  0.791745D-04  0.311451D-03  0.227079D-03  0.136435D-02
     35  0.624822D-03 -0.729539D-03  0.927784D-04  0.826477D-03  0.152176D-02
     36  0.689709D-03 -0.742498D-03 -0.123037D-02 -0.150120D-03 -0.302718D-03
               31            32            33            34            35 
     31  0.486639D-01
     32  0.390233D-01  0.243619D+00
     33  0.385493D-01  0.210848D+00  0.371107D+00
     34 -0.872390D-04 -0.130658D-03 -0.137938D-03  0.151625D-01
     35 -0.161327D-03  0.745538D-03  0.628008D-03  0.350787D-01  0.136003D+00
     36 -0.318678D-03  0.723151D-03  0.425638D-03  0.421808D-01  0.202590D+00
               36 
     36  0.417169D+00
 FormGI is forming the generalized inverse of G from B-inverse, IUseBI=4.
 GSVD:  received Info=                   1 from GESDD.
 Leave Link  716 at Fri May 23 04:55:01 2025, MaxMem=  3758096384 cpu:               0.0 elap:               0.0
 (Enter /apps/easybuild-2022/easybuild/software/Compiler/NVHPC/22.11-CUDA-11.7.0/Gaussian/g16c01-CUDA-11.7.0/g16/l103.exe)

 GradGradGradGradGradGradGradGradGradGradGradGradGradGradGradGradGradGrad
 Berny optimization.
 Red2BG is reusing G-inverse.
 Internal  Forces:  Max     0.110773455 RMS     0.030459974
 Search for a saddle point.
 Step number   1 out of a maximum of  100
 All quantities printed in internal units (Hartrees-Bohrs-Radians)
 Swapping is turned off.
 Second derivative matrix not updated -- analytic derivatives used.
 ITU=  0
     Eigenvalues ---   -0.29779  -0.02218   0.00607   0.00917   0.01899
     Eigenvalues ---    0.02811   0.05212   0.06415   0.07184   0.09690
     Eigenvalues ---    0.09914   0.11219   0.13337   0.17905   0.21204
     Eigenvalues ---    0.21384   0.22061   0.23226   0.24870   0.36979
     Eigenvalues ---    0.41864   0.44558   0.47565   0.48152   0.52874
     Eigenvalues ---    0.60170   0.62433   0.63109   0.68433   0.69005
 Eigenvectors required to have negative eigenvalues:
                          A16       R3        R1        D1        D6
   1                   -0.63991  -0.48187   0.30493   0.18675  -0.18573
                          R10       A7        A8        D3        D4
   1                    0.17002  -0.13555  -0.13359   0.12729  -0.12460
 Eigenvalue     2 is  -2.22D-02 should be greater than     0.000000 Eigenvector:
                          R10       A18       R3        A16       D5
   1                   -0.49467  -0.45317   0.38160  -0.37933   0.22492
                          A12       A17       D2        A14       D13
   1                    0.18747   0.18165  -0.17624   0.17355  -0.15269
 RFO step:  Lambda0=2.907340916D-02 Lambda=-1.24309975D-01.
 Linear search not attempted -- option 19 set.
 Maximum step size (   0.300) exceeded in Quadratic search.
    -- Step size scaled by   0.267
 Iteration  1 RMS(Cart)=  0.16657112 RMS(Int)=  0.00972594
 Iteration  2 RMS(Cart)=  0.01892051 RMS(Int)=  0.00147683
 Iteration  3 RMS(Cart)=  0.00012464 RMS(Int)=  0.00147580
 Iteration  4 RMS(Cart)=  0.00000035 RMS(Int)=  0.00147580
 ITry= 1 IFail=0 DXMaxC= 7.08D-01 DCOld= 1.00D+10 DXMaxT= 3.00D-01 DXLimC= 3.00D+00 Rises=F
 Variable       Old X    -DE/DX   Delta X   Delta X   Delta X     New X
                                 (Linear)    (Quad)   (Total)
    R1        2.64085   0.04641   0.00000  -0.01005  -0.01005   2.63080
    R2        2.40911   0.00083   0.00000  -0.00471  -0.00471   2.40439
    R3        3.97266  -0.01965   0.00000   0.13017   0.13017   4.10283
    R4        2.40616   0.00184   0.00000  -0.00495  -0.00495   2.40121
    R5        2.48914   0.00759   0.00000   0.00318   0.00318   2.49232
    R6        2.50547   0.00796   0.00000   0.00402   0.00402   2.50949
    R7        2.72255   0.02670   0.00000   0.00095   0.00095   2.72350
    R8        2.70417   0.01464   0.00000  -0.00019  -0.00019   2.70397
    R9        3.13304  -0.01476   0.00000  -0.00780  -0.00780   3.12524
   R10        3.56031   0.02855   0.00000  -0.12293  -0.12293   3.43738
   R11        1.82507  -0.00258   0.00000  -0.00017  -0.00017   1.82490
    A1        2.17571  -0.01271   0.00000  -0.00774  -0.00775   2.16796
    A2        1.49986   0.00014   0.00000   0.01834   0.01837   1.51823
    A3        2.18030  -0.00743   0.00000  -0.01012  -0.01014   2.17016
    A4        1.56106   0.00981   0.00000  -0.02153  -0.02150   1.53957
    A5        1.92137   0.02236   0.00000   0.01567   0.01546   1.93683
    A6        1.55724   0.00925   0.00000  -0.01987  -0.01982   1.53742
    A7        2.09070  -0.02167   0.00000  -0.00134  -0.00136   2.08934
    A8        2.07382  -0.02039   0.00000   0.00087   0.00085   2.07467
    A9        1.86876   0.02834   0.00000   0.01034   0.01031   1.87907
   A10        2.33479   0.02898   0.00000   0.01695   0.01315   2.34794
   A11        1.72841  -0.01849   0.00000   0.00066   0.00100   1.72941
   A12        1.35505   0.07470   0.00000   0.08302   0.08356   1.43860
   A13        1.79044  -0.03759   0.00000  -0.01755  -0.01626   1.77418
   A14        1.45835   0.04053   0.00000   0.06969   0.07142   1.52976
   A15        2.06591  -0.02716   0.00000  -0.02802  -0.02802   2.03789
   A16        1.76070  -0.11077   0.00000  -0.07654  -0.07654   1.68416
   A17        3.08346   0.05621   0.00000   0.08369   0.08456   3.16802
   A18        3.04408  -0.06726   0.00000  -0.17315  -0.17286   2.87122
    D1       -2.80435   0.01575   0.00000  -0.01827  -0.01828  -2.82263
    D2       -0.45666   0.00940   0.00000  -0.00065  -0.00066  -0.45732
    D3        1.96907   0.00223   0.00000  -0.00564  -0.00565   1.96342
    D4       -1.96643  -0.00412   0.00000   0.01197   0.01197  -1.95446
    D5        0.46451  -0.01008   0.00000   0.00460   0.00461   0.46912
    D6        2.81219  -0.01643   0.00000   0.02222   0.02224   2.83443
    D7       -0.00000  -0.00512   0.00000   0.00160   0.00160   0.00160
    D8       -2.17832   0.00856   0.00000   0.00849   0.00870  -2.16962
    D9        2.18330  -0.01348   0.00000  -0.00787  -0.00808   2.17522
   D10       -0.49078   0.00220   0.00000   0.00550   0.00376  -0.48701
   D11       -2.91451  -0.00247   0.00000  -0.00543  -0.00369  -2.91820
   D12        2.05993   0.00197   0.00000   0.01790   0.01220   2.07213
   D13       -1.82314  -0.01462   0.00000  -0.02838  -0.02268  -1.84582
         Item               Value     Threshold  Converged?
 Maximum Force            0.110773     0.000450     NO 
 RMS     Force            0.030460     0.000300     NO 
 Maximum Displacement     0.707982     0.001800     NO 
 RMS     Displacement     0.178505     0.001200     NO 
 Predicted change in Energy=-3.017710D-02
 Lowest energy point so far.  Saving SCF results.
 GradGradGradGradGradGradGradGradGradGradGradGradGradGradGradGradGradGrad

 Leave Link  103 at Fri May 23 04:55:01 2025, MaxMem=  3758096384 cpu:               0.0 elap:               0.0
 (Enter /apps/easybuild-2022/easybuild/software/Compiler/NVHPC/22.11-CUDA-11.7.0/Gaussian/g16c01-CUDA-11.7.0/g16/l202.exe)
                          Input orientation:                          
 ---------------------------------------------------------------------
 Center     Atomic      Atomic             Coordinates (Angstroms)
 Number     Number       Type             X           Y           Z
 ---------------------------------------------------------------------
      1          6           0       -0.335139   -1.264208    0.147099
      2          6           0        0.091281    0.053639    0.007252
      3          9           0       -0.142728    0.700458   -1.118053
      4          9           0       -0.109261    0.902144    1.008905
      5         16           0        2.424785   -0.135244   -0.008613
      6          8           0        3.014922   -0.436876    1.271174
      7          8           0        2.743449   -0.466631   -1.363625
      8          8           0        2.627749    1.506061   -0.009542
      9          9           0       -0.463657   -1.859879    1.264029
     10          9           0        1.763425   -1.820383    0.169183
     11          9           0       -0.495246   -2.072290   -0.820350
     12          1           0        2.651969    1.941709    0.851966
 ---------------------------------------------------------------------
                    Distance matrix (angstroms):
                    1          2          3          4          5
     1  C    0.000000
     2  C    1.392161   0.000000
     3  F    2.344685   1.318880   0.000000
     4  F    2.342394   1.327963   2.136761   0.000000
     5  S    2.985964   2.341190   2.919140   2.921113   0.000000
     6  O    3.629178   3.222698   4.119792   3.409146   1.441214
     7  O    3.520811   3.030508   3.122886   3.954793   1.430881
     8  O    4.059265   2.922924   3.090847   2.982142   1.653807
     9  F    1.272349   2.355630   3.511785   2.796328   3.596815
    10  F    2.171126   2.516793   3.412482   3.409433   1.818983
    11  F    1.270664   2.355528   2.810877   3.513177   3.596894
    12  H    4.438193   3.291728   3.637583   2.954609   2.259633
                    6          7          8          9         10
     6  O    0.000000
     7  O    2.648914   0.000000
     8  O    2.359054   2.395504   0.000000
     9  F    3.758391   4.373926   4.744293   0.000000
    10  F    2.166730   2.267728   3.441544   2.481963   0.000000
    11  F    4.401174   3.655466   4.818205   2.095412   2.478756
    12  H    2.442363   3.273731   0.965698   4.932443   3.925435
                   11         12
    11  F    0.000000
    12  H    5.367848   0.000000
 Symmetry turned off by external request.
 Stoichiometry    C2HF5O3S
 Rotational constants (GHZ):           1.3948463           0.8688683           0.7654192
 Leave Link  202 at Fri May 23 04:55:01 2025, MaxMem=  3758096384 cpu:               0.0 elap:               0.0
 (Enter /apps/easybuild-2022/easybuild/software/Compiler/NVHPC/22.11-CUDA-11.7.0/Gaussian/g16c01-CUDA-11.7.0/g16/l301.exe)
 Standard basis: 6-311++G(d,p) (5D, 7F)
 Ernie: Thresh=  0.10000D-02 Tol=  0.10000D-05 Strict=F.
   257 basis functions,   419 primitive gaussians,   268 cartesian basis functions
    49 alpha electrons       49 beta electrons
       nuclear repulsion energy       912.8483643225 Hartrees.
 IExCor= 4639 DFT=T Ex+Corr=wB97XD ExCW=0 ScaHFX=  1.000000
 ScaDFX=  1.000000  1.000000  1.000000  1.000000 ScalE2=  1.000000  1.000000
 IRadAn=      5 IRanWt=     -1 IRanGd=            0 ICorTp=0 IEmpDi=121
 HFx  wShort=  0.000000 wLong=  0.200000 cFull=  0.222036 cShort=  0.000000 cLong=  0.777964
 DFx  wShort=  0.000000 wLong=  0.200000 cFull=  0.000000 cShort=  0.000000 cLong=  1.000000
 NAtoms=   12 NActive=   12 NUniq=   12 SFac= 1.00D+00 NAtFMM=   60 NAOKFM=F Big=F
 Integral buffers will be    131072 words long.
 Raffenetti 2 integral format.
 Two-electron integral symmetry is turned off.
 R6Disp:  Grimme-D2 Dispersion energy=       -0.0057175164 Hartrees.
 Nuclear repulsion after empirical dispersion term =      912.8426468061 Hartrees.
 Leave Link  301 at Fri May 23 04:55:01 2025, MaxMem=  3758096384 cpu:               0.0 elap:               0.0
 (Enter /apps/easybuild-2022/easybuild/software/Compiler/NVHPC/22.11-CUDA-11.7.0/Gaussian/g16c01-CUDA-11.7.0/g16/l302.exe)
 NPDir=0 NMtPBC=     1 NCelOv=     1 NCel=       1 NClECP=     1 NCelD=      1
         NCelK=      1 NCelE2=     1 NClLst=     1 CellRange=     0.0.
 One-electron integrals computed using PRISM.
 NBasis=   257 RedAO= T EigKep=  4.74D-05  NBF=   257
 NBsUse=   257 1.00D-06 EigRej= -1.00D+00 NBFU=   257
 Precomputing XC quadrature grid using
 IXCGrd= 4 IRadAn=           5 IRanWt=          -1 IRanGd=           0 AccXCQ= 0.00D+00.
 Generated NRdTot=       0 NPtTot=           0 NUsed=           0 NTot=          32
 NSgBfM=   268   268   268   268   268 MxSgAt=    12 MxSgA2=    12.
 Leave Link  302 at Fri May 23 04:55:01 2025, MaxMem=  3758096384 cpu:               0.5 elap:               0.1
 (Enter /apps/easybuild-2022/easybuild/software/Compiler/NVHPC/22.11-CUDA-11.7.0/Gaussian/g16c01-CUDA-11.7.0/g16/l303.exe)
 DipDrv:  MaxL=1.
 Leave Link  303 at Fri May 23 04:55:01 2025, MaxMem=  3758096384 cpu:               0.0 elap:               0.0
 (Enter /apps/easybuild-2022/easybuild/software/Compiler/NVHPC/22.11-CUDA-11.7.0/Gaussian/g16c01-CUDA-11.7.0/g16/l401.exe)
 Initial guess from the checkpoint file:  "/tmp/Gau-59359.chk"
 B after Tr=     0.072543    0.035511    0.016075
         Rot=    0.999930    0.000205   -0.004337    0.010978 Ang=   1.35 deg.
 Guess basis will be translated and rotated to current coordinates.
 JPrj=2 DoOrth=T DoCkMO=T.
 Generating alternative initial guess.
 ExpMin= 3.60D-02 ExpMax= 9.34D+04 ExpMxC= 3.17D+03 IAcc=3 IRadAn=         5 AccDes= 0.00D+00
 Harris functional with IExCor= 4639 and IRadAn=       5 diagonalized for initial guess.
 HarFok:  IExCor= 4639 AccDes= 0.00D+00 IRadAn=         5 IDoV= 1 UseB2=F ITyADJ=14
 ICtDFT=  3500011 ScaDFX=  1.000000  1.000000  1.000000  1.000000
 FoFCou: FMM=F IPFlag=           0 FMFlag=      100000 FMFlg1=           0
         NFxFlg=           0 DoJE=T BraDBF=F KetDBF=T FulRan=T
         wScrn=  0.000000 ICntrl=       500 IOpCl=  0 I1Cent=   200000004 NGrid=           0
         NMat0=    1 NMatS0=      1 NMatT0=    0 NMatD0=    1 NMtDS0=    0 NMtDT0=    0
 Symmetry not used in FoFCou.
 Harris En= -1167.00123978831    
 Leave Link  401 at Fri May 23 04:55:02 2025, MaxMem=  3758096384 cpu:               2.6 elap:               0.4
 (Enter /apps/easybuild-2022/easybuild/software/Compiler/NVHPC/22.11-CUDA-11.7.0/Gaussian/g16c01-CUDA-11.7.0/g16/l502.exe)
 Keep R1 ints in memory in canonical form, NReq=1117474609.
 FoFCou: FMM=F IPFlag=           0 FMFlag=           0 FMFlg1=           0
         NFxFlg=           0 DoJE=F BraDBF=F KetDBF=F FulRan=T
         wScrn=  0.000000 ICntrl=       600 IOpCl=  0 I1Cent=           0 NGrid=           0
         NMat0=    1 NMatS0=  33153 NMatT0=    0 NMatD0=    1 NMtDS0=    0 NMtDT0=    0
 Symmetry not used in FoFCou.
 Two-electron integral symmetry not used.
 Closed shell SCF:
 Using DIIS extrapolation, IDIIS=  1040.
 NGot=  3758096384 LenX=  2658793876 LenY=  2658721611
 Requested convergence on RMS density matrix=1.00D-08 within  32 cycles.
 Requested convergence on MAX density matrix=1.00D-06.
 Requested convergence on             energy=1.00D-06.
 No special actions if energy rises.

 Cycle   1  Pass 1  IDiag  1:
 E= -1199.58212003948    
 DIIS: error= 6.06D-03 at cycle   1 NSaved=   1.
 NSaved= 1 IEnMin= 1 EnMin= -1199.58212003948     IErMin= 1 ErrMin= 6.06D-03
 ErrMax= 6.06D-03  0.00D+00 EMaxC= 1.00D-01 BMatC= 3.03D-02 BMatP= 3.03D-02
 IDIUse=3 WtCom= 9.39D-01 WtEn= 6.06D-02
 Coeff-Com:  0.100D+01
 Coeff-En:   0.100D+01
 Coeff:      0.100D+01
 Gap=     0.698 Goal=   None    Shift=    0.000
 GapD=    0.698 DampG=2.000 DampE=1.000 DampFc=2.0000 IDamp=-1.
 RMSDP=2.93D-03 MaxDP=1.60D-01              OVMax= 5.83D-02

 Cycle   2  Pass 1  IDiag  1:
 E= -1199.62978914133     Delta-E=       -0.047669101851 Rises=F Damp=F
 DIIS: error= 2.12D-03 at cycle   2 NSaved=   2.
 NSaved= 2 IEnMin= 2 EnMin= -1199.62978914133     IErMin= 2 ErrMin= 2.12D-03
 ErrMax= 2.12D-03  0.00D+00 EMaxC= 1.00D-01 BMatC= 2.18D-03 BMatP= 3.03D-02
 IDIUse=3 WtCom= 9.79D-01 WtEn= 2.12D-02
 Coeff-Com: -0.686D-01 0.107D+01
 Coeff-En:   0.000D+00 0.100D+01
 Coeff:     -0.671D-01 0.107D+01
 Gap=     0.262 Goal=   None    Shift=    0.000
 RMSDP=7.89D-04 MaxDP=4.96D-02 DE=-4.77D-02 OVMax= 2.59D-02

 Cycle   3  Pass 1  IDiag  1:
 E= -1199.63268892202     Delta-E=       -0.002899780686 Rises=F Damp=F
 DIIS: error= 1.93D-03 at cycle   3 NSaved=   3.
 NSaved= 3 IEnMin= 3 EnMin= -1199.63268892202     IErMin= 3 ErrMin= 1.93D-03
 ErrMax= 1.93D-03  0.00D+00 EMaxC= 1.00D-01 BMatC= 2.30D-03 BMatP= 2.18D-03
 IDIUse=3 WtCom= 9.81D-01 WtEn= 1.93D-02
 Coeff-Com: -0.964D-01 0.586D+00 0.510D+00
 Coeff-En:   0.000D+00 0.000D+00 0.100D+01
 Coeff:     -0.946D-01 0.575D+00 0.519D+00
 Gap=     0.264 Goal=   None    Shift=    0.000
 RMSDP=2.31D-04 MaxDP=7.01D-03 DE=-2.90D-03 OVMax= 1.53D-02

 Cycle   4  Pass 1  IDiag  1:
 E= -1199.63452671420     Delta-E=       -0.001837792187 Rises=F Damp=F
 DIIS: error= 5.74D-04 at cycle   4 NSaved=   4.
 NSaved= 4 IEnMin= 4 EnMin= -1199.63452671420     IErMin= 4 ErrMin= 5.74D-04
 ErrMax= 5.74D-04  0.00D+00 EMaxC= 1.00D-01 BMatC= 1.40D-04 BMatP= 2.18D-03
 IDIUse=3 WtCom= 9.94D-01 WtEn= 5.74D-03
 Coeff-Com: -0.583D-02-0.649D-01 0.143D+00 0.928D+00
 Coeff-En:   0.000D+00 0.000D+00 0.000D+00 0.100D+01
 Coeff:     -0.580D-02-0.645D-01 0.142D+00 0.928D+00
 Gap=     0.262 Goal=   None    Shift=    0.000
 RMSDP=2.13D-04 MaxDP=1.42D-02 DE=-1.84D-03 OVMax= 1.26D-02

 Cycle   5  Pass 1  IDiag  1:
 E= -1199.63486148790     Delta-E=       -0.000334773695 Rises=F Damp=F
 DIIS: error= 2.87D-04 at cycle   5 NSaved=   5.
 NSaved= 5 IEnMin= 5 EnMin= -1199.63486148790     IErMin= 5 ErrMin= 2.87D-04
 ErrMax= 2.87D-04  0.00D+00 EMaxC= 1.00D-01 BMatC= 3.40D-05 BMatP= 1.40D-04
 IDIUse=3 WtCom= 9.97D-01 WtEn= 2.87D-03
 Coeff-Com:  0.980D-02-0.107D+00 0.137D-01 0.446D+00 0.638D+00
 Coeff-En:   0.000D+00 0.000D+00 0.000D+00 0.000D+00 0.100D+01
 Coeff:      0.977D-02-0.107D+00 0.137D-01 0.445D+00 0.639D+00
 Gap=     0.263 Goal=   None    Shift=    0.000
 RMSDP=6.85D-05 MaxDP=2.79D-03 DE=-3.35D-04 OVMax= 6.12D-03

 Cycle   6  Pass 1  IDiag  1:
 E= -1199.63495075989     Delta-E=       -0.000089271995 Rises=F Damp=F
 DIIS: error= 2.20D-04 at cycle   6 NSaved=   6.
 NSaved= 6 IEnMin= 6 EnMin= -1199.63495075989     IErMin= 6 ErrMin= 2.20D-04
 ErrMax= 2.20D-04  0.00D+00 EMaxC= 1.00D-01 BMatC= 8.47D-06 BMatP= 3.40D-05
 IDIUse=3 WtCom= 9.98D-01 WtEn= 2.20D-03
 Coeff-Com:  0.563D-02-0.203D-01-0.412D-01-0.181D+00 0.257D+00 0.980D+00
 Coeff-En:   0.000D+00 0.000D+00 0.000D+00 0.000D+00 0.000D+00 0.100D+01
 Coeff:      0.562D-02-0.203D-01-0.411D-01-0.181D+00 0.256D+00 0.980D+00
 Gap=     0.263 Goal=   None    Shift=    0.000
 RMSDP=6.88D-05 MaxDP=2.39D-03 DE=-8.93D-05 OVMax= 7.65D-03

 Cycle   7  Pass 1  IDiag  1:
 E= -1199.63500224711     Delta-E=       -0.000051487220 Rises=F Damp=F
 DIIS: error= 8.68D-05 at cycle   7 NSaved=   7.
 NSaved= 7 IEnMin= 7 EnMin= -1199.63500224711     IErMin= 7 ErrMin= 8.68D-05
 ErrMax= 8.68D-05  0.00D+00 EMaxC= 1.00D-01 BMatC= 1.62D-06 BMatP= 8.47D-06
 IDIUse=1 WtCom= 1.00D+00 WtEn= 0.00D+00
 Coeff-Com: -0.901D-03 0.204D-01-0.107D-01-0.159D+00-0.111D+00 0.227D+00
 Coeff-Com:  0.103D+01
 Coeff:     -0.901D-03 0.204D-01-0.107D-01-0.159D+00-0.111D+00 0.227D+00
 Coeff:      0.103D+01
 Gap=     0.263 Goal=   None    Shift=    0.000
 RMSDP=3.91D-05 MaxDP=9.95D-04 DE=-5.15D-05 OVMax= 4.43D-03

 Cycle   8  Pass 1  IDiag  1:
 E= -1199.63501367849     Delta-E=       -0.000011431381 Rises=F Damp=F
 DIIS: error= 3.94D-05 at cycle   8 NSaved=   8.
 NSaved= 8 IEnMin= 8 EnMin= -1199.63501367849     IErMin= 8 ErrMin= 3.94D-05
 ErrMax= 3.94D-05  0.00D+00 EMaxC= 1.00D-01 BMatC= 5.11D-07 BMatP= 1.62D-06
 IDIUse=1 WtCom= 1.00D+00 WtEn= 0.00D+00
 Coeff-Com: -0.161D-02 0.160D-01 0.332D-02-0.560D-01-0.112D+00-0.341D-01
 Coeff-Com:  0.535D+00 0.649D+00
 Coeff:     -0.161D-02 0.160D-01 0.332D-02-0.560D-01-0.112D+00-0.341D-01
 Coeff:      0.535D+00 0.649D+00
 Gap=     0.263 Goal=   None    Shift=    0.000
 RMSDP=1.16D-05 MaxDP=3.83D-04 DE=-1.14D-05 OVMax= 1.32D-03

 Cycle   9  Pass 1  IDiag  1:
 E= -1199.63501493983     Delta-E=       -0.000001261340 Rises=F Damp=F
 DIIS: error= 1.20D-05 at cycle   9 NSaved=   9.
 NSaved= 9 IEnMin= 9 EnMin= -1199.63501493983     IErMin= 9 ErrMin= 1.20D-05
 ErrMax= 1.20D-05  0.00D+00 EMaxC= 1.00D-01 BMatC= 6.93D-08 BMatP= 5.11D-07
 IDIUse=1 WtCom= 1.00D+00 WtEn= 0.00D+00
 Coeff-Com: -0.345D-03 0.127D-02 0.339D-02 0.101D-01-0.223D-01-0.384D-01
 Coeff-Com: -0.324D-01 0.225D+00 0.853D+00
 Coeff:     -0.345D-03 0.127D-02 0.339D-02 0.101D-01-0.223D-01-0.384D-01
 Coeff:     -0.324D-01 0.225D+00 0.853D+00
 Gap=     0.263 Goal=   None    Shift=    0.000
 RMSDP=4.79D-06 MaxDP=1.17D-04 DE=-1.26D-06 OVMax= 5.57D-04

 Cycle  10  Pass 1  IDiag  1:
 E= -1199.63501517862     Delta-E=       -0.000000238784 Rises=F Damp=F
 DIIS: error= 5.86D-06 at cycle  10 NSaved=  10.
 NSaved=10 IEnMin=10 EnMin= -1199.63501517862     IErMin=10 ErrMin= 5.86D-06
 ErrMax= 5.86D-06  0.00D+00 EMaxC= 1.00D-01 BMatC= 1.21D-08 BMatP= 6.93D-08
 IDIUse=1 WtCom= 1.00D+00 WtEn= 0.00D+00
 Coeff-Com:  0.137D-03-0.222D-02 0.603D-03 0.130D-01 0.101D-01-0.362D-02
 Coeff-Com: -0.116D+00-0.227D-01 0.274D+00 0.847D+00
 Coeff:      0.137D-03-0.222D-02 0.603D-03 0.130D-01 0.101D-01-0.362D-02
 Coeff:     -0.116D+00-0.227D-01 0.274D+00 0.847D+00
 Gap=     0.263 Goal=   None    Shift=    0.000
 RMSDP=2.41D-06 MaxDP=9.94D-05 DE=-2.39D-07 OVMax= 2.36D-04

 Cycle  11  Pass 1  IDiag  1:
 E= -1199.63501523924     Delta-E=       -0.000000060621 Rises=F Damp=F
 DIIS: error= 4.01D-06 at cycle  11 NSaved=  11.
 NSaved=11 IEnMin=11 EnMin= -1199.63501523924     IErMin=11 ErrMin= 4.01D-06
 ErrMax= 4.01D-06  0.00D+00 EMaxC= 1.00D-01 BMatC= 4.55D-09 BMatP= 1.21D-08
 IDIUse=1 WtCom= 1.00D+00 WtEn= 0.00D+00
 Coeff-Com:  0.125D-03-0.119D-02-0.473D-03 0.345D-02 0.880D-02 0.891D-02
 Coeff-Com: -0.439D-01-0.488D-01-0.669D-01 0.413D+00 0.727D+00
 Coeff:      0.125D-03-0.119D-02-0.473D-03 0.345D-02 0.880D-02 0.891D-02
 Coeff:     -0.439D-01-0.488D-01-0.669D-01 0.413D+00 0.727D+00
 Gap=     0.263 Goal=   None    Shift=    0.000
 RMSDP=1.02D-06 MaxDP=2.52D-05 DE=-6.06D-08 OVMax= 8.76D-05

 Cycle  12  Pass 1  IDiag  1:
 E= -1199.63501525791     Delta-E=       -0.000000018671 Rises=F Damp=F
 DIIS: error= 2.34D-06 at cycle  12 NSaved=  12.
 NSaved=12 IEnMin=12 EnMin= -1199.63501525791     IErMin=12 ErrMin= 2.34D-06
 ErrMax= 2.34D-06  0.00D+00 EMaxC= 1.00D-01 BMatC= 1.18D-09 BMatP= 4.55D-09
 IDIUse=1 WtCom= 1.00D+00 WtEn= 0.00D+00
 Coeff-Com:  0.111D-04 0.307D-03-0.488D-03-0.359D-02-0.138D-03 0.618D-02
 Coeff-Com:  0.240D-01-0.138D-01-0.150D+00-0.143D+00 0.272D+00 0.101D+01
 Coeff:      0.111D-04 0.307D-03-0.488D-03-0.359D-02-0.138D-03 0.618D-02
 Coeff:      0.240D-01-0.138D-01-0.150D+00-0.143D+00 0.272D+00 0.101D+01
 Gap=     0.263 Goal=   None    Shift=    0.000
 RMSDP=9.12D-07 MaxDP=2.72D-05 DE=-1.87D-08 OVMax= 9.09D-05

 Cycle  13  Pass 1  IDiag  1:
 E= -1199.63501526742     Delta-E=       -0.000000009514 Rises=F Damp=F
 DIIS: error= 1.13D-06 at cycle  13 NSaved=  13.
 NSaved=13 IEnMin=13 EnMin= -1199.63501526742     IErMin=13 ErrMin= 1.13D-06
 ErrMax= 1.13D-06  0.00D+00 EMaxC= 1.00D-01 BMatC= 3.02D-10 BMatP= 1.18D-09
 IDIUse=1 WtCom= 1.00D+00 WtEn= 0.00D+00
 Coeff-Com: -0.236D-04 0.387D-03-0.917D-04-0.232D-02-0.223D-02 0.844D-03
 Coeff-Com:  0.193D-01 0.428D-02-0.467D-01-0.141D+00-0.700D-01 0.446D+00
 Coeff-Com:  0.792D+00
 Coeff:     -0.236D-04 0.387D-03-0.917D-04-0.232D-02-0.223D-02 0.844D-03
 Coeff:      0.193D-01 0.428D-02-0.467D-01-0.141D+00-0.700D-01 0.446D+00
 Coeff:      0.792D+00
 Gap=     0.263 Goal=   None    Shift=    0.000
 RMSDP=3.62D-07 MaxDP=1.12D-05 DE=-9.51D-09 OVMax= 4.09D-05

 Cycle  14  Pass 1  IDiag  1:
 E= -1199.63501526895     Delta-E=       -0.000000001529 Rises=F Damp=F
 DIIS: error= 5.24D-07 at cycle  14 NSaved=  14.
 NSaved=14 IEnMin=14 EnMin= -1199.63501526895     IErMin=14 ErrMin= 5.24D-07
 ErrMax= 5.24D-07  0.00D+00 EMaxC= 1.00D-01 BMatC= 5.02D-11 BMatP= 3.02D-10
 IDIUse=1 WtCom= 1.00D+00 WtEn= 0.00D+00
 Coeff-Com: -0.536D-05-0.658D-05 0.919D-04 0.380D-03-0.472D-03-0.131D-02
 Coeff-Com: -0.903D-03 0.308D-02 0.246D-01 0.100D-01-0.106D+00-0.145D+00
 Coeff-Com:  0.208D+00 0.101D+01
 Coeff:     -0.536D-05-0.658D-05 0.919D-04 0.380D-03-0.472D-03-0.131D-02
 Coeff:     -0.903D-03 0.308D-02 0.246D-01 0.100D-01-0.106D+00-0.145D+00
 Coeff:      0.208D+00 0.101D+01
 Gap=     0.263 Goal=   None    Shift=    0.000
 RMSDP=1.86D-07 MaxDP=6.15D-06 DE=-1.53D-09 OVMax= 1.90D-05

 Cycle  15  Pass 1  IDiag  1:
 E= -1199.63501526927     Delta-E=       -0.000000000317 Rises=F Damp=F
 DIIS: error= 1.61D-07 at cycle  15 NSaved=  15.
 NSaved=15 IEnMin=15 EnMin= -1199.63501526927     IErMin=15 ErrMin= 1.61D-07
 ErrMax= 1.61D-07  0.00D+00 EMaxC= 1.00D-01 BMatC= 8.23D-12 BMatP= 5.02D-11
 IDIUse=1 WtCom= 1.00D+00 WtEn= 0.00D+00
 Coeff-Com:  0.805D-06-0.490D-04 0.428D-04 0.440D-03 0.155D-03-0.624D-03
 Coeff-Com: -0.278D-02 0.563D-03 0.154D-01 0.228D-01-0.321D-01-0.102D+00
 Coeff-Com: -0.350D-01 0.326D+00 0.807D+00
 Coeff:      0.805D-06-0.490D-04 0.428D-04 0.440D-03 0.155D-03-0.624D-03
 Coeff:     -0.278D-02 0.563D-03 0.154D-01 0.228D-01-0.321D-01-0.102D+00
 Coeff:     -0.350D-01 0.326D+00 0.807D+00
 Gap=     0.263 Goal=   None    Shift=    0.000
 RMSDP=5.45D-08 MaxDP=2.18D-06 DE=-3.17D-10 OVMax= 4.81D-06

 Cycle  16  Pass 1  IDiag  1:
 E= -1199.63501526930     Delta-E=       -0.000000000025 Rises=F Damp=F
 DIIS: error= 6.23D-08 at cycle  16 NSaved=  16.
 NSaved=16 IEnMin=16 EnMin= -1199.63501526930     IErMin=16 ErrMin= 6.23D-08
 ErrMax= 6.23D-08  0.00D+00 EMaxC= 1.00D-01 BMatC= 1.74D-12 BMatP= 8.23D-12
 IDIUse=1 WtCom= 1.00D+00 WtEn= 0.00D+00
 Coeff-Com:  0.243D-05-0.284D-04-0.340D-05 0.149D-03 0.219D-03-0.570D-04
 Coeff-Com: -0.125D-02-0.638D-03 0.124D-02 0.873D-02 0.108D-01-0.790D-02
 Coeff-Com: -0.703D-01-0.100D+00 0.322D+00 0.837D+00
 Coeff:      0.243D-05-0.284D-04-0.340D-05 0.149D-03 0.219D-03-0.570D-04
 Coeff:     -0.125D-02-0.638D-03 0.124D-02 0.873D-02 0.108D-01-0.790D-02
 Coeff:     -0.703D-01-0.100D+00 0.322D+00 0.837D+00
 Gap=     0.263 Goal=   None    Shift=    0.000
 RMSDP=2.50D-08 MaxDP=1.28D-06 DE=-2.55D-11 OVMax= 2.04D-06

 Cycle  17  Pass 1  IDiag  1:
 E= -1199.63501526930     Delta-E=       -0.000000000003 Rises=F Damp=F
 DIIS: error= 2.06D-08 at cycle  17 NSaved=  17.
 NSaved=17 IEnMin=17 EnMin= -1199.63501526930     IErMin=17 ErrMin= 2.06D-08
 ErrMax= 2.06D-08  0.00D+00 EMaxC= 1.00D-01 BMatC= 1.03D-13 BMatP= 1.74D-12
 IDIUse=1 WtCom= 1.00D+00 WtEn= 0.00D+00
 Coeff-Com: -0.103D-06 0.468D-05-0.484D-05-0.423D-04-0.992D-05 0.566D-04
 Coeff-Com:  0.297D-03-0.138D-03-0.144D-02-0.194D-02 0.271D-02 0.115D-01
 Coeff-Com: -0.191D-02-0.306D-01-0.788D-01-0.525D-02 0.111D+01
 Coeff:     -0.103D-06 0.468D-05-0.484D-05-0.423D-04-0.992D-05 0.566D-04
[...]
     18  0.225609D-02  0.370772D-02 -0.224466D+00  0.362145D-01 -0.441739D+00
     19  0.536159D-02  0.541094D-02 -0.900868D-01  0.265545D-01  0.113278D+00
     20  0.876886D-03  0.523286D-04  0.189764D-01 -0.928961D-01 -0.110956D+00
     21 -0.177595D-02 -0.157223D-02  0.869762D-01 -0.117546D+00 -0.588467D+00
     22 -0.399531D-02  0.626757D-03 -0.412935D-01 -0.143722D-01 -0.115301D-01
     23  0.106608D-01  0.761372D-02  0.508858D-01 -0.150490D+00  0.178622D-01
     24  0.514705D-02  0.370330D-02 -0.739955D-02 -0.107996D-01 -0.910874D-01
     25 -0.181468D-02 -0.167060D-02  0.352922D-03  0.151860D-01 -0.135479D-02
     26  0.162020D-02 -0.334831D-03  0.184444D-01 -0.130396D-01  0.124551D-02
     27  0.231791D-03  0.906029D-02 -0.244524D-01  0.687328D-02 -0.293747D-02
     28  0.582684D-03 -0.130564D-03 -0.552253D-01  0.630618D-01 -0.983908D-02
     29 -0.657394D-02 -0.853137D-02 -0.281439D-01 -0.186753D-01  0.604772D-03
     30  0.275070D-02  0.244556D-02 -0.293945D-03 -0.201057D-02 -0.454805D-01
     31 -0.359967D-02  0.108576D-02  0.106879D-03  0.128611D-01 -0.319183D-02
     32 -0.849652D-02 -0.357753D-02  0.218430D-01 -0.141113D-01 -0.154594D-02
     33 -0.150698D-02 -0.118284D-02  0.222361D-01 -0.488248D-02 -0.473991D-02
     34  0.302010D-02  0.277004D-02  0.644648D-02  0.460374D-03  0.688265D-02
     35  0.387494D-03  0.814911D-03 -0.726558D-02 -0.222584D-01 -0.405568D-01
     36 -0.127833D-02 -0.199909D-02 -0.123165D-02  0.612267D-04  0.492532D-02
               16            17            18            19            20 
     16  0.235891D+00
     17 -0.278001D-01  0.104265D+00
     18  0.280217D+00 -0.532198D-01  0.448717D+00
     19  0.132784D-01 -0.274944D-02 -0.214097D-01  0.727281D-01
     20  0.148480D-02  0.140547D-01  0.267724D-02 -0.239093D-01  0.117761D+00
     21  0.112229D-01 -0.671434D-02 -0.994946D-02 -0.124574D+00  0.126883D+00
     22  0.871403D-03  0.342753D-01 -0.200089D-01  0.906716D-02  0.102621D-01
     23  0.843940D-02 -0.242104D-01  0.136876D-01 -0.350975D-02 -0.186042D-01
     24 -0.171189D-01  0.361953D-01  0.336583D-03  0.102279D-01 -0.444602D-01
     25 -0.744371D-03 -0.222405D-02 -0.946729D-03  0.366444D-03 -0.188581D-02
     26 -0.219269D-02  0.181423D-02 -0.121358D-02 -0.305064D-02  0.200285D-02
     27  0.260375D-02 -0.829482D-03  0.228017D-02  0.361447D-02 -0.109179D-02
     28 -0.142666D-01 -0.384710D-01 -0.125074D-01  0.403782D-02 -0.227480D-01
     29 -0.143572D-01 -0.178454D-01 -0.170817D-02 -0.377549D-02 -0.103245D-01
     30 -0.167517D-01 -0.172513D-01  0.596888D-02  0.157477D-01  0.252325D-01
     31 -0.270340D-03 -0.214582D-02 -0.259437D-03  0.363905D-03 -0.148156D-02
     32 -0.209811D-02  0.198428D-02 -0.221487D-03 -0.354651D-02  0.256968D-02
     33 -0.192795D-02  0.297993D-03  0.942241D-04 -0.312673D-02  0.141833D-02
     34 -0.350291D-02 -0.783475D-03 -0.205118D-02 -0.435201D-03  0.594873D-02
     35 -0.213246D-02  0.636258D-02  0.244302D-02  0.235151D-02 -0.569252D-02
     36 -0.229499D-02  0.424747D-02 -0.408620D-02 -0.108902D-02  0.169065D-02
               21            22            23            24            25 
     21  0.617571D+00
     22  0.745237D-02  0.809200D-01
     23 -0.729521D-02  0.308855D-02  0.292118D+00
     24 -0.995028D-02  0.113210D+00  0.151965D+00  0.532494D+00
     25  0.426328D-03  0.154583D-02  0.897597D-03 -0.112669D-03  0.705562D-01
     26  0.976138D-03 -0.517435D-02 -0.574136D-02 -0.465677D-03  0.596195D-01
     27 -0.547104D-03  0.559044D-02  0.687127D-02  0.111035D-02 -0.991734D-01
     28  0.154563D-01  0.128113D-01  0.725297D-02  0.155193D-02 -0.310570D-01
     29  0.520688D-02  0.220065D-02  0.146260D-02  0.152164D-02 -0.749009D-02
     30 -0.966495D-02  0.129759D-02  0.846185D-03  0.454137D-02  0.109564D-01
     31  0.132231D-02  0.128929D-02  0.100075D-02  0.237243D-03  0.110813D-01
     32  0.319550D-02 -0.582866D-02 -0.613901D-02 -0.275055D-03  0.578005D-02
     33  0.405219D-02 -0.491743D-02 -0.537619D-02 -0.251510D-03  0.112633D-02
     34  0.338008D-02 -0.243378D-01 -0.365226D-01 -0.976732D-01  0.603313D-04
     35  0.107415D-03 -0.248957D-01 -0.956284D-01 -0.134257D+00  0.299491D-03
     36  0.254487D-02 -0.894691D-01 -0.173692D+00 -0.441452D+00 -0.801807D-04
               26            27            28            29            30 
     26  0.159853D+00
     27 -0.164403D+00  0.418541D+00
     28  0.875270D-02  0.582064D-02  0.418708D-01
     29  0.128041D-01 -0.694526D-02 -0.702177D-02  0.850227D-01
     30 -0.262992D-02  0.194573D-02  0.531805D-02 -0.141758D-01  0.499611D-01
     31  0.675548D-02  0.791370D-02 -0.234893D-01 -0.706454D-02 -0.951521D-02
     32  0.233487D-01  0.637096D-02  0.773720D-02  0.128663D-01  0.479075D-03
     33 -0.192308D-01 -0.754638D-01 -0.835832D-02  0.438082D-02 -0.125241D-02
     34 -0.307948D-03  0.550947D-03 -0.693540D-04  0.445481D-03 -0.343051D-03
     35  0.274798D-03 -0.352272D-03  0.120732D-02  0.136568D-02  0.135114D-02
     36  0.124540D-02 -0.167981D-02 -0.191491D-02 -0.136364D-02 -0.251974D-03
               31            32            33            34            35 
     31  0.522968D-01
     32  0.525420D-01  0.213639D+00
     33  0.560360D-01  0.203521D+00  0.388705D+00
     34  0.218864D-03 -0.146515D-03 -0.234022D-03  0.252263D-01
     35  0.219627D-03  0.264377D-03  0.357170D-03  0.322001D-01  0.117049D+00
     36 -0.200333D-03  0.126880D-02  0.120319D-02  0.904856D-01  0.169383D+00
               36 
     36  0.438366D+00
 Red2BG is reusing G-inverse.
 Leave Link  716 at Fri May 23 05:05:33 2025, MaxMem=  3758096384 cpu:               0.0 elap:               0.0
 (Enter /apps/easybuild-2022/easybuild/software/Compiler/NVHPC/22.11-CUDA-11.7.0/Gaussian/g16c01-CUDA-11.7.0/g16/l9999.exe)

 ----------------------------------------------------------------------

 Electric dipole moment (input orientation):
 (Debye = 10**-18 statcoulomb cm , SI units = C m)
                  (au)            (Debye)         (10**-30 SI)
   Tot        0.172220D+01      0.437740D+01      0.146014D+02
   x         -0.153885D+01     -0.391136D+01     -0.130469D+02
   y          0.583002D+00      0.148184D+01      0.494290D+01
   z          0.507965D+00      0.129112D+01      0.430671D+01

 Dipole polarizability, Alpha (input orientation).
 (esu units = cm**3 , SI units = C**2 m**2 J**-1)
 Alpha(0;0):
               (au)            (10**-24 esu)      (10**-40 SI)
   iso        0.726122D+02      0.107600D+02      0.119721D+02
   aniso      0.381716D+02      0.565645D+01      0.629364D+01
   xx         0.922872D+02      0.136755D+02      0.152161D+02
   yx         0.131884D+02      0.195433D+01      0.217448D+01
   yy         0.673932D+02      0.998664D+01      0.111116D+02
   zx        -0.311915D+00     -0.462210D-01     -0.514278D-01
   zy        -0.267904D-01     -0.396992D-02     -0.441713D-02
   zz         0.581563D+02      0.861788D+01      0.958868D+01

 ----------------------------------------------------------------------

 Dipole orientation:
     6         -0.51899857         -2.30783806         -0.27727641
     6          0.21815823          0.22363793         -0.12816633
     9         -1.58531168          1.93131852          0.03656974
     9          2.19481223          0.73343275          1.32452021
    16          1.72614564          0.74135653         -4.37909196
     8          4.26177218          0.13726978         -5.16546113
     8         -0.49874581          1.22711385         -5.83744792
     8          2.18033391          3.51232518         -2.98944797
     9          0.87124215         -4.10382813          0.52621230
     9          0.97690393         -2.71076082         -3.93484763
     9         -2.74070057         -2.93259115         -0.95816318
     1          3.95352833          3.64831531         -2.57929975

 Electric dipole moment (dipole orientation):
 (Debye = 10**-18 statcoulomb cm , SI units = C m)
                  (au)            (Debye)         (10**-30 SI)
   Tot        0.172220D+01      0.437740D+01      0.146014D+02
   x          0.000000D+00      0.000000D+00      0.000000D+00
   y          0.000000D+00      0.000000D+00      0.000000D+00
   z          0.172220D+01      0.437740D+01      0.146014D+02

 Dipole polarizability, Alpha (dipole orientation).
 (esu units = cm**3 , SI units = C**2 m**2 J**-1)
 Alpha(0;0):
               (au)            (10**-24 esu)      (10**-40 SI)
   iso        0.726122D+02      0.107600D+02      0.119721D+02
   aniso      0.381716D+02      0.565645D+01      0.629364D+01
   xx         0.658162D+02      0.975295D+01      0.108516D+02
   yx         0.103085D+02      0.152756D+01      0.169964D+01
   yy         0.733748D+02      0.108730D+02      0.120979D+02
   zx        -0.118005D+02     -0.174866D+01     -0.194565D+01
   zy        -0.140921D+02     -0.208824D+01     -0.232348D+01
   zz         0.786457D+02      0.116541D+02      0.129669D+02

 ----------------------------------------------------------------------
 Unable to Open any file for archive entry.
 1\1\GINC-SPARTAN-BM169\Freq\RwB97XD\6-311++G(d,p)\C2H1F5O3S1\AKHALILOV
 \23-May-2025\0\\#P wb97xd/6-311++G(d,p) Symm(None) scf(xqc) pop(None) 
 opt(NoFreeze,TS,CalcAll,NoEigentest,MaxCycle=999)\\Gaussian input prep
 ared by ASE\\0,1\C,-0.2594704738,-1.227003213,0.1247408079\C,0.1325121
 72,0.1118778528,0.0430872955\F,-0.1002426732,0.7421608583,-1.089861660
 5\F,-0.090275002,0.8623374381,1.1131402449\S,2.5124969804,-0.213504578
 8,-0.0001112431\O,3.3241597921,-0.3323294438,1.184309006\O,2.810652852
 4,-0.5154616835,-1.3667665558\O,2.2900925665,1.4281447015,-0.064841162
 3\F,-0.5792945742,-1.7775147169,1.2292404226\F,1.7237025312,-1.8916563
 341,0.3333614541\F,-0.4655530181,-1.9249439179,-0.9201233582\H,2.47276
 87379,1.7863931449,0.8132498407\\Version=ES64L-G16RevC.01\HF=-1199.663
 6699\RMSD=3.777e-09\RMSF=8.876e-07\ZeroPoint=0.0484925\Thermal=0.05931
 41\ETot=-1199.6043558\HTot=-1199.6034116\GTot=-1199.6526545\Dipole=-1.
 5388494,0.5830024,0.5079655\DipoleDeriv=1.0390041,0.2129499,-0.0435925
 ,2.3980649,2.0915072,-0.0695724,-0.2097377,-0.037828,1.6358933,-1.1649
 15,-1.1650232,0.1231842,-1.6621884,0.4123701,0.0933048,0.0810044,0.031
 6574,1.2132408,-0.0986313,0.3004986,-0.1852544,0.3848492,-0.3732239,0.
 2584919,-0.4559784,0.2858137,-0.6484578,-0.1094087,0.3083949,0.1266736
 ,0.3936133,-0.4591342,-0.306138,0.3961279,-0.3245481,-0.6255962,3.3853
 106,0.660403,0.0515263,-0.1766658,2.5029637,0.0230355,0.0620617,0.0054
 393,2.0912219,-0.9133461,0.0069367,-0.222687,0.0233359,-0.5807688,-0.0
 161147,-0.3546248,0.0280379,-0.815692,-0.8371605,-0.0603397,0.1009953,
 0.0781145,-0.5233192,-0.0780498,0.3292479,-0.0628239,-0.9080337,-0.817
 8011,-0.146629,0.0136785,-0.5153291,-1.3154,-0.037331,-0.0391599,-0.16
 1882,-0.4176537,-0.2212958,-0.0864499,0.1699299,-0.5747215,-0.5155515,
 0.3107404,0.7898135,0.4799022,-0.7143432,-0.3829394,0.0223702,-0.00421
 47,0.2383582,-0.9639652,0.1108987,-0.0230606,0.1149103,-0.4398643,-0.1
 597347,-0.0753797,-0.1184464,-0.6272112,-0.6249906,-0.3247915,-0.65312
 36,-0.5012261,-0.612916,0.2809179,0.0222683,-0.0117929,0.0397801,0.349
 5123,0.035526,0.0774296,0.1425472,0.2422008\Polar=92.2871525,13.188447
 8,67.3932152,-0.3119149,-0.0267904,58.1563346\PG=Unknown\NImag=1\\0.15
 659993,0.20205848,0.69941598,-0.04307447,0.01625441,0.74633590,-0.0704
 3332,0.08748195,-0.00837960,0.04249946,-0.09784578,-0.30457658,0.01421
 836,-0.05447161,0.72563377,0.00621424,0.01686740,-0.05387532,0.0051012
 9,-0.01717993,0.58187588,0.00050193,-0.03349911,0.00730018,-0.02690129
 ,0.04715834,-0.05446250,0.04135087,0.01289328,-0.02434334,0.04500529,0
 .03597342,-0.15583510,0.12941915,-0.02782974,0.16767084,-0.00699577,0.
 01524134,-0.02705707,-0.04404539,0.13128065,-0.26276506,0.04928678,-0.
 16306572,0.35032355,-0.00091051,-0.03364550,-0.00209787,-0.02833550,0.
 05065648,0.04720183,0.00411966,-0.00656379,-0.00476166,0.04158588,0.01
 423914,-0.02945357,-0.04504955,0.03640845,-0.17893823,-0.12830478,-0.0
 0618135,0.02020264,0.00579099,-0.03050520,0.19804718,0.00635568,-0.013
 43431,-0.02171540,0.03488657,-0.13187093,-0.22149619,0.00474671,-0.015
 33198,-0.06432366,-0.04370734,0.16939809,0.30214561,-0.00942076,-0.106
 98011,0.00827484,0.06788360,0.07674411,-0.00511675,-0.00942387,-0.0134
 2296,0.01476297,-0.00705061,-0.01623227,-0.01387280,0.37103256,-0.0675
 3447,0.09240176,-0.01051731,-0.05541456,-0.02617873,0.00117217,0.01334
 164,-0.00697138,0.00441654,0.01339535,-0.01030859,-0.00599525,-0.04077
 640,0.34091986,0.00912551,-0.00514370,0.01264114,0.00760157,-0.0011625
 0,-0.00363535,-0.01359150,0.00928717,-0.01456258,0.01037248,-0.0076591
 2,-0.00877308,0.14458286,0.10301323,1.18385560,0.00285064,0.00873974,-
 0.00045283,0.00260259,-0.00932316,-0.00239930,-0.00260536,0.00328634,-
 0.00426110,-0.00078289,0.00271652,0.00349885,-0.23332155,0.03323688,-0
 .25233591,0.23589098,0.00967622,-0.01317273,0.00180690,0.00720427,0.00
 179297,0.00004142,-0.00134761,0.00137164,-0.00078252,-0.00156178,0.001
 97564,0.00119716,0.02592742,-0.07839206,0.03501122,-0.02780006,0.10426
 455,0.00155149,0.00195621,-0.00322362,0.00236328,-0.00268261,-0.002874
 02,-0.00036086,-0.00018904,0.00076743,-0.00212194,0.00225609,0.0037077
 2,-0.22446579,0.03621451,-0.44173866,0.28021711,-0.05321975,0.44871695
 ,-0.00011736,0.01734471,-0.00160886,-0.00756096,-0.01296962,0.00596879
 ,0.00130695,0.00189846,-0.00243971,-0.00294855,0.00536159,0.00541094,-
 0.09008677,0.02655448,0.11327810,0.01327843,-0.00274944,-0.02140966,0.
 07272815,0.00818023,-0.01403943,0.00065662,0.00727116,0.00329408,-0.00
 160201,-0.00155448,0.00099723,-0.00050066,-0.00054429,0.00087689,0.000
 05233,0.01897641,-0.09289613,-0.11095606,0.00148480,0.01405474,0.00267
 724,-0.02390929,0.11776127,-0.00312773,-0.00743044,-0.00439921,-0.0027
 9230,0.00796130,-0.00695252,0.00219728,-0.00356857,0.00733431,0.002060
 18,-0.00177595,-0.00157223,0.08697616,-0.11754569,-0.58846711,0.011222
 91,-0.00671434,-0.00994946,-0.12457390,0.12688297,0.61757150,-0.007382
 80,0.02925804,-0.00256838,-0.03314980,-0.02287959,0.00296005,0.0000045
 1,-0.00193885,-0.00264329,-0.00034554,-0.00399531,0.00062676,-0.041293
 55,-0.01437221,-0.01153006,0.00087140,0.03427529,-0.02000887,0.0090671
 6,0.01026211,0.00745237,0.08091997,-0.00429547,0.03399779,-0.00329088,
 -0.02867268,-0.04637033,-0.00139343,-0.00081001,0.00894430,-0.00779859
 ,0.00224547,0.01066082,0.00761372,0.05088580,-0.15049010,0.01786223,0.
 00843940,-0.02421045,0.01368757,-0.00350975,-0.01860418,-0.00729521,0.
 00308855,0.29211836,0.00013289,0.00256268,-0.00163000,-0.00352064,-0.0
 0451751,-0.00064427,0.00015664,-0.00261695,0.00282983,0.00030831,0.005
 14705,0.00370330,-0.00739955,-0.01079964,-0.09108736,-0.01711888,0.036
 19526,0.00033658,0.01022794,-0.04446015,-0.00995028,0.11320995,0.15196
 491,0.53249353,-0.06278080,-0.05908230,0.07603936,0.00915363,-0.005552
 61,0.01538956,0.00292222,-0.00373311,-0.00059960,-0.00145668,-0.001814
 68,-0.00167060,0.00035292,0.01518603,-0.00135479,-0.00074437,-0.002224
 05,-0.00094673,0.00036644,-0.00188581,0.00042633,0.00154583,0.00089760
 ,-0.00011267,0.07055622,-0.05825914,-0.16490234,0.14234000,-0.02887750
 ,-0.01073690,0.03820780,-0.00151714,-0.00729772,0.00426248,0.00580732,
 0.00162020,-0.00033483,0.01844440,-0.01303965,0.00124551,-0.00219269,0
 .00181423,-0.00121358,-0.00305064,0.00200285,0.00097614,-0.00517435,-0
 .00574136,-0.00046568,0.05961949,0.15985308,0.06786383,0.13929219,-0.3
 3032216,0.04333529,0.01196816,-0.01964639,-0.00432264,0.00201368,-0.00
 234045,-0.00934461,0.00023179,0.00906029,-0.02445240,0.00687328,-0.002
 93747,0.00260375,-0.00082948,0.00228017,0.00361447,-0.00109179,-0.0005
 4710,0.00559044,0.00687127,0.00111035,-0.09917341,-0.16440253,0.418540
 65,0.04544917,-0.06609146,0.00920203,0.03702592,0.04484422,-0.00436449
 ,-0.00925152,0.00089333,-0.00023419,-0.00783581,0.00058268,-0.00013056
 ,-0.05522534,0.06306177,-0.00983908,-0.01426661,-0.03847095,-0.0125074
 2,0.00403782,-0.02274802,0.01545632,0.01281131,0.00725297,0.00155193,-
 0.03105702,0.00875270,0.00582064,0.04187078,0.03281516,-0.06593482,0.0
 0798782,0.02633786,0.01248545,0.00378025,0.00395512,-0.00665298,0.0092
 4201,0.00209870,-0.00657394,-0.00853137,-0.02814386,-0.01867528,0.0006
 0477,-0.01435721,-0.01784540,-0.00170817,-0.00377549,-0.01032447,0.005
 20688,0.00220065,0.00146260,0.00152164,-0.00749009,0.01280411,-0.00694
 526,-0.00702177,0.08502272,-0.00286483,0.00546230,-0.01330650,-0.00187
 479,0.00069688,0.00479461,0.00109901,-0.00075124,0.00029913,-0.0027752
 4,0.00275070,0.00244556,-0.00029394,-0.00201057,-0.04548054,-0.0167516
 6,-0.01725133,0.00596888,0.01574766,0.02523252,-0.00966495,0.00129759,
 0.00084618,0.00454137,0.01095642,-0.00262992,0.00194573,0.00531805,-0.
 01417575,0.04996110,-0.05389202,-0.04818006,-0.04249142,0.01074547,-0.
 00913963,-0.01208617,-0.00209302,-0.00176772,0.00114933,0.00364225,-0.
 00359967,0.00108576,0.00010688,0.01286111,-0.00319183,-0.00027034,-0.0
 0214582,-0.00025944,0.00036391,-0.00148156,0.00132231,0.00128929,0.001
 00075,0.00023724,0.01108126,0.00675548,0.00791370,-0.02348935,-0.00706
 454,-0.00951521,0.05229681,-0.05084327,-0.20886513,-0.16901474,-0.0312
 9631,-0.01910906,-0.04159353,0.00681518,0.00204913,0.00139328,-0.00095
 812,-0.00849652,-0.00357753,0.02184302,-0.01411127,-0.00154594,-0.0020
 9811,0.00198428,-0.00022149,-0.00354651,0.00256968,0.00319550,-0.00582
 866,-0.00613901,-0.00027506,0.00578005,0.02334870,0.00637096,0.0077372
 0,0.01286633,0.00047907,0.05254204,0.21363851,-0.03596064,-0.16475271,
 -0.30437232,-0.03781655,-0.01481618,-0.01558633,0.00843196,0.00059033,
 0.00879503,0.00451124,-0.00150698,-0.00118284,0.02223606,-0.00488248,-
 0.00473991,-0.00192795,0.00029799,0.00009422,-0.00312673,0.00141833,0.
 00405219,-0.00491743,-0.00537619,-0.00025151,0.00112633,-0.01923078,-0
 .07546380,-0.00835832,0.00438082,-0.00125241,0.05603605,0.20352067,0.3
 8870451,-0.00046411,0.00259563,-0.00014298,-0.00352980,-0.00722116,-0.
 00440654,0.00006892,0.00031133,0.00078163,0.00031829,0.00302010,0.0027
 7004,0.00644648,0.00046037,0.00688265,-0.00350291,-0.00078348,-0.00205
 118,-0.00043520,0.00594873,0.00338008,-0.02433778,-0.03652263,-0.09767
 316,0.00006033,-0.00030795,0.00055095,-0.00006935,0.00044548,-0.000343
 05,0.00021886,-0.00014651,-0.00023402,0.02522626,-0.00108438,-0.000527
 58,-0.00039693,-0.00194447,-0.00146134,0.00058547,0.00146917,-0.000135
 27,0.00052021,-0.00042465,0.00038749,0.00081491,-0.00726558,-0.0222584
 3,-0.04055682,-0.00213246,0.00636258,0.00244302,0.00235151,-0.00569252
 ,0.00010742,-0.02489566,-0.09562844,-0.13425656,0.00029949,0.00027480,
 -0.00035227,0.00120732,0.00136568,0.00135114,0.00021963,0.00026438,0.0
 0035717,0.03220008,0.11704865,0.00077980,-0.00687538,0.00092457,0.0051
 4128,0.00610430,0.00080496,-0.00048106,-0.00079214,0.00069954,0.000354
 60,-0.00127833,-0.00199909,-0.00123165,0.00006123,0.00492532,-0.002294
 99,0.00424747,-0.00408620,-0.00108902,0.00169065,0.00254487,-0.0894691
 3,-0.17369158,-0.44145155,-0.00008018,0.00124540,-0.00167981,-0.001914
 91,-0.00136364,-0.00025197,-0.00020033,0.00126880,0.00120319,0.0904855
 9,0.16938322,0.43836618\\0.00000004,-0.00000006,-0.00000062,-0.0000001
 1,0.00000003,0.00000072,-0.00000047,0.00000118,0.00000144,0.00000026,-
 0.00000116,0.00000156,0.00000002,0.00000016,-0.00000048,0.00000024,-0.
 00000094,-0.00000073,-0.00000046,0.00000168,-0.00000084,-0.00000012,0.
 00000027,0.00000139,0.00000046,-0.00000131,-0.00000100,0.00000021,-0.0
 0000018,-0.00000191,-0.00000019,0.00000098,-0.00000122,0.00000012,-0.0
 0000065,0.00000169\\\@
 The archive entry for this job was punched.


 I take a simple view of life: keep your eyes open and get on with it.
 -- Laurence Olivier
 Job cpu time:       0 days  1 hours 29 minutes 28.1 seconds.
 Elapsed time:       0 days  0 hours 12 minutes  2.7 seconds.
 File lengths (MBytes):  RWF=    104 Int=      0 D2E=      0 Chk=      6 Scr=      1
 Normal termination of Gaussian 16 at Fri May 23 05:05:33 2025.
done
