12
energy = -1199.5371023599998
C 1.92118100 -0.83671600 -1.18242100
C 2.01846500 0.03520000 0.03756000
F -0.55504800 1.03257700 -0.50379700
F 1.93842600 -0.63040600 1.18723300
S 1.76260400 1.67134900 0.20697000
O 0.31001100 2.03714600 0.58523400
O 2.58755800 2.29144500 1.18858500
O 1.99583500 2.28988500 -1.21597600
F 1.74506800 -0.12577800 -2.30272100
F 3.04501700 -1.54964200 -1.32401700
F 0.91706500 -1.70568900 -1.07542100
H 1.24056800 2.12334900 -1.80359100
12
energy = -1199.53226865
C 1.66331700 -0.87115700 -1.14286100
C 1.97030500 0.05215800 0.01155600
F -0.76714800 0.72160700 0.46972800
F 2.77835500 -0.42689500 0.92870400
S 1.62692400 1.69347900 0.08276100
O 0.25386900 1.70572600 -0.55742400
O 1.90710500 2.25532500 1.35953600
O 2.43968400 2.63068600 -0.95022900
F 1.37383900 -0.17014100 -2.25015600
F 2.74333300 -1.61585000 -1.39797100
F 0.65337800 -1.69210000 -0.89264700
H 2.28378700 2.34988200 -1.86335900
12
energy = -1199.53710751
C 1.92364500 -0.83548700 -1.18353600
C 2.01896600 0.03532900 0.03740200
F -0.55571300 1.02901700 -0.50509700
F 1.93895500 -0.63158600 1.18631100
S 1.76030700 1.67090800 0.20829200
O 0.30679900 2.03417700 0.58543900
O 2.58337000 2.29112800 1.19141300
O 1.99410500 2.29131300 -1.21375200
F 1.74743400 -0.12363400 -2.30324700
F 3.04852100 -1.54679200 -1.32501600
F 0.92059800 -1.70588400 -1.07817700
H 1.23976200 2.12423100 -1.80239400
12
energy = -1199.53709844
C 1.92121500 -0.83650500 -1.18283100
C 2.01781700 0.03476900 0.03766400
F -0.55492700 1.03331300 -0.50519400
F 1.93659800 -0.63137200 1.18694400
S 1.76242500 1.67093200 0.20766700
O 0.30966500 2.03708200 0.58494000
O 2.58682200 2.29025300 1.19023800
O 1.99703600 2.29006800 -1.21479300
F 1.74628500 -0.12494300 -2.30292200
F 3.04490800 -1.54977000 -1.32385900
F 0.91669600 -1.70516200 -1.07709200
H 1.24221000 2.12405400 -1.80312300
