 Entering Gaussian System, Link 0=g16
 Initial command:
 /apps/easybuild-2022/easybuild/software/Compiler/NVHPC/22.11-CUDA-11.7.0/Gaussian/g16c01-CUDA-11.7.0/g16/l1.exe "/tmp/Gau-86185.inp" -scrdir="/tmp/"
 Entering Link 1 = /apps/easybuild-2022/easybuild/software/Compiler/NVHPC/22.11-CUDA-11.7.0/Gaussian/g16c01-CUDA-11.7.0/g16/l1.exe PID=     86186.
  
 Copyright (c) 1988-2019, Gaussian, Inc.  All Rights Reserved.
  
 This is part of the Gaussian(R) 16 program.  It is based on
 the Gaussian(R) 09 system (copyright 2009, Gaussian, Inc.),
 the Gaussian(R) 03 system (copyright 2003, Gaussian, Inc.),
 the Gaussian(R) 98 system (copyright 1998, Gaussian, Inc.),
 the Gaussian(R) 94 system (copyright 1995, Gaussian, Inc.),
 the Gaussian 92(TM) system (copyright 1992, Gaussian, Inc.),
 the Gaussian 90(TM) system (copyright 1990, Gaussian, Inc.),
 the Gaussian 88(TM) system (copyright 1988, Gaussian, Inc.),
 the Gaussian 86(TM) system (copyright 1986, Carnegie Mellon
 University), and the Gaussian 82(TM) system (copyright 1983,
 Carnegie Mellon University). Gaussian is a federally registered
 trademark of Gaussian, Inc.
  
 This software contains proprietary and confidential information,
 including trade secrets, belonging to Gaussian, Inc.
  
 This software is provided under written license and may be
 used, copied, transmitted, or stored only in accord with that
 written license.
  
 The following legend is applicable only to US Government
 contracts under FAR:
  
                    RESTRICTED RIGHTS LEGEND
  
 Use, reproduction and disclosure by the US Government is
 subject to restrictions as set forth in subparagraphs (a)
 and (c) of the Commercial Computer Software - Restricted
 Rights clause in FAR 52.227-19.
  
 Gaussian, Inc.
 340 Quinnipiac St., Bldg. 40, Wallingford CT 06492
  
  
 ---------------------------------------------------------------
 Warning -- This program may not be used in any manner that
 competes with the business of Gaussian, Inc. or will provide
 assistance to any competitor of Gaussian, Inc.  The licensee
 of this program is prohibited from giving any competitor of
 Gaussian, Inc. access to this program.  By using this program,
 the user acknowledges that Gaussian, Inc. is engaged in the
 business of creating and licensing software in the field of
 computational chemistry and represents and warrants to the
 licensee that it is not a competitor of Gaussian, Inc. and that
 it will not use this program in any manner prohibited above.
 ---------------------------------------------------------------
  

 Cite this work as:
 Gaussian 16, Revision C.01,
 M. J. Frisch, G. W. Trucks, H. B. Schlegel, G. E. Scuseria, 
 M. A. Robb, J. R. Cheeseman, G. Scalmani, V. Barone, 
 G. A. Petersson, H. Nakatsuji, X. Li, M. Caricato, A. V. Marenich, 
 J. Bloino, B. G. Janesko, R. Gomperts, B. Mennucci, H. P. Hratchian, 
 J. V. Ortiz, A. F. Izmaylov, J. L. Sonnenberg, D. Williams-Young, 
 F. Ding, F. Lipparini, F. Egidi, J. Goings, B. Peng, A. Petrone, 
 T. Henderson, D. Ranasinghe, V. G. Zakrzewski, J. Gao, N. Rega, 
 G. Zheng, W. Liang, M. Hada, M. Ehara, K. Toyota, R. Fukuda, 
 J. Hasegawa, M. Ishida, T. Nakajima, Y. Honda, O. Kitao, H. Nakai, 
 T. Vreven, K. Throssell, J. A. Montgomery, Jr., J. E. Peralta, 
 F. Ogliaro, M. J. Bearpark, J. J. Heyd, E. N. Brothers, K. N. Kudin, 
 V. N. Staroverov, T. A. Keith, R. Kobayashi, J. Normand, 
 K. Raghavachari, A. P. Rendell, J. C. Burant, S. S. Iyengar, 
 J. Tomasi, M. Cossi, J. M. Millam, M. Klene, C. Adamo, R. Cammi, 
 J. W. Ochterski, R. L. Martin, K. Morokuma, O. Farkas, 
 J. B. Foresman, and D. J. Fox, Gaussian, Inc., Wallingford CT, 2019.
 
 ******************************************
 Gaussian 16:  ES64L-G16RevC.01  3-Jul-2019
                23-May-2025 
 ******************************************
 %mem=28GB
 %nprocshared=8
 Will use up to    8 processors via shared memory.
 ----------------------------------------------------------------------
 #P wb97xd/6-311++G(d,p) Symm(None) scf(xqc) pop(None) freq opt(CalcFC,
  Tight)
 ----------------------------------------------------------------------
 1/7=10,10=4,18=20,19=15,26=3,38=1/1,3;
 2/9=110,12=2,15=3,17=6,18=5,40=1/2;
 3/5=4,6=6,7=1111,11=2,25=1,30=1,71=2,74=-58,140=1/1,2,3;
 4//1;
 5/5=2,8=3,13=1,38=5/2,8;
 8/6=4,10=90,11=11/1;
 11/6=1,8=1,9=11,15=111,16=1,31=1/1,2,10;
 10/6=1,13=1,31=1/2;
 7/10=1,25=1,30=1/1,2,3,16;
 1/7=10,10=4,18=20,19=15,26=3/3(2);
 2/9=110,15=3/2;
 99//99;
 2/9=110,15=3/2;
 3/5=4,6=6,7=1111,11=2,25=1,30=1,71=1,74=-58/1,2,3;
 4/5=5,16=3,69=1/1;
 5/5=2,8=3,13=1,38=5/2,8;
 7/30=1/1,2,3,16;
 1/7=10,18=20,19=15,26=3/3(-5);
 2/9=110,15=3/2;
 99/9=1/99;
 Leave Link    1 at Fri May 23 07:31:02 2025, MaxMem=  3758096384 cpu:               0.0 elap:               0.0
 (Enter /apps/easybuild-2022/easybuild/software/Compiler/NVHPC/22.11-CUDA-11.7.0/Gaussian/g16c01-CUDA-11.7.0/g16/l101.exe)
 ------------------------------
 Gaussian input prepared by ASE
 ------------------------------
 Symbolic Z-matrix:
 Charge =  0 Multiplicity = 1
 C                    -0.65872   0.97963   0.99527 
 C                     0.        0.        0. 
 F                    -0.44955  -1.21755   0.16995 
 F                    -0.46902   0.38731  -1.30793 
 S                     1.95041   0.        0. 
 O                     0.57681   1.35544  -2.10087 
 O                     2.25019  -0.41945  -1.36045 
 O                     2.04414   1.63158   0. 
 F                    -0.31448   0.62374   2.22717 
 F                    -0.23434   2.21438   0.76346 
 F                    -1.9813    0.944     0.88645 
 H                     1.8116    1.93056   0.90027 
 
 ITRead=  0  0  0  0  0  0  0  0  0  0  0  0
 MicOpt= -1 -1 -1 -1 -1 -1 -1 -1 -1 -1 -1 -1
 NAtoms=     12 NQM=       12 NQMF=       0 NMMI=      0 NMMIF=      0
                NMic=       0 NMicF=      0.
                    Isotopes and Nuclear Properties:
 (Nuclear quadrupole moments (NQMom) in fm**2, nuclear magnetic moments (NMagM)
  in nuclear magnetons)

  Atom         1           2           3           4           5           6           7           8           9          10
 IAtWgt=          12          12          19          19          32          16          16          16          19          19
 AtmWgt=  12.0000000  12.0000000  18.9984032  18.9984032  31.9720718  15.9949146  15.9949146  15.9949146  18.9984032  18.9984032
 NucSpn=           0           0           1           1           0           0           0           0           1           1
 AtZEff=  -0.0000000  -0.0000000  -0.0000000  -0.0000000  -0.0000000  -0.0000000  -0.0000000  -0.0000000  -0.0000000  -0.0000000
 NQMom=    0.0000000   0.0000000   0.0000000   0.0000000   0.0000000   0.0000000   0.0000000   0.0000000   0.0000000   0.0000000
 NMagM=    0.0000000   0.0000000   2.6288670   2.6288670   0.0000000   0.0000000   0.0000000   0.0000000   2.6288670   2.6288670
 AtZNuc=   6.0000000   6.0000000   9.0000000   9.0000000  16.0000000   8.0000000   8.0000000   8.0000000   9.0000000   9.0000000

  Atom        11          12
 IAtWgt=          19           1
 AtmWgt=  18.9984032   1.0078250
 NucSpn=           1           1
 AtZEff=  -0.0000000  -0.0000000
 NQMom=    0.0000000   0.0000000
 NMagM=    2.6288670   2.7928460
 AtZNuc=   9.0000000   1.0000000
 Leave Link  101 at Fri May 23 07:31:03 2025, MaxMem=  3758096384 cpu:               0.2 elap:               0.2
 (Enter /apps/easybuild-2022/easybuild/software/Compiler/NVHPC/22.11-CUDA-11.7.0/Gaussian/g16c01-CUDA-11.7.0/g16/l103.exe)

 GradGradGradGradGradGradGradGradGradGradGradGradGradGradGradGradGradGrad
 Berny optimization.
 Initialization pass.
                           ----------------------------
                           !    Initial Parameters    !
                           ! (Angstroms and Degrees)  !
 --------------------------                            --------------------------
 ! Name  Definition              Value          Derivative Info.                !
 --------------------------------------------------------------------------------
 ! R1    R(1,2)                  1.5441         calculate D2E/DX2 analytically  !
 ! R2    R(1,9)                  1.3277         calculate D2E/DX2 analytically  !
 ! R3    R(1,10)                 1.3261         calculate D2E/DX2 analytically  !
 ! R4    R(1,11)                 1.3275         calculate D2E/DX2 analytically  !
 ! R5    R(2,3)                  1.309          calculate D2E/DX2 analytically  !
 ! R6    R(2,4)                  1.4425         calculate D2E/DX2 analytically  !
 ! R7    R(2,5)                  1.9504         calculate D2E/DX2 analytically  !
 ! R8    R(4,6)                  1.6309         calculate D2E/DX2 analytically  !
 ! R9    R(5,7)                  1.4549         calculate D2E/DX2 analytically  !
 ! R10   R(5,8)                  1.6343         calculate D2E/DX2 analytically  !
 ! R11   R(8,12)                 0.9767         calculate D2E/DX2 analytically  !
 ! A1    A(2,1,9)              108.5059         calculate D2E/DX2 analytically  !
 ! A2    A(2,1,10)             109.9717         calculate D2E/DX2 analytically  !
 ! A3    A(2,1,11)             110.8031         calculate D2E/DX2 analytically  !
 ! A4    A(9,1,10)             109.1968         calculate D2E/DX2 analytically  !
 ! A5    A(9,1,11)             109.0976         calculate D2E/DX2 analytically  !
 ! A6    A(10,1,11)            109.2379         calculate D2E/DX2 analytically  !
 ! A7    A(1,2,3)              111.0959         calculate D2E/DX2 analytically  !
 ! A8    A(1,2,4)              105.9857         calculate D2E/DX2 analytically  !
 ! A9    A(1,2,5)              115.2527         calculate D2E/DX2 analytically  !
 ! A10   A(3,2,4)              104.8218         calculate D2E/DX2 analytically  !
 ! A11   A(3,2,5)              110.0864         calculate D2E/DX2 analytically  !
 ! A12   A(4,2,5)              108.9748         calculate D2E/DX2 analytically  !
 ! A13   A(2,4,6)              113.0626         calculate D2E/DX2 analytically  !
 ! A14   A(2,5,7)              101.8911         calculate D2E/DX2 analytically  !
 ! A15   A(2,5,8)               93.288          calculate D2E/DX2 analytically  !
 ! A16   A(7,5,8)              106.0227         calculate D2E/DX2 analytically  !
 ! A17   A(5,8,12)             106.9747         calculate D2E/DX2 analytically  !
 ! D1    D(9,1,2,3)             63.4834         calculate D2E/DX2 analytically  !
 ! D2    D(9,1,2,4)            176.7954         calculate D2E/DX2 analytically  !
 ! D3    D(9,1,2,5)            -62.6009         calculate D2E/DX2 analytically  !
 ! D4    D(10,1,2,3)          -177.1387         calculate D2E/DX2 analytically  !
 ! D5    D(10,1,2,4)           -63.8268         calculate D2E/DX2 analytically  !
 ! D6    D(10,1,2,5)            56.777          calculate D2E/DX2 analytically  !
 ! D7    D(11,1,2,3)           -56.2686         calculate D2E/DX2 analytically  !
 ! D8    D(11,1,2,4)            57.0434         calculate D2E/DX2 analytically  !
 ! D9    D(11,1,2,5)           177.6471         calculate D2E/DX2 analytically  !
 ! D10   D(1,2,4,6)             96.6519         calculate D2E/DX2 analytically  !
 ! D11   D(3,2,4,6)           -145.7607         calculate D2E/DX2 analytically  !
 ! D12   D(5,2,4,6)            -27.9432         calculate D2E/DX2 analytically  !
 ! D13   D(1,2,5,7)           -152.5893         calculate D2E/DX2 analytically  !
 ! D14   D(1,2,5,8)            -45.4538         calculate D2E/DX2 analytically  !
 ! D15   D(3,2,5,7)             80.811          calculate D2E/DX2 analytically  !
 ! D16   D(3,2,5,8)           -172.0535         calculate D2E/DX2 analytically  !
 ! D17   D(4,2,5,7)            -33.6307         calculate D2E/DX2 analytically  !
 ! D18   D(4,2,5,8)             73.5048         calculate D2E/DX2 analytically  !
 ! D19   D(2,5,8,12)            74.5216         calculate D2E/DX2 analytically  !
 ! D20   D(7,5,8,12)           177.8912         calculate D2E/DX2 analytically  !
 --------------------------------------------------------------------------------
 Trust Radius=3.00D-01 FncErr=1.00D-07 GrdErr=1.00D-06 EigMax=2.50D+02 EigMin=1.00D-04
 Number of steps in this run=     58 maximum allowed number of steps=    100.
 GradGradGradGradGradGradGradGradGradGradGradGradGradGradGradGradGradGrad

 Leave Link  103 at Fri May 23 07:31:03 2025, MaxMem=  3758096384 cpu:               0.0 elap:               0.0
 (Enter /apps/easybuild-2022/easybuild/software/Compiler/NVHPC/22.11-CUDA-11.7.0/Gaussian/g16c01-CUDA-11.7.0/g16/l202.exe)
                          Input orientation:                          
 ---------------------------------------------------------------------
 Center     Atomic      Atomic             Coordinates (Angstroms)
 Number     Number       Type             X           Y           Z
 ---------------------------------------------------------------------
      1          6           0       -0.658716    0.979626    0.995268
      2          6           0        0.000000    0.000000    0.000000
      3          9           0       -0.449548   -1.217546    0.169955
      4          9           0       -0.469018    0.387308   -1.307935
      5         16           0        1.950409    0.000000    0.000000
      6          8           0        0.576814    1.355441   -2.100866
      7          8           0        2.250186   -0.419451   -1.360447
      8          8           0        2.044141    1.631580    0.000000
      9          9           0       -0.314476    0.623742    2.227169
     10          9           0       -0.234342    2.214378    0.763461
     11          9           0       -1.981299    0.944001    0.886446
     12          1           0        1.811604    1.930559    0.900274
 ---------------------------------------------------------------------
                    Distance matrix (angstroms):
                    1          2          3          4          5
     1  C    0.000000
     2  C    1.544063   0.000000
     3  F    2.356365   1.308968   0.000000
     4  F    2.385700   1.442456   2.181764   0.000000
     5  S    2.959350   1.950409   2.696497   2.777468   0.000000
     6  O    3.354670   2.565847   3.581942   1.630885   2.852651
     7  O    3.996063   2.662723   3.204318   2.836845   1.454862
     8  O    2.953140   2.615448   3.790104   3.094330   1.634271
     9  F    1.327680   2.334144   2.764184   3.546370   3.237134
    10  F    1.326062   2.353988   3.489508   2.771992   3.203042
    11  F    1.327530   2.366953   2.744431   2.722536   4.139474
    12  H    2.648731   2.796329   3.944203   3.529737   2.134670
                    6          7          8          9         10
     6  O    0.000000
     7  O    2.549242   0.000000
     8  O    2.577390   2.469818   0.000000
     9  F    4.479025   4.531747   3.396924   0.000000
    10  F    3.098405   4.197728   2.472652   2.163095   0.000000
    11  F    3.954397   4.981264   4.178842   2.162961   2.163526
    12  H    3.295801   3.290252   0.976706   2.826417   2.070064
                   11         12
    11  F    0.000000
    12  H    3.919132   0.000000
 Symmetry turned off by external request.
 Stoichiometry    C2HF5O3S
 Rotational constants (GHZ):           1.4436306           0.8369043           0.8123035
 Leave Link  202 at Fri May 23 07:31:03 2025, MaxMem=  3758096384 cpu:               0.0 elap:               0.0
 (Enter /apps/easybuild-2022/easybuild/software/Compiler/NVHPC/22.11-CUDA-11.7.0/Gaussian/g16c01-CUDA-11.7.0/g16/l301.exe)
 Standard basis: 6-311++G(d,p) (5D, 7F)
 Ernie: Thresh=  0.10000D-02 Tol=  0.10000D-05 Strict=F.
   257 basis functions,   419 primitive gaussians,   268 cartesian basis functions
    49 alpha electrons       49 beta electrons
       nuclear repulsion energy       907.1040192818 Hartrees.
 IExCor= 4639 DFT=T Ex+Corr=wB97XD ExCW=0 ScaHFX=  1.000000
 ScaDFX=  1.000000  1.000000  1.000000  1.000000 ScalE2=  1.000000  1.000000
 IRadAn=      5 IRanWt=     -1 IRanGd=            0 ICorTp=0 IEmpDi=121
 HFx  wShort=  0.000000 wLong=  0.200000 cFull=  0.222036 cShort=  0.000000 cLong=  0.777964
 DFx  wShort=  0.000000 wLong=  0.200000 cFull=  0.000000 cShort=  0.000000 cLong=  1.000000
 NAtoms=   12 NActive=   12 NUniq=   12 SFac= 1.00D+00 NAtFMM=   60 NAOKFM=F Big=F
 Integral buffers will be    131072 words long.
 Raffenetti 2 integral format.
 Two-electron integral symmetry is turned off.
 R6Disp:  Grimme-D2 Dispersion energy=       -0.0058085459 Hartrees.
 Nuclear repulsion after empirical dispersion term =      907.0982107360 Hartrees.
 Leave Link  301 at Fri May 23 07:31:03 2025, MaxMem=  3758096384 cpu:               0.1 elap:               0.0
 (Enter /apps/easybuild-2022/easybuild/software/Compiler/NVHPC/22.11-CUDA-11.7.0/Gaussian/g16c01-CUDA-11.7.0/g16/l302.exe)
 NPDir=0 NMtPBC=     1 NCelOv=     1 NCel=       1 NClECP=     1 NCelD=      1
         NCelK=      1 NCelE2=     1 NClLst=     1 CellRange=     0.0.
 One-electron integrals computed using PRISM.
 NBasis=   257 RedAO= T EigKep=  4.39D-05  NBF=   257
 NBsUse=   257 1.00D-06 EigRej= -1.00D+00 NBFU=   257
 Precomputing XC quadrature grid using
 IXCGrd= 4 IRadAn=           5 IRanWt=          -1 IRanGd=           0 AccXCQ= 0.00D+00.
 Generated NRdTot=       0 NPtTot=           0 NUsed=           0 NTot=          32
 NSgBfM=   268   268   268   268   268 MxSgAt=    12 MxSgA2=    12.
 Leave Link  302 at Fri May 23 07:31:03 2025, MaxMem=  3758096384 cpu:               0.5 elap:               0.1
 (Enter /apps/easybuild-2022/easybuild/software/Compiler/NVHPC/22.11-CUDA-11.7.0/Gaussian/g16c01-CUDA-11.7.0/g16/l303.exe)
 DipDrv:  MaxL=1.
 Leave Link  303 at Fri May 23 07:31:03 2025, MaxMem=  3758096384 cpu:               0.1 elap:               0.0
 (Enter /apps/easybuild-2022/easybuild/software/Compiler/NVHPC/22.11-CUDA-11.7.0/Gaussian/g16c01-CUDA-11.7.0/g16/l401.exe)
 ExpMin= 3.60D-02 ExpMax= 9.34D+04 ExpMxC= 3.17D+03 IAcc=3 IRadAn=         5 AccDes= 0.00D+00
 Harris functional with IExCor= 4639 and IRadAn=       5 diagonalized for initial guess.
 HarFok:  IExCor= 4639 AccDes= 0.00D+00 IRadAn=         5 IDoV= 1 UseB2=F ITyADJ=14
 ICtDFT=  3500011 ScaDFX=  1.000000  1.000000  1.000000  1.000000
 FoFCou: FMM=F IPFlag=           0 FMFlag=      100000 FMFlg1=           0
         NFxFlg=           0 DoJE=T BraDBF=F KetDBF=T FulRan=T
         wScrn=  0.000000 ICntrl=       500 IOpCl=  0 I1Cent=   200000004 NGrid=           0
         NMat0=    1 NMatS0=      1 NMatT0=    0 NMatD0=    1 NMtDS0=    0 NMtDT0=    0
 Symmetry not used in FoFCou.
 Harris En= -1166.98188006381    
 JPrj=0 DoOrth=F DoCkMO=F.
 Leave Link  401 at Fri May 23 07:31:03 2025, MaxMem=  3758096384 cpu:               2.6 elap:               0.4
 (Enter /apps/easybuild-2022/easybuild/software/Compiler/NVHPC/22.11-CUDA-11.7.0/Gaussian/g16c01-CUDA-11.7.0/g16/l502.exe)
 Keep R1 ints in memory in canonical form, NReq=1117474609.
 FoFCou: FMM=F IPFlag=           0 FMFlag=           0 FMFlg1=           0
         NFxFlg=           0 DoJE=F BraDBF=F KetDBF=F FulRan=T
         wScrn=  0.000000 ICntrl=       600 IOpCl=  0 I1Cent=           0 NGrid=           0
         NMat0=    1 NMatS0=  33153 NMatT0=    0 NMatD0=    1 NMtDS0=    0 NMtDT0=    0
 Symmetry not used in FoFCou.
 Two-electron integral symmetry not used.
 Closed shell SCF:
 Using DIIS extrapolation, IDIIS=  1040.
 NGot=  3758096384 LenX=  2658793876 LenY=  2658721611
 Requested convergence on RMS density matrix=1.00D-08 within  32 cycles.
 Requested convergence on MAX density matrix=1.00D-06.
 Requested convergence on             energy=1.00D-06.
 No special actions if energy rises.

 Cycle   1  Pass 1  IDiag  1:
 E= -1198.67533414186    
 DIIS: error= 8.40D-02 at cycle   1 NSaved=   1.
 NSaved= 1 IEnMin= 1 EnMin= -1198.67533414186     IErMin= 1 ErrMin= 8.40D-02
 ErrMax= 8.40D-02  0.00D+00 EMaxC= 1.00D-01 BMatC= 3.58D+00 BMatP= 3.58D+00
 IDIUse=3 WtCom= 1.60D-01 WtEn= 8.40D-01
 Coeff-Com:  0.100D+01
 Coeff-En:   0.100D+01
 Coeff:      0.100D+01
 Gap=     0.267 Goal=   None    Shift=    0.000
 GapD=    0.267 DampG=1.000 DampE=0.500 DampFc=0.5000 IDamp=-1.
 Damping current iteration by 5.00D-01
 RMSDP=8.11D-03 MaxDP=2.99D-01              OVMax= 2.86D-01

 Cycle   2  Pass 1  IDiag  1:
 E= -1199.11030114288     Delta-E=       -0.434967001016 Rises=F Damp=T
 DIIS: error= 3.64D-02 at cycle   2 NSaved=   2.
 NSaved= 2 IEnMin= 2 EnMin= -1199.11030114288     IErMin= 2 ErrMin= 3.64D-02
 ErrMax= 3.64D-02  0.00D+00 EMaxC= 1.00D-01 BMatC= 5.07D-01 BMatP= 3.58D+00
 IDIUse=3 WtCom= 6.36D-01 WtEn= 3.64D-01
 Coeff-Com: -0.279D+00 0.128D+01
 Coeff-En:   0.000D+00 0.100D+01
 Coeff:     -0.177D+00 0.118D+01
 Gap=     0.476 Goal=   None    Shift=    0.000
 RMSDP=5.65D-03 MaxDP=7.14D-01 DE=-4.35D-01 OVMax= 2.18D-01

 Cycle   3  Pass 1  IDiag  1:
 E= -1199.44107346108     Delta-E=       -0.330772318198 Rises=F Damp=F
 DIIS: error= 2.03D-02 at cycle   3 NSaved=   3.
 NSaved= 3 IEnMin= 3 EnMin= -1199.44107346108     IErMin= 3 ErrMin= 2.03D-02
 ErrMax= 2.03D-02  0.00D+00 EMaxC= 1.00D-01 BMatC= 2.05D-01 BMatP= 5.07D-01
 IDIUse=3 WtCom= 7.97D-01 WtEn= 2.03D-01
 Coeff-Com: -0.197D+00 0.588D+00 0.609D+00
 Coeff-En:   0.000D+00 0.000D+00 0.100D+01
 Coeff:     -0.157D+00 0.468D+00 0.688D+00
 Gap=     0.305 Goal=   None    Shift=    0.000
 RMSDP=3.49D-03 MaxDP=3.08D-01 DE=-3.31D-01 OVMax= 1.21D-01

 Cycle   4  Pass 1  IDiag  1:
 E= -1199.53209433540     Delta-E=       -0.091020874323 Rises=F Damp=F
 DIIS: error= 1.03D-02 at cycle   4 NSaved=   4.
 NSaved= 4 IEnMin= 4 EnMin= -1199.53209433540     IErMin= 4 ErrMin= 1.03D-02
 ErrMax= 1.03D-02  0.00D+00 EMaxC= 1.00D-01 BMatC= 5.82D-02 BMatP= 2.05D-01
 IDIUse=3 WtCom= 8.97D-01 WtEn= 1.03D-01
 Coeff-Com: -0.433D-01 0.107D+00 0.377D+00 0.559D+00
 Coeff-En:   0.000D+00 0.000D+00 0.248D+00 0.752D+00
 Coeff:     -0.388D-01 0.965D-01 0.363D+00 0.579D+00
 Gap=     0.307 Goal=   None    Shift=    0.000
 RMSDP=1.85D-03 MaxDP=1.96D-01 DE=-9.10D-02 OVMax= 5.50D-02

 Cycle   5  Pass 1  IDiag  1:
 E= -1199.56897010138     Delta-E=       -0.036875765982 Rises=F Damp=F
 DIIS: error= 1.94D-03 at cycle   5 NSaved=   5.
 NSaved= 5 IEnMin= 5 EnMin= -1199.56897010138     IErMin= 5 ErrMin= 1.94D-03
 ErrMax= 1.94D-03  0.00D+00 EMaxC= 1.00D-01 BMatC= 2.64D-03 BMatP= 5.82D-02
 IDIUse=3 WtCom= 9.81D-01 WtEn= 1.94D-02
 Coeff-Com: -0.488D-02 0.709D-02 0.147D+00 0.311D+00 0.540D+00
 Coeff-En:   0.000D+00 0.000D+00 0.000D+00 0.000D+00 0.100D+01
 Coeff:     -0.479D-02 0.695D-02 0.144D+00 0.305D+00 0.549D+00
 Gap=     0.304 Goal=   None    Shift=    0.000
 RMSDP=2.94D-04 MaxDP=1.28D-02 DE=-3.69D-02 OVMax= 1.18D-02

 Cycle   6  Pass 1  IDiag  1:
 E= -1199.57062985568     Delta-E=       -0.001659754296 Rises=F Damp=F
 DIIS: error= 6.23D-04 at cycle   6 NSaved=   6.
 NSaved= 6 IEnMin= 6 EnMin= -1199.57062985568     IErMin= 6 ErrMin= 6.23D-04
 ErrMax= 6.23D-04  0.00D+00 EMaxC= 1.00D-01 BMatC= 1.54D-04 BMatP= 2.64D-03
 IDIUse=3 WtCom= 9.94D-01 WtEn= 6.23D-03
 Coeff-Com:  0.357D-02-0.954D-02 0.477D-02 0.395D-01 0.214D+00 0.748D+00
 Coeff-En:   0.000D+00 0.000D+00 0.000D+00 0.000D+00 0.000D+00 0.100D+01
 Coeff:      0.354D-02-0.948D-02 0.474D-02 0.393D-01 0.213D+00 0.749D+00
 Gap=     0.305 Goal=   None    Shift=    0.000
 RMSDP=1.04D-04 MaxDP=9.01D-03 DE=-1.66D-03 OVMax= 3.91D-03

 Cycle   7  Pass 1  IDiag  1:
 E= -1199.57076779224     Delta-E=       -0.000137936560 Rises=F Damp=F
 DIIS: error= 2.01D-04 at cycle   7 NSaved=   7.
 NSaved= 7 IEnMin= 7 EnMin= -1199.57076779224     IErMin= 7 ErrMin= 2.01D-04
 ErrMax= 2.01D-04  0.00D+00 EMaxC= 1.00D-01 BMatC= 3.57D-05 BMatP= 1.54D-04
 IDIUse=3 WtCom= 9.98D-01 WtEn= 2.01D-03
 Coeff-Com:  0.282D-02-0.648D-02-0.199D-01-0.266D-01 0.239D-01 0.369D+00
 Coeff-Com:  0.658D+00
 Coeff-En:   0.000D+00 0.000D+00 0.000D+00 0.000D+00 0.000D+00 0.000D+00
 Coeff-En:   0.100D+01
 Coeff:      0.281D-02-0.646D-02-0.199D-01-0.266D-01 0.239D-01 0.368D+00
 Coeff:      0.658D+00
 Gap=     0.305 Goal=   None    Shift=    0.000
 RMSDP=4.44D-05 MaxDP=2.02D-03 DE=-1.38D-04 OVMax= 1.92D-03

 Cycle   8  Pass 1  IDiag  1:
 E= -1199.57080004866     Delta-E=       -0.000032256421 Rises=F Damp=F
 DIIS: error= 8.79D-05 at cycle   8 NSaved=   8.
 NSaved= 8 IEnMin= 8 EnMin= -1199.57080004866     IErMin= 8 ErrMin= 8.79D-05
 ErrMax= 8.79D-05  0.00D+00 EMaxC= 1.00D-01 BMatC= 2.85D-06 BMatP= 3.57D-05
 IDIUse=1 WtCom= 1.00D+00 WtEn= 0.00D+00
 Coeff-Com:  0.500D-03-0.949D-03-0.690D-02-0.139D-01-0.203D-01 0.281D-01
 Coeff-Com:  0.238D+00 0.775D+00
 Coeff:      0.500D-03-0.949D-03-0.690D-02-0.139D-01-0.203D-01 0.281D-01
 Coeff:      0.238D+00 0.775D+00
 Gap=     0.305 Goal=   None    Shift=    0.000
 RMSDP=2.25D-05 MaxDP=2.71D-03 DE=-3.23D-05 OVMax= 1.44D-03

 Cycle   9  Pass 1  IDiag  1:
 E= -1199.57080689906     Delta-E=       -0.000006850403 Rises=F Damp=F
 DIIS: error= 5.08D-05 at cycle   9 NSaved=   9.
 NSaved= 9 IEnMin= 9 EnMin= -1199.57080689906     IErMin= 9 ErrMin= 5.08D-05
 ErrMax= 5.08D-05  0.00D+00 EMaxC= 1.00D-01 BMatC= 5.05D-07 BMatP= 2.85D-06
 IDIUse=1 WtCom= 1.00D+00 WtEn= 0.00D+00
 Coeff-Com: -0.247D-03 0.576D-03 0.112D-02 0.108D-03-0.917D-02-0.479D-01
 Coeff-Com: -0.567D-01 0.181D+00 0.932D+00
 Coeff:     -0.247D-03 0.576D-03 0.112D-02 0.108D-03-0.917D-02-0.479D-01
 Coeff:     -0.567D-01 0.181D+00 0.932D+00
 Gap=     0.305 Goal=   None    Shift=    0.000
 RMSDP=1.12D-05 MaxDP=4.74D-04 DE=-6.85D-06 OVMax= 1.22D-03

 Cycle  10  Pass 1  IDiag  1:
 E= -1199.57080992374     Delta-E=       -0.000003024672 Rises=F Damp=F
 DIIS: error= 3.33D-05 at cycle  10 NSaved=  10.
 NSaved=10 IEnMin=10 EnMin= -1199.57080992374     IErMin=10 ErrMin= 3.33D-05
 ErrMax= 3.33D-05  0.00D+00 EMaxC= 1.00D-01 BMatC= 1.85D-07 BMatP= 5.05D-07
 IDIUse=1 WtCom= 1.00D+00 WtEn= 0.00D+00
 Coeff-Com: -0.171D-03 0.350D-03 0.205D-02 0.363D-02 0.298D-02-0.166D-01
 Coeff-Com: -0.833D-01-0.135D+00 0.226D+00 0.100D+01
 Coeff:     -0.171D-03 0.350D-03 0.205D-02 0.363D-02 0.298D-02-0.166D-01
 Coeff:     -0.833D-01-0.135D+00 0.226D+00 0.100D+01
 Gap=     0.305 Goal=   None    Shift=    0.000
 RMSDP=8.94D-06 MaxDP=6.69D-04 DE=-3.02D-06 OVMax= 1.01D-03

 Cycle  11  Pass 1  IDiag  1:
 E= -1199.57081159557     Delta-E=       -0.000001671833 Rises=F Damp=F
 DIIS: error= 2.10D-05 at cycle  11 NSaved=  11.
 NSaved=11 IEnMin=11 EnMin= -1199.57081159557     IErMin=11 ErrMin= 2.10D-05
 ErrMax= 2.10D-05  0.00D+00 EMaxC= 1.00D-01 BMatC= 7.80D-08 BMatP= 1.85D-07
 IDIUse=1 WtCom= 1.00D+00 WtEn= 0.00D+00
 Coeff-Com:  0.861D-04-0.202D-03-0.956D-04 0.690D-03 0.470D-02 0.174D-01
 Coeff-Com:  0.830D-02-0.967D-01-0.385D+00 0.225D+00 0.123D+01
 Coeff:      0.861D-04-0.202D-03-0.956D-04 0.690D-03 0.470D-02 0.174D-01
 Coeff:      0.830D-02-0.967D-01-0.385D+00 0.225D+00 0.123D+01
 Gap=     0.305 Goal=   None    Shift=    0.000
 RMSDP=8.15D-06 MaxDP=4.25D-04 DE=-1.67D-06 OVMax= 1.02D-03

 Cycle  12  Pass 1  IDiag  1:
 E= -1199.57081260555     Delta-E=       -0.000001009977 Rises=F Damp=F
 DIIS: error= 9.69D-06 at cycle  12 NSaved=  12.
 NSaved=12 IEnMin=12 EnMin= -1199.57081260555     IErMin=12 ErrMin= 9.69D-06
 ErrMax= 9.69D-06  0.00D+00 EMaxC= 1.00D-01 BMatC= 3.05D-08 BMatP= 7.80D-08
 IDIUse=1 WtCom= 1.00D+00 WtEn= 0.00D+00
 Coeff-Com:  0.937D-04-0.200D-03-0.780D-03-0.107D-02 0.114D-02 0.134D-01
 Coeff-Com:  0.419D-01 0.148D-01-0.266D+00-0.327D+00 0.541D+00 0.983D+00
 Coeff:      0.937D-04-0.200D-03-0.780D-03-0.107D-02 0.114D-02 0.134D-01
 Coeff:      0.419D-01 0.148D-01-0.266D+00-0.327D+00 0.541D+00 0.983D+00
 Gap=     0.305 Goal=   None    Shift=    0.000
 RMSDP=5.73D-06 MaxDP=4.36D-04 DE=-1.01D-06 OVMax= 6.45D-04

 Cycle  13  Pass 1  IDiag  1:
 E= -1199.57081291480     Delta-E=       -0.000000309251 Rises=F Damp=F
 DIIS: error= 3.67D-06 at cycle  13 NSaved=  13.
 NSaved=13 IEnMin=13 EnMin= -1199.57081291480     IErMin=13 ErrMin= 3.67D-06
 ErrMax= 3.67D-06  0.00D+00 EMaxC= 1.00D-01 BMatC= 4.68D-09 BMatP= 3.05D-08
 IDIUse=1 WtCom= 1.00D+00 WtEn= 0.00D+00
 Coeff-Com:  0.833D-05-0.169D-04-0.147D-03-0.407D-03-0.868D-03-0.192D-02
 Coeff-Com:  0.815D-02 0.244D-01 0.309D-01-0.136D+00-0.192D+00 0.226D+00
 Coeff-Com:  0.104D+01
 Coeff:      0.833D-05-0.169D-04-0.147D-03-0.407D-03-0.868D-03-0.192D-02
 Coeff:      0.815D-02 0.244D-01 0.309D-01-0.136D+00-0.192D+00 0.226D+00
 Coeff:      0.104D+01
 Gap=     0.305 Goal=   None    Shift=    0.000
 RMSDP=2.71D-06 MaxDP=2.28D-04 DE=-3.09D-07 OVMax= 2.77D-04

 Cycle  14  Pass 1  IDiag  1:
 E= -1199.57081296173     Delta-E=       -0.000000046934 Rises=F Damp=F
 DIIS: error= 1.24D-06 at cycle  14 NSaved=  14.
 NSaved=14 IEnMin=14 EnMin= -1199.57081296173     IErMin=14 ErrMin= 1.24D-06
 ErrMax= 1.24D-06  0.00D+00 EMaxC= 1.00D-01 BMatC= 1.12D-09 BMatP= 4.68D-09
 IDIUse=1 WtCom= 1.00D+00 WtEn= 0.00D+00
 Coeff-Com: -0.516D-05 0.108D-04 0.237D-04-0.480D-04-0.514D-03-0.211D-02
 Coeff-Com: -0.170D-02 0.926D-02 0.425D-01-0.142D-01-0.139D+00-0.425D-01
 Coeff-Com:  0.441D+00 0.708D+00
 Coeff:     -0.516D-05 0.108D-04 0.237D-04-0.480D-04-0.514D-03-0.211D-02
 Coeff:     -0.170D-02 0.926D-02 0.425D-01-0.142D-01-0.139D+00-0.425D-01
 Coeff:      0.441D+00 0.708D+00
 Gap=     0.305 Goal=   None    Shift=    0.000
 RMSDP=6.92D-07 MaxDP=7.86D-05 DE=-4.69D-08 OVMax= 5.10D-05

 Cycle  15  Pass 1  IDiag  1:
 E= -1199.57081296484     Delta-E=       -0.000000003107 Rises=F Damp=F
 DIIS: error= 4.90D-07 at cycle  15 NSaved=  15.
 NSaved=15 IEnMin=15 EnMin= -1199.57081296484     IErMin=15 ErrMin= 4.90D-07
 ErrMax= 4.90D-07  0.00D+00 EMaxC= 1.00D-01 BMatC= 1.72D-10 BMatP= 1.12D-09
 IDIUse=1 WtCom= 1.00D+00 WtEn= 0.00D+00
 Coeff-Com: -0.199D-05 0.413D-05 0.331D-04 0.764D-04 0.375D-04 0.358D-04
 Coeff-Com: -0.266D-02-0.276D-02-0.159D-03 0.345D-01 0.218D-01-0.842D-01
 Coeff-Com: -0.160D+00 0.174D+00 0.102D+01
 Coeff:     -0.199D-05 0.413D-05 0.331D-04 0.764D-04 0.375D-04 0.358D-04
 Coeff:     -0.266D-02-0.276D-02-0.159D-03 0.345D-01 0.218D-01-0.842D-01
 Coeff:     -0.160D+00 0.174D+00 0.102D+01
 Gap=     0.305 Goal=   None    Shift=    0.000
 RMSDP=3.46D-07 MaxDP=3.29D-05 DE=-3.11D-09 OVMax= 3.19D-05

 Cycle  16  Pass 1  IDiag  1:
 E= -1199.57081296565     Delta-E=       -0.000000000805 Rises=F Damp=F
 DIIS: error= 2.62D-07 at cycle  16 NSaved=  16.
 NSaved=16 IEnMin=16 EnMin= -1199.57081296565     IErMin=16 ErrMin= 2.62D-07
 ErrMax= 2.62D-07  0.00D+00 EMaxC= 1.00D-01 BMatC= 2.20D-11 BMatP= 1.72D-10
 IDIUse=1 WtCom= 1.00D+00 WtEn= 0.00D+00
 Coeff-Com: -0.207D-06 0.657D-06 0.680D-05 0.251D-04 0.831D-04 0.196D-03
 Coeff-Com: -0.263D-03-0.159D-02-0.523D-02 0.792D-02 0.213D-01-0.126D-01
 Coeff-Com: -0.767D-01-0.532D-01 0.187D+00 0.933D+00
 Coeff:     -0.207D-06 0.657D-06 0.680D-05 0.251D-04 0.831D-04 0.196D-03
 Coeff:     -0.263D-03-0.159D-02-0.523D-02 0.792D-02 0.213D-01-0.126D-01
 Coeff:     -0.767D-01-0.532D-01 0.187D+00 0.933D+00
 Gap=     0.305 Goal=   None    Shift=    0.000
 RMSDP=9.69D-08 MaxDP=8.11D-06 DE=-8.05D-10 OVMax= 8.71D-06

 Cycle  17  Pass 1  IDiag  1:
 E= -1199.57081296576     Delta-E=       -0.000000000111 Rises=F Damp=F
 DIIS: error= 1.53D-07 at cycle  17 NSaved=  17.
 NSaved=17 IEnMin=17 EnMin= -1199.57081296576     IErMin=17 ErrMin= 1.53D-07
 ErrMax= 1.53D-07  0.00D+00 EMaxC= 1.00D-01 BMatC= 7.88D-12 BMatP= 2.20D-11
 IDIUse=1 WtCom= 1.00D+00 WtEn= 0.00D+00
 Coeff-Com:  0.277D-06-0.500D-06-0.400D-05-0.552D-05 0.304D-04 0.722D-04
 Coeff-Com:  0.468D-03-0.587D-04-0.204D-02-0.384D-02 0.500D-02 0.105D-01
 Coeff-Com: -0.105D-02-0.565D-01-0.114D+00 0.350D+00 0.811D+00
 Coeff:      0.277D-06-0.500D-06-0.400D-05-0.552D-05 0.304D-04 0.722D-04
 Coeff:      0.468D-03-0.587D-04-0.204D-02-0.384D-02 0.500D-02 0.105D-01
 Coeff:     -0.105D-02-0.565D-01-0.114D+00 0.350D+00 0.811D+00
 Gap=     0.305 Goal=   None    Shift=    0.000
 RMSDP=4.34D-08 MaxDP=3.13D-06 DE=-1.11D-10 OVMax= 3.99D-06

 Cycle  18  Pass 1  IDiag  1:
 E= -1199.57081296583     Delta-E=       -0.000000000079 Rises=F Damp=F
 DIIS: error= 1.20D-07 at cycle  18 NSaved=  18.
 NSaved=18 IEnMin=18 EnMin= -1199.57081296583     IErMin=18 ErrMin= 1.20D-07
 ErrMax= 1.20D-07  0.00D+00 EMaxC= 1.00D-01 BMatC= 2.47D-12 BMatP= 7.88D-12
 IDIUse=1 WtCom= 1.00D+00 WtEn= 0.00D+00
 Coeff-Com:  0.104D-06-0.296D-06-0.224D-05-0.738D-05-0.257D-04-0.467D-04
 Coeff-Com:  0.720D-04 0.410D-03 0.149D-02-0.228D-02-0.570D-02 0.357D-02
 Coeff-Com:  0.207D-01 0.156D-01-0.468D-01-0.282D+00-0.326D-01 0.133D+01
 Coeff:      0.104D-06-0.296D-06-0.224D-05-0.738D-05-0.257D-04-0.467D-04
 Coeff:      0.720D-04 0.410D-03 0.149D-02-0.228D-02-0.570D-02 0.357D-02
 Coeff:      0.207D-01 0.156D-01-0.468D-01-0.282D+00-0.326D-01 0.133D+01
 Gap=     0.305 Goal=   None    Shift=    0.000
 RMSDP=3.47D-08 MaxDP=1.43D-06 DE=-7.91D-11 OVMax= 5.15D-06

 Cycle  19  Pass 1  IDiag  1:
 E= -1199.57081296586     Delta-E=       -0.000000000024 Rises=F Damp=F
 DIIS: error= 7.84D-08 at cycle  19 NSaved=  19.
 NSaved=19 IEnMin=19 EnMin= -1199.57081296586     IErMin=19 ErrMin= 7.84D-08
 ErrMax= 7.84D-08  0.00D+00 EMaxC= 1.00D-01 BMatC= 1.09D-12 BMatP= 2.47D-12
 IDIUse=1 WtCom= 1.00D+00 WtEn= 0.00D+00
 Coeff-Com: -0.650D-07 0.916D-07 0.800D-06 0.608D-07-0.231D-04-0.332D-04
 Coeff-Com: -0.199D-03 0.155D-03 0.107D-02 0.118D-02-0.351D-02-0.312D-02
 Coeff-Com:  0.454D-02 0.292D-01 0.401D-01-0.219D+00-0.400D+00 0.285D+00
 Coeff-Com:  0.126D+01
 Coeff:     -0.650D-07 0.916D-07 0.800D-06 0.608D-07-0.231D-04-0.332D-04
 Coeff:     -0.199D-03 0.155D-03 0.107D-02 0.118D-02-0.351D-02-0.312D-02
 Coeff:      0.454D-02 0.292D-01 0.401D-01-0.219D+00-0.400D+00 0.285D+00
 Coeff:      0.126D+01
 Gap=     0.305 Goal=   None    Shift=    0.000
 RMSDP=2.97D-08 MaxDP=1.30D-06 DE=-2.36D-11 OVMax= 4.74D-06

 Cycle  20  Pass 1  IDiag  1:
 E= -1199.57081296586     Delta-E=       -0.000000000003 Rises=F Damp=F
 DIIS: error= 2.97D-08 at cycle  20 NSaved=  20.
 NSaved=20 IEnMin=20 EnMin= -1199.57081296586     IErMin=20 ErrMin= 2.97D-08
 ErrMax= 2.97D-08  0.00D+00 EMaxC= 1.00D-01 BMatC= 3.19D-13 BMatP= 1.09D-12
 IDIUse=1 WtCom= 1.00D+00 WtEn= 0.00D+00
 Coeff-Com: -0.449D-07 0.979D-07 0.950D-06 0.254D-05 0.240D-06 0.901D-05
 Coeff-Com: -0.104D-03-0.820D-04-0.176D-03 0.130D-02 0.669D-03-0.229D-02
 Coeff-Com: -0.612D-02 0.590D-02 0.333D-01 0.149D-01-0.166D+00-0.380D+00
 Coeff-Com:  0.565D+00 0.933D+00
 Coeff:     -0.449D-07 0.979D-07 0.950D-06 0.254D-05 0.240D-06 0.901D-05
 Coeff:     -0.104D-03-0.820D-04-0.176D-03 0.130D-02 0.669D-03-0.229D-02
 Coeff:     -0.612D-02 0.590D-02 0.333D-01 0.149D-01-0.166D+00-0.380D+00
 Coeff:      0.565D+00 0.933D+00
 Gap=     0.305 Goal=   None    Shift=    0.000
 RMSDP=1.65D-08 MaxDP=7.02D-07 DE=-3.18D-12 OVMax= 2.60D-06

 Cycle  21  Pass 1  IDiag  1:
 E= -1199.57081296584     Delta-E=        0.000000000018 Rises=F Damp=F
 DIIS: error= 9.49D-09 at cycle  21 NSaved=  20.
 NSaved=20 IEnMin=19 EnMin= -1199.57081296586     IErMin=20 ErrMin= 9.49D-09
 ErrMax= 9.49D-09  0.00D+00 EMaxC= 1.00D-01 BMatC= 3.05D-14 BMatP= 3.19D-13
 IDIUse=1 WtCom= 1.00D+00 WtEn= 0.00D+00
 Coeff-Com:  0.925D-08 0.136D-06 0.629D-06 0.473D-05 0.404D-05 0.157D-04
 Coeff-Com: -0.574D-04-0.143D-03 0.451D-04 0.651D-03 0.766D-05-0.182D-02
 Coeff-Com: -0.372D-02-0.209D-03 0.378D-01 0.399D-01-0.955D-01-0.146D+00
 Coeff-Com:  0.117D+00 0.105D+01
 Coeff:      0.925D-08 0.136D-06 0.629D-06 0.473D-05 0.404D-05 0.157D-04
 Coeff:     -0.574D-04-0.143D-03 0.451D-04 0.651D-03 0.766D-05-0.182D-02
 Coeff:     -0.372D-02-0.209D-03 0.378D-01 0.399D-01-0.955D-01-0.146D+00
 Coeff:      0.117D+00 0.105D+01
 Gap=     0.305 Goal=   None    Shift=    0.000
 RMSDP=5.20D-09 MaxDP=2.28D-07 DE= 1.82D-11 OVMax= 7.15D-07

 SCF Done:  E(RwB97XD) =  -1199.57081297     A.U. after   21 cycles
            NFock= 21  Conv=0.52D-08     -V/T= 2.0018
 KE= 1.197364719275D+03 PE=-4.661795615815D+03 EE= 1.357761872838D+03
 Leave Link  502 at Fri May 23 07:31:21 2025, MaxMem=  3758096384 cpu:              82.8 elap:              17.3
 (Enter /apps/easybuild-2022/easybuild/software/Compiler/NVHPC/22.11-CUDA-11.7.0/Gaussian/g16c01-CUDA-11.7.0/g16/l508.exe)
 QCSCF skips out because SCF is already converged.
 Leave Link  508 at Fri May 23 07:31:21 2025, MaxMem=  3758096384 cpu:               0.0 elap:               0.0
 (Enter /apps/easybuild-2022/easybuild/software/Compiler/NVHPC/22.11-CUDA-11.7.0/Gaussian/g16c01-CUDA-11.7.0/g16/l801.exe)
 DoSCS=F DFT=T ScalE2(SS,OS)=  1.000000  1.000000
 Range of M.O.s used for correlation:     1   257
 NBasis=   257 NAE=    49 NBE=    49 NFC=     0 NFV=     0
 NROrb=    257 NOA=    49 NOB=    49 NVA=   208 NVB=   208

 **** Warning!!: The largest alpha MO coefficient is  0.51492966D+02

 Leave Link  801 at Fri May 23 07:31:21 2025, MaxMem=  3758096384 cpu:               0.0 elap:               0.0
 (Enter /apps/easybuild-2022/easybuild/software/Compiler/NVHPC/22.11-CUDA-11.7.0/Gaussian/g16c01-CUDA-11.7.0/g16/l1101.exe)
 Using compressed storage, NAtomX=    12.
 Will process     13 centers per pass.
 R6Disp: Adding Grimme-D2 dispersion energy 1st derivatives to the gradient.
 Leave Link 1101 at Fri May 23 07:31:21 2025, MaxMem=  3758096384 cpu:               0.4 elap:               0.1
 (Enter /apps/easybuild-2022/easybuild/software/Compiler/NVHPC/22.11-CUDA-11.7.0/Gaussian/g16c01-CUDA-11.7.0/g16/l1102.exe)
 Symmetrizing basis deriv contribution to polar:
 IMax=3 JMax=2 DiffMx= 0.00D+00
 Leave Link 1102 at Fri May 23 07:31:21 2025, MaxMem=  3758096384 cpu:               0.0 elap:               0.0
 (Enter /apps/easybuild-2022/easybuild/software/Compiler/NVHPC/22.11-CUDA-11.7.0/Gaussian/g16c01-CUDA-11.7.0/g16/l1110.exe)
 Forming Gx(P) for the SCF density, NAtomX=    12.
 Integral derivatives from FoFJK, PRISM(SPDF).
 Do as many integral derivatives as possible in FoFJK.
 G2DrvN: MDV=    3758095012.
 G2DrvN: will do    13 centers at a time, making    1 passes.
 Calling FoFCou, ICntrl=  3107 FMM=F I1Cent=   0 AccDes= 0.00D+00.
 FoFJK:  IHMeth= 1 ICntrl=    3107 DoSepK=T KAlg= 0 I1Cent=           0 FoldK=F
 IRaf=         1 NMat=       1 IRICut=       1 DoRegI=T DoRafI=F ISym2E= 0 IDoP0=0 IntGTp=1.
 FoFCou: FMM=F IPFlag=           0 FMFlag=      100000 FMFlg1=           0
         NFxFlg=           0 DoJE=F BraDBF=F KetDBF=F FulRan=T
         wScrn=  0.000000 ICntrl=      3507 IOpCl=  0 I1Cent=           0 NGrid=           0
         NMat0=    1 NMatS0=      1 NMatT0=    0 NMatD0=    1 NMtDS0=    0 NMtDT0=    0
 Symmetry not used in FoFCou.
 End of G2Drv F.D. properties file   721 does not exist.
 End of G2Drv F.D. properties file   722 does not exist.
 End of G2Drv F.D. properties file   788 does not exist.
 Leave Link 1110 at Fri May 23 07:31:33 2025, MaxMem=  3758096384 cpu:             100.3 elap:              12.7
 (Enter /apps/easybuild-2022/easybuild/software/Compiler/NVHPC/22.11-CUDA-11.7.0/Gaussian/g16c01-CUDA-11.7.0/g16/l1002.exe)
 Minotr:  Closed shell wavefunction.
          IDoAtm=111111111111
          Direct CPHF calculation.
          Differentiating once with respect to nuclear coordinates.
          Requested convergence is 1.0D-08 RMS, and 1.0D-07 maximum.
          Secondary convergence is 1.0D-12 RMS, and 1.0D-12 maximum.
          NewPWx=T KeepS1=F KeepF1=F KeepIn=T MapXYZ=F SortEE=F KeepMc=T.
         3710 words used for storage of precomputed grid.
 Keep R1 ints in memory in canonical form, NReq=1117480302.
 FoFCou: FMM=F IPFlag=           0 FMFlag=           0 FMFlg1=           0
         NFxFlg=           0 DoJE=F BraDBF=F KetDBF=F FulRan=T
         wScrn=  0.000000 ICntrl=       600 IOpCl=  0 I1Cent=           0 NGrid=           0
         NMat0=    1 NMatS0=  33153 NMatT0=    0 NMatD0=    1 NMtDS0=    0 NMtDT0=    0
 Symmetry not used in FoFCou.
 Two-electron integral symmetry not used.
          MDV=    3758096384 using IRadAn=       1.
          Solving linear equations simultaneously, MaxMat=       0.
          There are    39 degrees of freedom in the 1st order CPHF.  IDoFFX=6 NUNeed=     0.
     33 vectors produced by pass  0 Test12= 2.61D-14 2.56D-09 XBig12= 1.50D-01 7.65D-02.
 AX will form    33 AO Fock derivatives at one time.
     33 vectors produced by pass  1 Test12= 2.61D-14 2.56D-09 XBig12= 1.95D-02 2.26D-02.
     33 vectors produced by pass  2 Test12= 2.61D-14 2.56D-09 XBig12= 1.66D-03 7.28D-03.
     33 vectors produced by pass  3 Test12= 2.61D-14 2.56D-09 XBig12= 2.77D-05 9.29D-04.
     33 vectors produced by pass  4 Test12= 2.61D-14 2.56D-09 XBig12= 6.05D-07 1.26D-04.
     33 vectors produced by pass  5 Test12= 2.61D-14 2.56D-09 XBig12= 9.28D-09 1.43D-05.
     33 vectors produced by pass  6 Test12= 2.61D-14 2.56D-09 XBig12= 7.97D-11 1.67D-06.
     27 vectors produced by pass  7 Test12= 2.61D-14 2.56D-09 XBig12= 5.88D-13 1.14D-07.
      8 vectors produced by pass  8 Test12= 2.61D-14 2.56D-09 XBig12= 3.86D-15 8.42D-09.
 InvSVY:  IOpt=1 It=  1 EMax= 1.11D-15
 Solved reduced A of dimension   266 with    33 vectors.
 End of Minotr F.D. properties file   721 does not exist.
 End of Minotr F.D. properties file   722 does not exist.
 End of Minotr F.D. properties file   788 does not exist.
 Leave Link 1002 at Fri May 23 07:31:57 2025, MaxMem=  3758096384 cpu:             187.9 elap:              24.0
 (Enter /apps/easybuild-2022/easybuild/software/Compiler/NVHPC/22.11-CUDA-11.7.0/Gaussian/g16c01-CUDA-11.7.0/g16/l701.exe)
 ... and contract with generalized density number  0.
 Compute integral second derivatives.
 R6Disp: Adding Grimme-D2 dispersion energy 2nd derivatives to the Hessian.
 Leave Link  701 at Fri May 23 07:31:58 2025, MaxMem=  3758096384 cpu:               0.5 elap:               0.1
 (Enter /apps/easybuild-2022/easybuild/software/Compiler/NVHPC/22.11-CUDA-11.7.0/Gaussian/g16c01-CUDA-11.7.0/g16/l702.exe)
 L702 exits ... SP integral derivatives will be done elsewhere.
 Leave Link  702 at Fri May 23 07:31:58 2025, MaxMem=  3758096384 cpu:               0.0 elap:               0.0
 (Enter /apps/easybuild-2022/easybuild/software/Compiler/NVHPC/22.11-CUDA-11.7.0/Gaussian/g16c01-CUDA-11.7.0/g16/l703.exe)
 Integral derivatives from FoFJK, PRISM(SPDF).
 Compute integral second derivatives, UseDBF=F ICtDFT=           0.
 Calling FoFJK, ICntrl=    100127 FMM=F ISym2X=0 I1Cent= 0 IOpClX= 0 NMat=1 NMatS=1 NMatT=0.
 FoFJK:  IHMeth= 1 ICntrl=  100127 DoSepK=T KAlg= 0 I1Cent=           0 FoldK=F
 IRaf=         1 NMat=       1 IRICut=       1 DoRegI=T DoRafI=F ISym2E= 0 IDoP0=0 IntGTp=1.
 FoFCou: FMM=F IPFlag=           0 FMFlag=      100000 FMFlg1=         800
         NFxFlg=           0 DoJE=F BraDBF=F KetDBF=F FulRan=T
         wScrn=  0.000000 ICntrl=    100527 IOpCl=  0 I1Cent=           0 NGrid=           0
         NMat0=    1 NMatS0=      1 NMatT0=    0 NMatD0=    1 NMtDS0=    0 NMtDT0=    0
 Symmetry not used in FoFCou.
 Leave Link  703 at Fri May 23 07:32:35 2025, MaxMem=  3758096384 cpu:             296.6 elap:              37.3
 (Enter /apps/easybuild-2022/easybuild/software/Compiler/NVHPC/22.11-CUDA-11.7.0/Gaussian/g16c01-CUDA-11.7.0/g16/l716.exe)
 Dipole        =-8.35818598D-02-1.52457297D-01 2.13226216D+00
 Polarizability= 0.00000000D+00 0.00000000D+00 0.00000000D+00
                 0.00000000D+00 0.00000000D+00 0.00000000D+00
 -------------------------------------------------------------------
 Center     Atomic                   Forces (Hartrees/Bohr)
 Number     Number              X              Y              Z
 -------------------------------------------------------------------
      1        6          -0.009211959   -0.002829307   -0.012133933
      2        6          -0.001927657    0.012876616   -0.015506860
      3        9          -0.001657660   -0.008215332    0.003017937
      4        9          -0.000400509   -0.012531623    0.019766329
      5       16          -0.009767048   -0.000353126   -0.021714366
      6        8          -0.007541815    0.015024721   -0.014969999
      7        8           0.013047064   -0.011859726    0.014764363
      8        8           0.013076346    0.000389938    0.022168420
      9        9           0.003315365   -0.000577842    0.006465153
     10        9          -0.010924873    0.004094024    0.006466536
     11        9           0.002078324    0.000619987    0.001954739
     12        1           0.009914423    0.003361670   -0.010278319
 -------------------------------------------------------------------
 Cartesian Forces:  Max     0.022168420 RMS     0.010537450
 Force constants in Cartesian coordinates: 
                1             2             3             4             5 
      1  0.560319D+00
      2 -0.780152D-02  0.571045D+00
      3 -0.101970D-01  0.123563D-01  0.564345D+00
      4 -0.867059D-01  0.162051D-01  0.201921D-01  0.400564D+00
      5  0.496117D-01 -0.926204D-01 -0.593644D-01  0.698910D-01  0.558983D+00
      6  0.592943D-01 -0.612809D-01 -0.101586D+00 -0.239400D-01  0.540953D-01
      7  0.190382D-02  0.644965D-02  0.274509D-02 -0.113304D+00 -0.116404D+00
      8 -0.245646D-01 -0.454069D-01  0.142785D-01 -0.108961D+00 -0.332771D+00
      9 -0.111618D-01 -0.146266D-01  0.679898D-02  0.115044D-01  0.194322D-01
     10 -0.502194D-03 -0.122262D-02  0.404005D-02 -0.854058D-01  0.534528D-03
     11 -0.376263D-02  0.343921D-02 -0.879788D-02 -0.723827D-02 -0.450731D-01
     12 -0.241447D-01  0.242097D-01 -0.366642D-01 -0.215399D-01 -0.185371D-01
     13 -0.839864D-02  0.142629D-01  0.171878D-01 -0.812171D-01  0.169683D-01
     14  0.192625D-01  0.226913D-01  0.121428D-02  0.821799D-02 -0.262963D-01
     15  0.132592D-01 -0.307705D-02  0.435641D-02  0.704292D-02  0.983619D-02
     16 -0.123924D-02  0.406268D-02  0.400324D-03  0.111225D-01 -0.438992D-02
     17 -0.599088D-03  0.880132D-03  0.682336D-03  0.651472D-02 -0.853631D-02
     18 -0.136307D-02 -0.448504D-02 -0.261002D-03 -0.199663D-02  0.883470D-02
     19 -0.384294D-02 -0.548242D-02 -0.780636D-02 -0.100448D-01  0.120349D-01
     20  0.244548D-03  0.602128D-03  0.398129D-02  0.605012D-02 -0.676460D-02
     21 -0.660579D-03  0.661397D-02  0.618675D-02  0.420957D-02 -0.187203D-01
     22  0.650306D-02  0.994830D-02 -0.239734D-02  0.648296D-02 -0.286699D-01
     23 -0.622404D-02 -0.204137D-01 -0.406072D-02  0.169225D-02 -0.133939D-01
     24 -0.230636D-02 -0.392410D-02 -0.188776D-02 -0.170929D-02 -0.115750D-02
     25 -0.818385D-01  0.801351D-02 -0.346113D-01  0.808902D-02 -0.157324D-02
     26  0.990292D-02 -0.832034D-01  0.345186D-01 -0.178015D-02  0.608869D-02
     27 -0.339529D-01  0.290330D-01 -0.287405D+00 -0.120694D-01  0.192335D-01
     28 -0.877688D-01 -0.474955D-01  0.477981D-02  0.829125D-02  0.275248D-02
     29 -0.463610D-01 -0.283874D+00  0.940395D-02 -0.152283D-01 -0.399698D-01
     30  0.875315D-02  0.187519D-01 -0.808001D-01 -0.526465D-02 -0.124647D-01
     31 -0.289071D+00  0.153337D-01  0.478927D-02 -0.562402D-01 -0.171045D-03
     32  0.133825D-01 -0.781128D-01 -0.292421D-02  0.272545D-01  0.763257D-03
     33  0.239050D-02 -0.331730D-02 -0.773862D-01  0.254957D-01 -0.168270D-02
     34 -0.935933D-02 -0.122738D-01  0.877532D-03 -0.163232D-02 -0.585120D-03
     35 -0.309136D-02  0.497357D-02 -0.128804D-02 -0.261757D-02 -0.409144D-03
     36  0.894085D-04 -0.253826D-03  0.430364D-02 -0.192481D-02  0.494847D-03
                6             7             8             9            10 
      6  0.368952D+00
      7  0.792414D-02  0.967597D-01
      8  0.235279D-02  0.128275D+00  0.423965D+00
      9 -0.637497D-01 -0.149518D-01 -0.502596D-01  0.742721D-01
     10 -0.556727D-01  0.119977D-01 -0.305600D-02  0.150594D-01  0.124116D+00
     11 -0.177410D-01  0.720076D-02 -0.359970D-01  0.532649D-01  0.429899D-01
     12 -0.105294D+00  0.368084D-03  0.443144D-01 -0.239188D-01  0.232572D-01
     13 -0.526798D-01  0.754729D-02  0.299726D-02  0.465602D-02 -0.203262D-01
     14 -0.970066D-03 -0.273584D-01 -0.143978D-01  0.799935D-03  0.826382D-02
     15 -0.312385D-01 -0.166368D-02 -0.486991D-02  0.354254D-02 -0.300393D-01
     16  0.222696D-01 -0.766241D-03  0.449150D-02 -0.443014D-02 -0.503003D-01
     17  0.202087D-01 -0.107312D-02  0.210334D-02 -0.114328D-02 -0.464503D-01
     18 -0.209373D-01  0.159612D-02 -0.148845D-02  0.122163D-02  0.311765D-01
     19  0.375817D-01 -0.964196D-03 -0.306244D-02 -0.222383D-02  0.111732D-01
     20 -0.822611D-02  0.354813D-02  0.631954D-02 -0.583986D-03  0.432661D-03
     21 -0.186945D-01  0.494253D-02  0.890160D-02  0.584830D-03  0.449663D-02
     22  0.452261D-02 -0.111411D-01 -0.461816D-02 -0.390422D-03  0.415290D-02
     23  0.346772D-02 -0.699489D-02 -0.248357D-02  0.141475D-02 -0.420369D-02
     24  0.312238D-02 -0.186109D-02 -0.163512D-02  0.797206D-03  0.669918D-03
     25  0.356787D-02  0.387652D-03  0.151951D-02  0.693201D-03  0.100970D-02
     26 -0.912886D-02  0.370786D-03  0.365845D-02 -0.139701D-02  0.725623D-03
     27 -0.415730D-01 -0.263208D-03 -0.516065D-02  0.222570D-02  0.414663D-02
     28 -0.781638D-03  0.969740D-03  0.289334D-02  0.100293D-02  0.767588D-03
     29  0.181478D-01  0.470629D-02 -0.979806D-02 -0.720400D-02  0.119145D-02
     30  0.874084D-02  0.104794D-02 -0.639465D-02 -0.224219D-02  0.671572D-03
     31 -0.203003D-02  0.674068D-02  0.323288D-02 -0.191076D-03  0.369256D-02
     32 -0.110932D-02  0.360640D-03  0.450095D-02  0.425864D-03 -0.262355D-03
     33  0.246946D-02 -0.123792D-02 -0.917632D-03  0.589725D-03  0.207525D-02
     34 -0.560392D-04 -0.131414D-03  0.853132D-03  0.433168D-03 -0.374925D-03
     35  0.183972D-03  0.918970D-03  0.307376D-03 -0.123271D-03  0.105691D-02
     36 -0.210685D-03  0.135378D-02  0.878684D-03 -0.121895D-03  0.118727D-03
               11            12            13            14            15 
     11  0.998455D-01
     12 -0.534098D-01  0.187953D+00
     13  0.625892D-03 -0.438493D-02  0.204587D+00
     14 -0.468737D-02  0.117103D-01 -0.364745D-01  0.358164D+00
     15  0.119073D-01 -0.284280D-01 -0.698888D-01  0.113149D+00  0.645148D+00
     16 -0.394158D-01  0.118048D-01 -0.808379D-03  0.506333D-02 -0.399165D-02
     17 -0.283142D-01  0.135811D-01  0.337990D-02  0.209735D-03 -0.962478D-02
     18  0.249859D-01 -0.280322D-02 -0.990734D-04 -0.699662D-02  0.724347D-02
     19 -0.295875D-02  0.572316D-02 -0.703474D-01  0.305254D-01  0.873590D-01
     20  0.183522D-02 -0.159722D-02  0.209818D-01 -0.882326D-01 -0.109491D+00
     21 -0.473126D-02  0.124655D-01  0.102713D+00 -0.147700D+00 -0.536977D+00
     22  0.110187D-02  0.239797D-02 -0.396248D-01  0.262870D-02  0.308335D-02
     23  0.526506D-02 -0.695172D-02 -0.194777D-01 -0.219301D+00  0.253817D-01
     24 -0.134616D-02  0.286202D-02  0.976245D-02  0.300071D-01 -0.598404D-01
     25  0.968361D-03  0.377020D-02 -0.756418D-03 -0.620117D-03 -0.981063D-03
     26 -0.463397D-03 -0.593905D-02 -0.101419D-03 -0.344791D-02  0.304502D-03
     27 -0.347507D-02 -0.111915D-01 -0.289469D-02  0.268897D-03 -0.242276D-03
     28  0.981897D-04  0.714483D-03 -0.338936D-02 -0.897133D-02 -0.137329D-02
     29  0.364670D-02 -0.663312D-02 -0.488313D-02 -0.801972D-02 -0.119992D-03
     30  0.244034D-03  0.211003D-02 -0.727489D-03  0.138009D-02 -0.819611D-03
     31  0.389279D-03  0.139101D-02  0.850832D-02  0.158212D-02 -0.186112D-02
     32  0.591555D-03 -0.148420D-02 -0.395802D-02 -0.449735D-02 -0.964549D-04
     33 -0.218926D-03  0.237724D-02 -0.408591D-02 -0.241515D-02 -0.107127D-02
     34  0.112098D-05  0.642557D-03  0.422609D-02 -0.211942D-02 -0.945560D-03
     35 -0.882598D-04  0.736696D-03  0.567863D-02 -0.121852D-01 -0.332998D-01
     36 -0.682101D-03  0.532276D-03  0.441400D-03 -0.448425D-03 -0.167413D-02
               16            17            18            19            20 
     16  0.548807D-01
     17  0.268951D-01  0.440402D-01
     18 -0.103999D-01 -0.326664D-01  0.353553D-01
     19 -0.761642D-02  0.129212D-01 -0.647020D-02  0.777993D-01
     20  0.977732D-02 -0.102482D-01  0.605488D-02 -0.511568D-01  0.107682D+00
     21 -0.478401D-02  0.128726D-01 -0.284663D-02 -0.119136D+00  0.155873D+00
     22 -0.456509D-02 -0.136499D-02 -0.132336D-01  0.467957D-02  0.709890D-02
     23 -0.368923D-02  0.705596D-03  0.277364D-02  0.289190D-02 -0.189082D-02
     24 -0.933203D-02 -0.932200D-03 -0.158382D-01  0.857475D-03 -0.452094D-01
     25  0.326772D-03 -0.399697D-04 -0.317450D-05  0.704766D-03 -0.387153D-03
     26 -0.828662D-03 -0.218551D-03  0.875221D-03 -0.468426D-04  0.419715D-03
     27 -0.939658D-03 -0.165897D-02  0.937599D-03  0.124179D-02 -0.119006D-02
     28 -0.240744D-03 -0.820213D-04  0.127149D-02  0.106717D-02  0.868054D-03
     29 -0.192903D-02 -0.647982D-03  0.174521D-02  0.157802D-02  0.379818D-03
     30  0.425339D-03 -0.114696D-02 -0.162933D-02  0.565756D-03 -0.396075D-03
     31  0.304294D-03 -0.639195D-03  0.990526D-03 -0.367931D-02  0.191075D-02
     32 -0.553014D-03  0.682188D-05  0.478382D-03  0.188550D-02 -0.508739D-03
     33 -0.365572D-03 -0.261967D-03  0.418558D-03  0.227954D-02 -0.967149D-03
     34 -0.109776D-02  0.537746D-03 -0.146894D-02  0.107099D-02  0.631656D-03
     35  0.515669D-03  0.193923D-04 -0.111411D-03  0.870324D-03 -0.959352D-02
     36 -0.657063D-03  0.898569D-04 -0.860851D-03  0.280108D-04  0.175182D-02
               21            22            23            24            25 
     21  0.541566D+00
     22  0.285523D-02  0.877111D-01
     23 -0.969153D-02 -0.729742D-02  0.307933D+00
     24 -0.178667D-02 -0.108604D+00  0.125823D+00  0.483466D+00
     25  0.183700D-04  0.114642D-04 -0.561717D-04  0.750084D-04  0.977195D-01
     26 -0.300909D-03 -0.130946D-02  0.287826D-02  0.461215D-03 -0.198705D-01
     27 -0.140734D-02  0.147631D-02  0.452549D-03  0.540856D-03  0.827607D-01
     28  0.805074D-03 -0.229064D-01  0.131002D-01  0.532832D-02  0.144106D-01
     29 -0.140200D-02  0.192880D-02  0.104715D-01  0.102223D-02 -0.102723D-02
     30 -0.363448D-03  0.790043D-02 -0.288261D-02  0.839580D-03  0.656655D-02
     31  0.521647D-02 -0.898432D-03 -0.926946D-03  0.412913D-03 -0.401723D-01
     32 -0.204700D-02 -0.179108D-02  0.396409D-02  0.815362D-03  0.123207D-01
     33 -0.163101D-02 -0.420072D-03  0.193685D-02  0.371668D-03 -0.613647D-01
     34 -0.676224D-03 -0.304053D-01  0.311857D-01  0.106707D+00  0.107787D-03
     35  0.331539D-03  0.223445D-01 -0.737353D-01 -0.103924D+00  0.752284D-03
     36  0.290277D-02  0.102810D+00 -0.137664D+00 -0.412647D+00 -0.491625D-03
               26            27            28            29            30 
     26  0.989018D-01
     27 -0.903567D-01  0.381809D+00
     28  0.885974D-03  0.385169D-02  0.135867D+00
     29 -0.346761D-01  0.447317D-01  0.954726D-01  0.379804D+00
     30  0.618041D-01 -0.243443D-01 -0.234589D-01 -0.616482D-01  0.867842D-01
     31  0.104226D-01 -0.424719D-01 -0.464530D-01 -0.421213D-01  0.301001D-02
     32  0.109432D-01  0.727943D-02 -0.612174D-01 -0.138525D-01  0.246955D-02
     33  0.914282D-02 -0.173768D-01  0.461487D-02  0.252868D-02  0.127410D-01
     34  0.162915D-02 -0.885317D-03 -0.614542D-03  0.667284D-02  0.510263D-03
     35 -0.880771D-03  0.842415D-03  0.169542D-02 -0.346341D-02  0.283534D-03
     36  0.161276D-04 -0.197282D-02  0.324511D-02 -0.572308D-03 -0.101661D-02
               31            32            33            34            35 
     31  0.415364D+00
     32  0.108372D-01  0.771201D-01
     33  0.303798D-01 -0.380112D-02  0.789627D-01
     34  0.190378D-02  0.174071D-02  0.238503D-03  0.363070D-01
     35  0.149926D-03 -0.918639D-03 -0.264086D-04 -0.282737D-01  0.959739D-01
     36  0.364137D-03 -0.627856D-05 -0.464916D-03 -0.105377D+00  0.136395D+00
               36 
     36  0.411230D+00
 FormGI is forming the generalized inverse of G from B-inverse, IUseBI=4.
 Leave Link  716 at Fri May 23 07:32:35 2025, MaxMem=  3758096384 cpu:               0.0 elap:               0.0
 (Enter /apps/easybuild-2022/easybuild/software/Compiler/NVHPC/22.11-CUDA-11.7.0/Gaussian/g16c01-CUDA-11.7.0/g16/l103.exe)

 GradGradGradGradGradGradGradGradGradGradGradGradGradGradGradGradGradGrad
 Berny optimization.
 Red2BG is reusing G-inverse.
 Internal  Forces:  Max     0.070598030 RMS     0.017980569
 Search for a local minimum.
 Step number   1 out of a maximum of   58
 All quantities printed in internal units (Hartrees-Bohrs-Radians)
 RMS Force = .17981D-01 SwitMx=.10000D-02 MixMth= 1
 Mixed Optimization -- RFO/linear search
 Second derivative matrix not updated -- analytic derivatives used.
 ITU=  0
     Eigenvalues ---   -0.01518  -0.00445   0.00089   0.02356   0.03778
     Eigenvalues ---    0.05356   0.08199   0.08926   0.10089   0.10242
     Eigenvalues ---    0.10861   0.11844   0.12474   0.15478   0.19013
     Eigenvalues ---    0.21599   0.22583   0.23179   0.24316   0.27566
     Eigenvalues ---    0.31981   0.37369   0.38838   0.39815   0.48711
     Eigenvalues ---    0.48898   0.55610   0.62733   0.67249   0.88944
 Eigenvalue     1 is  -1.52D-02 should be greater than     0.000000 Eigenvector:
                          D12       D10       D11       D18       D17
   1                    0.51181   0.46771   0.44047  -0.26428  -0.23834
                          D14       D13       D16       A13       D15
   1                   -0.22278  -0.19684  -0.19220   0.17324  -0.16626
 Eigenvalue     2 is  -4.45D-03 should be greater than     0.000000 Eigenvector:
                          D20       D19       D8        D5        D7
   1                   -0.60117  -0.59807  -0.18253  -0.18053  -0.17647
                          D4        D9        D6        D2        D1
   1                   -0.17446  -0.16294  -0.16094  -0.15355  -0.14749
 RFO step:  Lambda=-2.51387188D-02 EMin=-1.51820013D-02
 Linear search not attempted -- first point.
 Iteration  1 RMS(Cart)=  0.15704753 RMS(Int)=  0.05759832
 Iteration  2 RMS(Cart)=  0.08670311 RMS(Int)=  0.00773601
 Iteration  3 RMS(Cart)=  0.00735807 RMS(Int)=  0.00087234
 Iteration  4 RMS(Cart)=  0.00005656 RMS(Int)=  0.00087202
 Iteration  5 RMS(Cart)=  0.00000001 RMS(Int)=  0.00087202
 ITry= 1 IFail=0 DXMaxC= 7.95D-01 DCOld= 1.00D+10 DXMaxT= 3.00D-01 DXLimC= 3.00D+00 Rises=F
 Variable       Old X    -DE/DX   Delta X   Delta X   Delta X     New X
                                 (Linear)    (Quad)   (Total)
    R1        2.91786   0.00890   0.00000  -0.00727  -0.00727   2.91058
    R2        2.50895   0.00701   0.00000   0.03203   0.03203   2.54098
    R3        2.50589  -0.00081   0.00000  -0.02511  -0.02511   2.48078
    R4        2.50867  -0.00225   0.00000  -0.00060  -0.00060   2.50807
    R5        2.47359   0.00860   0.00000   0.03118   0.03118   2.50477
    R6        2.72585  -0.00110   0.00000  -0.08634  -0.08634   2.63950
    R7        3.68574   0.02628   0.00000  -0.02256  -0.02256   3.66318
    R8        3.08193   0.01137   0.00000   0.08422   0.08422   3.16614
    R9        2.74929  -0.00770   0.00000  -0.00790  -0.00790   2.74139
   R10        3.08832   0.00505   0.00000   0.01683   0.01683   3.10516
   R11        1.84571  -0.01080   0.00000  -0.01451  -0.01451   1.83120
    A1        1.89379  -0.00320   0.00000  -0.02287  -0.02287   1.87091
    A2        1.91937   0.02234   0.00000   0.02296   0.02290   1.94227
    A3        1.93388  -0.00150   0.00000   0.00106   0.00086   1.93474
    A4        1.90584  -0.00681   0.00000  -0.00421  -0.00406   1.90178
    A5        1.90411  -0.00047   0.00000  -0.00684  -0.00700   1.89711
    A6        1.90656  -0.01055   0.00000   0.00940   0.00916   1.91572
    A7        1.93899  -0.00402   0.00000   0.00533   0.00475   1.94374
    A8        1.84980  -0.02313   0.00000   0.04306   0.04173   1.89153
    A9        2.01154   0.02077   0.00000   0.01530   0.01377   2.02531
   A10        1.82949  -0.00014   0.00000  -0.00462  -0.00448   1.82500
   A11        1.92137  -0.02041   0.00000  -0.08227  -0.08209   1.83929
   A12        1.90197   0.02618   0.00000   0.02797   0.02663   1.92860
   A13        1.97331   0.05226   0.00000  -0.09072  -0.09072   1.88259
   A14        1.77834   0.01549   0.00000   0.02909   0.02664   1.80497
   A15        1.62818   0.07060   0.00000   0.09526   0.09380   1.72198
   A16        1.85044   0.00100   0.00000   0.04163   0.03846   1.88890
   A17        1.86706   0.01364   0.00000   0.02465   0.02465   1.89171
    D1        1.10799  -0.00014   0.00000   0.03128   0.03118   1.13917
    D2        3.08566  -0.01480   0.00000   0.05181   0.05173   3.13739
    D3       -1.09259   0.01440   0.00000   0.12741   0.12784  -0.96475
    D4       -3.09165   0.00280   0.00000   0.02582   0.02553  -3.06612
    D5       -1.11399  -0.01187   0.00000   0.04635   0.04609  -1.06790
    D6        0.99095   0.01733   0.00000   0.12195   0.12219   1.11314
    D7       -0.98207   0.00336   0.00000   0.05343   0.05326  -0.92881
    D8        0.99559  -0.01131   0.00000   0.07396   0.07382   1.06941
    D9        3.10053   0.01789   0.00000   0.14955   0.14992  -3.03273
   D10        1.68689   0.00477   0.00000  -0.36218  -0.36157   1.32532
   D11       -2.54400  -0.01022   0.00000  -0.33897  -0.33898  -2.88298
   D12       -0.48770  -0.02142   0.00000  -0.42352  -0.42411  -0.91181
   D13       -2.66319  -0.01581   0.00000   0.05819   0.05755  -2.60564
   D14       -0.79332   0.00396   0.00000   0.12737   0.12846  -0.66486
   D15        1.41042  -0.00951   0.00000   0.10925   0.10792   1.51834
   D16       -3.00290   0.01026   0.00000   0.17843   0.17883  -2.82407
   D17       -0.58697  -0.01285   0.00000   0.14391   0.14328  -0.44369
   D18        1.28290   0.00693   0.00000   0.21309   0.21419   1.49709
   D19        1.30065  -0.01324   0.00000   0.31191   0.31027   1.61091
   D20        3.10479   0.02492   0.00000   0.37712   0.37877  -2.79963
         Item               Value     Threshold  Converged?
 Maximum Force            0.070598     0.000015     NO 
 RMS     Force            0.017981     0.000010     NO 
 Maximum Displacement     0.794812     0.000060     NO 
 RMS     Displacement     0.216261     0.000040     NO 
 Predicted change in Energy=-2.089303D-02
 Lowest energy point so far.  Saving SCF results.
 GradGradGradGradGradGradGradGradGradGradGradGradGradGradGradGradGradGrad

 Leave Link  103 at Fri May 23 07:32:35 2025, MaxMem=  3758096384 cpu:               0.0 elap:               0.0
 (Enter /apps/easybuild-2022/easybuild/software/Compiler/NVHPC/22.11-CUDA-11.7.0/Gaussian/g16c01-CUDA-11.7.0/g16/l202.exe)
                          Input orientation:                          
 ---------------------------------------------------------------------
 Center     Atomic      Atomic             Coordinates (Angstroms)
 Number     Number       Type             X           Y           Z
 ---------------------------------------------------------------------
      1          6           0       -0.715359    1.016561    0.880237
      2          6           0       -0.026509   -0.001507   -0.047814
      3          9           0       -0.394918   -1.242195    0.238253
      4          9           0       -0.484776    0.209517   -1.350279
      5         16           0        1.911406   -0.017532   -0.004218
      6          8           0        0.274770    1.578554   -1.946904
      7          8           0        2.275108   -0.416783   -1.350619
      8          8           0        2.169087    1.598912    0.139798
      9          9           0       -0.262231    0.789265    2.125644
     10          9           0       -0.420974    2.249127    0.537469
     11          9           0       -2.032050    0.850110    0.869579
     12          1           0        2.232200    1.815609    1.082177
 ---------------------------------------------------------------------
                    Distance matrix (angstroms):
                    1          2          3          4          5
     1  C    0.000000
     2  C    1.540214   0.000000
     3  F    2.369980   1.325468   0.000000
     4  F    2.383210   1.396766   2.153828   0.000000
     5  S    2.958294   1.938471   2.622541   2.757738   0.000000
     6  O    3.047773   2.488756   3.630430   1.675451   3.000016
     7  O    3.996759   2.677161   3.214787   2.830054   1.450681
     8  O    3.034372   2.723451   3.828277   3.345705   1.643178
     9  F    1.344629   2.324824   2.776091   3.530960   3.148322
    10  F    1.312773   2.358711   3.504218   2.779870   3.297145
    11  F    1.327213   2.364119   2.730662   2.780681   4.131243
    12  H    3.060615   3.111359   4.118752   3.984763   2.154894
                    6          7          8          9         10
     6  O    0.000000
     7  O    2.887607   0.000000
     8  O    2.818364   2.509105   0.000000
     9  F    4.182941   4.469569   3.241978   0.000000
    10  F    2.665678   4.235659   2.699878   2.163030   0.000000
    11  F    3.712765   5.008583   4.329300   2.171097   2.159424
    12  H    3.614285   3.302107   0.969030   2.892126   2.742987
                   11         12
    11  F    0.000000
    12  H    4.377353   0.000000
 Symmetry turned off by external request.
 Stoichiometry    C2HF5O3S
 Rotational constants (GHZ):           1.3881502           0.8430869           0.8221329
 Leave Link  202 at Fri May 23 07:32:35 2025, MaxMem=  3758096384 cpu:               0.0 elap:               0.0
 (Enter /apps/easybuild-2022/easybuild/software/Compiler/NVHPC/22.11-CUDA-11.7.0/Gaussian/g16c01-CUDA-11.7.0/g16/l301.exe)
 Standard basis: 6-311++G(d,p) (5D, 7F)
 Ernie: Thresh=  0.10000D-02 Tol=  0.10000D-05 Strict=F.
   257 basis functions,   419 primitive gaussians,   268 cartesian basis functions
    49 alpha electrons       49 beta electrons
       nuclear repulsion energy       903.7493620690 Hartrees.
 IExCor= 4639 DFT=T Ex+Corr=wB97XD ExCW=0 ScaHFX=  1.000000
 ScaDFX=  1.000000  1.000000  1.000000  1.000000 ScalE2=  1.000000  1.000000
 IRadAn=      5 IRanWt=     -1 IRanGd=            0 ICorTp=0 IEmpDi=121
 HFx  wShort=  0.000000 wLong=  0.200000 cFull=  0.222036 cShort=  0.000000 cLong=  0.777964
 DFx  wShort=  0.000000 wLong=  0.200000 cFull=  0.000000 cShort=  0.000000 cLong=  1.000000
 NAtoms=   12 NActive=   12 NUniq=   12 SFac= 1.00D+00 NAtFMM=   60 NAOKFM=F Big=F
 Integral buffers will be    131072 words long.
 Raffenetti 2 integral format.
 Two-electron integral symmetry is turned off.
 R6Disp:  Grimme-D2 Dispersion energy=       -0.0059343027 Hartrees.
 Nuclear repulsion after empirical dispersion term =      903.7434277663 Hartrees.
 Leave Link  301 at Fri May 23 07:32:35 2025, MaxMem=  3758096384 cpu:               0.0 elap:               0.0
 (Enter /apps/easybuild-2022/easybuild/software/Compiler/NVHPC/22.11-CUDA-11.7.0/Gaussian/g16c01-CUDA-11.7.0/g16/l302.exe)
 NPDir=0 NMtPBC=     1 NCelOv=     1 NCel=       1 NClECP=     1 NCelD=      1
         NCelK=      1 NCelE2=     1 NClLst=     1 CellRange=     0.0.
 One-electron integrals computed using PRISM.
 NBasis=   257 RedAO= T EigKep=  4.01D-05  NBF=   257
 NBsUse=   257 1.00D-06 EigRej= -1.00D+00 NBFU=   257
 Precomputing XC quadrature grid using
 IXCGrd= 4 IRadAn=           5 IRanWt=          -1 IRanGd=           0 AccXCQ= 0.00D+00.
 Generated NRdTot=       0 NPtTot=           0 NUsed=           0 NTot=          32
 NSgBfM=   268   268   268   268   268 MxSgAt=    12 MxSgA2=    12.
 Leave Link  302 at Fri May 23 07:32:35 2025, MaxMem=  3758096384 cpu:               0.4 elap:               0.1
 (Enter /apps/easybuild-2022/easybuild/software/Compiler/NVHPC/22.11-CUDA-11.7.0/Gaussian/g16c01-CUDA-11.7.0/g16/l303.exe)
 DipDrv:  MaxL=1.
 Leave Link  303 at Fri May 23 07:32:35 2025, MaxMem=  3758096384 cpu:               0.0 elap:               0.0
 (Enter /apps/easybuild-2022/easybuild/software/Compiler/NVHPC/22.11-CUDA-11.7.0/Gaussian/g16c01-CUDA-11.7.0/g16/l401.exe)
 Initial guess from the checkpoint file:  "/tmp/Gau-86186.chk"
 B after Tr=    -0.035687   -0.009307   -0.000983
         Rot=    0.999859    0.011175   -0.000143   -0.012509 Ang=   1.92 deg.
 Guess basis will be translated and rotated to current coordinates.
 JPrj=2 DoOrth=T DoCkMO=T.
 Generating alternative initial guess.
 ExpMin= 3.60D-02 ExpMax= 9.34D+04 ExpMxC= 3.17D+03 IAcc=3 IRadAn=         5 AccDes= 0.00D+00
 Harris functional with IExCor= 4639 and IRadAn=       5 diagonalized for initial guess.
 HarFok:  IExCor= 4639 AccDes= 0.00D+00 IRadAn=         5 IDoV= 1 UseB2=F ITyADJ=14
 ICtDFT=  3500011 ScaDFX=  1.000000  1.000000  1.000000  1.000000
 FoFCou: FMM=F IPFlag=           0 FMFlag=      100000 FMFlg1=           0
         NFxFlg=           0 DoJE=T BraDBF=F KetDBF=T FulRan=T
         wScrn=  0.000000 ICntrl=       500 IOpCl=  0 I1Cent=   200000004 NGrid=           0
         NMat0=    1 NMatS0=      1 NMatT0=    0 NMatD0=    1 NMtDS0=    0 NMtDT0=    0
 Symmetry not used in FoFCou.
 Harris En= -1166.99253739916    
 Leave Link  401 at Fri May 23 07:32:35 2025, MaxMem=  3758096384 cpu:               2.2 elap:               0.3
 (Enter /apps/easybuild-2022/easybuild/software/Compiler/NVHPC/22.11-CUDA-11.7.0/Gaussian/g16c01-CUDA-11.7.0/g16/l502.exe)
 Keep R1 ints in memory in canonical form, NReq=1117474609.
 FoFCou: FMM=F IPFlag=           0 FMFlag=           0 FMFlg1=           0
         NFxFlg=           0 DoJE=F BraDBF=F KetDBF=F FulRan=T
         wScrn=  0.000000 ICntrl=       600 IOpCl=  0 I1Cent=           0 NGrid=           0
         NMat0=    1 NMatS0=  33153 NMatT0=    0 NMatD0=    1 NMtDS0=    0 NMtDT0=    0
 Symmetry not used in FoFCou.
 Two-electron integral symmetry not used.
 Closed shell SCF:
 Using DIIS extrapolation, IDIIS=  1040.
 NGot=  3758096384 LenX=  2658793876 LenY=  2658721611
 Requested convergence on RMS density matrix=1.00D-08 within  32 cycles.
 Requested convergence on MAX density matrix=1.00D-06.
 Requested convergence on             energy=1.00D-06.
 No special actions if energy rises.

 Cycle   1  Pass 1  IDiag  1:
 E= -1199.50224506879    
 DIIS: error= 7.01D-03 at cycle   1 NSaved=   1.
 NSaved= 1 IEnMin= 1 EnMin= -1199.50224506879     IErMin= 1 ErrMin= 7.01D-03
 ErrMax= 7.01D-03  0.00D+00 EMaxC= 1.00D-01 BMatC= 4.93D-02 BMatP= 4.93D-02
 IDIUse=3 WtCom= 9.30D-01 WtEn= 7.01D-02
 Coeff-Com:  0.100D+01
 Coeff-En:   0.100D+01
 Coeff:      0.100D+01
 Gap=     0.709 Goal=   None    Shift=    0.000
 GapD=    0.709 DampG=2.000 DampE=1.000 DampFc=2.0000 IDamp=-1.
 RMSDP=3.34D-03 MaxDP=2.02D-01              OVMax= 6.44D-02

 Cycle   2  Pass 1  IDiag  1:
 E= -1199.57674321318     Delta-E=       -0.074498144392 Rises=F Damp=F
 DIIS: error= 2.10D-03 at cycle   2 NSaved=   2.
 NSaved= 2 IEnMin= 2 EnMin= -1199.57674321318     IErMin= 2 ErrMin= 2.10D-03
 ErrMax= 2.10D-03  0.00D+00 EMaxC= 1.00D-01 BMatC= 3.51D-03 BMatP= 4.93D-02
 IDIUse=3 WtCom= 9.79D-01 WtEn= 2.10D-02
 Coeff-Com: -0.702D-01 0.107D+01
 Coeff-En:   0.000D+00 0.100D+01
 Coeff:     -0.688D-01 0.107D+01
 Gap=     0.291 Goal=   None    Shift=    0.000
 RMSDP=8.80D-04 MaxDP=4.70D-02 DE=-7.45D-02 OVMax= 3.61D-02

 Cycle   3  Pass 1  IDiag  1:
 E= -1199.58197043641     Delta-E=       -0.005227223227 Rises=F Damp=F
 DIIS: error= 2.55D-03 at cycle   3 NSaved=   3.
 NSaved= 3 IEnMin= 3 EnMin= -1199.58197043641     IErMin= 2 ErrMin= 2.10D-03
 ErrMax= 2.55D-03  0.00D+00 EMaxC= 1.00D-01 BMatC= 4.02D-03 BMatP= 3.51D-03
 IDIUse=3 WtCom= 1.65D-01 WtEn= 8.35D-01
 Coeff-Com: -0.963D-01 0.601D+00 0.495D+00
 Coeff-En:   0.000D+00 0.000D+00 0.100D+01
 Coeff:     -0.159D-01 0.994D-01 0.917D+00
 Gap=     0.304 Goal=   None    Shift=    0.000
 RMSDP=5.91D-04 MaxDP=3.35D-02 DE=-5.23D-03 OVMax= 2.79D-02

 Cycle   4  Pass 1  IDiag  1:
 E= -1199.58191866446     Delta-E=        0.000051771945 Rises=F Damp=F
 DIIS: error= 3.56D-03 at cycle   4 NSaved=   4.
 NSaved= 4 IEnMin= 3 EnMin= -1199.58197043641     IErMin= 2 ErrMin= 2.10D-03
 ErrMax= 3.56D-03  0.00D+00 EMaxC= 1.00D-01 BMatC= 6.26D-03 BMatP= 3.51D-03
 IDIUse=3 WtCom= 1.44D-01 WtEn= 8.56D-01
 Coeff-Com: -0.701D-02-0.883D-01 0.589D+00 0.507D+00
 Coeff-En:   0.000D+00 0.000D+00 0.504D+00 0.496D+00
 Coeff:     -0.101D-02-0.127D-01 0.516D+00 0.498D+00
 Gap=     0.297 Goal=   None    Shift=    0.000
 RMSDP=3.39D-04 MaxDP=1.16D-02 DE= 5.18D-05 OVMax= 1.97D-02

 Cycle   5  Pass 1  IDiag  1:
 E= -1199.58636491366     Delta-E=       -0.004446249194 Rises=F Damp=F
 DIIS: error= 6.92D-04 at cycle   5 NSaved=   5.
 NSaved= 5 IEnMin= 5 EnMin= -1199.58636491366     IErMin= 5 ErrMin= 6.92D-04
 ErrMax= 6.92D-04  0.00D+00 EMaxC= 1.00D-01 BMatC= 2.46D-04 BMatP= 3.51D-03
 IDIUse=3 WtCom= 9.93D-01 WtEn= 6.92D-03
 Coeff-Com:  0.159D-01-0.174D+00 0.153D+00 0.308D+00 0.697D+00
 Coeff-En:   0.000D+00 0.000D+00 0.000D+00 0.000D+00 0.100D+01
 Coeff:      0.158D-01-0.172D+00 0.152D+00 0.306D+00 0.699D+00
 Gap=     0.298 Goal=   None    Shift=    0.000
 RMSDP=1.33D-04 MaxDP=5.13D-03 DE=-4.45D-03 OVMax= 1.62D-02

 Cycle   6  Pass 1  IDiag  1:
 E= -1199.58718382383     Delta-E=       -0.000818910168 Rises=F Damp=F
 DIIS: error= 4.77D-04 at cycle   6 NSaved=   6.
 NSaved= 6 IEnMin= 6 EnMin= -1199.58718382383     IErMin= 6 ErrMin= 4.77D-04
 ErrMax= 4.77D-04  0.00D+00 EMaxC= 1.00D-01 BMatC= 4.71D-05 BMatP= 2.46D-04
 IDIUse=3 WtCom= 9.95D-01 WtEn= 4.77D-03
 Coeff-Com:  0.459D-02 0.338D-01-0.309D+00-0.248D+00 0.871D-01 0.143D+01
 Coeff-En:   0.000D+00 0.000D+00 0.000D+00 0.000D+00 0.000D+00 0.100D+01
 Coeff:      0.457D-02 0.336D-01-0.307D+00-0.247D+00 0.866D-01 0.143D+01
 Gap=     0.298 Goal=   None    Shift=    0.000
 RMSDP=1.69D-04 MaxDP=7.65D-03 DE=-8.19D-04 OVMax= 2.43D-02

 Cycle   7  Pass 1  IDiag  1:
 E= -1199.58789946172     Delta-E=       -0.000715637899 Rises=F Damp=F
 DIIS: error= 3.38D-04 at cycle   7 NSaved=   7.
 NSaved= 7 IEnMin= 7 EnMin= -1199.58789946172     IErMin= 7 ErrMin= 3.38D-04
 ErrMax= 3.38D-04  0.00D+00 EMaxC= 1.00D-01 BMatC= 1.86D-05 BMatP= 4.71D-05
 IDIUse=3 WtCom= 9.97D-01 WtEn= 3.38D-03
 Coeff-Com: -0.462D-02 0.896D-01-0.171D+00-0.222D+00-0.316D+00 0.461D+00
 Coeff-Com:  0.116D+01
 Coeff-En:   0.000D+00 0.000D+00 0.000D+00 0.000D+00 0.000D+00 0.000D+00
 Coeff-En:   0.100D+01
 Coeff:     -0.460D-02 0.893D-01-0.170D+00-0.221D+00-0.315D+00 0.460D+00
 Coeff:      0.116D+01
 Gap=     0.299 Goal=   None    Shift=    0.000
 RMSDP=1.44D-04 MaxDP=7.28D-03 DE=-7.16D-04 OVMax= 1.89D-02

 Cycle   8  Pass 1  IDiag  1:
 E= -1199.58819723259     Delta-E=       -0.000297770861 Rises=F Damp=F
 DIIS: error= 1.42D-04 at cycle   8 NSaved=   8.
 NSaved= 8 IEnMin= 8 EnMin= -1199.58819723259     IErMin= 8 ErrMin= 1.42D-04
 ErrMax= 1.42D-04  0.00D+00 EMaxC= 1.00D-01 BMatC= 6.96D-06 BMatP= 1.86D-05
 IDIUse=3 WtCom= 9.99D-01 WtEn= 1.42D-03
 Coeff-Com: -0.424D-02 0.327D-01 0.419D-01-0.858D-02-0.200D+00-0.361D+00
 Coeff-Com:  0.621D+00 0.877D+00
 Coeff-En:   0.000D+00 0.000D+00 0.000D+00 0.000D+00 0.000D+00 0.000D+00
 Coeff-En:   0.000D+00 0.100D+01
 Coeff:     -0.424D-02 0.327D-01 0.419D-01-0.857D-02-0.199D+00-0.360D+00
 Coeff:      0.620D+00 0.877D+00
 Gap=     0.299 Goal=   None    Shift=    0.000
 RMSDP=7.53D-05 MaxDP=3.00D-03 DE=-2.98D-04 OVMax= 9.88D-03

 Cycle   9  Pass 1  IDiag  1:
 E= -1199.58825833621     Delta-E=       -0.000061103623 Rises=F Damp=F
 DIIS: error= 4.62D-05 at cycle   9 NSaved=   9.
 NSaved= 9 IEnMin= 9 EnMin= -1199.58825833621     IErMin= 9 ErrMin= 4.62D-05
 ErrMax= 4.62D-05  0.00D+00 EMaxC= 1.00D-01 BMatC= 9.82D-07 BMatP= 6.96D-06
 IDIUse=1 WtCom= 1.00D+00 WtEn= 0.00D+00
 Coeff-Com: -0.735D-03-0.393D-02 0.421D-01 0.346D-01-0.982D-02-0.210D+00
 Coeff-Com:  0.865D-03 0.328D+00 0.819D+00
 Coeff:     -0.735D-03-0.393D-02 0.421D-01 0.346D-01-0.982D-02-0.210D+00
 Coeff:      0.865D-03 0.328D+00 0.819D+00
 Gap=     0.299 Goal=   None    Shift=    0.000
 RMSDP=2.08D-05 MaxDP=7.91D-04 DE=-6.11D-05 OVMax= 2.93D-03

 Cycle  10  Pass 1  IDiag  1:
 E= -1199.58826330942     Delta-E=       -0.000004973216 Rises=F Damp=F
 DIIS: error= 1.40D-05 at cycle  10 NSaved=  10.
 NSaved=10 IEnMin=10 EnMin= -1199.58826330942     IErMin=10 ErrMin= 1.40D-05
 ErrMax= 1.40D-05  0.00D+00 EMaxC= 1.00D-01 BMatC= 1.69D-07 BMatP= 9.82D-07
 IDIUse=1 WtCom= 1.00D+00 WtEn= 0.00D+00
 Coeff-Com:  0.748D-03-0.102D-01 0.108D-01 0.192D-01 0.422D-01-0.176D-01
 Coeff-Com: -0.145D+00-0.272D-01 0.303D+00 0.824D+00
 Coeff:      0.748D-03-0.102D-01 0.108D-01 0.192D-01 0.422D-01-0.176D-01
 Coeff:     -0.145D+00-0.272D-01 0.303D+00 0.824D+00
 Gap=     0.299 Goal=   None    Shift=    0.000
 RMSDP=7.59D-06 MaxDP=2.20D-04 DE=-4.97D-06 OVMax= 1.08D-03

 Cycle  11  Pass 1  IDiag  1:
 E= -1199.58826389921     Delta-E=       -0.000000589781 Rises=F Damp=F
 DIIS: error= 8.70D-06 at cycle  11 NSaved=  11.
 NSaved=11 IEnMin=11 EnMin= -1199.58826389921     IErMin=11 ErrMin= 8.70D-06
 ErrMax= 8.70D-06  0.00D+00 EMaxC= 1.00D-01 BMatC= 3.08D-08 BMatP= 1.69D-07
 IDIUse=1 WtCom= 1.00D+00 WtEn= 0.00D+00
 Coeff-Com:  0.272D-03-0.261D-02-0.501D-03 0.234D-02 0.123D-01 0.149D-01
 Coeff-Com: -0.464D-01-0.310D-01 0.139D-03 0.329D+00 0.722D+00
 Coeff:      0.272D-03-0.261D-02-0.501D-03 0.234D-02 0.123D-01 0.149D-01
 Coeff:     -0.464D-01-0.310D-01 0.139D-03 0.329D+00 0.722D+00
 Gap=     0.299 Goal=   None    Shift=    0.000
 RMSDP=2.29D-06 MaxDP=1.49D-04 DE=-5.90D-07 OVMax= 2.58D-04

 Cycle  12  Pass 1  IDiag  1:
 E= -1199.58826396463     Delta-E=       -0.000000065420 Rises=F Damp=F
 DIIS: error= 4.19D-06 at cycle  12 NSaved=  12.
 NSaved=12 IEnMin=12 EnMin= -1199.58826396463     IErMin=12 ErrMin= 4.19D-06
 ErrMax= 4.19D-06  0.00D+00 EMaxC= 1.00D-01 BMatC= 4.66D-09 BMatP= 3.08D-08
 IDIUse=1 WtCom= 1.00D+00 WtEn= 0.00D+00
 Coeff-Com: -0.362D-04 0.861D-03-0.173D-02-0.226D-02-0.345D-02 0.682D-02
 Coeff-Com:  0.997D-02-0.285D-02-0.567D-01-0.379D-01 0.234D+00 0.853D+00
 Coeff:     -0.362D-04 0.861D-03-0.173D-02-0.226D-02-0.345D-02 0.682D-02
 Coeff:      0.997D-02-0.285D-02-0.567D-01-0.379D-01 0.234D+00 0.853D+00
 Gap=     0.299 Goal=   None    Shift=    0.000
 RMSDP=1.05D-06 MaxDP=3.12D-05 DE=-6.54D-08 OVMax= 1.42D-04

 Cycle  13  Pass 1  IDiag  1:
 E= -1199.58826398639     Delta-E=       -0.000000021762 Rises=F Damp=F
 DIIS: error= 2.50D-06 at cycle  13 NSaved=  13.
 NSaved=13 IEnMin=13 EnMin= -1199.58826398639     IErMin=13 ErrMin= 2.50D-06
 ErrMax= 2.50D-06  0.00D+00 EMaxC= 1.00D-01 BMatC= 1.33D-09 BMatP= 4.66D-09
 IDIUse=1 WtCom= 1.00D+00 WtEn= 0.00D+00
 Coeff-Com: -0.660D-04 0.865D-03-0.756D-03-0.142D-02-0.342D-02 0.290D-03
 Coeff-Com:  0.133D-01 0.284D-02-0.237D-01-0.887D-01-0.600D-01 0.285D+00
 Coeff-Com:  0.876D+00
 Coeff:     -0.660D-04 0.865D-03-0.756D-03-0.142D-02-0.342D-02 0.290D-03
 Coeff:      0.133D-01 0.284D-02-0.237D-01-0.887D-01-0.600D-01 0.285D+00
 Coeff:      0.876D+00
 Gap=     0.299 Goal=   None    Shift=    0.000
 RMSDP=7.18D-07 MaxDP=3.79D-05 DE=-2.18D-08 OVMax= 8.40D-05

 Cycle  14  Pass 1  IDiag  1:
 E= -1199.58826399484     Delta-E=       -0.000000008452 Rises=F Damp=F
 DIIS: error= 1.79D-06 at cycle  14 NSaved=  14.
 NSaved=14 IEnMin=14 EnMin= -1199.58826399484     IErMin=14 ErrMin= 1.79D-06
 ErrMax= 1.79D-06  0.00D+00 EMaxC= 1.00D-01 BMatC= 3.33D-10 BMatP= 1.33D-09
 IDIUse=1 WtCom= 1.00D+00 WtEn= 0.00D+00
 Coeff-Com:  0.633D-05-0.137D-03 0.207D-03 0.342D-03 0.759D-03-0.889D-03
 Coeff-Com: -0.194D-02-0.203D-03 0.106D-01 0.147D-02-0.423D-01-0.160D+00
 Coeff-Com:  0.525D-01 0.114D+01
 Coeff:      0.633D-05-0.137D-03 0.207D-03 0.342D-03 0.759D-03-0.889D-03
 Coeff:     -0.194D-02-0.203D-03 0.106D-01 0.147D-02-0.423D-01-0.160D+00
 Coeff:      0.525D-01 0.114D+01
 Gap=     0.299 Goal=   None    Shift=    0.000
 RMSDP=3.87D-07 MaxDP=2.18D-05 DE=-8.45D-09 OVMax= 5.17D-05

 Cycle  15  Pass 1  IDiag  1:
 E= -1199.58826399846     Delta-E=       -0.000000003616 Rises=F Damp=F
 DIIS: error= 1.07D-06 at cycle  15 NSaved=  15.
 NSaved=15 IEnMin=15 EnMin= -1199.58826399846     IErMin=15 ErrMin= 1.07D-06
 ErrMax= 1.07D-06  0.00D+00 EMaxC= 1.00D-01 BMatC= 1.54D-10 BMatP= 3.33D-10
 IDIUse=1 WtCom= 1.00D+00 WtEn= 0.00D+00
 Coeff-Com:  0.146D-04-0.184D-03 0.132D-03 0.261D-03 0.754D-03 0.832D-04
 Coeff-Com: -0.341D-02 0.177D-03 0.506D-02 0.254D-01 0.125D-01-0.843D-01
 Coeff-Com: -0.297D+00 0.143D+00 0.120D+01
 Coeff:      0.146D-04-0.184D-03 0.132D-03 0.261D-03 0.754D-03 0.832D-04
 Coeff:     -0.341D-02 0.177D-03 0.506D-02 0.254D-01 0.125D-01-0.843D-01
 Coeff:     -0.297D+00 0.143D+00 0.120D+01
 Gap=     0.299 Goal=   None    Shift=    0.000
 RMSDP=3.30D-07 MaxDP=2.77D-05 DE=-3.62D-09 OVMax= 4.37D-05

 Cycle  16  Pass 1  IDiag  1:
 E= -1199.58826400026     Delta-E=       -0.000000001803 Rises=F Damp=F
[...]
   D11       -3.05812   0.00000   0.00000   0.00006   0.00006  -3.05806
   D12       -1.12579   0.00000   0.00000   0.00006   0.00006  -1.12573
   D13       -2.70739  -0.00000   0.00000   0.00000   0.00000  -2.70738
   D14       -0.73050  -0.00000   0.00000   0.00000   0.00000  -0.73049
   D15        1.49278   0.00000   0.00000  -0.00000  -0.00000   1.49278
   D16       -2.81352   0.00000   0.00000   0.00000   0.00000  -2.81351
   D17       -0.44842  -0.00000   0.00000  -0.00001  -0.00001  -0.44842
   D18        1.52847   0.00000   0.00000  -0.00000  -0.00000   1.52847
   D19        2.65404  -0.00000   0.00000  -0.00001  -0.00001   2.65403
   D20       -1.75957   0.00000   0.00000  -0.00001  -0.00001  -1.75958
         Item               Value     Threshold  Converged?
 Maximum Force            0.000001     0.000015     YES
 RMS     Force            0.000000     0.000010     YES
 Maximum Displacement     0.000105     0.000060     NO 
 RMS     Displacement     0.000024     0.000040     YES
 Predicted change in Energy=-2.078201D-11
                           ----------------------------
                           ! Non-Optimized Parameters !
                           ! (Angstroms and Degrees)  !
 --------------------------                            --------------------------
 ! Name  Definition              Value          Derivative Info.                !
 --------------------------------------------------------------------------------
 ! R1    R(1,2)                  1.5544         -DE/DX =    0.0                 !
 ! R2    R(1,9)                  1.3408         -DE/DX =    0.0                 !
 ! R3    R(1,10)                 1.3102         -DE/DX =    0.0                 !
 ! R4    R(1,11)                 1.33           -DE/DX =    0.0                 !
 ! R5    R(2,3)                  1.3326         -DE/DX =    0.0                 !
 ! R6    R(2,4)                  1.3875         -DE/DX =    0.0                 !
 ! R7    R(2,5)                  1.9144         -DE/DX =    0.0                 !
 ! R8    R(4,6)                  1.7016         -DE/DX =    0.0                 !
 ! R9    R(5,7)                  1.4553         -DE/DX =    0.0                 !
 ! R10   R(5,8)                  1.6468         -DE/DX =    0.0                 !
 ! R11   R(8,12)                 0.9638         -DE/DX =    0.0                 !
 ! A1    A(2,1,9)              106.4773         -DE/DX =    0.0                 !
 ! A2    A(2,1,10)             114.2527         -DE/DX =    0.0                 !
 ! A3    A(2,1,11)             109.0426         -DE/DX =    0.0                 !
 ! A4    A(9,1,10)             109.1864         -DE/DX =    0.0                 !
 ! A5    A(9,1,11)             108.5283         -DE/DX =    0.0                 !
 ! A6    A(10,1,11)            109.1947         -DE/DX =    0.0                 !
 ! A7    A(1,2,3)              108.0011         -DE/DX =    0.0                 !
 ! A8    A(1,2,4)              110.8616         -DE/DX =    0.0                 !
 ! A9    A(1,2,5)              118.2786         -DE/DX =    0.0                 !
 ! A10   A(3,2,4)              104.2939         -DE/DX =    0.0                 !
 ! A11   A(3,2,5)              103.5068         -DE/DX =    0.0                 !
 ! A12   A(4,2,5)              110.6678         -DE/DX =    0.0                 !
 ! A13   A(2,4,6)              114.7129         -DE/DX =    0.0                 !
 ! A14   A(2,5,7)              104.5722         -DE/DX =    0.0                 !
 ! A15   A(2,5,8)               93.4025         -DE/DX =    0.0                 !
 ! A16   A(7,5,8)              111.513          -DE/DX =    0.0                 !
 ! A17   A(5,8,12)             108.4569         -DE/DX =    0.0                 !
 ! D1    D(9,1,2,3)             66.6039         -DE/DX =    0.0                 !
 ! D2    D(9,1,2,4)           -179.7148         -DE/DX =    0.0                 !
 ! D3    D(9,1,2,5)            -50.3754         -DE/DX =    0.0                 !
 ! D4    D(10,1,2,3)          -172.7889         -DE/DX =    0.0                 !
 ! D5    D(10,1,2,4)           -59.1076         -DE/DX =    0.0                 !
 ! D6    D(10,1,2,5)            70.2318         -DE/DX =    0.0                 !
 ! D7    D(11,1,2,3)           -50.3104         -DE/DX =    0.0                 !
 ! D8    D(11,1,2,4)            63.3709         -DE/DX =    0.0                 !
 ! D9    D(11,1,2,5)          -167.2897         -DE/DX =    0.0                 !
 ! D10   D(1,2,4,6)             68.7856         -DE/DX =    0.0                 !
 ! D11   D(3,2,4,6)           -175.214          -DE/DX =    0.0                 !
 ! D12   D(5,2,4,6)            -64.4994         -DE/DX =    0.0                 !
 ! D13   D(1,2,5,7)           -155.1217         -DE/DX =    0.0                 !
 ! D14   D(1,2,5,8)            -41.8541         -DE/DX =    0.0                 !
 ! D15   D(3,2,5,7)             85.53           -DE/DX =    0.0                 !
 ! D16   D(3,2,5,8)           -161.2024         -DE/DX =    0.0                 !
 ! D17   D(4,2,5,7)            -25.6928         -DE/DX =    0.0                 !
 ! D18   D(4,2,5,8)             87.5748         -DE/DX =    0.0                 !
 ! D19   D(2,5,8,12)           152.0648         -DE/DX =    0.0                 !
 ! D20   D(7,5,8,12)          -100.8164         -DE/DX =    0.0                 !
 --------------------------------------------------------------------------------
 GradGradGradGradGradGradGradGradGradGradGradGradGradGradGradGradGradGrad

 Leave Link  103 at Fri May 23 07:41:23 2025, MaxMem=  3758096384 cpu:               0.0 elap:               0.0
 (Enter /apps/easybuild-2022/easybuild/software/Compiler/NVHPC/22.11-CUDA-11.7.0/Gaussian/g16c01-CUDA-11.7.0/g16/l9999.exe)

 ----------------------------------------------------------------------

 Electric dipole moment (input orientation):
 (Debye = 10**-18 statcoulomb cm , SI units = C m)
                  (au)            (Debye)         (10**-30 SI)
   Tot        0.178488D+01      0.453671D+01      0.151328D+02
   x          0.630842D+00      0.160344D+01      0.534850D+01
   y         -0.691661D-01     -0.175803D+00     -0.586415D+00
   z          0.166825D+01      0.424026D+01      0.141440D+02

 Dipole polarizability, Alpha (input orientation).
 (esu units = cm**3 , SI units = C**2 m**2 J**-1)
 Alpha(0;0):
               (au)            (10**-24 esu)      (10**-40 SI)
   iso        0.613059D+02      0.908460D+01      0.101080D+02
   aniso      0.837449D+01      0.124097D+01      0.138077D+01
   xx         0.653204D+02      0.967949D+01      0.107699D+02
   yx        -0.551571D+00     -0.817344D-01     -0.909417D-01
   yy         0.600715D+02      0.890168D+01      0.990445D+01
   zx        -0.319606D+01     -0.473607D+00     -0.526959D+00
   zy         0.416929D+00      0.617825D-01      0.687423D-01
   zz         0.585258D+02      0.867263D+01      0.964960D+01

 ----------------------------------------------------------------------

 Dipole orientation:
     6         -1.98642595          1.97048146          0.94348825
     6          0.00334537          0.08282328         -0.10827307
     9         -0.89248449         -2.24913873          0.20885068
     9          0.24734598          0.33478223         -2.70677576
    16          3.25450279         -0.03859670          1.47362943
     8          1.59968194          3.08883168         -3.66929685
     8          4.93879090         -0.99445782         -0.47898095
     8          3.44907246          3.05641382          1.73367582
     9         -2.07931691          1.59564009          3.44757921
     9         -1.46754493          4.34965955          0.49555753
     9         -4.23633057          1.41779350         -0.03081477
     1          4.49869162          3.44957798          3.16919005

 Electric dipole moment (dipole orientation):
 (Debye = 10**-18 statcoulomb cm , SI units = C m)
                  (au)            (Debye)         (10**-30 SI)
   Tot        0.178488D+01      0.453671D+01      0.151328D+02
   x          0.000000D+00      0.000000D+00      0.000000D+00
   y          0.000000D+00      0.000000D+00      0.000000D+00
   z          0.178488D+01      0.453671D+01      0.151328D+02

 Dipole polarizability, Alpha (dipole orientation).
 (esu units = cm**3 , SI units = C**2 m**2 J**-1)
 Alpha(0;0):
               (au)            (10**-24 esu)      (10**-40 SI)
   iso        0.613059D+02      0.908460D+01      0.101080D+02
   aniso      0.837449D+01      0.124097D+01      0.138077D+01
   xx         0.665753D+02      0.986545D+01      0.109768D+02
   yx        -0.714641D+00     -0.105899D+00     -0.117828D+00
   yy         0.600922D+02      0.890474D+01      0.990786D+01
   zx        -0.122020D+00     -0.180814D-01     -0.201183D-01
   zy         0.863413D-01      0.127945D-01      0.142357D-01
   zz         0.572502D+02      0.848361D+01      0.943928D+01

 ----------------------------------------------------------------------
 Unable to Open any file for archive entry.
 1\1\GINC-SPARTAN-BM152\Freq\RwB97XD\6-311++G(d,p)\C2H1F5O3S1\AKHALILOV
 \23-May-2025\0\\#P Geom=AllCheck Guess=TCheck SCRF=Check GenChk RwB97X
 D/6-311++G(d,p) Freq\\Gaussian input prepared by ASE\\0,1\C,-0.7994554
 175,1.0151355135,0.8785778698\C,-0.0182841492,0.0460269806,-0.05247896
 81\F,-0.4111521355,-1.1968953465,0.2240979833\F,-0.3825580464,0.233454
 031,-1.3781628467\S,1.8864778769,-0.0384351183,0.1193705154\O,0.117156
 5742,1.714506895,-2.050677528\O,2.3514363275,-0.497511996,-1.181002255
 9\O,2.0430229597,1.5934989979,0.2750655056\F,-0.3784991389,0.765234481
 7,2.1267838398\F,-0.617468568,2.2842943417,0.6087733246\F,-2.097473767
 4,0.7344432822,0.8061574074\H,2.8325523125,1.7758861421,0.7968194749\\
 Version=ES64L-G16RevC.01\HF=-1199.5936936\RMSD=9.183e-10\RMSF=1.515e-0
 6\ZeroPoint=0.0469159\Thermal=0.0588024\ETot=-1199.5348911\HTot=-1199.
 5339469\GTot=-1199.5857259\Dipole=0.6308424,-0.0691661,1.668246\Dipole
 Deriv=1.7194484,0.0992308,0.0323319,-0.2269757,1.4911696,-0.0335151,-0
 .1959585,-0.1002518,1.5704323,0.6189258,0.106967,0.2397621,0.5652271,0
 .9305004,-0.2652152,0.2304578,-0.4836936,1.2244487,-0.3688835,-0.20678
 13,0.0576691,-0.3009551,-0.8217556,0.191129,0.0537884,0.1307518,-0.329
 1171,-0.3648813,-0.0224777,-0.1183693,-0.0299077,-0.6358914,0.3950329,
 -0.2169514,0.6018674,-1.0307862,1.1471371,-0.2193892,-0.1888723,-0.059
 5018,1.5504006,0.363182,-0.3814781,0.4357636,1.1339954,-0.1634542,0.18
 14688,-0.1536956,0.0725901,0.3463055,-0.3657599,-0.0590778,-0.2303817,
 -0.0396691,-0.6260301,0.1657492,0.1202229,0.193498,-0.5278723,-0.07701
 12,0.5070643,-0.4093,-0.8760794,-0.4570853,-0.1851476,0.0484698,-0.371
 0921,-1.2151246,-0.3487811,0.0119829,-0.1148111,-0.4622913,-0.3873213,
 0.0557773,-0.093087,0.0767568,-0.3001631,0.0310449,-0.1133518,0.121518
 1,-0.9038362,-0.3045035,0.002439,0.0429382,0.0040602,-0.8276892,0.1018
 859,0.054549,0.0284287,-0.3028347,-1.134652,-0.0784662,0.0316126,-0.01
 76889,-0.3094588,-0.0459488,0.119196,-0.032773,-0.3190244,0.3212999,0.
 1006299,-0.0189823,0.0939893,0.3195788,0.0539567,-0.0102209,0.0528816,
 0.3347619\Polar=65.3204107,-0.5515709,60.0715112,-3.1960593,0.416929,5
 8.5257947\PG=Unknown\NImag=0\\0.54365330,-0.00669666,0.60772205,-0.015
 67905,0.00523834,0.52735073,-0.09068206,0.02243608,0.02348176,0.404728
 82,0.05796019,-0.08923533,-0.04995757,0.01878455,0.51117060,0.05763797
 ,-0.05370503,-0.09072334,-0.00963640,0.03682365,0.44134023,0.00112601,
 0.00961634,0.00165438,-0.09895652,-0.08522004,0.01156210,0.09582074,-0
 .02154026,-0.04807614,0.01767655,-0.07253427,-0.28658444,0.01480211,0.
 09736774,0.37920996,-0.00700590,-0.01039770,0.00518332,0.01345672,0.02
 820158,-0.06813302,-0.01991674,-0.06972318,0.09063759,0.00313838,-0.00
 269925,0.00756136,-0.07540532,-0.00063644,-0.05603712,0.01115994,-0.00
 192678,0.01238333,0.07505265,-0.00702701,0.00278488,-0.01418594,-0.009
 06369,-0.05995884,-0.02919255,0.00666090,-0.03227195,0.06483405,0.0299
 3198,0.13779968,-0.02552206,0.02237064,-0.03593569,-0.03645014,-0.0138
 9459,-0.18476245,0.00126735,0.04577509,-0.03634719,0.05266326,-0.03732
 972,0.27277545,-0.01128727,0.01156722,0.01198454,-0.09814769,0.0247841
 7,-0.05106198,-0.00070328,-0.00162478,0.00298340,-0.01672660,-0.000861
 96,-0.00406837,0.27856174,0.01608964,0.01629870,0.00238367,0.00924017,
 -0.02825586,0.00008027,-0.03388186,-0.02163609,0.00280777,0.00723320,-
 0.00159410,0.00751648,-0.03692673,0.36199355,0.01352635,-0.00122298,0.
 00829016,0.00323778,0.01685416,-0.03840016,0.00635441,0.00058458,0.003
 86054,-0.03754039,0.00482728,-0.03109395,-0.10482493,0.12216277,0.6320
 0072,-0.00185708,0.00404194,-0.00055736,0.00209258,0.00160029,0.009953
 29,0.00057843,0.00221397,-0.00306927,-0.00906565,-0.02287790,-0.001143
 62,0.00009187,-0.00024043,0.00095927,0.00882015,-0.00179420,0.00505481
 ,-0.00040591,0.01018493,-0.00231540,0.02911466,-0.00078198,0.00490688,
 -0.00600390,-0.02800581,-0.05593888,-0.00210076,0.00255876,0.00359178,
 -0.00593894,0.01690835,0.05143663,-0.00027343,-0.00821768,0.00210363,-
 0.00254549,0.00597295,-0.01569838,0.00060879,-0.00051062,0.00169219,0.
 00749438,0.01573146,0.00232315,0.00010037,-0.00471713,0.00203676,-0.00
 571508,-0.01667086,0.01700045,-0.00198945,-0.00620115,-0.00784096,-0.0
 0846105,0.01185542,0.03469872,-0.00332872,-0.00468429,-0.00124601,0.00
 773635,-0.00000210,0.00413205,-0.10223385,0.05574340,0.14158264,-0.000
 82261,0.00001007,-0.00019553,0.10347903,0.00025880,0.00143496,0.004475
 64,0.00716121,-0.00700444,-0.01101863,0.00319915,0.00653694,-0.0009049
 5,-0.00237281,0.00066555,-0.00015518,0.04834644,-0.09653728,-0.1224029
 1,0.00109729,-0.00159414,0.00096795,-0.06511377,0.10134260,-0.00242044
 ,0.00675198,0.00444834,0.00139308,-0.01997638,-0.01306702,0.00171018,0
 .00649189,0.00032709,0.00709215,-0.00176412,0.01436981,0.15959788,-0.1
 4477512,-0.52229073,-0.00101027,0.00391332,-0.00029999,-0.17534388,0.1
 6593517,0.51123558,0.00327467,0.00178439,-0.00055658,0.00641622,-0.027
 00354,0.00685482,-0.01168623,-0.00571718,-0.00022501,0.00068090,0.0017
 5999,-0.00139793,-0.05538531,-0.01718574,-0.01747802,-0.00140835,-0.00
 023713,-0.00174893,0.00970822,0.00260739,-0.00061789,0.41504906,-0.002
 86163,-0.01285661,-0.00472699,0.00394036,-0.00479890,0.00308225,-0.002
 63421,0.00068962,-0.00011440,-0.00350447,0.00406144,-0.00660871,-0.010
 99120,-0.21273969,0.00756029,-0.00070706,-0.00188265,0.00185239,0.0029
 5243,-0.00151205,-0.01381441,0.09675445,0.26139804,-0.00244907,-0.0026
 6903,-0.00535463,0.00139055,-0.01114983,0.00054423,-0.00579904,-0.0041
 0395,0.00142400,-0.00026736,0.00035857,0.00075509,-0.01034838,0.017678
 33,-0.04773933,-0.00149421,0.00053509,-0.00116818,-0.00041862,-0.03283
 593,0.00792340,0.25263902,0.06691953,0.19768847,-0.08375305,0.00612427
 ,-0.03567764,0.00726430,-0.00163529,0.00457703,0.00071783,0.00117761,0
 .00069592,0.00046864,0.00134623,0.00448419,-0.00047061,-0.00115209,-0.
 00191335,0.00047429,0.00036787,-0.00045636,0.00059589,-0.00039716,0.00
 056603,-0.00143597,0.00007660,0.00213936,0.10647066,0.00594140,-0.0778
 6349,0.01273619,-0.00236197,0.00520966,-0.01066968,0.00014257,0.003075
 40,-0.00239529,0.00113244,-0.00068407,-0.00608272,-0.00027207,-0.00291
 979,0.00036785,-0.00072585,-0.00096084,0.00140111,0.00005168,0.0004804
 3,-0.00055829,-0.00050317,0.00205079,0.00082667,-0.01422127,0.08904673
 ,-0.03363473,0.01051911,-0.25734538,-0.01522931,0.01332258,-0.04409035
 ,0.00037886,-0.00506905,0.00219216,0.00489921,-0.00480958,-0.01019955,
 -0.00190003,-0.00061143,-0.00174133,-0.00012952,-0.00187473,0.00047361
 ,0.00132723,-0.00113409,-0.00078001,0.00065362,0.00144897,0.00178285,0
 .09254759,-0.05543958,0.35592436,-0.08010249,-0.01834651,0.00706111,0.
 00876442,0.00887564,-0.00497912,-0.00026907,0.00517438,0.00183925,-0.0
 0007818,-0.00016819,0.00173871,-0.00020118,-0.00329318,-0.00132583,0.0
 0028225,0.00028596,0.00259939,0.00026830,0.00026353,0.00051883,-0.0060
 8900,0.00332346,0.00096624,0.01239890,0.01112991,-0.00703055,0.0933900
 0,-0.01430012,-0.32507550,0.02681281,-0.00607281,-0.03388420,0.0201234
 1,0.00408198,-0.00915559,-0.00530290,0.00022522,0.00420424,-0.00786278
 ,-0.00490732,-0.00576250,-0.00081599,-0.00129599,-0.00154285,0.0024839
 9,0.00220415,-0.00001756,-0.00162586,0.00118729,0.00578136,0.00117680,
 0.00792011,-0.03049240,0.04557563,0.05707390,0.43100937,0.00769709,0.0
 3305597,-0.08364625,-0.00232166,-0.01036469,0.00818936,0.00091006,-0.0
 0605939,-0.00108774,-0.00015475,0.00124522,0.00398719,-0.00109463,0.00
 033301,-0.00140624,0.00265434,-0.00071083,-0.00787850,0.00064401,-0.00
 046304,0.00004795,0.00094392,0.00029509,0.00131078,-0.00604758,0.06253
 066,-0.02933500,-0.00900599,-0.08589931,0.09707869,-0.28094586,-0.0223
 8942,0.00936364,-0.05849775,-0.00689270,-0.00203756,0.00598711,0.00220
 335,0.00001498,0.00282292,0.00059900,0.00332065,0.00730488,0.00103634,
 -0.00120177,0.00080599,0.00014112,0.00061155,-0.00384279,0.00228028,0.
 00488884,-0.00077027,-0.00145104,0.00038510,-0.04339824,-0.00036922,-0
 .04228555,-0.02806590,-0.04604835,0.00553689,0.39789171,-0.02487904,-0
 .08035178,-0.00043825,0.01659123,0.00112318,-0.00140165,0.00383462,0.0
 0434397,-0.00097401,0.00038663,0.00088589,-0.00165740,-0.00188965,-0.0
 0298438,-0.00063953,-0.00053611,-0.00063750,0.00102584,0.00124061,-0.0
 0031877,-0.00106493,-0.00036024,0.00231507,0.00060130,0.00018188,0.013
 13160,-0.00181102,-0.06489341,-0.03492977,0.00617893,0.07040543,0.0974
 4247,0.00802642,-0.00279356,-0.07639825,0.02506683,0.00092661,0.003048
 79,-0.00086149,-0.00105315,0.00063074,0.00053626,0.00082533,0.00303467
 ,-0.00312496,-0.00174068,-0.00160118,-0.00013076,-0.00028940,0.0002561
 0,0.00216693,-0.00116000,-0.00134902,-0.00003213,0.00158611,0.00078820
 ,-0.06050177,-0.00247326,-0.01587209,0.00750853,0.00588512,0.01303509,
 0.02137820,0.00040607,0.07474821,-0.00057508,0.00076275,-0.00079519,0.
 00088405,-0.00247226,-0.00153174,-0.00044624,-0.00010947,0.00008933,0.
 00021599,-0.00029725,0.00097593,-0.00080270,0.00333729,-0.00137618,0.0
 0000812,0.00036207,-0.00047966,-0.00110931,0.00266965,0.00362550,-0.35
 835392,-0.08489769,-0.23674360,0.00066736,0.00005554,0.00040319,-0.000
 29804,-0.00006807,0.00023829,0.00070821,-0.00008195,-0.00003206,0.3591
 0159,-0.00115112,0.00016345,0.00039145,0.00169421,-0.00546606,0.001961
 19,-0.00238522,-0.00103857,-0.00002706,0.00023610,0.00004615,0.0000296
 6,-0.02978288,-0.00945433,-0.02133657,0.00052150,-0.00011784,0.0006805
 8,0.00194354,-0.00347626,0.00048676,-0.05308651,-0.04250641,-0.0373375
 4,0.00021124,-0.00007401,-0.00011681,0.00057453,-0.00013461,-0.0001416
 3,0.00048521,-0.00001998,-0.00011918,0.08073940,0.06207845,0.00009686,
 0.00106992,0.00202735,-0.00184373,0.00324154,0.00175213,0.00213115,0.0
 0118913,-0.00037967,0.00136967,-0.00053999,0.00109348,0.00175708,-0.00
 111793,-0.00191524,-0.00031681,0.00043227,-0.00084082,0.00049343,-0.00
 130403,-0.00056538,-0.23903489,-0.05748013,-0.15795486,-0.00041342,-0.
 00024366,-0.00100927,0.00010944,-0.00055091,-0.00029531,0.00002502,-0.
 00022534,-0.00032125,0.23562620,0.05552914,0.15840884\\-0.00000057,0.0
 0000075,-0.00000109,0.00000004,-0.00000019,0.00000018,0.00000034,0.000
 00029,0.00000178,0.00000181,-0.00000239,0.00000031,0.00000003,0.000000
 35,0.00000276,0.00000155,-0.00000305,-0.00000145,0.00000128,-0.0000015
 5,0.00000313,-0.00000038,0.00000049,0.00000015,-0.00000193,0.00000275,
 -0.00000098,-0.00000064,0.00000068,-0.00000321,-0.00000063,0.00000059,
 -0.00000227,-0.00000089,0.00000129,0.00000068\\\@
 The archive entry for this job was punched.


 Luck is a matter of preparation meeting opportunity.
                                    -- Oprah Winfrey
 Job cpu time:       0 days  0 hours 10 minutes  0.3 seconds.
 Elapsed time:       0 days  0 hours  1 minutes 16.8 seconds.
 File lengths (MBytes):  RWF=     99 Int=      0 D2E=      0 Chk=      6 Scr=      1
 Normal termination of Gaussian 16 at Fri May 23 07:41:23 2025.
done
