12
energy = 0
C -0.91593261 -0.44847237 1.06289059
C 0.08013314 0.46774970 0.31976718
F -0.20314146 0.54721797 -0.96952763
F -0.05107464 1.73842156 0.74643881
S 1.91590066 -0.02619541 0.63941371
O 1.85808864 2.59826540 1.17150831
O 2.06289984 -1.39979119 0.18930206
O 2.58998714 0.70322433 -0.63229203
F -1.03213765 -1.64888759 0.51985898
F -0.57081859 -0.65561173 2.33333183
F -2.14812943 0.04517858 1.11400832
H 2.46464694 1.67693476 -0.67640513
12
energy = 0
C -0.91450335 -0.42139272 1.08274974
C 0.08293312 0.42993696 0.26776476
F -0.21501978 0.42068849 -1.02063709
F -0.02962130 1.72945457 0.60311034
S 1.91623348 -0.05999483 0.60713871
O 1.82439062 2.52349809 1.30813134
O 2.09917195 -1.40023365 0.07679162
O 2.60150297 0.76133106 -0.60096341
F -1.07508193 -1.64321867 0.60239622
F -0.53996249 -0.57796654 2.35209412
F -2.13199886 0.10652996 1.14287981
H 2.43237757 1.72940126 -0.60316116
12
energy = 0
C -0.90804654 -0.38962812 1.10490334
C 0.08026465 0.39401267 0.21440327
F -0.24779151 0.30182281 -1.06337644
F -0.01034621 1.71421465 0.46485797
S 1.91179544 -0.09915415 0.55861175
O 1.75614122 2.42828932 1.43157379
O 2.12092922 -1.39461857 -0.06509462
O 2.61434581 0.81467042 -0.57056001
F -1.09007919 -1.63880064 0.71016828
F -0.50900005 -0.46802411 2.37401615
F -2.11890765 0.15432772 1.15530880
H 2.45111682 1.78092199 -0.49651729
