 Entering Gaussian System, Link 0=g16
 Initial command:
 /apps/easybuild-2022/easybuild/software/Compiler/NVHPC/22.11-CUDA-11.7.0/Gaussian/g16c01-CUDA-11.7.0/g16/l1.exe "/tmp/Gau-247006.inp" -scrdir="/tmp/"
 Entering Link 1 = /apps/easybuild-2022/easybuild/software/Compiler/NVHPC/22.11-CUDA-11.7.0/Gaussian/g16c01-CUDA-11.7.0/g16/l1.exe PID=    247011.
  
 Copyright (c) 1988-2019, Gaussian, Inc.  All Rights Reserved.
  
 This is part of the Gaussian(R) 16 program.  It is based on
 the Gaussian(R) 09 system (copyright 2009, Gaussian, Inc.),
 the Gaussian(R) 03 system (copyright 2003, Gaussian, Inc.),
 the Gaussian(R) 98 system (copyright 1998, Gaussian, Inc.),
 the Gaussian(R) 94 system (copyright 1995, Gaussian, Inc.),
 the Gaussian 92(TM) system (copyright 1992, Gaussian, Inc.),
 the Gaussian 90(TM) system (copyright 1990, Gaussian, Inc.),
 the Gaussian 88(TM) system (copyright 1988, Gaussian, Inc.),
 the Gaussian 86(TM) system (copyright 1986, Carnegie Mellon
 University), and the Gaussian 82(TM) system (copyright 1983,
 Carnegie Mellon University). Gaussian is a federally registered
 trademark of Gaussian, Inc.
  
 This software contains proprietary and confidential information,
 including trade secrets, belonging to Gaussian, Inc.
  
 This software is provided under written license and may be
 used, copied, transmitted, or stored only in accord with that
 written license.
  
 The following legend is applicable only to US Government
 contracts under FAR:
  
                    RESTRICTED RIGHTS LEGEND
  
 Use, reproduction and disclosure by the US Government is
 subject to restrictions as set forth in subparagraphs (a)
 and (c) of the Commercial Computer Software - Restricted
 Rights clause in FAR 52.227-19.
  
 Gaussian, Inc.
 340 Quinnipiac St., Bldg. 40, Wallingford CT 06492
  
  
 ---------------------------------------------------------------
 Warning -- This program may not be used in any manner that
 competes with the business of Gaussian, Inc. or will provide
 assistance to any competitor of Gaussian, Inc.  The licensee
 of this program is prohibited from giving any competitor of
 Gaussian, Inc. access to this program.  By using this program,
 the user acknowledges that Gaussian, Inc. is engaged in the
 business of creating and licensing software in the field of
 computational chemistry and represents and warrants to the
 licensee that it is not a competitor of Gaussian, Inc. and that
 it will not use this program in any manner prohibited above.
 ---------------------------------------------------------------
  

 Cite this work as:
 Gaussian 16, Revision C.01,
 M. J. Frisch, G. W. Trucks, H. B. Schlegel, G. E. Scuseria, 
 M. A. Robb, J. R. Cheeseman, G. Scalmani, V. Barone, 
 G. A. Petersson, H. Nakatsuji, X. Li, M. Caricato, A. V. Marenich, 
 J. Bloino, B. G. Janesko, R. Gomperts, B. Mennucci, H. P. Hratchian, 
 J. V. Ortiz, A. F. Izmaylov, J. L. Sonnenberg, D. Williams-Young, 
 F. Ding, F. Lipparini, F. Egidi, J. Goings, B. Peng, A. Petrone, 
 T. Henderson, D. Ranasinghe, V. G. Zakrzewski, J. Gao, N. Rega, 
 G. Zheng, W. Liang, M. Hada, M. Ehara, K. Toyota, R. Fukuda, 
 J. Hasegawa, M. Ishida, T. Nakajima, Y. Honda, O. Kitao, H. Nakai, 
 T. Vreven, K. Throssell, J. A. Montgomery, Jr., J. E. Peralta, 
 F. Ogliaro, M. J. Bearpark, J. J. Heyd, E. N. Brothers, K. N. Kudin, 
 V. N. Staroverov, T. A. Keith, R. Kobayashi, J. Normand, 
 K. Raghavachari, A. P. Rendell, J. C. Burant, S. S. Iyengar, 
 J. Tomasi, M. Cossi, J. M. Millam, M. Klene, C. Adamo, R. Cammi, 
 J. W. Ochterski, R. L. Martin, K. Morokuma, O. Farkas, 
 J. B. Foresman, and D. J. Fox, Gaussian, Inc., Wallingford CT, 2019.
 
 ******************************************
 Gaussian 16:  ES64L-G16RevC.01  3-Jul-2019
                23-May-2025 
 ******************************************
 %mem=28GB
 %nprocshared=8
 Will use up to    8 processors via shared memory.
 ----------------------------------------------------------------------
 #P wb97xd/6-311++G(d,p) Symm(None) scf(xqc) pop(None) freq opt(CalcFC,
  Tight)
 ----------------------------------------------------------------------
 1/7=10,10=4,18=20,19=15,26=3,38=1/1,3;
 2/9=110,12=2,15=3,17=6,18=5,40=1/2;
 3/5=4,6=6,7=1111,11=2,25=1,30=1,71=2,74=-58,140=1/1,2,3;
 4//1;
 5/5=2,8=3,13=1,38=5/2,8;
 8/6=4,10=90,11=11/1;
 11/6=1,8=1,9=11,15=111,16=1,31=1/1,2,10;
 10/6=1,13=1,31=1/2;
 7/10=1,25=1,30=1/1,2,3,16;
 1/7=10,10=4,18=20,19=15,26=3/3(2);
 2/9=110,15=3/2;
 99//99;
 2/9=110,15=3/2;
 3/5=4,6=6,7=1111,11=2,25=1,30=1,71=1,74=-58/1,2,3;
 4/5=5,16=3,69=1/1;
 5/5=2,8=3,13=1,38=5/2,8;
 7/30=1/1,2,3,16;
 1/7=10,18=20,19=15,26=3/3(-5);
 2/9=110,15=3/2;
 99/9=1/99;
 Leave Link    1 at Fri May 23 04:25:41 2025, MaxMem=  3758096384 cpu:               0.0 elap:               0.0
 (Enter /apps/easybuild-2022/easybuild/software/Compiler/NVHPC/22.11-CUDA-11.7.0/Gaussian/g16c01-CUDA-11.7.0/g16/l101.exe)
 ------------------------------
 Gaussian input prepared by ASE
 ------------------------------
 Symbolic Z-matrix:
 Charge =  0 Multiplicity = 1
 C                     0.        0.        0. 
 C                     1.55793   0.        0. 
 F                     1.50041   0.02269   2.60334 
 F                     1.95329  -0.72622  -1.07484 
 S                     2.32638  -0.8046    1.50768 
 O                     3.69137  -0.41174   1.63495 
 O                     1.8708   -2.1524    1.57501 
 O                     2.07373   1.24441   0. 
 F                    -0.50112  -1.22232  -0.00464 
 F                    -0.4814    0.67267   1.03311 
 F                    -0.38921   0.63006  -1.12218 
 H                     1.94031   1.66978   0.85474 
 
 ITRead=  0  0  0  0  0  0  0  0  0  0  0  0
 MicOpt= -1 -1 -1 -1 -1 -1 -1 -1 -1 -1 -1 -1
 NAtoms=     12 NQM=       12 NQMF=       0 NMMI=      0 NMMIF=      0
                NMic=       0 NMicF=      0.
                    Isotopes and Nuclear Properties:
 (Nuclear quadrupole moments (NQMom) in fm**2, nuclear magnetic moments (NMagM)
  in nuclear magnetons)

  Atom         1           2           3           4           5           6           7           8           9          10
 IAtWgt=          12          12          19          19          32          16          16          16          19          19
 AtmWgt=  12.0000000  12.0000000  18.9984032  18.9984032  31.9720718  15.9949146  15.9949146  15.9949146  18.9984032  18.9984032
 NucSpn=           0           0           1           1           0           0           0           0           1           1
 AtZEff=  -0.0000000  -0.0000000  -0.0000000  -0.0000000  -0.0000000  -0.0000000  -0.0000000  -0.0000000  -0.0000000  -0.0000000
 NQMom=    0.0000000   0.0000000   0.0000000   0.0000000   0.0000000   0.0000000   0.0000000   0.0000000   0.0000000   0.0000000
 NMagM=    0.0000000   0.0000000   2.6288670   2.6288670   0.0000000   0.0000000   0.0000000   0.0000000   2.6288670   2.6288670
 AtZNuc=   6.0000000   6.0000000   9.0000000   9.0000000  16.0000000   8.0000000   8.0000000   8.0000000   9.0000000   9.0000000

  Atom        11          12
 IAtWgt=          19           1
 AtmWgt=  18.9984032   1.0078250
 NucSpn=           1           1
 AtZEff=  -0.0000000  -0.0000000
 NQMom=    0.0000000   0.0000000
 NMagM=    2.6288670   2.7928460
 AtZNuc=   9.0000000   1.0000000
 Leave Link  101 at Fri May 23 04:25:41 2025, MaxMem=  3758096384 cpu:               0.3 elap:               0.3
 (Enter /apps/easybuild-2022/easybuild/software/Compiler/NVHPC/22.11-CUDA-11.7.0/Gaussian/g16c01-CUDA-11.7.0/g16/l103.exe)

 GradGradGradGradGradGradGradGradGradGradGradGradGradGradGradGradGradGrad
 Berny optimization.
 Initialization pass.
                           ----------------------------
                           !    Initial Parameters    !
                           ! (Angstroms and Degrees)  !
 --------------------------                            --------------------------
 ! Name  Definition              Value          Derivative Info.                !
 --------------------------------------------------------------------------------
 ! R1    R(1,2)                  1.5579         calculate D2E/DX2 analytically  !
 ! R2    R(1,9)                  1.3211         calculate D2E/DX2 analytically  !
 ! R3    R(1,10)                 1.3235         calculate D2E/DX2 analytically  !
 ! R4    R(1,11)                 1.3445         calculate D2E/DX2 analytically  !
 ! R5    R(2,4)                  1.3561         calculate D2E/DX2 analytically  !
 ! R6    R(2,5)                  1.8738         calculate D2E/DX2 analytically  !
 ! R7    R(2,8)                  1.3471         calculate D2E/DX2 analytically  !
 ! R8    R(3,5)                  1.6022         calculate D2E/DX2 analytically  !
 ! R9    R(5,6)                  1.4261         calculate D2E/DX2 analytically  !
 ! R10   R(5,7)                  1.4243         calculate D2E/DX2 analytically  !
 ! R11   R(8,12)                 0.964          calculate D2E/DX2 analytically  !
 ! A1    A(2,1,9)              112.2921         calculate D2E/DX2 analytically  !
 ! A2    A(2,1,10)             111.3301         calculate D2E/DX2 analytically  !
 ! A3    A(2,1,11)             106.8267         calculate D2E/DX2 analytically  !
 ! A4    A(9,1,10)             109.5751         calculate D2E/DX2 analytically  !
 ! A5    A(9,1,11)             108.7142         calculate D2E/DX2 analytically  !
 ! A6    A(10,1,11)            107.9415         calculate D2E/DX2 analytically  !
 ! A7    A(1,2,4)              106.9503         calculate D2E/DX2 analytically  !
 ! A8    A(1,2,5)              114.2117         calculate D2E/DX2 analytically  !
 ! A9    A(1,2,8)              112.5136         calculate D2E/DX2 analytically  !
 ! A10   A(4,2,5)              106.7522         calculate D2E/DX2 analytically  !
 ! A11   A(4,2,8)              112.5244         calculate D2E/DX2 analytically  !
 ! A12   A(5,2,8)              103.8655         calculate D2E/DX2 analytically  !
 ! A13   A(2,5,3)               96.7248         calculate D2E/DX2 analytically  !
 ! A14   A(2,5,6)              110.2461         calculate D2E/DX2 analytically  !
 ! A15   A(2,5,7)              108.2515         calculate D2E/DX2 analytically  !
 ! A16   A(3,5,6)              106.868          calculate D2E/DX2 analytically  !
 ! A17   A(3,5,7)              106.941          calculate D2E/DX2 analytically  !
 ! A18   A(6,5,7)              124.237          calculate D2E/DX2 analytically  !
 ! A19   A(2,8,12)             110.771          calculate D2E/DX2 analytically  !
 ! D1    D(9,1,2,4)             55.7376         calculate D2E/DX2 analytically  !
 ! D2    D(9,1,2,5)            -62.1303         calculate D2E/DX2 analytically  !
 ! D3    D(9,1,2,8)            179.7825         calculate D2E/DX2 analytically  !
 ! D4    D(10,1,2,4)           179.0238         calculate D2E/DX2 analytically  !
 ! D5    D(10,1,2,5)            61.1559         calculate D2E/DX2 analytically  !
 ! D6    D(10,1,2,8)           -56.9313         calculate D2E/DX2 analytically  !
 ! D7    D(11,1,2,4)           -63.3576         calculate D2E/DX2 analytically  !
 ! D8    D(11,1,2,5)           178.7745         calculate D2E/DX2 analytically  !
 ! D9    D(11,1,2,8)            60.6873         calculate D2E/DX2 analytically  !
 ! D10   D(1,2,5,3)            -51.5248         calculate D2E/DX2 analytically  !
 ! D11   D(1,2,5,6)           -162.3127         calculate D2E/DX2 analytically  !
 ! D12   D(1,2,5,7)             58.8301         calculate D2E/DX2 analytically  !
 ! D13   D(4,2,5,3)           -169.5059         calculate D2E/DX2 analytically  !
 ! D14   D(4,2,5,6)             79.7062         calculate D2E/DX2 analytically  !
 ! D15   D(4,2,5,7)            -59.151          calculate D2E/DX2 analytically  !
 ! D16   D(8,2,5,3)             71.3924         calculate D2E/DX2 analytically  !
 ! D17   D(8,2,5,6)            -39.3955         calculate D2E/DX2 analytically  !
 ! D18   D(8,2,5,7)           -178.2527         calculate D2E/DX2 analytically  !
 ! D19   D(1,2,8,12)            71.4923         calculate D2E/DX2 analytically  !
 ! D20   D(4,2,8,12)          -167.607          calculate D2E/DX2 analytically  !
 ! D21   D(5,2,8,12)           -52.5344         calculate D2E/DX2 analytically  !
 --------------------------------------------------------------------------------
 Trust Radius=3.00D-01 FncErr=1.00D-07 GrdErr=1.00D-06 EigMax=2.50D+02 EigMin=1.00D-04
 Number of steps in this run=     61 maximum allowed number of steps=    100.
 GradGradGradGradGradGradGradGradGradGradGradGradGradGradGradGradGradGrad

 Leave Link  103 at Fri May 23 04:25:41 2025, MaxMem=  3758096384 cpu:               0.0 elap:               0.0
 (Enter /apps/easybuild-2022/easybuild/software/Compiler/NVHPC/22.11-CUDA-11.7.0/Gaussian/g16c01-CUDA-11.7.0/g16/l202.exe)
                          Input orientation:                          
 ---------------------------------------------------------------------
 Center     Atomic      Atomic             Coordinates (Angstroms)
 Number     Number       Type             X           Y           Z
 ---------------------------------------------------------------------
      1          6           0        0.000000    0.000000    0.000000
      2          6           0        1.557929    0.000000    0.000000
      3          9           0        1.500409    0.022686    2.603339
      4          9           0        1.953287   -0.726215   -1.074841
      5         16           0        2.326379   -0.804596    1.507684
      6          8           0        3.691368   -0.411741    1.634948
      7          8           0        1.870800   -2.152400    1.575006
      8          8           0        2.073726    1.244409    0.000000
      9          9           0       -0.501116   -1.222316   -0.004641
     10          9           0       -0.481396    0.672673    1.033112
     11          9           0       -0.389210    0.630062   -1.122176
     12          1           0        1.940315    1.669783    0.854741
 ---------------------------------------------------------------------
                    Distance matrix (angstroms):
                    1          2          3          4          5
     1  C    0.000000
     2  C    1.557929   0.000000
     3  F    3.004848   2.604073   0.000000
     4  F    2.344782   1.356090   3.780868   0.000000
     5  S    2.886611   1.873767   1.602211   2.610513   0.000000
     6  O    4.058175   2.719218   2.434505   3.234622   1.426088
     7  O    3.257815   2.685397   2.434267   3.010398   1.424311
     8  O    2.418449   1.347071   2.932350   2.247921   2.556437
     9  F    1.321058   2.394524   3.515350   2.723149   3.233627
    10  F    1.323462   2.382993   2.610679   3.511130   3.207981
    11  F    1.344523   2.334011   4.221259   2.707216   4.043368
    12  H    2.698811   1.914413   2.442139   3.076404   2.588036
                    6          7          8          9         10
     6  O    0.000000
     7  O    2.519515   0.000000
     8  O    2.834194   3.749685   0.000000
     9  F    4.574080   2.997720   3.565749   0.000000
    10  F    4.353174   3.715846   2.814756   2.160625   0.000000
    11  F    5.033707   4.486037   2.775384   2.166267   2.157679
    12  H    2.829780   3.890077   0.964014   3.881154   2.625020
                   11         12
    11  F    0.000000
    12  H    3.227368   0.000000
 Symmetry turned off by external request.
 Stoichiometry    C2HF5O3S
 Rotational constants (GHZ):           1.5811427           0.8389160           0.7946249
 Leave Link  202 at Fri May 23 04:25:41 2025, MaxMem=  3758096384 cpu:               0.1 elap:               0.0
 (Enter /apps/easybuild-2022/easybuild/software/Compiler/NVHPC/22.11-CUDA-11.7.0/Gaussian/g16c01-CUDA-11.7.0/g16/l301.exe)
 Standard basis: 6-311++G(d,p) (5D, 7F)
 Ernie: Thresh=  0.10000D-02 Tol=  0.10000D-05 Strict=F.
   257 basis functions,   419 primitive gaussians,   268 cartesian basis functions
    49 alpha electrons       49 beta electrons
       nuclear repulsion energy       926.6369135242 Hartrees.
 IExCor= 4639 DFT=T Ex+Corr=wB97XD ExCW=0 ScaHFX=  1.000000
 ScaDFX=  1.000000  1.000000  1.000000  1.000000 ScalE2=  1.000000  1.000000
 IRadAn=      5 IRanWt=     -1 IRanGd=            0 ICorTp=0 IEmpDi=121
 HFx  wShort=  0.000000 wLong=  0.200000 cFull=  0.222036 cShort=  0.000000 cLong=  0.777964
 DFx  wShort=  0.000000 wLong=  0.200000 cFull=  0.000000 cShort=  0.000000 cLong=  1.000000
 NAtoms=   12 NActive=   12 NUniq=   12 SFac= 1.00D+00 NAtFMM=   60 NAOKFM=F Big=F
 Integral buffers will be    131072 words long.
 Raffenetti 2 integral format.
 Two-electron integral symmetry is turned off.
 R6Disp:  Grimme-D2 Dispersion energy=       -0.0059639418 Hartrees.
 Nuclear repulsion after empirical dispersion term =      926.6309495824 Hartrees.
 Leave Link  301 at Fri May 23 04:25:41 2025, MaxMem=  3758096384 cpu:               0.1 elap:               0.0
 (Enter /apps/easybuild-2022/easybuild/software/Compiler/NVHPC/22.11-CUDA-11.7.0/Gaussian/g16c01-CUDA-11.7.0/g16/l302.exe)
 NPDir=0 NMtPBC=     1 NCelOv=     1 NCel=       1 NClECP=     1 NCelD=      1
         NCelK=      1 NCelE2=     1 NClLst=     1 CellRange=     0.0.
 One-electron integrals computed using PRISM.
 NBasis=   257 RedAO= T EigKep=  3.94D-05  NBF=   257
 NBsUse=   257 1.00D-06 EigRej= -1.00D+00 NBFU=   257
 Precomputing XC quadrature grid using
 IXCGrd= 4 IRadAn=           5 IRanWt=          -1 IRanGd=           0 AccXCQ= 0.00D+00.
 Generated NRdTot=       0 NPtTot=           0 NUsed=           0 NTot=          32
 NSgBfM=   268   268   268   268   268 MxSgAt=    12 MxSgA2=    12.
 Leave Link  302 at Fri May 23 04:25:42 2025, MaxMem=  3758096384 cpu:               0.7 elap:               0.2
 (Enter /apps/easybuild-2022/easybuild/software/Compiler/NVHPC/22.11-CUDA-11.7.0/Gaussian/g16c01-CUDA-11.7.0/g16/l303.exe)
 DipDrv:  MaxL=1.
 Leave Link  303 at Fri May 23 04:25:42 2025, MaxMem=  3758096384 cpu:               0.1 elap:               0.0
 (Enter /apps/easybuild-2022/easybuild/software/Compiler/NVHPC/22.11-CUDA-11.7.0/Gaussian/g16c01-CUDA-11.7.0/g16/l401.exe)
 ExpMin= 3.60D-02 ExpMax= 9.34D+04 ExpMxC= 3.17D+03 IAcc=3 IRadAn=         5 AccDes= 0.00D+00
 Harris functional with IExCor= 4639 and IRadAn=       5 diagonalized for initial guess.
 HarFok:  IExCor= 4639 AccDes= 0.00D+00 IRadAn=         5 IDoV= 1 UseB2=F ITyADJ=14
 ICtDFT=  3500011 ScaDFX=  1.000000  1.000000  1.000000  1.000000
 FoFCou: FMM=F IPFlag=           0 FMFlag=      100000 FMFlg1=           0
         NFxFlg=           0 DoJE=T BraDBF=F KetDBF=T FulRan=T
         wScrn=  0.000000 ICntrl=       500 IOpCl=  0 I1Cent=   200000004 NGrid=           0
         NMat0=    1 NMatS0=      1 NMatT0=    0 NMatD0=    1 NMtDS0=    0 NMtDT0=    0
 Symmetry not used in FoFCou.
 Harris En= -1167.11131153632    
 JPrj=0 DoOrth=F DoCkMO=F.
 Leave Link  401 at Fri May 23 04:25:42 2025, MaxMem=  3758096384 cpu:               2.8 elap:               0.4
 (Enter /apps/easybuild-2022/easybuild/software/Compiler/NVHPC/22.11-CUDA-11.7.0/Gaussian/g16c01-CUDA-11.7.0/g16/l502.exe)
 Keep R1 ints in memory in canonical form, NReq=1117474609.
 FoFCou: FMM=F IPFlag=           0 FMFlag=           0 FMFlg1=           0
         NFxFlg=           0 DoJE=F BraDBF=F KetDBF=F FulRan=T
         wScrn=  0.000000 ICntrl=       600 IOpCl=  0 I1Cent=           0 NGrid=           0
         NMat0=    1 NMatS0=  33153 NMatT0=    0 NMatD0=    1 NMtDS0=    0 NMtDT0=    0
 Symmetry not used in FoFCou.
 Two-electron integral symmetry not used.
 Closed shell SCF:
 Using DIIS extrapolation, IDIIS=  1040.
 NGot=  3758096384 LenX=  2658793876 LenY=  2658721611
 Requested convergence on RMS density matrix=1.00D-08 within  32 cycles.
 Requested convergence on MAX density matrix=1.00D-06.
 Requested convergence on             energy=1.00D-06.
 No special actions if energy rises.

 Cycle   1  Pass 1  IDiag  1:
 E= -1199.11724353101    
 DIIS: error= 1.04D-01 at cycle   1 NSaved=   1.
 NSaved= 1 IEnMin= 1 EnMin= -1199.11724353101     IErMin= 1 ErrMin= 1.04D-01
 ErrMax= 1.04D-01  0.00D+00 EMaxC= 1.00D-01 BMatC= 3.37D+00 BMatP= 3.37D+00
 IDIUse=3 WtCom= 0.00D+00 WtEn= 1.00D+00
 Coeff-Com:  0.100D+01
 Coeff-En:   0.100D+01
 Coeff:      0.100D+01
 Gap=     0.637 Goal=   None    Shift=    0.000
 GapD=    0.637 DampG=2.000 DampE=0.250 DampFc=0.5000 IDamp=-1.
 Damping current iteration by 5.00D-01
 RMSDP=8.37D-03 MaxDP=3.44D-01              OVMax= 2.23D-01

 Cycle   2  Pass 1  IDiag  1:
 E= -1199.46672568827     Delta-E=       -0.349482157263 Rises=F Damp=T
 DIIS: error= 4.49D-02 at cycle   2 NSaved=   2.
 NSaved= 2 IEnMin= 2 EnMin= -1199.46672568827     IErMin= 2 ErrMin= 4.49D-02
 ErrMax= 4.49D-02  0.00D+00 EMaxC= 1.00D-01 BMatC= 4.86D-01 BMatP= 3.37D+00
 IDIUse=3 WtCom= 5.51D-01 WtEn= 4.49D-01
 Coeff-Com: -0.358D+00 0.136D+01
 Coeff-En:   0.000D+00 0.100D+01
 Coeff:     -0.197D+00 0.120D+01
 Gap=     0.557 Goal=   None    Shift=    0.000
 RMSDP=2.86D-03 MaxDP=1.71D-01 DE=-3.49D-01 OVMax= 1.41D-01

 Cycle   3  Pass 1  IDiag  1:
 E= -1199.74622353309     Delta-E=       -0.279497844813 Rises=F Damp=F
 DIIS: error= 1.55D-02 at cycle   3 NSaved=   3.
 NSaved= 3 IEnMin= 3 EnMin= -1199.74622353309     IErMin= 3 ErrMin= 1.55D-02
 ErrMax= 1.55D-02  0.00D+00 EMaxC= 1.00D-01 BMatC= 1.21D-01 BMatP= 4.86D-01
 IDIUse=3 WtCom= 8.45D-01 WtEn= 1.55D-01
 Coeff-Com: -0.196D+00 0.559D+00 0.637D+00
 Coeff-En:   0.000D+00 0.000D+00 0.100D+01
 Coeff:     -0.166D+00 0.472D+00 0.693D+00
 Gap=     0.476 Goal=   None    Shift=    0.000
 RMSDP=2.89D-03 MaxDP=1.42D-01 DE=-2.79D-01 OVMax= 9.21D-02

 Cycle   4  Pass 1  IDiag  1:
 E= -1199.80452662623     Delta-E=       -0.058303093139 Rises=F Damp=F
 DIIS: error= 7.62D-03 at cycle   4 NSaved=   4.
 NSaved= 4 IEnMin= 4 EnMin= -1199.80452662623     IErMin= 4 ErrMin= 7.62D-03
 ErrMax= 7.62D-03  0.00D+00 EMaxC= 1.00D-01 BMatC= 2.58D-02 BMatP= 1.21D-01
 IDIUse=3 WtCom= 9.24D-01 WtEn= 7.62D-02
 Coeff-Com: -0.432D-01 0.103D+00 0.348D+00 0.592D+00
 Coeff-En:   0.000D+00 0.000D+00 0.178D+00 0.822D+00
 Coeff:     -0.399D-01 0.952D-01 0.335D+00 0.610D+00
 Gap=     0.465 Goal=   None    Shift=    0.000
 RMSDP=1.25D-03 MaxDP=6.84D-02 DE=-5.83D-02 OVMax= 3.54D-02

 Cycle   5  Pass 1  IDiag  1:
 E= -1199.82017639119     Delta-E=       -0.015649764960 Rises=F Damp=F
 DIIS: error= 1.34D-03 at cycle   5 NSaved=   5.
 NSaved= 5 IEnMin= 5 EnMin= -1199.82017639119     IErMin= 5 ErrMin= 1.34D-03
 ErrMax= 1.34D-03  0.00D+00 EMaxC= 1.00D-01 BMatC= 1.04D-03 BMatP= 2.58D-02
 IDIUse=3 WtCom= 9.87D-01 WtEn= 1.34D-02
 Coeff-Com: -0.112D-01 0.233D-01 0.140D+00 0.315D+00 0.533D+00
 Coeff-En:   0.000D+00 0.000D+00 0.000D+00 0.000D+00 0.100D+01
 Coeff:     -0.110D-01 0.230D-01 0.138D+00 0.310D+00 0.540D+00
 Gap=     0.459 Goal=   None    Shift=    0.000
 RMSDP=1.74D-04 MaxDP=1.04D-02 DE=-1.56D-02 OVMax= 3.48D-03

 Cycle   6  Pass 1  IDiag  1:
 E= -1199.82076763446     Delta-E=       -0.000591243275 Rises=F Damp=F
 DIIS: error= 1.76D-04 at cycle   6 NSaved=   6.
 NSaved= 6 IEnMin= 6 EnMin= -1199.82076763446     IErMin= 6 ErrMin= 1.76D-04
 ErrMax= 1.76D-04  0.00D+00 EMaxC= 1.00D-01 BMatC= 2.22D-05 BMatP= 1.04D-03
 IDIUse=3 WtCom= 9.98D-01 WtEn= 1.76D-03
 Coeff-Com:  0.260D-02-0.661D-02-0.745D-02 0.918D-02 0.127D+00 0.876D+00
 Coeff-En:   0.000D+00 0.000D+00 0.000D+00 0.000D+00 0.000D+00 0.100D+01
 Coeff:      0.260D-02-0.659D-02-0.743D-02 0.916D-02 0.126D+00 0.876D+00
 Gap=     0.458 Goal=   None    Shift=    0.000
 RMSDP=5.77D-05 MaxDP=3.18D-03 DE=-5.91D-04 OVMax= 1.08D-03

 Cycle   7  Pass 1  IDiag  1:
 E= -1199.82078844817     Delta-E=       -0.000020813709 Rises=F Damp=F
 DIIS: error= 7.20D-05 at cycle   7 NSaved=   7.
 NSaved= 7 IEnMin= 7 EnMin= -1199.82078844817     IErMin= 7 ErrMin= 7.20D-05
 ErrMax= 7.20D-05  0.00D+00 EMaxC= 1.00D-01 BMatC= 2.85D-06 BMatP= 2.22D-05
 IDIUse=1 WtCom= 1.00D+00 WtEn= 0.00D+00
 Coeff-Com:  0.167D-02-0.383D-02-0.122D-01-0.186D-01-0.538D-03 0.301D+00
 Coeff-Com:  0.732D+00
 Coeff:      0.167D-02-0.383D-02-0.122D-01-0.186D-01-0.538D-03 0.301D+00
 Coeff:      0.732D+00
 Gap=     0.458 Goal=   None    Shift=    0.000
 RMSDP=1.27D-05 MaxDP=3.49D-04 DE=-2.08D-05 OVMax= 3.88D-04

 Cycle   8  Pass 1  IDiag  1:
 E= -1199.82079019593     Delta-E=       -0.000001747761 Rises=F Damp=F
 DIIS: error= 4.36D-05 at cycle   8 NSaved=   8.
 NSaved= 8 IEnMin= 8 EnMin= -1199.82079019593     IErMin= 8 ErrMin= 4.36D-05
 ErrMax= 4.36D-05  0.00D+00 EMaxC= 1.00D-01 BMatC= 8.68D-07 BMatP= 2.85D-06
 IDIUse=1 WtCom= 1.00D+00 WtEn= 0.00D+00
 Coeff-Com:  0.583D-03-0.125D-02-0.581D-02-0.115D-01-0.171D-01 0.621D-01
 Coeff-Com:  0.413D+00 0.560D+00
 Coeff:      0.583D-03-0.125D-02-0.581D-02-0.115D-01-0.171D-01 0.621D-01
 Coeff:      0.413D+00 0.560D+00
 Gap=     0.458 Goal=   None    Shift=    0.000
 RMSDP=7.33D-06 MaxDP=4.91D-04 DE=-1.75D-06 OVMax= 1.96D-04

 Cycle   9  Pass 1  IDiag  1:
 E= -1199.82079078413     Delta-E=       -0.000000588199 Rises=F Damp=F
 DIIS: error= 8.91D-06 at cycle   9 NSaved=   9.
 NSaved= 9 IEnMin= 9 EnMin= -1199.82079078413     IErMin= 9 ErrMin= 8.91D-06
 ErrMax= 8.91D-06  0.00D+00 EMaxC= 1.00D-01 BMatC= 3.09D-08 BMatP= 8.68D-07
 IDIUse=1 WtCom= 1.00D+00 WtEn= 0.00D+00
 Coeff-Com:  0.837D-04-0.166D-03-0.125D-02-0.294D-02-0.617D-02 0.150D-02
 Coeff-Com:  0.953D-01 0.190D+00 0.724D+00
 Coeff:      0.837D-04-0.166D-03-0.125D-02-0.294D-02-0.617D-02 0.150D-02
 Coeff:      0.953D-01 0.190D+00 0.724D+00
 Gap=     0.458 Goal=   None    Shift=    0.000
 RMSDP=2.48D-06 MaxDP=1.42D-04 DE=-5.88D-07 OVMax= 5.42D-05

 Cycle  10  Pass 1  IDiag  1:
 E= -1199.82079080944     Delta-E=       -0.000000025308 Rises=F Damp=F
 DIIS: error= 4.89D-06 at cycle  10 NSaved=  10.
 NSaved=10 IEnMin=10 EnMin= -1199.82079080944     IErMin=10 ErrMin= 4.89D-06
 ErrMax= 4.89D-06  0.00D+00 EMaxC= 1.00D-01 BMatC= 1.16D-08 BMatP= 3.09D-08
 IDIUse=1 WtCom= 1.00D+00 WtEn= 0.00D+00
 Coeff-Com: -0.801D-04 0.178D-03 0.529D-03 0.821D-03 0.338D-03-0.127D-01
 Coeff-Com: -0.407D-01-0.269D-01 0.399D+00 0.679D+00
 Coeff:     -0.801D-04 0.178D-03 0.529D-03 0.821D-03 0.338D-03-0.127D-01
 Coeff:     -0.407D-01-0.269D-01 0.399D+00 0.679D+00
 Gap=     0.458 Goal=   None    Shift=    0.000
 RMSDP=1.12D-06 MaxDP=6.86D-05 DE=-2.53D-08 OVMax= 3.16D-05

 Cycle  11  Pass 1  IDiag  1:
 E= -1199.82079081932     Delta-E=       -0.000000009878 Rises=F Damp=F
 DIIS: error= 5.68D-07 at cycle  11 NSaved=  11.
 NSaved=11 IEnMin=11 EnMin= -1199.82079081932     IErMin=11 ErrMin= 5.68D-07
 ErrMax= 5.68D-07  0.00D+00 EMaxC= 1.00D-01 BMatC= 2.21D-10 BMatP= 1.16D-08
 IDIUse=1 WtCom= 1.00D+00 WtEn= 0.00D+00
 Coeff-Com: -0.134D-04 0.284D-04 0.114D-03 0.289D-03 0.601D-03-0.462D-03
 Coeff-Com: -0.107D-01-0.165D-01-0.252D-01 0.443D-01 0.101D+01
 Coeff:     -0.134D-04 0.284D-04 0.114D-03 0.289D-03 0.601D-03-0.462D-03
 Coeff:     -0.107D-01-0.165D-01-0.252D-01 0.443D-01 0.101D+01
 Gap=     0.458 Goal=   None    Shift=    0.000
 RMSDP=3.91D-07 MaxDP=2.21D-05 DE=-9.88D-09 OVMax= 1.03D-05

 Cycle  12  Pass 1  IDiag  1:
 E= -1199.82079081971     Delta-E=       -0.000000000392 Rises=F Damp=F
 DIIS: error= 3.25D-07 at cycle  12 NSaved=  12.
 NSaved=12 IEnMin=12 EnMin= -1199.82079081971     IErMin=12 ErrMin= 3.25D-07
 ErrMax= 3.25D-07  0.00D+00 EMaxC= 1.00D-01 BMatC= 5.67D-11 BMatP= 2.21D-10
 IDIUse=1 WtCom= 1.00D+00 WtEn= 0.00D+00
 Coeff-Com:  0.172D-05-0.430D-05-0.832D-05 0.294D-04 0.183D-03 0.758D-03
 Coeff-Com: -0.856D-03-0.425D-02-0.429D-01-0.356D-01 0.459D+00 0.623D+00
 Coeff:      0.172D-05-0.430D-05-0.832D-05 0.294D-04 0.183D-03 0.758D-03
 Coeff:     -0.856D-03-0.425D-02-0.429D-01-0.356D-01 0.459D+00 0.623D+00
 Gap=     0.458 Goal=   None    Shift=    0.000
 RMSDP=5.22D-08 MaxDP=1.89D-06 DE=-3.92D-10 OVMax= 2.13D-06

 Cycle  13  Pass 1  IDiag  1:
 E= -1199.82079081972     Delta-E=       -0.000000000008 Rises=F Damp=F
 DIIS: error= 1.26D-07 at cycle  13 NSaved=  13.
 NSaved=13 IEnMin=13 EnMin= -1199.82079081972     IErMin=13 ErrMin= 1.26D-07
 ErrMax= 1.26D-07  0.00D+00 EMaxC= 1.00D-01 BMatC= 3.49D-12 BMatP= 5.67D-11
 IDIUse=1 WtCom= 1.00D+00 WtEn= 0.00D+00
 Coeff-Com:  0.149D-05-0.319D-05-0.104D-04-0.202D-04-0.146D-04 0.163D-03
 Coeff-Com:  0.881D-03 0.618D-03-0.473D-02-0.986D-02-0.285D-01 0.163D+00
 Coeff-Com:  0.878D+00
 Coeff:      0.149D-05-0.319D-05-0.104D-04-0.202D-04-0.146D-04 0.163D-03
 Coeff:      0.881D-03 0.618D-03-0.473D-02-0.986D-02-0.285D-01 0.163D+00
 Coeff:      0.878D+00
 Gap=     0.458 Goal=   None    Shift=    0.000
 RMSDP=2.78D-08 MaxDP=9.06D-07 DE=-8.19D-12 OVMax= 8.84D-07

 Cycle  14  Pass 1  IDiag  1:
 E= -1199.82079081972     Delta-E=       -0.000000000008 Rises=F Damp=F
 DIIS: error= 1.87D-08 at cycle  14 NSaved=  14.
 NSaved=14 IEnMin=14 EnMin= -1199.82079081972     IErMin=14 ErrMin= 1.87D-08
 ErrMax= 1.87D-08  0.00D+00 EMaxC= 1.00D-01 BMatC= 3.11D-13 BMatP= 3.49D-12
 IDIUse=1 WtCom= 1.00D+00 WtEn= 0.00D+00
 Coeff-Com:  0.485D-06-0.101D-05-0.344D-05-0.976D-05-0.174D-04 0.159D-04
 Coeff-Com:  0.375D-03 0.479D-03 0.154D-02-0.438D-03-0.431D-01 0.105D-02
 Coeff-Com:  0.278D+00 0.763D+00
 Coeff:      0.485D-06-0.101D-05-0.344D-05-0.976D-05-0.174D-04 0.159D-04
 Coeff:      0.375D-03 0.479D-03 0.154D-02-0.438D-03-0.431D-01 0.105D-02
 Coeff:      0.278D+00 0.763D+00
 Gap=     0.458 Goal=   None    Shift=    0.000
 RMSDP=7.05D-09 MaxDP=2.23D-07 DE=-8.19D-12 OVMax= 3.97D-07

 SCF Done:  E(RwB97XD) =  -1199.82079082     A.U. after   14 cycles
            NFock= 14  Conv=0.70D-08     -V/T= 2.0020
 KE= 1.197449493536D+03 PE=-4.699547281735D+03 EE= 1.375646047797D+03
 Leave Link  502 at Fri May 23 04:25:59 2025, MaxMem=  3758096384 cpu:              77.8 elap:              16.8
 (Enter /apps/easybuild-2022/easybuild/software/Compiler/NVHPC/22.11-CUDA-11.7.0/Gaussian/g16c01-CUDA-11.7.0/g16/l508.exe)
 QCSCF skips out because SCF is already converged.
 Leave Link  508 at Fri May 23 04:25:59 2025, MaxMem=  3758096384 cpu:               0.0 elap:               0.0
 (Enter /apps/easybuild-2022/easybuild/software/Compiler/NVHPC/22.11-CUDA-11.7.0/Gaussian/g16c01-CUDA-11.7.0/g16/l801.exe)
 DoSCS=F DFT=T ScalE2(SS,OS)=  1.000000  1.000000
 Range of M.O.s used for correlation:     1   257
 NBasis=   257 NAE=    49 NBE=    49 NFC=     0 NFV=     0
 NROrb=    257 NOA=    49 NOB=    49 NVA=   208 NVB=   208

 **** Warning!!: The largest alpha MO coefficient is  0.36610794D+02

 Leave Link  801 at Fri May 23 04:25:59 2025, MaxMem=  3758096384 cpu:               0.1 elap:               0.0
 (Enter /apps/easybuild-2022/easybuild/software/Compiler/NVHPC/22.11-CUDA-11.7.0/Gaussian/g16c01-CUDA-11.7.0/g16/l1101.exe)
 Using compressed storage, NAtomX=    12.
 Will process     13 centers per pass.
 R6Disp: Adding Grimme-D2 dispersion energy 1st derivatives to the gradient.
 Leave Link 1101 at Fri May 23 04:25:59 2025, MaxMem=  3758096384 cpu:               1.0 elap:               0.2
 (Enter /apps/easybuild-2022/easybuild/software/Compiler/NVHPC/22.11-CUDA-11.7.0/Gaussian/g16c01-CUDA-11.7.0/g16/l1102.exe)
 Symmetrizing basis deriv contribution to polar:
 IMax=3 JMax=2 DiffMx= 0.00D+00
 Leave Link 1102 at Fri May 23 04:25:59 2025, MaxMem=  3758096384 cpu:               0.1 elap:               0.0
 (Enter /apps/easybuild-2022/easybuild/software/Compiler/NVHPC/22.11-CUDA-11.7.0/Gaussian/g16c01-CUDA-11.7.0/g16/l1110.exe)
 Forming Gx(P) for the SCF density, NAtomX=    12.
 Integral derivatives from FoFJK, PRISM(SPDF).
 Do as many integral derivatives as possible in FoFJK.
 G2DrvN: MDV=    3758095012.
 G2DrvN: will do    13 centers at a time, making    1 passes.
 Calling FoFCou, ICntrl=  3107 FMM=F I1Cent=   0 AccDes= 0.00D+00.
 FoFJK:  IHMeth= 1 ICntrl=    3107 DoSepK=T KAlg= 0 I1Cent=           0 FoldK=F
 IRaf=         1 NMat=       1 IRICut=       1 DoRegI=T DoRafI=F ISym2E= 0 IDoP0=0 IntGTp=1.
 FoFCou: FMM=F IPFlag=           0 FMFlag=      100000 FMFlg1=           0
         NFxFlg=           0 DoJE=F BraDBF=F KetDBF=F FulRan=T
         wScrn=  0.000000 ICntrl=      3507 IOpCl=  0 I1Cent=           0 NGrid=           0
         NMat0=    1 NMatS0=      1 NMatT0=    0 NMatD0=    1 NMtDS0=    0 NMtDT0=    0
 Symmetry not used in FoFCou.
 End of G2Drv F.D. properties file   721 does not exist.
 End of G2Drv F.D. properties file   722 does not exist.
 End of G2Drv F.D. properties file   788 does not exist.
 Leave Link 1110 at Fri May 23 04:26:15 2025, MaxMem=  3758096384 cpu:             125.4 elap:              16.0
 (Enter /apps/easybuild-2022/easybuild/software/Compiler/NVHPC/22.11-CUDA-11.7.0/Gaussian/g16c01-CUDA-11.7.0/g16/l1002.exe)
 Minotr:  Closed shell wavefunction.
          IDoAtm=111111111111
          Direct CPHF calculation.
          Differentiating once with respect to nuclear coordinates.
          Requested convergence is 1.0D-08 RMS, and 1.0D-07 maximum.
          Secondary convergence is 1.0D-12 RMS, and 1.0D-12 maximum.
          NewPWx=T KeepS1=F KeepF1=F KeepIn=T MapXYZ=F SortEE=F KeepMc=T.
         3710 words used for storage of precomputed grid.
 Keep R1 ints in memory in canonical form, NReq=1117480302.
 FoFCou: FMM=F IPFlag=           0 FMFlag=           0 FMFlg1=           0
         NFxFlg=           0 DoJE=F BraDBF=F KetDBF=F FulRan=T
         wScrn=  0.000000 ICntrl=       600 IOpCl=  0 I1Cent=           0 NGrid=           0
         NMat0=    1 NMatS0=  33153 NMatT0=    0 NMatD0=    1 NMtDS0=    0 NMtDT0=    0
 Symmetry not used in FoFCou.
 Two-electron integral symmetry not used.
          MDV=    3758096384 using IRadAn=       1.
          Solving linear equations simultaneously, MaxMat=       0.
          There are    39 degrees of freedom in the 1st order CPHF.  IDoFFX=6 NUNeed=     0.
     33 vectors produced by pass  0 Test12= 2.61D-14 2.56D-09 XBig12= 2.12D-01 6.77D-02.
 AX will form    33 AO Fock derivatives at one time.
     33 vectors produced by pass  1 Test12= 2.61D-14 2.56D-09 XBig12= 1.42D-02 3.04D-02.
     33 vectors produced by pass  2 Test12= 2.61D-14 2.56D-09 XBig12= 1.73D-03 6.61D-03.
     33 vectors produced by pass  3 Test12= 2.61D-14 2.56D-09 XBig12= 3.10D-05 8.28D-04.
     33 vectors produced by pass  4 Test12= 2.61D-14 2.56D-09 XBig12= 4.67D-07 9.42D-05.
     33 vectors produced by pass  5 Test12= 2.61D-14 2.56D-09 XBig12= 6.19D-09 1.00D-05.
     33 vectors produced by pass  6 Test12= 2.61D-14 2.56D-09 XBig12= 5.17D-11 7.33D-07.
     21 vectors produced by pass  7 Test12= 2.61D-14 2.56D-09 XBig12= 3.61D-13 5.31D-08.
      5 vectors produced by pass  8 Test12= 2.61D-14 2.56D-09 XBig12= 2.07D-15 4.06D-09.
 InvSVY:  IOpt=1 It=  1 EMax= 1.11D-15
 Solved reduced A of dimension   257 with    33 vectors.
 End of Minotr F.D. properties file   721 does not exist.
 End of Minotr F.D. properties file   722 does not exist.
 End of Minotr F.D. properties file   788 does not exist.
 Leave Link 1002 at Fri May 23 04:26:48 2025, MaxMem=  3758096384 cpu:             252.1 elap:              32.7
 (Enter /apps/easybuild-2022/easybuild/software/Compiler/NVHPC/22.11-CUDA-11.7.0/Gaussian/g16c01-CUDA-11.7.0/g16/l701.exe)
 ... and contract with generalized density number  0.
 Compute integral second derivatives.
 R6Disp: Adding Grimme-D2 dispersion energy 2nd derivatives to the Hessian.
 Leave Link  701 at Fri May 23 04:26:48 2025, MaxMem=  3758096384 cpu:               0.9 elap:               0.2
 (Enter /apps/easybuild-2022/easybuild/software/Compiler/NVHPC/22.11-CUDA-11.7.0/Gaussian/g16c01-CUDA-11.7.0/g16/l702.exe)
 L702 exits ... SP integral derivatives will be done elsewhere.
 Leave Link  702 at Fri May 23 04:26:48 2025, MaxMem=  3758096384 cpu:               0.1 elap:               0.1
 (Enter /apps/easybuild-2022/easybuild/software/Compiler/NVHPC/22.11-CUDA-11.7.0/Gaussian/g16c01-CUDA-11.7.0/g16/l703.exe)
 Integral derivatives from FoFJK, PRISM(SPDF).
 Compute integral second derivatives, UseDBF=F ICtDFT=           0.
 Calling FoFJK, ICntrl=    100127 FMM=F ISym2X=0 I1Cent= 0 IOpClX= 0 NMat=1 NMatS=1 NMatT=0.
 FoFJK:  IHMeth= 1 ICntrl=  100127 DoSepK=T KAlg= 0 I1Cent=           0 FoldK=F
 IRaf=         1 NMat=       1 IRICut=       1 DoRegI=T DoRafI=F ISym2E= 0 IDoP0=0 IntGTp=1.
 FoFCou: FMM=F IPFlag=           0 FMFlag=      100000 FMFlg1=         800
         NFxFlg=           0 DoJE=F BraDBF=F KetDBF=F FulRan=T
         wScrn=  0.000000 ICntrl=    100527 IOpCl=  0 I1Cent=           0 NGrid=           0
         NMat0=    1 NMatS0=      1 NMatT0=    0 NMatD0=    1 NMtDS0=    0 NMtDT0=    0
 Symmetry not used in FoFCou.
 Leave Link  703 at Fri May 23 04:27:34 2025, MaxMem=  3758096384 cpu:             360.0 elap:              45.9
 (Enter /apps/easybuild-2022/easybuild/software/Compiler/NVHPC/22.11-CUDA-11.7.0/Gaussian/g16c01-CUDA-11.7.0/g16/l716.exe)
 Dipole        =-3.29476209D-01 8.55002191D-01 1.24309941D-01
 Polarizability= 0.00000000D+00 0.00000000D+00 0.00000000D+00
                 0.00000000D+00 0.00000000D+00 0.00000000D+00
 -------------------------------------------------------------------
 Center     Atomic                   Forces (Hartrees/Bohr)
 Number     Number              X              Y              Z
 -------------------------------------------------------------------
      1        6          -0.003109332    0.001271959   -0.016066296
      2        6           0.003475556   -0.000979755    0.006756074
      3        9          -0.000768640    0.007336994    0.006891571
      4        9           0.001046046    0.015849053    0.014005604
      5       16          -0.000542186   -0.028011979   -0.008819067
      6        8          -0.001197219    0.002806229    0.000535279
      7        8           0.001761257   -0.005746772    0.005157915
      8        8          -0.000170805    0.007633438   -0.017784883
      9        9           0.000166844   -0.000157731    0.001312331
     10        9          -0.001744814    0.002641609    0.003777647
     11        9           0.001522863   -0.004548844    0.006528995
     12        1          -0.000439570    0.001905801   -0.002295169
 -------------------------------------------------------------------
 Cartesian Forces:  Max     0.028011979 RMS     0.007973782
 Force constants in Cartesian coordinates: 
                1             2             3             4             5 
      1  0.583279D+00
      2  0.112053D-01  0.567488D+00
      3 -0.137968D-01  0.290909D-01  0.528748D+00
      4 -0.173818D+00  0.119857D-01 -0.178836D-01  0.498967D+00
      5 -0.154326D-02 -0.448058D-01  0.762874D-02  0.459959D-01  0.532365D+00
      6  0.649898D-02  0.447211D-02 -0.490110D-01 -0.341662D-01  0.520481D-01
      7 -0.520131D-02  0.258631D-02  0.113830D-01  0.407415D-02  0.583432D-02
      8  0.273568D-02 -0.518056D-02 -0.677776D-02  0.165084D-02 -0.631864D-02
      9  0.704350D-02 -0.336675D-03 -0.656817D-02  0.180021D-01 -0.290415D-01
     10 -0.757259D-02  0.205722D-01  0.394737D-01 -0.101365D+00  0.285726D-01
     11  0.458014D-02 -0.953109D-02 -0.167400D-01  0.330282D-01 -0.106815D+00
     12  0.293422D-02 -0.149274D-01 -0.254622D-01  0.652642D-01 -0.756130D-01
     13 -0.392267D-02  0.168495D-01 -0.384356D-01 -0.774918D-01  0.243801D-01
     14  0.131689D-01  0.227107D-01  0.677434D-02  0.165333D-01 -0.383369D-01
     15 -0.295170D-01  0.403377D-02  0.170565D-01 -0.264169D-01  0.434542D-01
     16  0.754121D-02  0.154880D-02 -0.230187D-02 -0.157353D-01 -0.187821D-01
     17 -0.258163D-02 -0.424256D-02  0.132210D-02  0.546336D-02 -0.185557D-02
     18  0.847363D-02  0.264825D-02 -0.666629D-02 -0.191538D-01 -0.732464D-02
     19 -0.239221D-02 -0.749143D-02  0.454059D-02  0.993009D-02  0.329919D-02
     20 -0.816291D-02 -0.835298D-02  0.193429D-02 -0.131138D-01 -0.641493D-02
     21  0.532564D-02 -0.158151D-02 -0.399564D-02  0.580329D-02  0.829084D-02
     22 -0.669379D-02 -0.398627D-01  0.294938D-02 -0.116531D+00 -0.823506D-01
     23 -0.504884D-02 -0.292716D-01  0.313363D-03 -0.108163D+00 -0.268972D+00
     24 -0.163866D-02 -0.324820D-04 -0.289595D-04  0.124004D-01 -0.879511D-03
     25 -0.140184D+00 -0.929101D-01 -0.760248D-03 -0.336276D-02 -0.399361D-01
     26 -0.101704D+00 -0.251844D+00 -0.280273D-02 -0.354956D-02 -0.219772D-01
     27 -0.254872D-02 -0.238703D-02 -0.743498D-01  0.205853D-02 -0.325618D-02
     28 -0.136260D+00  0.492940D-01  0.772934D-01 -0.385914D-02  0.222883D-01
     29  0.552993D-01 -0.127240D+00 -0.811059D-01 -0.132895D-02 -0.643914D-02
     30  0.819176D-01 -0.826049D-01 -0.195860D+00  0.352514D-02 -0.135554D-01
     31 -0.114754D+00  0.321580D-01 -0.592023D-01 -0.179212D-01  0.228763D-01
     32  0.354255D-01 -0.110338D+00  0.617758D-01  0.517371D-02 -0.685762D-02
     33 -0.624921D-01  0.613785D-01 -0.185387D+00 -0.108284D-01  0.158172D-01
     34 -0.215179D-04 -0.593552D-02 -0.325970D-02 -0.288717D-02 -0.106345D-01
     35 -0.337408D-02  0.606955D-03 -0.141316D-02  0.632402D-02 -0.235717D-01
     36 -0.220030D-02  0.246435D-03  0.152352D-02  0.139516D-02  0.243118D-02
                6             7             8             9            10 
      6  0.451436D+00
      7 -0.599817D-02  0.107929D+00
      8  0.725489D-02 -0.547233D-01  0.100008D+00
      9  0.384314D-02 -0.797943D-01  0.821377D-01  0.154118D+00
     10  0.490209D-01  0.715194D-03 -0.471020D-03 -0.219892D-02  0.101358D+00
     11 -0.626361D-01  0.128680D-04  0.132551D-02  0.577936D-03 -0.438014D-01
     12 -0.200686D+00 -0.491076D-03  0.879211D-03 -0.119709D-01 -0.761038D-01
     13 -0.379504D-01 -0.970581D-01  0.357784D-01  0.596012D-01  0.284546D-02
     14  0.319190D-01  0.383528D-01 -0.982959D-01 -0.590730D-01 -0.105026D-02
     15 -0.994528D-01  0.589232D-01 -0.571648D-01 -0.155049D+00 -0.187038D-02
     16  0.215773D-01 -0.186291D-01 -0.319703D-02  0.329818D-02  0.313091D-02
     17  0.326397D-02  0.172341D-01  0.112067D-01 -0.385151D-02  0.298900D-04
     18  0.131501D-01  0.271745D-01 -0.107639D-02  0.877430D-02  0.120623D-02
     19 -0.132562D-02  0.103711D-01  0.163903D-01  0.358467D-02 -0.626956D-04
     20 -0.264255D-01 -0.454425D-02 -0.181306D-01 -0.501496D-02 -0.890926D-03
     21  0.144885D-01 -0.273504D-03 -0.283919D-01  0.872412D-02 -0.224214D-03
     22  0.283240D-01  0.131311D-02  0.168887D-03 -0.235872D-03  0.131919D-01
     23  0.266547D-01 -0.339277D-02  0.896086D-02  0.116940D-01 -0.304163D-02
     24 -0.988670D-01 -0.228044D-03  0.565038D-04  0.253938D-04 -0.123930D-01
     25 -0.120942D-02  0.690553D-03 -0.153372D-03 -0.151386D-02 -0.857435D-03
     26 -0.242708D-02 -0.846696D-03  0.208145D-02 -0.309871D-03 -0.661496D-03
     27  0.421747D-02 -0.101695D-02  0.340791D-03  0.640496D-03 -0.103442D-02
     28  0.331947D-01 -0.369632D-02  0.144785D-02 -0.627387D-02 -0.118578D-01
     29 -0.137112D-01 -0.155304D-04  0.244965D-02  0.296195D-02  0.404653D-02
     30 -0.127916D-01 -0.102280D-01  0.574191D-02  0.159442D-02  0.443934D-02
     31 -0.403589D-01  0.185116D-02 -0.106454D-02 -0.243212D-02  0.540934D-03
     32  0.159155D-01 -0.348574D-03  0.724005D-03  0.698899D-03 -0.505106D-03
     33 -0.260931D-01 -0.110302D-02  0.528084D-03 -0.105637D-03 -0.259769D-03
     34 -0.176072D-01 -0.235973D-02  0.143726D-02  0.919314D-03 -0.666123D-04
     35 -0.363285D-01 -0.149308D-03  0.116941D-02 -0.442905D-03 -0.279935D-02
     36 -0.233662D-03  0.165231D-02 -0.352828D-02 -0.402675D-02 -0.556053D-04
               11            12            13            14            15 
     11  0.148105D+00
     12  0.125624D+00  0.258467D+00
     13 -0.285863D-02  0.181488D-01  0.953393D+00
     14 -0.425666D-02 -0.278966D-01  0.288601D+00  0.961602D+00
     15 -0.234140D-02 -0.293259D-01  0.430256D-01 -0.189939D-01  0.448460D+00
     16 -0.192662D-02 -0.915468D-02 -0.632920D+00 -0.162449D+00 -0.641067D-01
     17  0.167433D-02  0.328086D-02 -0.160973D+00 -0.134104D+00 -0.134173D-01
     18 -0.614645D-03 -0.102934D-02 -0.698639D-01 -0.114806D-01 -0.904015D-01
     19  0.895485D-03 -0.152084D-02 -0.143967D+00 -0.182225D+00  0.595738D-02
     20  0.555947D-02  0.874030D-02 -0.184306D+00 -0.631696D+00  0.480498D-01
     21  0.539593D-03  0.874304D-03  0.565152D-02  0.507991D-01 -0.889434D-01
     22  0.564626D-02 -0.734487D-02 -0.373525D-02 -0.310145D-02 -0.316663D-02
     23 -0.372558D-01 -0.227470D-01 -0.156221D-01 -0.523409D-01 -0.161612D-02
     24 -0.491932D-01 -0.454603D-02  0.795671D-02  0.259090D-01 -0.715479D-03
     25  0.125202D-02  0.786211D-03 -0.102695D-02 -0.273507D-02  0.460227D-02
     26  0.495183D-02  0.265347D-02 -0.339270D-02 -0.114624D-01  0.203069D-02
     27  0.236751D-02  0.290928D-02  0.333900D-02  0.129959D-02 -0.204658D-02
     28  0.374005D-02  0.511425D-02 -0.356781D-03 -0.231745D-02  0.439632D-02
     29  0.358782D-03 -0.566546D-03 -0.384191D-04 -0.370851D-02 -0.398221D-02
     30 -0.715679D-03  0.667104D-03  0.706319D-02 -0.451490D-02 -0.105888D-01
     31 -0.365587D-03  0.650065D-03 -0.460530D-02 -0.431475D-02  0.987602D-02
     32  0.161455D-02  0.451688D-03 -0.918209D-03 -0.134944D-02 -0.307498D-02
     33  0.142462D-04  0.701811D-02  0.214658D-02 -0.276726D-02  0.296765D-02
     34 -0.202760D-03  0.171748D-02  0.884568D-02  0.153623D-02 -0.170309D-02
     35 -0.573113D-02  0.120707D-03  0.250017D-02 -0.876152D-02  0.302217D-02
     36  0.311756D-02  0.308493D-02 -0.682839D-03  0.802525D-02  0.803902D-02
               16            17            18            19            20 
     16  0.661629D+00
     17  0.173139D+00  0.115835D+00
     18  0.550323D-01  0.156223D-01  0.574340D-01
     19 -0.259253D-02 -0.389116D-01  0.438822D-02  0.128062D+00
     20  0.339150D-02  0.413206D-03 -0.685271D-03  0.198694D+00  0.662329D+00
     21 -0.922973D-03 -0.617034D-02  0.199426D-01 -0.102812D-01 -0.360979D-01
     22  0.541270D-02  0.631787D-02 -0.893944D-03  0.172770D-02  0.317252D-02
     23  0.754347D-02  0.703096D-02  0.322472D-02  0.365001D-02 -0.133527D-01
     24  0.789676D-04  0.984487D-03 -0.767883D-03 -0.176162D-02  0.803495D-02
     25 -0.961118D-03  0.771676D-03 -0.133417D-02 -0.107514D-02  0.277263D-02
     26 -0.413762D-03  0.235961D-02 -0.141788D-02  0.404025D-02  0.539990D-02
     27 -0.174527D-03 -0.488612D-03  0.522175D-03 -0.245225D-02 -0.399351D-03
     28 -0.126541D-02  0.431525D-03 -0.137173D-02  0.332526D-03  0.155531D-02
     29  0.583993D-03  0.541923D-03  0.764515D-03  0.819189D-03  0.978367D-03
     30  0.387158D-03  0.112402D-04  0.241072D-02 -0.178775D-03  0.346669D-03
     31 -0.357870D-02  0.100611D-02 -0.365296D-02  0.103882D-02  0.288940D-02
     32  0.164727D-02  0.533825D-03  0.834379D-03  0.802806D-03  0.298669D-03
     33 -0.286103D-02  0.103375D-03 -0.133541D-02 -0.504936D-03  0.112510D-02
     34 -0.203171D-02 -0.192758D-02 -0.441645D-05 -0.137275D-02 -0.145712D-02
     35 -0.108587D-02  0.606422D-03 -0.494680D-03  0.364864D-04  0.296855D-02
     36 -0.852123D-03 -0.660581D-03 -0.203351D-02 -0.445582D-03  0.391793D-03
               21            22            23            24            25 
     21  0.544950D-01
     22 -0.292737D-03  0.134903D+00
     23  0.120890D-01  0.106334D+00  0.491778D+00
     24 -0.540269D-02 -0.831680D-01  0.181154D+00  0.524237D+00
     25 -0.267775D-02 -0.128476D-01 -0.550153D-02 -0.117121D-02  0.121819D+00
     26  0.469388D-03 -0.677530D-02  0.228259D-03 -0.121062D-02  0.124272D+00
     27 -0.109203D-03 -0.700129D-03  0.901074D-04  0.969261D-03 -0.234743D-03
     28 -0.108498D-02 -0.341631D-03 -0.178196D-02 -0.214808D-02  0.193769D-01
     29  0.953629D-03  0.804476D-03  0.628618D-02  0.222745D-02  0.811206D-02
     30  0.202808D-02 -0.228196D-03  0.254373D-02  0.294994D-02 -0.161262D-02
     31 -0.173998D-02  0.440461D-03 -0.107799D-02  0.455941D-03  0.180797D-01
     32  0.532112D-03  0.158160D-03  0.587394D-02 -0.297970D-02  0.325471D-02
     33 -0.460055D-03  0.530335D-03 -0.212749D-02  0.332557D-02  0.358338D-02
     34  0.716926D-03 -0.168398D-01  0.261023D-01  0.816166D-01  0.348889D-03
     35 -0.143205D-02  0.948797D-02 -0.118966D+00 -0.164071D+00  0.801125D-03
     36 -0.164162D-02  0.642267D-01 -0.211273D+00 -0.421179D+00  0.154216D-02
               26            27            28            29            30 
     26  0.388272D+00
     27  0.611172D-03  0.816647D-01
     28 -0.496713D-02 -0.918027D-02  0.120755D+00
     29 -0.613684D-01 -0.489636D-01 -0.652849D-01  0.169485D+00
     30 -0.372544D-01 -0.598513D-02 -0.989984D-01  0.138518D+00  0.302428D+00
     31 -0.757718D-02  0.115840D-01  0.184520D-01 -0.554407D-02  0.117281D-01
     32 -0.568192D-01  0.506273D-01 -0.498075D-02  0.189247D-01 -0.867356D-02
     33  0.386825D-01 -0.823169D-02 -0.200540D-02  0.290683D-02 -0.858425D-01
     34  0.157567D-02  0.360458D-03 -0.128007D-02  0.254626D-02  0.218544D-02
     35  0.178675D-03  0.158321D-03  0.575108D-03 -0.268750D-03  0.157349D-03
     36  0.975445D-03 -0.200917D-03  0.106405D-02 -0.293578D-05 -0.101066D-02
               31            32            33            34            35 
     31  0.100683D+00
     32 -0.399428D-01  0.147896D+00
     33  0.729209D-01 -0.116364D+00  0.294398D+00
     34 -0.226994D-03  0.233246D-03  0.873373D-03  0.178918D-01
     35  0.957190D-03 -0.501381D-03  0.702519D-03 -0.132735D-01  0.152270D+00
     36  0.171269D-03  0.256126D-03 -0.254458D-03 -0.658151D-01  0.200021D+00
               36 
     36  0.417933D+00
 FormGI is forming the generalized inverse of G from B-inverse, IUseBI=4.
 Leave Link  716 at Fri May 23 04:27:34 2025, MaxMem=  3758096384 cpu:               0.1 elap:               0.0
 (Enter /apps/easybuild-2022/easybuild/software/Compiler/NVHPC/22.11-CUDA-11.7.0/Gaussian/g16c01-CUDA-11.7.0/g16/l103.exe)

 GradGradGradGradGradGradGradGradGradGradGradGradGradGradGradGradGradGrad
 Berny optimization.
 Red2BG is reusing G-inverse.
 Internal  Forces:  Max     0.019659687 RMS     0.006627103
 Search for a local minimum.
 Step number   1 out of a maximum of   61
 All quantities printed in internal units (Hartrees-Bohrs-Radians)
 RMS Force = .66271D-02 SwitMx=.10000D-02 MixMth= 1
 Mixed Optimization -- RFO/linear search
 Second derivative matrix not updated -- analytic derivatives used.
 ITU=  0
     Eigenvalues ---   -0.00255  -0.00027   0.00422   0.05952   0.07245
     Eigenvalues ---    0.08435   0.10058   0.10570   0.11091   0.12466
     Eigenvalues ---    0.13509   0.16262   0.17995   0.19197   0.20741
     Eigenvalues ---    0.22412   0.24019   0.24610   0.27966   0.29287
     Eigenvalues ---    0.36126   0.36672   0.37927   0.40202   0.44577
     Eigenvalues ---    0.50566   0.53516   0.56123   0.71920   0.73318
 Eigenvalue     1 is  -2.55D-03 should be greater than     0.000000 Eigenvector:
                          D18       D15       D12       D16       D13
   1                   -0.31100  -0.31026  -0.30853  -0.29940  -0.29867
                          D10       D17       D14       D11       D19
   1                   -0.29694  -0.29003  -0.28929  -0.28756  -0.14545
 Eigenvalue     2 is  -2.70D-04 should be greater than     0.000000 Eigenvector:
                          D19       D21       D20       D6        D3
   1                    0.55584   0.54725   0.53596  -0.10918  -0.10675
                          D4        D9        D1        D5        D7
   1                   -0.09859  -0.09822  -0.09617  -0.08790  -0.08764
 RFO step:  Lambda=-1.02180915D-02 EMin=-2.54644918D-03
 Linear search not attempted -- first point.
 Iteration  1 RMS(Cart)=  0.12949893 RMS(Int)=  0.04465737
 Iteration  2 RMS(Cart)=  0.04119336 RMS(Int)=  0.00345743
 Iteration  3 RMS(Cart)=  0.00329860 RMS(Int)=  0.00040497
 Iteration  4 RMS(Cart)=  0.00002118 RMS(Int)=  0.00040475
 Iteration  5 RMS(Cart)=  0.00000000 RMS(Int)=  0.00040475
 ITry= 1 IFail=0 DXMaxC= 5.61D-01 DCOld= 1.00D+10 DXMaxT= 3.00D-01 DXLimC= 3.00D+00 Rises=F
 Variable       Old X    -DE/DX   Delta X   Delta X   Delta X     New X
                                 (Linear)    (Quad)   (Total)
    R1        2.94406   0.00316   0.00000   0.00932   0.00932   2.95338
    R2        2.49644   0.00008   0.00000  -0.00145  -0.00145   2.49499
    R3        2.50098   0.00493   0.00000   0.02234   0.02234   2.52332
    R4        2.54078  -0.00802   0.00000  -0.02951  -0.02951   2.51127
    R5        2.56264  -0.01928   0.00000  -0.04337  -0.04337   2.51927
    R6        3.54091   0.01286   0.00000   0.04209   0.04209   3.58300
    R7        2.54560   0.00858   0.00000   0.00193   0.00193   2.54753
    R8        3.02774   0.00890   0.00000   0.04409   0.04409   3.07183
    R9        2.69492  -0.00032   0.00000  -0.00192  -0.00192   2.69300
   R10        2.69156   0.00512   0.00000   0.00511   0.00511   2.69667
   R11        1.82172  -0.00113   0.00000   0.00279   0.00279   1.82451
    A1        1.95987  -0.00074   0.00000  -0.00390  -0.00405   1.95582
    A2        1.94308  -0.00034   0.00000  -0.01947  -0.01953   1.92354
    A3        1.86448   0.00183   0.00000   0.02102   0.02104   1.88552
    A4        1.91245  -0.00014   0.00000  -0.00462  -0.00484   1.90761
    A5        1.89742  -0.00027   0.00000   0.00458   0.00451   1.90194
    A6        1.88393  -0.00029   0.00000   0.00392   0.00405   1.88798
    A7        1.86664   0.00631   0.00000   0.02235   0.02206   1.88869
    A8        1.99337  -0.00527   0.00000  -0.01224  -0.01329   1.98008
    A9        1.96373  -0.00662   0.00000   0.00962   0.00875   1.97248
   A10        1.86318  -0.00595   0.00000  -0.03133  -0.03052   1.83266
   A11        1.96392  -0.00874   0.00000  -0.06613  -0.06535   1.89857
   A12        1.81279   0.01966   0.00000   0.07207   0.07208   1.88488
   A13        1.68817   0.00130   0.00000  -0.03130  -0.03144   1.65673
   A14        1.92416  -0.00647   0.00000  -0.02918  -0.02950   1.89466
   A15        1.88935   0.01389   0.00000   0.06224   0.06222   1.95157
   A16        1.86520  -0.00404   0.00000  -0.01128  -0.01226   1.85294
   A17        1.86647  -0.00067   0.00000   0.00258   0.00309   1.86956
   A18        2.16834  -0.00333   0.00000  -0.00241  -0.00260   2.16575
   A19        1.93332   0.00389   0.00000  -0.01471  -0.01471   1.91861
    D1        0.97280   0.00259   0.00000   0.02135   0.02130   0.99411
    D2       -1.08438   0.00883   0.00000   0.05241   0.05230  -1.03208
    D3        3.13780  -0.00827   0.00000  -0.04007  -0.04002   3.09777
    D4        3.12455   0.00161   0.00000  -0.00210  -0.00202   3.12254
    D5        1.06737   0.00785   0.00000   0.02896   0.02898   1.09635
    D6       -0.99364  -0.00924   0.00000  -0.06352  -0.06334  -1.05698
    D7       -1.10580   0.00217   0.00000   0.00459   0.00453  -1.10127
    D8        3.12020   0.00841   0.00000   0.03565   0.03552  -3.12746
    D9        1.05919  -0.00868   0.00000  -0.05683  -0.05680   1.00240
   D10       -0.89928  -0.00417   0.00000  -0.25356  -0.25319  -1.15247
   D11       -2.83289   0.00142   0.00000  -0.21966  -0.22000  -3.05289
   D12        1.02678  -0.00094   0.00000  -0.24771  -0.24799   0.77879
   D13       -2.95844  -0.00496   0.00000  -0.25322  -0.25298   3.07177
   D14        1.39114   0.00063   0.00000  -0.21931  -0.21979   1.17135
   D15       -1.03238  -0.00172   0.00000  -0.24736  -0.24778  -1.28016
   D16        1.24603  -0.00182   0.00000  -0.19864  -0.19788   1.04815
   D17       -0.68758   0.00377   0.00000  -0.16474  -0.16469  -0.85227
   D18       -3.11110   0.00142   0.00000  -0.19279  -0.19268   2.97941
   D19        1.24778   0.00091   0.00000  -0.34791  -0.34732   0.90046
   D20       -2.92529  -0.00208   0.00000  -0.36004  -0.35941   2.99848
   D21       -0.91690  -0.00190   0.00000  -0.38650  -0.38772  -1.30462
         Item               Value     Threshold  Converged?
 Maximum Force            0.019660     0.000015     NO 
 RMS     Force            0.006627     0.000010     NO 
 Maximum Displacement     0.561072     0.000060     NO 
 RMS     Displacement     0.160326     0.000040     NO 
 Predicted change in Energy=-7.327610D-03
 Lowest energy point so far.  Saving SCF results.
 GradGradGradGradGradGradGradGradGradGradGradGradGradGradGradGradGradGrad

 Leave Link  103 at Fri May 23 04:27:34 2025, MaxMem=  3758096384 cpu:               0.1 elap:               0.1
 (Enter /apps/easybuild-2022/easybuild/software/Compiler/NVHPC/22.11-CUDA-11.7.0/Gaussian/g16c01-CUDA-11.7.0/g16/l202.exe)
                          Input orientation:                          
 ---------------------------------------------------------------------
 Center     Atomic      Atomic             Coordinates (Angstroms)
 Number     Number       Type             X           Y           Z
 ---------------------------------------------------------------------
      1          6           0        0.023947   -0.014706   -0.018631
      2          6           0        1.585207    0.034590    0.032133
      3          9           0        1.704414    0.131540    2.628822
      4          9           0        2.057338   -0.606188   -1.037335
      5         16           0        2.321166   -0.883428    1.518935
      6          8           0        3.730664   -0.673559    1.529154
      7          8           0        1.700038   -2.152484    1.719125
      8          8           0        2.073024    1.291325    0.035511
      9          9           0       -0.431527   -1.252671   -0.074767
     10          9           0       -0.491912    0.597255    1.050186
     11          9           0       -0.373276    0.641439   -1.103843
     12          1           0        1.643408    1.809230    0.727882
 ---------------------------------------------------------------------
                    Distance matrix (angstroms):
                    1          2          3          4          5
     1  C    0.000000
     2  C    1.562863   0.000000
     3  F    3.139166   2.601231   0.000000
     4  F    2.349956   1.333141   3.756262   0.000000
     5  S    2.897586   1.896041   1.625544   2.584760   0.000000
     6  O    4.070562   2.710264   2.441955   3.064542   1.425073
     7  O    3.224774   2.764493   2.458522   3.180686   1.427017
     8  O    2.430507   1.348095   2.864653   2.179862   2.644177
     9  F    1.320290   2.394929   3.713176   2.745711   3.202116
    10  F    1.335281   2.380640   2.744600   3.507805   3.213341
    11  F    1.328908   2.344006   4.302276   2.732926   4.057610
    12  H    2.550819   1.907040   2.536127   3.020194   2.887132
                    6          7          8          9         10
     6  O    0.000000
     7  O    2.519276   0.000000
     8  O    2.973131   3.851427   0.000000
     9  F    4.497974   2.927675   3.571673   0.000000
    10  F    4.435597   3.579551   2.844326   2.165962   0.000000
    11  F    5.050170   4.480377   2.775764   2.156395   2.157746
    12  H    3.341095   4.084231   0.965491   3.784817   2.476359
                   11         12
    11  F    0.000000
    12  H    2.964113   0.000000
 Symmetry turned off by external request.
 Stoichiometry    C2HF5O3S
 Rotational constants (GHZ):           1.5646464           0.8333713           0.7853688
 Leave Link  202 at Fri May 23 04:27:34 2025, MaxMem=  3758096384 cpu:               0.0 elap:               0.0
 (Enter /apps/easybuild-2022/easybuild/software/Compiler/NVHPC/22.11-CUDA-11.7.0/Gaussian/g16c01-CUDA-11.7.0/g16/l301.exe)
 Standard basis: 6-311++G(d,p) (5D, 7F)
 Ernie: Thresh=  0.10000D-02 Tol=  0.10000D-05 Strict=F.
   257 basis functions,   419 primitive gaussians,   268 cartesian basis functions
    49 alpha electrons       49 beta electrons
       nuclear repulsion energy       922.9321319448 Hartrees.
 IExCor= 4639 DFT=T Ex+Corr=wB97XD ExCW=0 ScaHFX=  1.000000
 ScaDFX=  1.000000  1.000000  1.000000  1.000000 ScalE2=  1.000000  1.000000
 IRadAn=      5 IRanWt=     -1 IRanGd=            0 ICorTp=0 IEmpDi=121
 HFx  wShort=  0.000000 wLong=  0.200000 cFull=  0.222036 cShort=  0.000000 cLong=  0.777964
 DFx  wShort=  0.000000 wLong=  0.200000 cFull=  0.000000 cShort=  0.000000 cLong=  1.000000
 NAtoms=   12 NActive=   12 NUniq=   12 SFac= 1.00D+00 NAtFMM=   60 NAOKFM=F Big=F
 Integral buffers will be    131072 words long.
 Raffenetti 2 integral format.
 Two-electron integral symmetry is turned off.
 R6Disp:  Grimme-D2 Dispersion energy=       -0.0060343709 Hartrees.
 Nuclear repulsion after empirical dispersion term =      922.9260975739 Hartrees.
 Leave Link  301 at Fri May 23 04:27:34 2025, MaxMem=  3758096384 cpu:               0.1 elap:               0.0
 (Enter /apps/easybuild-2022/easybuild/software/Compiler/NVHPC/22.11-CUDA-11.7.0/Gaussian/g16c01-CUDA-11.7.0/g16/l302.exe)
 NPDir=0 NMtPBC=     1 NCelOv=     1 NCel=       1 NClECP=     1 NCelD=      1
         NCelK=      1 NCelE2=     1 NClLst=     1 CellRange=     0.0.
 One-electron integrals computed using PRISM.
 NBasis=   257 RedAO= T EigKep=  4.45D-05  NBF=   257
 NBsUse=   257 1.00D-06 EigRej= -1.00D+00 NBFU=   257
 Precomputing XC quadrature grid using
 IXCGrd= 4 IRadAn=           5 IRanWt=          -1 IRanGd=           0 AccXCQ= 0.00D+00.
 Generated NRdTot=       0 NPtTot=           0 NUsed=           0 NTot=          32
 NSgBfM=   268   268   268   268   268 MxSgAt=    12 MxSgA2=    12.
 Leave Link  302 at Fri May 23 04:27:34 2025, MaxMem=  3758096384 cpu:               0.8 elap:               0.2
 (Enter /apps/easybuild-2022/easybuild/software/Compiler/NVHPC/22.11-CUDA-11.7.0/Gaussian/g16c01-CUDA-11.7.0/g16/l303.exe)
 DipDrv:  MaxL=1.
 Leave Link  303 at Fri May 23 04:27:34 2025, MaxMem=  3758096384 cpu:               0.1 elap:               0.0
 (Enter /apps/easybuild-2022/easybuild/software/Compiler/NVHPC/22.11-CUDA-11.7.0/Gaussian/g16c01-CUDA-11.7.0/g16/l401.exe)
 Initial guess from the checkpoint file:  "/tmp/Gau-247011.chk"
 B after Tr=     0.053462    0.023764    0.025136
         Rot=    0.999953   -0.003202   -0.000547    0.009126 Ang=  -1.11 deg.
 Guess basis will be translated and rotated to current coordinates.
 JPrj=2 DoOrth=T DoCkMO=T.
 Generating alternative initial guess.
 ExpMin= 3.60D-02 ExpMax= 9.34D+04 ExpMxC= 3.17D+03 IAcc=3 IRadAn=         5 AccDes= 0.00D+00
 Harris functional with IExCor= 4639 and IRadAn=       5 diagonalized for initial guess.
 HarFok:  IExCor= 4639 AccDes= 0.00D+00 IRadAn=         5 IDoV= 1 UseB2=F ITyADJ=14
 ICtDFT=  3500011 ScaDFX=  1.000000  1.000000  1.000000  1.000000
 FoFCou: FMM=F IPFlag=           0 FMFlag=      100000 FMFlg1=           0
         NFxFlg=           0 DoJE=T BraDBF=F KetDBF=T FulRan=T
         wScrn=  0.000000 ICntrl=       500 IOpCl=  0 I1Cent=   200000004 NGrid=           0
         NMat0=    1 NMatS0=      1 NMatT0=    0 NMatD0=    1 NMtDS0=    0 NMtDT0=    0
 Symmetry not used in FoFCou.
 Harris En= -1167.11724800577    
 Leave Link  401 at Fri May 23 04:27:35 2025, MaxMem=  3758096384 cpu:               2.9 elap:               0.4
 (Enter /apps/easybuild-2022/easybuild/software/Compiler/NVHPC/22.11-CUDA-11.7.0/Gaussian/g16c01-CUDA-11.7.0/g16/l502.exe)
 Keep R1 ints in memory in canonical form, NReq=1117474609.
 FoFCou: FMM=F IPFlag=           0 FMFlag=           0 FMFlg1=           0
         NFxFlg=           0 DoJE=F BraDBF=F KetDBF=F FulRan=T
         wScrn=  0.000000 ICntrl=       600 IOpCl=  0 I1Cent=           0 NGrid=           0
         NMat0=    1 NMatS0=  33153 NMatT0=    0 NMatD0=    1 NMtDS0=    0 NMtDT0=    0
 Symmetry not used in FoFCou.
 Two-electron integral symmetry not used.
 Closed shell SCF:
 Using DIIS extrapolation, IDIIS=  1040.
 NGot=  3758096384 LenX=  2658793876 LenY=  2658721611
 Requested convergence on RMS density matrix=1.00D-08 within  32 cycles.
 Requested convergence on MAX density matrix=1.00D-06.
 Requested convergence on             energy=1.00D-06.
 No special actions if energy rises.

 Cycle   1  Pass 1  IDiag  1:
 E= -1199.72440527767    
 DIIS: error= 9.35D-03 at cycle   1 NSaved=   1.
 NSaved= 1 IEnMin= 1 EnMin= -1199.72440527767     IErMin= 1 ErrMin= 9.35D-03
 ErrMax= 9.35D-03  0.00D+00 EMaxC= 1.00D-01 BMatC= 7.00D-02 BMatP= 7.00D-02
 IDIUse=3 WtCom= 9.07D-01 WtEn= 9.35D-02
 Coeff-Com:  0.100D+01
 Coeff-En:   0.100D+01
 Coeff:      0.100D+01
 Gap=     0.710 Goal=   None    Shift=    0.000
 GapD=    0.710 DampG=2.000 DampE=1.000 DampFc=2.0000 IDamp=-1.
 RMSDP=4.57D-03 MaxDP=3.47D-01              OVMax= 7.51D-02

 Cycle   2  Pass 1  IDiag  1:
 E= -1199.82188879568     Delta-E=       -0.097483518006 Rises=F Damp=F
 DIIS: error= 2.26D-03 at cycle   2 NSaved=   2.
 NSaved= 2 IEnMin= 2 EnMin= -1199.82188879568     IErMin= 2 ErrMin= 2.26D-03
 ErrMax= 2.26D-03  0.00D+00 EMaxC= 1.00D-01 BMatC= 3.40D-03 BMatP= 7.00D-02
 IDIUse=3 WtCom= 9.77D-01 WtEn= 2.26D-02
 Coeff-Com: -0.984D-01 0.110D+01
 Coeff-En:   0.000D+00 0.100D+01
 Coeff:     -0.962D-01 0.110D+01
 Gap=     0.465 Goal=   None    Shift=    0.000
 RMSDP=7.99D-04 MaxDP=2.98D-02 DE=-9.75D-02 OVMax= 2.57D-02

 Cycle   3  Pass 1  IDiag  1:
 E= -1199.82499922578     Delta-E=       -0.003110430105 Rises=F Damp=F
 DIIS: error= 3.79D-03 at cycle   3 NSaved=   3.
 NSaved= 3 IEnMin= 3 EnMin= -1199.82499922578     IErMin= 2 ErrMin= 2.26D-03
 ErrMax= 3.79D-03  0.00D+00 EMaxC= 1.00D-01 BMatC= 3.58D-03 BMatP= 3.40D-03
 IDIUse=3 WtCom= 9.62D-01 WtEn= 3.79D-02
 Coeff-Com: -0.893D-01 0.607D+00 0.483D+00
 Coeff-En:   0.000D+00 0.000D+00 0.100D+01
 Coeff:     -0.859D-01 0.584D+00 0.502D+00
 Gap=     0.463 Goal=   None    Shift=    0.000
 RMSDP=3.77D-04 MaxDP=1.47D-02 DE=-3.11D-03 OVMax= 1.47D-02

 Cycle   4  Pass 1  IDiag  1:
 E= -1199.82728501612     Delta-E=       -0.002285790337 Rises=F Damp=F
 DIIS: error= 8.38D-04 at cycle   4 NSaved=   4.
 NSaved= 4 IEnMin= 4 EnMin= -1199.82728501612     IErMin= 4 ErrMin= 8.38D-04
 ErrMax= 8.38D-04  0.00D+00 EMaxC= 1.00D-01 BMatC= 2.15D-04 BMatP= 3.40D-03
 IDIUse=3 WtCom= 9.92D-01 WtEn= 8.38D-03
 Coeff-Com: -0.116D-01 0.188D-01 0.190D+00 0.802D+00
 Coeff-En:   0.000D+00 0.000D+00 0.000D+00 0.100D+01
 Coeff:     -0.115D-01 0.187D-01 0.189D+00 0.804D+00
 Gap=     0.461 Goal=   None    Shift=    0.000
 RMSDP=8.89D-05 MaxDP=1.89D-03 DE=-2.29D-03 OVMax= 4.78D-03

 Cycle   5  Pass 1  IDiag  1:
 E= -1199.82745049040     Delta-E=       -0.000165474285 Rises=F Damp=F
 DIIS: error= 2.25D-04 at cycle   5 NSaved=   5.
 NSaved= 5 IEnMin= 5 EnMin= -1199.82745049040     IErMin= 5 ErrMin= 2.25D-04
 ErrMax= 2.25D-04  0.00D+00 EMaxC= 1.00D-01 BMatC= 3.85D-05 BMatP= 2.15D-04
 IDIUse=3 WtCom= 9.98D-01 WtEn= 2.25D-03
 Coeff-Com:  0.400D-02-0.589D-01 0.449D-01 0.426D+00 0.583D+00
 Coeff-En:   0.000D+00 0.000D+00 0.000D+00 0.000D+00 0.100D+01
 Coeff:      0.399D-02-0.587D-01 0.448D-01 0.425D+00 0.584D+00
 Gap=     0.461 Goal=   None    Shift=    0.000
 RMSDP=3.95D-05 MaxDP=1.74D-03 DE=-1.65D-04 OVMax= 1.33D-03

 Cycle   6  Pass 1  IDiag  1:
 E= -1199.82747840595     Delta-E=       -0.000027915549 Rises=F Damp=F
 DIIS: error= 4.42D-05 at cycle   6 NSaved=   6.
 NSaved= 6 IEnMin= 6 EnMin= -1199.82747840595     IErMin= 6 ErrMin= 4.42D-05
 ErrMax= 4.42D-05  0.00D+00 EMaxC= 1.00D-01 BMatC= 1.33D-06 BMatP= 3.85D-05
 IDIUse=1 WtCom= 1.00D+00 WtEn= 0.00D+00
 Coeff-Com:  0.233D-02-0.201D-01-0.840D-02 0.395D-01 0.165D+00 0.821D+00
 Coeff:      0.233D-02-0.201D-01-0.840D-02 0.395D-01 0.165D+00 0.821D+00
 Gap=     0.461 Goal=   None    Shift=    0.000
 RMSDP=1.12D-05 MaxDP=3.74D-04 DE=-2.79D-05 OVMax= 5.40D-04

 Cycle   7  Pass 1  IDiag  1:
 E= -1199.82747998107     Delta-E=       -0.000001575114 Rises=F Damp=F
 DIIS: error= 1.89D-05 at cycle   7 NSaved=   7.
 NSaved= 7 IEnMin= 7 EnMin= -1199.82747998107     IErMin= 7 ErrMin= 1.89D-05
 ErrMax= 1.89D-05  0.00D+00 EMaxC= 1.00D-01 BMatC= 2.22D-07 BMatP= 1.33D-06
 IDIUse=1 WtCom= 1.00D+00 WtEn= 0.00D+00
 Coeff-Com:  0.606D-03-0.272D-02-0.809D-02-0.254D-01 0.893D-02 0.322D+00
 Coeff-Com:  0.705D+00
 Coeff:      0.606D-03-0.272D-02-0.809D-02-0.254D-01 0.893D-02 0.322D+00
 Coeff:      0.705D+00
 Gap=     0.461 Goal=   None    Shift=    0.000
 RMSDP=4.15D-06 MaxDP=9.72D-05 DE=-1.58D-06 OVMax= 1.88D-04

 Cycle   8  Pass 1  IDiag  1:
 E= -1199.82748021761     Delta-E=       -0.000000236542 Rises=F Damp=F
 DIIS: error= 8.88D-06 at cycle   8 NSaved=   8.
 NSaved= 8 IEnMin= 8 EnMin= -1199.82748021761     IErMin= 8 ErrMin= 8.88D-06
 ErrMax= 8.88D-06  0.00D+00 EMaxC= 1.00D-01 BMatC= 2.88D-08 BMatP= 2.22D-07
 IDIUse=1 WtCom= 1.00D+00 WtEn= 0.00D+00
 Coeff-Com: -0.126D-03 0.211D-02-0.181D-02-0.158D-01-0.216D-01-0.275D-02
 Coeff-Com:  0.258D+00 0.781D+00
 Coeff:     -0.126D-03 0.211D-02-0.181D-02-0.158D-01-0.216D-01-0.275D-02
 Coeff:      0.258D+00 0.781D+00
 Gap=     0.461 Goal=   None    Shift=    0.000
 RMSDP=1.80D-06 MaxDP=3.70D-05 DE=-2.37D-07 OVMax= 9.62D-05

 Cycle   9  Pass 1  IDiag  1:
 E= -1199.82748024930     Delta-E=       -0.000000031693 Rises=F Damp=F
 DIIS: error= 4.11D-06 at cycle   9 NSaved=   9.
 NSaved= 9 IEnMin= 9 EnMin= -1199.82748024930     IErMin= 9 ErrMin= 4.11D-06
 ErrMax= 4.11D-06  0.00D+00 EMaxC= 1.00D-01 BMatC= 5.66D-09 BMatP= 2.88D-08
 IDIUse=1 WtCom= 1.00D+00 WtEn= 0.00D+00
 Coeff-Com: -0.131D-03 0.133D-02 0.576D-04-0.458D-02-0.113D-01-0.362D-01
 Coeff-Com:  0.413D-01 0.370D+00 0.639D+00
 Coeff:     -0.131D-03 0.133D-02 0.576D-04-0.458D-02-0.113D-01-0.362D-01
 Coeff:      0.413D-01 0.370D+00 0.639D+00
 Gap=     0.461 Goal=   None    Shift=    0.000
 RMSDP=6.37D-07 MaxDP=1.84D-05 DE=-3.17D-08 OVMax= 2.99D-05

 Cycle  10  Pass 1  IDiag  1:
 E= -1199.82748025455     Delta-E=       -0.000000005247 Rises=F Damp=F
 DIIS: error= 8.96D-07 at cycle  10 NSaved=  10.
 NSaved=10 IEnMin=10 EnMin= -1199.82748025455     IErMin=10 ErrMin= 8.96D-07
 ErrMax= 8.96D-07  0.00D+00 EMaxC= 1.00D-01 BMatC= 3.99D-10 BMatP= 5.66D-09
 IDIUse=1 WtCom= 1.00D+00 WtEn= 0.00D+00
 Coeff-Com: -0.123D-04 0.115D-04 0.279D-03 0.124D-02 0.195D-03-0.803D-02
 Coeff-Com: -0.283D-01-0.271D-01 0.170D+00 0.892D+00
 Coeff:     -0.123D-04 0.115D-04 0.279D-03 0.124D-02 0.195D-03-0.803D-02
 Coeff:     -0.283D-01-0.271D-01 0.170D+00 0.892D+00
 Gap=     0.461 Goal=   None    Shift=    0.000
 RMSDP=3.33D-07 MaxDP=1.21D-05 DE=-5.25D-09 OVMax= 1.51D-05

 Cycle  11  Pass 1  IDiag  1:
 E= -1199.82748025508     Delta-E=       -0.000000000535 Rises=F Damp=F
 DIIS: error= 4.57D-07 at cycle  11 NSaved=  11.
 NSaved=11 IEnMin=11 EnMin= -1199.82748025508     IErMin=11 ErrMin= 4.57D-07
 ErrMax= 4.57D-07  0.00D+00 EMaxC= 1.00D-01 BMatC= 1.20D-10 BMatP= 3.99D-10
 IDIUse=1 WtCom= 1.00D+00 WtEn= 0.00D+00
 Coeff-Com:  0.628D-05-0.130D-03 0.134D-03 0.112D-02 0.127D-02-0.520D-03
 Coeff-Com: -0.188D-01-0.529D-01 0.172D-01 0.461D+00 0.591D+00
 Coeff:      0.628D-05-0.130D-03 0.134D-03 0.112D-02 0.127D-02-0.520D-03
 Coeff:     -0.188D-01-0.529D-01 0.172D-01 0.461D+00 0.591D+00
 Gap=     0.461 Goal=   None    Shift=    0.000
 RMSDP=9.87D-08 MaxDP=5.29D-06 DE=-5.35D-10 OVMax= 3.76D-06

 Cycle  12  Pass 1  IDiag  1:
 E= -1199.82748025520     Delta-E=       -0.000000000113 Rises=F Damp=F
 DIIS: error= 1.30D-07 at cycle  12 NSaved=  12.
 NSaved=12 IEnMin=12 EnMin= -1199.82748025520     IErMin=12 ErrMin= 1.30D-07
 ErrMax= 1.30D-07  0.00D+00 EMaxC= 1.00D-01 BMatC= 5.35D-12 BMatP= 1.20D-10
 IDIUse=1 WtCom= 1.00D+00 WtEn= 0.00D+00
 Coeff-Com:  0.431D-05-0.503D-04 0.322D-05 0.221D-03 0.442D-03 0.929D-03
 Coeff-Com: -0.239D-02-0.148D-01-0.188D-01 0.379D-01 0.172D+00 0.825D+00
 Coeff:      0.431D-05-0.503D-04 0.322D-05 0.221D-03 0.442D-03 0.929D-03
 Coeff:     -0.239D-02-0.148D-01-0.188D-01 0.379D-01 0.172D+00 0.825D+00
 Gap=     0.461 Goal=   None    Shift=    0.000
 RMSDP=3.34D-08 MaxDP=1.12D-06 DE=-1.13D-10 OVMax= 1.53D-06

 Cycle  13  Pass 1  IDiag  1:
 E= -1199.82748025522     Delta-E=       -0.000000000027 Rises=F Damp=F
 DIIS: error= 3.95D-08 at cycle  13 NSaved=  13.
 NSaved=13 IEnMin=13 EnMin= -1199.82748025522     IErMin=13 ErrMin= 3.95D-08
 ErrMax= 3.95D-08  0.00D+00 EMaxC= 1.00D-01 BMatC= 4.39D-13 BMatP= 5.35D-12
 IDIUse=1 WtCom= 1.00D+00 WtEn= 0.00D+00
 Coeff-Com:  0.135D-07 0.514D-05-0.135D-04-0.759D-04-0.568D-04 0.225D-03
 Coeff-Com:  0.154D-02 0.273D-02-0.586D-02-0.419D-01-0.245D-01 0.182D+00
 Coeff-Com:  0.886D+00
 Coeff:      0.135D-07 0.514D-05-0.135D-04-0.759D-04-0.568D-04 0.225D-03
 Coeff:      0.154D-02 0.273D-02-0.586D-02-0.419D-01-0.245D-01 0.182D+00
 Coeff:      0.886D+00
 Gap=     0.461 Goal=   None    Shift=    0.000
 RMSDP=1.29D-08 MaxDP=4.56D-07 DE=-2.73D-11 OVMax= 4.75D-07

 Cycle  14  Pass 1  IDiag  1:
 E= -1199.82748025524     Delta-E=       -0.000000000016 Rises=F Damp=F
 DIIS: error= 1.09D-08 at cycle  14 NSaved=  14.
 NSaved=14 IEnMin=14 EnMin= -1199.82748025524     IErMin=14 ErrMin= 1.09D-08
 ErrMax= 1.09D-08  0.00D+00 EMaxC= 1.00D-01 BMatC= 7.22D-14 BMatP= 4.39D-13
 IDIUse=1 WtCom= 1.00D+00 WtEn= 0.00D+00
 Coeff-Com: -0.277D-06 0.537D-05-0.501D-05-0.421D-04-0.530D-04 0.207D-04
 Coeff-Com:  0.739D-03 0.206D-02-0.686D-03-0.181D-01-0.214D-01-0.197D-02
 Coeff-Com:  0.338D+00 0.701D+00
 Coeff:     -0.277D-06 0.537D-05-0.501D-05-0.421D-04-0.530D-04 0.207D-04
 Coeff:      0.739D-03 0.206D-02-0.686D-03-0.181D-01-0.214D-01-0.197D-02
 Coeff:      0.338D+00 0.701D+00
 Gap=     0.461 Goal=   None    Shift=    0.000
 RMSDP=2.88D-09 MaxDP=1.06D-07 DE=-1.59D-11 OVMax= 9.03D-08

 SCF Done:  E(RwB97XD) =  -1199.82748026     A.U. after   14 cycles
            NFock= 14  Conv=0.29D-08     -V/T= 2.0020
 KE= 1.197429700401D+03 PE=-4.692231200635D+03 EE= 1.372047922404D+03
 Leave Link  502 at Fri May 23 04:27:50 2025, MaxMem=  3758096384 cpu:              72.6 elap:              14.9
 (Enter /apps/easybuild-2022/easybuild/software/Compiler/NVHPC/22.11-CUDA-11.7.0/Gaussian/g16c01-CUDA-11.7.0/g16/l508.exe)
 QCSCF skips out because SCF is already converged.
 Leave Link  508 at Fri May 23 04:27:50 2025, MaxMem=  3758096384 cpu:               0.1 elap:               0.0
 (Enter /apps/easybuild-2022/easybuild/software/Compiler/NVHPC/22.11-CUDA-11.7.0/Gaussian/g16c01-CUDA-11.7.0/g16/l701.exe)
 ... and contract with generalized density number  0.
 Compute integral first derivatives.
 R6Disp: Adding Grimme-D2 dispersion energy 1st derivatives to the gradient.
 Leave Link  701 at Fri May 23 04:27:50 2025, MaxMem=  3758096384 cpu:               0.7 elap:               0.2
 (Enter /apps/easybuild-2022/easybuild/software/Compiler/NVHPC/22.11-CUDA-11.7.0/Gaussian/g16c01-CUDA-11.7.0/g16/l702.exe)
 L702 exits ... SP integral derivatives will be done elsewhere.
 Leave Link  702 at Fri May 23 04:27:50 2025, MaxMem=  3758096384 cpu:               0.1 elap:               0.0
 (Enter /apps/easybuild-2022/easybuild/software/Compiler/NVHPC/22.11-CUDA-11.7.0/Gaussian/g16c01-CUDA-11.7.0/g16/l703.exe)
 Integral derivatives from FoFJK, PRISM(SPDF).
 Compute integral first derivatives, UseDBF=F ICtDFT=           0.
 Calling FoFJK, ICntrl=      2127 FMM=F ISym2X=0 I1Cent= 0 IOpClX= 0 NMat=1 NMatS=1 NMatT=0.
 FoFJK:  IHMeth= 1 ICntrl=    2127 DoSepK=T KAlg= 0 I1Cent=           0 FoldK=F
 IRaf=         1 NMat=       1 IRICut=       1 DoRegI=T DoRafI=F ISym2E= 0 IDoP0=0 IntGTp=1.
 FoFCou: FMM=F IPFlag=           0 FMFlag=      100000 FMFlg1=         800
         NFxFlg=           0 DoJE=F BraDBF=F KetDBF=F FulRan=T
         wScrn=  0.000000 ICntrl=      2527 IOpCl=  0 I1Cent=           0 NGrid=           0
         NMat0=    1 NMatS0=      1 NMatT0=    0 NMatD0=    1 NMtDS0=    0 NMtDT0=    0
 Symmetry not used in FoFCou.
 Leave Link  703 at Fri May 23 04:27:55 2025, MaxMem=  3758096384 cpu:              37.1 elap:               5.0
 (Enter /apps/easybuild-2022/easybuild/software/Compiler/NVHPC/22.11-CUDA-11.7.0/Gaussian/g16c01-CUDA-11.7.0/g16/l716.exe)
 Dipole        =-5.46037772D-01 9.17598200D-01-1.18046007D-01
 -------------------------------------------------------------------
 Center     Atomic                   Forces (Hartrees/Bohr)
 Number     Number              X              Y              Z
 -------------------------------------------------------------------
      1        6           0.000540001   -0.001188153   -0.001396447
      2        6           0.000197387    0.002856752    0.003212272
      3        9           0.000792693   -0.000358975    0.000222522
      4        9           0.001695209   -0.001574383   -0.001908047
      5       16          -0.002422709   -0.003213457    0.000114880
      6        8           0.001319030   -0.000234277   -0.000621131
      7        8          -0.000171837   -0.000127105    0.001170656
      8        8          -0.003981634    0.002306660    0.000479499
      9        9           0.000296745   -0.000152524    0.000446260
     10        9           0.000237868    0.000437000    0.000211312
     11        9          -0.000398178    0.000133538   -0.000633141
     12        1           0.001895424    0.001114924   -0.001298635
 -------------------------------------------------------------------
 Cartesian Forces:  Max     0.003981634 RMS     0.001498922
 Leave Link  716 at Fri May 23 04:27:55 2025, MaxMem=  3758096384 cpu:               0.1 elap:               0.1
 (Enter /apps/easybuild-2022/easybuild/software/Compiler/NVHPC/22.11-CUDA-11.7.0/Gaussian/g16c01-CUDA-11.7.0/g16/l103.exe)

 GradGradGradGradGradGradGradGradGradGradGradGradGradGradGradGradGradGrad
 Berny optimization.
 Using GEDIIS/GDIIS optimizer.
 FormGI is forming the generalized inverse of G from B-inverse, IUseBI=4.
 Internal  Forces:  Max     0.004119855 RMS     0.001296515
 Search for a local minimum.
 Step number   2 out of a maximum of   61
 All quantities printed in internal units (Hartrees-Bohrs-Radians)
 RMS Force = .12965D-02 SwitMx=.10000D-02 MixMth= 1
 Mixed Optimization -- RFO/linear search
 Update second derivatives using D2CorX and points    1    2
 DE= -6.69D-03 DEPred=-7.33D-03 R= 9.13D-01
 TightC=F SS=  1.41D+00  RLast= 9.44D-01 DXNew= 5.0454D-01 2.8312D+00
 Trust test= 9.13D-01 RLast= 9.44D-01 DXMaxT set to 5.05D-01
 ITU=  1  0
 Use linear search instead of GDIIS.
     Eigenvalues ---   -0.00394  -0.00032   0.00424   0.05346   0.07127
     Eigenvalues ---    0.08330   0.10028   0.10531   0.11087   0.12410
     Eigenvalues ---    0.13496   0.15334   0.17640   0.18095   0.20143
     Eigenvalues ---    0.21621   0.23854   0.24204   0.27962   0.29196
     Eigenvalues ---    0.35818   0.36538   0.37799   0.40196   0.44510
     Eigenvalues ---    0.49981   0.53517   0.56149   0.71979   0.73159
 Eigenvalue     1 is  -3.94D-03 should be greater than     0.000000 Eigenvector:
                          D18       D15       D17       D16       D12
   1                    0.30828   0.29225   0.28864   0.28626   0.28079
                          D14       D13       D11       D10       D19
   1                    0.27261   0.27024   0.26115   0.25878   0.25420
 Eigenvalue     2 is  -3.20D-04 should be greater than     0.000000 Eigenvector:
                          D19       D21       D20       D6        D3
   1                   -0.52580  -0.50785  -0.50254   0.13574   0.12838
                          D10       D9        D12       D4        D11
   1                    0.12687   0.12239   0.11526   0.11189   0.11099
 RFO step:  Lambda=-3.99182619D-03 EMin=-3.94119503D-03
 I=     1 Eig=   -3.94D-03 Dot1= -2.40D-04
 I=     1 Stepn= -6.00D-01 RXN=   6.00D-01 EDone=F
 I=     2 Eig=   -3.20D-04 Dot1= -3.32D-04
 I=     2 Stepn= -3.00D-01 RXN=   6.71D-01 EDone=F
 Mixed    2 eigenvectors in step.  Raw Step.Grad=  5.71D-04.
 RFO eigenvector is Hessian eigenvector with negative curvature.
 Taking step of  6.00D-01 in eigenvector direction(s).  Step.Grad= -1.63D-04.
 Quartic linear search produced a step of  0.14646.
 Iteration  1 RMS(Cart)=  0.13237196 RMS(Int)=  0.01098901
 Iteration  2 RMS(Cart)=  0.01264694 RMS(Int)=  0.00010947
 Iteration  3 RMS(Cart)=  0.00010363 RMS(Int)=  0.00007193
 Iteration  4 RMS(Cart)=  0.00000001 RMS(Int)=  0.00007193
 ITry= 1 IFail=0 DXMaxC= 3.88D-01 DCOld= 1.00D+10 DXMaxT= 5.05D-01 DXLimC= 3.00D+00 Rises=F
 Variable       Old X    -DE/DX   Delta X   Delta X   Delta X     New X
                                 (Linear)    (Quad)   (Total)
    R1        2.95338  -0.00061   0.00137   0.00081   0.00217   2.95556
    R2        2.49499   0.00002  -0.00021  -0.00174  -0.00195   2.49303
    R3        2.52332   0.00028   0.00327  -0.00349  -0.00021   2.52310
    R4        2.51127   0.00070  -0.00432   0.00502   0.00070   2.51197
    R5        2.51927   0.00289  -0.00635   0.00576  -0.00059   2.51868
[...]
   D16        0.76898   0.00000   0.00000   0.00001   0.00001   0.76899
   D17       -1.13445  -0.00000   0.00000   0.00000   0.00000  -1.13444
   D18        2.68950  -0.00000   0.00000   0.00000   0.00000   2.68950
   D19        1.04438   0.00000   0.00000  -0.00001  -0.00001   1.04437
   D20       -3.13697  -0.00000   0.00000  -0.00001  -0.00001  -3.13699
   D21       -1.15156  -0.00000   0.00000  -0.00002  -0.00002  -1.15158
         Item               Value     Threshold  Converged?
 Maximum Force            0.000002     0.000015     YES
 RMS     Force            0.000001     0.000010     YES
 Maximum Displacement     0.000048     0.000060     YES
 RMS     Displacement     0.000013     0.000040     YES
 Predicted change in Energy=-6.627692D-11
 Optimization completed.
    -- Stationary point found.
                           ----------------------------
                           !   Optimized Parameters   !
                           ! (Angstroms and Degrees)  !
 --------------------------                            --------------------------
 ! Name  Definition              Value          Derivative Info.                !
 --------------------------------------------------------------------------------
 ! R1    R(1,2)                  1.5591         -DE/DX =    0.0                 !
 ! R2    R(1,9)                  1.3204         -DE/DX =    0.0                 !
 ! R3    R(1,10)                 1.3372         -DE/DX =    0.0                 !
 ! R4    R(1,11)                 1.3285         -DE/DX =    0.0                 !
 ! R5    R(2,4)                  1.3358         -DE/DX =    0.0                 !
 ! R6    R(2,5)                  1.9082         -DE/DX =    0.0                 !
 ! R7    R(2,8)                  1.3464         -DE/DX =    0.0                 !
 ! R8    R(3,5)                  1.6287         -DE/DX =    0.0                 !
 ! R9    R(5,6)                  1.426          -DE/DX =    0.0                 !
 ! R10   R(5,7)                  1.4273         -DE/DX =    0.0                 !
 ! R11   R(8,12)                 0.9639         -DE/DX =    0.0                 !
 ! A1    A(2,1,9)              111.9598         -DE/DX =    0.0                 !
 ! A2    A(2,1,10)             109.3307         -DE/DX =    0.0                 !
 ! A3    A(2,1,11)             108.7239         -DE/DX =    0.0                 !
 ! A4    A(9,1,10)             109.4586         -DE/DX =    0.0                 !
 ! A5    A(9,1,11)             108.9527         -DE/DX =    0.0                 !
 ! A6    A(10,1,11)            108.3421         -DE/DX =    0.0                 !
 ! A7    A(1,2,4)              108.4423         -DE/DX =    0.0                 !
 ! A8    A(1,2,5)              111.8128         -DE/DX =    0.0                 !
 ! A9    A(1,2,8)              113.271          -DE/DX =    0.0                 !
 ! A10   A(4,2,5)              104.6002         -DE/DX =    0.0                 !
 ! A11   A(4,2,8)              108.4427         -DE/DX =    0.0                 !
 ! A12   A(5,2,8)              109.843          -DE/DX =    0.0                 !
 ! A13   A(2,5,3)               94.7823         -DE/DX =    0.0                 !
 ! A14   A(2,5,6)              108.1843         -DE/DX =    0.0                 !
 ! A15   A(2,5,7)              112.6846         -DE/DX =    0.0                 !
 ! A16   A(3,5,6)              106.4469         -DE/DX =    0.0                 !
 ! A17   A(3,5,7)              106.432          -DE/DX =    0.0                 !
 ! A18   A(6,5,7)              124.0514         -DE/DX =    0.0                 !
 ! A19   A(2,8,12)             111.2903         -DE/DX =    0.0                 !
 ! D1    D(9,1,2,4)             53.8483         -DE/DX =    0.0                 !
 ! D2    D(9,1,2,5)            -60.966          -DE/DX =    0.0                 !
 ! D3    D(9,1,2,8)            174.2749         -DE/DX =    0.0                 !
 ! D4    D(10,1,2,4)           175.3208         -DE/DX =    0.0                 !
 ! D5    D(10,1,2,5)            60.5065         -DE/DX =    0.0                 !
 ! D6    D(10,1,2,8)           -64.2526         -DE/DX =    0.0                 !
 ! D7    D(11,1,2,4)           -66.5781         -DE/DX =    0.0                 !
 ! D8    D(11,1,2,5)           178.6076         -DE/DX =    0.0                 !
 ! D9    D(11,1,2,8)            53.8484         -DE/DX =    0.0                 !
 ! D10   D(1,2,5,3)            -82.5846         -DE/DX =    0.0                 !
 ! D11   D(1,2,5,6)            168.3569         -DE/DX =    0.0                 !
 ! D12   D(1,2,5,7)             27.4529         -DE/DX =    0.0                 !
 ! D13   D(4,2,5,3)            160.2622         -DE/DX =    0.0                 !
 ! D14   D(4,2,5,6)             51.2037         -DE/DX =    0.0                 !
 ! D15   D(4,2,5,7)            -89.7002         -DE/DX =    0.0                 !
 ! D16   D(8,2,5,3)             44.0594         -DE/DX =    0.0                 !
 ! D17   D(8,2,5,6)            -64.999          -DE/DX =    0.0                 !
 ! D18   D(8,2,5,7)            154.097          -DE/DX =    0.0                 !
 ! D19   D(1,2,8,12)            59.8383         -DE/DX =    0.0                 !
 ! D20   D(4,2,8,12)          -179.7353         -DE/DX =    0.0                 !
 ! D21   D(5,2,8,12)           -65.9797         -DE/DX =    0.0                 !
 --------------------------------------------------------------------------------
 GradGradGradGradGradGradGradGradGradGradGradGradGradGradGradGradGradGrad

 Leave Link  103 at Fri May 23 04:32:25 2025, MaxMem=  3758096384 cpu:               0.1 elap:               0.0
 (Enter /apps/easybuild-2022/easybuild/software/Compiler/NVHPC/22.11-CUDA-11.7.0/Gaussian/g16c01-CUDA-11.7.0/g16/l9999.exe)

 ----------------------------------------------------------------------

 Electric dipole moment (input orientation):
 (Debye = 10**-18 statcoulomb cm , SI units = C m)
                  (au)            (Debye)         (10**-30 SI)
   Tot        0.103749D+01      0.263703D+01      0.879617D+01
   x         -0.500404D+00     -0.127190D+01     -0.424260D+01
   y          0.904557D+00      0.229915D+01      0.766916D+01
   z         -0.880298D-01     -0.223749D+00     -0.746348D+00

 Dipole polarizability, Alpha (input orientation).
 (esu units = cm**3 , SI units = C**2 m**2 J**-1)
 Alpha(0;0):
               (au)            (10**-24 esu)      (10**-40 SI)
   iso        0.565082D+02      0.837365D+01      0.931695D+01
   aniso      0.875776D+01      0.129777D+01      0.144396D+01
   xx         0.573136D+02      0.849300D+01      0.944974D+01
   yx        -0.958713D+00     -0.142067D+00     -0.158070D+00
   yy         0.569707D+02      0.844219D+01      0.939320D+01
   zx         0.280239D+01      0.415272D+00      0.462052D+00
   zy        -0.394443D+01     -0.584504D+00     -0.650348D+00
   zz         0.552403D+02      0.818577D+01      0.910790D+01

 ----------------------------------------------------------------------

 Dipole orientation:
     6         -0.07136082          0.10898884         -0.13148892
     6          2.32771237          1.33861725         -1.32012079
     9          5.40766939         -2.49336557         -1.71440337
     9          1.61687852          3.38272970         -2.61966209
    16          3.85908458         -0.81253230         -3.77575536
     8          5.69715407          0.62493640         -5.12362138
     8          2.09069436         -2.47952949         -4.94570772
     8          4.05658971          2.04442638          0.40793629
     9         -1.82738493         -0.35461278         -1.84248812
     9          0.57537256         -2.04724621          1.01664541
     9         -1.00759069          1.67322214          1.59467506
     1          4.63092328          0.62087255          1.38855077

 Electric dipole moment (dipole orientation):
 (Debye = 10**-18 statcoulomb cm , SI units = C m)
                  (au)            (Debye)         (10**-30 SI)
   Tot        0.103749D+01      0.263703D+01      0.879617D+01
   x          0.000000D+00      0.000000D+00      0.000000D+00
   y          0.000000D+00      0.000000D+00      0.000000D+00
   z          0.103749D+01      0.263703D+01      0.879617D+01

 Dipole polarizability, Alpha (dipole orientation).
 (esu units = cm**3 , SI units = C**2 m**2 J**-1)
 Alpha(0;0):
               (au)            (10**-24 esu)      (10**-40 SI)
   iso        0.565082D+02      0.837365D+01      0.931695D+01
   aniso      0.875776D+01      0.129777D+01      0.144396D+01
   xx         0.563695D+02      0.835309D+01      0.929407D+01
   yx         0.578654D+00      0.857476D-01      0.954071D-01
   yy         0.544979D+02      0.807575D+01      0.898548D+01
   zx        -0.279765D+01     -0.414570D+00     -0.461271D+00
   zy         0.361451D+01      0.535615D+00      0.595952D+00
   zz         0.586573D+02      0.869212D+01      0.967129D+01

 ----------------------------------------------------------------------
 Unable to Open any file for archive entry.
 1\1\GINC-SPARTAN-BM208\Freq\RwB97XD\6-311++G(d,p)\C2H1F5O3S1\AKHALILOV
 \23-May-2025\0\\#P Geom=AllCheck Guess=TCheck SCRF=Check GenChk RwB97X
 D/6-311++G(d,p) Freq\\Gaussian input prepared by ASE\\0,1\C,0.03189968
 82,-0.0682507634,-0.062594698\C,1.5810946946,0.0769117585,0.0357807822
 \F,1.9654544308,0.3005168157,2.607580605\F,2.1293028921,-0.5123231792,
 -1.0304032398\S,2.2891415573,-0.8764676524,1.5293872817\O,3.7081136864
 ,-0.9225618007,1.395832325\O,1.4844901137,-1.9956609793,1.8996763876\O
 ,1.9939772903,1.3578520223,0.0738166308\F,-0.3371540016,-1.3262156015,
 -0.2200739655\F,-0.5302262181,0.4254933131,1.0457575415\F,-0.397800920
 2,0.6406871172,-1.1007578001\H,1.6241974167,1.8223637694,0.8331701243\
 \Version=ES64L-G16RevC.01\HF=-1199.8285223\RMSD=3.644e-09\RMSF=1.437e-
 06\ZeroPoint=0.0518235\Thermal=0.062325\ETot=-1199.7661973\HTot=-1199.
 7652531\GTot=-1199.8134341\Dipole=-0.5004039,0.9045572,-0.0880298\Dipo
 leDeriv=1.5014713,-0.1368965,0.2643984,-0.0024508,1.5487647,0.0634929,
 -0.0231346,0.0277042,1.5788315,0.5120471,0.057562,-0.1824934,-0.088369
 3,1.2824939,-0.0744026,0.0810154,-0.0902372,1.2496209,-0.3928029,0.116
 702,0.1014549,0.082471,-0.7502565,-0.4756662,0.0305816,-0.3090326,-0.8
 756352,-0.3353131,0.1048549,0.2298301,0.0662921,-0.3226299,-0.2050218,
 0.1199847,-0.1486125,-0.7848078,2.1669027,0.0368776,-0.1422188,0.02969
 56,2.0415329,0.1775656,-0.0254309,0.0596019,1.8253615,-1.1585193,0.163
 5624,-0.1073923,0.0343819,-0.5295928,0.0876403,-0.075166,0.0831077,-0.
 5497691,-0.6801223,-0.2467105,0.065995,-0.1301585,-0.9269302,0.255352,
 0.0406932,0.2954877,-0.6317846,-0.4711731,-0.1487859,-0.114305,-0.0177
 992,-1.1876977,0.1586917,-0.1158001,0.0380512,-0.4199738,-0.4418335,-0
 .2364138,-0.093722,-0.1682927,-0.7931633,-0.1080916,-0.0563305,-0.0887
 29,-0.2832491,-0.514454,0.1358184,0.2178431,0.0896701,-0.3593675,-0.18
 64154,0.1738673,-0.187124,-0.6664194,-0.5201159,0.1934743,-0.3351872,0
 .1327968,-0.4582082,0.2868898,-0.22522,0.2881953,-0.7211481,0.3339132,
 -0.040045,0.0957973,-0.028237,0.4550546,0.0199652,0.07494,0.0315873,0.
 2789732\Polar=57.3136336,-0.9587127,56.9707245,2.8023914,-3.944427,55.
 240302\PG=Unknown\NImag=0\\0.57787436,0.01122754,0.57179757,0.01101758
 ,0.00435693,0.53572291,-0.17342667,-0.00159085,-0.02592708,0.51091611,
 -0.01267812,-0.04798879,0.00200489,0.03379406,0.53376869,-0.00455909,0
 .00307241,-0.04973902,-0.06051854,0.07590561,0.45565003,-0.00242455,0.
 00096666,0.00582518,0.00645991,-0.00140756,-0.00220005,0.05462693,0.00
 374828,-0.00401059,-0.00611340,0.00152495,-0.01729051,0.00989091,-0.02
 041166,0.13514080,0.00797018,0.00109648,-0.00662255,0.00441314,-0.0321
 0685,0.00150433,-0.02611404,0.08827704,0.13558844,-0.01220281,0.019172
 64,0.04338681,-0.12467599,0.03925509,0.08252425,0.00042055,-0.00065617
 ,-0.00058241,0.12936165,0.00454185,-0.00539595,-0.01055106,0.03949089,
 -0.09856619,-0.06094997,0.00020742,0.00157297,0.00099105,-0.05928639,0
 .14325017,0.00603732,-0.01077391,-0.02243885,0.09388050,-0.07915618,-0
 .22451793,-0.00322202,-0.00126707,-0.01218067,-0.11998816,0.12619846,0
 .29230864,-0.00377890,0.02163077,-0.03575542,-0.06958650,0.02007481,-0
 .04110657,-0.06203114,0.01340229,0.01594863,-0.00178374,-0.00159193,0.
 02364218,1.09994230,0.01188188,0.02256146,0.00550332,0.00977217,-0.041
 50999,0.02468354,0.01269208,-0.11557390,-0.06106197,0.00160012,0.00240
 638,-0.02186392,0.21200114,0.73035268,-0.02818167,0.00077555,0.0121202
 2,-0.01915583,0.04870152,-0.08564935,0.01238018,-0.06241972,-0.1317717
 1,0.00064266,-0.00015373,-0.03363641,-0.11401125,-0.11957745,0.4549150
 4,0.00761645,0.00241769,-0.00201360,-0.01874272,-0.01560992,0.02590543
 ,-0.00577865,0.00256652,0.00483246,0.00542878,-0.00257952,-0.00699880,
 -0.68594270,0.01726646,0.04513110,0.70992862,-0.00485756,-0.00519706,0
 .00308275,0.01376999,0.00558468,-0.00457496,0.02456821,0.00143335,-0.0
 0875384,-0.00149378,0.00080722,0.00320257,0.01902963,-0.08224395,0.005
 88444,-0.02053943,0.06365033,0.00685927,0.00378776,-0.00560911,-0.0159
 1642,-0.00587645,0.00848991,0.02530681,-0.00954590,0.00457243,-0.00179
 920,0.00101390,0.00272484,0.03842059,0.00845389,-0.08610413,-0.0630264
 1,0.00058253,0.05750819,-0.00374321,-0.00921556,0.00698042,0.00556720,
 0.00360414,-0.00513642,0.00974892,0.00170424,0.00115597,0.00087484,0.0
 0083161,-0.00046471,-0.27520355,-0.25977599,0.08666199,-0.01043576,-0.
 03450845,0.01471518,0.27207581,-0.00652987,-0.00815854,0.00074653,-0.0
 1545879,0.00543971,-0.02088700,-0.01413762,-0.02127964,0.00082158,-0.0
 0045601,0.00207164,0.01134058,-0.26569091,-0.44909653,0.13701532,0.006
 56243,0.00979091,-0.00174091,0.28843872,0.46287096,0.00606442,-0.00131
 527,-0.00387711,0.01133582,0.00043663,0.02046174,-0.00669172,-0.023277
 31,0.01202534,0.00018152,-0.00132237,-0.00384343,0.09196741,0.14464341
 ,-0.12990953,0.00207701,0.00154033,0.01816143,-0.09645781,-0.13346346,
 0.09434389,-0.00197894,-0.03763536,-0.00017592,-0.11472269,-0.06538106
 ,0.02240460,0.00099317,0.00216845,0.00086124,0.01353021,0.02082513,0.0
 0264029,0.00058442,-0.00013028,-0.00101026,0.00379549,0.00083586,0.000
 62198,0.00159440,0.00253301,-0.00150377,0.19917000,-0.00241973,-0.0317
 6302,0.00138033,-0.10103559,-0.28019337,0.00696411,-0.00028202,0.01240
 676,0.00895712,0.00394493,-0.04747045,-0.02955395,-0.01381885,-0.04372
 678,-0.00954585,0.01038101,0.00276887,0.00469100,0.00065189,-0.0098503
 6,0.01189645,0.01890552,0.52768368,-0.00215716,-0.00131881,-0.00071908
 ,0.01429367,-0.00905840,-0.08875585,-0.00041949,0.00506816,-0.00002815
 ,-0.00558324,-0.05858115,-0.01198351,0.00937160,0.01575602,0.00004563,
 -0.00230206,-0.00030865,0.00012693,-0.00030119,0.00538009,-0.00494714,
 -0.18341340,0.20910300,0.43058565,-0.12099507,-0.07877874,-0.01191045,
 0.00018219,-0.03860787,-0.00449156,0.00024697,-0.00018366,-0.00109687,
 -0.00001395,0.00022779,0.00008154,-0.00014034,-0.00151968,0.00369624,-
 0.00132666,0.00090503,-0.00107616,-0.00140355,0.00210497,-0.00445210,-
 0.01155181,-0.00564410,-0.00153925,0.09863326,-0.08714316,-0.26839601,
 -0.02700427,-0.00087024,-0.02695942,-0.00537128,-0.00050519,0.00231176
 ,-0.00032529,-0.00078878,0.00457670,0.00272595,-0.00479016,-0.01084863
 ,0.00275960,-0.00083494,0.00231785,-0.00170219,0.00504354,0.00518133,0
 .00078977,-0.00796663,-0.00022611,-0.00182613,0.09335592,0.40755420,-0
 .01380768,-0.02691467,-0.07767652,0.00201010,-0.00779404,0.00329811,-0
 .00055494,0.00036331,0.00053719,-0.00166023,0.00259456,0.00324348,0.00
 342763,0.00127086,-0.00229615,-0.00059313,-0.00044684,0.00066372,-0.00
 441894,-0.00003367,-0.00246516,-0.00188960,-0.00050557,0.00066451,0.01
 380933,0.03756170,0.08907116,-0.14586677,0.03437632,0.08109091,-0.0072
 4662,0.01891559,0.03947650,-0.00210369,-0.00083831,-0.00416951,-0.0133
 6196,0.00178708,0.00399716,-0.00044239,-0.00205864,0.00484513,-0.00090
 626,0.00083334,-0.00114076,0.00050308,0.00181983,-0.00166067,-0.000588
 29,-0.00288743,-0.00235530,0.01820409,0.00400232,-0.00336027,0.1338777
 0,0.03783057,-0.09608645,-0.04987877,-0.00051507,-0.00117301,-0.009662
 12,-0.00084211,0.00220329,0.00133920,0.00216090,0.00114095,0.00023436,
 -0.00159461,-0.00426854,-0.00235176,0.00026008,0.00053866,0.00018805,0
 .00180215,0.00053297,0.00066195,0.00107925,0.00519873,0.00153351,0.016
 56857,-0.04737861,-0.05271535,-0.05169724,0.12204710,0.08579994,-0.051
 31862,-0.18882277,0.00477369,-0.01115845,-0.01646457,-0.00446806,0.003
 63992,0.00296291,0.00477722,-0.00018238,0.00127127,0.00609610,-0.00305
 662,-0.00819296,0.00021888,-0.00057338,0.00186669,-0.00171210,0.000277
 04,0.00224622,0.00046891,0.00250795,0.00319832,0.00438762,-0.04158253,
 -0.01703840,-0.11567484,0.09610278,0.30381722,-0.12293068,0.04315929,-
 0.06941977,-0.01654605,0.02464373,-0.03920863,0.00080088,-0.00173846,-
 0.00327221,0.00101649,-0.00073751,0.00119466,-0.00434331,-0.00436034,0
 .00942019,-0.00386091,0.00222320,-0.00315895,0.00148340,0.00213982,-0.
 00180822,0.00031334,-0.00081899,0.00049940,0.01801548,-0.00124475,0.00
 659887,0.01948321,-0.00723460,0.01332280,0.10738137,0.04780609,-0.1273
 3965,0.07932395,0.00327237,-0.00705454,0.01423739,-0.00004501,0.001207
 49,0.00093664,-0.00093784,0.00148948,-0.00039019,-0.00156344,-0.001498
 21,-0.00260399,0.00172063,-0.00006916,0.00057778,0.00117448,0.00073609
 ,0.00051587,-0.00075156,0.00638372,-0.00318769,0.01046236,-0.06890478,
 0.04620022,-0.00480374,0.01691151,0.00458296,-0.05685162,0.17881046,-0
 .07312566,0.07920436,-0.19507354,-0.00964143,0.01702158,-0.02285960,-0
 .00064250,-0.00041069,-0.00093501,-0.00181017,-0.00001107,0.00651435,0
 .00218376,-0.00254298,0.00314422,-0.00290136,0.00090452,-0.00093621,-0
 .00071015,0.00061009,-0.00042546,0.00118654,-0.00198836,0.00309623,0.0
 0109651,0.03260834,0.00213904,-0.00185538,0.01450382,-0.08343247,0.085
 92584,-0.14089266,0.28952873,0.00185680,-0.00573040,-0.00309867,0.0018
 2182,-0.00660289,-0.01308991,-0.00095930,-0.00128648,0.00005342,0.0014
 0592,-0.00371643,-0.00079996,0.00272585,0.00263107,-0.00041848,0.00022
 433,-0.00076605,0.00019408,-0.00106157,-0.00132558,0.00094810,-0.09113
 930,0.09302337,0.17390642,0.00014939,0.00174206,0.00043886,-0.00155210
 ,0.00218211,0.00200985,-0.00081322,0.00051728,0.00029398,0.08734137,-0
 .00340777,-0.00002297,-0.00285120,0.01784608,-0.02405726,-0.03330864,-
 0.00080319,0.00187822,-0.00017116,-0.00251469,-0.00588291,-0.00069670,
 0.00291126,-0.00655398,0.00151608,-0.00161102,0.00061830,-0.00042946,0
 .00024923,0.00176145,-0.00110599,0.06551767,-0.14121167,-0.16255995,0.
 00110941,0.00077170,0.00041948,0.00055087,0.00033340,0.00076134,0.0008
 2021,-0.00067241,0.00099305,-0.08066806,0.17303815,-0.00191745,-0.0006
 5219,0.00273542,0.00045238,0.00108015,-0.00141779,0.00080065,-0.004205
 26,-0.00565254,-0.00008906,0.00095375,0.00253821,-0.00018467,0.0077919
 2,0.00733512,-0.00032953,-0.00053947,-0.00146470,-0.00031223,-0.000066
 17,-0.00177077,0.15980939,-0.20390624,-0.33128353,0.00149515,0.0013663
 2,-0.00014098,0.00080702,0.00004433,-0.00141145,-0.00009398,0.00069972
 ,-0.00076027,-0.16043767,0.19743314,0.33129328\\-0.00000049,-0.0000009
 9,0.00000025,0.00000096,-0.00000057,-0.00000093,0.00000004,0.00000152,
 -0.00000191,0.00000058,0.00000156,0.00000203,-0.00000037,0.00000272,0.
 00000201,-0.00000002,0.00000273,0.00000148,0.00000141,0.00000065,0.000
 00110,-0.00000057,-0.00000086,-0.00000248,0.00000062,-0.00000119,0.000
 00119,-0.00000033,-0.00000229,-0.00000096,0.00000001,-0.00000336,-0.00
 000055,-0.00000184,0.00000008,-0.00000123\\\@
 The archive entry for this job was punched.


 ALL THINGS ARE POSSIBLE EXCEPT SKIING THROUGH A REVOLVING DOOR.
 Job cpu time:       0 days  0 hours 12 minutes 16.5 seconds.
 Elapsed time:       0 days  0 hours  1 minutes 35.8 seconds.
 File lengths (MBytes):  RWF=     99 Int=      0 D2E=      0 Chk=      6 Scr=      1
 Normal termination of Gaussian 16 at Fri May 23 04:32:25 2025.
done
