 Entering Gaussian System, Link 0=g16
 Initial command:
 /apps/easybuild-2022/easybuild/software/Compiler/NVHPC/22.11-CUDA-11.7.0/Gaussian/g16c01-CUDA-11.7.0/g16/l1.exe "/tmp/Gau-7914.inp" -scrdir="/tmp/"
 Entering Link 1 = /apps/easybuild-2022/easybuild/software/Compiler/NVHPC/22.11-CUDA-11.7.0/Gaussian/g16c01-CUDA-11.7.0/g16/l1.exe PID=      7946.
  
 Copyright (c) 1988-2019, Gaussian, Inc.  All Rights Reserved.
  
 This is part of the Gaussian(R) 16 program.  It is based on
 the Gaussian(R) 09 system (copyright 2009, Gaussian, Inc.),
 the Gaussian(R) 03 system (copyright 2003, Gaussian, Inc.),
 the Gaussian(R) 98 system (copyright 1998, Gaussian, Inc.),
 the Gaussian(R) 94 system (copyright 1995, Gaussian, Inc.),
 the Gaussian 92(TM) system (copyright 1992, Gaussian, Inc.),
 the Gaussian 90(TM) system (copyright 1990, Gaussian, Inc.),
 the Gaussian 88(TM) system (copyright 1988, Gaussian, Inc.),
 the Gaussian 86(TM) system (copyright 1986, Carnegie Mellon
 University), and the Gaussian 82(TM) system (copyright 1983,
 Carnegie Mellon University). Gaussian is a federally registered
 trademark of Gaussian, Inc.
  
 This software contains proprietary and confidential information,
 including trade secrets, belonging to Gaussian, Inc.
  
 This software is provided under written license and may be
 used, copied, transmitted, or stored only in accord with that
 written license.
  
 The following legend is applicable only to US Government
 contracts under FAR:
  
                    RESTRICTED RIGHTS LEGEND
  
 Use, reproduction and disclosure by the US Government is
 subject to restrictions as set forth in subparagraphs (a)
 and (c) of the Commercial Computer Software - Restricted
 Rights clause in FAR 52.227-19.
  
 Gaussian, Inc.
 340 Quinnipiac St., Bldg. 40, Wallingford CT 06492
  
  
 ---------------------------------------------------------------
 Warning -- This program may not be used in any manner that
 competes with the business of Gaussian, Inc. or will provide
 assistance to any competitor of Gaussian, Inc.  The licensee
 of this program is prohibited from giving any competitor of
 Gaussian, Inc. access to this program.  By using this program,
 the user acknowledges that Gaussian, Inc. is engaged in the
 business of creating and licensing software in the field of
 computational chemistry and represents and warrants to the
 licensee that it is not a competitor of Gaussian, Inc. and that
 it will not use this program in any manner prohibited above.
 ---------------------------------------------------------------
  

 Cite this work as:
 Gaussian 16, Revision C.01,
 M. J. Frisch, G. W. Trucks, H. B. Schlegel, G. E. Scuseria, 
 M. A. Robb, J. R. Cheeseman, G. Scalmani, V. Barone, 
 G. A. Petersson, H. Nakatsuji, X. Li, M. Caricato, A. V. Marenich, 
 J. Bloino, B. G. Janesko, R. Gomperts, B. Mennucci, H. P. Hratchian, 
 J. V. Ortiz, A. F. Izmaylov, J. L. Sonnenberg, D. Williams-Young, 
 F. Ding, F. Lipparini, F. Egidi, J. Goings, B. Peng, A. Petrone, 
 T. Henderson, D. Ranasinghe, V. G. Zakrzewski, J. Gao, N. Rega, 
 G. Zheng, W. Liang, M. Hada, M. Ehara, K. Toyota, R. Fukuda, 
 J. Hasegawa, M. Ishida, T. Nakajima, Y. Honda, O. Kitao, H. Nakai, 
 T. Vreven, K. Throssell, J. A. Montgomery, Jr., J. E. Peralta, 
 F. Ogliaro, M. J. Bearpark, J. J. Heyd, E. N. Brothers, K. N. Kudin, 
 V. N. Staroverov, T. A. Keith, R. Kobayashi, J. Normand, 
 K. Raghavachari, A. P. Rendell, J. C. Burant, S. S. Iyengar, 
 J. Tomasi, M. Cossi, J. M. Millam, M. Klene, C. Adamo, R. Cammi, 
 J. W. Ochterski, R. L. Martin, K. Morokuma, O. Farkas, 
 J. B. Foresman, and D. J. Fox, Gaussian, Inc., Wallingford CT, 2019.
 
 ******************************************
 Gaussian 16:  ES64L-G16RevC.01  3-Jul-2019
                23-May-2025 
 ******************************************
 %mem=28GB
 %nprocshared=8
 Will use up to    8 processors via shared memory.
 ----------------------------------------------------------------------
 #P wb97xd/6-311++G(d,p) Symm(None) scf(xqc) pop(None) freq opt(CalcFC,
  Tight)
 ----------------------------------------------------------------------
 1/7=10,10=4,18=20,19=15,26=3,38=1/1,3;
 2/9=110,12=2,15=3,17=6,18=5,40=1/2;
 3/5=4,6=6,7=1111,11=2,25=1,30=1,71=2,74=-58,140=1/1,2,3;
 4//1;
 5/5=2,8=3,13=1,38=5/2,8;
 8/6=4,10=90,11=11/1;
 11/6=1,8=1,9=11,15=111,16=1,31=1/1,2,10;
 10/6=1,13=1,31=1/2;
 7/10=1,25=1,30=1/1,2,3,16;
 1/7=10,10=4,18=20,19=15,26=3/3(2);
 2/9=110,15=3/2;
 99//99;
 2/9=110,15=3/2;
 3/5=4,6=6,7=1111,11=2,25=1,30=1,71=1,74=-58/1,2,3;
 4/5=5,16=3,69=1/1;
 5/5=2,8=3,13=1,38=5/2,8;
 7/30=1/1,2,3,16;
 1/7=10,18=20,19=15,26=3/3(-5);
 2/9=110,15=3/2;
 99/9=1/99;
 Leave Link    1 at Fri May 23 04:44:11 2025, MaxMem=  3758096384 cpu:               0.1 elap:               0.0
 (Enter /apps/easybuild-2022/easybuild/software/Compiler/NVHPC/22.11-CUDA-11.7.0/Gaussian/g16c01-CUDA-11.7.0/g16/l101.exe)
 ------------------------------
 Gaussian input prepared by ASE
 ------------------------------
 Symbolic Z-matrix:
 Charge =  0 Multiplicity = 1
 C                    -0.79211   0.95581   0.93157 
 C                     0.        0.        0. 
 F                    -0.32275  -1.26699   0.31108 
 F                    -0.35866   0.23472  -1.27346 
 S                     1.92147   0.        0. 
 O                     2.14969  -0.52631   1.46353 
 O                     3.50444  -0.06436   1.00437 
 O                     1.92283   1.61777   0. 
 F                    -0.30369   0.90234   2.1666 
 F                    -0.73699   2.20492   0.49297 
 F                    -2.07035   0.57831   0.96455 
 H                     2.83204   1.90721   0.15454 
 
 ITRead=  0  0  0  0  0  0  0  0  0  0  0  0
 MicOpt= -1 -1 -1 -1 -1 -1 -1 -1 -1 -1 -1 -1
 NAtoms=     12 NQM=       12 NQMF=       0 NMMI=      0 NMMIF=      0
                NMic=       0 NMicF=      0.
                    Isotopes and Nuclear Properties:
 (Nuclear quadrupole moments (NQMom) in fm**2, nuclear magnetic moments (NMagM)
  in nuclear magnetons)

  Atom         1           2           3           4           5           6           7           8           9          10
 IAtWgt=          12          12          19          19          32          16          16          16          19          19
 AtmWgt=  12.0000000  12.0000000  18.9984032  18.9984032  31.9720718  15.9949146  15.9949146  15.9949146  18.9984032  18.9984032
 NucSpn=           0           0           1           1           0           0           0           0           1           1
 AtZEff=  -0.0000000  -0.0000000  -0.0000000  -0.0000000  -0.0000000  -0.0000000  -0.0000000  -0.0000000  -0.0000000  -0.0000000
 NQMom=    0.0000000   0.0000000   0.0000000   0.0000000   0.0000000   0.0000000   0.0000000   0.0000000   0.0000000   0.0000000
 NMagM=    0.0000000   0.0000000   2.6288670   2.6288670   0.0000000   0.0000000   0.0000000   0.0000000   2.6288670   2.6288670
 AtZNuc=   6.0000000   6.0000000   9.0000000   9.0000000  16.0000000   8.0000000   8.0000000   8.0000000   9.0000000   9.0000000

  Atom        11          12
 IAtWgt=          19           1
 AtmWgt=  18.9984032   1.0078250
 NucSpn=           1           1
 AtZEff=  -0.0000000  -0.0000000
 NQMom=    0.0000000   0.0000000
 NMagM=    2.6288670   2.7928460
 AtZNuc=   9.0000000   1.0000000
 Leave Link  101 at Fri May 23 04:44:12 2025, MaxMem=  3758096384 cpu:               0.3 elap:               0.2
 (Enter /apps/easybuild-2022/easybuild/software/Compiler/NVHPC/22.11-CUDA-11.7.0/Gaussian/g16c01-CUDA-11.7.0/g16/l103.exe)

 GradGradGradGradGradGradGradGradGradGradGradGradGradGradGradGradGradGrad
 Berny optimization.
 Initialization pass.
                           ----------------------------
                           !    Initial Parameters    !
                           ! (Angstroms and Degrees)  !
 --------------------------                            --------------------------
 ! Name  Definition              Value          Derivative Info.                !
 --------------------------------------------------------------------------------
 ! R1    R(1,2)                  1.552          calculate D2E/DX2 analytically  !
 ! R2    R(1,9)                  1.3292         calculate D2E/DX2 analytically  !
 ! R3    R(1,10)                 1.325          calculate D2E/DX2 analytically  !
 ! R4    R(1,11)                 1.3332         calculate D2E/DX2 analytically  !
 ! R5    R(2,3)                  1.344          calculate D2E/DX2 analytically  !
 ! R6    R(2,4)                  1.3437         calculate D2E/DX2 analytically  !
 ! R7    R(2,5)                  1.9215         calculate D2E/DX2 analytically  !
 ! R8    R(5,6)                  1.5719         calculate D2E/DX2 analytically  !
 ! R9    R(5,7)                  1.8758         calculate D2E/DX2 analytically  !
 ! R10   R(5,8)                  1.6178         calculate D2E/DX2 analytically  !
 ! R11   R(6,7)                  1.5032         calculate D2E/DX2 analytically  !
 ! R12   R(8,12)                 0.9666         calculate D2E/DX2 analytically  !
 ! A1    A(2,1,9)              110.2058         calculate D2E/DX2 analytically  !
 ! A2    A(2,1,10)             111.14           calculate D2E/DX2 analytically  !
 ! A3    A(2,1,11)             109.2564         calculate D2E/DX2 analytically  !
 ! A4    A(9,1,10)             109.2813         calculate D2E/DX2 analytically  !
 ! A5    A(9,1,11)             108.5375         calculate D2E/DX2 analytically  !
 ! A6    A(10,1,11)            108.3605         calculate D2E/DX2 analytically  !
 ! A7    A(1,2,3)              108.6072         calculate D2E/DX2 analytically  !
 ! A8    A(1,2,4)              108.9685         calculate D2E/DX2 analytically  !
 ! A9    A(1,2,5)              120.6882         calculate D2E/DX2 analytically  !
 ! A10   A(3,2,4)              108.6603         calculate D2E/DX2 analytically  !
 ! A11   A(3,2,5)              103.8955         calculate D2E/DX2 analytically  !
 ! A12   A(4,2,5)              105.4816         calculate D2E/DX2 analytically  !
 ! A13   A(2,5,6)               98.3478         calculate D2E/DX2 analytically  !
 ! A14   A(2,5,7)              147.5525         calculate D2E/DX2 analytically  !
 ! A15   A(2,5,8)               90.0483         calculate D2E/DX2 analytically  !
 ! A16   A(6,5,8)              109.5539         calculate D2E/DX2 analytically  !
 ! A17   A(7,5,8)               91.9253         calculate D2E/DX2 analytically  !
 ! A18   A(5,8,12)             107.4714         calculate D2E/DX2 analytically  !
 ! D1    D(9,1,2,3)             71.9918         calculate D2E/DX2 analytically  !
 ! D2    D(9,1,2,4)           -169.7978         calculate D2E/DX2 analytically  !
 ! D3    D(9,1,2,5)            -47.6431         calculate D2E/DX2 analytically  !
 ! D4    D(10,1,2,3)          -166.7054         calculate D2E/DX2 analytically  !
 ! D5    D(10,1,2,4)           -48.4951         calculate D2E/DX2 analytically  !
 ! D6    D(10,1,2,5)            73.6596         calculate D2E/DX2 analytically  !
 ! D7    D(11,1,2,3)           -47.1795         calculate D2E/DX2 analytically  !
 ! D8    D(11,1,2,4)            71.0309         calculate D2E/DX2 analytically  !
 ! D9    D(11,1,2,5)          -166.8144         calculate D2E/DX2 analytically  !
 ! D10   D(1,2,5,6)             65.5154         calculate D2E/DX2 analytically  !
 ! D11   D(1,2,5,7)             49.4022         calculate D2E/DX2 analytically  !
 ! D12   D(1,2,5,8)            -44.2641         calculate D2E/DX2 analytically  !
 ! D13   D(3,2,5,6)            -56.4256         calculate D2E/DX2 analytically  !
 ! D14   D(3,2,5,7)            -72.5388         calculate D2E/DX2 analytically  !
 ! D15   D(3,2,5,8)           -166.2051         calculate D2E/DX2 analytically  !
 ! D16   D(4,2,5,6)           -170.6641         calculate D2E/DX2 analytically  !
 ! D17   D(4,2,5,7)            173.2227         calculate D2E/DX2 analytically  !
 ! D18   D(4,2,5,8)             79.5564         calculate D2E/DX2 analytically  !
 ! D19   D(2,5,8,12)           170.3512         calculate D2E/DX2 analytically  !
 ! D20   D(6,5,8,12)            71.471          calculate D2E/DX2 analytically  !
 ! D21   D(7,5,8,12)            22.7447         calculate D2E/DX2 analytically  !
 --------------------------------------------------------------------------------
 Trust Radius=3.00D-01 FncErr=1.00D-07 GrdErr=1.00D-06 EigMax=2.50D+02 EigMin=1.00D-04
 Number of steps in this run=     61 maximum allowed number of steps=    100.
 GradGradGradGradGradGradGradGradGradGradGradGradGradGradGradGradGradGrad

 Leave Link  103 at Fri May 23 04:44:12 2025, MaxMem=  3758096384 cpu:               0.0 elap:               0.0
 (Enter /apps/easybuild-2022/easybuild/software/Compiler/NVHPC/22.11-CUDA-11.7.0/Gaussian/g16c01-CUDA-11.7.0/g16/l202.exe)
                          Input orientation:                          
 ---------------------------------------------------------------------
 Center     Atomic      Atomic             Coordinates (Angstroms)
 Number     Number       Type             X           Y           Z
 ---------------------------------------------------------------------
      1          6           0       -0.792107    0.955809    0.931566
      2          6           0        0.000000    0.000000    0.000000
      3          9           0       -0.322753   -1.266993    0.311083
      4          9           0       -0.358663    0.234725   -1.273463
      5         16           0        1.921470    0.000000    0.000000
      6          8           0        2.149689   -0.526312    1.463530
      7          8           0        3.504442   -0.064356    1.004367
      8          8           0        1.922835    1.617772    0.000000
      9          9           0       -0.303688    0.902335    2.166596
     10          9           0       -0.736988    2.204922    0.492967
     11          9           0       -2.070345    0.578314    0.964552
     12          1           0        2.832042    1.907207    0.154537
 ---------------------------------------------------------------------
                    Distance matrix (angstroms):
                    1          2          3          4          5
     1  C    0.000000
     2  C    1.552037   0.000000
     3  F    2.355025   1.343954   0.000000
     4  F    2.360082   1.343667   2.183399   0.000000
     5  S    3.024052   1.921470   2.595877   2.622177   0.000000
     6  O    3.336739   2.653316   2.826607   3.789741   1.571944
     7  O    4.416602   3.646095   4.071167   4.494612   1.875819
     8  O    2.945661   2.512863   3.668965   2.956309   1.617773
     9  F    1.329177   2.366553   2.854694   3.504672   3.234142
    10  F    1.325025   2.376521   3.501266   2.673028   3.488854
    11  F    1.333223   2.356085   2.624168   2.838418   4.147216
    12  H    3.826668   3.417862   4.478033   3.875174   2.119071
                    6          7          8          9         10
     6  O    0.000000
     7  O    1.503194   0.000000
     8  O    2.605855   2.517894   0.000000
     9  F    2.924789   4.097210   3.188008   0.000000
    10  F    4.090787   4.837446   2.768108   2.164605   0.000000
    11  F    4.390657   5.611851   4.237490   2.161244   2.155478
    12  H    2.846240   2.249754   0.966598   3.858880   3.597381
                   11         12
    11  F    0.000000
    12  H    5.143489   0.000000
 Symmetry turned off by external request.
 Stoichiometry    C2HF5O3S
 Rotational constants (GHZ):           1.6103888           0.7579736           0.7327417
 Leave Link  202 at Fri May 23 04:44:12 2025, MaxMem=  3758096384 cpu:               0.0 elap:               0.0
 (Enter /apps/easybuild-2022/easybuild/software/Compiler/NVHPC/22.11-CUDA-11.7.0/Gaussian/g16c01-CUDA-11.7.0/g16/l301.exe)
 Standard basis: 6-311++G(d,p) (5D, 7F)
 Ernie: Thresh=  0.10000D-02 Tol=  0.10000D-05 Strict=F.
   257 basis functions,   419 primitive gaussians,   268 cartesian basis functions
    49 alpha electrons       49 beta electrons
       nuclear repulsion energy       903.6019383854 Hartrees.
 IExCor= 4639 DFT=T Ex+Corr=wB97XD ExCW=0 ScaHFX=  1.000000
 ScaDFX=  1.000000  1.000000  1.000000  1.000000 ScalE2=  1.000000  1.000000
 IRadAn=      5 IRanWt=     -1 IRanGd=            0 ICorTp=0 IEmpDi=121
 HFx  wShort=  0.000000 wLong=  0.200000 cFull=  0.222036 cShort=  0.000000 cLong=  0.777964
 DFx  wShort=  0.000000 wLong=  0.200000 cFull=  0.000000 cShort=  0.000000 cLong=  1.000000
 NAtoms=   12 NActive=   12 NUniq=   12 SFac= 1.00D+00 NAtFMM=   60 NAOKFM=F Big=F
 Integral buffers will be    131072 words long.
 Raffenetti 2 integral format.
 Two-electron integral symmetry is turned off.
 R6Disp:  Grimme-D2 Dispersion energy=       -0.0052476519 Hartrees.
 Nuclear repulsion after empirical dispersion term =      903.5966907335 Hartrees.
 Leave Link  301 at Fri May 23 04:44:12 2025, MaxMem=  3758096384 cpu:               0.0 elap:               0.0
 (Enter /apps/easybuild-2022/easybuild/software/Compiler/NVHPC/22.11-CUDA-11.7.0/Gaussian/g16c01-CUDA-11.7.0/g16/l302.exe)
 NPDir=0 NMtPBC=     1 NCelOv=     1 NCel=       1 NClECP=     1 NCelD=      1
         NCelK=      1 NCelE2=     1 NClLst=     1 CellRange=     0.0.
 One-electron integrals computed using PRISM.
 NBasis=   257 RedAO= T EigKep=  5.57D-05  NBF=   257
 NBsUse=   257 1.00D-06 EigRej= -1.00D+00 NBFU=   257
 Precomputing XC quadrature grid using
 IXCGrd= 4 IRadAn=           5 IRanWt=          -1 IRanGd=           0 AccXCQ= 0.00D+00.
 Generated NRdTot=       0 NPtTot=           0 NUsed=           0 NTot=          32
 NSgBfM=   268   268   268   268   268 MxSgAt=    12 MxSgA2=    12.
 Leave Link  302 at Fri May 23 04:44:12 2025, MaxMem=  3758096384 cpu:               0.7 elap:               0.1
 (Enter /apps/easybuild-2022/easybuild/software/Compiler/NVHPC/22.11-CUDA-11.7.0/Gaussian/g16c01-CUDA-11.7.0/g16/l303.exe)
 DipDrv:  MaxL=1.
 Leave Link  303 at Fri May 23 04:44:12 2025, MaxMem=  3758096384 cpu:               0.1 elap:               0.0
 (Enter /apps/easybuild-2022/easybuild/software/Compiler/NVHPC/22.11-CUDA-11.7.0/Gaussian/g16c01-CUDA-11.7.0/g16/l401.exe)
 ExpMin= 3.60D-02 ExpMax= 9.34D+04 ExpMxC= 3.17D+03 IAcc=3 IRadAn=         5 AccDes= 0.00D+00
 Harris functional with IExCor= 4639 and IRadAn=       5 diagonalized for initial guess.
 HarFok:  IExCor= 4639 AccDes= 0.00D+00 IRadAn=         5 IDoV= 1 UseB2=F ITyADJ=14
 ICtDFT=  3500011 ScaDFX=  1.000000  1.000000  1.000000  1.000000
 FoFCou: FMM=F IPFlag=           0 FMFlag=      100000 FMFlg1=           0
         NFxFlg=           0 DoJE=T BraDBF=F KetDBF=T FulRan=T
         wScrn=  0.000000 ICntrl=       500 IOpCl=  0 I1Cent=   200000004 NGrid=           0
         NMat0=    1 NMatS0=      1 NMatT0=    0 NMatD0=    1 NMtDS0=    0 NMtDT0=    0
 Symmetry not used in FoFCou.
 Harris En= -1167.01149773950    
 JPrj=0 DoOrth=F DoCkMO=F.
 Leave Link  401 at Fri May 23 04:44:12 2025, MaxMem=  3758096384 cpu:               2.7 elap:               0.4
 (Enter /apps/easybuild-2022/easybuild/software/Compiler/NVHPC/22.11-CUDA-11.7.0/Gaussian/g16c01-CUDA-11.7.0/g16/l502.exe)
 Keep R1 ints in memory in canonical form, NReq=1117474609.
 FoFCou: FMM=F IPFlag=           0 FMFlag=           0 FMFlg1=           0
         NFxFlg=           0 DoJE=F BraDBF=F KetDBF=F FulRan=T
         wScrn=  0.000000 ICntrl=       600 IOpCl=  0 I1Cent=           0 NGrid=           0
         NMat0=    1 NMatS0=  33153 NMatT0=    0 NMatD0=    1 NMtDS0=    0 NMtDT0=    0
 Symmetry not used in FoFCou.
 Two-electron integral symmetry not used.
 Closed shell SCF:
 Using DIIS extrapolation, IDIIS=  1040.
 NGot=  3758096384 LenX=  2658793876 LenY=  2658721611
 Requested convergence on RMS density matrix=1.00D-08 within  32 cycles.
 Requested convergence on MAX density matrix=1.00D-06.
 Requested convergence on             energy=1.00D-06.
 No special actions if energy rises.

 Cycle   1  Pass 1  IDiag  1:
 E= -1198.97863632914    
 DIIS: error= 1.14D-01 at cycle   1 NSaved=   1.
 NSaved= 1 IEnMin= 1 EnMin= -1198.97863632914     IErMin= 1 ErrMin= 1.14D-01
 ErrMax= 1.14D-01  0.00D+00 EMaxC= 1.00D-01 BMatC= 3.35D+00 BMatP= 3.35D+00
 IDIUse=3 WtCom= 0.00D+00 WtEn= 1.00D+00
 Coeff-Com:  0.100D+01
 Coeff-En:   0.100D+01
 Coeff:      0.100D+01
 Gap=     0.560 Goal=   None    Shift=    0.000
 GapD=    0.560 DampG=2.000 DampE=0.250 DampFc=0.5000 IDamp=-1.
 Damping current iteration by 5.00D-01
 RMSDP=7.45D-03 MaxDP=6.02D-01              OVMax= 1.65D-01

 Cycle   2  Pass 1  IDiag  1:
 E= -1199.35147079718     Delta-E=       -0.372834468033 Rises=F Damp=T
 DIIS: error= 4.94D-02 at cycle   2 NSaved=   2.
 NSaved= 2 IEnMin= 2 EnMin= -1199.35147079718     IErMin= 2 ErrMin= 4.94D-02
 ErrMax= 4.94D-02  0.00D+00 EMaxC= 1.00D-01 BMatC= 4.76D-01 BMatP= 3.35D+00
 IDIUse=3 WtCom= 5.06D-01 WtEn= 4.94D-01
 Coeff-Com: -0.416D+00 0.142D+01
 Coeff-En:   0.000D+00 0.100D+01
 Coeff:     -0.211D+00 0.121D+01
 Gap=     0.450 Goal=   None    Shift=    0.000
 RMSDP=3.11D-03 MaxDP=2.28D-01 DE=-3.73D-01 OVMax= 9.08D-02

 Cycle   3  Pass 1  IDiag  1:
 E= -1199.64633655219     Delta-E=       -0.294865755016 Rises=F Damp=F
 DIIS: error= 1.29D-02 at cycle   3 NSaved=   3.
 NSaved= 3 IEnMin= 3 EnMin= -1199.64633655219     IErMin= 3 ErrMin= 1.29D-02
 ErrMax= 1.29D-02  0.00D+00 EMaxC= 1.00D-01 BMatC= 5.55D-02 BMatP= 4.76D-01
 IDIUse=3 WtCom= 8.71D-01 WtEn= 1.29D-01
 Coeff-Com: -0.152D+00 0.450D+00 0.703D+00
 Coeff-En:   0.000D+00 0.000D+00 0.100D+01
 Coeff:     -0.133D+00 0.392D+00 0.741D+00
 Gap=     0.400 Goal=   None    Shift=    0.000
 RMSDP=1.08D-03 MaxDP=3.22D-02 DE=-2.95D-01 OVMax= 5.72D-02

 Cycle   4  Pass 1  IDiag  1:
 E= -1199.65994852495     Delta-E=       -0.013611972763 Rises=F Damp=F
 DIIS: error= 1.26D-02 at cycle   4 NSaved=   4.
 NSaved= 4 IEnMin= 4 EnMin= -1199.65994852495     IErMin= 4 ErrMin= 1.26D-02
 ErrMax= 1.26D-02  0.00D+00 EMaxC= 1.00D-01 BMatC= 3.24D-02 BMatP= 5.55D-02
 IDIUse=3 WtCom= 8.74D-01 WtEn= 1.26D-01
 Coeff-Com: -0.366D-01 0.960D-01 0.442D+00 0.498D+00
 Coeff-En:   0.000D+00 0.000D+00 0.395D+00 0.605D+00
 Coeff:     -0.320D-01 0.839D-01 0.436D+00 0.512D+00
 Gap=     0.397 Goal=   None    Shift=    0.000
 RMSDP=5.94D-04 MaxDP=1.79D-02 DE=-1.36D-02 OVMax= 3.14D-02

 Cycle   5  Pass 1  IDiag  1:
 E= -1199.67994709906     Delta-E=       -0.019998574101 Rises=F Damp=F
 DIIS: error= 3.10D-03 at cycle   5 NSaved=   5.
 NSaved= 5 IEnMin= 5 EnMin= -1199.67994709906     IErMin= 5 ErrMin= 3.10D-03
 ErrMax= 3.10D-03  0.00D+00 EMaxC= 1.00D-01 BMatC= 2.26D-03 BMatP= 3.24D-02
 IDIUse=3 WtCom= 9.69D-01 WtEn= 3.10D-02
 Coeff-Com: -0.644D-02 0.152D-01 0.211D+00 0.305D+00 0.475D+00
 Coeff-En:   0.000D+00 0.000D+00 0.000D+00 0.000D+00 0.100D+01
 Coeff:     -0.624D-02 0.147D-01 0.205D+00 0.296D+00 0.491D+00
 Gap=     0.384 Goal=   None    Shift=    0.000
 RMSDP=1.44D-04 MaxDP=3.60D-03 DE=-2.00D-02 OVMax= 6.74D-03

 Cycle   6  Pass 1  IDiag  1:
 E= -1199.68135992411     Delta-E=       -0.001412825056 Rises=F Damp=F
 DIIS: error= 2.91D-04 at cycle   6 NSaved=   6.
 NSaved= 6 IEnMin= 6 EnMin= -1199.68135992411     IErMin= 6 ErrMin= 2.91D-04
 ErrMax= 2.91D-04  0.00D+00 EMaxC= 1.00D-01 BMatC= 4.07D-05 BMatP= 2.26D-03
 IDIUse=3 WtCom= 9.97D-01 WtEn= 2.91D-03
 Coeff-Com:  0.247D-02-0.625D-02 0.980D-02 0.200D-01 0.127D+00 0.847D+00
 Coeff-En:   0.000D+00 0.000D+00 0.000D+00 0.000D+00 0.000D+00 0.100D+01
 Coeff:      0.247D-02-0.623D-02 0.977D-02 0.200D-01 0.127D+00 0.847D+00
 Gap=     0.385 Goal=   None    Shift=    0.000
 RMSDP=6.55D-05 MaxDP=3.83D-03 DE=-1.41D-03 OVMax= 2.25D-03

 Cycle   7  Pass 1  IDiag  1:
 E= -1199.68139670497     Delta-E=       -0.000036780857 Rises=F Damp=F
 DIIS: error= 9.91D-05 at cycle   7 NSaved=   7.
 NSaved= 7 IEnMin= 7 EnMin= -1199.68139670497     IErMin= 7 ErrMin= 9.91D-05
 ErrMax= 9.91D-05  0.00D+00 EMaxC= 1.00D-01 BMatC= 6.02D-06 BMatP= 4.07D-05
 IDIUse=1 WtCom= 1.00D+00 WtEn= 0.00D+00
 Coeff-Com:  0.177D-02-0.423D-02-0.161D-01-0.213D-01 0.131D-02 0.349D+00
 Coeff-Com:  0.690D+00
 Coeff:      0.177D-02-0.423D-02-0.161D-01-0.213D-01 0.131D-02 0.349D+00
 Coeff:      0.690D+00
 Gap=     0.384 Goal=   None    Shift=    0.000
 RMSDP=1.63D-05 MaxDP=4.49D-04 DE=-3.68D-05 OVMax= 7.22D-04

 Cycle   8  Pass 1  IDiag  1:
 E= -1199.68140157806     Delta-E=       -0.000004873093 Rises=F Damp=F
 DIIS: error= 3.84D-05 at cycle   8 NSaved=   8.
 NSaved= 8 IEnMin= 8 EnMin= -1199.68140157806     IErMin= 8 ErrMin= 3.84D-05
 ErrMax= 3.84D-05  0.00D+00 EMaxC= 1.00D-01 BMatC= 1.06D-06 BMatP= 6.02D-06
 IDIUse=1 WtCom= 1.00D+00 WtEn= 0.00D+00
 Coeff-Com:  0.471D-03-0.106D-02-0.900D-02-0.132D-01-0.196D-01 0.411D-01
 Coeff-Com:  0.345D+00 0.657D+00
 Coeff:      0.471D-03-0.106D-02-0.900D-02-0.132D-01-0.196D-01 0.411D-01
 Coeff:      0.345D+00 0.657D+00
 Gap=     0.384 Goal=   None    Shift=    0.000
 RMSDP=8.57D-06 MaxDP=6.94D-04 DE=-4.87D-06 OVMax= 3.36D-04

 Cycle   9  Pass 1  IDiag  1:
 E= -1199.68140256944     Delta-E=       -0.000000991377 Rises=F Damp=F
 DIIS: error= 6.56D-06 at cycle   9 NSaved=   9.
 NSaved= 9 IEnMin= 9 EnMin= -1199.68140256944     IErMin= 9 ErrMin= 6.56D-06
 ErrMax= 6.56D-06  0.00D+00 EMaxC= 1.00D-01 BMatC= 2.36D-08 BMatP= 1.06D-06
 IDIUse=1 WtCom= 1.00D+00 WtEn= 0.00D+00
 Coeff-Com: -0.684D-04 0.163D-03 0.732D-04 0.167D-04-0.179D-02-0.178D-01
 Coeff-Com: -0.162D-01 0.469D-01 0.989D+00
 Coeff:     -0.684D-04 0.163D-03 0.732D-04 0.167D-04-0.179D-02-0.178D-01
 Coeff:     -0.162D-01 0.469D-01 0.989D+00
 Gap=     0.384 Goal=   None    Shift=    0.000
 RMSDP=2.75D-06 MaxDP=1.82D-04 DE=-9.91D-07 OVMax= 1.26D-04

 Cycle  10  Pass 1  IDiag  1:
 E= -1199.68140263283     Delta-E=       -0.000000063393 Rises=F Damp=F
 DIIS: error= 4.67D-06 at cycle  10 NSaved=  10.
 NSaved=10 IEnMin=10 EnMin= -1199.68140263283     IErMin=10 ErrMin= 4.67D-06
 ErrMax= 4.67D-06  0.00D+00 EMaxC= 1.00D-01 BMatC= 1.20D-08 BMatP= 2.36D-08
 IDIUse=1 WtCom= 1.00D+00 WtEn= 0.00D+00
 Coeff-Com: -0.100D-03 0.229D-03 0.125D-02 0.179D-02 0.171D-02-0.150D-01
 Coeff-Com: -0.581D-01-0.635D-01 0.481D+00 0.651D+00
 Coeff:     -0.100D-03 0.229D-03 0.125D-02 0.179D-02 0.171D-02-0.150D-01
 Coeff:     -0.581D-01-0.635D-01 0.481D+00 0.651D+00
 Gap=     0.384 Goal=   None    Shift=    0.000
 RMSDP=8.59D-07 MaxDP=3.20D-05 DE=-6.34D-08 OVMax= 4.31D-05

 Cycle  11  Pass 1  IDiag  1:
 E= -1199.68140264703     Delta-E=       -0.000000014204 Rises=F Damp=F
 DIIS: error= 1.16D-06 at cycle  11 NSaved=  11.
 NSaved=11 IEnMin=11 EnMin= -1199.68140264703     IErMin=11 ErrMin= 1.16D-06
 ErrMax= 1.16D-06  0.00D+00 EMaxC= 1.00D-01 BMatC= 7.75D-10 BMatP= 1.20D-08
 IDIUse=1 WtCom= 1.00D+00 WtEn= 0.00D+00
 Coeff-Com: -0.995D-05 0.220D-04 0.262D-03 0.404D-03 0.754D-03 0.432D-03
 Coeff-Com: -0.112D-01-0.173D-01-0.696D-01 0.117D+00 0.979D+00
 Coeff:     -0.995D-05 0.220D-04 0.262D-03 0.404D-03 0.754D-03 0.432D-03
 Coeff:     -0.112D-01-0.173D-01-0.696D-01 0.117D+00 0.979D+00
 Gap=     0.384 Goal=   None    Shift=    0.000
 RMSDP=4.24D-07 MaxDP=1.14D-05 DE=-1.42D-08 OVMax= 2.52D-05

 Cycle  12  Pass 1  IDiag  1:
 E= -1199.68140264894     Delta-E=       -0.000000001905 Rises=F Damp=F
 DIIS: error= 3.54D-07 at cycle  12 NSaved=  12.
 NSaved=12 IEnMin=12 EnMin= -1199.68140264894     IErMin=12 ErrMin= 3.54D-07
 ErrMax= 3.54D-07  0.00D+00 EMaxC= 1.00D-01 BMatC= 8.65D-11 BMatP= 7.75D-10
 IDIUse=1 WtCom= 1.00D+00 WtEn= 0.00D+00
 Coeff-Com:  0.742D-05-0.168D-04-0.659D-04-0.840D-04-0.228D-04 0.138D-02
 Coeff-Com:  0.299D-02 0.284D-02-0.629D-01-0.318D-01 0.253D+00 0.835D+00
 Coeff:      0.742D-05-0.168D-04-0.659D-04-0.840D-04-0.228D-04 0.138D-02
 Coeff:      0.299D-02 0.284D-02-0.629D-01-0.318D-01 0.253D+00 0.835D+00
 Gap=     0.384 Goal=   None    Shift=    0.000
 RMSDP=1.09D-07 MaxDP=4.78D-06 DE=-1.91D-09 OVMax= 7.53D-06

 Cycle  13  Pass 1  IDiag  1:
 E= -1199.68140264916     Delta-E=       -0.000000000217 Rises=F Damp=F
 DIIS: error= 1.49D-07 at cycle  13 NSaved=  13.
 NSaved=13 IEnMin=13 EnMin= -1199.68140264916     IErMin=13 ErrMin= 1.49D-07
 ErrMax= 1.49D-07  0.00D+00 EMaxC= 1.00D-01 BMatC= 1.62D-11 BMatP= 8.65D-11
 IDIUse=1 WtCom= 1.00D+00 WtEn= 0.00D+00
 Coeff-Com:  0.287D-05-0.636D-05-0.401D-04-0.576D-04-0.878D-04 0.232D-03
 Coeff-Com:  0.200D-02 0.235D-02-0.411D-02-0.243D-01-0.811D-01 0.257D+00
 Coeff-Com:  0.848D+00
 Coeff:      0.287D-05-0.636D-05-0.401D-04-0.576D-04-0.878D-04 0.232D-03
 Coeff:      0.200D-02 0.235D-02-0.411D-02-0.243D-01-0.811D-01 0.257D+00
 Coeff:      0.848D+00
 Gap=     0.384 Goal=   None    Shift=    0.000
 RMSDP=4.73D-08 MaxDP=9.07D-07 DE=-2.17D-10 OVMax= 3.58D-06

 Cycle  14  Pass 1  IDiag  1:
 E= -1199.68140264919     Delta-E=       -0.000000000031 Rises=F Damp=F
 DIIS: error= 7.30D-08 at cycle  14 NSaved=  14.
 NSaved=14 IEnMin=14 EnMin= -1199.68140264919     IErMin=14 ErrMin= 7.30D-08
 ErrMax= 7.30D-08  0.00D+00 EMaxC= 1.00D-01 BMatC= 2.42D-12 BMatP= 1.62D-11
 IDIUse=1 WtCom= 1.00D+00 WtEn= 0.00D+00
 Coeff-Com:  0.143D-08 0.202D-07-0.592D-05-0.110D-04-0.378D-04-0.123D-03
 Coeff-Com:  0.354D-03 0.615D-03 0.760D-02-0.517D-02-0.672D-01-0.225D-01
 Coeff-Com:  0.291D+00 0.796D+00
 Coeff:      0.143D-08 0.202D-07-0.592D-05-0.110D-04-0.378D-04-0.123D-03
 Coeff:      0.354D-03 0.615D-03 0.760D-02-0.517D-02-0.672D-01-0.225D-01
 Coeff:      0.291D+00 0.796D+00
 Gap=     0.384 Goal=   None    Shift=    0.000
 RMSDP=1.77D-08 MaxDP=4.70D-07 DE=-3.09D-11 OVMax= 1.26D-06

 Cycle  15  Pass 1  IDiag  1:
 E= -1199.68140264921     Delta-E=       -0.000000000027 Rises=F Damp=F
 DIIS: error= 2.58D-08 at cycle  15 NSaved=  15.
 NSaved=15 IEnMin=15 EnMin= -1199.68140264921     IErMin=15 ErrMin= 2.58D-08
 ErrMax= 2.58D-08  0.00D+00 EMaxC= 1.00D-01 BMatC= 3.26D-13 BMatP= 2.42D-12
 IDIUse=1 WtCom= 1.00D+00 WtEn= 0.00D+00
 Coeff-Com: -0.487D-06 0.108D-05 0.489D-05 0.574D-05 0.488D-06-0.793D-04
 Coeff-Com: -0.205D-03-0.131D-03 0.324D-02 0.183D-02-0.109D-01-0.472D-01
 Coeff-Com: -0.256D-01 0.263D+00 0.816D+00
 Coeff:     -0.487D-06 0.108D-05 0.489D-05 0.574D-05 0.488D-06-0.793D-04
 Coeff:     -0.205D-03-0.131D-03 0.324D-02 0.183D-02-0.109D-01-0.472D-01
 Coeff:     -0.256D-01 0.263D+00 0.816D+00
 Gap=     0.384 Goal=   None    Shift=    0.000
 RMSDP=6.72D-09 MaxDP=1.76D-07 DE=-2.68D-11 OVMax= 5.09D-07

 SCF Done:  E(RwB97XD) =  -1199.68140265     A.U. after   15 cycles
            NFock= 15  Conv=0.67D-08     -V/T= 2.0020
 KE= 1.197340907200D+03 PE=-4.655046252744D+03 EE= 1.354427252161D+03
 Leave Link  502 at Fri May 23 04:44:27 2025, MaxMem=  3758096384 cpu:              69.0 elap:              15.1
 (Enter /apps/easybuild-2022/easybuild/software/Compiler/NVHPC/22.11-CUDA-11.7.0/Gaussian/g16c01-CUDA-11.7.0/g16/l508.exe)
 QCSCF skips out because SCF is already converged.
 Leave Link  508 at Fri May 23 04:44:27 2025, MaxMem=  3758096384 cpu:               0.1 elap:               0.0
 (Enter /apps/easybuild-2022/easybuild/software/Compiler/NVHPC/22.11-CUDA-11.7.0/Gaussian/g16c01-CUDA-11.7.0/g16/l801.exe)
 DoSCS=F DFT=T ScalE2(SS,OS)=  1.000000  1.000000
 Range of M.O.s used for correlation:     1   257
 NBasis=   257 NAE=    49 NBE=    49 NFC=     0 NFV=     0
 NROrb=    257 NOA=    49 NOB=    49 NVA=   208 NVB=   208

 **** Warning!!: The largest alpha MO coefficient is  0.37046640D+02

 Leave Link  801 at Fri May 23 04:44:27 2025, MaxMem=  3758096384 cpu:               0.1 elap:               0.0
 (Enter /apps/easybuild-2022/easybuild/software/Compiler/NVHPC/22.11-CUDA-11.7.0/Gaussian/g16c01-CUDA-11.7.0/g16/l1101.exe)
 Using compressed storage, NAtomX=    12.
 Will process     13 centers per pass.
 R6Disp: Adding Grimme-D2 dispersion energy 1st derivatives to the gradient.
 Leave Link 1101 at Fri May 23 04:44:28 2025, MaxMem=  3758096384 cpu:               0.8 elap:               0.2
 (Enter /apps/easybuild-2022/easybuild/software/Compiler/NVHPC/22.11-CUDA-11.7.0/Gaussian/g16c01-CUDA-11.7.0/g16/l1102.exe)
 Symmetrizing basis deriv contribution to polar:
 IMax=3 JMax=2 DiffMx= 0.00D+00
 Leave Link 1102 at Fri May 23 04:44:28 2025, MaxMem=  3758096384 cpu:               0.1 elap:               0.0
 (Enter /apps/easybuild-2022/easybuild/software/Compiler/NVHPC/22.11-CUDA-11.7.0/Gaussian/g16c01-CUDA-11.7.0/g16/l1110.exe)
 Forming Gx(P) for the SCF density, NAtomX=    12.
 Integral derivatives from FoFJK, PRISM(SPDF).
 Do as many integral derivatives as possible in FoFJK.
 G2DrvN: MDV=    3758095012.
 G2DrvN: will do    13 centers at a time, making    1 passes.
 Calling FoFCou, ICntrl=  3107 FMM=F I1Cent=   0 AccDes= 0.00D+00.
 FoFJK:  IHMeth= 1 ICntrl=    3107 DoSepK=T KAlg= 0 I1Cent=           0 FoldK=F
 IRaf=         1 NMat=       1 IRICut=       1 DoRegI=T DoRafI=F ISym2E= 0 IDoP0=0 IntGTp=1.
 FoFCou: FMM=F IPFlag=           0 FMFlag=      100000 FMFlg1=           0
         NFxFlg=           0 DoJE=F BraDBF=F KetDBF=F FulRan=T
         wScrn=  0.000000 ICntrl=      3507 IOpCl=  0 I1Cent=           0 NGrid=           0
         NMat0=    1 NMatS0=      1 NMatT0=    0 NMatD0=    1 NMtDS0=    0 NMtDT0=    0
 Symmetry not used in FoFCou.
 End of G2Drv F.D. properties file   721 does not exist.
 End of G2Drv F.D. properties file   722 does not exist.
 End of G2Drv F.D. properties file   788 does not exist.
 Leave Link 1110 at Fri May 23 04:44:39 2025, MaxMem=  3758096384 cpu:              90.7 elap:              11.5
 (Enter /apps/easybuild-2022/easybuild/software/Compiler/NVHPC/22.11-CUDA-11.7.0/Gaussian/g16c01-CUDA-11.7.0/g16/l1002.exe)
 Minotr:  Closed shell wavefunction.
          IDoAtm=111111111111
          Direct CPHF calculation.
          Differentiating once with respect to nuclear coordinates.
          Requested convergence is 1.0D-08 RMS, and 1.0D-07 maximum.
          Secondary convergence is 1.0D-12 RMS, and 1.0D-12 maximum.
          NewPWx=T KeepS1=F KeepF1=F KeepIn=T MapXYZ=F SortEE=F KeepMc=T.
         3710 words used for storage of precomputed grid.
 Keep R1 ints in memory in canonical form, NReq=1117480302.
 FoFCou: FMM=F IPFlag=           0 FMFlag=           0 FMFlg1=           0
         NFxFlg=           0 DoJE=F BraDBF=F KetDBF=F FulRan=T
         wScrn=  0.000000 ICntrl=       600 IOpCl=  0 I1Cent=           0 NGrid=           0
         NMat0=    1 NMatS0=  33153 NMatT0=    0 NMatD0=    1 NMtDS0=    0 NMtDT0=    0
 Symmetry not used in FoFCou.
 Two-electron integral symmetry not used.
          MDV=    3758096384 using IRadAn=       1.
          Solving linear equations simultaneously, MaxMat=       0.
          There are    39 degrees of freedom in the 1st order CPHF.  IDoFFX=6 NUNeed=     0.
     33 vectors produced by pass  0 Test12= 2.61D-14 2.56D-09 XBig12= 1.32D-01 6.64D-02.
 AX will form    33 AO Fock derivatives at one time.
     33 vectors produced by pass  1 Test12= 2.61D-14 2.56D-09 XBig12= 2.51D-02 3.70D-02.
     33 vectors produced by pass  2 Test12= 2.61D-14 2.56D-09 XBig12= 1.35D-03 5.03D-03.
     33 vectors produced by pass  3 Test12= 2.61D-14 2.56D-09 XBig12= 2.22D-05 6.65D-04.
     33 vectors produced by pass  4 Test12= 2.61D-14 2.56D-09 XBig12= 3.22D-07 1.14D-04.
     33 vectors produced by pass  5 Test12= 2.61D-14 2.56D-09 XBig12= 4.27D-09 1.11D-05.
     33 vectors produced by pass  6 Test12= 2.61D-14 2.56D-09 XBig12= 3.67D-11 7.25D-07.
     24 vectors produced by pass  7 Test12= 2.61D-14 2.56D-09 XBig12= 2.72D-13 5.70D-08.
      6 vectors produced by pass  8 Test12= 2.61D-14 2.56D-09 XBig12= 1.75D-15 5.37D-09.
 InvSVY:  IOpt=1 It=  1 EMax= 1.55D-15
 Solved reduced A of dimension   261 with    33 vectors.
 End of Minotr F.D. properties file   721 does not exist.
 End of Minotr F.D. properties file   722 does not exist.
 End of Minotr F.D. properties file   788 does not exist.
 Leave Link 1002 at Fri May 23 04:45:04 2025, MaxMem=  3758096384 cpu:             195.1 elap:              25.1
 (Enter /apps/easybuild-2022/easybuild/software/Compiler/NVHPC/22.11-CUDA-11.7.0/Gaussian/g16c01-CUDA-11.7.0/g16/l701.exe)
 ... and contract with generalized density number  0.
 Compute integral second derivatives.
 R6Disp: Adding Grimme-D2 dispersion energy 2nd derivatives to the Hessian.
 Leave Link  701 at Fri May 23 04:45:04 2025, MaxMem=  3758096384 cpu:               0.8 elap:               0.1
 (Enter /apps/easybuild-2022/easybuild/software/Compiler/NVHPC/22.11-CUDA-11.7.0/Gaussian/g16c01-CUDA-11.7.0/g16/l702.exe)
 L702 exits ... SP integral derivatives will be done elsewhere.
 Leave Link  702 at Fri May 23 04:45:04 2025, MaxMem=  3758096384 cpu:               0.1 elap:               0.0
 (Enter /apps/easybuild-2022/easybuild/software/Compiler/NVHPC/22.11-CUDA-11.7.0/Gaussian/g16c01-CUDA-11.7.0/g16/l703.exe)
 Integral derivatives from FoFJK, PRISM(SPDF).
 Compute integral second derivatives, UseDBF=F ICtDFT=           0.
 Calling FoFJK, ICntrl=    100127 FMM=F ISym2X=0 I1Cent= 0 IOpClX= 0 NMat=1 NMatS=1 NMatT=0.
 FoFJK:  IHMeth= 1 ICntrl=  100127 DoSepK=T KAlg= 0 I1Cent=           0 FoldK=F
 IRaf=         1 NMat=       1 IRICut=       1 DoRegI=T DoRafI=F ISym2E= 0 IDoP0=0 IntGTp=1.
 FoFCou: FMM=F IPFlag=           0 FMFlag=      100000 FMFlg1=         800
         NFxFlg=           0 DoJE=F BraDBF=F KetDBF=F FulRan=T
         wScrn=  0.000000 ICntrl=    100527 IOpCl=  0 I1Cent=           0 NGrid=           0
         NMat0=    1 NMatS0=      1 NMatT0=    0 NMatD0=    1 NMtDS0=    0 NMtDT0=    0
 Symmetry not used in FoFCou.
 Leave Link  703 at Fri May 23 04:45:39 2025, MaxMem=  3758096384 cpu:             274.6 elap:              34.7
 (Enter /apps/easybuild-2022/easybuild/software/Compiler/NVHPC/22.11-CUDA-11.7.0/Gaussian/g16c01-CUDA-11.7.0/g16/l716.exe)
 Dipole        = 1.76632831D-01 4.79886764D-01-7.32888333D-01
 Polarizability= 0.00000000D+00 0.00000000D+00 0.00000000D+00
                 0.00000000D+00 0.00000000D+00 0.00000000D+00
 -------------------------------------------------------------------
 Center     Atomic                   Forces (Hartrees/Bohr)
 Number     Number              X              Y              Z
 -------------------------------------------------------------------
      1        6          -0.000030063   -0.000038211    0.000012606
      2        6          -0.000027384    0.000177687    0.000023313
      3        9           0.000050914    0.000045082   -0.000026383
      4        9           0.000005571   -0.000003138   -0.000013524
      5       16           0.000068338   -0.000155801   -0.000024901
      6        8           0.000222506   -0.000010398    0.000059185
      7        8          -0.000104443    0.000032340   -0.000022398
      8        8          -0.000244687   -0.000043909    0.000012676
      9        9          -0.000026375   -0.000004612   -0.000012029
     10        9           0.000095882    0.000012950   -0.000021165
     11        9          -0.000009993    0.000013158   -0.000004239
     12        1          -0.000000264   -0.000025148    0.000016858
 -------------------------------------------------------------------
 Cartesian Forces:  Max     0.000244687 RMS     0.000076360
 Force constants in Cartesian coordinates: 
                1             2             3             4             5 
      1  0.541403D+00
      2 -0.184228D-01  0.573867D+00
      3 -0.109367D-01  0.691127D-02  0.566195D+00
      4 -0.940469D-01  0.249152D-01  0.241616D-01  0.425559D+00
      5  0.581878D-01 -0.889591D-01 -0.498823D-01 -0.463537D-03  0.506217D+00
      6  0.563675D-01 -0.501131D-01 -0.878279D-01  0.115418D-02  0.184595D-01
      7  0.569913D-03  0.101677D-01  0.675327D-03 -0.915946D-01 -0.702444D-01
      8 -0.204304D-01 -0.450904D-01  0.185423D-01 -0.577501D-01 -0.270849D+00
      9 -0.633168D-02 -0.102969D-01  0.601844D-02  0.124017D-01  0.282671D-01
     10  0.345806D-02  0.643717D-03  0.912697D-02 -0.942622D-01  0.932092D-02
     11 -0.833546D-02  0.346577D-02 -0.120389D-01  0.872121D-02 -0.679643D-01
     12 -0.239605D-01  0.140768D-01 -0.447303D-01 -0.622559D-01  0.669825D-02
     13 -0.151958D-01  0.128508D-01  0.141270D-01 -0.123777D+00  0.195271D-01
     14  0.156592D-01  0.194898D-01  0.390211D-02  0.157754D-01 -0.322211D-01
     15  0.159873D-01  0.849284D-02  0.215058D-01  0.830827D-02 -0.209565D-01
     16  0.255828D-02 -0.762688D-03  0.107842D-02  0.117525D-01 -0.392788D-03
     17 -0.353260D-03 -0.388109D-03  0.551221D-03  0.838588D-03 -0.268959D-02
     18 -0.108937D-02  0.234645D-02 -0.341250D-02  0.814694D-02 -0.350801D-02
     19 -0.603331D-03 -0.784696D-02 -0.877169D-02 -0.372500D-02  0.188910D-01
     20 -0.183592D-02 -0.338079D-02 -0.169955D-02 -0.483920D-02  0.427422D-02
     21 -0.176807D-02 -0.664187D-02 -0.964639D-02 -0.500342D-03  0.144433D-01
     22  0.312052D-02  0.204254D-02 -0.164803D-02  0.102116D-01 -0.334585D-01
     23 -0.657703D-03 -0.989931D-02 -0.186952D-02  0.522548D-02 -0.120895D-01
     24 -0.260091D-02 -0.245747D-02 -0.363423D-02  0.515502D-03 -0.528780D-03
     25 -0.929391D-01  0.426784D-03 -0.551767D-01  0.769443D-02 -0.766842D-03
     26  0.176399D-02 -0.789996D-01 -0.111074D-01 -0.630493D-02  0.671189D-02
     27 -0.496409D-01 -0.152539D-01 -0.275810D+00 -0.194233D-01  0.888369D-02
     28 -0.780894D-01  0.811121D-02  0.392160D-02  0.822978D-02  0.120195D-01
     29  0.125176D-01 -0.286540D+00  0.434918D-01 -0.238431D-02 -0.371582D-01
     30  0.102099D-02  0.515852D-01 -0.912552D-01  0.214040D-03 -0.685039D-02
     31 -0.269771D+00 -0.324139D-01  0.236176D-01 -0.551577D-01 -0.120538D-01
     32 -0.368456D-01 -0.838253D-01  0.244492D-02  0.131797D-01  0.149619D-02
     33  0.229688D-01  0.135008D-02 -0.787144D-01  0.266456D-01  0.301645D-02
     34 -0.464730D-03  0.288323D-03 -0.175481D-03 -0.884014D-03 -0.566353D-03
     35 -0.124745D-02  0.259763D-03  0.753940D-03  0.308646D-02 -0.676881D-02
     36 -0.164748D-04  0.000000D+00  0.131221D-02  0.631591D-03  0.195767D-02
                6             7             8             9            10 
      6  0.505397D+00
      7  0.122842D-01  0.808636D-01
      8  0.179113D-01  0.751151D-01  0.361403D+00
      9 -0.713356D-01 -0.174215D-01 -0.731514D-01  0.886803D-01
     10 -0.738657D-01  0.148509D-01  0.330364D-02  0.753604D-02  0.792008D-01
     11  0.170325D-01  0.101691D-01 -0.234159D-01  0.570384D-01 -0.155414D-01
     12 -0.270930D+00  0.100175D-02  0.442688D-01 -0.291279D-01  0.837360D-01
     13  0.214737D-01  0.633717D-02  0.429234D-02 -0.185356D-02  0.507724D-02
     14 -0.170895D-01 -0.291754D-01 -0.211439D-01  0.574898D-02  0.498316D-02
     15 -0.543380D-01  0.850915D-02  0.127158D-01  0.579505D-03 -0.343226D-01
     16 -0.203252D-01 -0.355515D-02 -0.144066D-02  0.435405D-03 -0.758825D-02
     17  0.336133D-02  0.751677D-03  0.307598D-02 -0.953928D-03  0.133598D-02
     18 -0.544838D-02 -0.492548D-02 -0.449130D-02  0.161672D-02 -0.527402D-05
     19  0.849472D-02  0.324254D-03 -0.463510D-02  0.797927D-03 -0.369868D-02
     20  0.493864D-02  0.723483D-03  0.108335D-02 -0.997461D-03  0.252049D-03
     21  0.154808D-01 -0.150098D-02 -0.519677D-02  0.408458D-03  0.133215D-02
     22 -0.464315D-02 -0.136317D-01 -0.752957D-02  0.238161D-02 -0.369500D-02
     23  0.198998D-02 -0.475938D-02 -0.142130D-02  0.443452D-03 -0.503859D-02
     24  0.858239D-03 -0.129775D-03  0.577823D-03  0.663577D-03  0.951982D-04
     25  0.446642D-02  0.682702D-03  0.123469D-02  0.558553D-03  0.701566D-03
     26 -0.152150D-01  0.237011D-03  0.202040D-02 -0.275944D-03  0.153645D-02
     27 -0.376431D-01  0.120483D-02 -0.641196D-02  0.213102D-02  0.514674D-02
     28 -0.770946D-02 -0.730124D-03  0.574494D-02  0.219569D-02  0.547360D-03
     29  0.219896D-01  0.478978D-02 -0.939947D-02 -0.514001D-02 -0.632702D-03
     30  0.396319D-02  0.426196D-03 -0.459594D-02 -0.291838D-03  0.110549D-02
     31  0.186739D-02  0.551939D-02  0.190252D-02 -0.389880D-03  0.477641D-02
     32 -0.205390D-02  0.435854D-02  0.431823D-02 -0.129117D-02  0.149462D-04
     33  0.126077D-02 -0.883883D-03 -0.105297D-02  0.705372D-03 -0.316259D-03
     34  0.435438D-03  0.363513D-03  0.192563D-03 -0.310348D-03  0.631727D-03
     35 -0.121138D-02 -0.213324D-02 -0.581400D-03  0.608855D-03 -0.178183D-03
     36  0.563461D-03  0.760175D-03  0.884295D-03 -0.481055D-04  0.431214D-03
               11            12            13            14            15 
     11  0.829516D-01
     12 -0.562395D-01  0.363505D+00
     13  0.215629D-03  0.243954D-02  0.265625D+00
     14  0.398881D-03  0.729534D-02 -0.940430D-02  0.396412D+00
     15  0.393144D-02 -0.200548D-01  0.676088D-01 -0.532986D-01  0.479866D+00
     16  0.115051D-02 -0.291677D-02 -0.463041D-01  0.169220D-01 -0.300251D-01
     17  0.321607D-03  0.179920D-02  0.305877D-01 -0.570503D-01  0.711168D-01
     18  0.418349D-03  0.338455D-02 -0.621886D-01  0.951053D-01 -0.321959D+00
     19 -0.346045D-03 -0.669388D-02 -0.238522D-01  0.315748D-03 -0.322154D-01
     20  0.158379D-03 -0.116996D-02 -0.121018D-01 -0.273354D-01  0.352258D-02
     21 -0.394019D-03 -0.165326D-02 -0.247663D-01  0.402120D-03 -0.514781D-01
     22  0.124821D-02 -0.250652D-02 -0.817968D-01 -0.119968D-01 -0.111728D-01
     23  0.156540D-02 -0.486330D-02  0.637807D-02 -0.240942D+00 -0.124550D-01
     24 -0.252363D-03  0.176144D-02 -0.775207D-02 -0.405198D-01 -0.458819D-01
     25  0.132753D-02  0.404006D-02 -0.235740D-03 -0.131050D-02 -0.433754D-02
     26 -0.190172D-02 -0.644545D-02 -0.187506D-02 -0.264108D-02  0.238626D-03
     27 -0.600216D-02 -0.957301D-02 -0.627546D-02 -0.536237D-03 -0.636276D-02
     28  0.621872D-04  0.236280D-02  0.689147D-03 -0.273879D-02 -0.480614D-03
     29  0.284889D-02 -0.404242D-02 -0.521247D-02 -0.691183D-02 -0.191578D-02
     30 -0.333499D-02  0.387369D-02 -0.120726D-02  0.149987D-02 -0.235733D-02
     31  0.112961D-02  0.447129D-02  0.612987D-02  0.321372D-02  0.555347D-02
     32  0.753214D-03 -0.106132D-02 -0.170793D-02 -0.348897D-02 -0.234973D-02
     33  0.231524D-03  0.331528D-02 -0.319723D-02 -0.276402D-02 -0.505782D-02
     34  0.198863D-03  0.282098D-03  0.730376D-02 -0.224344D-02  0.658704D-02
     35  0.818190D-03 -0.316414D-03 -0.435502D-01 -0.245658D-01 -0.904260D-02
     36 -0.390352D-03  0.229674D-03  0.159140D-02  0.254411D-03  0.553838D-02
               16            17            18            19            20 
     16  0.217788D+00
     17  0.428282D-01  0.828810D-01
     18 -0.123938D-01 -0.111244D+00  0.322768D+00
     19 -0.174969D+00 -0.728281D-01  0.740363D-01  0.219796D+00
     20 -0.691006D-01 -0.266254D-01  0.716535D-02  0.566256D-01  0.579966D-01
     21  0.696692D-01  0.134405D-01 -0.874923D-02 -0.346981D-01 -0.260534D-01
     22  0.734216D-02 -0.290994D-02 -0.468440D-04 -0.452445D-02  0.255829D-01
     23  0.702266D-02 -0.205068D-02  0.159921D-01  0.387290D-02 -0.122752D-01
     24 -0.634079D-02  0.214510D-01  0.109600D-01 -0.577702D-02  0.158379D-01
     25 -0.174895D-02  0.480896D-03  0.156127D-02  0.344432D-03  0.588107D-03
     26  0.113760D-02  0.413810D-03 -0.529263D-03  0.780854D-03  0.233062D-03
     27  0.262578D-03 -0.109485D-03  0.209661D-02  0.295573D-02  0.330572D-03
     28 -0.169374D-03  0.281841D-04 -0.295580D-03 -0.214104D-03  0.483583D-03
     29  0.465233D-03  0.341975D-03 -0.121693D-02  0.220064D-02  0.128302D-02
     30 -0.633086D-04 -0.141068D-03  0.810283D-03  0.674030D-03 -0.205393D-03
     31 -0.258317D-03  0.585162D-03  0.527167D-03 -0.430158D-02 -0.637446D-03
     32 -0.794661D-04  0.721367D-04 -0.234179D-03  0.133750D-02  0.656834D-03
     33 -0.178832D-03 -0.174408D-03  0.407004D-03  0.244280D-02  0.639507D-03
     34 -0.484697D-02 -0.134518D-02 -0.332670D-02 -0.457558D-02  0.425912D-02
     35  0.224992D-02  0.169752D-02  0.196334D-03  0.163200D-02  0.393119D-02
     36  0.798203D-03  0.903025D-03 -0.247382D-02 -0.124545D-02 -0.230872D-02
               21            22            23            24            25 
     21  0.539036D-01
     22 -0.916629D-03  0.548722D+00
     23  0.545664D-02  0.134580D+00  0.338950D+00
     24 -0.272971D-02  0.923158D-01  0.218778D-01  0.551332D-01
     25  0.119482D-02 -0.454194D-03 -0.137211D-03  0.158812D-02  0.125359D+00
     26  0.216246D-03 -0.157426D-04  0.181304D-02  0.734720D-03 -0.156733D-02
     27  0.320822D-02  0.145531D-02  0.723007D-03  0.133249D-02  0.119163D+00
     28 -0.109431D-03 -0.530679D-02  0.179690D-02  0.127776D-02  0.914845D-02
     29  0.179321D-02  0.931802D-03  0.545440D-02  0.689708D-03  0.112135D-01
     30  0.907565D-03  0.170899D-02 -0.689253D-03  0.812952D-03 -0.138806D-01
     31 -0.369327D-02  0.687031D-04 -0.866482D-03  0.365853D-03 -0.488626D-01
     32  0.124928D-02 -0.393831D-03  0.174524D-02  0.552184D-03 -0.117265D-01
     33  0.247712D-02 -0.665248D-04  0.860229D-03  0.555171D-03 -0.588197D-01
     34 -0.424309D-02 -0.460057D+00 -0.147417D+00 -0.735576D-01  0.310474D-03
     35  0.128480D-02 -0.108082D+00 -0.708500D-01 -0.179627D-01  0.236873D-03
     36 -0.212908D-02 -0.768612D-01 -0.274662D-01 -0.198313D-01 -0.357957D-03
               26            27            28            29            30 
     26  0.764169D-01
     27 -0.158861D-01  0.372519D+00
     28  0.153275D-01 -0.142681D-01  0.836404D-01
     29 -0.149768D-01  0.420032D-01  0.191815D-01  0.385493D+00
     30  0.588959D-01 -0.412340D-01 -0.286900D-02 -0.112583D+00  0.116328D+00
     31 -0.110363D-01 -0.406176D-01 -0.175822D-01 -0.430947D-01  0.127803D-01
     32  0.110403D-01 -0.759951D-02 -0.606440D-01 -0.402109D-01  0.166827D-01
     33 -0.105622D-01 -0.994562D-02  0.157646D-01  0.149769D-01  0.869020D-02
     34  0.159961D-04  0.368841D-04 -0.163195D-03  0.241902D-04  0.901543D-04
     35 -0.130118D-03 -0.141171D-03  0.627341D-03 -0.223813D-03 -0.263604D-03
     36 -0.641455D-04 -0.718672D-03  0.209680D-03 -0.462539D-04 -0.247190D-03
               31            32            33            34            35 
     31  0.379060D+00
     32  0.925184D-01  0.107450D+00
     33 -0.431671D-02 -0.630286D-02  0.764537D-01
     34  0.378630D-03 -0.118176D-04 -0.427326D-04  0.462003D+00
     35  0.753209D-03 -0.747016D-05 -0.218207D-03  0.146605D+00  0.964208D-01
     36 -0.165560D-03 -0.364421D-04 -0.146843D-03  0.742244D-01  0.263122D-01
               36 
     36  0.179513D-01
 FormGI is forming the generalized inverse of G from B-inverse, IUseBI=4.
 Leave Link  716 at Fri May 23 04:45:39 2025, MaxMem=  3758096384 cpu:               0.1 elap:               0.0
 (Enter /apps/easybuild-2022/easybuild/software/Compiler/NVHPC/22.11-CUDA-11.7.0/Gaussian/g16c01-CUDA-11.7.0/g16/l103.exe)

 GradGradGradGradGradGradGradGradGradGradGradGradGradGradGradGradGradGrad
 Berny optimization.
 Red2BG is reusing G-inverse.
 Internal  Forces:  Max     0.000460947 RMS     0.000101927
 Search for a local minimum.
 Step number   1 out of a maximum of   61
 All quantities printed in internal units (Hartrees-Bohrs-Radians)
 RMS Force = .10193D-03 SwitMx=.10000D-02 MixMth= 2
 Mixed Optimization -- En-DIIS/RFO-DIIS
 Second derivative matrix not updated -- analytic derivatives used.
 ITU=  0
     Eigenvalues ---    0.00142   0.00322   0.00521   0.03401   0.03775
     Eigenvalues ---    0.05147   0.07951   0.08559   0.10278   0.10715
     Eigenvalues ---    0.11256   0.12946   0.13653   0.15186   0.16366
     Eigenvalues ---    0.21019   0.21337   0.23210   0.23466   0.24554
     Eigenvalues ---    0.28714   0.34745   0.35611   0.37217   0.37782
     Eigenvalues ---    0.38712   0.39063   0.47259   0.52930   0.55898
 RFO step:  Lambda=-4.62755373D-06 EMin= 1.41971536D-03
 Linear search not attempted -- first point.
 Iteration  1 RMS(Cart)=  0.00431668 RMS(Int)=  0.00001257
 Iteration  2 RMS(Cart)=  0.00001298 RMS(Int)=  0.00000081
 Iteration  3 RMS(Cart)=  0.00000000 RMS(Int)=  0.00000081
 ITry= 1 IFail=0 DXMaxC= 1.31D-02 DCOld= 1.00D+10 DXMaxT= 3.00D-01 DXLimC= 3.00D+00 Rises=F
 Variable       Old X    -DE/DX   Delta X   Delta X   Delta X     New X
                                 (Linear)    (Quad)   (Total)
    R1        2.93293  -0.00004   0.00000  -0.00030  -0.00030   2.93263
    R2        2.51178  -0.00002   0.00000   0.00000   0.00000   2.51178
    R3        2.50393   0.00003   0.00000  -0.00000  -0.00000   2.50393
    R4        2.51943   0.00001   0.00000   0.00005   0.00005   2.51948
    R5        2.53971  -0.00006   0.00000  -0.00002  -0.00002   2.53969
    R6        2.53916   0.00001   0.00000   0.00019   0.00019   2.53936
    R7        3.63105  -0.00006   0.00000   0.00004   0.00004   3.63109
    R8        2.97054   0.00013   0.00000   0.00059   0.00059   2.97113
    R9        3.54478  -0.00002   0.00000  -0.00141  -0.00141   3.54338
   R10        3.05715  -0.00007   0.00000   0.00002   0.00002   3.05717
   R11        2.84062  -0.00014   0.00000  -0.00053  -0.00053   2.84009
   R12        1.82661  -0.00000   0.00000   0.00000   0.00000   1.82661
    A1        1.92345   0.00004   0.00000  -0.00014  -0.00014   1.92332
    A2        1.93976  -0.00013   0.00000   0.00014   0.00014   1.93990
    A3        1.90688   0.00004   0.00000  -0.00008  -0.00008   1.90680
    A4        1.90732   0.00002   0.00000   0.00002   0.00002   1.90734
    A5        1.89434  -0.00002   0.00000   0.00003   0.00003   1.89437
    A6        1.89125   0.00006   0.00000   0.00002   0.00002   1.89127
    A7        1.89555   0.00005   0.00000  -0.00002  -0.00002   1.89553
    A8        1.90186   0.00001   0.00000  -0.00025  -0.00025   1.90161
    A9        2.10641  -0.00005   0.00000   0.00075   0.00075   2.10715
   A10        1.89648  -0.00001   0.00000  -0.00002  -0.00002   1.89646
   A11        1.81332   0.00001   0.00000   0.00051   0.00051   1.81383
   A12        1.84100  -0.00002   0.00000  -0.00100  -0.00100   1.84000
   A13        1.71649   0.00022   0.00000   0.00206   0.00206   1.71855
   A14        2.57528   0.00015   0.00000   0.00151   0.00151   2.57679
   A15        1.57164  -0.00046   0.00000  -0.00213  -0.00213   1.56951
   A16        1.91208  -0.00001   0.00000  -0.00019  -0.00018   1.91189
   A17        1.60440   0.00028   0.00000  -0.00034  -0.00034   1.60406
   A18        1.87573  -0.00005   0.00000  -0.00007  -0.00007   1.87566
    D1        1.25649  -0.00001   0.00000  -0.00590  -0.00590   1.25060
    D2       -2.96353   0.00002   0.00000  -0.00608  -0.00608  -2.96961
    D3       -0.83153  -0.00003   0.00000  -0.00713  -0.00713  -0.83866
    D4       -2.90956  -0.00005   0.00000  -0.00587  -0.00587  -2.91543
    D5       -0.84640  -0.00002   0.00000  -0.00605  -0.00605  -0.85245
    D6        1.28560  -0.00007   0.00000  -0.00710  -0.00710   1.27850
    D7       -0.82344  -0.00003   0.00000  -0.00581  -0.00581  -0.82924
    D8        1.23972  -0.00001   0.00000  -0.00599  -0.00599   1.23374
    D9       -2.91146  -0.00006   0.00000  -0.00703  -0.00703  -2.91849
   D10        1.14346   0.00005   0.00000  -0.00021  -0.00021   1.14325
   D11        0.86223  -0.00007   0.00000  -0.00365  -0.00365   0.85858
   D12       -0.77255   0.00012   0.00000   0.00020   0.00020  -0.77236
   D13       -0.98481  -0.00000   0.00000  -0.00112  -0.00112  -0.98593
   D14       -1.26604  -0.00012   0.00000  -0.00456  -0.00456  -1.27060
   D15       -2.90083   0.00007   0.00000  -0.00071  -0.00071  -2.90153
   D16       -2.97865   0.00001   0.00000  -0.00091  -0.00091  -2.97956
   D17        3.02331  -0.00010   0.00000  -0.00434  -0.00435   3.01896
   D18        1.38852   0.00008   0.00000  -0.00050  -0.00050   1.38803
   D19        2.97319   0.00006   0.00000   0.00063   0.00063   2.97382
   D20        1.24741  -0.00001   0.00000  -0.00078  -0.00078   1.24663
   D21        0.39697  -0.00008   0.00000  -0.00073  -0.00073   0.39624
         Item               Value     Threshold  Converged?
 Maximum Force            0.000461     0.000015     NO 
 RMS     Force            0.000102     0.000010     NO 
 Maximum Displacement     0.013101     0.000060     NO 
 RMS     Displacement     0.004317     0.000040     NO 
 Predicted change in Energy=-2.313775D-06
 Lowest energy point so far.  Saving SCF results.
 GradGradGradGradGradGradGradGradGradGradGradGradGradGradGradGradGradGrad

 Leave Link  103 at Fri May 23 04:45:39 2025, MaxMem=  3758096384 cpu:               0.1 elap:               0.0
 (Enter /apps/easybuild-2022/easybuild/software/Compiler/NVHPC/22.11-CUDA-11.7.0/Gaussian/g16c01-CUDA-11.7.0/g16/l202.exe)
                          Input orientation:                          
 ---------------------------------------------------------------------
 Center     Atomic      Atomic             Coordinates (Angstroms)
 Number     Number       Type             X           Y           Z
 ---------------------------------------------------------------------
      1          6           0       -0.792095    0.955871    0.931798
      2          6           0        0.000182   -0.000702    0.001423
      3          9           0       -0.323533   -1.267357    0.312837
      4          9           0       -0.357701    0.233730   -1.272420
      5         16           0        1.921674   -0.001363    0.000565
      6          8           0        2.153609   -0.525795    1.464519
      7          8           0        3.505962   -0.061341    1.001733
      8          8           0        1.920146    1.616418   -0.000870
      9          9           0       -0.309299    0.897139    2.168800
     10          9           0       -0.730055    2.205908    0.496772
     11          9           0       -2.071979    0.583368    0.958143
     12          1           0        2.829023    1.907549    0.152434
 ---------------------------------------------------------------------
                    Distance matrix (angstroms):
                    1          2          3          4          5
     1  C    0.000000
     2  C    1.551879   0.000000
     3  F    2.354868   1.343944   0.000000
     4  F    2.359822   1.343769   2.183453   0.000000
     5  S    3.024571   1.921492   2.596384   2.621318   0.000000
     6  O    3.340104   2.655865   2.830639   3.791358   1.572254
     7  O    4.417341   3.646203   4.073584   4.492965   1.875074
     8  O    2.943203   2.510248   3.667243   2.952500   1.617783
     9  F    1.329179   2.366309   2.851288   3.504918   3.238176
    10  F    1.325024   2.376498   3.501808   2.675476   3.485675
    11  F    1.333250   2.355907   2.626530   2.834855   4.148267
    12  H    3.824342   3.415636   4.477094   3.871316   2.119031
                    6          7          8          9         10
     6  O    0.000000
     7  O    1.502913   0.000000
     8  O    2.605945   2.516923   0.000000
     9  F    2.930302   4.103285   3.193001   0.000000
    10  F    4.088307   4.831071   2.760202   2.164622   0.000000
    11  F    4.397982   5.615244   4.233670   2.161292   2.155518
    12  H    2.845860   2.248574   0.966600   3.864676   3.588122
                   11         12
    11  F    0.000000
    12  H    5.140276   0.000000
 Symmetry turned off by external request.
 Stoichiometry    C2HF5O3S
 Rotational constants (GHZ):           1.6110359           0.7577957           0.7325438
 Leave Link  202 at Fri May 23 04:45:39 2025, MaxMem=  3758096384 cpu:               0.0 elap:               0.0
 (Enter /apps/easybuild-2022/easybuild/software/Compiler/NVHPC/22.11-CUDA-11.7.0/Gaussian/g16c01-CUDA-11.7.0/g16/l301.exe)
 Standard basis: 6-311++G(d,p) (5D, 7F)
 Ernie: Thresh=  0.10000D-02 Tol=  0.10000D-05 Strict=F.
   257 basis functions,   419 primitive gaussians,   268 cartesian basis functions
    49 alpha electrons       49 beta electrons
       nuclear repulsion energy       903.5993840236 Hartrees.
 IExCor= 4639 DFT=T Ex+Corr=wB97XD ExCW=0 ScaHFX=  1.000000
 ScaDFX=  1.000000  1.000000  1.000000  1.000000 ScalE2=  1.000000  1.000000
 IRadAn=      5 IRanWt=     -1 IRanGd=            0 ICorTp=0 IEmpDi=121
 HFx  wShort=  0.000000 wLong=  0.200000 cFull=  0.222036 cShort=  0.000000 cLong=  0.777964
 DFx  wShort=  0.000000 wLong=  0.200000 cFull=  0.000000 cShort=  0.000000 cLong=  1.000000
 NAtoms=   12 NActive=   12 NUniq=   12 SFac= 1.00D+00 NAtFMM=   60 NAOKFM=F Big=F
 Integral buffers will be    131072 words long.
 Raffenetti 2 integral format.
 Two-electron integral symmetry is turned off.
 R6Disp:  Grimme-D2 Dispersion energy=       -0.0052472376 Hartrees.
 Nuclear repulsion after empirical dispersion term =      903.5941367860 Hartrees.
 Leave Link  301 at Fri May 23 04:45:39 2025, MaxMem=  3758096384 cpu:               0.1 elap:               0.0
 (Enter /apps/easybuild-2022/easybuild/software/Compiler/NVHPC/22.11-CUDA-11.7.0/Gaussian/g16c01-CUDA-11.7.0/g16/l302.exe)
 NPDir=0 NMtPBC=     1 NCelOv=     1 NCel=       1 NClECP=     1 NCelD=      1
         NCelK=      1 NCelE2=     1 NClLst=     1 CellRange=     0.0.
 One-electron integrals computed using PRISM.
 NBasis=   257 RedAO= T EigKep=  5.56D-05  NBF=   257
 NBsUse=   257 1.00D-06 EigRej= -1.00D+00 NBFU=   257
 Precomputing XC quadrature grid using
 IXCGrd= 4 IRadAn=           5 IRanWt=          -1 IRanGd=           0 AccXCQ= 0.00D+00.
 Generated NRdTot=       0 NPtTot=           0 NUsed=           0 NTot=          32
 NSgBfM=   268   268   268   268   268 MxSgAt=    12 MxSgA2=    12.
 Leave Link  302 at Fri May 23 04:45:39 2025, MaxMem=  3758096384 cpu:               0.7 elap:               0.2
 (Enter /apps/easybuild-2022/easybuild/software/Compiler/NVHPC/22.11-CUDA-11.7.0/Gaussian/g16c01-CUDA-11.7.0/g16/l303.exe)
 DipDrv:  MaxL=1.
 Leave Link  303 at Fri May 23 04:45:40 2025, MaxMem=  3758096384 cpu:               0.1 elap:               0.0
 (Enter /apps/easybuild-2022/easybuild/software/Compiler/NVHPC/22.11-CUDA-11.7.0/Gaussian/g16c01-CUDA-11.7.0/g16/l401.exe)
 Initial guess from the checkpoint file:  "/tmp/Gau-7946.chk"
 B after Tr=     0.000487    0.000182   -0.000053
         Rot=    1.000000   -0.000101    0.000118    0.000109 Ang=  -0.02 deg.
 Guess basis will be translated and rotated to current coordinates.
 JPrj=2 DoOrth=T DoCkMO=T.
 Leave Link  401 at Fri May 23 04:45:40 2025, MaxMem=  3758096384 cpu:               0.2 elap:               0.1
 (Enter /apps/easybuild-2022/easybuild/software/Compiler/NVHPC/22.11-CUDA-11.7.0/Gaussian/g16c01-CUDA-11.7.0/g16/l502.exe)
 Keep R1 ints in memory in canonical form, NReq=1117474609.
 FoFCou: FMM=F IPFlag=           0 FMFlag=           0 FMFlg1=           0
         NFxFlg=           0 DoJE=F BraDBF=F KetDBF=F FulRan=T
         wScrn=  0.000000 ICntrl=       600 IOpCl=  0 I1Cent=           0 NGrid=           0
         NMat0=    1 NMatS0=  33153 NMatT0=    0 NMatD0=    1 NMtDS0=    0 NMtDT0=    0
 Symmetry not used in FoFCou.
 Two-electron integral symmetry not used.
 Closed shell SCF:
 Using DIIS extrapolation, IDIIS=  1040.
 NGot=  3758096384 LenX=  2658793876 LenY=  2658721611
 Requested convergence on RMS density matrix=1.00D-08 within  32 cycles.
 Requested convergence on MAX density matrix=1.00D-06.
 Requested convergence on             energy=1.00D-06.
 No special actions if energy rises.

 Cycle   1  Pass 1  IDiag  1:
 E= -1199.68133682049    
 DIIS: error= 3.22D-04 at cycle   1 NSaved=   1.
 NSaved= 1 IEnMin= 1 EnMin= -1199.68133682049     IErMin= 1 ErrMin= 3.22D-04
 ErrMax= 3.22D-04  0.00D+00 EMaxC= 1.00D-01 BMatC= 4.39D-05 BMatP= 4.39D-05
 IDIUse=3 WtCom= 9.97D-01 WtEn= 3.22D-03
 Coeff-Com:  0.100D+01
 Coeff-En:   0.100D+01
 Coeff:      0.100D+01
 Gap=     0.709 Goal=   None    Shift=    0.000
 RMSDP=4.51D-05 MaxDP=1.07D-03              OVMax= 1.96D-03

 Cycle   2  Pass 1  IDiag  1:
 E= -1199.68140106119     Delta-E=       -0.000064240700 Rises=F Damp=F
 DIIS: error= 6.64D-05 at cycle   2 NSaved=   2.
 NSaved= 2 IEnMin= 2 EnMin= -1199.68140106119     IErMin= 2 ErrMin= 6.64D-05
 ErrMax= 6.64D-05  0.00D+00 EMaxC= 1.00D-01 BMatC= 2.12D-06 BMatP= 4.39D-05
 IDIUse=1 WtCom= 1.00D+00 WtEn= 0.00D+00
 Coeff-Com: -0.151D+00 0.115D+01
 Coeff:     -0.151D+00 0.115D+01
 Gap=     0.384 Goal=   None    Shift=    0.000
 RMSDP=1.34D-05 MaxDP=5.11D-04 DE=-6.42D-05 OVMax= 5.29D-04

 Cycle   3  Pass 1  IDiag  1:
 E= -1199.68140354710     Delta-E=       -0.000002485907 Rises=F Damp=F
 DIIS: error= 7.88D-05 at cycle   3 NSaved=   3.
 NSaved= 3 IEnMin= 3 EnMin= -1199.68140354710     IErMin= 2 ErrMin= 6.64D-05
 ErrMax= 7.88D-05  0.00D+00 EMaxC= 1.00D-01 BMatC= 1.93D-06 BMatP= 2.12D-06
 IDIUse=1 WtCom= 1.00D+00 WtEn= 0.00D+00
 Coeff-Com: -0.109D+00 0.649D+00 0.460D+00
 Coeff:     -0.109D+00 0.649D+00 0.460D+00
 Gap=     0.384 Goal=   None    Shift=    0.000
 RMSDP=5.01D-06 MaxDP=1.69D-04 DE=-2.49D-06 OVMax= 2.75D-04

 Cycle   4  Pass 1  IDiag  1:
 E= -1199.68140481463     Delta-E=       -0.000001267534 Rises=F Damp=F
 DIIS: error= 2.46D-05 at cycle   4 NSaved=   4.
 NSaved= 4 IEnMin= 4 EnMin= -1199.68140481463     IErMin= 4 ErrMin= 2.46D-05
 ErrMax= 2.46D-05  0.00D+00 EMaxC= 1.00D-01 BMatC= 1.18D-07 BMatP= 1.93D-06
 IDIUse=1 WtCom= 1.00D+00 WtEn= 0.00D+00
 Coeff-Com: -0.109D-01 0.223D-01 0.185D+00 0.804D+00
 Coeff:     -0.109D-01 0.223D-01 0.185D+00 0.804D+00
 Gap=     0.384 Goal=   None    Shift=    0.000
 RMSDP=1.97D-06 MaxDP=4.18D-05 DE=-1.27D-06 OVMax= 1.02D-04

 Cycle   5  Pass 1  IDiag  1:
 E= -1199.68140490012     Delta-E=       -0.000000085485 Rises=F Damp=F
 DIIS: error= 1.25D-05 at cycle   5 NSaved=   5.
 NSaved= 5 IEnMin= 5 EnMin= -1199.68140490012     IErMin= 5 ErrMin= 1.25D-05
 ErrMax= 1.25D-05  0.00D+00 EMaxC= 1.00D-01 BMatC= 4.18D-08 BMatP= 1.18D-07
 IDIUse=1 WtCom= 1.00D+00 WtEn= 0.00D+00
 Coeff-Com:  0.595D-02-0.630D-01 0.582D-01 0.494D+00 0.505D+00
 Coeff:      0.595D-02-0.630D-01 0.582D-01 0.494D+00 0.505D+00
 Gap=     0.384 Goal=   None    Shift=    0.000
 RMSDP=7.36D-07 MaxDP=4.03D-05 DE=-8.55D-08 OVMax= 3.67D-05

 Cycle   6  Pass 1  IDiag  1:
 E= -1199.68140493155     Delta-E=       -0.000000031428 Rises=F Damp=F
 DIIS: error= 1.66D-06 at cycle   6 NSaved=   6.
 NSaved= 6 IEnMin= 6 EnMin= -1199.68140493155     IErMin= 6 ErrMin= 1.66D-06
 ErrMax= 1.66D-06  0.00D+00 EMaxC= 1.00D-01 BMatC= 9.47D-10 BMatP= 4.18D-08
 IDIUse=1 WtCom= 1.00D+00 WtEn= 0.00D+00
 Coeff-Com:  0.262D-02-0.178D-01-0.135D-01 0.229D-02 0.895D-01 0.937D+00
 Coeff:      0.262D-02-0.178D-01-0.135D-01 0.229D-02 0.895D-01 0.937D+00
 Gap=     0.384 Goal=   None    Shift=    0.000
 RMSDP=3.32D-07 MaxDP=7.56D-06 DE=-3.14D-08 OVMax= 3.10D-05

 Cycle   7  Pass 1  IDiag  1:
 E= -1199.68140493404     Delta-E=       -0.000000002497 Rises=F Damp=F
 DIIS: error= 8.89D-07 at cycle   7 NSaved=   7.
 NSaved= 7 IEnMin= 7 EnMin= -1199.68140493404     IErMin= 7 ErrMin= 8.89D-07
 ErrMax= 8.89D-07  0.00D+00 EMaxC= 1.00D-01 BMatC= 2.19D-10 BMatP= 9.47D-10
 IDIUse=1 WtCom= 1.00D+00 WtEn= 0.00D+00
 Coeff-Com:  0.122D-03 0.222D-02-0.119D-01-0.624D-01-0.337D-01 0.308D+00
 Coeff-Com:  0.798D+00
 Coeff:      0.122D-03 0.222D-02-0.119D-01-0.624D-01-0.337D-01 0.308D+00
 Coeff:      0.798D+00
 Gap=     0.384 Goal=   None    Shift=    0.000
 RMSDP=1.62D-07 MaxDP=5.00D-06 DE=-2.50D-09 OVMax= 1.55D-05

 Cycle   8  Pass 1  IDiag  1:
 E= -1199.68140493455     Delta-E=       -0.000000000507 Rises=F Damp=F
 DIIS: error= 3.73D-07 at cycle   8 NSaved=   8.
 NSaved= 8 IEnMin= 8 EnMin= -1199.68140493455     IErMin= 8 ErrMin= 3.73D-07
 ErrMax= 3.73D-07  0.00D+00 EMaxC= 1.00D-01 BMatC= 6.28D-11 BMatP= 2.19D-10
 IDIUse=1 WtCom= 1.00D+00 WtEn= 0.00D+00
 Coeff-Com: -0.640D-03 0.604D-02-0.204D-02-0.299D-01-0.385D-01-0.941D-01
 Coeff-Com:  0.353D+00 0.806D+00
 Coeff:     -0.640D-03 0.604D-02-0.204D-02-0.299D-01-0.385D-01-0.941D-01
 Coeff:      0.353D+00 0.806D+00
 Gap=     0.384 Goal=   None    Shift=    0.000
 RMSDP=8.24D-08 MaxDP=1.92D-06 DE=-5.07D-10 OVMax= 9.58D-06

 Cycle   9  Pass 1  IDiag  1:
 E= -1199.68140493465     Delta-E=       -0.000000000097 Rises=F Damp=F
 DIIS: error= 1.51D-07 at cycle   9 NSaved=   9.
 NSaved= 9 IEnMin= 9 EnMin= -1199.68140493465     IErMin= 9 ErrMin= 1.51D-07
 ErrMax= 1.51D-07  0.00D+00 EMaxC= 1.00D-01 BMatC= 5.95D-12 BMatP= 6.28D-11
 IDIUse=1 WtCom= 1.00D+00 WtEn= 0.00D+00
 Coeff-Com: -0.237D-03 0.170D-02 0.120D-02 0.330D-03-0.754D-02-0.785D-01
 Coeff-Com: -0.854D-02 0.234D+00 0.858D+00
 Coeff:     -0.237D-03 0.170D-02 0.120D-02 0.330D-03-0.754D-02-0.785D-01
 Coeff:     -0.854D-02 0.234D+00 0.858D+00
 Gap=     0.384 Goal=   None    Shift=    0.000
 RMSDP=3.18D-08 MaxDP=8.15D-07 DE=-9.73D-11 OVMax= 3.84D-06

 Cycle  10  Pass 1  IDiag  1:
 E= -1199.68140493470     Delta-E=       -0.000000000055 Rises=F Damp=F
 DIIS: error= 8.04D-08 at cycle  10 NSaved=  10.
 NSaved=10 IEnMin=10 EnMin= -1199.68140493470     IErMin=10 ErrMin= 8.04D-08
 ErrMax= 8.04D-08  0.00D+00 EMaxC= 1.00D-01 BMatC= 5.04D-13 BMatP= 5.95D-12
 IDIUse=1 WtCom= 1.00D+00 WtEn= 0.00D+00
 Coeff-Com:  0.697D-04-0.725D-03 0.318D-03 0.402D-02 0.478D-02 0.676D-02
 Coeff-Com: -0.494D-01-0.925D-01 0.655D-01 0.106D+01
 Coeff:      0.697D-04-0.725D-03 0.318D-03 0.402D-02 0.478D-02 0.676D-02
 Coeff:     -0.494D-01-0.925D-01 0.655D-01 0.106D+01
 Gap=     0.384 Goal=   None    Shift=    0.000
 RMSDP=1.19D-08 MaxDP=3.18D-07 DE=-5.55D-11 OVMax= 1.56D-06

 Cycle  11  Pass 1  IDiag  1:
 E= -1199.68140493472     Delta-E=       -0.000000000015 Rises=F Damp=F
 DIIS: error= 2.53D-08 at cycle  11 NSaved=  11.
 NSaved=11 IEnMin=11 EnMin= -1199.68140493472     IErMin=11 ErrMin= 2.53D-08
 ErrMax= 2.53D-08  0.00D+00 EMaxC= 1.00D-01 BMatC= 1.11D-13 BMatP= 5.04D-13
 IDIUse=1 WtCom= 1.00D+00 WtEn= 0.00D+00
 Coeff-Com:  0.442D-04-0.402D-03 0.382D-04 0.146D-02 0.241D-02 0.817D-02
 Coeff-Com: -0.170D-01-0.496D-01-0.418D-01 0.391D+00 0.706D+00
 Coeff:      0.442D-04-0.402D-03 0.382D-04 0.146D-02 0.241D-02 0.817D-02
 Coeff:     -0.170D-01-0.496D-01-0.418D-01 0.391D+00 0.706D+00
 Gap=     0.384 Goal=   None    Shift=    0.000
 RMSDP=2.38D-09 MaxDP=6.51D-08 DE=-1.46D-11 OVMax= 2.77D-07

 SCF Done:  E(RwB97XD) =  -1199.68140493     A.U. after   11 cycles
            NFock= 11  Conv=0.24D-08     -V/T= 2.0020
 KE= 1.197341629850D+03 PE=-4.655042721433D+03 EE= 1.354425549863D+03
 Leave Link  502 at Fri May 23 04:45:51 2025, MaxMem=  3758096384 cpu:              56.1 elap:              11.4
 (Enter /apps/easybuild-2022/easybuild/software/Compiler/NVHPC/22.11-CUDA-11.7.0/Gaussian/g16c01-CUDA-11.7.0/g16/l508.exe)
 QCSCF skips out because SCF is already converged.
 Leave Link  508 at Fri May 23 04:45:51 2025, MaxMem=  3758096384 cpu:               0.1 elap:               0.0
 (Enter /apps/easybuild-2022/easybuild/software/Compiler/NVHPC/22.11-CUDA-11.7.0/Gaussian/g16c01-CUDA-11.7.0/g16/l701.exe)
 ... and contract with generalized density number  0.
 Compute integral first derivatives.
 R6Disp: Adding Grimme-D2 dispersion energy 1st derivatives to the gradient.
 Leave Link  701 at Fri May 23 04:45:51 2025, MaxMem=  3758096384 cpu:               0.6 elap:               0.1
 (Enter /apps/easybuild-2022/easybuild/software/Compiler/NVHPC/22.11-CUDA-11.7.0/Gaussian/g16c01-CUDA-11.7.0/g16/l702.exe)
 L702 exits ... SP integral derivatives will be done elsewhere.
 Leave Link  702 at Fri May 23 04:45:51 2025, MaxMem=  3758096384 cpu:               0.1 elap:               0.0
 (Enter /apps/easybuild-2022/easybuild/software/Compiler/NVHPC/22.11-CUDA-11.7.0/Gaussian/g16c01-CUDA-11.7.0/g16/l703.exe)
 Integral derivatives from FoFJK, PRISM(SPDF).
 Compute integral first derivatives, UseDBF=F ICtDFT=           0.
 Calling FoFJK, ICntrl=      2127 FMM=F ISym2X=0 I1Cent= 0 IOpClX= 0 NMat=1 NMatS=1 NMatT=0.
 FoFJK:  IHMeth= 1 ICntrl=    2127 DoSepK=T KAlg= 0 I1Cent=           0 FoldK=F
 IRaf=         1 NMat=       1 IRICut=       1 DoRegI=T DoRafI=F ISym2E= 0 IDoP0=0 IntGTp=1.
 FoFCou: FMM=F IPFlag=           0 FMFlag=      100000 FMFlg1=         800
         NFxFlg=           0 DoJE=F BraDBF=F KetDBF=F FulRan=T
         wScrn=  0.000000 ICntrl=      2527 IOpCl=  0 I1Cent=           0 NGrid=           0
         NMat0=    1 NMatS0=      1 NMatT0=    0 NMatD0=    1 NMtDS0=    0 NMtDT0=    0
 Symmetry not used in FoFCou.
 Leave Link  703 at Fri May 23 04:45:56 2025, MaxMem=  3758096384 cpu:              34.9 elap:               4.5
 (Enter /apps/easybuild-2022/easybuild/software/Compiler/NVHPC/22.11-CUDA-11.7.0/Gaussian/g16c01-CUDA-11.7.0/g16/l716.exe)
 Dipole        = 1.76718276D-01 4.77895078D-01-7.31192810D-01
 -------------------------------------------------------------------
 Center     Atomic                   Forces (Hartrees/Bohr)
 Number     Number              X              Y              Z
 -------------------------------------------------------------------
      1        6          -0.000000154   -0.000001126    0.000003314
      2        6          -0.000001016   -0.000000709    0.000001384
      3        9           0.000000696   -0.000000808    0.000001689
      4        9          -0.000003524   -0.000000809    0.000002285
      5       16          -0.000000371    0.000000614   -0.000002883
      6        8           0.000000500    0.000002947   -0.000002579
      7        8           0.000003049    0.000002436   -0.000006227
      8        8           0.000005388    0.000000258   -0.000003769
      9        9           0.000004494   -0.000002462    0.000000902
     10        9          -0.000008734   -0.000000031    0.000005622
     11        9           0.000001218   -0.000001435    0.000005613
     12        1          -0.000001546    0.000001124   -0.000005350
 -------------------------------------------------------------------
 Cartesian Forces:  Max     0.000008734 RMS     0.000003171
 Leave Link  716 at Fri May 23 04:45:56 2025, MaxMem=  3758096384 cpu:               0.1 elap:               0.0
 (Enter /apps/easybuild-2022/easybuild/software/Compiler/NVHPC/22.11-CUDA-11.7.0/Gaussian/g16c01-CUDA-11.7.0/g16/l103.exe)

 GradGradGradGradGradGradGradGradGradGradGradGradGradGradGradGradGradGrad
 Berny optimization.
 Using GEDIIS/GDIIS optimizer.
 FormGI is forming the generalized inverse of G from B-inverse, IUseBI=4.
 Internal  Forces:  Max     0.000015774 RMS     0.000004564
 Search for a local minimum.
 Step number   2 out of a maximum of   61
 All quantities printed in internal units (Hartrees-Bohrs-Radians)
 RMS Force = .45644D-05 SwitMx=.10000D-02 MixMth= 2
 Mixed Optimization -- En-DIIS/RFO-DIIS
 Swapping is turned off.
 Update second derivatives using D2CorX and points    1    2
 DE= -2.29D-06 DEPred=-2.31D-06 R= 9.88D-01
 TightC=F SS=  1.41D+00  RLast= 2.09D-02 DXNew= 5.0454D-01 6.2666D-02
 Trust test= 9.88D-01 RLast= 2.09D-02 DXMaxT set to 3.00D-01
 ITU=  1  0
     Eigenvalues ---    0.00140   0.00326   0.00521   0.03454   0.03786
     Eigenvalues ---    0.05147   0.07918   0.08555   0.10276   0.10724
     Eigenvalues ---    0.11256   0.12945   0.13658   0.15186   0.16378
     Eigenvalues ---    0.21019   0.21342   0.23224   0.23475   0.24579
     Eigenvalues ---    0.28779   0.34750   0.35641   0.37321   0.37791
     Eigenvalues ---    0.38856   0.39085   0.47278   0.52933   0.55900
 En-DIIS/RFO-DIIS/Sim-DIIS IScMMF=       -3 using points:     2    1
 RFO step:  Lambda=-4.08191372D-09.
 NNeg= 0 NGDIIS= 2 SimSw=  2.50D-03 Rises=F DC= -2.29D-06 SmlDif=  1.00D-05
 NRisDI= 0 DoIntr=F SqrtH=F CThrHd= 10.0 CDAdj=  3.0
 RMS Error=  0.3051138611D-03 NUsed= 2 OKEnD=F EnDIS=F
 InvSVX:  RCond= 1.09D-04 Info=           0 Equed=N FErr=  9.67D-16 BErr=  4.15D-17
 DidBck=F Rises=F RFO-DIIS coefs:    1.03160   -0.03160
 Iteration  1 RMS(Cart)=  0.00045731 RMS(Int)=  0.00000010
 Iteration  2 RMS(Cart)=  0.00000012 RMS(Int)=  0.00000003
 ITry= 1 IFail=0 DXMaxC= 1.33D-03 DCOld= 1.00D+10 DXMaxT= 3.00D-01 DXLimC= 3.00D+00 Rises=F
 Variable       Old X    -DE/DX   Delta X   Delta X   Delta X     New X
                                 (Linear)    (Quad)   (Total)
    R1        2.93263   0.00000  -0.00001   0.00001  -0.00000   2.93263
    R2        2.51178  -0.00000   0.00000  -0.00000  -0.00000   2.51178
    R3        2.50393  -0.00000  -0.00000   0.00000   0.00000   2.50393
    R4        2.51948  -0.00000   0.00000  -0.00000  -0.00000   2.51947
    R5        2.53969   0.00000  -0.00000   0.00002   0.00002   2.53970
    R6        2.53936  -0.00000   0.00001  -0.00002  -0.00001   2.53934
    R7        3.63109   0.00001   0.00000   0.00000   0.00000   3.63110
    R8        2.97113  -0.00000   0.00002  -0.00003  -0.00001   2.97112
    R9        3.54338   0.00000  -0.00004   0.00007   0.00003   3.54340
   R10        3.05717  -0.00000   0.00000  -0.00001  -0.00001   3.05716
   R11        2.84009   0.00000  -0.00002   0.00003   0.00001   2.84011
   R12        1.82661  -0.00000   0.00000   0.00000   0.00000   1.82661
    A1        1.92332  -0.00001  -0.00000  -0.00002  -0.00003   1.92329
    A2        1.93990   0.00001   0.00000   0.00003   0.00003   1.93993
    A3        1.90680  -0.00000  -0.00000   0.00000   0.00000   1.90680
    A4        1.90734  -0.00000   0.00000  -0.00000  -0.00000   1.90734
    A5        1.89437   0.00000   0.00000   0.00001   0.00001   1.89437
    A6        1.89127  -0.00001   0.00000  -0.00001  -0.00001   1.89126
    A7        1.89553  -0.00001  -0.00000  -0.00004  -0.00004   1.89549
    A8        1.90161  -0.00000  -0.00001   0.00003   0.00003   1.90164
    A9        2.10715   0.00001   0.00002   0.00003   0.00005   2.10721
   A10        1.89646   0.00000  -0.00000   0.00000   0.00000   1.89646
   A11        1.81383  -0.00000   0.00002  -0.00010  -0.00009   1.81374
   A12        1.84000  -0.00000  -0.00003   0.00007   0.00004   1.84004
   A13        1.71855  -0.00000   0.00006  -0.00006   0.00000   1.71855
   A14        2.57679  -0.00000   0.00005  -0.00002   0.00002   2.57681
   A15        1.56951   0.00002  -0.00007   0.00012   0.00006   1.56957
   A16        1.91189  -0.00000  -0.00001  -0.00002  -0.00003   1.91186
   A17        1.60406  -0.00001  -0.00001   0.00001  -0.00000   1.60406
   A18        1.87566  -0.00000  -0.00000  -0.00002  -0.00002   1.87564
    D1        1.25060  -0.00000  -0.00019   0.00008  -0.00010   1.25049
    D2       -2.96961  -0.00000  -0.00019   0.00008  -0.00011  -2.96972
    D3       -0.83866   0.00000  -0.00023   0.00024   0.00001  -0.83864
    D4       -2.91543   0.00000  -0.00019   0.00008  -0.00011  -2.91554
    D5       -0.85245   0.00000  -0.00019   0.00008  -0.00011  -0.85256
    D6        1.27850   0.00000  -0.00022   0.00023   0.00001   1.27851
    D7       -0.82924   0.00000  -0.00018   0.00009  -0.00010  -0.82934
    D8        1.23374  -0.00000  -0.00019   0.00009  -0.00010   1.23363
    D9       -2.91849   0.00000  -0.00022   0.00024   0.00002  -2.91847
   D10        1.14325  -0.00000  -0.00001  -0.00082  -0.00083   1.14242
   D11        0.85858   0.00000  -0.00012  -0.00060  -0.00072   0.85786
   D12       -0.77236  -0.00001   0.00001  -0.00081  -0.00081  -0.77316
   D13       -0.98593  -0.00000  -0.00004  -0.00070  -0.00074  -0.98667
   D14       -1.27060   0.00000  -0.00014  -0.00048  -0.00063  -1.27122
   D15       -2.90153  -0.00000  -0.00002  -0.00069  -0.00072  -2.90225
   D16       -2.97956  -0.00000  -0.00003  -0.00069  -0.00072  -2.98027
   D17        3.01896   0.00000  -0.00014  -0.00047  -0.00060   3.01836
   D18        1.38803  -0.00000  -0.00002  -0.00068  -0.00069   1.38733
   D19        2.97382   0.00000   0.00002  -0.00003  -0.00001   2.97381
   D20        1.24663  -0.00000  -0.00002  -0.00000  -0.00003   1.24660
   D21        0.39624   0.00000  -0.00002  -0.00001  -0.00004   0.39620
         Item               Value     Threshold  Converged?
 Maximum Force            0.000016     0.000015     NO 
 RMS     Force            0.000005     0.000010     YES
 Maximum Displacement     0.001334     0.000060     NO 
 RMS     Displacement     0.000457     0.000040     NO 
 Predicted change in Energy=-6.599683D-09
 Lowest energy point so far.  Saving SCF results.
 GradGradGradGradGradGradGradGradGradGradGradGradGradGradGradGradGradGrad

 Leave Link  103 at Fri May 23 04:45:56 2025, MaxMem=  3758096384 cpu:               0.1 elap:               0.0
 (Enter /apps/easybuild-2022/easybuild/software/Compiler/NVHPC/22.11-CUDA-11.7.0/Gaussian/g16c01-CUDA-11.7.0/g16/l202.exe)
                          Input orientation:                          
 ---------------------------------------------------------------------
 Center     Atomic      Atomic             Coordinates (Angstroms)
 Number     Number       Type             X           Y           Z
[...]
   D16       -2.98025  -0.00000   0.00000  -0.00001  -0.00001  -2.98026
   D17        3.01838   0.00000   0.00000  -0.00001  -0.00001   3.01837
   D18        1.38735  -0.00000   0.00000  -0.00001  -0.00001   1.38734
   D19        2.97382  -0.00000   0.00000  -0.00000  -0.00000   2.97382
   D20        1.24660   0.00000   0.00000  -0.00000  -0.00000   1.24660
   D21        0.39621   0.00000   0.00000  -0.00000  -0.00000   0.39620
         Item               Value     Threshold  Converged?
 Maximum Force            0.000000     0.000015     YES
 RMS     Force            0.000000     0.000010     YES
 Maximum Displacement     0.000020     0.000060     YES
 RMS     Displacement     0.000007     0.000040     YES
 Predicted change in Energy=-1.289836D-12
 Optimization completed.
    -- Stationary point found.
                           ----------------------------
                           !   Optimized Parameters   !
                           ! (Angstroms and Degrees)  !
 --------------------------                            --------------------------
 ! Name  Definition              Value          Derivative Info.                !
 --------------------------------------------------------------------------------
 ! R1    R(1,2)                  1.5519         -DE/DX =    0.0                 !
 ! R2    R(1,9)                  1.3292         -DE/DX =    0.0                 !
 ! R3    R(1,10)                 1.325          -DE/DX =    0.0                 !
 ! R4    R(1,11)                 1.3332         -DE/DX =    0.0                 !
 ! R5    R(2,3)                  1.344          -DE/DX =    0.0                 !
 ! R6    R(2,4)                  1.3438         -DE/DX =    0.0                 !
 ! R7    R(2,5)                  1.9215         -DE/DX =    0.0                 !
 ! R8    R(5,6)                  1.5722         -DE/DX =    0.0                 !
 ! R9    R(5,7)                  1.8751         -DE/DX =    0.0                 !
 ! R10   R(5,8)                  1.6178         -DE/DX =    0.0                 !
 ! R11   R(6,7)                  1.5029         -DE/DX =    0.0                 !
 ! R12   R(8,12)                 0.9666         -DE/DX =    0.0                 !
 ! A1    A(2,1,9)              110.1966         -DE/DX =    0.0                 !
 ! A2    A(2,1,10)             111.1498         -DE/DX =    0.0                 !
 ! A3    A(2,1,11)             109.2517         -DE/DX =    0.0                 !
 ! A4    A(9,1,10)             109.2823         -DE/DX =    0.0                 !
 ! A5    A(9,1,11)             108.5396         -DE/DX =    0.0                 !
 ! A6    A(10,1,11)            108.3615         -DE/DX =    0.0                 !
 ! A7    A(1,2,3)              108.6038         -DE/DX =    0.0                 !
 ! A8    A(1,2,4)              108.9557         -DE/DX =    0.0                 !
 ! A9    A(1,2,5)              120.7343         -DE/DX =    0.0                 !
 ! A10   A(3,2,4)              108.6589         -DE/DX =    0.0                 !
 ! A11   A(3,2,5)              103.9199         -DE/DX =    0.0                 !
 ! A12   A(4,2,5)              105.4263         -DE/DX =    0.0                 !
 ! A13   A(2,5,6)               98.4658         -DE/DX =    0.0                 !
 ! A14   A(2,5,7)              147.6404         -DE/DX =    0.0                 !
 ! A15   A(2,5,8)               89.9296         -DE/DX =    0.0                 !
 ! A16   A(6,5,8)              109.5418         -DE/DX =    0.0                 !
 ! A17   A(7,5,8)               91.9058         -DE/DX =    0.0                 !
 ! A18   A(5,8,12)             107.4661         -DE/DX =    0.0                 !
 ! D1    D(9,1,2,3)             71.646          -DE/DX =    0.0                 !
 ! D2    D(9,1,2,4)           -170.1545         -DE/DX =    0.0                 !
 ! D3    D(9,1,2,5)            -48.0531         -DE/DX =    0.0                 !
 ! D4    D(10,1,2,3)          -167.0497         -DE/DX =    0.0                 !
 ! D5    D(10,1,2,4)           -48.8502         -DE/DX =    0.0                 !
 ! D6    D(10,1,2,5)            73.2512         -DE/DX =    0.0                 !
 ! D7    D(11,1,2,3)           -47.5195         -DE/DX =    0.0                 !
 ! D8    D(11,1,2,4)            70.68           -DE/DX =    0.0                 !
 ! D9    D(11,1,2,5)          -167.2186         -DE/DX =    0.0                 !
 ! D10   D(1,2,5,6)             65.4575         -DE/DX =    0.0                 !
 ! D11   D(1,2,5,7)             49.1537         -DE/DX =    0.0                 !
 ! D12   D(1,2,5,8)            -44.2973         -DE/DX =    0.0                 !
 ! D13   D(3,2,5,6)            -56.5305         -DE/DX =    0.0                 !
 ! D14   D(3,2,5,7)            -72.8343         -DE/DX =    0.0                 !
 ! D15   D(3,2,5,8)           -166.2854         -DE/DX =    0.0                 !
 ! D16   D(4,2,5,6)           -170.7556         -DE/DX =    0.0                 !
 ! D17   D(4,2,5,7)            172.9406         -DE/DX =    0.0                 !
 ! D18   D(4,2,5,8)             79.4895         -DE/DX =    0.0                 !
 ! D19   D(2,5,8,12)           170.3872         -DE/DX =    0.0                 !
 ! D20   D(6,5,8,12)            71.4251         -DE/DX =    0.0                 !
 ! D21   D(7,5,8,12)            22.701          -DE/DX =    0.0                 !
 --------------------------------------------------------------------------------
 GradGradGradGradGradGradGradGradGradGradGradGradGradGradGradGradGradGrad

 Leave Link  103 at Fri May 23 04:47:42 2025, MaxMem=  3758096384 cpu:               0.1 elap:               0.0
 (Enter /apps/easybuild-2022/easybuild/software/Compiler/NVHPC/22.11-CUDA-11.7.0/Gaussian/g16c01-CUDA-11.7.0/g16/l9999.exe)

 ----------------------------------------------------------------------

 Electric dipole moment (input orientation):
 (Debye = 10**-18 statcoulomb cm , SI units = C m)
                  (au)            (Debye)         (10**-30 SI)
   Tot        0.891224D+00      0.226527D+01      0.755611D+01
   x          0.176785D+00      0.449342D+00      0.149884D+01
   y          0.477574D+00      0.121387D+01      0.404904D+01
   z         -0.731403D+00     -0.185904D+01     -0.620110D+01

 Dipole polarizability, Alpha (input orientation).
 (esu units = cm**3 , SI units = C**2 m**2 J**-1)
 Alpha(0;0):
               (au)            (10**-24 esu)      (10**-40 SI)
   iso        0.606704D+02      0.899043D+01      0.100032D+02
   aniso      0.270552D+02      0.400916D+01      0.446079D+01
   xx         0.769648D+02      0.114050D+02      0.126898D+02
   yx         0.792221D-01      0.117395D-01      0.130620D-01
   yy         0.535493D+02      0.793519D+01      0.882909D+01
   zx         0.554641D+01      0.821893D+00      0.914479D+00
   zy        -0.361129D+01     -0.535138D+00     -0.595422D+00
   zz         0.514971D+02      0.763109D+01      0.849073D+01

 ----------------------------------------------------------------------

 Dipole orientation:
     6         -1.22072877         -2.55234742         -0.77443213
     6          0.00092395         -0.00041719         -0.00273945
     9         -0.34129698          1.66500815         -1.88936026
     9         -1.16396026          0.87646832          2.07629316
    16          3.55338852          0.21362923          0.71771762
     8          4.58851425         -0.40997165         -1.99653852
     8          6.86437571         -0.53046885         -0.30180022
     8          3.37172455         -2.35923714          2.35892956
     9          0.14182165         -3.65761661         -2.57189752
     9         -1.40660707         -4.09526962          1.18886131
     9         -3.53629149         -2.12715355         -1.67172488
     1          5.07754089         -2.87738609          2.75669402

 Electric dipole moment (dipole orientation):
 (Debye = 10**-18 statcoulomb cm , SI units = C m)
                  (au)            (Debye)         (10**-30 SI)
   Tot        0.891224D+00      0.226527D+01      0.755611D+01
   x          0.000000D+00      0.000000D+00      0.000000D+00
   y          0.000000D+00      0.000000D+00      0.000000D+00
   z          0.891224D+00      0.226527D+01      0.755611D+01

 Dipole polarizability, Alpha (dipole orientation).
 (esu units = cm**3 , SI units = C**2 m**2 J**-1)
 Alpha(0;0):
               (au)            (10**-24 esu)      (10**-40 SI)
   iso        0.606704D+02      0.899043D+01      0.100032D+02
   aniso      0.270552D+02      0.400916D+01      0.446079D+01
   xx         0.781103D+02      0.115748D+02      0.128787D+02
   yx        -0.863179D+00     -0.127910D+00     -0.142319D+00
   yy         0.494251D+02      0.732404D+01      0.814910D+01
   zx         0.126992D+00      0.188183D-01      0.209382D-01
   zy        -0.295666D+01     -0.438132D+00     -0.487488D+00
   zz         0.544758D+02      0.807248D+01      0.898184D+01

 ----------------------------------------------------------------------
 Unable to Open any file for archive entry.
 1\1\GINC-SPARTAN-BM189\Freq\RwB97XD\6-311++G(d,p)\C2H1F5O3S1\AKHALILOV
 \23-May-2025\0\\#P Geom=AllCheck Guess=TCheck SCRF=Check GenChk RwB97X
 D/6-311++G(d,p) Freq\\Gaussian input prepared by ASE\\0,1\C,-0.7921657
 02,0.9557370145,0.9319431323\C,0.0001779233,-0.0006194112,0.0014049797
 \F,-0.3235872609,-1.2673382451,0.3125480522\F,-0.3576063229,0.23406951
 27,-1.272411436\S,1.9216723659,-0.0014778271,0.00072466\O,2.1534219368
 ,-0.5251793704,1.4649632056\O,3.5059000585,-0.0612124291,1.002032911\O
 ,1.9204057679,1.6162988869,-0.0015136167\F,-0.309541668,0.8965789108,2
 .1689908398\F,-0.7299862106,2.2059111713,0.4973309905\F,-2.0720786384,
 0.5833166918,0.9579886323\H,2.8293214942,1.9073392924,0.1517314119\\Ve
 rsion=ES64L-G16RevC.01\HF=-1199.6814049\RMSD=2.861e-09\RMSF=2.477e-06\
 ZeroPoint=0.0488497\Thermal=0.0597781\ETot=-1199.6216269\HTot=-1199.62
 06827\GTot=-1199.6700857\Dipole=0.1767849,0.4775739,-0.7314034\DipoleD
 eriv=1.7246639,0.1094585,0.1008366,-0.2620521,1.5234854,-0.1366785,-0.
 2477748,-0.0821008,1.4688236,0.5859843,0.1792129,0.1276616,0.588867,1.
 012383,-0.1057731,0.5453289,-0.2132602,1.1229744,-0.4095626,-0.188866,
 0.0412153,-0.2940185,-0.8372615,0.1187895,0.04127,0.0624483,-0.285703,
 -0.4441466,0.0320176,-0.2165975,0.0250049,-0.2755124,0.0285322,-0.3431
 843,0.1035014,-0.8841009,2.0593628,-0.1784741,0.4047699,-0.0646966,1.4
 253561,-0.2287774,0.618691,-0.1742511,1.1095757,-0.5947936,0.0148268,-
 0.0111064,-0.0430662,-0.2633104,0.0137861,0.0167412,0.2520912,-0.48553
 61,-0.8406415,0.1113594,-0.3333384,0.0251153,-0.3457196,0.0054842,-0.7
 012498,0.0350702,-0.4900613,-0.4778594,-0.131858,0.0024978,-0.1560454,
 -1.1324556,0.1859872,-0.0097438,-0.0692176,-0.4429248,-0.3910778,0.033
 2833,-0.1194484,0.0524587,-0.2879951,-0.0428369,-0.1400842,0.0085933,-
 0.8319854,-0.3293059,0.0535402,0.0157541,0.0798755,-0.8666543,0.198045
 2,0.0522638,0.1181321,-0.3407964,-1.1698425,-0.1406306,0.0190716,-0.05
 24545,-0.3429139,-0.022655,0.1839769,-0.0236021,-0.2956803,0.2872189,0
 .1061299,-0.0313161,0.1010119,0.3905983,-0.0139034,-0.0162348,-0.01740
 48,0.3554147\Polar=76.9648113,0.0792221,53.5493045,5.5464058,-3.611292
 7,51.4971156\PG=Unknown\NImag=0\\0.54123545,-0.01841321,0.57394505,-0.
 01103928,0.00701005,0.56621032,-0.09408021,0.02500801,0.02420736,0.425
 72034,0.05829837,-0.08908188,-0.04994211,-0.00033066,0.50642360,0.0564
 1037,-0.05017624,-0.08774558,0.00089577,0.01856434,0.50513008,0.000600
 54,0.01015430,0.00065915,-0.09173661,-0.07035063,0.01232172,0.08091696
 ,-0.02050923,-0.04511780,0.01854020,-0.05792078,-0.27077427,0.01791576
 ,0.07538959,0.36131969,-0.00636727,-0.01027211,0.00596554,0.01242177,0
 .02827216,-0.07130044,-0.01751149,-0.07316576,0.08866580,0.00341468,0.
 00062636,0.00915001,-0.09414167,0.00930486,-0.07375056,0.01485898,0.00
 326148,0.00760913,0.07913666,-0.00834633,0.00351119,-0.01208202,0.0087
 2180,-0.06797815,0.01699323,0.01010282,-0.02339591,0.05702472,-0.01545
 460,0.08290216,-0.02390728,0.01410911,-0.04477481,-0.06208317,0.006662
 40,-0.27083879,0.00105544,0.04426774,-0.02913626,0.08348654,-0.0562144
 0,0.36345677,-0.01517221,0.01288262,0.01408975,-0.12378312,0.01960989,
 0.02136159,0.00640328,0.00431667,-0.00183370,0.00499229,0.00020828,0.0
 0240231,0.26593797,0.01567983,0.01955668,0.00391552,0.01571950,-0.0322
 1923,-0.01713764,-0.02916074,-0.02107120,0.00572994,0.00499134,0.00037
 676,0.00732065,-0.00968107,0.39613736,0.01592785,0.00844934,0.02149940
 ,0.00844695,-0.02100291,-0.05437475,0.00849498,0.01268339,0.00060309,-
 0.03436012,0.00397505,-0.02013106,0.06814496,-0.05289064,0.47936340,0.
 00256647,-0.00075687,0.00114681,0.01183676,-0.00046253,-0.02025166,-0.
 00354556,-0.00146188,0.00046206,-0.00755592,0.00115792,-0.00289750,-0.
 04661227,0.01709373,-0.03062200,0.21823369,-0.00036957,-0.00037989,0.0
 0051882,0.00085019,-0.00271271,0.00332245,0.00075180,0.00305766,-0.000
 94394,0.00132852,0.00032399,0.00181050,0.03065665,-0.05666639,0.070438
 36,0.04280148,0.08289551,-0.00109927,0.00235970,-0.00346320,0.00813563
 ,-0.00349952,-0.00536282,-0.00490921,-0.00448465,0.00161294,0.00001270
 ,0.00041615,0.00339528,-0.06268537,0.09438734,-0.32157214,-0.01252379,
 -0.11076595,0.32284330,-0.00058937,-0.00785205,-0.00877358,-0.00370079
 ,0.01887162,0.00851874,0.00030758,-0.00464649,0.00079650,-0.00369073,-
 0.00034439,-0.00669713,-0.02399602,0.00028833,-0.03225290,-0.17489930,
 -0.07311431,0.07453384,0.21996117,-0.00184058,-0.00342640,-0.00172808,
 -0.00483957,0.00435933,0.00498203,0.00073421,0.00106180,-0.00098830,0.
 00024301,0.00015893,-0.00119319,-0.01216757,-0.02740432,0.00343680,-0.
 06937939,-0.02694613,0.00753365,0.05690839,0.05828929,-0.00175111,-0.0
 0661928,-0.00962126,-0.00049300,0.01438623,0.01549407,-0.00150701,-0.0
 0518335,0.00040101,0.00135598,-0.00039565,-0.00162645,-0.02480649,0.00
 035534,-0.05141218,0.07015618,0.01378668,-0.00918405,-0.03509689,-0.02
 635405,0.05428413,0.00316165,0.00195005,-0.00162346,0.01007412,-0.0335
 6786,-0.00459089,-0.01366656,-0.00752592,0.00237698,-0.00368867,0.0012
 2835,-0.00249501,-0.08176582,-0.01181845,-0.01114093,0.00732876,-0.002
 85598,-0.00007126,-0.00460697,0.02567625,-0.00097311,0.54948056,-0.000
 65273,-0.00992628,-0.00185592,0.00520058,-0.01224024,0.00197891,-0.004
 81421,-0.00144716,0.00045170,-0.00506356,0.00156979,-0.00488177,0.0065
 6101,-0.24100894,-0.01212985,0.00705350,-0.00196764,0.01596648,0.00393
 330,-0.01224700,0.00548657,0.13499926,0.33958748,-0.00260024,-0.002440
 19,-0.00360954,0.00048132,-0.00049468,0.00087694,-0.00011009,0.0005908
 8,0.00066059,0.00010222,-0.00026848,0.00178133,-0.00766462,-0.04021897
 ,-0.04576756,-0.00639228,0.02144553,0.01091867,-0.00584137,0.01584928,
 -0.00278067,0.09155894,0.02150040,0.05491273,-0.09247850,0.00072649,-0
 .05444234,0.00774547,-0.00082049,0.00460679,0.00067085,0.00125184,0.00
 055679,0.00068179,0.00135341,0.00407175,-0.00016019,-0.00132241,-0.004
 31186,-0.00207586,0.00069630,0.00171086,0.00034050,0.00056606,0.001166
 27,-0.00045838,-0.00014305,0.00156822,0.12453049,0.00203821,-0.0789181
 6,-0.01022117,-0.00616932,0.00670490,-0.01514415,0.00023278,0.00205849
 ,-0.00031756,0.00152576,-0.00188844,-0.00642547,-0.00189014,-0.0026243
 8,0.00024960,0.00132885,0.00027816,-0.00062979,0.00077264,0.00024978,0
 .00022075,-0.00000758,0.00180501,0.00072078,-0.00222562,0.07667107,-0.
 04883228,-0.01448255,-0.27631644,-0.01922247,0.00909358,-0.03779323,0.
 00117331,-0.00637687,0.00216833,0.00515479,-0.00601667,-0.00957700,-0.
 00628147,-0.00051998,-0.00637965,0.00038264,-0.00020312,0.00205397,0.0
 0295856,0.00034707,0.00321181,0.00143936,0.00070621,0.00132489,0.11785
 210,-0.01717435,0.37353206,-0.07800562,0.00710389,0.00413393,0.0082862
 1,0.01190272,-0.00759052,-0.00071068,0.00571906,0.00217708,0.00054277,
 0.00006745,0.00235531,0.00063205,-0.00283524,-0.00048731,-0.00016054,0
 .00003415,-0.00031579,-0.00020928,0.00050425,-0.00010403,-0.00618634,0
 .00192275,0.00141766,0.00938245,0.01499972,-0.01381210,0.08475939,0.01
 148093,-0.28688687,0.04293127,-0.00268360,-0.03721466,0.02190966,0.004
 80498,-0.00942159,-0.00514692,-0.00060611,0.00285185,-0.00408046,-0.00
 522897,-0.00693601,-0.00189048,0.00046860,0.00033666,-0.00122078,0.002
 19878,0.00129798,0.00178299,0.00111517,0.00545374,0.00066176,0.0109578
 3,-0.01538297,0.04219250,0.02075877,0.38601432,0.00131048,0.05097754,-
 0.09096098,0.00016187,-0.00691694,0.00402502,0.00043736,-0.00461476,-0
 .00029990,0.00107312,-0.00327207,0.00386559,-0.00119676,0.00151169,-0.
 00235079,-0.00007165,-0.00013567,0.00081313,0.00067775,-0.00020955,0.0
 0090526,0.00183394,-0.00070327,0.00080007,-0.01337842,0.05909411,-0.04
 105878,-0.00353178,-0.11166912,0.11560178,-0.27019827,-0.03172717,0.02
 266875,-0.05533627,-0.01188714,0.00162747,0.00553434,0.00193179,-0.000
 37700,0.00481300,0.00110449,0.00442499,0.00614449,0.00323742,0.0055631
 6,-0.00025967,0.00058923,0.00052674,-0.00431170,-0.00065735,-0.0036914
 7,0.00007560,-0.00086496,0.00036751,-0.04848518,-0.01062007,-0.0408475
 5,-0.01813345,-0.04329099,0.01258524,0.37978067,-0.03611317,-0.0835289
 6,0.00215534,0.01337528,0.00152946,-0.00201891,0.00429675,0.00431126,-
 0.00125037,0.00001021,0.00074636,-0.00106036,-0.00173071,-0.00350949,-
 0.00236320,-0.00008451,0.00007040,-0.00023437,0.00135253,0.00066647,0.
 00125809,-0.00038258,0.00175305,0.00054875,-0.01127407,0.01117515,-0.0
 0742225,-0.06086642,-0.03988735,0.01621511,0.09143065,0.10668331,0.021
 96754,0.00109078,-0.07849331,0.02641859,0.00289626,0.00132348,-0.00087
 107,-0.00105811,0.00070778,-0.00026182,0.00023730,0.00335465,-0.003172
 35,-0.00275824,-0.00502794,-0.00018783,-0.00016884,0.00041509,0.002424
 81,0.00064598,0.00245601,-0.00006775,0.00085425,0.00055015,-0.05904648
 ,-0.01031140,-0.01045029,0.01551918,0.01457929,0.00891296,-0.00268070,
 -0.00579283,0.07639716,-0.00045462,0.00029757,-0.00017710,-0.00088422,
 -0.00056815,0.00044118,0.00036687,0.00019388,-0.00031084,0.00063682,0.
 00020080,0.00028376,0.00737954,-0.00219223,0.00659722,-0.00485657,-0.0
 0136846,-0.00331509,-0.00460509,0.00425228,-0.00425531,-0.45974795,-0.
 14813190,-0.07288727,0.00030657,0.00001477,0.00003512,-0.00019697,0.00
 002460,0.00009885,0.00037645,-0.00001396,-0.00004211,0.46167917,-0.001
 25253,0.00025331,0.00075811,0.00306857,-0.00679614,-0.00118944,-0.0021
 4164,-0.00058098,0.00060645,-0.00016729,0.00082147,-0.00031475,-0.0435
 3665,-0.02463084,-0.00895548,0.00224110,0.00171037,0.00017173,0.001631
 65,0.00394026,0.00127568,-0.10881072,-0.07133182,-0.01789506,0.0002337
 1,-0.00012861,-0.00014355,0.00068889,-0.00022510,-0.00027707,0.0007541
 1,-0.00000966,-0.00021444,0.14729080,0.09697775,-0.00001951,-0.0000061
 5,0.00130987,0.00062940,0.00198118,0.00056601,0.00076691,0.00088553,-0
 .00004847,0.00042801,-0.00039715,0.00023074,0.00164216,0.00030499,0.00
 555019,0.00079902,0.00089519,-0.00247016,-0.00124834,-0.00232166,-0.00
 212769,-0.07624680,-0.02737371,-0.01966760,-0.00035369,-0.00006134,-0.
 00071566,0.00023837,-0.00004969,-0.00025336,-0.00016711,-0.00003501,-0
 .00014575,0.07353159,0.02617781,0.01777189\\-0.00000056,0.00000116,-0.
 00000304,0.00000063,0.00000047,-0.00000132,-0.00000102,0.00000077,-0.0
 0000190,0.00000357,0.00000063,-0.00000215,0.00000076,-0.00000112,0.000
 00289,-0.00000290,-0.00000123,0.00000329,-0.00000156,-0.00000219,0.000
 00615,0.00000193,-0.00000106,0.00000262,-0.00000328,0.00000095,-0.0000
 0210,0.00000141,0.00000115,-0.00000314,-0.00000091,0.00000225,-0.00000
 585,0.00000193,-0.00000178,0.00000455\\\@
 The archive entry for this job was punched.


 I LOVE THOSE WHO LONG FOR THE IMPOSSIBLE.

                                 -- GOETHE
 Job cpu time:       0 days  0 hours 10 minutes 27.3 seconds.
 Elapsed time:       0 days  0 hours  1 minutes 21.5 seconds.
 File lengths (MBytes):  RWF=     99 Int=      0 D2E=      0 Chk=      6 Scr=      1
 Normal termination of Gaussian 16 at Fri May 23 04:47:42 2025.
done
