3
energy = -237.695740385
C -3.21696300 -0.31472700 0.46816100
F -3.68726800 0.78301700 0.98297500
F -4.17348000 -1.18274500 0.61948000
