4
energy = -337.55998358500005
C -0.72659000 0.29760100 1.37412500
F -0.48190400 -0.69660500 2.20167200
F -0.18966200 1.42037600 1.80322900
F -2.01838000 0.43584900 1.16120800
