 Entering Gaussian System, Link 0=g16
 Initial command:
 /apps/easybuild-2022/easybuild/software/Compiler/NVHPC/22.11-CUDA-11.7.0/Gaussian/g16c01-CUDA-11.7.0/g16/l1.exe "/tmp/Gau-246979.inp" -scrdir="/tmp/"
 Entering Link 1 = /apps/easybuild-2022/easybuild/software/Compiler/NVHPC/22.11-CUDA-11.7.0/Gaussian/g16c01-CUDA-11.7.0/g16/l1.exe PID=    246980.
  
 Copyright (c) 1988-2019, Gaussian, Inc.  All Rights Reserved.
  
 This is part of the Gaussian(R) 16 program.  It is based on
 the Gaussian(R) 09 system (copyright 2009, Gaussian, Inc.),
 the Gaussian(R) 03 system (copyright 2003, Gaussian, Inc.),
 the Gaussian(R) 98 system (copyright 1998, Gaussian, Inc.),
 the Gaussian(R) 94 system (copyright 1995, Gaussian, Inc.),
 the Gaussian 92(TM) system (copyright 1992, Gaussian, Inc.),
 the Gaussian 90(TM) system (copyright 1990, Gaussian, Inc.),
 the Gaussian 88(TM) system (copyright 1988, Gaussian, Inc.),
 the Gaussian 86(TM) system (copyright 1986, Carnegie Mellon
 University), and the Gaussian 82(TM) system (copyright 1983,
 Carnegie Mellon University). Gaussian is a federally registered
 trademark of Gaussian, Inc.
  
 This software contains proprietary and confidential information,
 including trade secrets, belonging to Gaussian, Inc.
  
 This software is provided under written license and may be
 used, copied, transmitted, or stored only in accord with that
 written license.
  
 The following legend is applicable only to US Government
 contracts under FAR:
  
                    RESTRICTED RIGHTS LEGEND
  
 Use, reproduction and disclosure by the US Government is
 subject to restrictions as set forth in subparagraphs (a)
 and (c) of the Commercial Computer Software - Restricted
 Rights clause in FAR 52.227-19.
  
 Gaussian, Inc.
 340 Quinnipiac St., Bldg. 40, Wallingford CT 06492
  
  
 ---------------------------------------------------------------
 Warning -- This program may not be used in any manner that
 competes with the business of Gaussian, Inc. or will provide
 assistance to any competitor of Gaussian, Inc.  The licensee
 of this program is prohibited from giving any competitor of
 Gaussian, Inc. access to this program.  By using this program,
 the user acknowledges that Gaussian, Inc. is engaged in the
 business of creating and licensing software in the field of
 computational chemistry and represents and warrants to the
 licensee that it is not a competitor of Gaussian, Inc. and that
 it will not use this program in any manner prohibited above.
 ---------------------------------------------------------------
  

 Cite this work as:
 Gaussian 16, Revision C.01,
 M. J. Frisch, G. W. Trucks, H. B. Schlegel, G. E. Scuseria, 
 M. A. Robb, J. R. Cheeseman, G. Scalmani, V. Barone, 
 G. A. Petersson, H. Nakatsuji, X. Li, M. Caricato, A. V. Marenich, 
 J. Bloino, B. G. Janesko, R. Gomperts, B. Mennucci, H. P. Hratchian, 
 J. V. Ortiz, A. F. Izmaylov, J. L. Sonnenberg, D. Williams-Young, 
 F. Ding, F. Lipparini, F. Egidi, J. Goings, B. Peng, A. Petrone, 
 T. Henderson, D. Ranasinghe, V. G. Zakrzewski, J. Gao, N. Rega, 
 G. Zheng, W. Liang, M. Hada, M. Ehara, K. Toyota, R. Fukuda, 
 J. Hasegawa, M. Ishida, T. Nakajima, Y. Honda, O. Kitao, H. Nakai, 
 T. Vreven, K. Throssell, J. A. Montgomery, Jr., J. E. Peralta, 
 F. Ogliaro, M. J. Bearpark, J. J. Heyd, E. N. Brothers, K. N. Kudin, 
 V. N. Staroverov, T. A. Keith, R. Kobayashi, J. Normand, 
 K. Raghavachari, A. P. Rendell, J. C. Burant, S. S. Iyengar, 
 J. Tomasi, M. Cossi, J. M. Millam, M. Klene, C. Adamo, R. Cammi, 
 J. W. Ochterski, R. L. Martin, K. Morokuma, O. Farkas, 
 J. B. Foresman, and D. J. Fox, Gaussian, Inc., Wallingford CT, 2019.
 
 ******************************************
 Gaussian 16:  ES64L-G16RevC.01  3-Jul-2019
                23-May-2025 
 ******************************************
 %mem=28GB
 %nprocshared=8
 Will use up to    8 processors via shared memory.
 ----------------------------------------------------------------------
 #P wb97xd/6-311++G(d,p) Symm(None) scf(xqc) pop(None) freq opt(CalcFC,
  Tight)
 ----------------------------------------------------------------------
 1/7=10,10=4,18=20,19=15,26=3,38=1/1,3;
 2/9=110,12=2,15=3,17=6,18=5,40=1/2;
 3/5=4,6=6,7=1111,11=2,25=1,30=1,71=2,74=-58,140=1/1,2,3;
 4//1;
 5/5=2,8=3,13=1,38=5/2,8;
 8/6=4,10=90,11=11/1;
 11/6=1,8=1,9=11,15=111,16=1,31=1/1,2,10;
 10/6=1,13=1,31=1/2;
 7/10=1,25=1,30=1/1,2,3,16;
 1/7=10,10=4,18=20,19=15,26=3/3(2);
 2/9=110,15=3/2;
 99//99;
 2/9=110,15=3/2;
 3/5=4,6=6,7=1111,11=2,25=1,30=1,71=1,74=-58/1,2,3;
 4/5=5,16=3,69=1/1;
 5/5=2,8=3,13=1,38=5/2,8;
 7/30=1/1,2,3,16;
 1/7=10,18=20,19=15,26=3/3(-5);
 2/9=110,15=3/2;
 99/9=1/99;
 Leave Link    1 at Fri May 23 04:46:17 2025, MaxMem=  3758096384 cpu:               0.1 elap:               0.1
 (Enter /apps/easybuild-2022/easybuild/software/Compiler/NVHPC/22.11-CUDA-11.7.0/Gaussian/g16c01-CUDA-11.7.0/g16/l101.exe)
 ------------------------------
 Gaussian input prepared by ASE
 ------------------------------
 Symbolic Z-matrix:
 Charge =  0 Multiplicity = 1
 S                     2.51314  -0.2227   -0.53106 
 O                     2.6893   -1.07324   0.60836 
 O                     2.81445  -0.71181  -1.84359 
 O                     2.0357    1.11709  -0.35793 
 
 ITRead=  0  0  0  0
 MicOpt= -1 -1 -1 -1
 NAtoms=      4 NQM=        4 NQMF=       0 NMMI=      0 NMMIF=      0
                NMic=       0 NMicF=      0.
                    Isotopes and Nuclear Properties:
 (Nuclear quadrupole moments (NQMom) in fm**2, nuclear magnetic moments (NMagM)
  in nuclear magnetons)

  Atom         1           2           3           4
 IAtWgt=          32          16          16          16
 AtmWgt=  31.9720718  15.9949146  15.9949146  15.9949146
 NucSpn=           0           0           0           0
 AtZEff=  -0.0000000  -0.0000000  -0.0000000  -0.0000000
 NQMom=    0.0000000   0.0000000   0.0000000   0.0000000
 NMagM=    0.0000000   0.0000000   0.0000000   0.0000000
 AtZNuc=  16.0000000   8.0000000   8.0000000   8.0000000
 Leave Link  101 at Fri May 23 04:46:17 2025, MaxMem=  3758096384 cpu:               0.3 elap:               0.2
 (Enter /apps/easybuild-2022/easybuild/software/Compiler/NVHPC/22.11-CUDA-11.7.0/Gaussian/g16c01-CUDA-11.7.0/g16/l103.exe)

 GradGradGradGradGradGradGradGradGradGradGradGradGradGradGradGradGradGrad
 Berny optimization.
 Initialization pass.
                           ----------------------------
                           !    Initial Parameters    !
                           ! (Angstroms and Degrees)  !
 --------------------------                            --------------------------
 ! Name  Definition              Value          Derivative Info.                !
 --------------------------------------------------------------------------------
 ! R1    R(1,2)                  1.4327         calculate D2E/DX2 analytically  !
 ! R2    R(1,3)                  1.4327         calculate D2E/DX2 analytically  !
 ! R3    R(1,4)                  1.4328         calculate D2E/DX2 analytically  !
 ! A1    A(2,1,3)              120.002          calculate D2E/DX2 analytically  !
 ! A2    A(2,1,4)              119.9992         calculate D2E/DX2 analytically  !
 ! A3    A(3,1,4)              119.9988         calculate D2E/DX2 analytically  !
 ! D1    D(2,1,4,3)            179.997          calculate D2E/DX2 analytically  !
 --------------------------------------------------------------------------------
 Trust Radius=3.00D-01 FncErr=1.00D-07 GrdErr=1.00D-06 EigMax=2.50D+02 EigMin=1.00D-04
 Number of steps in this run=     20 maximum allowed number of steps=    100.
 GradGradGradGradGradGradGradGradGradGradGradGradGradGradGradGradGradGrad

 Leave Link  103 at Fri May 23 04:46:17 2025, MaxMem=  3758096384 cpu:               0.1 elap:               0.0
 (Enter /apps/easybuild-2022/easybuild/software/Compiler/NVHPC/22.11-CUDA-11.7.0/Gaussian/g16c01-CUDA-11.7.0/g16/l202.exe)
                          Input orientation:                          
 ---------------------------------------------------------------------
 Center     Atomic      Atomic             Coordinates (Angstroms)
 Number     Number       Type             X           Y           Z
 ---------------------------------------------------------------------
      1         16           0        2.513140   -0.222698   -0.531055
      2          8           0        2.689301   -1.073242    0.608363
      3          8           0        2.814446   -0.711809   -1.843587
      4          8           0        2.035696    1.117086   -0.357934
 ---------------------------------------------------------------------
                    Distance matrix (angstroms):
                    1          2          3          4
     1  S    0.000000
     2  O    1.432736   0.000000
     3  O    1.432744   2.481603   0.000000
     4  O    1.432810   2.481626   2.481627   0.000000
 Symmetry turned off by external request.
 Stoichiometry    O3S
 Rotational constants (GHZ):          10.2612586          10.2610009           5.1305649
 Leave Link  202 at Fri May 23 04:46:17 2025, MaxMem=  3758096384 cpu:               0.1 elap:               0.0
 (Enter /apps/easybuild-2022/easybuild/software/Compiler/NVHPC/22.11-CUDA-11.7.0/Gaussian/g16c01-CUDA-11.7.0/g16/l301.exe)
 Standard basis: 6-311++G(d,p) (5D, 7F)
 Ernie: Thresh=  0.10000D-02 Tol=  0.10000D-05 Strict=F.
    96 basis functions,   158 primitive gaussians,   100 cartesian basis functions
    20 alpha electrons       20 beta electrons
       nuclear repulsion energy       182.7685176937 Hartrees.
 IExCor= 4639 DFT=T Ex+Corr=wB97XD ExCW=0 ScaHFX=  1.000000
 ScaDFX=  1.000000  1.000000  1.000000  1.000000 ScalE2=  1.000000  1.000000
 IRadAn=      5 IRanWt=     -1 IRanGd=            0 ICorTp=0 IEmpDi=121
 HFx  wShort=  0.000000 wLong=  0.200000 cFull=  0.222036 cShort=  0.000000 cLong=  0.777964
 DFx  wShort=  0.000000 wLong=  0.200000 cFull=  0.000000 cShort=  0.000000 cLong=  1.000000
 NAtoms=    4 NActive=    4 NUniq=    4 SFac= 1.00D+00 NAtFMM=   60 NAOKFM=F Big=F
 Integral buffers will be    131072 words long.
 Raffenetti 2 integral format.
 Two-electron integral symmetry is turned off.
 R6Disp:  Grimme-D2 Dispersion energy=       -0.0002147131 Hartrees.
 Nuclear repulsion after empirical dispersion term =      182.7683029807 Hartrees.
 Leave Link  301 at Fri May 23 04:46:18 2025, MaxMem=  3758096384 cpu:               0.1 elap:               0.1
 (Enter /apps/easybuild-2022/easybuild/software/Compiler/NVHPC/22.11-CUDA-11.7.0/Gaussian/g16c01-CUDA-11.7.0/g16/l302.exe)
 NPDir=0 NMtPBC=     1 NCelOv=     1 NCel=       1 NClECP=     1 NCelD=      1
         NCelK=      1 NCelE2=     1 NClLst=     1 CellRange=     0.0.
 One-electron integrals computed using PRISM.
 NBasis=    96 RedAO= T EigKep=  5.16D-04  NBF=    96
 NBsUse=    96 1.00D-06 EigRej= -1.00D+00 NBFU=    96
 Precomputing XC quadrature grid using
 IXCGrd= 4 IRadAn=           5 IRanWt=          -1 IRanGd=           0 AccXCQ= 0.00D+00.
 Generated NRdTot=       0 NPtTot=           0 NUsed=           0 NTot=          32
 NSgBfM=   100   100   100   100   100 MxSgAt=     4 MxSgA2=     4.
 Leave Link  302 at Fri May 23 04:46:18 2025, MaxMem=  3758096384 cpu:               0.5 elap:               0.3
 (Enter /apps/easybuild-2022/easybuild/software/Compiler/NVHPC/22.11-CUDA-11.7.0/Gaussian/g16c01-CUDA-11.7.0/g16/l303.exe)
 DipDrv:  MaxL=1.
 Leave Link  303 at Fri May 23 04:46:18 2025, MaxMem=  3758096384 cpu:               0.1 elap:               0.1
 (Enter /apps/easybuild-2022/easybuild/software/Compiler/NVHPC/22.11-CUDA-11.7.0/Gaussian/g16c01-CUDA-11.7.0/g16/l401.exe)
 ExpMin= 4.05D-02 ExpMax= 9.34D+04 ExpMxC= 3.17D+03 IAcc=3 IRadAn=         5 AccDes= 0.00D+00
 Harris functional with IExCor= 4639 and IRadAn=       5 diagonalized for initial guess.
 HarFok:  IExCor= 4639 AccDes= 0.00D+00 IRadAn=         5 IDoV= 1 UseB2=F ITyADJ=14
 ICtDFT=  3500011 ScaDFX=  1.000000  1.000000  1.000000  1.000000
 FoFCou: FMM=F IPFlag=           0 FMFlag=      100000 FMFlg1=           0
         NFxFlg=           0 DoJE=T BraDBF=F KetDBF=T FulRan=T
         wScrn=  0.000000 ICntrl=       500 IOpCl=  0 I1Cent=   200000004 NGrid=           0
         NMat0=    1 NMatS0=      1 NMatT0=    0 NMatD0=    1 NMtDS0=    0 NMtDT0=    0
 Symmetry not used in FoFCou.
 Harris En= -609.429481013161    
 JPrj=0 DoOrth=F DoCkMO=F.
 Leave Link  401 at Fri May 23 04:46:18 2025, MaxMem=  3758096384 cpu:               1.1 elap:               0.4
 (Enter /apps/easybuild-2022/easybuild/software/Compiler/NVHPC/22.11-CUDA-11.7.0/Gaussian/g16c01-CUDA-11.7.0/g16/l502.exe)
 Keep R1 ints in memory in canonical form, NReq=29551214.
 FoFCou: FMM=F IPFlag=           0 FMFlag=           0 FMFlg1=           0
         NFxFlg=           0 DoJE=F BraDBF=F KetDBF=F FulRan=T
         wScrn=  0.000000 ICntrl=       600 IOpCl=  0 I1Cent=           0 NGrid=           0
         NMat0=    1 NMatS0=   4656 NMatT0=    0 NMatD0=    1 NMtDS0=    0 NMtDT0=    0
 Symmetry not used in FoFCou.
 Two-electron integral symmetry not used.
 Closed shell SCF:
 Using DIIS extrapolation, IDIIS=  1040.
 NGot=  3758096384 LenX=  3736391718 LenY=  3736381277
 Requested convergence on RMS density matrix=1.00D-08 within  32 cycles.
 Requested convergence on MAX density matrix=1.00D-06.
 Requested convergence on             energy=1.00D-06.
 No special actions if energy rises.

 Cycle   1  Pass 1  IDiag  1:
 E= -623.482207021669    
 DIIS: error= 1.56D-01 at cycle   1 NSaved=   1.
 NSaved= 1 IEnMin= 1 EnMin= -623.482207021669     IErMin= 1 ErrMin= 1.56D-01
 ErrMax= 1.56D-01  0.00D+00 EMaxC= 1.00D-01 BMatC= 1.76D+00 BMatP= 1.76D+00
 IDIUse=3 WtCom= 0.00D+00 WtEn= 1.00D+00
 Coeff-Com:  0.100D+01
 Coeff-En:   0.100D+01
 Coeff:      0.100D+01
 Gap=     0.472 Goal=   None    Shift=    0.000
 GapD=    0.472 DampG=2.000 DampE=0.250 DampFc=0.5000 IDamp=-1.
 Damping current iteration by 5.00D-01
 RMSDP=8.11D-03 MaxDP=3.46D-01              OVMax= 2.20D-01

 Cycle   2  Pass 1  IDiag  1:
 E= -623.626706173515     Delta-E=       -0.144499151847 Rises=F Damp=T
 DIIS: error= 6.91D-02 at cycle   2 NSaved=   2.
 NSaved= 2 IEnMin= 2 EnMin= -623.626706173515     IErMin= 2 ErrMin= 6.91D-02
 ErrMax= 6.91D-02  0.00D+00 EMaxC= 1.00D-01 BMatC= 2.64D-01 BMatP= 1.76D+00
 IDIUse=3 WtCom= 3.09D-01 WtEn= 6.91D-01
 Coeff-Com: -0.485D+00 0.148D+01
 Coeff-En:   0.000D+00 0.100D+01
 Coeff:     -0.150D+00 0.115D+01
 Gap=     0.412 Goal=   None    Shift=    0.000
 RMSDP=2.27D-03 MaxDP=3.58D-02 DE=-1.44D-01 OVMax= 1.11D-01

 Cycle   3  Pass 1  IDiag  1:
 E= -623.750384038868     Delta-E=       -0.123677865353 Rises=F Damp=F
 DIIS: error= 1.70D-02 at cycle   3 NSaved=   3.
 NSaved= 3 IEnMin= 3 EnMin= -623.750384038868     IErMin= 3 ErrMin= 1.70D-02
 ErrMax= 1.70D-02  0.00D+00 EMaxC= 1.00D-01 BMatC= 1.82D-02 BMatP= 2.64D-01
 IDIUse=3 WtCom= 8.30D-01 WtEn= 1.70D-01
 Coeff-Com: -0.127D+00 0.398D+00 0.729D+00
 Coeff-En:   0.000D+00 0.000D+00 0.100D+01
 Coeff:     -0.105D+00 0.330D+00 0.775D+00
 Gap=     0.391 Goal=   None    Shift=    0.000
 RMSDP=1.57D-03 MaxDP=2.59D-02 DE=-1.24D-01 OVMax= 3.85D-02

 Cycle   4  Pass 1  IDiag  1:
 E= -623.757721000218     Delta-E=       -0.007336961350 Rises=F Damp=F
 DIIS: error= 9.58D-03 at cycle   4 NSaved=   4.
 NSaved= 4 IEnMin= 4 EnMin= -623.757721000218     IErMin= 4 ErrMin= 9.58D-03
 ErrMax= 9.58D-03  0.00D+00 EMaxC= 1.00D-01 BMatC= 5.17D-03 BMatP= 1.82D-02
 IDIUse=3 WtCom= 9.04D-01 WtEn= 9.58D-02
 Coeff-Com:  0.415D-02-0.352D-03 0.348D+00 0.649D+00
 Coeff-En:   0.000D+00 0.000D+00 0.230D+00 0.770D+00
 Coeff:      0.375D-02-0.318D-03 0.336D+00 0.660D+00
 Gap=     0.401 Goal=   None    Shift=    0.000
 RMSDP=5.94D-04 MaxDP=9.79D-03 DE=-7.34D-03 OVMax= 1.21D-02

 Cycle   5  Pass 1  IDiag  1:
 E= -623.760915788116     Delta-E=       -0.003194787897 Rises=F Damp=F
 DIIS: error= 6.77D-04 at cycle   5 NSaved=   5.
 NSaved= 5 IEnMin= 5 EnMin= -623.760915788116     IErMin= 5 ErrMin= 6.77D-04
 ErrMax= 6.77D-04  0.00D+00 EMaxC= 1.00D-01 BMatC= 2.45D-05 BMatP= 5.17D-03
 IDIUse=3 WtCom= 9.93D-01 WtEn= 6.77D-03
 Coeff-Com:  0.312D-02-0.671D-02 0.502D-01 0.145D+00 0.808D+00
 Coeff-En:   0.000D+00 0.000D+00 0.000D+00 0.000D+00 0.100D+01
 Coeff:      0.310D-02-0.666D-02 0.499D-01 0.144D+00 0.810D+00
 Gap=     0.401 Goal=   None    Shift=    0.000
 RMSDP=4.45D-05 MaxDP=1.19D-03 DE=-3.19D-03 OVMax= 8.47D-04

 Cycle   6  Pass 1  IDiag  1:
 E= -623.760931930656     Delta-E=       -0.000016142540 Rises=F Damp=F
 DIIS: error= 8.44D-05 at cycle   6 NSaved=   6.
 NSaved= 6 IEnMin= 6 EnMin= -623.760931930656     IErMin= 6 ErrMin= 8.44D-05
 ErrMax= 8.44D-05  0.00D+00 EMaxC= 1.00D-01 BMatC= 3.86D-07 BMatP= 2.45D-05
 IDIUse=1 WtCom= 1.00D+00 WtEn= 0.00D+00
 Coeff-Com: -0.316D-03 0.251D-03-0.215D-01-0.374D-01-0.500D-01 0.111D+01
 Coeff:     -0.316D-03 0.251D-03-0.215D-01-0.374D-01-0.500D-01 0.111D+01
 Gap=     0.401 Goal=   None    Shift=    0.000
 RMSDP=2.02D-05 MaxDP=3.66D-04 DE=-1.61D-05 OVMax= 4.13D-04

 Cycle   7  Pass 1  IDiag  1:
 E= -623.760932631171     Delta-E=       -0.000000700515 Rises=F Damp=F
 DIIS: error= 1.37D-05 at cycle   7 NSaved=   7.
 NSaved= 7 IEnMin= 7 EnMin= -623.760932631171     IErMin= 7 ErrMin= 1.37D-05
 ErrMax= 1.37D-05  0.00D+00 EMaxC= 1.00D-01 BMatC= 7.61D-09 BMatP= 3.86D-07
 IDIUse=1 WtCom= 1.00D+00 WtEn= 0.00D+00
 Coeff-Com: -0.679D-05 0.247D-04-0.259D-03-0.175D-02-0.908D-02-0.240D-01
 Coeff-Com:  0.104D+01
 Coeff:     -0.679D-05 0.247D-04-0.259D-03-0.175D-02-0.908D-02-0.240D-01
 Coeff:      0.104D+01
 Gap=     0.401 Goal=   None    Shift=    0.000
 RMSDP=4.11D-06 MaxDP=8.82D-05 DE=-7.01D-07 OVMax= 6.01D-05

 Cycle   8  Pass 1  IDiag  1:
 E= -623.760932637119     Delta-E=       -0.000000005948 Rises=F Damp=F
 DIIS: error= 1.51D-05 at cycle   8 NSaved=   8.
 NSaved= 8 IEnMin= 8 EnMin= -623.760932637119     IErMin= 7 ErrMin= 1.37D-05
 ErrMax= 1.51D-05  0.00D+00 EMaxC= 1.00D-01 BMatC= 9.28D-09 BMatP= 7.61D-09
 IDIUse=1 WtCom= 1.00D+00 WtEn= 0.00D+00
 Coeff-Com:  0.181D-04-0.362D-05 0.128D-02 0.140D-02-0.238D-02-0.903D-01
 Coeff-Com:  0.662D+00 0.428D+00
 Coeff:      0.181D-04-0.362D-05 0.128D-02 0.140D-02-0.238D-02-0.903D-01
 Coeff:      0.662D+00 0.428D+00
 Gap=     0.401 Goal=   None    Shift=    0.000
 RMSDP=9.96D-07 MaxDP=2.03D-05 DE=-5.95D-09 OVMax= 2.80D-05

 Cycle   9  Pass 1  IDiag  1:
 E= -623.760932643689     Delta-E=       -0.000000006570 Rises=F Damp=F
 DIIS: error= 1.31D-06 at cycle   9 NSaved=   9.
 NSaved= 9 IEnMin= 9 EnMin= -623.760932643689     IErMin= 9 ErrMin= 1.31D-06
 ErrMax= 1.31D-06  0.00D+00 EMaxC= 1.00D-01 BMatC= 7.91D-11 BMatP= 7.61D-09
 IDIUse=1 WtCom= 1.00D+00 WtEn= 0.00D+00
 Coeff-Com:  0.179D-05-0.460D-05 0.646D-04 0.290D-03 0.115D-02 0.431D-03
 Coeff-Com: -0.111D+00 0.205D-01 0.109D+01
 Coeff:      0.179D-05-0.460D-05 0.646D-04 0.290D-03 0.115D-02 0.431D-03
 Coeff:     -0.111D+00 0.205D-01 0.109D+01
 Gap=     0.401 Goal=   None    Shift=    0.000
 RMSDP=4.66D-07 MaxDP=9.56D-06 DE=-6.57D-09 OVMax= 5.93D-06

 Cycle  10  Pass 1  IDiag  1:
 E= -623.760932643801     Delta-E=       -0.000000000112 Rises=F Damp=F
 DIIS: error= 1.40D-07 at cycle  10 NSaved=  10.
 NSaved=10 IEnMin=10 EnMin= -623.760932643801     IErMin=10 ErrMin= 1.40D-07
 ErrMax= 1.40D-07  0.00D+00 EMaxC= 1.00D-01 BMatC= 1.44D-12 BMatP= 7.91D-11
 IDIUse=1 WtCom= 1.00D+00 WtEn= 0.00D+00
 Coeff-Com:  0.297D-06-0.106D-05-0.308D-04-0.649D-04-0.480D-05 0.141D-02
 Coeff-Com: -0.231D-02-0.779D-02-0.756D-01 0.108D+01
 Coeff:      0.297D-06-0.106D-05-0.308D-04-0.649D-04-0.480D-05 0.141D-02
 Coeff:     -0.231D-02-0.779D-02-0.756D-01 0.108D+01
 Gap=     0.401 Goal=   None    Shift=    0.000
 RMSDP=4.69D-08 MaxDP=9.62D-07 DE=-1.12D-10 OVMax= 3.68D-07

 Cycle  11  Pass 1  IDiag  1:
 E= -623.760932643803     Delta-E=       -0.000000000002 Rises=F Damp=F
 DIIS: error= 1.52D-08 at cycle  11 NSaved=  11.
 NSaved=11 IEnMin=11 EnMin= -623.760932643803     IErMin=11 ErrMin= 1.52D-08
 ErrMax= 1.52D-08  0.00D+00 EMaxC= 1.00D-01 BMatC= 1.20D-14 BMatP= 1.44D-12
 IDIUse=1 WtCom= 1.00D+00 WtEn= 0.00D+00
 Coeff-Com: -0.136D-06 0.301D-06 0.130D-06-0.166D-05-0.564D-05-0.104D-04
 Coeff-Com:  0.103D-02-0.358D-04-0.855D-02-0.614D-01 0.107D+01
 Coeff:     -0.136D-06 0.301D-06 0.130D-06-0.166D-05-0.564D-05-0.104D-04
 Coeff:      0.103D-02-0.358D-04-0.855D-02-0.614D-01 0.107D+01
 Gap=     0.401 Goal=   None    Shift=    0.000
 RMSDP=3.19D-09 MaxDP=5.96D-08 DE=-1.93D-12 OVMax= 6.54D-08

 SCF Done:  E(RwB97XD) =  -623.760932644     A.U. after   11 cycles
            NFock= 11  Conv=0.32D-08     -V/T= 2.0015
 KE= 6.228083664377D+02 PE=-1.843629422912D+03 EE= 4.142918208494D+02
 Leave Link  502 at Fri May 23 04:46:21 2025, MaxMem=  3758096384 cpu:               6.4 elap:               2.5
 (Enter /apps/easybuild-2022/easybuild/software/Compiler/NVHPC/22.11-CUDA-11.7.0/Gaussian/g16c01-CUDA-11.7.0/g16/l508.exe)
 QCSCF skips out because SCF is already converged.
 Leave Link  508 at Fri May 23 04:46:21 2025, MaxMem=  3758096384 cpu:               0.1 elap:               0.0
 (Enter /apps/easybuild-2022/easybuild/software/Compiler/NVHPC/22.11-CUDA-11.7.0/Gaussian/g16c01-CUDA-11.7.0/g16/l801.exe)
 DoSCS=F DFT=T ScalE2(SS,OS)=  1.000000  1.000000
 Range of M.O.s used for correlation:     1    96
 NBasis=    96 NAE=    20 NBE=    20 NFC=     0 NFV=     0
 NROrb=     96 NOA=    20 NOB=    20 NVA=    76 NVB=    76

 **** Warning!!: The largest alpha MO coefficient is  0.24000038D+02

 Leave Link  801 at Fri May 23 04:46:21 2025, MaxMem=  3758096384 cpu:               0.0 elap:               0.0
 (Enter /apps/easybuild-2022/easybuild/software/Compiler/NVHPC/22.11-CUDA-11.7.0/Gaussian/g16c01-CUDA-11.7.0/g16/l1101.exe)
 Using compressed storage, NAtomX=     4.
 Will process      5 centers per pass.
 R6Disp: Adding Grimme-D2 dispersion energy 1st derivatives to the gradient.
 Leave Link 1101 at Fri May 23 04:46:21 2025, MaxMem=  3758096384 cpu:               0.6 elap:               0.1
 (Enter /apps/easybuild-2022/easybuild/software/Compiler/NVHPC/22.11-CUDA-11.7.0/Gaussian/g16c01-CUDA-11.7.0/g16/l1102.exe)
 Symmetrizing basis deriv contribution to polar:
 IMax=3 JMax=2 DiffMx= 0.00D+00
 Leave Link 1102 at Fri May 23 04:46:21 2025, MaxMem=  3758096384 cpu:               0.1 elap:               0.0
 (Enter /apps/easybuild-2022/easybuild/software/Compiler/NVHPC/22.11-CUDA-11.7.0/Gaussian/g16c01-CUDA-11.7.0/g16/l1110.exe)
 Forming Gx(P) for the SCF density, NAtomX=     4.
 Integral derivatives from FoFJK, PRISM(SPDF).
 Do as many integral derivatives as possible in FoFJK.
 G2DrvN: MDV=    3758095844.
 G2DrvN: will do     5 centers at a time, making    1 passes.
 Calling FoFCou, ICntrl=  3107 FMM=F I1Cent=   0 AccDes= 0.00D+00.
 FoFJK:  IHMeth= 1 ICntrl=    3107 DoSepK=T KAlg= 0 I1Cent=           0 FoldK=F
 IRaf=         1 NMat=       1 IRICut=       1 DoRegI=T DoRafI=F ISym2E= 0 IDoP0=0 IntGTp=1.
 FoFCou: FMM=F IPFlag=           0 FMFlag=      100000 FMFlg1=           0
         NFxFlg=           0 DoJE=F BraDBF=F KetDBF=F FulRan=T
         wScrn=  0.000000 ICntrl=      3507 IOpCl=  0 I1Cent=           0 NGrid=           0
         NMat0=    1 NMatS0=      1 NMatT0=    0 NMatD0=    1 NMtDS0=    0 NMtDT0=    0
 Symmetry not used in FoFCou.
 End of G2Drv F.D. properties file   721 does not exist.
 End of G2Drv F.D. properties file   722 does not exist.
 End of G2Drv F.D. properties file   788 does not exist.
 Leave Link 1110 at Fri May 23 04:46:22 2025, MaxMem=  3758096384 cpu:               5.2 elap:               1.0
 (Enter /apps/easybuild-2022/easybuild/software/Compiler/NVHPC/22.11-CUDA-11.7.0/Gaussian/g16c01-CUDA-11.7.0/g16/l1002.exe)
 Minotr:  Closed shell wavefunction.
          IDoAtm=1111
          Direct CPHF calculation.
          Differentiating once with respect to nuclear coordinates.
          Requested convergence is 1.0D-08 RMS, and 1.0D-07 maximum.
          Secondary convergence is 1.0D-12 RMS, and 1.0D-12 maximum.
          NewPWx=T KeepS1=F KeepF1=F KeepIn=T MapXYZ=F SortEE=F KeepMc=T.
         1228 words used for storage of precomputed grid.
 Keep R1 ints in memory in canonical form, NReq=29527124.
 FoFCou: FMM=F IPFlag=           0 FMFlag=           0 FMFlg1=           0
         NFxFlg=           0 DoJE=F BraDBF=F KetDBF=F FulRan=T
         wScrn=  0.000000 ICntrl=       600 IOpCl=  0 I1Cent=           0 NGrid=           0
         NMat0=    1 NMatS0=   4656 NMatT0=    0 NMatD0=    1 NMtDS0=    0 NMtDT0=    0
 Symmetry not used in FoFCou.
 Two-electron integral symmetry not used.
          MDV=    3758096384 using IRadAn=       1.
          Solving linear equations simultaneously, MaxMat=       0.
          There are    15 degrees of freedom in the 1st order CPHF.  IDoFFX=6 NUNeed=     0.
      9 vectors produced by pass  0 Test12= 1.01D-14 6.67D-09 XBig12= 3.08D-01 2.55D-01.
 AX will form     9 AO Fock derivatives at one time.
      9 vectors produced by pass  1 Test12= 1.01D-14 6.67D-09 XBig12= 8.76D-02 1.62D-01.
      9 vectors produced by pass  2 Test12= 1.01D-14 6.67D-09 XBig12= 4.94D-03 4.24D-02.
      9 vectors produced by pass  3 Test12= 1.01D-14 6.67D-09 XBig12= 9.46D-05 3.54D-03.
      9 vectors produced by pass  4 Test12= 1.01D-14 6.67D-09 XBig12= 3.74D-06 8.07D-04.
      9 vectors produced by pass  5 Test12= 1.01D-14 6.67D-09 XBig12= 4.52D-08 8.13D-05.
      9 vectors produced by pass  6 Test12= 1.01D-14 6.67D-09 XBig12= 9.34D-10 8.94D-06.
      9 vectors produced by pass  7 Test12= 1.01D-14 6.67D-09 XBig12= 8.15D-12 1.12D-06.
      5 vectors produced by pass  8 Test12= 1.01D-14 6.67D-09 XBig12= 8.04D-14 7.70D-08.
      1 vectors produced by pass  9 Test12= 1.01D-14 6.67D-09 XBig12= 2.42D-16 9.94D-09.
 InvSVY:  IOpt=1 It=  1 EMax= 8.88D-16
 Solved reduced A of dimension    78 with     9 vectors.
 End of Minotr F.D. properties file   721 does not exist.
 End of Minotr F.D. properties file   722 does not exist.
 End of Minotr F.D. properties file   788 does not exist.
 Leave Link 1002 at Fri May 23 04:46:24 2025, MaxMem=  3758096384 cpu:               8.8 elap:               1.8
 (Enter /apps/easybuild-2022/easybuild/software/Compiler/NVHPC/22.11-CUDA-11.7.0/Gaussian/g16c01-CUDA-11.7.0/g16/l701.exe)
 ... and contract with generalized density number  0.
 Compute integral second derivatives.
 R6Disp: Adding Grimme-D2 dispersion energy 2nd derivatives to the Hessian.
 Leave Link  701 at Fri May 23 04:46:24 2025, MaxMem=  3758096384 cpu:               0.8 elap:               0.2
 (Enter /apps/easybuild-2022/easybuild/software/Compiler/NVHPC/22.11-CUDA-11.7.0/Gaussian/g16c01-CUDA-11.7.0/g16/l702.exe)
 L702 exits ... SP integral derivatives will be done elsewhere.
 Leave Link  702 at Fri May 23 04:46:24 2025, MaxMem=  3758096384 cpu:               0.1 elap:               0.0
 (Enter /apps/easybuild-2022/easybuild/software/Compiler/NVHPC/22.11-CUDA-11.7.0/Gaussian/g16c01-CUDA-11.7.0/g16/l703.exe)
 Integral derivatives from FoFJK, PRISM(SPDF).
 Compute integral second derivatives, UseDBF=F ICtDFT=           0.
 Calling FoFJK, ICntrl=    100127 FMM=F ISym2X=0 I1Cent= 0 IOpClX= 0 NMat=1 NMatS=1 NMatT=0.
 FoFJK:  IHMeth= 1 ICntrl=  100127 DoSepK=T KAlg= 0 I1Cent=           0 FoldK=F
 IRaf=         1 NMat=       1 IRICut=       1 DoRegI=T DoRafI=F ISym2E= 0 IDoP0=0 IntGTp=1.
 FoFCou: FMM=F IPFlag=           0 FMFlag=      100000 FMFlg1=         800
         NFxFlg=           0 DoJE=F BraDBF=F KetDBF=F FulRan=T
         wScrn=  0.000000 ICntrl=    100527 IOpCl=  0 I1Cent=           0 NGrid=           0
         NMat0=    1 NMatS0=      1 NMatT0=    0 NMatD0=    1 NMtDS0=    0 NMtDT0=    0
 Symmetry not used in FoFCou.
 Leave Link  703 at Fri May 23 04:46:28 2025, MaxMem=  3758096384 cpu:              16.5 elap:               4.4
 (Enter /apps/easybuild-2022/easybuild/software/Compiler/NVHPC/22.11-CUDA-11.7.0/Gaussian/g16c01-CUDA-11.7.0/g16/l716.exe)
 Dipole        = 2.03506443D-05-1.63334570D-04-6.70645015D-07
 Polarizability= 0.00000000D+00 0.00000000D+00 0.00000000D+00
                 0.00000000D+00 0.00000000D+00 0.00000000D+00
 -------------------------------------------------------------------
 Center     Atomic                   Forces (Hartrees/Bohr)
 Number     Number              X              Y              Z
 -------------------------------------------------------------------
      1       16          -0.000000195    0.000001154    0.000000484
      2        8          -0.000012576   -0.000000190    0.000002808
      3        8           0.000016456   -0.000000260    0.000002711
      4        8          -0.000003684   -0.000000704   -0.000006003
 -------------------------------------------------------------------
 Cartesian Forces:  Max     0.000016456 RMS     0.000006429
 Force constants in Cartesian coordinates: 
                1             2             3             4             5 
      1  0.261198D+00
      2 -0.283347D+00  0.991212D+00
      3 -0.844728D-01 -0.297729D-01  0.107980D+01
      4 -0.638502D-01  0.501723D-01 -0.520299D-01  0.332150D-01
      5  0.501604D-01 -0.277761D+00  0.267089D+00 -0.619929D-01  0.284272D+00
      6 -0.520344D-01  0.267115D+00 -0.437218D+00  0.539076D-01 -0.289285D+00
      7 -0.801239D-01  0.494843D-01  0.111146D+00  0.168309D-01  0.261194D-02
      8  0.494785D-01 -0.144311D+00 -0.175056D+00 -0.161615D-02  0.138507D-01
      9  0.111135D+00 -0.175072D+00 -0.553074D+00  0.961514D-02 -0.141725D-01
     10 -0.117224D+00  0.183690D+00  0.253566D-01  0.138043D-01  0.922056D-02
     11  0.183708D+00 -0.569140D+00 -0.622607D-01  0.134368D-01 -0.203615D-01
     12  0.253727D-01 -0.622701D-01 -0.895135D-01 -0.114928D-01  0.363685D-01
                6             7             8             9            10 
      6  0.459060D+00
      7 -0.464156D-02  0.507770D-01
      8  0.273420D-01 -0.612446D-01  0.140177D+00
      9 -0.295226D-01 -0.122366D+00  0.188309D+00  0.584215D+00
     10  0.276833D-02  0.125161D-01  0.133823D-01  0.161623D-02  0.909039D-01
     11 -0.517205D-02  0.914840D-02 -0.971648D-02  0.935471D-03 -0.206293D+00
     12  0.768012D-02  0.158613D-01 -0.405957D-01 -0.161879D-02 -0.297411D-01
               11            12 
     11  0.599218D+00
     12  0.664973D-01  0.834522D-01
 FormGI is forming the generalized inverse of G from B-inverse, IUseBI=4.
 Force constants in internal coordinates: 
                1             2             3             4             5 
      1  0.683768D+00
      2  0.750257D-02  0.682600D+00
      3  0.748488D-02  0.749462D-02  0.681224D+00
      4  0.158023D-01  0.159901D-01 -0.325003D-01  0.183976D+00
      5  0.167035D-01 -0.324684D-01  0.164002D-01 -0.920143D-01  0.183937D+00
      6 -0.325058D-01  0.164783D-01  0.161000D-01 -0.919614D-01 -0.919225D-01
      7  0.388097D-03 -0.463646D-04 -0.160621D-03  0.336888D-04 -0.209072D-03
                6             7 
      6  0.183884D+00
      7  0.179626D-03  0.949682D-01
 Leave Link  716 at Fri May 23 04:46:29 2025, MaxMem=  3758096384 cpu:               0.1 elap:               0.1
 (Enter /apps/easybuild-2022/easybuild/software/Compiler/NVHPC/22.11-CUDA-11.7.0/Gaussian/g16c01-CUDA-11.7.0/g16/l103.exe)

 GradGradGradGradGradGradGradGradGradGradGradGradGradGradGradGradGradGrad
 Berny optimization.
 Red2BG is reusing G-inverse.
 Internal  Forces:  Max     0.000001066 RMS     0.000000517
 Search for a local minimum.
 Step number   1 out of a maximum of   20
 All quantities printed in internal units (Hartrees-Bohrs-Radians)
 RMS Force = .51659D-06 SwitMx=.10000D-02 MixMth= 2
 Mixed Optimization -- En-DIIS/RFO-DIIS
 Second derivative matrix not updated -- analytic derivatives used.
 The second derivative matrix:
                          R1        R2        R3        A1        A2
           R1           0.68377
           R2           0.00750   0.68260
           R3           0.00748   0.00749   0.68122
           A1           0.01580   0.01599  -0.03250   0.18398
           A2           0.01670  -0.03247   0.01640  -0.09201   0.18394
           A3          -0.03251   0.01648   0.01610  -0.09196  -0.09192
           D1           0.00039  -0.00005  -0.00016   0.00003  -0.00021
                          A3        D1
           A3           0.18388
           D1           0.00018   0.09497
 ITU=  0
     Eigenvalues ---    0.09497   0.26990   0.27017   0.68009   0.68165
     Eigenvalues ---    0.69758
 RFO step:  Lambda= 0.00000000D+00 EMin= 9.49673425D-02
 Linear search not attempted -- first point.
 Iteration  1 RMS(Cart)=  0.00000083 RMS(Int)=  0.00000000
 ITry= 1 IFail=0 DXMaxC= 1.05D-06 DCOld= 1.00D+10 DXMaxT= 3.00D-01 DXLimC= 3.00D+00 Rises=F
 Variable       Old X    -DE/DX   Delta X   Delta X   Delta X     New X
                                 (Linear)    (Quad)   (Total)
    R1        2.70748   0.00000   0.00000   0.00000   0.00000   2.70748
    R2        2.70749   0.00000   0.00000   0.00000   0.00000   2.70750
    R3        2.70762  -0.00000   0.00000  -0.00000  -0.00000   2.70762
    A1        2.09443  -0.00000   0.00000  -0.00000  -0.00000   2.09443
    A2        2.09438   0.00000   0.00000   0.00000   0.00000   2.09438
    A3        2.09437  -0.00000   0.00000  -0.00000  -0.00000   2.09437
    D1        3.14154   0.00000   0.00000   0.00000   0.00000   3.14154
         Item               Value     Threshold  Converged?
 Maximum Force            0.000001     0.000015     YES
 RMS     Force            0.000001     0.000010     YES
 Maximum Displacement     0.000001     0.000060     YES
 RMS     Displacement     0.000001     0.000040     YES
 Predicted change in Energy=-1.596782D-12
 Optimization completed.
    -- Stationary point found.
                           ----------------------------
                           !   Optimized Parameters   !
                           ! (Angstroms and Degrees)  !
 --------------------------                            --------------------------
 ! Name  Definition              Value          Derivative Info.                !
 --------------------------------------------------------------------------------
 ! R1    R(1,2)                  1.4327         -DE/DX =    0.0                 !
 ! R2    R(1,3)                  1.4327         -DE/DX =    0.0                 !
 ! R3    R(1,4)                  1.4328         -DE/DX =    0.0                 !
 ! A1    A(2,1,3)              120.002          -DE/DX =    0.0                 !
 ! A2    A(2,1,4)              119.9992         -DE/DX =    0.0                 !
 ! A3    A(3,1,4)              119.9988         -DE/DX =    0.0                 !
 ! D1    D(2,1,4,3)            179.997          -DE/DX =    0.0                 !
 --------------------------------------------------------------------------------
 Lowest energy point so far.  Saving SCF results.
 Largest change from initial coordinates is atom    0       0.000 Angstoms.
 GradGradGradGradGradGradGradGradGradGradGradGradGradGradGradGradGradGrad

 Leave Link  103 at Fri May 23 04:46:29 2025, MaxMem=  3758096384 cpu:               0.1 elap:               0.0
 (Enter /apps/easybuild-2022/easybuild/software/Compiler/NVHPC/22.11-CUDA-11.7.0/Gaussian/g16c01-CUDA-11.7.0/g16/l202.exe)
                          Input orientation:                          
 ---------------------------------------------------------------------
 Center     Atomic      Atomic             Coordinates (Angstroms)
 Number     Number       Type             X           Y           Z
 ---------------------------------------------------------------------
      1         16           0        2.513140   -0.222698   -0.531055
      2          8           0        2.689301   -1.073242    0.608363
      3          8           0        2.814446   -0.711809   -1.843587
      4          8           0        2.035696    1.117086   -0.357934
 ---------------------------------------------------------------------
                    Distance matrix (angstroms):
                    1          2          3          4
     1  S    0.000000
     2  O    1.432736   0.000000
     3  O    1.432744   2.481603   0.000000
     4  O    1.432810   2.481626   2.481627   0.000000
 Symmetry turned off by external request.
 Stoichiometry    O3S
 Rotational constants (GHZ):          10.2612586          10.2610009           5.1305649
 Leave Link  202 at Fri May 23 04:46:29 2025, MaxMem=  3758096384 cpu:               0.1 elap:               0.0
 (Enter /apps/easybuild-2022/easybuild/software/Compiler/NVHPC/22.11-CUDA-11.7.0/Gaussian/g16c01-CUDA-11.7.0/g16/l9999.exe)
 Unable to Open any file for archive entry.
 1\1\GINC-SPARTAN-BM177\FOpt\RwB97XD\6-311++G(d,p)\O3S1\AKHALILOV\23-Ma
 y-2025\0\\#P wb97xd/6-311++G(d,p) Symm(None) scf(xqc) pop(None) freq o
 pt(CalcFC, Tight)\\Gaussian input prepared by ASE\\0,1\S,2.51314,-0.22
 2698,-0.531055\O,2.689301,-1.073242,0.608363\O,2.814446,-0.711809,-1.8
 43587\O,2.035696,1.117086,-0.357934\\Version=ES64L-G16RevC.01\HF=-623.
 7609326\RMSD=3.187e-09\RMSF=6.429e-06\Dipole=0.0000204,-0.0001633,-0.0
 000007\Polar=0.,0.,0.,0.,0.,0.\PG=Unknown\\@
 The archive entry for this job was punched.


 IT WAS A GAME, A VERY INTERESTING GAME ONE COULD
 PLAY.  WHENEVER ONE SOLVED ONE OF THE LITTLE PROBLEMS,
 ONE COULD WRITE A PAPER ABOUT IT.  IT WAS VERY EASY IN
 THOSE DAYS FOR ANY SECOND-RATE PHYSICIST TO DO
 FIRST-RATE WORK.  THERE HAS NOT BEEN SUCH A GLORIOUS
 TIME SINCE.  IT IS VERY DIFFICULT NOW FOR A FIRST-RATE
 PHYSICIST TO DO SECOND-RATE WORK.
     P.A.M. DIRAC, ON THE EARLY DAYS OF QUANTUM MECHANICS
                   DIRECTIONS IN PHYSICS, 1978, P. 7
 Leave Link 9999 at Fri May 23 04:46:29 2025, MaxMem=  3758096384 cpu:               0.1 elap:               0.0
 Job cpu time:       0 days  0 hours  0 minutes 41.3 seconds.
 Elapsed time:       0 days  0 hours  0 minutes 11.4 seconds.
 File lengths (MBytes):  RWF=     10 Int=      0 D2E=      0 Chk=      2 Scr=      1
 Normal termination of Gaussian 16 at Fri May 23 04:46:29 2025.
 (Enter /apps/easybuild-2022/easybuild/software/Compiler/NVHPC/22.11-CUDA-11.7.0/Gaussian/g16c01-CUDA-11.7.0/g16/l1.exe)
 Link1:  Proceeding to internal job step number  2.
 ----------------------------------------------------------------------
 #P Geom=AllCheck Guess=TCheck SCRF=Check GenChk RwB97XD/6-311++G(d,p) 
 Freq
 ----------------------------------------------------------------------
 1/7=10,10=4,29=7,30=1,38=1,40=1/1,3;
 2/12=2,15=3,40=1/2;
 3/5=4,6=6,7=1111,11=2,14=-4,25=1,30=1,70=2,71=2,74=-58,116=1,140=1/1,2,3;
 4/5=101/1;
 5/5=2,8=3,13=1,38=6,98=1/2,8;
 8/6=4,10=90,11=11/1;
 11/6=1,8=1,9=11,15=111,16=1,31=1/1,2,10;
 10/6=1,31=1/2;
 7/8=1,10=1,25=1,30=1/1,2,3,16;
 1/7=10,10=4,30=1/3;
 99//99;
 Leave Link    1 at Fri May 23 04:46:29 2025, MaxMem=  3758096384 cpu:               0.0 elap:               0.0
 (Enter /apps/easybuild-2022/easybuild/software/Compiler/NVHPC/22.11-CUDA-11.7.0/Gaussian/g16c01-CUDA-11.7.0/g16/l101.exe)
 Structure from the checkpoint file:  "/tmp/Gau-246980.chk"
 ------------------------------
 Gaussian input prepared by ASE
 ------------------------------
 Charge =  0 Multiplicity = 1
 Redundant internal coordinates found in file.  (old form).
 S,0,2.51314,-0.222698,-0.531055
 O,0,2.689301,-1.073242,0.608363
 O,0,2.814446,-0.711809,-1.843587
 O,0,2.035696,1.117086,-0.357934
 Recover connectivity data from disk.
 ITRead=  0  0  0  0
 MicOpt= -1 -1 -1 -1
 NAtoms=      4 NQM=        4 NQMF=       0 NMMI=      0 NMMIF=      0
                NMic=       0 NMicF=      0.
                    Isotopes and Nuclear Properties:
 (Nuclear quadrupole moments (NQMom) in fm**2, nuclear magnetic moments (NMagM)
  in nuclear magnetons)

  Atom         1           2           3           4
 IAtWgt=          32          16          16          16
 AtmWgt=  31.9720718  15.9949146  15.9949146  15.9949146
 NucSpn=           0           0           0           0
 AtZEff=  13.6000000   5.6000000   5.6000000   5.6000000
 NQMom=    0.0000000   0.0000000   0.0000000   0.0000000
 NMagM=    0.0000000   0.0000000   0.0000000   0.0000000
 AtZNuc=  16.0000000   8.0000000   8.0000000   8.0000000
 Leave Link  101 at Fri May 23 04:46:29 2025, MaxMem=  3758096384 cpu:               0.3 elap:               0.2
 (Enter /apps/easybuild-2022/easybuild/software/Compiler/NVHPC/22.11-CUDA-11.7.0/Gaussian/g16c01-CUDA-11.7.0/g16/l103.exe)

 GradGradGradGradGradGradGradGradGradGradGradGradGradGradGradGradGradGrad
 Berny optimization.
 Initialization pass.
                           ----------------------------
                           !    Initial Parameters    !
                           ! (Angstroms and Degrees)  !
 --------------------------                            --------------------------
 ! Name  Definition              Value          Derivative Info.                !
 --------------------------------------------------------------------------------
 ! R1    R(1,2)                  1.4327         calculate D2E/DX2 analytically  !
 ! R2    R(1,3)                  1.4327         calculate D2E/DX2 analytically  !
 ! R3    R(1,4)                  1.4328         calculate D2E/DX2 analytically  !
 ! A1    A(2,1,3)              120.002          calculate D2E/DX2 analytically  !
 ! A2    A(2,1,4)              119.9992         calculate D2E/DX2 analytically  !
 ! A3    A(3,1,4)              119.9988         calculate D2E/DX2 analytically  !
 ! D1    D(2,1,4,3)            179.997          calculate D2E/DX2 analytically  !
 --------------------------------------------------------------------------------
 Trust Radius=3.00D-01 FncErr=1.00D-07 GrdErr=1.00D-07 EigMax=2.50D+02 EigMin=1.00D-04
 Number of steps in this run=      2 maximum allowed number of steps=      2.
 GradGradGradGradGradGradGradGradGradGradGradGradGradGradGradGradGradGrad

 Leave Link  103 at Fri May 23 04:46:29 2025, MaxMem=  3758096384 cpu:               0.1 elap:               0.0
 (Enter /apps/easybuild-2022/easybuild/software/Compiler/NVHPC/22.11-CUDA-11.7.0/Gaussian/g16c01-CUDA-11.7.0/g16/l202.exe)
                          Input orientation:                          
 ---------------------------------------------------------------------
 Center     Atomic      Atomic             Coordinates (Angstroms)
 Number     Number       Type             X           Y           Z
 ---------------------------------------------------------------------
      1         16           0        2.513140   -0.222698   -0.531055
      2          8           0        2.689301   -1.073242    0.608363
      3          8           0        2.814446   -0.711809   -1.843587
      4          8           0        2.035696    1.117086   -0.357934
 ---------------------------------------------------------------------
                    Distance matrix (angstroms):
                    1          2          3          4
     1  S    0.000000
     2  O    1.432736   0.000000
     3  O    1.432744   2.481603   0.000000
     4  O    1.432810   2.481626   2.481627   0.000000
 Symmetry turned off by external request.
 Stoichiometry    O3S
 Rotational constants (GHZ):          10.2612586          10.2610009           5.1305649
 Leave Link  202 at Fri May 23 04:46:29 2025, MaxMem=  3758096384 cpu:               0.1 elap:               0.0
 (Enter /apps/easybuild-2022/easybuild/software/Compiler/NVHPC/22.11-CUDA-11.7.0/Gaussian/g16c01-CUDA-11.7.0/g16/l301.exe)
 Standard basis: 6-311++G(d,p) (5D, 7F)
 Ernie: Thresh=  0.10000D-02 Tol=  0.10000D-05 Strict=F.
    96 basis functions,   158 primitive gaussians,   100 cartesian basis functions
    20 alpha electrons       20 beta electrons
       nuclear repulsion energy       182.7685176937 Hartrees.
 IExCor= 4639 DFT=T Ex+Corr=wB97XD ExCW=0 ScaHFX=  1.000000
 ScaDFX=  1.000000  1.000000  1.000000  1.000000 ScalE2=  1.000000  1.000000
 IRadAn=      5 IRanWt=     -1 IRanGd=            0 ICorTp=0 IEmpDi=121
 HFx  wShort=  0.000000 wLong=  0.200000 cFull=  0.222036 cShort=  0.000000 cLong=  0.777964
 DFx  wShort=  0.000000 wLong=  0.200000 cFull=  0.000000 cShort=  0.000000 cLong=  1.000000
 NAtoms=    4 NActive=    4 NUniq=    4 SFac= 1.00D+00 NAtFMM=   60 NAOKFM=F Big=F
 Integral buffers will be    131072 words long.
 Raffenetti 2 integral format.
 Two-electron integral symmetry is turned off.
 R6Disp:  Grimme-D2 Dispersion energy=       -0.0002147131 Hartrees.
 Nuclear repulsion after empirical dispersion term =      182.7683029807 Hartrees.
 Leave Link  301 at Fri May 23 04:46:29 2025, MaxMem=  3758096384 cpu:               0.1 elap:               0.0
 (Enter /apps/easybuild-2022/easybuild/software/Compiler/NVHPC/22.11-CUDA-11.7.0/Gaussian/g16c01-CUDA-11.7.0/g16/l302.exe)
 NPDir=0 NMtPBC=     1 NCelOv=     1 NCel=       1 NClECP=     1 NCelD=      1
         NCelK=      1 NCelE2=     1 NClLst=     1 CellRange=     0.0.
 One-electron integrals computed using PRISM.
 NBasis=    96 RedAO= T EigKep=  5.16D-04  NBF=    96
 NBsUse=    96 1.00D-06 EigRej= -1.00D+00 NBFU=    96
 Precomputing XC quadrature grid using
 IXCGrd= 4 IRadAn=           5 IRanWt=          -1 IRanGd=           0 AccXCQ= 0.00D+00.
 Generated NRdTot=       0 NPtTot=           0 NUsed=           0 NTot=          32
 NSgBfM=   100   100   100   100   100 MxSgAt=     4 MxSgA2=     4.
 Leave Link  302 at Fri May 23 04:46:29 2025, MaxMem=  3758096384 cpu:               0.4 elap:               0.1
 (Enter /apps/easybuild-2022/easybuild/software/Compiler/NVHPC/22.11-CUDA-11.7.0/Gaussian/g16c01-CUDA-11.7.0/g16/l303.exe)
 DipDrv:  MaxL=1.
 Leave Link  303 at Fri May 23 04:46:29 2025, MaxMem=  3758096384 cpu:               0.1 elap:               0.0
 (Enter /apps/easybuild-2022/easybuild/software/Compiler/NVHPC/22.11-CUDA-11.7.0/Gaussian/g16c01-CUDA-11.7.0/g16/l401.exe)
 Initial guess from the checkpoint file:  "/tmp/Gau-246980.chk"
 B after Tr=     0.000000    0.000000    0.000000
         Rot=    1.000000    0.000000    0.000000    0.000000 Ang=   0.00 deg.
 Guess basis will be translated and rotated to current coordinates.
 JPrj=2 DoOrth=T DoCkMO=T.
 Leave Link  401 at Fri May 23 04:46:29 2025, MaxMem=  3758096384 cpu:               0.2 elap:               0.1
 (Enter /apps/easybuild-2022/easybuild/software/Compiler/NVHPC/22.11-CUDA-11.7.0/Gaussian/g16c01-CUDA-11.7.0/g16/l502.exe)
 Keep R1 ints in memory in canonical form, NReq=29551214.
 FoFCou: FMM=F IPFlag=           0 FMFlag=           0 FMFlg1=           0
         NFxFlg=           0 DoJE=F BraDBF=F KetDBF=F FulRan=T
         wScrn=  0.000000 ICntrl=       600 IOpCl=  0 I1Cent=           0 NGrid=           0
         NMat0=    1 NMatS0=   4656 NMatT0=    0 NMatD0=    1 NMtDS0=    0 NMtDT0=    0
 Symmetry not used in FoFCou.
 Two-electron integral symmetry not used.
 Closed shell SCF:
 Using DIIS extrapolation, IDIIS=  1040.
 NGot=  3758096384 LenX=  3736391718 LenY=  3736381277
 Requested convergence on RMS density matrix=1.00D-08 within  32 cycles.
 Requested convergence on MAX density matrix=1.00D-06.
 Requested convergence on             energy=1.00D-06.
 No special actions if energy rises.

 Cycle   1  Pass 1  IDiag  1:
 E= -623.760932643799    
 DIIS: error= 1.62D-09 at cycle   1 NSaved=   1.
 NSaved= 1 IEnMin= 1 EnMin= -623.760932643799     IErMin= 1 ErrMin= 1.62D-09
 ErrMax= 1.62D-09  0.00D+00 EMaxC= 1.00D-01 BMatC= 2.56D-16 BMatP= 2.56D-16
 IDIUse=1 WtCom= 1.00D+00 WtEn= 0.00D+00
 Coeff-Com:  0.100D+01
 Coeff:      0.100D+01
 Gap=     0.401 Goal=   None    Shift=    0.000
 RMSDP=5.95D-10 MaxDP=9.18D-09              OVMax= 1.14D-08

 SCF Done:  E(RwB97XD) =  -623.760932644     A.U. after    1 cycles
            NFock=  1  Conv=0.60D-09     -V/T= 2.0015
 KE= 6.228083663023D+02 PE=-1.843629423610D+03 EE= 4.142918216830D+02
 Leave Link  502 at Fri May 23 04:46:30 2025, MaxMem=  3758096384 cpu:               1.9 elap:               0.4
 (Enter /apps/easybuild-2022/easybuild/software/Compiler/NVHPC/22.11-CUDA-11.7.0/Gaussian/g16c01-CUDA-11.7.0/g16/l508.exe)
 QCSCF skips out because SCF is already converged.
 Leave Link  508 at Fri May 23 04:46:30 2025, MaxMem=  3758096384 cpu:               0.0 elap:               0.0
 (Enter /apps/easybuild-2022/easybuild/software/Compiler/NVHPC/22.11-CUDA-11.7.0/Gaussian/g16c01-CUDA-11.7.0/g16/l801.exe)
 DoSCS=F DFT=T ScalE2(SS,OS)=  1.000000  1.000000
 Range of M.O.s used for correlation:     1    96
 NBasis=    96 NAE=    20 NBE=    20 NFC=     0 NFV=     0
 NROrb=     96 NOA=    20 NOB=    20 NVA=    76 NVB=    76

 **** Warning!!: The largest alpha MO coefficient is  0.24000031D+02

 Leave Link  801 at Fri May 23 04:46:30 2025, MaxMem=  3758096384 cpu:               0.1 elap:               0.0
 (Enter /apps/easybuild-2022/easybuild/software/Compiler/NVHPC/22.11-CUDA-11.7.0/Gaussian/g16c01-CUDA-11.7.0/g16/l1101.exe)
 Using compressed storage, NAtomX=     4.
 Will process      5 centers per pass.
 R6Disp: Adding Grimme-D2 dispersion energy 1st derivatives to the gradient.
 Leave Link 1101 at Fri May 23 04:46:30 2025, MaxMem=  3758096384 cpu:               0.8 elap:               0.2
 (Enter /apps/easybuild-2022/easybuild/software/Compiler/NVHPC/22.11-CUDA-11.7.0/Gaussian/g16c01-CUDA-11.7.0/g16/l1102.exe)
 Symmetrizing basis deriv contribution to polar:
 IMax=3 JMax=2 DiffMx= 0.00D+00
 Leave Link 1102 at Fri May 23 04:46:30 2025, MaxMem=  3758096384 cpu:               0.1 elap:               0.0
 (Enter /apps/easybuild-2022/easybuild/software/Compiler/NVHPC/22.11-CUDA-11.7.0/Gaussian/g16c01-CUDA-11.7.0/g16/l1110.exe)
 Forming Gx(P) for the SCF density, NAtomX=     4.
 Integral derivatives from FoFJK, PRISM(SPDF).
 Do as many integral derivatives as possible in FoFJK.
 G2DrvN: MDV=    3758095844.
 G2DrvN: will do     5 centers at a time, making    1 passes.
 Calling FoFCou, ICntrl=  3107 FMM=F I1Cent=   0 AccDes= 0.00D+00.
 FoFJK:  IHMeth= 1 ICntrl=    3107 DoSepK=T KAlg= 0 I1Cent=           0 FoldK=F
 IRaf=         1 NMat=       1 IRICut=       1 DoRegI=T DoRafI=F ISym2E= 0 IDoP0=0 IntGTp=1.
 FoFCou: FMM=F IPFlag=           0 FMFlag=      100000 FMFlg1=           0
         NFxFlg=           0 DoJE=F BraDBF=F KetDBF=F FulRan=T
         wScrn=  0.000000 ICntrl=      3507 IOpCl=  0 I1Cent=           0 NGrid=           0
         NMat0=    1 NMatS0=      1 NMatT0=    0 NMatD0=    1 NMtDS0=    0 NMtDT0=    0
 Symmetry not used in FoFCou.
 End of G2Drv F.D. properties file   721 does not exist.
 End of G2Drv F.D. properties file   722 does not exist.
 End of G2Drv F.D. properties file   788 does not exist.
 Leave Link 1110 at Fri May 23 04:46:31 2025, MaxMem=  3758096384 cpu:               5.9 elap:               1.1
 (Enter /apps/easybuild-2022/easybuild/software/Compiler/NVHPC/22.11-CUDA-11.7.0/Gaussian/g16c01-CUDA-11.7.0/g16/l1002.exe)
 Minotr:  Closed shell wavefunction.
          IDoAtm=1111
          Direct CPHF calculation.
          Differentiating once with respect to electric field.
                with respect to dipole field.
          Differentiating once with respect to nuclear coordinates.
          Requested convergence is 1.0D-08 RMS, and 1.0D-07 maximum.
          Secondary convergence is 1.0D-12 RMS, and 1.0D-12 maximum.
          NewPWx=T KeepS1=F KeepF1=F KeepIn=T MapXYZ=F SortEE=F KeepMc=T.
         1228 words used for storage of precomputed grid.
 Keep R1 ints in memory in canonical form, NReq=29527124.
 FoFCou: FMM=F IPFlag=           0 FMFlag=           0 FMFlg1=           0
         NFxFlg=           0 DoJE=F BraDBF=F KetDBF=F FulRan=T
         wScrn=  0.000000 ICntrl=       600 IOpCl=  0 I1Cent=           0 NGrid=           0
         NMat0=    1 NMatS0=   4656 NMatT0=    0 NMatD0=    1 NMtDS0=    0 NMtDT0=    0
 Symmetry not used in FoFCou.
 Two-electron integral symmetry not used.
          MDV=    3758096384 using IRadAn=       1.
          Solving linear equations simultaneously, MaxMat=       0.
          There are    15 degrees of freedom in the 1st order CPHF.  IDoFFX=6 NUNeed=     3.
     12 vectors produced by pass  0 Test12= 1.01D-14 6.67D-09 XBig12= 1.59D+01 2.69D+00.
 AX will form    12 AO Fock derivatives at one time.
     12 vectors produced by pass  1 Test12= 1.01D-14 6.67D-09 XBig12= 4.59D+00 5.97D-01.
     12 vectors produced by pass  2 Test12= 1.01D-14 6.67D-09 XBig12= 9.18D-02 1.12D-01.
     12 vectors produced by pass  3 Test12= 1.01D-14 6.67D-09 XBig12= 1.34D-03 1.30D-02.
     12 vectors produced by pass  4 Test12= 1.01D-14 6.67D-09 XBig12= 6.60D-06 5.96D-04.
     12 vectors produced by pass  5 Test12= 1.01D-14 6.67D-09 XBig12= 3.88D-08 6.53D-05.
     12 vectors produced by pass  6 Test12= 1.01D-14 6.67D-09 XBig12= 1.91D-10 3.91D-06.
     10 vectors produced by pass  7 Test12= 1.01D-14 6.67D-09 XBig12= 1.83D-12 7.59D-07.
      4 vectors produced by pass  8 Test12= 1.01D-14 6.67D-09 XBig12= 4.20D-14 9.26D-08.
 InvSVY:  IOpt=1 It=  1 EMax= 1.22D-15
 Solved reduced A of dimension    98 with    12 vectors.
 FullF1:  Do perturbations      1 to       3.
 Isotropic polarizability for W=    0.000000       25.40 Bohr**3.
 End of Minotr F.D. properties file   721 does not exist.
 End of Minotr F.D. properties file   722 does not exist.
 End of Minotr F.D. properties file   788 does not exist.
 Leave Link 1002 at Fri May 23 04:46:33 2025, MaxMem=  3758096384 cpu:              10.0 elap:               1.6
 (Enter /apps/easybuild-2022/easybuild/software/Compiler/NVHPC/22.11-CUDA-11.7.0/Gaussian/g16c01-CUDA-11.7.0/g16/l701.exe)
 ... and contract with generalized density number  0.
 Compute integral second derivatives.
 R6Disp: Adding Grimme-D2 dispersion energy 2nd derivatives to the Hessian.
 Leave Link  701 at Fri May 23 04:46:33 2025, MaxMem=  3758096384 cpu:               0.5 elap:               0.5
 (Enter /apps/easybuild-2022/easybuild/software/Compiler/NVHPC/22.11-CUDA-11.7.0/Gaussian/g16c01-CUDA-11.7.0/g16/l702.exe)
 L702 exits ... SP integral derivatives will be done elsewhere.
 Leave Link  702 at Fri May 23 04:46:33 2025, MaxMem=  3758096384 cpu:               0.1 elap:               0.1
 (Enter /apps/easybuild-2022/easybuild/software/Compiler/NVHPC/22.11-CUDA-11.7.0/Gaussian/g16c01-CUDA-11.7.0/g16/l703.exe)
 Integral derivatives from FoFJK, PRISM(SPDF).
 Compute integral second derivatives, UseDBF=F ICtDFT=           0.
 Calling FoFJK, ICntrl=    100127 FMM=F ISym2X=0 I1Cent= 0 IOpClX= 0 NMat=1 NMatS=1 NMatT=0.
 FoFJK:  IHMeth= 1 ICntrl=  100127 DoSepK=T KAlg= 0 I1Cent=           0 FoldK=F
 IRaf=         1 NMat=       1 IRICut=       1 DoRegI=T DoRafI=F ISym2E= 0 IDoP0=0 IntGTp=1.
 FoFCou: FMM=F IPFlag=           0 FMFlag=      100000 FMFlg1=         800
         NFxFlg=           0 DoJE=F BraDBF=F KetDBF=F FulRan=T
         wScrn=  0.000000 ICntrl=    100527 IOpCl=  0 I1Cent=           0 NGrid=           0
         NMat0=    1 NMatS0=      1 NMatT0=    0 NMatD0=    1 NMtDS0=    0 NMtDT0=    0
 Symmetry not used in FoFCou.
 Leave Link  703 at Fri May 23 04:46:39 2025, MaxMem=  3758096384 cpu:              16.8 elap:               5.3
 (Enter /apps/easybuild-2022/easybuild/software/Compiler/NVHPC/22.11-CUDA-11.7.0/Gaussian/g16c01-CUDA-11.7.0/g16/l716.exe)
 Dipole        = 2.03578550D-05-1.63338060D-04-7.33028045D-07
 Polarizability= 1.71886736D+01-4.51541601D+00 2.87944138D+01
                -1.33646643D+00-4.59131726D-01 3.02065340D+01
 Full mass-weighted force constant matrix:
 Low frequencies ---  -18.1553    0.0015    0.0033    0.0040   12.2949   16.9157
 Low frequencies ---  462.6881  514.9926  515.1243
 Diagonal vibrational polarizability:
        5.5837410       6.7097944       6.8640007
 Harmonic frequencies (cm**-1), IR intensities (KM/Mole), Raman scattering
 activities (A**4/AMU), depolarization ratios for plane and unpolarized
 incident light, reduced masses (AMU), force constants (mDyne/A),
 and normal coordinates:
                      1                      2                      3
                      A                      A                      A
 Frequencies --    462.6876               514.9925               515.1240
 Red. masses --     22.8462                17.3575                17.3562
 Frc consts  --      2.8816                 2.7123                 2.7135
 IR Inten    --     43.1055                34.2310                34.1907
  Atom  AN      X      Y      Z        X      Y      Z        X      Y      Z
     1  16     0.62   0.21   0.07    -0.03   0.16  -0.24     0.10  -0.22  -0.16
     2   8    -0.41  -0.14  -0.04    -0.05   0.21  -0.24    -0.22   0.51   0.44
     3   8    -0.41  -0.14  -0.04     0.19  -0.59   0.07    -0.05   0.24  -0.40
     4   8    -0.41  -0.14  -0.05    -0.08   0.05   0.64     0.08  -0.32   0.29
                      4                      5                      6
                      A                      A                      A
 Frequencies --   1073.4697              1390.7653              1392.0324
 Red. masses --     15.9949                20.5456                20.5428
 Frc consts  --     10.8596                23.4141                23.4535
 IR Inten    --      0.0020               244.5160               244.5296
  Atom  AN      X      Y      Z        X      Y      Z        X      Y      Z
     1  16     0.00  -0.00   0.00    -0.18   0.44   0.25     0.04  -0.26   0.47
     2   8     0.07  -0.34   0.46     0.02  -0.08   0.07    -0.08   0.40  -0.55
     3   8     0.12  -0.20  -0.53     0.12  -0.20  -0.49     0.09  -0.13  -0.40
     4   8    -0.19   0.54   0.07     0.21  -0.60  -0.08    -0.08   0.24   0.01

 -------------------
 - Thermochemistry -
 -------------------
 Temperature   298.150 Kelvin.  Pressure   1.00000 Atm.
 Atom     1 has atomic number 16 and mass  31.97207
 Atom     2 has atomic number  8 and mass  15.99491
 Atom     3 has atomic number  8 and mass  15.99491
 Atom     4 has atomic number  8 and mass  15.99491
 Molecular mass:    79.95682 amu.
 Principal axes and moments of inertia in atomic units:
                           1         2         3
     Eigenvalues --   175.87913 175.88354 351.76267
           X           -0.33447  -0.04147   0.94149
           Y            0.93083  -0.17067   0.32316
           Z            0.14729   0.98445   0.09569
 This molecule is an asymmetric top.
 Rotational symmetry number  1.
 Rotational temperatures (Kelvin)      0.49246     0.49245     0.24623
 Rotational constants (GHZ):          10.26126    10.26100     5.13056
 Zero-point vibrational energy      31994.6 (Joules/Mol)
                                    7.64688 (Kcal/Mol)
 Warning -- explicit consideration of   3 degrees of freedom as
           vibrations may cause significant error
 Vibrational temperatures:    665.70   740.96   741.15  1544.48  2001.00
          (Kelvin)           2002.82
 
 Zero-point correction=                           0.012186 (Hartree/Particle)
 Thermal correction to Energy=                    0.015741
 Thermal correction to Enthalpy=                  0.016686
 Thermal correction to Gibbs Free Energy=        -0.014227
 Sum of electronic and zero-point Energies=           -623.748747
 Sum of electronic and thermal Energies=              -623.745191
 Sum of electronic and thermal Enthalpies=            -623.744247
 Sum of electronic and thermal Free Energies=         -623.775160
 
                     E (Thermal)             CV                S
                      KCal/Mol        Cal/Mol-Kelvin    Cal/Mol-Kelvin
 Total                    9.878             10.249             65.061
 Electronic               0.000              0.000              0.000
 Translational            0.889              2.981             39.051
 Rotational               0.889              2.981             23.902
 Vibrational              8.100              4.287              2.108
 Vibration     1          0.820              1.333              0.758
 Vibration     2          0.870              1.217              0.622
 Vibration     3          0.870              1.216              0.621
                       Q            Log10(Q)             Ln(Q)
 Total Bot       0.349960D+07          6.544019         15.068160
 Total V=0       0.141001D+13         12.149222         27.974618
 Vib (Bot)       0.333497D-05         -5.476909        -12.611048
 Vib (Bot)    1  0.366790D+00         -0.435582         -1.002966
 Vib (Bot)    2  0.314866D+00         -0.501875         -1.155609
 Vib (Bot)    3  0.314748D+00         -0.502038         -1.155984
 Vib (V=0)       0.134368D+01          0.128295          0.295410
 Vib (V=0)    1  0.112011D+01          0.049260          0.113426
 Vib (V=0)    2  0.109088D+01          0.037777          0.086986
 Vib (V=0)    3  0.109082D+01          0.037752          0.086928
 Electronic      0.100000D+01          0.000000          0.000000
 Translational   0.281020D+08          7.448737         17.151351
 Rotational      0.373414D+05          4.572190         10.527857
 
                                                    Gaussian input prepared by AS
 E
                                                             IR Spectrum
 
     11                            1                                                                                                 
     33                            0                                                  5   4                                          
     99                            7                                                  1   6                                          
     21                            3                                                  5   3                                          
 
     XX                                                                               X   X                                          
     XX                                                                               X   X                                          
     XX                                                                               X   X                                          
     XX                                                                               X   X                                          
     XX                                                                               X                                              
     XX                                                                               X                                              
     XX                                                                                                                              
     XX                                                                                                                              
     XX                                                                                                                              
     XX                                                                                                                              
     XX                                                                                                                              
     XX                                                                                                                              
     XX                                                                                                                              
     XX                                                                                                                              
     XX                                                                                                                              
     XX                                                                                                                              
     XX                                                                                                                              
     XX                                                                                                                              
     XX                                                                                                                              
     XX                                                                                                                              
 
 -------------------------------------------------------------------
 Center     Atomic                   Forces (Hartrees/Bohr)
 Number     Number              X              Y              Z
 -------------------------------------------------------------------
      1       16          -0.000000194    0.000001153    0.000000474
      2        8          -0.000012577   -0.000000189    0.000002809
      3        8           0.000016454   -0.000000258    0.000002718
      4        8          -0.000003684   -0.000000707   -0.000006001
 -------------------------------------------------------------------
 Cartesian Forces:  Max     0.000016454 RMS     0.000006429
 Force constants in Cartesian coordinates: 
                1             2             3             4             5 
      1  0.261198D+00
      2 -0.283347D+00  0.991212D+00
      3 -0.844728D-01 -0.297729D-01  0.107980D+01
      4 -0.638502D-01  0.501723D-01 -0.520299D-01  0.332150D-01
      5  0.501604D-01 -0.277761D+00  0.267089D+00 -0.619929D-01  0.284272D+00
      6 -0.520344D-01  0.267115D+00 -0.437218D+00  0.539076D-01 -0.289285D+00
      7 -0.801239D-01  0.494843D-01  0.111146D+00  0.168309D-01  0.261194D-02
      8  0.494785D-01 -0.144311D+00 -0.175056D+00 -0.161615D-02  0.138507D-01
      9  0.111135D+00 -0.175072D+00 -0.553074D+00  0.961514D-02 -0.141725D-01
     10 -0.117224D+00  0.183690D+00  0.253566D-01  0.138043D-01  0.922056D-02
     11  0.183708D+00 -0.569140D+00 -0.622607D-01  0.134368D-01 -0.203615D-01
     12  0.253727D-01 -0.622701D-01 -0.895135D-01 -0.114928D-01  0.363685D-01
                6             7             8             9            10 
      6  0.459060D+00
      7 -0.464156D-02  0.507770D-01
      8  0.273420D-01 -0.612446D-01  0.140177D+00
      9 -0.295226D-01 -0.122366D+00  0.188309D+00  0.584215D+00
     10  0.276833D-02  0.125161D-01  0.133823D-01  0.161623D-02  0.909039D-01
     11 -0.517204D-02  0.914840D-02 -0.971648D-02  0.935466D-03 -0.206293D+00
     12  0.768012D-02  0.158613D-01 -0.405957D-01 -0.161879D-02 -0.297411D-01
               11            12 
     11  0.599218D+00
     12  0.664973D-01  0.834522D-01
 FormGI is forming the generalized inverse of G from B-inverse, IUseBI=4.
 Force constants in internal coordinates: 
                1             2             3             4             5 
      1  0.683768D+00
      2  0.750257D-02  0.682600D+00
      3  0.748488D-02  0.749462D-02  0.681224D+00
      4  0.158023D-01  0.159901D-01 -0.325003D-01  0.183976D+00
      5  0.167035D-01 -0.324684D-01  0.164002D-01 -0.920143D-01  0.183937D+00
      6 -0.325058D-01  0.164783D-01  0.161000D-01 -0.919614D-01 -0.919225D-01
      7  0.388098D-03 -0.463637D-04 -0.160620D-03  0.336888D-04 -0.209072D-03
                6             7 
      6  0.183884D+00
      7  0.179627D-03  0.949682D-01
 Leave Link  716 at Fri May 23 04:46:39 2025, MaxMem=  3758096384 cpu:               0.1 elap:               0.0
 (Enter /apps/easybuild-2022/easybuild/software/Compiler/NVHPC/22.11-CUDA-11.7.0/Gaussian/g16c01-CUDA-11.7.0/g16/l103.exe)

 GradGradGradGradGradGradGradGradGradGradGradGradGradGradGradGradGradGrad
 Berny optimization.
 Red2BG is reusing G-inverse.
 Internal  Forces:  Max     0.000001058 RMS     0.000000514
 Search for a local minimum.
 Step number   1 out of a maximum of    2
 All quantities printed in internal units (Hartrees-Bohrs-Radians)
 Second derivative matrix not updated -- analytic derivatives used.
 The second derivative matrix:
                          R1        R2        R3        A1        A2
           R1           0.68377
           R2           0.00750   0.68260
           R3           0.00748   0.00749   0.68122
           A1           0.01580   0.01599  -0.03250   0.18398
           A2           0.01670  -0.03247   0.01640  -0.09201   0.18394
           A3          -0.03251   0.01648   0.01610  -0.09196  -0.09192
           D1           0.00039  -0.00005  -0.00016   0.00003  -0.00021
                          A3        D1
           A3           0.18388
           D1           0.00018   0.09497
 ITU=  0
     Eigenvalues ---    0.09497   0.26990   0.27017   0.68009   0.68165
     Eigenvalues ---    0.69758
 Angle between quadratic step and forces=  36.93 degrees.
 Linear search not attempted -- first point.
 Iteration  1 RMS(Cart)=  0.00000082 RMS(Int)=  0.00000000
 ITry= 1 IFail=0 DXMaxC= 1.05D-06 DCOld= 1.00D+10 DXMaxT= 3.00D-01 DXLimC= 3.00D+00 Rises=F
 Variable       Old X    -DE/DX   Delta X   Delta X   Delta X     New X
                                 (Linear)    (Quad)   (Total)
    R1        2.70748   0.00000   0.00000   0.00000   0.00000   2.70748
    R2        2.70749   0.00000   0.00000   0.00000   0.00000   2.70750
    R3        2.70762  -0.00000   0.00000  -0.00000  -0.00000   2.70762
    A1        2.09443  -0.00000   0.00000  -0.00000  -0.00000   2.09443
    A2        2.09438   0.00000   0.00000   0.00000   0.00000   2.09438
    A3        2.09437  -0.00000   0.00000  -0.00000  -0.00000   2.09437
    D1        3.14154   0.00000   0.00000   0.00000   0.00000   3.14154
         Item               Value     Threshold  Converged?
 Maximum Force            0.000001     0.000015     YES
 RMS     Force            0.000001     0.000010     YES
 Maximum Displacement     0.000001     0.000060     YES
 RMS     Displacement     0.000001     0.000040     YES
 Predicted change in Energy=-1.582343D-12
 Optimization completed.
    -- Stationary point found.
                           ----------------------------
                           !   Optimized Parameters   !
                           ! (Angstroms and Degrees)  !
 --------------------------                            --------------------------
 ! Name  Definition              Value          Derivative Info.                !
 --------------------------------------------------------------------------------
 ! R1    R(1,2)                  1.4327         -DE/DX =    0.0                 !
 ! R2    R(1,3)                  1.4327         -DE/DX =    0.0                 !
 ! R3    R(1,4)                  1.4328         -DE/DX =    0.0                 !
 ! A1    A(2,1,3)              120.002          -DE/DX =    0.0                 !
 ! A2    A(2,1,4)              119.9992         -DE/DX =    0.0                 !
 ! A3    A(3,1,4)              119.9988         -DE/DX =    0.0                 !
 ! D1    D(2,1,4,3)            179.997          -DE/DX =    0.0                 !
 --------------------------------------------------------------------------------
 GradGradGradGradGradGradGradGradGradGradGradGradGradGradGradGradGradGrad

 Leave Link  103 at Fri May 23 04:46:39 2025, MaxMem=  3758096384 cpu:               0.1 elap:               0.0
 (Enter /apps/easybuild-2022/easybuild/software/Compiler/NVHPC/22.11-CUDA-11.7.0/Gaussian/g16c01-CUDA-11.7.0/g16/l9999.exe)

 ----------------------------------------------------------------------

 Electric dipole moment (input orientation):
 (Debye = 10**-18 statcoulomb cm , SI units = C m)
                  (au)            (Debye)         (10**-30 SI)
   Tot        0.164602D-03      0.418376D-03      0.139555D-02
   x          0.203579D-04      0.517445D-04      0.172601D-03
   y         -0.163338D-03     -0.415164D-03     -0.138484D-02
   z          0.000000D+00      0.000000D+00      0.000000D+00

 Dipole polarizability, Alpha (input orientation).
 (esu units = cm**3 , SI units = C**2 m**2 J**-1)
 Alpha(0;0):
               (au)            (10**-24 esu)      (10**-40 SI)
   iso        0.253965D+02      0.376338D+01      0.418732D+01
   aniso      0.148403D+02      0.219910D+01      0.244683D+01
   xx         0.171887D+02      0.254710D+01      0.283403D+01
   yx        -0.451542D+01     -0.669116D+00     -0.744492D+00
   yy         0.287944D+02      0.426689D+01      0.474756D+01
   zx        -0.133647D+01     -0.198044D+00     -0.220354D+00
   zy        -0.459132D+00     -0.680363D-01     -0.757006D-01
   zz         0.302065D+02      0.447615D+01      0.498038D+01

 ----------------------------------------------------------------------

 Dipole orientation:
    16          4.74841468         -0.41496807          1.00943780
     8          4.61175202          1.74516737          2.63595994
     8          5.50187163         -2.81611976          2.00808430
     8          4.13169160         -0.17393068         -1.61596744

 Electric dipole moment (dipole orientation):
 (Debye = 10**-18 statcoulomb cm , SI units = C m)
                  (au)            (Debye)         (10**-30 SI)
   Tot        0.164603D-03      0.418380D-03      0.139557D-02
   x          0.000000D+00      0.000000D+00      0.000000D+00
   y          0.000000D+00      0.000000D+00      0.000000D+00
   z          0.164603D-03      0.418380D-03      0.139557D-02

 Dipole polarizability, Alpha (dipole orientation).
 (esu units = cm**3 , SI units = C**2 m**2 J**-1)
 Alpha(0;0):
               (au)            (10**-24 esu)      (10**-40 SI)
   iso        0.253965D+02      0.376338D+01      0.418732D+01
   aniso      0.148403D+02      0.219910D+01      0.244683D+01
   xx         0.168075D+02      0.249061D+01      0.277118D+01
   yx        -0.304015D+01     -0.450504D+00     -0.501254D+00
   yy         0.296595D+02      0.439508D+01      0.489019D+01
   zx         0.290068D+01      0.429836D+00      0.478257D+00
   zy         0.651918D+00      0.966042D-01      0.107487D+00
   zz         0.297227D+02      0.440444D+01      0.490060D+01

 ----------------------------------------------------------------------
 Unable to Open any file for archive entry.
 1\1\GINC-SPARTAN-BM177\Freq\RwB97XD\6-311++G(d,p)\O3S1\AKHALILOV\23-Ma
 y-2025\0\\#P Geom=AllCheck Guess=TCheck SCRF=Check GenChk RwB97XD/6-31
 1++G(d,p) Freq\\Gaussian input prepared by ASE\\0,1\S,2.51314,-0.22269
 8,-0.531055\O,2.689301,-1.073242,0.608363\O,2.814446,-0.711809,-1.8435
 87\O,2.035696,1.117086,-0.357934\\Version=ES64L-G16RevC.01\HF=-623.760
 9326\RMSD=5.953e-10\RMSF=6.429e-06\ZeroPoint=0.0121861\Thermal=0.01574
 13\ETot=-623.7451913\HTot=-623.7442471\GTot=-623.7751598\Dipole=0.0000
 204,-0.0001633,-0.0000007\DipoleDeriv=1.0782603,-0.421001,-0.1246688,-
 0.4208894,2.1601947,-0.0429886,-0.1248482,-0.0428572,2.2922496,-0.3410
 84,0.1055268,-0.0213065,0.1055115,-0.6784591,0.2151328,-0.0211719,0.21
 51378,-0.8243684,-0.3539567,0.1050996,0.1065532,0.1050394,-0.57436,-0.
 1300711,0.1065391,-0.1301773,-0.915132,-0.3832196,0.2103746,0.0394221,
 0.2103384,-0.9073756,-0.0420731,0.039481,-0.0421034,-0.5527491\Polar=1
 7.1886736,-4.515416,28.7944138,-1.3364664,-0.4591317,30.206534\PG=Unkn
 own\NImag=0\\0.26119839,-0.28334658,0.99121181,-0.08447281,-0.02977290
 ,1.07980493,-0.06385018,0.05017228,-0.05202994,0.03321498,0.05016038,-
 0.27776139,0.26708933,-0.06199288,0.28427222,-0.05203442,0.26711540,-0
 .43721771,0.05390765,-0.28928539,0.45906022,-0.08012391,0.04948430,0.1
 1114618,0.01683088,0.00261194,-0.00464156,0.05077696,0.04947847,-0.144
 31080,-0.17505571,-0.00161615,0.01385067,0.02734203,-0.06124464,0.1401
 7662,0.11113454,-0.17507238,-0.55307373,0.00961514,-0.01417249,-0.0295
 2263,-0.12236592,0.18830940,0.58421514,-0.11722429,0.18369001,0.025356
 57,0.01380432,0.00922056,0.00276833,0.01251607,0.01338233,0.00161623,0
 .09090390,0.18370774,-0.56913961,-0.06226072,0.01343675,-0.02036149,-0
 .00517204,0.00914840,-0.00971648,0.00093547,-0.20629290,0.59921758,0.0
 2537268,-0.06227012,-0.08951349,-0.01149285,0.03636854,0.00768012,0.01
 586130,-0.04059572,-0.00161879,-0.02974113,0.06649730,0.08345216\\0.00
 000019,-0.00000115,-0.00000047,0.00001258,0.00000019,-0.00000281,-0.00
 001645,0.00000026,-0.00000272,0.00000368,0.00000071,0.00000600\\\@
 The archive entry for this job was punched.


 WE ARE PERHAPS NOT FAR REMOVED FROM THE TIME WHEN WE SHALL BE ABLE TO SUBMIT
 THE BULK OF CHEMICAL PHENOMENA TO CALCULATION.

            -- JOSEPH LOUIS GAY-LUSSAC
               MEMOIRES DE LA SOCIETE D'ARCUEIL, 2, 207 (1808)
 Job cpu time:       0 days  0 hours  0 minutes 37.6 seconds.
 Elapsed time:       0 days  0 hours  0 minutes 10.0 seconds.
 File lengths (MBytes):  RWF=     10 Int=      0 D2E=      0 Chk=      2 Scr=      1
 Normal termination of Gaussian 16 at Fri May 23 04:46:39 2025.
done
