4
energy = -623.7487466440001
S 2.51314000 -0.22269800 -0.53105500
O 2.68930100 -1.07324200 0.60836300
O 2.81444600 -0.71180900 -1.84358700
O 2.03569600 1.11708600 -0.35793400
