5
energy = -624.339876698
S 1.78697500 0.02787000 -0.04547600
O 2.29992400 -0.51802300 1.20569600
O 2.23358200 -0.42887800 -1.34662600
O 2.06544200 1.64403400 -0.03689100
H 2.04474700 1.96420400 0.87459200
