5
energy = -437.488034327
C -1.86037900 -1.17605900 0.41125400
F -1.60786800 0.06498200 0.03661000
F -1.16110900 -2.01200900 -0.33471800
F -1.52381800 -1.33030300 1.67900700
F -3.14867800 -1.42685600 0.26412400
