1
energy = -0.49813851171100004
H 2.97723600 1.20806800 0.01320400
