6
energy = -475.48165907900005
C -0.06149800 -0.75697500 0.87692800
C -1.08263000 0.41505600 0.99877900
F -2.14416300 0.31891200 0.20608600
F -1.49432600 0.40263500 2.26811500
F -0.47308900 1.56339800 0.75017600
F -0.73955000 -1.73954800 0.40331700
