7
energy = -575.3947506390001
C -0.09014600 0.01563200 0.00372900
C -0.61466900 0.38973400 1.37508800
F -1.94529200 0.30072600 1.42605400
F -0.10869900 -0.42716500 2.28808500
F -0.27092000 1.63715900 1.66253800
F -0.46330300 0.83837200 -0.94767700
F -0.29829200 -1.23893600 -0.31838100
