8
energy = -576.0532870970001
C -0.58752200 0.66399200 -0.56440000
C -0.85077400 0.10255500 0.83553900
F -1.82171700 -0.79725500 0.81738500
F 0.25559900 -0.46795100 1.30345200
F -1.19576500 1.09085300 1.65574900
F -1.71728100 1.22641400 -1.01949600
F -0.24934600 -0.34974200 -1.37546500
H 0.21318100 1.40436800 -0.54092800
