 Entering Gaussian System, Link 0=g16
 Initial command:
 /apps/easybuild-2022/easybuild/software/Compiler/NVHPC/22.11-CUDA-11.7.0/Gaussian/g16c01-CUDA-11.7.0/g16/l1.exe "/tmp/Gau-167320.inp" -scrdir="/tmp/"
 Entering Link 1 = /apps/easybuild-2022/easybuild/software/Compiler/NVHPC/22.11-CUDA-11.7.0/Gaussian/g16c01-CUDA-11.7.0/g16/l1.exe PID=    167321.
  
 Copyright (c) 1988-2019, Gaussian, Inc.  All Rights Reserved.
  
 This is part of the Gaussian(R) 16 program.  It is based on
 the Gaussian(R) 09 system (copyright 2009, Gaussian, Inc.),
 the Gaussian(R) 03 system (copyright 2003, Gaussian, Inc.),
 the Gaussian(R) 98 system (copyright 1998, Gaussian, Inc.),
 the Gaussian(R) 94 system (copyright 1995, Gaussian, Inc.),
 the Gaussian 92(TM) system (copyright 1992, Gaussian, Inc.),
 the Gaussian 90(TM) system (copyright 1990, Gaussian, Inc.),
 the Gaussian 88(TM) system (copyright 1988, Gaussian, Inc.),
 the Gaussian 86(TM) system (copyright 1986, Carnegie Mellon
 University), and the Gaussian 82(TM) system (copyright 1983,
 Carnegie Mellon University). Gaussian is a federally registered
 trademark of Gaussian, Inc.
  
 This software contains proprietary and confidential information,
 including trade secrets, belonging to Gaussian, Inc.
  
 This software is provided under written license and may be
 used, copied, transmitted, or stored only in accord with that
 written license.
  
 The following legend is applicable only to US Government
 contracts under FAR:
  
                    RESTRICTED RIGHTS LEGEND
  
 Use, reproduction and disclosure by the US Government is
 subject to restrictions as set forth in subparagraphs (a)
 and (c) of the Commercial Computer Software - Restricted
 Rights clause in FAR 52.227-19.
  
 Gaussian, Inc.
 340 Quinnipiac St., Bldg. 40, Wallingford CT 06492
  
  
 ---------------------------------------------------------------
 Warning -- This program may not be used in any manner that
 competes with the business of Gaussian, Inc. or will provide
 assistance to any competitor of Gaussian, Inc.  The licensee
 of this program is prohibited from giving any competitor of
 Gaussian, Inc. access to this program.  By using this program,
 the user acknowledges that Gaussian, Inc. is engaged in the
 business of creating and licensing software in the field of
 computational chemistry and represents and warrants to the
 licensee that it is not a competitor of Gaussian, Inc. and that
 it will not use this program in any manner prohibited above.
 ---------------------------------------------------------------
  

 Cite this work as:
 Gaussian 16, Revision C.01,
 M. J. Frisch, G. W. Trucks, H. B. Schlegel, G. E. Scuseria, 
 M. A. Robb, J. R. Cheeseman, G. Scalmani, V. Barone, 
 G. A. Petersson, H. Nakatsuji, X. Li, M. Caricato, A. V. Marenich, 
 J. Bloino, B. G. Janesko, R. Gomperts, B. Mennucci, H. P. Hratchian, 
 J. V. Ortiz, A. F. Izmaylov, J. L. Sonnenberg, D. Williams-Young, 
 F. Ding, F. Lipparini, F. Egidi, J. Goings, B. Peng, A. Petrone, 
 T. Henderson, D. Ranasinghe, V. G. Zakrzewski, J. Gao, N. Rega, 
 G. Zheng, W. Liang, M. Hada, M. Ehara, K. Toyota, R. Fukuda, 
 J. Hasegawa, M. Ishida, T. Nakajima, Y. Honda, O. Kitao, H. Nakai, 
 T. Vreven, K. Throssell, J. A. Montgomery, Jr., J. E. Peralta, 
 F. Ogliaro, M. J. Bearpark, J. J. Heyd, E. N. Brothers, K. N. Kudin, 
 V. N. Staroverov, T. A. Keith, R. Kobayashi, J. Normand, 
 K. Raghavachari, A. P. Rendell, J. C. Burant, S. S. Iyengar, 
 J. Tomasi, M. Cossi, J. M. Millam, M. Klene, C. Adamo, R. Cammi, 
 J. W. Ochterski, R. L. Martin, K. Morokuma, O. Farkas, 
 J. B. Foresman, and D. J. Fox, Gaussian, Inc., Wallingford CT, 2019.
 
 ******************************************
 Gaussian 16:  ES64L-G16RevC.01  3-Jul-2019
                24-May-2025 
 ******************************************
 %mem=28GB
 %nprocshared=8
 Will use up to    8 processors via shared memory.
 -----------------------------------------------------------------
 #P M062X/Def2TZVPP Symm(None) scf(xqc) pop(None) freq opt(CalcFC)
 -----------------------------------------------------------------
 1/10=4,18=20,19=15,26=3,38=1/1,3;
 2/9=110,12=2,15=3,17=6,18=5,40=1/2;
 3/5=44,7=202,11=2,25=1,30=1,71=2,74=-55,140=1/1,2,3;
 4//1;
 5/5=2,8=3,13=1,38=5/2,8;
 8/6=4,10=90,11=11/1;
 11/6=1,8=1,9=11,15=111,16=1,31=1/1,2,10;
 10/6=1,13=1,31=1/2;
 7/10=1,25=1,30=1/1,2,3,16;
 1/10=4,18=20,19=15,26=3/3(2);
 2/9=110,15=3/2;
 99//99;
 2/9=110,15=3/2;
 3/5=44,7=202,11=2,25=1,30=1,71=1,74=-55/1,2,3;
 4/5=5,16=3,69=1/1;
 5/5=2,8=3,13=1,38=5/2,8;
 7/30=1/1,2,3,16;
 1/18=20,19=15,26=3/3(-5);
 2/9=110,15=3/2;
 99/9=1/99;
 Leave Link    1 at Sat May 24 07:17:17 2025, MaxMem=  3758096384 cpu:               0.0 elap:               0.0
 (Enter /apps/easybuild-2022/easybuild/software/Compiler/NVHPC/22.11-CUDA-11.7.0/Gaussian/g16c01-CUDA-11.7.0/g16/l101.exe)
 ------------------------------
 Gaussian input prepared by ASE
 ------------------------------
 Symbolic Z-matrix:
 Charge =  0 Multiplicity = 1
 C                    -0.58752   0.66399  -0.5644 
 C                    -0.85077   0.10256   0.83554 
 F                    -1.82172  -0.79726   0.81739 
 F                     0.2556   -0.46795   1.30345 
 F                    -1.19577   1.09085   1.65575 
 F                    -1.71728   1.22641  -1.0195 
 F                    -0.24935  -0.34974  -1.37547 
 H                     0.21318   1.40437  -0.54093 
 
 ITRead=  0  0  0  0  0  0  0  0
 MicOpt= -1 -1 -1 -1 -1 -1 -1 -1
 NAtoms=      8 NQM=        8 NQMF=       0 NMMI=      0 NMMIF=      0
                NMic=       0 NMicF=      0.
                    Isotopes and Nuclear Properties:
 (Nuclear quadrupole moments (NQMom) in fm**2, nuclear magnetic moments (NMagM)
  in nuclear magnetons)

  Atom         1           2           3           4           5           6           7           8
 IAtWgt=          12          12          19          19          19          19          19           1
 AtmWgt=  12.0000000  12.0000000  18.9984032  18.9984032  18.9984032  18.9984032  18.9984032   1.0078250
 NucSpn=           0           0           1           1           1           1           1           1
 AtZEff=  -0.0000000  -0.0000000  -0.0000000  -0.0000000  -0.0000000  -0.0000000  -0.0000000  -0.0000000
 NQMom=    0.0000000   0.0000000   0.0000000   0.0000000   0.0000000   0.0000000   0.0000000   0.0000000
 NMagM=    0.0000000   0.0000000   2.6288670   2.6288670   2.6288670   2.6288670   2.6288670   2.7928460
 AtZNuc=   6.0000000   6.0000000   9.0000000   9.0000000   9.0000000   9.0000000   9.0000000   1.0000000
 Leave Link  101 at Sat May 24 07:17:17 2025, MaxMem=  3758096384 cpu:               0.3 elap:               0.2
 (Enter /apps/easybuild-2022/easybuild/software/Compiler/NVHPC/22.11-CUDA-11.7.0/Gaussian/g16c01-CUDA-11.7.0/g16/l103.exe)

 GradGradGradGradGradGradGradGradGradGradGradGradGradGradGradGradGradGrad
 Berny optimization.
 Initialization pass.
                           ----------------------------
                           !    Initial Parameters    !
                           ! (Angstroms and Degrees)  !
 --------------------------                            --------------------------
 ! Name  Definition              Value          Derivative Info.                !
 --------------------------------------------------------------------------------
 ! R1    R(1,2)                  1.5311         calculate D2E/DX2 analytically  !
 ! R2    R(1,6)                  1.3416         calculate D2E/DX2 analytically  !
 ! R3    R(1,7)                  1.3416         calculate D2E/DX2 analytically  !
 ! R4    R(1,8)                  1.0908         calculate D2E/DX2 analytically  !
 ! R5    R(2,3)                  1.3239         calculate D2E/DX2 analytically  !
 ! R6    R(2,4)                  1.3298         calculate D2E/DX2 analytically  !
 ! R7    R(2,5)                  1.3298         calculate D2E/DX2 analytically  !
 ! A1    A(2,1,6)              108.6084         calculate D2E/DX2 analytically  !
 ! A2    A(2,1,7)              108.604          calculate D2E/DX2 analytically  !
 ! A3    A(2,1,8)              110.8192         calculate D2E/DX2 analytically  !
 ! A4    A(6,1,7)              108.9033         calculate D2E/DX2 analytically  !
 ! A5    A(6,1,8)              109.9325         calculate D2E/DX2 analytically  !
 ! A6    A(7,1,8)              109.9289         calculate D2E/DX2 analytically  !
 ! A7    A(1,2,3)              111.271          calculate D2E/DX2 analytically  !
 ! A8    A(1,2,4)              109.6319         calculate D2E/DX2 analytically  !
 ! A9    A(1,2,5)              109.6347         calculate D2E/DX2 analytically  !
 ! A10   A(3,2,4)              108.8687         calculate D2E/DX2 analytically  !
 ! A11   A(3,2,5)              108.8628         calculate D2E/DX2 analytically  !
 ! A12   A(4,2,5)              108.5199         calculate D2E/DX2 analytically  !
 ! D1    D(6,1,2,3)             59.1341         calculate D2E/DX2 analytically  !
 ! D2    D(6,1,2,4)            179.6202         calculate D2E/DX2 analytically  !
 ! D3    D(6,1,2,5)            -61.3464         calculate D2E/DX2 analytically  !
 ! D4    D(7,1,2,3)            -59.1621         calculate D2E/DX2 analytically  !
 ! D5    D(7,1,2,4)             61.324          calculate D2E/DX2 analytically  !
 ! D6    D(7,1,2,5)           -179.6426         calculate D2E/DX2 analytically  !
 ! D7    D(8,1,2,3)            179.9897         calculate D2E/DX2 analytically  !
 ! D8    D(8,1,2,4)            -59.5243         calculate D2E/DX2 analytically  !
 ! D9    D(8,1,2,5)             59.5091         calculate D2E/DX2 analytically  !
 --------------------------------------------------------------------------------
 Trust Radius=3.00D-01 FncErr=1.00D-07 GrdErr=1.00D-06 EigMax=2.50D+02 EigMin=1.00D-04
 Number of steps in this run=     38 maximum allowed number of steps=    100.
 GradGradGradGradGradGradGradGradGradGradGradGradGradGradGradGradGradGrad

 Leave Link  103 at Sat May 24 07:17:17 2025, MaxMem=  3758096384 cpu:               0.1 elap:               0.0
 (Enter /apps/easybuild-2022/easybuild/software/Compiler/NVHPC/22.11-CUDA-11.7.0/Gaussian/g16c01-CUDA-11.7.0/g16/l202.exe)
                          Input orientation:                          
 ---------------------------------------------------------------------
 Center     Atomic      Atomic             Coordinates (Angstroms)
 Number     Number       Type             X           Y           Z
 ---------------------------------------------------------------------
      1          6           0       -0.587522    0.663992   -0.564400
      2          6           0       -0.850774    0.102555    0.835539
      3          9           0       -1.821717   -0.797255    0.817385
      4          9           0        0.255599   -0.467951    1.303452
      5          9           0       -1.195765    1.090853    1.655749
      6          9           0       -1.717281    1.226414   -1.019496
      7          9           0       -0.249346   -0.349742   -1.375465
      8          1           0        0.213181    1.404368   -0.540928
 ---------------------------------------------------------------------
                    Distance matrix (angstroms):
                    1          2          3          4          5
     1  C    0.000000
     2  C    1.531125   0.000000
     3  F    2.359621   1.323903   0.000000
     4  F    2.341158   1.329842   2.158690   0.000000
     5  F    2.341203   1.329848   2.158616   2.158805   0.000000
     6  F    1.341561   2.335604   2.735009   3.487007   2.728973
     7  F    1.341583   2.335557   2.735180   2.728652   3.487016
     8  H    1.090795   2.172873   3.291347   2.628520   2.628462
                    6          7          8
     6  F    0.000000
     7  F    2.183075   0.000000
     8  H    1.996842   1.996819   0.000000
 Symmetry turned off by external request.
 Stoichiometry    C2HF5
 Rotational constants (GHZ):           3.7122842           2.4365052           2.0185569
 Leave Link  202 at Sat May 24 07:17:17 2025, MaxMem=  3758096384 cpu:               0.1 elap:               0.0
 (Enter /apps/easybuild-2022/easybuild/software/Compiler/NVHPC/22.11-CUDA-11.7.0/Gaussian/g16c01-CUDA-11.7.0/g16/l301.exe)
 Standard basis: def2TZVPP (5D, 7F)
 Ernie: Thresh=  0.10000D-02 Tol=  0.10000D-05 Strict=F.
   231 basis functions,   374 primitive gaussians,   267 cartesian basis functions
    29 alpha electrons       29 beta electrons
       nuclear repulsion energy       361.3523724336 Hartrees.
 IExCor= 4336 DFT=T Ex+Corr=M062X ExCW=0 ScaHFX=  0.540000
 ScaDFX=  1.000000  1.000000  1.000000  1.000000 ScalE2=  1.000000  1.000000
 IRadAn=      5 IRanWt=     -1 IRanGd=            0 ICorTp=0 IEmpDi=  4
 NAtoms=    8 NActive=    8 NUniq=    8 SFac= 1.00D+00 NAtFMM=   60 NAOKFM=F Big=F
 Integral buffers will be    131072 words long.
 Raffenetti 2 integral format.
 Two-electron integral symmetry is turned off.
 Leave Link  301 at Sat May 24 07:17:18 2025, MaxMem=  3758096384 cpu:               0.1 elap:               0.0
 (Enter /apps/easybuild-2022/easybuild/software/Compiler/NVHPC/22.11-CUDA-11.7.0/Gaussian/g16c01-CUDA-11.7.0/g16/l302.exe)
 NPDir=0 NMtPBC=     1 NCelOv=     1 NCel=       1 NClECP=     1 NCelD=      1
         NCelK=      1 NCelE2=     1 NClLst=     1 CellRange=     0.0.
 One-electron integrals computed using PRISM.
   1 Symmetry operations used in ECPInt.
 ECPInt:  NShTT=    3486 NPrTT=   11183 LenC2=    3397 LenP2D=    8729.
 LDataN:  DoStor=T MaxTD1= 6 Len=  172
 NBasis=   231 RedAO= T EigKep=  5.12D-04  NBF=   231
 NBsUse=   231 1.00D-06 EigRej= -1.00D+00 NBFU=   231
 Precomputing XC quadrature grid using
 IXCGrd= 4 IRadAn=           5 IRanWt=          -1 IRanGd=           0 AccXCQ= 0.00D+00.
 Generated NRdTot=       0 NPtTot=           0 NUsed=           0 NTot=          32
 NSgBfM=   266   266   266   266   266 MxSgAt=     8 MxSgA2=     8.
 Leave Link  302 at Sat May 24 07:17:18 2025, MaxMem=  3758096384 cpu:               0.5 elap:               0.1
 (Enter /apps/easybuild-2022/easybuild/software/Compiler/NVHPC/22.11-CUDA-11.7.0/Gaussian/g16c01-CUDA-11.7.0/g16/l303.exe)
 DipDrv:  MaxL=1.
 Leave Link  303 at Sat May 24 07:17:18 2025, MaxMem=  3758096384 cpu:               0.1 elap:               0.0
 (Enter /apps/easybuild-2022/easybuild/software/Compiler/NVHPC/22.11-CUDA-11.7.0/Gaussian/g16c01-CUDA-11.7.0/g16/l401.exe)
 ExpMin= 9.52D-02 ExpMax= 3.55D+04 ExpMxC= 1.21D+03 IAcc=3 IRadAn=         5 AccDes= 0.00D+00
 Harris functional with IExCor= 1009 and IRadAn=       5 diagonalized for initial guess.
 HarFok:  IExCor= 1009 AccDes= 0.00D+00 IRadAn=         5 IDoV= 1 UseB2=F ITyADJ=14
 ICtDFT=  3500011 ScaDFX=  1.000000  1.000000  1.000000  1.000000
 FoFCou: FMM=F IPFlag=           0 FMFlag=      100000 FMFlg1=           0
         NFxFlg=           0 DoJE=T BraDBF=F KetDBF=T FulRan=T
         wScrn=  0.000000 ICntrl=       500 IOpCl=  0 I1Cent=   200000004 NGrid=           0
         NMat0=    1 NMatS0=      1 NMatT0=    0 NMatD0=    1 NMtDS0=    0 NMtDT0=    0
 Symmetry not used in FoFCou.
 Harris En= -575.714506255193    
 JPrj=0 DoOrth=F DoCkMO=F.
 Leave Link  401 at Sat May 24 07:17:18 2025, MaxMem=  3758096384 cpu:               2.1 elap:               0.3
 (Enter /apps/easybuild-2022/easybuild/software/Compiler/NVHPC/22.11-CUDA-11.7.0/Gaussian/g16c01-CUDA-11.7.0/g16/l502.exe)
 Keep R1 ints in memory in canonical form, NReq=368651279.
 FoFCou: FMM=F IPFlag=           0 FMFlag=           0 FMFlg1=           0
         NFxFlg=           0 DoJE=F BraDBF=F KetDBF=F FulRan=T
         wScrn=  0.000000 ICntrl=       600 IOpCl=  0 I1Cent=           0 NGrid=           0
         NMat0=    1 NMatS0=  26796 NMatT0=    0 NMatD0=    1 NMtDS0=    0 NMtDT0=    0
 Symmetry not used in FoFCou.
 Two-electron integral symmetry not used.
 Closed shell SCF:
 Using DIIS extrapolation, IDIIS=  1040.
 NGot=  3758096384 LenX=  3398923531 LenY=  3398851801
 Requested convergence on RMS density matrix=1.00D-08 within  32 cycles.
 Requested convergence on MAX density matrix=1.00D-06.
 Requested convergence on             energy=1.00D-06.
 No special actions if energy rises.
 Integral accuracy reduced to 1.0D-05 until final iterations.

 Cycle   1  Pass 0  IDiag  1:
 E= -576.023920936088    
 DIIS: error= 2.41D-02 at cycle   1 NSaved=   1.
 NSaved= 1 IEnMin= 1 EnMin= -576.023920936088     IErMin= 1 ErrMin= 2.41D-02
 ErrMax= 2.41D-02  0.00D+00 EMaxC= 1.00D-01 BMatC= 1.72D-01 BMatP= 1.72D-01
 IDIUse=3 WtCom= 7.59D-01 WtEn= 2.41D-01
 Coeff-Com:  0.100D+01
 Coeff-En:   0.100D+01
 Coeff:      0.100D+01
 Gap=     0.551 Goal=   None    Shift=    0.000
 GapD=    0.551 DampG=2.000 DampE=0.500 DampFc=1.0000 IDamp=-1.
 RMSDP=1.58D-03 MaxDP=4.12D-02              OVMax= 6.96D-02

 Cycle   2  Pass 0  IDiag  1:
 E= -576.022670934907     Delta-E=        0.001250001181 Rises=F Damp=F
 DIIS: error= 1.85D-02 at cycle   2 NSaved=   2.
 NSaved= 2 IEnMin= 1 EnMin= -576.023920936088     IErMin= 2 ErrMin= 1.85D-02
 ErrMax= 1.85D-02  0.00D+00 EMaxC= 1.00D-01 BMatC= 1.27D-01 BMatP= 1.72D-01
 IDIUse=3 WtCom= 8.15D-01 WtEn= 1.85D-01
 Coeff-Com:  0.457D+00 0.543D+00
 Coeff-En:   0.505D+00 0.495D+00
 Coeff:      0.466D+00 0.534D+00
 Gap=     0.539 Goal=   None    Shift=    0.000
 RMSDP=6.75D-04 MaxDP=2.71D-02 DE= 1.25D-03 OVMax= 5.21D-02

 Cycle   3  Pass 0  IDiag  1:
 E= -576.089528808620     Delta-E=       -0.066857873712 Rises=F Damp=F
 DIIS: error= 3.31D-03 at cycle   3 NSaved=   3.
 NSaved= 3 IEnMin= 3 EnMin= -576.089528808620     IErMin= 3 ErrMin= 3.31D-03
 ErrMax= 3.31D-03  0.00D+00 EMaxC= 1.00D-01 BMatC= 4.02D-03 BMatP= 1.27D-01
 IDIUse=3 WtCom= 9.67D-01 WtEn= 3.31D-02
 Coeff-Com:  0.262D-02 0.148D+00 0.849D+00
 Coeff-En:   0.000D+00 0.000D+00 0.100D+01
 Coeff:      0.253D-02 0.144D+00 0.854D+00
 Gap=     0.533 Goal=   None    Shift=    0.000
 RMSDP=1.42D-04 MaxDP=4.21D-03 DE=-6.69D-02 OVMax= 8.06D-03

 Cycle   4  Pass 0  IDiag  1:
 E= -576.091798104312     Delta-E=       -0.002269295692 Rises=F Damp=F
 DIIS: error= 4.67D-04 at cycle   4 NSaved=   4.
 NSaved= 4 IEnMin= 4 EnMin= -576.091798104312     IErMin= 4 ErrMin= 4.67D-04
 ErrMax= 4.67D-04  0.00D+00 EMaxC= 1.00D-01 BMatC= 8.07D-05 BMatP= 4.02D-03
 IDIUse=3 WtCom= 9.95D-01 WtEn= 4.67D-03
 Coeff-Com: -0.410D-02 0.362D-01 0.274D+00 0.694D+00
 Coeff-En:   0.000D+00 0.000D+00 0.000D+00 0.100D+01
 Coeff:     -0.408D-02 0.360D-01 0.273D+00 0.695D+00
 Gap=     0.532 Goal=   None    Shift=    0.000
 RMSDP=2.51D-05 MaxDP=1.48D-03 DE=-2.27D-03 OVMax= 1.88D-03

 Cycle   5  Pass 0  IDiag  1:
 E= -576.091855431482     Delta-E=       -0.000057327170 Rises=F Damp=F
 DIIS: error= 1.49D-04 at cycle   5 NSaved=   5.
 NSaved= 5 IEnMin= 5 EnMin= -576.091855431482     IErMin= 5 ErrMin= 1.49D-04
 ErrMax= 1.49D-04  0.00D+00 EMaxC= 1.00D-01 BMatC= 7.12D-06 BMatP= 8.07D-05
 IDIUse=3 WtCom= 9.99D-01 WtEn= 1.49D-03
 Coeff-Com: -0.203D-02 0.536D-02 0.548D-01 0.267D+00 0.675D+00
 Coeff-En:   0.000D+00 0.000D+00 0.000D+00 0.000D+00 0.100D+01
 Coeff:     -0.203D-02 0.535D-02 0.547D-01 0.267D+00 0.675D+00
 Gap=     0.532 Goal=   None    Shift=    0.000
 RMSDP=6.39D-06 MaxDP=2.26D-04 DE=-5.73D-05 OVMax= 3.75D-04

 Initial convergence to 1.0D-05 achieved.  Increase integral accuracy.
 Cycle   6  Pass 1  IDiag  1:
 E= -576.091896518489     Delta-E=       -0.000041087007 Rises=F Damp=F
 DIIS: error= 3.94D-05 at cycle   1 NSaved=   1.
 NSaved= 1 IEnMin= 1 EnMin= -576.091896518489     IErMin= 1 ErrMin= 3.94D-05
 ErrMax= 3.94D-05  0.00D+00 EMaxC= 1.00D-01 BMatC= 8.56D-07 BMatP= 8.56D-07
 IDIUse=1 WtCom= 1.00D+00 WtEn= 0.00D+00
 Coeff-Com:  0.100D+01
 Coeff:      0.100D+01
 Gap=     0.532 Goal=   None    Shift=    0.000
 RMSDP=6.39D-06 MaxDP=2.26D-04 DE=-4.11D-05 OVMax= 1.57D-04

 Cycle   7  Pass 1  IDiag  1:
 E= -576.091896832901     Delta-E=       -0.000000314412 Rises=F Damp=F
 DIIS: error= 4.81D-05 at cycle   2 NSaved=   2.
 NSaved= 2 IEnMin= 2 EnMin= -576.091896832901     IErMin= 1 ErrMin= 3.94D-05
 ErrMax= 4.81D-05  0.00D+00 EMaxC= 1.00D-01 BMatC= 5.03D-07 BMatP= 8.56D-07
 IDIUse=1 WtCom= 1.00D+00 WtEn= 0.00D+00
 Coeff-Com:  0.419D+00 0.581D+00
 Coeff:      0.419D+00 0.581D+00
 Gap=     0.532 Goal=   None    Shift=    0.000
 RMSDP=1.55D-06 MaxDP=5.32D-05 DE=-3.14D-07 OVMax= 8.03D-05

 Cycle   8  Pass 1  IDiag  1:
 E= -576.091897079876     Delta-E=       -0.000000246976 Rises=F Damp=F
 DIIS: error= 1.06D-05 at cycle   3 NSaved=   3.
 NSaved= 3 IEnMin= 3 EnMin= -576.091897079876     IErMin= 3 ErrMin= 1.06D-05
 ErrMax= 1.06D-05  0.00D+00 EMaxC= 1.00D-01 BMatC= 2.80D-08 BMatP= 5.03D-07
 IDIUse=1 WtCom= 1.00D+00 WtEn= 0.00D+00
 Coeff-Com: -0.357D-01 0.165D+00 0.871D+00
 Coeff:     -0.357D-01 0.165D+00 0.871D+00
 Gap=     0.532 Goal=   None    Shift=    0.000
 RMSDP=7.00D-07 MaxDP=2.40D-05 DE=-2.47D-07 OVMax= 2.05D-05

 Cycle   9  Pass 1  IDiag  1:
 E= -576.091897096582     Delta-E=       -0.000000016705 Rises=F Damp=F
 DIIS: error= 1.30D-06 at cycle   4 NSaved=   4.
 NSaved= 4 IEnMin= 4 EnMin= -576.091897096582     IErMin= 4 ErrMin= 1.30D-06
 ErrMax= 1.30D-06  0.00D+00 EMaxC= 1.00D-01 BMatC= 7.38D-10 BMatP= 2.80D-08
 IDIUse=1 WtCom= 1.00D+00 WtEn= 0.00D+00
 Coeff-Com: -0.180D-01 0.404D-01 0.269D+00 0.709D+00
 Coeff:     -0.180D-01 0.404D-01 0.269D+00 0.709D+00
 Gap=     0.532 Goal=   None    Shift=    0.000
 RMSDP=1.01D-07 MaxDP=2.99D-06 DE=-1.67D-08 OVMax= 5.64D-06

 Cycle  10  Pass 1  IDiag  1:
 E= -576.091897097098     Delta-E=       -0.000000000516 Rises=F Damp=F
 DIIS: error= 6.38D-07 at cycle   5 NSaved=   5.
 NSaved= 5 IEnMin= 5 EnMin= -576.091897097098     IErMin= 5 ErrMin= 6.38D-07
 ErrMax= 6.38D-07  0.00D+00 EMaxC= 1.00D-01 BMatC= 1.13D-10 BMatP= 7.38D-10
 IDIUse=1 WtCom= 1.00D+00 WtEn= 0.00D+00
 Coeff-Com: -0.972D-03-0.113D-01-0.417D-01 0.241D+00 0.813D+00
 Coeff:     -0.972D-03-0.113D-01-0.417D-01 0.241D+00 0.813D+00
 Gap=     0.532 Goal=   None    Shift=    0.000
 RMSDP=4.43D-08 MaxDP=1.49D-06 DE=-5.16D-10 OVMax= 2.29D-06

 Cycle  11  Pass 1  IDiag  1:
 E= -576.091897097181     Delta-E=       -0.000000000083 Rises=F Damp=F
 DIIS: error= 2.07D-07 at cycle   6 NSaved=   6.
 NSaved= 6 IEnMin= 6 EnMin= -576.091897097181     IErMin= 6 ErrMin= 2.07D-07
 ErrMax= 2.07D-07  0.00D+00 EMaxC= 1.00D-01 BMatC= 1.16D-11 BMatP= 1.13D-10
 IDIUse=1 WtCom= 1.00D+00 WtEn= 0.00D+00
 Coeff-Com:  0.119D-02-0.776D-02-0.396D-01 0.362D-01 0.319D+00 0.691D+00
 Coeff:      0.119D-02-0.776D-02-0.396D-01 0.362D-01 0.319D+00 0.691D+00
 Gap=     0.532 Goal=   None    Shift=    0.000
 RMSDP=9.80D-09 MaxDP=3.46D-07 DE=-8.34D-11 OVMax= 5.75D-07

 SCF Done:  E(RM062X) =  -576.091897097     A.U. after   11 cycles
            NFock= 11  Conv=0.98D-08     -V/T= 2.0036
 KE= 5.740504046594D+02 PE=-2.091762700783D+03 EE= 5.802680265928D+02
 Leave Link  502 at Sat May 24 07:17:26 2025, MaxMem=  3758096384 cpu:              40.0 elap:               7.9
 (Enter /apps/easybuild-2022/easybuild/software/Compiler/NVHPC/22.11-CUDA-11.7.0/Gaussian/g16c01-CUDA-11.7.0/g16/l508.exe)
 QCSCF skips out because SCF is already converged.
 Leave Link  508 at Sat May 24 07:17:26 2025, MaxMem=  3758096384 cpu:               0.1 elap:               0.0
 (Enter /apps/easybuild-2022/easybuild/software/Compiler/NVHPC/22.11-CUDA-11.7.0/Gaussian/g16c01-CUDA-11.7.0/g16/l801.exe)
 DoSCS=F DFT=T ScalE2(SS,OS)=  1.000000  1.000000
 Range of M.O.s used for correlation:     1   231
 NBasis=   231 NAE=    29 NBE=    29 NFC=     0 NFV=     0
 NROrb=    231 NOA=    29 NOB=    29 NVA=   202 NVB=   202

 **** Warning!!: The largest alpha MO coefficient is  0.15774759D+02

 Leave Link  801 at Sat May 24 07:17:26 2025, MaxMem=  3758096384 cpu:               0.0 elap:               0.0
 (Enter /apps/easybuild-2022/easybuild/software/Compiler/NVHPC/22.11-CUDA-11.7.0/Gaussian/g16c01-CUDA-11.7.0/g16/l1101.exe)
 Using compressed storage, NAtomX=     8.
 Will process      9 centers per pass.
   1 Symmetry operations used in ECPInt.
 ECPInt:  NShTT=    3486 NPrTT=   11183 LenC2=    3397 LenP2D=    8729.
 LDataN:  DoStor=T MaxTD1= 7 Len=  274
 Leave Link 1101 at Sat May 24 07:17:26 2025, MaxMem=  3758096384 cpu:               1.0 elap:               0.2
 (Enter /apps/easybuild-2022/easybuild/software/Compiler/NVHPC/22.11-CUDA-11.7.0/Gaussian/g16c01-CUDA-11.7.0/g16/l1102.exe)
 Symmetrizing basis deriv contribution to polar:
 IMax=3 JMax=2 DiffMx= 0.00D+00
 Leave Link 1102 at Sat May 24 07:17:26 2025, MaxMem=  3758096384 cpu:               0.1 elap:               0.0
 (Enter /apps/easybuild-2022/easybuild/software/Compiler/NVHPC/22.11-CUDA-11.7.0/Gaussian/g16c01-CUDA-11.7.0/g16/l1110.exe)
 Forming Gx(P) for the SCF density, NAtomX=     8.
 Integral derivatives from FoFJK, PRISM(SPDF).
 Do as many integral derivatives as possible in FoFJK.
 G2DrvN: MDV=    3758095424.
 G2DrvN: will do     9 centers at a time, making    1 passes.
 Calling FoFCou, ICntrl=  3107 FMM=F I1Cent=   0 AccDes= 0.00D+00.
 FoFJK:  IHMeth= 1 ICntrl=    3107 DoSepK=F KAlg= 0 I1Cent=           0 FoldK=F
 IRaf=         0 NMat=       1 IRICut=       1 DoRegI=T DoRafI=F ISym2E= 0 IDoP0=0 IntGTp=1.
 FoFCou: FMM=F IPFlag=           0 FMFlag=      100000 FMFlg1=           0
         NFxFlg=           0 DoJE=F BraDBF=F KetDBF=F FulRan=T
         wScrn=  0.000000 ICntrl=      3107 IOpCl=  0 I1Cent=           0 NGrid=           0
         NMat0=    1 NMatS0=      1 NMatT0=    0 NMatD0=    1 NMtDS0=    0 NMtDT0=    0
 Symmetry not used in FoFCou.
 End of G2Drv F.D. properties file   721 does not exist.
 End of G2Drv F.D. properties file   722 does not exist.
 End of G2Drv F.D. properties file   788 does not exist.
 Leave Link 1110 at Sat May 24 07:17:41 2025, MaxMem=  3758096384 cpu:             113.5 elap:              14.3
 (Enter /apps/easybuild-2022/easybuild/software/Compiler/NVHPC/22.11-CUDA-11.7.0/Gaussian/g16c01-CUDA-11.7.0/g16/l1002.exe)
 Minotr:  Closed shell wavefunction.
          IDoAtm=11111111
          Direct CPHF calculation.
          Differentiating once with respect to nuclear coordinates.
          Requested convergence is 1.0D-08 RMS, and 1.0D-07 maximum.
          Secondary convergence is 1.0D-12 RMS, and 1.0D-12 maximum.
          NewPWx=T KeepS1=F KeepF1=F KeepIn=T MapXYZ=F SortEE=F KeepMc=T.
         2406 words used for storage of precomputed grid.
 Keep R1 ints in memory in canonical form, NReq=368655254.
 FoFCou: FMM=F IPFlag=           0 FMFlag=           0 FMFlg1=           0
         NFxFlg=           0 DoJE=F BraDBF=F KetDBF=F FulRan=T
         wScrn=  0.000000 ICntrl=       600 IOpCl=  0 I1Cent=           0 NGrid=           0
         NMat0=    1 NMatS0=  26796 NMatT0=    0 NMatD0=    1 NMtDS0=    0 NMtDT0=    0
 Symmetry not used in FoFCou.
 Two-electron integral symmetry not used.
          MDV=    3758096384 using IRadAn=       1.
          Solving linear equations simultaneously, MaxMat=       0.
          There are    27 degrees of freedom in the 1st order CPHF.  IDoFFX=6 NUNeed=     0.
     21 vectors produced by pass  0 Test12= 2.17D-14 3.70D-09 XBig12= 1.11D-01 6.45D-02.
 AX will form    21 AO Fock derivatives at one time.
     21 vectors produced by pass  1 Test12= 2.17D-14 3.70D-09 XBig12= 1.71D-02 2.63D-02.
     21 vectors produced by pass  2 Test12= 2.17D-14 3.70D-09 XBig12= 1.05D-03 5.51D-03.
     21 vectors produced by pass  3 Test12= 2.17D-14 3.70D-09 XBig12= 1.62D-05 9.01D-04.
     21 vectors produced by pass  4 Test12= 2.17D-14 3.70D-09 XBig12= 1.65D-07 6.88D-05.
     21 vectors produced by pass  5 Test12= 2.17D-14 3.70D-09 XBig12= 1.47D-09 5.70D-06.
     21 vectors produced by pass  6 Test12= 2.17D-14 3.70D-09 XBig12= 9.97D-12 4.01D-07.
      6 vectors produced by pass  7 Test12= 2.17D-14 3.70D-09 XBig12= 5.16D-14 3.29D-08.
 InvSVY:  IOpt=1 It=  1 EMax= 1.55D-15
 Solved reduced A of dimension   153 with    21 vectors.
 End of Minotr F.D. properties file   721 does not exist.
 End of Minotr F.D. properties file   722 does not exist.
 End of Minotr F.D. properties file   788 does not exist.
 Leave Link 1002 at Sat May 24 07:18:00 2025, MaxMem=  3758096384 cpu:             152.1 elap:              19.6
 (Enter /apps/easybuild-2022/easybuild/software/Compiler/NVHPC/22.11-CUDA-11.7.0/Gaussian/g16c01-CUDA-11.7.0/g16/l701.exe)
 ... and contract with generalized density number  0.
 Compute integral second derivatives.
   1 Symmetry operations used in ECPInt.
 ECPInt:  NShTT=    3486 NPrTT=   11183 LenC2=    3397 LenP2D=    8729.
 LDataN:  DoStor=T MaxTD1= 8 Len=  415
 Leave Link  701 at Sat May 24 07:18:00 2025, MaxMem=  3758096384 cpu:               0.9 elap:               0.2
 (Enter /apps/easybuild-2022/easybuild/software/Compiler/NVHPC/22.11-CUDA-11.7.0/Gaussian/g16c01-CUDA-11.7.0/g16/l702.exe)
 L702 exits ... SP integral derivatives will be done elsewhere.
 Leave Link  702 at Sat May 24 07:18:00 2025, MaxMem=  3758096384 cpu:               0.1 elap:               0.0
 (Enter /apps/easybuild-2022/easybuild/software/Compiler/NVHPC/22.11-CUDA-11.7.0/Gaussian/g16c01-CUDA-11.7.0/g16/l703.exe)
 Integral derivatives from FoFJK, PRISM(SPDF).
 Compute integral second derivatives, UseDBF=F ICtDFT=           0.
 Calling FoFJK, ICntrl=    100127 FMM=F ISym2X=0 I1Cent= 0 IOpClX= 0 NMat=1 NMatS=1 NMatT=0.
 FoFJK:  IHMeth= 1 ICntrl=  100127 DoSepK=F KAlg= 0 I1Cent=           0 FoldK=F
 IRaf=         0 NMat=       1 IRICut=       1 DoRegI=T DoRafI=F ISym2E= 0 IDoP0=0 IntGTp=1.
 FoFCou: FMM=F IPFlag=           0 FMFlag=      100000 FMFlg1=         800
         NFxFlg=           0 DoJE=F BraDBF=F KetDBF=F FulRan=T
         wScrn=  0.000000 ICntrl=    100127 IOpCl=  0 I1Cent=           0 NGrid=           0
         NMat0=    1 NMatS0=      1 NMatT0=    0 NMatD0=    1 NMtDS0=    0 NMtDT0=    0
 Symmetry not used in FoFCou.
 Leave Link  703 at Sat May 24 07:18:38 2025, MaxMem=  3758096384 cpu:             300.6 elap:              38.0
 (Enter /apps/easybuild-2022/easybuild/software/Compiler/NVHPC/22.11-CUDA-11.7.0/Gaussian/g16c01-CUDA-11.7.0/g16/l716.exe)
 Dipole        = 4.50053915D-01 4.30045501D-01-4.81437361D-02
 Polarizability= 0.00000000D+00 0.00000000D+00 0.00000000D+00
                 0.00000000D+00 0.00000000D+00 0.00000000D+00
 -------------------------------------------------------------------
 Center     Atomic                   Forces (Hartrees/Bohr)
 Number     Number              X              Y              Z
 -------------------------------------------------------------------
      1        6           0.000000420    0.000000946   -0.000003527
      2        6          -0.000000908   -0.000001171    0.000002105
      3        9          -0.000006831    0.000003965   -0.000002270
      4        9          -0.000004807   -0.000011144   -0.000002629
      5        9           0.000006284   -0.000003295    0.000003632
      6        9           0.000005937    0.000010685    0.000003127
      7        9          -0.000006430    0.000003934   -0.000002938
      8        1           0.000006334   -0.000003919    0.000002500
 -------------------------------------------------------------------
 Cartesian Forces:  Max     0.000011144 RMS     0.000004966
 Force constants in Cartesian coordinates: 
                1             2             3             4             5 
      1  0.625899D+00
      2  0.774099D-01  0.605438D+00
      3  0.245579D-01  0.130108D-01  0.578715D+00
      4 -0.600180D-01 -0.299667D-01  0.372829D-01  0.596321D+00
      5 -0.260549D-01 -0.770246D-01  0.702511D-01  0.119514D-01  0.604395D+00
      6  0.198826D-01  0.539544D-01 -0.193818D+00 -0.140578D-01 -0.267422D-01
      7 -0.237494D-01 -0.232031D-01 -0.601046D-02 -0.202973D+00 -0.124110D+00
      8 -0.307995D-01 -0.246947D-01 -0.621826D-02 -0.121932D+00 -0.195288D+00
      9  0.277205D-01  0.252151D-01  0.522323D-02  0.147728D-01  0.169093D-01
     10 -0.159136D-01  0.104087D-01 -0.109036D-02 -0.212414D+00  0.828893D-01
     11  0.260919D-01 -0.632221D-02  0.332735D-02  0.788985D-01 -0.127130D+00
     12 -0.365447D-01  0.166776D-01 -0.331752D-02 -0.733070D-01  0.523122D-01
     13  0.613520D-03  0.147896D-01  0.610094D-02 -0.935409D-01  0.395210D-01
     14  0.537617D-02 -0.790989D-02 -0.369100D-02  0.413198D-01 -0.177343D+00
     15  0.138442D-01 -0.427507D-01 -0.182469D-01  0.465690D-01 -0.969888D-01
     16 -0.254985D+00  0.613032D-01 -0.945277D-01 -0.209853D-01  0.967067D-02
     17  0.687217D-01 -0.101950D+00  0.428352D-01  0.253860D-01 -0.107541D-01
     18 -0.825131D-01  0.355501D-01 -0.118881D+00 -0.421163D-01  0.132357D-01
     19 -0.791142D-01  0.258563D-01  0.315109D-01 -0.403122D-02  0.121413D-01
     20  0.175722D-01 -0.211006D+00 -0.125779D+00  0.541732D-02 -0.115118D-01
     21  0.232426D-01 -0.115049D+00 -0.185356D+00  0.991533D-02 -0.477065D-01
     22 -0.192732D+00 -0.136598D+00  0.217588D-02 -0.235867D-02 -0.600860D-02
     23 -0.138318D+00 -0.176530D+00  0.626415D-02 -0.110740D-01 -0.534307D-02
     24  0.980996D-02  0.133917D-01 -0.643195D-01  0.209412D-01  0.187291D-01
                6             7             8             9            10 
      6  0.647029D+00
      7  0.245934D-01  0.282814D+00
      8  0.260652D-01  0.185980D+00  0.253843D+00
      9 -0.894150D-01  0.475744D-02  0.638729D-02  0.733411D-01
     10 -0.856620D-01 -0.779013D-01 -0.738268D-02 -0.247130D-01  0.329402D+00
     11  0.564916D-01 -0.222530D-01  0.202205D-01 -0.109476D-01 -0.131495D+00
     12 -0.136100D+00 -0.172778D-01 -0.613288D-02  0.106965D-01  0.108500D+00
     13  0.491065D-01  0.115825D-01 -0.300934D-01 -0.213902D-01 -0.296130D-01
     14 -0.110251D+00 -0.188695D-01 -0.621070D-01 -0.385837D-01  0.455962D-01
     15 -0.204929D+00 -0.129063D-01 -0.285971D-01  0.344250D-02  0.928648D-02
     16 -0.147846D-02  0.735005D-02  0.214290D-02 -0.779378D-03  0.167773D-02
     17  0.685136D-02  0.397889D-03  0.232275D-02 -0.728380D-03  0.207251D-02
     18 -0.724034D-02  0.245145D-02 -0.408653D-03  0.977069D-03 -0.336544D-02
     19  0.918736D-02  0.232024D-02  0.159558D-02 -0.743424D-03  0.328514D-02
     20 -0.414459D-02  0.243730D-02  0.650794D-02  0.405357D-04 -0.315211D-02
     21 -0.233836D-01  0.159963D-03  0.359549D-02  0.180221D-02 -0.118261D-02
     22 -0.157152D-02  0.556251D-03  0.490004D-03  0.375257D-03  0.147791D-02
     23 -0.222433D-02 -0.378862D-03 -0.804102D-03  0.170742D-02  0.106299D-02
     24  0.785675D-02  0.423229D-02  0.530894D-02 -0.606764D-02 -0.177351D-02
               11            12            13            14            15 
     11  0.149185D+00
     12 -0.529853D-01  0.119512D+00
     13  0.506764D-01  0.206394D-01  0.106829D+00
     14 -0.379552D-01 -0.156244D-01 -0.718612D-01  0.277740D+00
     15 -0.469225D-02  0.208554D-01 -0.584250D-01  0.169862D+00  0.213785D+00
     16  0.117038D-02 -0.365242D-02  0.373297D-02 -0.293762D-02 -0.228129D-02
     17 -0.258650D-02  0.658424D-02 -0.310510D-02  0.351135D-02  0.221504D-02
     18  0.714623D-02 -0.111898D-01  0.126279D-02  0.354161D-03 -0.441484D-03
     19 -0.288072D-02  0.449936D-03  0.121944D-03  0.583752D-03  0.388600D-02
     20  0.400738D-02 -0.577599D-03 -0.454058D-03  0.257292D-02 -0.544654D-03
     21  0.306186D-02 -0.505449D-03  0.423580D-02 -0.493572D-03 -0.147703D-01
     22 -0.208628D-03  0.119204D-02  0.274182D-03  0.792411D-03  0.269927D-04
     23  0.581159D-03 -0.253940D-03  0.526804D-03  0.149176D-02  0.149599D-02
     24 -0.140192D-02  0.491953D-04 -0.153017D-02 -0.157248D-02  0.304665D-03
               16            17            18            19            20 
     16  0.324409D+00
     17 -0.134225D+00  0.129081D+00
     18  0.110192D+00 -0.496710D-01  0.113541D+00
     19 -0.240800D-01  0.492910D-01  0.218038D-01  0.884979D-01
     20  0.421755D-01 -0.335601D-01 -0.990295D-02 -0.743830D-01  0.271957D+00
     21  0.126467D-01 -0.184715D-02  0.190403D-01 -0.525650D-01  0.171923D+00
     22 -0.371191D-01 -0.853946D-02 -0.771554D-02  0.130002D-01  0.103869D-01
     23  0.206995D-01  0.139356D-01  0.369641D-02 -0.122042D-01 -0.289671D-01
     24 -0.201198D-01 -0.623935D-02  0.419333D-02 -0.135297D-01 -0.310143D-01
               21            22            23            24 
     21  0.206333D+00
     22  0.354715D-02  0.216901D+00
     23 -0.134840D-01  0.139685D+00  0.195636D+00
     24 -0.315960D-02  0.196975D-02  0.279834D-02  0.611428D-01
 FormGI is forming the generalized inverse of G from B-inverse, IUseBI=4.
 Force constants in internal coordinates: 
                1             2             3             4             5 
      1  0.292712D+00
      2  0.189504D-01  0.437648D+00
      3  0.189417D-01  0.542076D-01  0.437755D+00
      4  0.375931D-02  0.138111D-01  0.138401D-01  0.346353D+00
      5  0.163483D-01  0.549464D-02  0.555920D-02 -0.155615D-03  0.455013D+00
      6  0.164841D-01  0.578472D-02  0.598533D-02  0.163793D-02  0.566906D-01
      7  0.165101D-01  0.596977D-02  0.582622D-02  0.166102D-02  0.566654D-01
      8  0.179519D-01  0.234939D-01 -0.250948D-01 -0.593437D-02 -0.619052D-02
      9  0.178915D-01 -0.249651D-01  0.236245D-01 -0.598967D-02 -0.611665D-02
     10  0.638001D-02 -0.274462D-01 -0.275151D-01  0.707158D-02  0.132150D-01
     11 -0.145680D-01  0.127877D-01  0.129009D-01  0.211158D-02  0.152044D-04
     12 -0.136635D-01  0.137162D-01  0.285616D-02  0.128124D-02 -0.606600D-03
     13 -0.136469D-01  0.284397D-02  0.136669D-01  0.123864D-02 -0.626050D-03
     14  0.171841D-01 -0.459307D-02 -0.453905D-02  0.300411D-02  0.147763D-01
     15  0.122211D-01  0.179920D-01 -0.288519D-02 -0.110373D-02 -0.291871D-01
     16  0.122348D-01 -0.288649D-02  0.179386D-01 -0.103634D-02 -0.291768D-01
     17 -0.144648D-01 -0.414789D-02 -0.194079D-02 -0.337838D-03  0.206868D-01
     18 -0.144744D-01 -0.193046D-02 -0.414895D-02 -0.347907D-03  0.207435D-01
     19 -0.138259D-01 -0.461249D-02 -0.460242D-02 -0.239652D-03  0.257973D-02
     20  0.138454D-02 -0.400499D-02  0.185664D-01 -0.208597D-02 -0.340790D-02
     21  0.242700D-02 -0.241849D-03  0.113098D-01 -0.130702D-02  0.126609D-01
     22  0.345543D-03  0.327405D-02  0.148058D-01 -0.289694D-02 -0.195554D-01
     23 -0.138958D-02 -0.184716D-01  0.396118D-02  0.210834D-02  0.351007D-02
     24 -0.347120D-03 -0.147084D-01 -0.329534D-02  0.288729D-02  0.195789D-01
     25 -0.242857D-02 -0.111925D-01  0.200596D-03  0.129737D-02 -0.126374D-01
     26  0.789491D-05  0.110838D-01 -0.111087D-01  0.556515D-04  0.401425D-04
     27  0.105036D-02  0.148469D-01 -0.183652D-01  0.834603D-03  0.161090D-01
     28 -0.103110D-02  0.183628D-01 -0.148693D-01 -0.755318D-03 -0.161073D-01
                6             7             8             9            10 
      6  0.443596D+00
      7  0.569046D-01  0.444036D+00
      8  0.185179D-01 -0.419420D-02  0.185834D+00
      9 -0.420475D-02  0.183691D-01 -0.361530D-02  0.185666D+00
     10 -0.225165D-02 -0.215514D-02 -0.143582D-01 -0.144582D-01  0.115821D+00
     11 -0.428420D-02 -0.425062D-02 -0.837369D-01 -0.836600D-01  0.466952D-02
     12 -0.660206D-02 -0.982882D-03 -0.780992D-01 -0.444646D-02 -0.462662D-01
     13 -0.979222D-03 -0.659129D-02 -0.449680D-02 -0.779516D-01 -0.461488D-01
     14 -0.291828D-01 -0.293330D-01 -0.122463D-01 -0.121161D-01  0.239674D-01
     15  0.184813D-01 -0.282368D-01  0.284349D-01 -0.480064D-02 -0.109892D-01
     16 -0.280423D-01  0.186619D-01 -0.483305D-02  0.283244D-01 -0.108236D-01
     17  0.179324D-01  0.296144D-02 -0.715112D-02  0.337666D-02 -0.321235D-02
     18  0.291187D-02  0.179431D-01  0.343602D-02 -0.714127D-02 -0.326299D-02
     19  0.192865D-01  0.194000D-01 -0.778986D-02 -0.779335D-02  0.402999D-02
     20 -0.167930D-01  0.197530D-01 -0.712019D-02  0.967377D-02 -0.533277D-02
     21 -0.896453D-03 -0.140926D-01 -0.512565D-02  0.292921D-02 -0.120978D-02
     22  0.168880D-01  0.382066D-02 -0.344969D-03  0.765723D-02 -0.950223D-02
     23 -0.197343D-01  0.168484D-01 -0.964289D-02  0.714391D-02  0.532197D-02
     24 -0.383767D-02 -0.169973D-01 -0.764835D-02  0.399354D-03  0.944497D-02
     25  0.139468D-01  0.916039D-03 -0.286766D-02  0.512737D-02  0.115251D-02
     26 -0.144220D-01  0.145016D-01  0.713425D-02 -0.710683D-02 -0.377085D-04
     27  0.147464D-02 -0.193440D-01  0.912879D-02 -0.138514D-01  0.408529D-02
     28  0.192591D-01 -0.143073D-02  0.139095D-01 -0.912338D-02 -0.420717D-02
               11            12            13            14            15 
     11  0.110403D+00
     12  0.260221D-01  0.795399D-01
     13  0.259933D-01  0.222744D-01  0.793543D-01
     14  0.649816D-02 -0.323154D-02 -0.327128D-02  0.185343D+00
     15 -0.880294D-02 -0.665564D-02  0.309571D-02 -0.434284D-03  0.187269D+00
     16 -0.879097D-02  0.305530D-02 -0.665147D-02 -0.731722D-03  0.345617D-02
     17  0.254605D-02  0.375310D-02  0.689254D-03 -0.902776D-01 -0.935442D-01
     18  0.253012D-02  0.685912D-03  0.375445D-02 -0.901632D-01 -0.108384D-01
     19  0.621352D-02  0.259120D-02  0.258141D-02 -0.914031D-02 -0.905132D-01
     20  0.188632D-01 -0.108243D-01 -0.458008D-02 -0.297872D-02 -0.576833D-02
     21  0.204022D-01 -0.126116D-01 -0.377301D-02  0.298908D-02  0.848984D-03
     22  0.173359D-01 -0.116259D-01 -0.277193D-02 -0.889166D-02  0.578343D-02
     23 -0.188612D-01  0.456700D-02  0.107946D-01  0.297828D-02 -0.855706D-02
     24 -0.173222D-01  0.277968D-02  0.116017D-01  0.894608D-02 -0.193975D-02
     25 -0.203885D-01  0.376539D-02  0.126028D-01 -0.293467D-02  0.299469D-02
     26 -0.102194D-04  0.854409D-02 -0.852441D-02 -0.162838D-04 -0.248791D-02
     27  0.152879D-02  0.675678D-02 -0.771734D-02  0.595152D-02  0.412940D-02
     28 -0.153749D-02  0.774248D-02 -0.671626D-02 -0.592923D-02  0.906385D-02
               16            17            18            19            20 
     16  0.187290D+00
     17 -0.107491D-01  0.124690D+00
     18 -0.934138D-01  0.375297D-01  0.124552D+00
     19 -0.904364D-01  0.371313D-01  0.371054D-01  0.121294D+00
     20  0.854674D-02 -0.171896D-01  0.181016D-01 -0.680011D-03  0.332745D-01
     21 -0.308450D-02  0.188427D-01 -0.104842D-03 -0.200022D-01  0.603626D-02
     22  0.195046D-02  0.103024D-02 -0.179213D-01  0.186204D-01  0.688849D-02
     23  0.582250D-02 -0.181084D-01  0.171635D-01  0.669679D-03  0.927018D-02
     24 -0.580874D-02  0.179240D-01 -0.104295D-02 -0.186526D-01 -0.179681D-01
     25 -0.773782D-03  0.111537D-03 -0.188594D-01  0.199701D-01 -0.171159D-01
     26  0.250679D-02 -0.191457D-01  0.191416D-01  0.196957D-05  0.120043D-01
     27 -0.912445D-02  0.168866D-01  0.935169D-03 -0.193203D-01 -0.152340D-01
     28 -0.408949D-02 -0.925816D-03 -0.168813D-01  0.193024D-01 -0.143818D-01
               21            22            23            24            25 
     21  0.320938D-01
     22  0.628616D-02  0.337368D-01
     23 -0.171318D-01 -0.179706D-01  0.332405D-01
     24  0.892574D-02 -0.185729D-01  0.683847D-02  0.337323D-01
     25 -0.168819D-01  0.887774D-02  0.599970D-02  0.623364D-02  0.319933D-01
     26 -0.136051D-01 -0.135914D-01  0.120014D-01 -0.136080D-01 -0.135942D-01
     27  0.124524D-01 -0.141937D-01 -0.144006D-01  0.132858D-01 -0.133603D-01
     28 -0.133552D-01  0.132570D-01 -0.152394D-01 -0.142128D-01  0.123994D-01
               26            27            28 
     26  0.271384D-01
     27  0.152900D-02  0.292155D-01
     28  0.154277D-02  0.256933D-02  0.291815D-01
 Leave Link  716 at Sat May 24 07:18:38 2025, MaxMem=  3758096384 cpu:               0.0 elap:               0.0
 (Enter /apps/easybuild-2022/easybuild/software/Compiler/NVHPC/22.11-CUDA-11.7.0/Gaussian/g16c01-CUDA-11.7.0/g16/l103.exe)

 GradGradGradGradGradGradGradGradGradGradGradGradGradGradGradGradGradGrad
 Berny optimization.
 Red2BG is reusing G-inverse.
 Internal  Forces:  Max     0.000005664 RMS     0.000001454
 Search for a local minimum.
 Step number   1 out of a maximum of   38
 All quantities printed in internal units (Hartrees-Bohrs-Radians)
 RMS Force = .14540D-05 SwitMx=.10000D-02 MixMth= 2
 Mixed Optimization -- En-DIIS/RFO-DIIS
 Second derivative matrix not updated -- analytic derivatives used.
 ITU=  0
     Eigenvalues ---    0.00296   0.06290   0.09531   0.10230   0.10870
     Eigenvalues ---    0.15581   0.19193   0.22473   0.24287   0.26538
     Eigenvalues ---    0.30941   0.34585   0.39351   0.39447   0.41962
     Eigenvalues ---    0.42315   0.50728   0.58161
 RFO step:  Lambda= 0.00000000D+00 EMin= 2.96331431D-03
 Linear search not attempted -- first point.
 Iteration  1 RMS(Cart)=  0.00002002 RMS(Int)=  0.00000000
 Iteration  2 RMS(Cart)=  0.00000000 RMS(Int)=  0.00000000
 ITry= 1 IFail=0 DXMaxC= 4.29D-05 DCOld= 1.00D+10 DXMaxT= 3.00D-01 DXLimC= 3.00D+00 Rises=F
 Variable       Old X    -DE/DX   Delta X   Delta X   Delta X     New X
                                 (Linear)    (Quad)   (Total)
    R1        2.89341   0.00001   0.00000   0.00002   0.00002   2.89342
    R2        2.53518  -0.00000   0.00000  -0.00000  -0.00000   2.53518
    R3        2.53523  -0.00000   0.00000  -0.00000  -0.00000   2.53522
    R4        2.06130   0.00000   0.00000   0.00000   0.00000   2.06130
    R5        2.50181   0.00000   0.00000   0.00000   0.00000   2.50181
    R6        2.51304   0.00000   0.00000   0.00000   0.00000   2.51304
    R7        2.51305  -0.00000   0.00000  -0.00000  -0.00000   2.51305
    A1        1.89557   0.00000   0.00000   0.00001   0.00001   1.89558
    A2        1.89550   0.00000   0.00000   0.00000   0.00000   1.89550
    A3        1.93416  -0.00000   0.00000  -0.00001  -0.00001   1.93415
    A4        1.90072  -0.00000   0.00000  -0.00000  -0.00000   1.90072
    A5        1.91868  -0.00000   0.00000  -0.00000  -0.00000   1.91868
    A6        1.91862  -0.00000   0.00000  -0.00000  -0.00000   1.91862
    A7        1.94204   0.00000   0.00000   0.00000   0.00000   1.94205
    A8        1.91344   0.00000   0.00000   0.00000   0.00000   1.91344
    A9        1.91349   0.00000   0.00000   0.00000   0.00000   1.91349
   A10        1.90012  -0.00000   0.00000  -0.00000  -0.00000   1.90011
   A11        1.90001  -0.00000   0.00000  -0.00000  -0.00000   1.90001
   A12        1.89403  -0.00000   0.00000  -0.00000  -0.00000   1.89403
    D1        1.03209   0.00000   0.00000   0.00004   0.00004   1.03212
    D2        3.13496   0.00000   0.00000   0.00003   0.00003   3.13500
    D3       -1.07070   0.00000   0.00000   0.00004   0.00004  -1.07066
    D4       -1.03257   0.00000   0.00000   0.00003   0.00003  -1.03254
    D5        1.07031  -0.00000   0.00000   0.00003   0.00003   1.07034
    D6       -3.13536  -0.00000   0.00000   0.00003   0.00003  -3.13532
    D7        3.14141   0.00000   0.00000   0.00004   0.00004   3.14145
    D8       -1.03890   0.00000   0.00000   0.00003   0.00003  -1.03886
    D9        1.03863   0.00000   0.00000   0.00003   0.00003   1.03866
         Item               Value     Threshold  Converged?
 Maximum Force            0.000006     0.000450     YES
 RMS     Force            0.000001     0.000300     YES
 Maximum Displacement     0.000043     0.001800     YES
 RMS     Displacement     0.000020     0.001200     YES
 Predicted change in Energy=-1.023888D-10
 Optimization completed.
    -- Stationary point found.
                           ----------------------------
                           !   Optimized Parameters   !
                           ! (Angstroms and Degrees)  !
 --------------------------                            --------------------------
 ! Name  Definition              Value          Derivative Info.                !
 --------------------------------------------------------------------------------
 ! R1    R(1,2)                  1.5311         -DE/DX =    0.0                 !
 ! R2    R(1,6)                  1.3416         -DE/DX =    0.0                 !
 ! R3    R(1,7)                  1.3416         -DE/DX =    0.0                 !
 ! R4    R(1,8)                  1.0908         -DE/DX =    0.0                 !
 ! R5    R(2,3)                  1.3239         -DE/DX =    0.0                 !
 ! R6    R(2,4)                  1.3298         -DE/DX =    0.0                 !
 ! R7    R(2,5)                  1.3298         -DE/DX =    0.0                 !
 ! A1    A(2,1,6)              108.6084         -DE/DX =    0.0                 !
 ! A2    A(2,1,7)              108.604          -DE/DX =    0.0                 !
 ! A3    A(2,1,8)              110.8192         -DE/DX =    0.0                 !
 ! A4    A(6,1,7)              108.9033         -DE/DX =    0.0                 !
 ! A5    A(6,1,8)              109.9325         -DE/DX =    0.0                 !
 ! A6    A(7,1,8)              109.9289         -DE/DX =    0.0                 !
 ! A7    A(1,2,3)              111.271          -DE/DX =    0.0                 !
 ! A8    A(1,2,4)              109.6319         -DE/DX =    0.0                 !
 ! A9    A(1,2,5)              109.6347         -DE/DX =    0.0                 !
 ! A10   A(3,2,4)              108.8687         -DE/DX =    0.0                 !
 ! A11   A(3,2,5)              108.8628         -DE/DX =    0.0                 !
 ! A12   A(4,2,5)              108.5199         -DE/DX =    0.0                 !
 ! D1    D(6,1,2,3)             59.1341         -DE/DX =    0.0                 !
 ! D2    D(6,1,2,4)            179.6202         -DE/DX =    0.0                 !
 ! D3    D(6,1,2,5)            -61.3464         -DE/DX =    0.0                 !
 ! D4    D(7,1,2,3)            -59.1621         -DE/DX =    0.0                 !
 ! D5    D(7,1,2,4)             61.324          -DE/DX =    0.0                 !
 ! D6    D(7,1,2,5)           -179.6426         -DE/DX =    0.0                 !
 ! D7    D(8,1,2,3)            179.9897         -DE/DX =    0.0                 !
 ! D8    D(8,1,2,4)            -59.5243         -DE/DX =    0.0                 !
 ! D9    D(8,1,2,5)             59.5091         -DE/DX =    0.0                 !
 --------------------------------------------------------------------------------
 Lowest energy point so far.  Saving SCF results.
 Largest change from initial coordinates is atom    0       0.000 Angstoms.
 GradGradGradGradGradGradGradGradGradGradGradGradGradGradGradGradGradGrad

 Leave Link  103 at Sat May 24 07:18:38 2025, MaxMem=  3758096384 cpu:               0.1 elap:               0.0
 (Enter /apps/easybuild-2022/easybuild/software/Compiler/NVHPC/22.11-CUDA-11.7.0/Gaussian/g16c01-CUDA-11.7.0/g16/l202.exe)
                          Input orientation:                          
 ---------------------------------------------------------------------
 Center     Atomic      Atomic             Coordinates (Angstroms)
 Number     Number       Type             X           Y           Z
 ---------------------------------------------------------------------
      1          6           0       -0.587522    0.663992   -0.564400
      2          6           0       -0.850774    0.102555    0.835539
      3          9           0       -1.821717   -0.797255    0.817385
      4          9           0        0.255599   -0.467951    1.303452
      5          9           0       -1.195765    1.090853    1.655749
      6          9           0       -1.717281    1.226414   -1.019496
      7          9           0       -0.249346   -0.349742   -1.375465
      8          1           0        0.213181    1.404368   -0.540928
 ---------------------------------------------------------------------
                    Distance matrix (angstroms):
                    1          2          3          4          5
     1  C    0.000000
     2  C    1.531125   0.000000
     3  F    2.359621   1.323903   0.000000
     4  F    2.341158   1.329842   2.158690   0.000000
     5  F    2.341203   1.329848   2.158616   2.158805   0.000000
     6  F    1.341561   2.335604   2.735009   3.487007   2.728973
     7  F    1.341583   2.335557   2.735180   2.728652   3.487016
     8  H    1.090795   2.172873   3.291347   2.628520   2.628462
                    6          7          8
     6  F    0.000000
     7  F    2.183075   0.000000
     8  H    1.996842   1.996819   0.000000
 Symmetry turned off by external request.
 Stoichiometry    C2HF5
 Rotational constants (GHZ):           3.7122842           2.4365052           2.0185569
 Leave Link  202 at Sat May 24 07:18:38 2025, MaxMem=  3758096384 cpu:               0.1 elap:               0.0
 (Enter /apps/easybuild-2022/easybuild/software/Compiler/NVHPC/22.11-CUDA-11.7.0/Gaussian/g16c01-CUDA-11.7.0/g16/l9999.exe)
 Unable to Open any file for archive entry.
 1\1\GINC-SPARTAN-BM171\FOpt\RM062X\def2TZVPP\C2H1F5\AKHALILOV\24-May-2
 025\0\\#P M062X/Def2TZVPP Symm(None) scf(xqc) pop(None) freq opt(CalcF
 C)\\Gaussian input prepared by ASE\\0,1\C,-0.587522,0.663992,-0.5644\C
 ,-0.850774,0.102555,0.835539\F,-1.821717,-0.797255,0.817385\F,0.255599
 ,-0.467951,1.303452\F,-1.195765,1.090853,1.655749\F,-1.717281,1.226414
 ,-1.019496\F,-0.249346,-0.349742,-1.375465\H,0.213181,1.404368,-0.5409
 28\\Version=ES64L-G16RevC.01\HF=-576.0918971\RMSD=9.798e-09\RMSF=4.966
 e-06\Dipole=0.4500539,0.4300455,-0.0481437\Polar=0.,0.,0.,0.,0.,0.\PG=
 Unknown\\@
 The archive entry for this job was punched.


 MUD THROWN IS GROUND LOST -- FROM A TEA BAG
 Leave Link 9999 at Sat May 24 07:18:38 2025, MaxMem=  3758096384 cpu:               0.1 elap:               0.0
 Job cpu time:       0 days  0 hours 10 minutes 11.9 seconds.
 Elapsed time:       0 days  0 hours  1 minutes 21.2 seconds.
 File lengths (MBytes):  RWF=     47 Int=      0 D2E=      0 Chk=      5 Scr=      1
 Normal termination of Gaussian 16 at Sat May 24 07:18:38 2025.
 (Enter /apps/easybuild-2022/easybuild/software/Compiler/NVHPC/22.11-CUDA-11.7.0/Gaussian/g16c01-CUDA-11.7.0/g16/l1.exe)
 Link1:  Proceeding to internal job step number  2.
 ---------------------------------------------------------------------
 #P Geom=AllCheck Guess=TCheck SCRF=Check GenChk RM062X/def2TZVPP Freq
 ---------------------------------------------------------------------
 1/10=4,29=7,30=1,38=1,40=1/1,3;
 2/12=2,15=3,40=1/2;
 3/5=44,7=202,11=2,14=-4,25=1,30=1,70=2,71=2,74=-55,116=1,140=1/1,2,3;
 4/5=101/1;
 5/5=2,8=3,13=1,38=6,98=1/2,8;
 8/6=4,10=90,11=11/1;
 11/6=1,8=1,9=11,15=111,16=1,31=1/1,2,10;
 10/6=1,31=1/2;
 7/8=1,10=1,25=1,30=1/1,2,3,16;
 1/10=4,30=1/3;
 99//99;
 Leave Link    1 at Sat May 24 07:18:38 2025, MaxMem=  3758096384 cpu:               0.0 elap:               0.0
 (Enter /apps/easybuild-2022/easybuild/software/Compiler/NVHPC/22.11-CUDA-11.7.0/Gaussian/g16c01-CUDA-11.7.0/g16/l101.exe)
 Structure from the checkpoint file:  "/tmp/Gau-167321.chk"
 ------------------------------
 Gaussian input prepared by ASE
 ------------------------------
 Charge =  0 Multiplicity = 1
 Redundant internal coordinates found in file.  (old form).
 C,0,-0.587522,0.663992,-0.5644
 C,0,-0.850774,0.102555,0.835539
 F,0,-1.821717,-0.797255,0.817385
 F,0,0.255599,-0.467951,1.303452
 F,0,-1.195765,1.090853,1.655749
 F,0,-1.717281,1.226414,-1.019496
 F,0,-0.249346,-0.349742,-1.375465
 H,0,0.213181,1.404368,-0.540928
 Recover connectivity data from disk.
 ITRead=  0  0  0  0  0  0  0  0
 MicOpt= -1 -1 -1 -1 -1 -1 -1 -1
 NAtoms=      8 NQM=        8 NQMF=       0 NMMI=      0 NMMIF=      0
                NMic=       0 NMicF=      0.
                    Isotopes and Nuclear Properties:
 (Nuclear quadrupole moments (NQMom) in fm**2, nuclear magnetic moments (NMagM)
  in nuclear magnetons)

  Atom         1           2           3           4           5           6           7           8
 IAtWgt=          12          12          19          19          19          19          19           1
 AtmWgt=  12.0000000  12.0000000  18.9984032  18.9984032  18.9984032  18.9984032  18.9984032   1.0078250
 NucSpn=           0           0           1           1           1           1           1           1
 AtZEff=   3.6000000   3.6000000   6.7500000   6.7500000   6.7500000   6.7500000   6.7500000   1.0000000
 NQMom=    0.0000000   0.0000000   0.0000000   0.0000000   0.0000000   0.0000000   0.0000000   0.0000000
 NMagM=    0.0000000   0.0000000   2.6288670   2.6288670   2.6288670   2.6288670   2.6288670   2.7928460
 AtZNuc=   6.0000000   6.0000000   9.0000000   9.0000000   9.0000000   9.0000000   9.0000000   1.0000000
 Leave Link  101 at Sat May 24 07:18:39 2025, MaxMem=  3758096384 cpu:               0.2 elap:               0.2
 (Enter /apps/easybuild-2022/easybuild/software/Compiler/NVHPC/22.11-CUDA-11.7.0/Gaussian/g16c01-CUDA-11.7.0/g16/l103.exe)

 GradGradGradGradGradGradGradGradGradGradGradGradGradGradGradGradGradGrad
 Berny optimization.
 Initialization pass.
                           ----------------------------
                           !    Initial Parameters    !
                           ! (Angstroms and Degrees)  !
 --------------------------                            --------------------------
 ! Name  Definition              Value          Derivative Info.                !
 --------------------------------------------------------------------------------
 ! R1    R(1,2)                  1.5311         calculate D2E/DX2 analytically  !
 ! R2    R(1,6)                  1.3416         calculate D2E/DX2 analytically  !
 ! R3    R(1,7)                  1.3416         calculate D2E/DX2 analytically  !
 ! R4    R(1,8)                  1.0908         calculate D2E/DX2 analytically  !
 ! R5    R(2,3)                  1.3239         calculate D2E/DX2 analytically  !
 ! R6    R(2,4)                  1.3298         calculate D2E/DX2 analytically  !
 ! R7    R(2,5)                  1.3298         calculate D2E/DX2 analytically  !
 ! A1    A(2,1,6)              108.6084         calculate D2E/DX2 analytically  !
 ! A2    A(2,1,7)              108.604          calculate D2E/DX2 analytically  !
 ! A3    A(2,1,8)              110.8192         calculate D2E/DX2 analytically  !
 ! A4    A(6,1,7)              108.9033         calculate D2E/DX2 analytically  !
 ! A5    A(6,1,8)              109.9325         calculate D2E/DX2 analytically  !
 ! A6    A(7,1,8)              109.9289         calculate D2E/DX2 analytically  !
 ! A7    A(1,2,3)              111.271          calculate D2E/DX2 analytically  !
 ! A8    A(1,2,4)              109.6319         calculate D2E/DX2 analytically  !
 ! A9    A(1,2,5)              109.6347         calculate D2E/DX2 analytically  !
 ! A10   A(3,2,4)              108.8687         calculate D2E/DX2 analytically  !
 ! A11   A(3,2,5)              108.8628         calculate D2E/DX2 analytically  !
 ! A12   A(4,2,5)              108.5199         calculate D2E/DX2 analytically  !
 ! D1    D(6,1,2,3)             59.1341         calculate D2E/DX2 analytically  !
 ! D2    D(6,1,2,4)            179.6202         calculate D2E/DX2 analytically  !
 ! D3    D(6,1,2,5)            -61.3464         calculate D2E/DX2 analytically  !
 ! D4    D(7,1,2,3)            -59.1621         calculate D2E/DX2 analytically  !
 ! D5    D(7,1,2,4)             61.324          calculate D2E/DX2 analytically  !
 ! D6    D(7,1,2,5)           -179.6426         calculate D2E/DX2 analytically  !
 ! D7    D(8,1,2,3)            179.9897         calculate D2E/DX2 analytically  !
 ! D8    D(8,1,2,4)            -59.5243         calculate D2E/DX2 analytically  !
 ! D9    D(8,1,2,5)             59.5091         calculate D2E/DX2 analytically  !
 --------------------------------------------------------------------------------
 Trust Radius=3.00D-01 FncErr=1.00D-07 GrdErr=1.00D-07 EigMax=2.50D+02 EigMin=1.00D-04
 Number of steps in this run=      2 maximum allowed number of steps=      2.
 GradGradGradGradGradGradGradGradGradGradGradGradGradGradGradGradGradGrad

 Leave Link  103 at Sat May 24 07:18:39 2025, MaxMem=  3758096384 cpu:               0.1 elap:               0.0
 (Enter /apps/easybuild-2022/easybuild/software/Compiler/NVHPC/22.11-CUDA-11.7.0/Gaussian/g16c01-CUDA-11.7.0/g16/l202.exe)
                          Input orientation:                          
 ---------------------------------------------------------------------
 Center     Atomic      Atomic             Coordinates (Angstroms)
 Number     Number       Type             X           Y           Z
 ---------------------------------------------------------------------
      1          6           0       -0.587522    0.663992   -0.564400
      2          6           0       -0.850774    0.102555    0.835539
      3          9           0       -1.821717   -0.797255    0.817385
      4          9           0        0.255599   -0.467951    1.303452
      5          9           0       -1.195765    1.090853    1.655749
      6          9           0       -1.717281    1.226414   -1.019496
      7          9           0       -0.249346   -0.349742   -1.375465
      8          1           0        0.213181    1.404368   -0.540928
 ---------------------------------------------------------------------
                    Distance matrix (angstroms):
                    1          2          3          4          5
     1  C    0.000000
     2  C    1.531125   0.000000
     3  F    2.359621   1.323903   0.000000
     4  F    2.341158   1.329842   2.158690   0.000000
     5  F    2.341203   1.329848   2.158616   2.158805   0.000000
     6  F    1.341561   2.335604   2.735009   3.487007   2.728973
     7  F    1.341583   2.335557   2.735180   2.728652   3.487016
     8  H    1.090795   2.172873   3.291347   2.628520   2.628462
                    6          7          8
     6  F    0.000000
     7  F    2.183075   0.000000
     8  H    1.996842   1.996819   0.000000
 Symmetry turned off by external request.
 Stoichiometry    C2HF5
 Rotational constants (GHZ):           3.7122842           2.4365052           2.0185569
 Leave Link  202 at Sat May 24 07:18:39 2025, MaxMem=  3758096384 cpu:               0.1 elap:               0.0
 (Enter /apps/easybuild-2022/easybuild/software/Compiler/NVHPC/22.11-CUDA-11.7.0/Gaussian/g16c01-CUDA-11.7.0/g16/l301.exe)
 Standard basis: def2TZVPP (5D, 7F)
 Ernie: Thresh=  0.10000D-02 Tol=  0.10000D-05 Strict=F.
   231 basis functions,   374 primitive gaussians,   267 cartesian basis functions
    29 alpha electrons       29 beta electrons
       nuclear repulsion energy       361.3523724336 Hartrees.
 IExCor= 4336 DFT=T Ex+Corr=M062X ExCW=0 ScaHFX=  0.540000
 ScaDFX=  1.000000  1.000000  1.000000  1.000000 ScalE2=  1.000000  1.000000
 IRadAn=      5 IRanWt=     -1 IRanGd=            0 ICorTp=0 IEmpDi=  4
 NAtoms=    8 NActive=    8 NUniq=    8 SFac= 1.00D+00 NAtFMM=   60 NAOKFM=F Big=F
 Integral buffers will be    131072 words long.
 Raffenetti 2 integral format.
 Two-electron integral symmetry is turned off.
 Leave Link  301 at Sat May 24 07:18:39 2025, MaxMem=  3758096384 cpu:               0.1 elap:               0.0
 (Enter /apps/easybuild-2022/easybuild/software/Compiler/NVHPC/22.11-CUDA-11.7.0/Gaussian/g16c01-CUDA-11.7.0/g16/l302.exe)
 NPDir=0 NMtPBC=     1 NCelOv=     1 NCel=       1 NClECP=     1 NCelD=      1
         NCelK=      1 NCelE2=     1 NClLst=     1 CellRange=     0.0.
 One-electron integrals computed using PRISM.
   1 Symmetry operations used in ECPInt.
 ECPInt:  NShTT=    3486 NPrTT=   11183 LenC2=    3397 LenP2D=    8729.
 LDataN:  DoStor=T MaxTD1= 6 Len=  172
 NBasis=   231 RedAO= T EigKep=  5.12D-04  NBF=   231
 NBsUse=   231 1.00D-06 EigRej= -1.00D+00 NBFU=   231
 Precomputing XC quadrature grid using
 IXCGrd= 4 IRadAn=           5 IRanWt=          -1 IRanGd=           0 AccXCQ= 0.00D+00.
 Generated NRdTot=       0 NPtTot=           0 NUsed=           0 NTot=          32
 NSgBfM=   266   266   266   266   266 MxSgAt=     8 MxSgA2=     8.
 Leave Link  302 at Sat May 24 07:18:39 2025, MaxMem=  3758096384 cpu:               0.8 elap:               0.2
 (Enter /apps/easybuild-2022/easybuild/software/Compiler/NVHPC/22.11-CUDA-11.7.0/Gaussian/g16c01-CUDA-11.7.0/g16/l303.exe)
 DipDrv:  MaxL=1.
 Leave Link  303 at Sat May 24 07:18:39 2025, MaxMem=  3758096384 cpu:               0.1 elap:               0.0
 (Enter /apps/easybuild-2022/easybuild/software/Compiler/NVHPC/22.11-CUDA-11.7.0/Gaussian/g16c01-CUDA-11.7.0/g16/l401.exe)
 Initial guess from the checkpoint file:  "/tmp/Gau-167321.chk"
 B after Tr=     0.000000    0.000000    0.000000
         Rot=    1.000000    0.000000    0.000000    0.000000 Ang=   0.00 deg.
 Guess basis will be translated and rotated to current coordinates.
 JPrj=2 DoOrth=T DoCkMO=T.
 Leave Link  401 at Sat May 24 07:18:39 2025, MaxMem=  3758096384 cpu:               0.3 elap:               0.1
 (Enter /apps/easybuild-2022/easybuild/software/Compiler/NVHPC/22.11-CUDA-11.7.0/Gaussian/g16c01-CUDA-11.7.0/g16/l502.exe)
 Keep R1 ints in memory in canonical form, NReq=368651279.
 FoFCou: FMM=F IPFlag=           0 FMFlag=           0 FMFlg1=           0
         NFxFlg=           0 DoJE=F BraDBF=F KetDBF=F FulRan=T
         wScrn=  0.000000 ICntrl=       600 IOpCl=  0 I1Cent=           0 NGrid=           0
         NMat0=    1 NMatS0=  26796 NMatT0=    0 NMatD0=    1 NMtDS0=    0 NMtDT0=    0
 Symmetry not used in FoFCou.
 Two-electron integral symmetry not used.
 Closed shell SCF:
 Using DIIS extrapolation, IDIIS=  1040.
 NGot=  3758096384 LenX=  3398923531 LenY=  3398851801
 Requested convergence on RMS density matrix=1.00D-08 within  32 cycles.
 Requested convergence on MAX density matrix=1.00D-06.
 Requested convergence on             energy=1.00D-06.
 No special actions if energy rises.

 Cycle   1  Pass 1  IDiag  1:
 E= -576.091897097220    
 DIIS: error= 4.03D-08 at cycle   1 NSaved=   1.
 NSaved= 1 IEnMin= 1 EnMin= -576.091897097220     IErMin= 1 ErrMin= 4.03D-08
 ErrMax= 4.03D-08  0.00D+00 EMaxC= 1.00D-01 BMatC= 5.54D-13 BMatP= 5.54D-13
 IDIUse=1 WtCom= 1.00D+00 WtEn= 0.00D+00
 Coeff-Com:  0.100D+01
 Coeff:      0.100D+01
 Gap=     0.532 Goal=   None    Shift=    0.000
 RMSDP=3.53D-09 MaxDP=1.15D-07              OVMax= 2.12D-07

 SCF Done:  E(RM062X) =  -576.091897097     A.U. after    1 cycles
            NFock=  1  Conv=0.35D-08     -V/T= 2.0036
 KE= 5.740504088596D+02 PE=-2.091762703172D+03 EE= 5.802680247812D+02
 Leave Link  502 at Sat May 24 07:18:41 2025, MaxMem=  3758096384 cpu:              14.5 elap:               2.2
 (Enter /apps/easybuild-2022/easybuild/software/Compiler/NVHPC/22.11-CUDA-11.7.0/Gaussian/g16c01-CUDA-11.7.0/g16/l508.exe)
 QCSCF skips out because SCF is already converged.
 Leave Link  508 at Sat May 24 07:18:41 2025, MaxMem=  3758096384 cpu:               0.0 elap:               0.0
 (Enter /apps/easybuild-2022/easybuild/software/Compiler/NVHPC/22.11-CUDA-11.7.0/Gaussian/g16c01-CUDA-11.7.0/g16/l801.exe)
 DoSCS=F DFT=T ScalE2(SS,OS)=  1.000000  1.000000
 Range of M.O.s used for correlation:     1   231
 NBasis=   231 NAE=    29 NBE=    29 NFC=     0 NFV=     0
 NROrb=    231 NOA=    29 NOB=    29 NVA=   202 NVB=   202

 **** Warning!!: The largest alpha MO coefficient is  0.15774758D+02

 Leave Link  801 at Sat May 24 07:18:41 2025, MaxMem=  3758096384 cpu:               0.1 elap:               0.0
 (Enter /apps/easybuild-2022/easybuild/software/Compiler/NVHPC/22.11-CUDA-11.7.0/Gaussian/g16c01-CUDA-11.7.0/g16/l1101.exe)
 Using compressed storage, NAtomX=     8.
 Will process      9 centers per pass.
   1 Symmetry operations used in ECPInt.
 ECPInt:  NShTT=    3486 NPrTT=   11183 LenC2=    3397 LenP2D=    8729.
 LDataN:  DoStor=T MaxTD1= 7 Len=  274
 Leave Link 1101 at Sat May 24 07:18:42 2025, MaxMem=  3758096384 cpu:               1.0 elap:               0.2
 (Enter /apps/easybuild-2022/easybuild/software/Compiler/NVHPC/22.11-CUDA-11.7.0/Gaussian/g16c01-CUDA-11.7.0/g16/l1102.exe)
 Symmetrizing basis deriv contribution to polar:
 IMax=3 JMax=2 DiffMx= 0.00D+00
 Leave Link 1102 at Sat May 24 07:18:42 2025, MaxMem=  3758096384 cpu:               0.1 elap:               0.0
 (Enter /apps/easybuild-2022/easybuild/software/Compiler/NVHPC/22.11-CUDA-11.7.0/Gaussian/g16c01-CUDA-11.7.0/g16/l1110.exe)
 Forming Gx(P) for the SCF density, NAtomX=     8.
 Integral derivatives from FoFJK, PRISM(SPDF).
 Do as many integral derivatives as possible in FoFJK.
 G2DrvN: MDV=    3758095424.
 G2DrvN: will do     9 centers at a time, making    1 passes.
 Calling FoFCou, ICntrl=  3107 FMM=F I1Cent=   0 AccDes= 0.00D+00.
 FoFJK:  IHMeth= 1 ICntrl=    3107 DoSepK=F KAlg= 0 I1Cent=           0 FoldK=F
 IRaf=         0 NMat=       1 IRICut=       1 DoRegI=T DoRafI=F ISym2E= 0 IDoP0=0 IntGTp=1.
 FoFCou: FMM=F IPFlag=           0 FMFlag=      100000 FMFlg1=           0
         NFxFlg=           0 DoJE=F BraDBF=F KetDBF=F FulRan=T
         wScrn=  0.000000 ICntrl=      3107 IOpCl=  0 I1Cent=           0 NGrid=           0
         NMat0=    1 NMatS0=      1 NMatT0=    0 NMatD0=    1 NMtDS0=    0 NMtDT0=    0
 Symmetry not used in FoFCou.
 End of G2Drv F.D. properties file   721 does not exist.
 End of G2Drv F.D. properties file   722 does not exist.
 End of G2Drv F.D. properties file   788 does not exist.
 Leave Link 1110 at Sat May 24 07:18:56 2025, MaxMem=  3758096384 cpu:             113.3 elap:              14.6
 (Enter /apps/easybuild-2022/easybuild/software/Compiler/NVHPC/22.11-CUDA-11.7.0/Gaussian/g16c01-CUDA-11.7.0/g16/l1002.exe)
 Minotr:  Closed shell wavefunction.
          IDoAtm=11111111
          Direct CPHF calculation.
          Differentiating once with respect to electric field.
                with respect to dipole field.
          Differentiating once with respect to nuclear coordinates.
          Requested convergence is 1.0D-08 RMS, and 1.0D-07 maximum.
          Secondary convergence is 1.0D-12 RMS, and 1.0D-12 maximum.
          NewPWx=T KeepS1=F KeepF1=F KeepIn=T MapXYZ=F SortEE=F KeepMc=T.
         2406 words used for storage of precomputed grid.
 Keep R1 ints in memory in canonical form, NReq=368655254.
 FoFCou: FMM=F IPFlag=           0 FMFlag=           0 FMFlg1=           0
         NFxFlg=           0 DoJE=F BraDBF=F KetDBF=F FulRan=T
         wScrn=  0.000000 ICntrl=       600 IOpCl=  0 I1Cent=           0 NGrid=           0
         NMat0=    1 NMatS0=  26796 NMatT0=    0 NMatD0=    1 NMtDS0=    0 NMtDT0=    0
 Symmetry not used in FoFCou.
 Two-electron integral symmetry not used.
          MDV=    3758096384 using IRadAn=       1.
          Solving linear equations simultaneously, MaxMat=       0.
          There are    27 degrees of freedom in the 1st order CPHF.  IDoFFX=6 NUNeed=     3.
     24 vectors produced by pass  0 Test12= 2.17D-14 3.70D-09 XBig12= 8.65D+00 9.01D-01.
 AX will form    24 AO Fock derivatives at one time.
     24 vectors produced by pass  1 Test12= 2.17D-14 3.70D-09 XBig12= 1.14D+00 1.65D-01.
     24 vectors produced by pass  2 Test12= 2.17D-14 3.70D-09 XBig12= 2.36D-02 2.34D-02.
     24 vectors produced by pass  3 Test12= 2.17D-14 3.70D-09 XBig12= 3.23D-04 2.94D-03.
     24 vectors produced by pass  4 Test12= 2.17D-14 3.70D-09 XBig12= 4.52D-06 3.27D-04.
     24 vectors produced by pass  5 Test12= 2.17D-14 3.70D-09 XBig12= 3.79D-08 3.09D-05.
     22 vectors produced by pass  6 Test12= 2.17D-14 3.70D-09 XBig12= 2.18D-10 2.08D-06.
      9 vectors produced by pass  7 Test12= 2.17D-14 3.70D-09 XBig12= 8.97D-13 1.19D-07.
      3 vectors produced by pass  8 Test12= 2.17D-14 3.70D-09 XBig12= 3.48D-15 6.81D-09.
 InvSVY:  IOpt=1 It=  1 EMax= 3.11D-15
 Solved reduced A of dimension   178 with    27 vectors.
 FullF1:  Do perturbations      1 to       3.
 Isotropic polarizability for W=    0.000000       27.56 Bohr**3.
 End of Minotr F.D. properties file   721 does not exist.
 End of Minotr F.D. properties file   722 does not exist.
 End of Minotr F.D. properties file   788 does not exist.
 Leave Link 1002 at Sat May 24 07:19:18 2025, MaxMem=  3758096384 cpu:             168.9 elap:              21.5
 (Enter /apps/easybuild-2022/easybuild/software/Compiler/NVHPC/22.11-CUDA-11.7.0/Gaussian/g16c01-CUDA-11.7.0/g16/l701.exe)
 ... and contract with generalized density number  0.
 Compute integral second derivatives.
   1 Symmetry operations used in ECPInt.
 ECPInt:  NShTT=    3486 NPrTT=   11183 LenC2=    3397 LenP2D=    8729.
 LDataN:  DoStor=T MaxTD1= 8 Len=  415
 Leave Link  701 at Sat May 24 07:19:18 2025, MaxMem=  3758096384 cpu:               0.8 elap:               0.2
 (Enter /apps/easybuild-2022/easybuild/software/Compiler/NVHPC/22.11-CUDA-11.7.0/Gaussian/g16c01-CUDA-11.7.0/g16/l702.exe)
 L702 exits ... SP integral derivatives will be done elsewhere.
 Leave Link  702 at Sat May 24 07:19:18 2025, MaxMem=  3758096384 cpu:               0.1 elap:               0.0
 (Enter /apps/easybuild-2022/easybuild/software/Compiler/NVHPC/22.11-CUDA-11.7.0/Gaussian/g16c01-CUDA-11.7.0/g16/l703.exe)
 Integral derivatives from FoFJK, PRISM(SPDF).
 Compute integral second derivatives, UseDBF=F ICtDFT=           0.
 Calling FoFJK, ICntrl=    100127 FMM=F ISym2X=0 I1Cent= 0 IOpClX= 0 NMat=1 NMatS=1 NMatT=0.
 FoFJK:  IHMeth= 1 ICntrl=  100127 DoSepK=F KAlg= 0 I1Cent=           0 FoldK=F
 IRaf=         0 NMat=       1 IRICut=       1 DoRegI=T DoRafI=F ISym2E= 0 IDoP0=0 IntGTp=1.
 FoFCou: FMM=F IPFlag=           0 FMFlag=      100000 FMFlg1=         800
         NFxFlg=           0 DoJE=F BraDBF=F KetDBF=F FulRan=T
         wScrn=  0.000000 ICntrl=    100127 IOpCl=  0 I1Cent=           0 NGrid=           0
         NMat0=    1 NMatS0=      1 NMatT0=    0 NMatD0=    1 NMtDS0=    0 NMtDT0=    0
 Symmetry not used in FoFCou.
 Leave Link  703 at Sat May 24 07:19:53 2025, MaxMem=  3758096384 cpu:             277.9 elap:              35.3
 (Enter /apps/easybuild-2022/easybuild/software/Compiler/NVHPC/22.11-CUDA-11.7.0/Gaussian/g16c01-CUDA-11.7.0/g16/l716.exe)
 Dipole        = 4.50054703D-01 4.30046125D-01-4.81428837D-02
 Polarizability= 2.76111480D+01-6.33789868D-01 2.75623864D+01
                 1.46384502D-01 3.10670168D-01 2.74926871D+01
 Full mass-weighted force constant matrix:
 Low frequencies ---  -10.9653   -5.4651   -0.0012    0.0007    0.0012    6.1832
 Low frequencies ---   77.2460  214.6003  247.4271
 Diagonal vibrational polarizability:
       11.1000681      11.5467754       7.5806405
 Harmonic frequencies (cm**-1), IR intensities (KM/Mole), Raman scattering
 activities (A**4/AMU), depolarization ratios for plane and unpolarized
 incident light, reduced masses (AMU), force constants (mDyne/A),
 and normal coordinates:
                      1                      2                      3
                      A                      A                      A
 Frequencies --     77.2344               214.6000               247.4259
 Red. masses --     13.3872                18.6365                14.1504
 Frc consts  --      0.0471                 0.5057                 0.5104
 IR Inten    --      0.9257                 2.4395                 4.0395
  Atom  AN      X      Y      Z        X      Y      Z        X      Y      Z
     1   6    -0.08   0.09   0.02     0.11  -0.11  -0.03    -0.07  -0.07   0.02
     2   6    -0.03   0.03   0.01     0.11  -0.12  -0.03    -0.17  -0.16   0.03
     3   9    -0.22   0.23   0.05     0.01  -0.00  -0.00    -0.10  -0.24   0.62
     4   9    -0.10  -0.23  -0.15    -0.12  -0.14   0.45    -0.01  -0.02  -0.13
     5   9     0.26   0.05   0.11     0.05   0.22  -0.43    -0.05   0.02  -0.13
     6   9    -0.26  -0.36  -0.10    -0.12  -0.14   0.45     0.16   0.19  -0.21
     7   9     0.39   0.21   0.07     0.05   0.21  -0.43     0.15   0.20  -0.21
     8   1    -0.37   0.40   0.09     0.01  -0.01  -0.01    -0.02  -0.13   0.48
                      4                      5                      6
                      A                      A                      A
 Frequencies --    367.9138               422.6334               528.8547
 Red. masses --     17.8087                15.3515                14.9235
 Frc consts  --      1.4203                 1.6156                 2.4592
 IR Inten    --      0.0540                 1.1539                 9.0053
  Atom  AN      X      Y      Z        X      Y      Z        X      Y      Z
     1   6    -0.03   0.01  -0.16    -0.20   0.21   0.05    -0.18  -0.17   0.02
     2   6     0.07   0.03   0.13     0.03  -0.03  -0.01    -0.21  -0.18  -0.08
     3   9     0.06   0.06  -0.01     0.29  -0.31  -0.07    -0.29  -0.23  -0.18
     4   9    -0.05   0.04   0.47    -0.17  -0.28   0.19    -0.03   0.45   0.12
     5   9     0.14  -0.16   0.43     0.25   0.20  -0.21     0.46  -0.07   0.00
     6   9     0.03  -0.10  -0.46    -0.15   0.18  -0.28    -0.06   0.17   0.07
     7   9    -0.19   0.14  -0.41    -0.10   0.08   0.34     0.17  -0.09   0.01
     8   1    -0.03   0.02  -0.21    -0.28   0.30   0.07    -0.15  -0.21   0.32
                      7                      8                      9
                      A                      A                      A
 Frequencies --    589.5082               594.9683               740.0415
 Red. masses --      9.7392                16.2176                11.9172
 Frc consts  --      1.9941                 3.3824                 3.8454
 IR Inten    --     16.1556                 0.8970                37.7514
  Atom  AN      X      Y      Z        X      Y      Z        X      Y      Z
     1   6    -0.07   0.01  -0.34    -0.10   0.10   0.03    -0.27  -0.28   0.13
     2   6     0.07   0.09  -0.09     0.23  -0.25  -0.06     0.00  -0.07   0.32
     3   9     0.12   0.08   0.13    -0.27   0.28   0.06    -0.06  -0.02  -0.20
     4   9    -0.10  -0.08   0.09     0.43  -0.03   0.25     0.35  -0.18   0.00
     5   9    -0.07  -0.12   0.08    -0.06  -0.36  -0.34    -0.14   0.35   0.12
     6   9    -0.24   0.31   0.07    -0.11   0.11  -0.16    -0.09   0.16  -0.09
     7   9     0.29  -0.26  -0.06    -0.07   0.08   0.20     0.13  -0.07  -0.14
     8   1    -0.11   0.05  -0.67    -0.21   0.23   0.06    -0.26  -0.32   0.34
                     10                     11                     12
                      A                      A                      A
 Frequencies --    894.4340              1184.9117              1202.7528
 Red. masses --      5.9487                 6.7812                 4.6725
 Frc consts  --      2.8040                 5.6096                 3.9825
 IR Inten    --     41.5790               131.1229               102.8198
  Atom  AN      X      Y      Z        X      Y      Z        X      Y      Z
     1   6    -0.24  -0.28   0.23     0.33   0.24   0.33    -0.30   0.32   0.07
     2   6    -0.00   0.00  -0.02    -0.06  -0.09   0.17     0.08  -0.09  -0.02
     3   9     0.24   0.23  -0.01     0.03   0.03  -0.00    -0.01   0.01   0.00
     4   9    -0.14   0.05  -0.03    -0.04   0.04  -0.04    -0.02   0.01   0.00
     5   9     0.02  -0.13  -0.07     0.02  -0.03  -0.06    -0.01   0.02   0.00
     6   9     0.02   0.03  -0.02    -0.22   0.06  -0.09     0.17  -0.06   0.06
     7   9     0.02   0.03  -0.02     0.01  -0.19  -0.15     0.03  -0.16  -0.10
     8   1    -0.20  -0.34   0.70     0.36   0.20   0.62    -0.57   0.61   0.14
                     13                     14                     15
                      A                      A                      A
 Frequencies --   1243.5488              1278.6946              1351.5314
 Red. masses --      3.6980                13.1652                 3.4510
 Frc consts  --      3.3694                12.6827                 3.7140
 IR Inten    --    190.1713               392.7907               188.8886
  Atom  AN      X      Y      Z        X      Y      Z        X      Y      Z
     1   6    -0.04  -0.05   0.07    -0.11   0.12   0.03    -0.01  -0.02   0.04
     2   6     0.21   0.11   0.34    -0.60   0.64   0.15     0.28   0.29  -0.13
     3   9    -0.06  -0.05  -0.02     0.03  -0.04  -0.01    -0.11  -0.10   0.01
     4   9    -0.10   0.04  -0.07     0.22  -0.14   0.09    -0.01  -0.02   0.01
     5   9     0.02  -0.08  -0.10     0.10  -0.20  -0.17    -0.02  -0.02   0.01
     6   9     0.02   0.02  -0.02     0.07  -0.05   0.05    -0.03   0.00  -0.01
     7   9     0.01   0.02  -0.01     0.03  -0.06  -0.07    -0.00  -0.03  -0.02
     8   1    -0.13   0.07  -0.87     0.04  -0.04  -0.02     0.06  -0.11   0.88
                     16                     17                     18
                      A                      A                      A
[...]
     14 -0.291828D-01 -0.293330D-01 -0.122463D-01 -0.121160D-01  0.239674D-01
     15  0.184813D-01 -0.282368D-01  0.284349D-01 -0.480066D-02 -0.109893D-01
     16 -0.280423D-01  0.186619D-01 -0.483307D-02  0.283244D-01 -0.108236D-01
     17  0.179325D-01  0.296145D-02 -0.715116D-02  0.337666D-02 -0.321232D-02
     18  0.291187D-02  0.179431D-01  0.343603D-02 -0.714131D-02 -0.326297D-02
     19  0.192866D-01  0.194001D-01 -0.778988D-02 -0.779336D-02  0.403001D-02
     20 -0.167931D-01  0.197530D-01 -0.712020D-02  0.967379D-02 -0.533278D-02
     21 -0.896466D-03 -0.140927D-01 -0.512566D-02  0.292924D-02 -0.120978D-02
     22  0.168881D-01  0.382068D-02 -0.344976D-03  0.765725D-02 -0.950225D-02
     23 -0.197343D-01  0.168484D-01 -0.964291D-02  0.714392D-02  0.532198D-02
     24 -0.383768D-02 -0.169973D-01 -0.764837D-02  0.399366D-03  0.944498D-02
     25  0.139469D-01  0.916057D-03 -0.286768D-02  0.512738D-02  0.115251D-02
     26 -0.144220D-01  0.145016D-01  0.713428D-02 -0.710686D-02 -0.377123D-04
     27  0.147463D-02 -0.193441D-01  0.912881D-02 -0.138514D-01  0.408529D-02
     28  0.192592D-01 -0.143071D-02  0.139095D-01 -0.912340D-02 -0.420718D-02
               11            12            13            14            15 
     11  0.110403D+00
     12  0.260221D-01  0.795399D-01
     13  0.259934D-01  0.222744D-01  0.793543D-01
     14  0.649815D-02 -0.323154D-02 -0.327128D-02  0.185343D+00
     15 -0.880294D-02 -0.665564D-02  0.309571D-02 -0.434253D-03  0.187269D+00
     16 -0.879096D-02  0.305530D-02 -0.665147D-02 -0.731703D-03  0.345629D-02
     17  0.254606D-02  0.375310D-02  0.689251D-03 -0.902776D-01 -0.935441D-01
     18  0.253013D-02  0.685909D-03  0.375446D-02 -0.901633D-01 -0.108384D-01
     19  0.621352D-02  0.259120D-02  0.258142D-02 -0.914032D-02 -0.905131D-01
     20  0.188632D-01 -0.108243D-01 -0.458008D-02 -0.297872D-02 -0.576830D-02
     21  0.204022D-01 -0.126116D-01 -0.377302D-02  0.298907D-02  0.848984D-03
     22  0.173359D-01 -0.116259D-01 -0.277193D-02 -0.889165D-02  0.578339D-02
     23 -0.188612D-01  0.456700D-02  0.107946D-01  0.297827D-02 -0.855705D-02
     24 -0.173222D-01  0.277969D-02  0.116017D-01  0.894607D-02 -0.193977D-02
     25 -0.203884D-01  0.376540D-02  0.126028D-01 -0.293466D-02  0.299463D-02
     26 -0.102186D-04  0.854408D-02 -0.852440D-02 -0.162833D-04 -0.248786D-02
     27  0.152879D-02  0.675677D-02 -0.771733D-02  0.595151D-02  0.412942D-02
     28 -0.153749D-02  0.774248D-02 -0.671625D-02 -0.592922D-02  0.906382D-02
               16            17            18            19            20 
     16  0.187290D+00
     17 -0.107491D-01  0.124690D+00
     18 -0.934137D-01  0.375297D-01  0.124552D+00
     19 -0.904363D-01  0.371313D-01  0.371054D-01  0.121294D+00
     20  0.854672D-02 -0.171897D-01  0.181016D-01 -0.680016D-03  0.332746D-01
     21 -0.308444D-02  0.188426D-01 -0.104863D-03 -0.200023D-01  0.603626D-02
     22  0.195047D-02  0.103025D-02 -0.179213D-01  0.186204D-01  0.688850D-02
     23  0.582247D-02 -0.181084D-01  0.171635D-01  0.669685D-03  0.927021D-02
     24 -0.580870D-02  0.179240D-01 -0.104296D-02 -0.186526D-01 -0.179681D-01
     25 -0.773781D-03  0.111559D-03 -0.188594D-01  0.199701D-01 -0.171158D-01
     26  0.250675D-02 -0.191457D-01  0.191416D-01  0.196947D-05  0.120043D-01
     27 -0.912442D-02  0.168866D-01  0.935165D-03 -0.193203D-01 -0.152340D-01
     28 -0.408950D-02 -0.925811D-03 -0.168813D-01  0.193024D-01 -0.143818D-01
               21            22            23            24            25 
     21  0.320938D-01
     22  0.628616D-02  0.337368D-01
     23 -0.171318D-01 -0.179706D-01  0.332405D-01
     24  0.892572D-02 -0.185729D-01  0.683848D-02  0.337323D-01
     25 -0.168819D-01  0.887772D-02  0.599971D-02  0.623364D-02  0.319933D-01
     26 -0.136051D-01 -0.135914D-01  0.120014D-01 -0.136080D-01 -0.135942D-01
     27  0.124524D-01 -0.141937D-01 -0.144006D-01  0.132858D-01 -0.133603D-01
     28 -0.133552D-01  0.132569D-01 -0.152394D-01 -0.142128D-01  0.123993D-01
               26            27            28 
     26  0.271384D-01
     27  0.152900D-02  0.292154D-01
     28  0.154277D-02  0.256933D-02  0.291815D-01
 Leave Link  716 at Sat May 24 07:19:53 2025, MaxMem=  3758096384 cpu:               0.1 elap:               0.0
 (Enter /apps/easybuild-2022/easybuild/software/Compiler/NVHPC/22.11-CUDA-11.7.0/Gaussian/g16c01-CUDA-11.7.0/g16/l103.exe)

 GradGradGradGradGradGradGradGradGradGradGradGradGradGradGradGradGradGrad
 Berny optimization.
 Red2BG is reusing G-inverse.
 Internal  Forces:  Max     0.000005601 RMS     0.000001436
 Search for a local minimum.
 Step number   1 out of a maximum of    2
 All quantities printed in internal units (Hartrees-Bohrs-Radians)
 Second derivative matrix not updated -- analytic derivatives used.
 ITU=  0
     Eigenvalues ---    0.00296   0.06290   0.09531   0.10230   0.10870
     Eigenvalues ---    0.15581   0.19193   0.22473   0.24287   0.26538
     Eigenvalues ---    0.30941   0.34585   0.39351   0.39447   0.41962
     Eigenvalues ---    0.42315   0.50728   0.58161
 Angle between quadratic step and forces=  75.79 degrees.
 Linear search not attempted -- first point.
 Iteration  1 RMS(Cart)=  0.00002044 RMS(Int)=  0.00000000
 Iteration  2 RMS(Cart)=  0.00000000 RMS(Int)=  0.00000000
 ITry= 1 IFail=0 DXMaxC= 4.39D-05 DCOld= 1.00D+10 DXMaxT= 3.00D-01 DXLimC= 3.00D+00 Rises=F
 Variable       Old X    -DE/DX   Delta X   Delta X   Delta X     New X
                                 (Linear)    (Quad)   (Total)
    R1        2.89341   0.00001   0.00000   0.00002   0.00002   2.89342
    R2        2.53518  -0.00000   0.00000  -0.00000  -0.00000   2.53518
    R3        2.53523  -0.00000   0.00000  -0.00000  -0.00000   2.53522
    R4        2.06130   0.00000   0.00000   0.00000   0.00000   2.06130
    R5        2.50181   0.00000   0.00000   0.00000   0.00000   2.50181
    R6        2.51304   0.00000   0.00000   0.00000   0.00000   2.51304
    R7        2.51305  -0.00000   0.00000  -0.00000  -0.00000   2.51305
    A1        1.89557   0.00000   0.00000   0.00001   0.00001   1.89558
    A2        1.89550   0.00000   0.00000   0.00000   0.00000   1.89550
    A3        1.93416  -0.00000   0.00000  -0.00001  -0.00001   1.93415
    A4        1.90072  -0.00000   0.00000  -0.00000  -0.00000   1.90072
    A5        1.91868  -0.00000   0.00000  -0.00000  -0.00000   1.91868
    A6        1.91862  -0.00000   0.00000  -0.00000  -0.00000   1.91862
    A7        1.94204   0.00000   0.00000   0.00000   0.00000   1.94205
    A8        1.91344   0.00000   0.00000   0.00000   0.00000   1.91344
    A9        1.91349   0.00000   0.00000   0.00000   0.00000   1.91349
   A10        1.90012  -0.00000   0.00000  -0.00000  -0.00000   1.90011
   A11        1.90001  -0.00000   0.00000  -0.00000  -0.00000   1.90001
   A12        1.89403  -0.00000   0.00000  -0.00000  -0.00000   1.89403
    D1        1.03209   0.00000   0.00000   0.00004   0.00004   1.03212
    D2        3.13496   0.00000   0.00000   0.00004   0.00004   3.13500
    D3       -1.07070   0.00000   0.00000   0.00004   0.00004  -1.07066
    D4       -1.03257   0.00000   0.00000   0.00004   0.00004  -1.03254
    D5        1.07031  -0.00000   0.00000   0.00003   0.00003   1.07034
    D6       -3.13536  -0.00000   0.00000   0.00003   0.00003  -3.13532
    D7        3.14141   0.00000   0.00000   0.00004   0.00004   3.14145
    D8       -1.03890  -0.00000   0.00000   0.00003   0.00003  -1.03886
    D9        1.03863   0.00000   0.00000   0.00004   0.00004   1.03866
         Item               Value     Threshold  Converged?
 Maximum Force            0.000006     0.000450     YES
 RMS     Force            0.000001     0.000300     YES
 Maximum Displacement     0.000044     0.001800     YES
 RMS     Displacement     0.000020     0.001200     YES
 Predicted change in Energy=-1.015358D-10
 Optimization completed.
    -- Stationary point found.
                           ----------------------------
                           !   Optimized Parameters   !
                           ! (Angstroms and Degrees)  !
 --------------------------                            --------------------------
 ! Name  Definition              Value          Derivative Info.                !
 --------------------------------------------------------------------------------
 ! R1    R(1,2)                  1.5311         -DE/DX =    0.0                 !
 ! R2    R(1,6)                  1.3416         -DE/DX =    0.0                 !
 ! R3    R(1,7)                  1.3416         -DE/DX =    0.0                 !
 ! R4    R(1,8)                  1.0908         -DE/DX =    0.0                 !
 ! R5    R(2,3)                  1.3239         -DE/DX =    0.0                 !
 ! R6    R(2,4)                  1.3298         -DE/DX =    0.0                 !
 ! R7    R(2,5)                  1.3298         -DE/DX =    0.0                 !
 ! A1    A(2,1,6)              108.6084         -DE/DX =    0.0                 !
 ! A2    A(2,1,7)              108.604          -DE/DX =    0.0                 !
 ! A3    A(2,1,8)              110.8192         -DE/DX =    0.0                 !
 ! A4    A(6,1,7)              108.9033         -DE/DX =    0.0                 !
 ! A5    A(6,1,8)              109.9325         -DE/DX =    0.0                 !
 ! A6    A(7,1,8)              109.9289         -DE/DX =    0.0                 !
 ! A7    A(1,2,3)              111.271          -DE/DX =    0.0                 !
 ! A8    A(1,2,4)              109.6319         -DE/DX =    0.0                 !
 ! A9    A(1,2,5)              109.6347         -DE/DX =    0.0                 !
 ! A10   A(3,2,4)              108.8687         -DE/DX =    0.0                 !
 ! A11   A(3,2,5)              108.8628         -DE/DX =    0.0                 !
 ! A12   A(4,2,5)              108.5199         -DE/DX =    0.0                 !
 ! D1    D(6,1,2,3)             59.1341         -DE/DX =    0.0                 !
 ! D2    D(6,1,2,4)            179.6202         -DE/DX =    0.0                 !
 ! D3    D(6,1,2,5)            -61.3464         -DE/DX =    0.0                 !
 ! D4    D(7,1,2,3)            -59.1621         -DE/DX =    0.0                 !
 ! D5    D(7,1,2,4)             61.324          -DE/DX =    0.0                 !
 ! D6    D(7,1,2,5)           -179.6426         -DE/DX =    0.0                 !
 ! D7    D(8,1,2,3)            179.9897         -DE/DX =    0.0                 !
 ! D8    D(8,1,2,4)            -59.5243         -DE/DX =    0.0                 !
 ! D9    D(8,1,2,5)             59.5091         -DE/DX =    0.0                 !
 --------------------------------------------------------------------------------
 GradGradGradGradGradGradGradGradGradGradGradGradGradGradGradGradGradGrad

 Leave Link  103 at Sat May 24 07:19:54 2025, MaxMem=  3758096384 cpu:               0.1 elap:               0.0
 (Enter /apps/easybuild-2022/easybuild/software/Compiler/NVHPC/22.11-CUDA-11.7.0/Gaussian/g16c01-CUDA-11.7.0/g16/l9999.exe)

 ----------------------------------------------------------------------

 Electric dipole moment (input orientation):
 (Debye = 10**-18 statcoulomb cm , SI units = C m)
                  (au)            (Debye)         (10**-30 SI)
   Tot        0.624345D+00      0.158693D+01      0.529342D+01
   x          0.450055D+00      0.114392D+01      0.381572D+01
   y          0.430046D+00      0.109307D+01      0.364608D+01
   z         -0.481429D-01     -0.122367D+00     -0.408172D+00

 Dipole polarizability, Alpha (input orientation).
 (esu units = cm**3 , SI units = C**2 m**2 J**-1)
 Alpha(0;0):
               (au)            (10**-24 esu)      (10**-40 SI)
   iso        0.275554D+02      0.408329D+01      0.454327D+01
   aniso      0.125281D+01      0.185647D+00      0.206561D+00
   xx         0.276111D+02      0.409155D+01      0.455246D+01
   yx        -0.633790D+00     -0.939180D-01     -0.104498D+00
   yy         0.275624D+02      0.408432D+01      0.454442D+01
   zx         0.146385D+00      0.216919D-01      0.241355D-01
   zy         0.310670D+00      0.460366D-01      0.512226D-01
   zz         0.274927D+02      0.407400D+01      0.453293D+01

 ----------------------------------------------------------------------

 Dipole orientation:
     6         -0.39138599          1.94167313          0.14619728
     6         -1.94496278         -0.12843933         -1.14718276
     9         -1.80718475          0.05606279         -3.63837635
     9         -1.08874340         -2.38617747         -0.45085902
     9         -4.35189969          0.06219871         -0.45024207
     9         -1.27615698          4.19908086         -0.59437283
     9          2.02332613          1.72270348         -0.59446774
     1         -0.51489296          1.77692551          2.19719081

 Electric dipole moment (dipole orientation):
 (Debye = 10**-18 statcoulomb cm , SI units = C m)
                  (au)            (Debye)         (10**-30 SI)
   Tot        0.624345D+00      0.158693D+01      0.529342D+01
   x          0.000000D+00      0.000000D+00      0.000000D+00
   y          0.000000D+00      0.000000D+00      0.000000D+00
   z          0.624345D+00      0.158693D+01      0.529342D+01

 Dipole polarizability, Alpha (dipole orientation).
 (esu units = cm**3 , SI units = C**2 m**2 J**-1)
 Alpha(0;0):
               (au)            (10**-24 esu)      (10**-40 SI)
   iso        0.275554D+02      0.408329D+01      0.454327D+01
   aniso      0.125281D+01      0.185647D+00      0.206561D+00
   xx         0.279822D+02      0.414654D+01      0.461364D+01
   yx        -0.345073D+00     -0.511346D-01     -0.568949D-01
   yy         0.277753D+02      0.411588D+01      0.457953D+01
   zx        -0.155843D+00     -0.230936D-01     -0.256951D-01
   zy        -0.235391D+00     -0.348813D-01     -0.388107D-01
   zz         0.269087D+02      0.398745D+01      0.443664D+01

 ----------------------------------------------------------------------
 Unable to Open any file for archive entry.
 1\1\GINC-SPARTAN-BM171\Freq\RM062X\def2TZVPP\C2H1F5\AKHALILOV\24-May-2
 025\0\\#P Geom=AllCheck Guess=TCheck SCRF=Check GenChk RM062X/def2TZVP
 P Freq\\Gaussian input prepared by ASE\\0,1\C,-0.587522,0.663992,-0.56
 44\C,-0.850774,0.102555,0.835539\F,-1.821717,-0.797255,0.817385\F,0.25
 5599,-0.467951,1.303452\F,-1.195765,1.090853,1.655749\F,-1.717281,1.22
 6414,-1.019496\F,-0.249346,-0.349742,-1.375465\H,0.213181,1.404368,-0.
 540928\\Version=ES64L-G16RevC.01\HF=-576.0918971\RMSD=3.530e-09\RMSF=4
 .964e-06\ZeroPoint=0.0386095\Thermal=0.0446469\ETot=-576.0472502\HTot=
 -576.046306\GTot=-576.0840015\Dipole=0.4500547,0.4300461,-0.0481429\Di
 poleDeriv=1.0534719,-0.3342106,0.0877597,-0.3297276,1.0467862,0.173404
 4,0.0625893,0.1504874,0.985101,1.653258,-0.0354259,0.0957581,-0.022072
 3,1.6133547,0.1555018,0.0328611,0.0984343,1.3723493,-0.62496,-0.319392
 1,-0.0055945,-0.3327779,-0.5929944,0.0097068,0.0540898,0.0644346,-0.34
 5454,-0.7223003,0.2085943,-0.1528204,0.2420328,-0.4200287,0.11248,-0.2
 342388,0.1409946,-0.4340261,-0.3357474,0.1258731,0.1082675,0.1075554,-
 0.63359,-0.2361984,0.1255719,-0.3247756,-0.6079191,-0.6924336,0.287835
 ,-0.1787716,0.2030421,-0.3986328,0.0859133,-0.2087311,0.1446436,-0.404
 1852,-0.3144875,0.1017829,0.0742668,0.1766659,-0.6054662,-0.277804,0.1
 508737,-0.2932831,-0.5755099,-0.0168012,-0.0350567,-0.0288655,-0.04471
 85,-0.0094288,-0.0230038,0.0169841,0.0190642,0.009644\Polar=27.611148,
 -0.6337899,27.5623864,0.1463845,0.3106702,27.4926871\PG=Unknown\NImag=
 0\\0.62589924,0.07740970,0.60543790,0.02455794,0.01301086,0.57871571,-
 0.06001794,-0.02996671,0.03728291,0.59632075,-0.02605492,-0.07702466,0
 .07025114,0.01195157,0.60439506,0.01988260,0.05395438,-0.19381830,-0.0
 1405790,-0.02674224,0.64702922,-0.02374936,-0.02320305,-0.00601047,-0.
 20297267,-0.12411022,0.02459338,0.28281443,-0.03079950,-0.02469465,-0.
 00621828,-0.12193242,-0.19528810,0.02606515,0.18597956,0.25384271,0.02
 772051,0.02521507,0.00522324,0.01477281,0.01690935,-0.08941507,0.00475
 747,0.00638731,0.07334117,-0.01591363,0.01040868,-0.00109036,-0.212414
 13,0.08288922,-0.08566192,-0.07790139,-0.00738266,-0.02471297,0.329401
 40,0.02609194,-0.00632222,0.00332735,0.07889847,-0.12713017,0.05649157
 ,-0.02225310,0.02022049,-0.01094758,-0.13149484,0.14918517,-0.03654468
 ,0.01667765,-0.00331753,-0.07330696,0.05231224,-0.13610024,-0.01727776
 ,-0.00613287,0.01069650,0.10850037,-0.05298528,0.11951187,0.00061352,0
 .01478959,0.00610094,-0.09354082,0.03952093,0.04910646,0.01158245,-0.0
 3009346,-0.02139026,-0.02961303,0.05067649,0.02063949,0.10682880,0.005
 37617,-0.00790988,-0.00369101,0.04131978,-0.17734325,-0.11025131,-0.01
 886951,-0.06210702,-0.03858372,0.04559622,-0.03795530,-0.01562444,-0.0
 7186120,0.27773943,0.01384426,-0.04275069,-0.01824689,0.04656895,-0.09
 698872,-0.20492854,-0.01290632,-0.02859708,0.00344251,0.00928645,-0.00
 469224,0.02085544,-0.05842505,0.16986237,0.21378466,-0.25498522,0.0613
 0333,-0.09452780,-0.02098531,0.00967068,-0.00147846,0.00735005,0.00214
 290,-0.00077938,0.00167773,0.00117039,-0.00365243,0.00373297,-0.002937
 62,-0.00228129,0.32440874,0.06872185,-0.10194975,0.04283526,0.02538598
 ,-0.01075406,0.00685134,0.00039788,0.00232275,-0.00072838,0.00207251,-
 0.00258651,0.00658424,-0.00310510,0.00351135,0.00221504,-0.13422460,0.
 12908059,-0.08251317,0.03555010,-0.11888058,-0.04211633,0.01323569,-0.
 00724032,0.00245145,-0.00040865,0.00097707,-0.00336544,0.00714623,-0.0
 1118978,0.00126279,0.00035416,-0.00044148,0.11019242,-0.04967101,0.113
 54150,-0.07911428,0.02585637,0.03151095,-0.00403121,0.01214135,0.00918
 734,0.00232024,0.00159558,-0.00074343,0.00328514,-0.00288073,0.0004499
 4,0.00012194,0.00058375,0.00388600,-0.02407993,0.04929093,0.02180382,0
 .08849787,0.01757227,-0.21100631,-0.12577948,0.00541733,-0.01151175,-0
 .00414459,0.00243729,0.00650793,0.00004053,-0.00315211,0.00400738,-0.0
 0057760,-0.00045406,0.00257292,-0.00054466,0.04217544,-0.03356000,-0.0
 0990293,-0.07438305,0.27195688,0.02324261,-0.11504909,-0.18535620,0.00
 991534,-0.04770652,-0.02338353,0.00015996,0.00359549,0.00180221,-0.001
 18262,0.00306187,-0.00050545,0.00423581,-0.00049358,-0.01477036,0.0126
 4674,-0.00184715,0.01904027,-0.05256498,0.17192299,0.20633265,-0.19273
 232,-0.13659789,0.00217589,-0.00235867,-0.00600862,-0.00157151,0.00055
 625,0.00049000,0.00037526,0.00147791,-0.00020863,0.00119204,0.00027418
 ,0.00079241,0.00002699,-0.03711903,-0.00853945,-0.00771554,0.01300023,
 0.01038689,0.00354714,0.21690145,-0.13831751,-0.17653043,0.00626414,-0
 .01107400,-0.00534307,-0.00222432,-0.00037886,-0.00080411,0.00170742,0
 .00106299,0.00058116,-0.00025394,0.00052680,0.00149175,0.00149598,0.02
 069949,0.01393563,0.00369640,-0.01220420,-0.02896705,-0.01348401,0.139
 68529,0.19563612,0.00980994,0.01339171,-0.06431944,0.02094117,0.018729
 05,0.00785676,0.00423229,0.00530893,-0.00606764,-0.00177351,-0.0014019
 2,0.00004919,-0.00153018,-0.00157248,0.00030466,-0.02011981,-0.0062393
 5,0.00419332,-0.01352964,-0.03101427,-0.00315960,0.00196974,0.00279832
 ,0.06114274\\-0.00000044,-0.00000092,0.00000325,0.00000070,0.00000105,
 -0.00000241,0.00000683,-0.00000397,0.00000230,0.00000501,0.00001107,0.
 00000276,-0.00000632,0.00000346,-0.00000345,-0.00000582,-0.00001078,-0
 .00000306,0.00000639,-0.00000379,0.00000309,-0.00000636,0.00000389,-0.
 00000249\\\@
 The archive entry for this job was punched.


 KNOWING HOW CONTENTED, FREE, AND JOYFUL IS LIFE IN
 THE REALMS OF SCIENCE, ONE FERVENTLY WISHES THAT
 MANY WOULD ENTER HER PORTALS.
   --  DMITRI IVANOVICH MENDELEEV
 "FIRST PRINCIPLES OF CHEMISTRY", LONGMANS, GREEN,
 AND CO.  LONDON, 1891
 Job cpu time:       0 days  0 hours  9 minutes 38.7 seconds.
 Elapsed time:       0 days  0 hours  1 minutes 15.0 seconds.
 File lengths (MBytes):  RWF=     48 Int=      0 D2E=      0 Chk=      5 Scr=      1
 Normal termination of Gaussian 16 at Sat May 24 07:19:54 2025.
done
