 Entering Gaussian System, Link 0=g16
 Initial command:
 /apps/easybuild-2022/easybuild/software/Compiler/NVHPC/22.11-CUDA-11.7.0/Gaussian/g16c01-CUDA-11.7.0/g16/l1.exe "/tmp/Gau-214114.inp" -scrdir="/tmp/"
 Entering Link 1 = /apps/easybuild-2022/easybuild/software/Compiler/NVHPC/22.11-CUDA-11.7.0/Gaussian/g16c01-CUDA-11.7.0/g16/l1.exe PID=    214117.
  
 Copyright (c) 1988-2019, Gaussian, Inc.  All Rights Reserved.
  
 This is part of the Gaussian(R) 16 program.  It is based on
 the Gaussian(R) 09 system (copyright 2009, Gaussian, Inc.),
 the Gaussian(R) 03 system (copyright 2003, Gaussian, Inc.),
 the Gaussian(R) 98 system (copyright 1998, Gaussian, Inc.),
 the Gaussian(R) 94 system (copyright 1995, Gaussian, Inc.),
 the Gaussian 92(TM) system (copyright 1992, Gaussian, Inc.),
 the Gaussian 90(TM) system (copyright 1990, Gaussian, Inc.),
 the Gaussian 88(TM) system (copyright 1988, Gaussian, Inc.),
 the Gaussian 86(TM) system (copyright 1986, Carnegie Mellon
 University), and the Gaussian 82(TM) system (copyright 1983,
 Carnegie Mellon University). Gaussian is a federally registered
 trademark of Gaussian, Inc.
  
 This software contains proprietary and confidential information,
 including trade secrets, belonging to Gaussian, Inc.
  
 This software is provided under written license and may be
 used, copied, transmitted, or stored only in accord with that
 written license.
  
 The following legend is applicable only to US Government
 contracts under FAR:
  
                    RESTRICTED RIGHTS LEGEND
  
 Use, reproduction and disclosure by the US Government is
 subject to restrictions as set forth in subparagraphs (a)
 and (c) of the Commercial Computer Software - Restricted
 Rights clause in FAR 52.227-19.
  
 Gaussian, Inc.
 340 Quinnipiac St., Bldg. 40, Wallingford CT 06492
  
  
 ---------------------------------------------------------------
 Warning -- This program may not be used in any manner that
 competes with the business of Gaussian, Inc. or will provide
 assistance to any competitor of Gaussian, Inc.  The licensee
 of this program is prohibited from giving any competitor of
 Gaussian, Inc. access to this program.  By using this program,
 the user acknowledges that Gaussian, Inc. is engaged in the
 business of creating and licensing software in the field of
 computational chemistry and represents and warrants to the
 licensee that it is not a competitor of Gaussian, Inc. and that
 it will not use this program in any manner prohibited above.
 ---------------------------------------------------------------
  

 Cite this work as:
 Gaussian 16, Revision C.01,
 M. J. Frisch, G. W. Trucks, H. B. Schlegel, G. E. Scuseria, 
 M. A. Robb, J. R. Cheeseman, G. Scalmani, V. Barone, 
 G. A. Petersson, H. Nakatsuji, X. Li, M. Caricato, A. V. Marenich, 
 J. Bloino, B. G. Janesko, R. Gomperts, B. Mennucci, H. P. Hratchian, 
 J. V. Ortiz, A. F. Izmaylov, J. L. Sonnenberg, D. Williams-Young, 
 F. Ding, F. Lipparini, F. Egidi, J. Goings, B. Peng, A. Petrone, 
 T. Henderson, D. Ranasinghe, V. G. Zakrzewski, J. Gao, N. Rega, 
 G. Zheng, W. Liang, M. Hada, M. Ehara, K. Toyota, R. Fukuda, 
 J. Hasegawa, M. Ishida, T. Nakajima, Y. Honda, O. Kitao, H. Nakai, 
 T. Vreven, K. Throssell, J. A. Montgomery, Jr., J. E. Peralta, 
 F. Ogliaro, M. J. Bearpark, J. J. Heyd, E. N. Brothers, K. N. Kudin, 
 V. N. Staroverov, T. A. Keith, R. Kobayashi, J. Normand, 
 K. Raghavachari, A. P. Rendell, J. C. Burant, S. S. Iyengar, 
 J. Tomasi, M. Cossi, J. M. Millam, M. Klene, C. Adamo, R. Cammi, 
 J. W. Ochterski, R. L. Martin, K. Morokuma, O. Farkas, 
 J. B. Foresman, and D. J. Fox, Gaussian, Inc., Wallingford CT, 2019.
 
 ******************************************
 Gaussian 16:  ES64L-G16RevC.01  3-Jul-2019
                24-May-2025 
 ******************************************
 %mem=28GB
 %nprocshared=8
 Will use up to    8 processors via shared memory.
 -----------------------------------------------------------------
 #P M062X/Def2TZVPP Symm(None) scf(xqc) pop(None) freq opt(CalcFC)
 -----------------------------------------------------------------
 1/10=4,18=20,19=15,26=3,38=1/1,3;
 2/9=110,12=2,15=3,17=6,18=5,40=1/2;
 3/5=44,7=202,11=2,25=1,30=1,71=2,74=-55,140=1/1,2,3;
 4//1;
 5/5=2,8=3,13=1,38=5/2,8;
 8/6=4,10=90,11=11/1;
 11/6=1,8=1,9=11,15=111,16=1,31=1/1,2,10;
 10/6=1,13=1,31=1/2;
 7/10=1,25=1,30=1/1,2,3,16;
 1/10=4,18=20,19=15,26=3/3(2);
 2/9=110,15=3/2;
 99//99;
 2/9=110,15=3/2;
 3/5=44,7=202,11=2,25=1,30=1,71=1,74=-55/1,2,3;
 4/5=5,16=3,69=1/1;
 5/5=2,8=3,13=1,38=5/2,8;
 7/30=1/1,2,3,16;
 1/18=20,19=15,26=3/3(-5);
 2/9=110,15=3/2;
 99/9=1/99;
 Leave Link    1 at Sat May 24 00:42:19 2025, MaxMem=  3758096384 cpu:               0.1 elap:               0.0
 (Enter /apps/easybuild-2022/easybuild/software/Compiler/NVHPC/22.11-CUDA-11.7.0/Gaussian/g16c01-CUDA-11.7.0/g16/l101.exe)
 ------------------------------
 Gaussian input prepared by ASE
 ------------------------------
 Symbolic Z-matrix:
 Charge =  0 Multiplicity = 2
 C                     1.54616   0.        0. 
 O                     2.2041   -0.98856   0.03267 
 C                     0.        0.        0. 
 C                    -0.58893   0.53436   1.29185 
 F                    -0.17784  -0.11038   2.36318 
 F                    -0.50871   1.8337    1.44869 
 F                    -0.44823   0.75845  -1.01431 
 F                    -0.4207   -1.25632  -0.16491 
 O                     2.0004    1.25179   0. 
 H                     1.69399   1.68782  -0.80718 
 
 ITRead=  0  0  0  0  0  0  0  0  0  0
 MicOpt= -1 -1 -1 -1 -1 -1 -1 -1 -1 -1
 NAtoms=     10 NQM=       10 NQMF=       0 NMMI=      0 NMMIF=      0
                NMic=       0 NMicF=      0.
                    Isotopes and Nuclear Properties:
 (Nuclear quadrupole moments (NQMom) in fm**2, nuclear magnetic moments (NMagM)
  in nuclear magnetons)

  Atom         1           2           3           4           5           6           7           8           9          10
 IAtWgt=          12          16          12          12          19          19          19          19          16           1
 AtmWgt=  12.0000000  15.9949146  12.0000000  12.0000000  18.9984032  18.9984032  18.9984032  18.9984032  15.9949146   1.0078250
 NucSpn=           0           0           0           0           1           1           1           1           0           1
 AtZEff=  -0.0000000  -0.0000000  -0.0000000  -0.0000000  -0.0000000  -0.0000000  -0.0000000  -0.0000000  -0.0000000  -0.0000000
 NQMom=    0.0000000   0.0000000   0.0000000   0.0000000   0.0000000   0.0000000   0.0000000   0.0000000   0.0000000   0.0000000
 NMagM=    0.0000000   0.0000000   0.0000000   0.0000000   2.6288670   2.6288670   2.6288670   2.6288670   0.0000000   2.7928460
 AtZNuc=   6.0000000   8.0000000   6.0000000   6.0000000   9.0000000   9.0000000   9.0000000   9.0000000   8.0000000   1.0000000
 Leave Link  101 at Sat May 24 00:42:20 2025, MaxMem=  3758096384 cpu:               0.3 elap:               0.2
 (Enter /apps/easybuild-2022/easybuild/software/Compiler/NVHPC/22.11-CUDA-11.7.0/Gaussian/g16c01-CUDA-11.7.0/g16/l103.exe)

 GradGradGradGradGradGradGradGradGradGradGradGradGradGradGradGradGradGrad
 Berny optimization.
 Initialization pass.
                           ----------------------------
                           !    Initial Parameters    !
                           ! (Angstroms and Degrees)  !
 --------------------------                            --------------------------
 ! Name  Definition              Value          Derivative Info.                !
 --------------------------------------------------------------------------------
 ! R1    R(1,2)                  1.1879         calculate D2E/DX2 analytically  !
 ! R2    R(1,3)                  1.5462         calculate D2E/DX2 analytically  !
 ! R3    R(1,9)                  1.3317         calculate D2E/DX2 analytically  !
 ! R4    R(3,4)                  1.517          calculate D2E/DX2 analytically  !
 ! R5    R(3,7)                  1.3435         calculate D2E/DX2 analytically  !
 ! R6    R(3,8)                  1.3351         calculate D2E/DX2 analytically  !
 ! R7    R(4,5)                  1.3162         calculate D2E/DX2 analytically  !
 ! R8    R(4,6)                  1.3112         calculate D2E/DX2 analytically  !
 ! R9    R(9,10)                 0.9672         calculate D2E/DX2 analytically  !
 ! A1    A(2,1,3)              123.6316         calculate D2E/DX2 analytically  !
 ! A2    A(2,1,9)              126.3936         calculate D2E/DX2 analytically  !
 ! A3    A(3,1,9)              109.9444         calculate D2E/DX2 analytically  !
 ! A4    A(1,3,4)              112.8439         calculate D2E/DX2 analytically  !
 ! A5    A(1,3,7)              109.4891         calculate D2E/DX2 analytically  !
 ! A6    A(1,3,8)              108.3673         calculate D2E/DX2 analytically  !
 ! A7    A(4,3,7)              108.3338         calculate D2E/DX2 analytically  !
 ! A8    A(4,3,8)              108.3195         calculate D2E/DX2 analytically  !
 ! A9    A(7,3,8)              109.4411         calculate D2E/DX2 analytically  !
 ! A10   A(3,4,5)              113.5376         calculate D2E/DX2 analytically  !
 ! A11   A(3,4,6)              115.288          calculate D2E/DX2 analytically  !
 ! A12   A(5,4,6)              111.6499         calculate D2E/DX2 analytically  !
 ! A13   A(1,9,10)             108.4034         calculate D2E/DX2 analytically  !
 ! D1    D(2,1,3,4)            110.5788         calculate D2E/DX2 analytically  !
 ! D2    D(2,1,3,7)           -128.6803         calculate D2E/DX2 analytically  !
 ! D3    D(2,1,3,8)             -9.3711         calculate D2E/DX2 analytically  !
 ! D4    D(9,1,3,4)            -67.5281         calculate D2E/DX2 analytically  !
 ! D5    D(9,1,3,7)             53.2127         calculate D2E/DX2 analytically  !
 ! D6    D(9,1,3,8)            172.522          calculate D2E/DX2 analytically  !
 ! D7    D(2,1,9,10)           120.3757         calculate D2E/DX2 analytically  !
 ! D8    D(3,1,9,10)           -61.5825         calculate D2E/DX2 analytically  !
 ! D9    D(1,3,4,5)            -56.416          calculate D2E/DX2 analytically  !
 ! D10   D(1,3,4,6)             74.1902         calculate D2E/DX2 analytically  !
 ! D11   D(7,3,4,5)           -177.8138         calculate D2E/DX2 analytically  !
 ! D12   D(7,3,4,6)            -47.2076         calculate D2E/DX2 analytically  !
 ! D13   D(8,3,4,5)             63.5615         calculate D2E/DX2 analytically  !
 ! D14   D(8,3,4,6)           -165.8323         calculate D2E/DX2 analytically  !
 --------------------------------------------------------------------------------
 Trust Radius=3.00D-01 FncErr=1.00D-07 GrdErr=1.00D-06 EigMax=2.50D+02 EigMin=1.00D-04
 Number of steps in this run=     46 maximum allowed number of steps=    100.
 GradGradGradGradGradGradGradGradGradGradGradGradGradGradGradGradGradGrad

 Leave Link  103 at Sat May 24 00:42:20 2025, MaxMem=  3758096384 cpu:               0.1 elap:               0.0
 (Enter /apps/easybuild-2022/easybuild/software/Compiler/NVHPC/22.11-CUDA-11.7.0/Gaussian/g16c01-CUDA-11.7.0/g16/l202.exe)
                          Input orientation:                          
 ---------------------------------------------------------------------
 Center     Atomic      Atomic             Coordinates (Angstroms)
 Number     Number       Type             X           Y           Z
 ---------------------------------------------------------------------
      1          6           0        1.546158    0.000000    0.000000
      2          8           0        2.204101   -0.988560    0.032674
      3          6           0        0.000000    0.000000    0.000000
      4          6           0       -0.588927    0.534359    1.291849
      5          9           0       -0.177842   -0.110381    2.363182
      6          9           0       -0.508706    1.833696    1.448690
      7          9           0       -0.448227    0.758449   -1.014309
      8          9           0       -0.420703   -1.256316   -0.164907
      9          8           0        2.000396    1.251790    0.000000
     10          1           0        1.693993    1.687819   -0.807179
 ---------------------------------------------------------------------
                    Distance matrix (angstroms):
                    1          2          3          4          5
     1  C    0.000000
     2  O    1.187943   0.000000
     3  C    1.546158   2.415860   0.000000
     4  C    2.552058   3.421376   1.516986   0.000000
     5  F    2.927283   3.446175   2.372433   1.316220   0.000000
     6  F    3.111850   4.162878   2.391637   1.311225   2.173753
     7  F    2.362549   3.344108   1.343494   2.321288   3.497916
     8  F    2.339672   2.645814   1.335109   2.314510   2.786285
     9  O    1.331658   2.249829   2.359781   2.981304   3.490682
    10  H    1.876733   2.851065   2.523863   3.308793   4.097375
                    6          7          8          9         10
     6  F    0.000000
     7  F    2.688155   0.000000
     8  F    3.487064   2.186669   0.000000
     9  O    2.955151   2.695916   3.489916   0.000000
    10  H    3.156282   2.344299   3.681357   0.967235   0.000000
 Symmetry turned off by external request.
 Stoichiometry    C3HF4O2
 Rotational constants (GHZ):           2.0252419           1.4802224           1.4238549
 Leave Link  202 at Sat May 24 00:42:20 2025, MaxMem=  3758096384 cpu:               0.1 elap:               0.0
 (Enter /apps/easybuild-2022/easybuild/software/Compiler/NVHPC/22.11-CUDA-11.7.0/Gaussian/g16c01-CUDA-11.7.0/g16/l301.exe)
 Standard basis: def2TZVPP (5D, 7F)
 Ernie: Thresh=  0.10000D-02 Tol=  0.10000D-05 Strict=F.
   293 basis functions,   476 primitive gaussians,   339 cartesian basis functions
    36 alpha electrons       35 beta electrons
       nuclear repulsion energy       508.9781566322 Hartrees.
 IExCor= 4336 DFT=T Ex+Corr=M062X ExCW=0 ScaHFX=  0.540000
 ScaDFX=  1.000000  1.000000  1.000000  1.000000 ScalE2=  1.000000  1.000000
 IRadAn=      5 IRanWt=     -1 IRanGd=            0 ICorTp=0 IEmpDi=  4
 NAtoms=   10 NActive=   10 NUniq=   10 SFac= 1.00D+00 NAtFMM=   60 NAOKFM=F Big=F
 Integral buffers will be    131072 words long.
 Raffenetti 2 integral format.
 Two-electron integral symmetry is turned off.
 Leave Link  301 at Sat May 24 00:42:20 2025, MaxMem=  3758096384 cpu:               0.1 elap:               0.0
 (Enter /apps/easybuild-2022/easybuild/software/Compiler/NVHPC/22.11-CUDA-11.7.0/Gaussian/g16c01-CUDA-11.7.0/g16/l302.exe)
 NPDir=0 NMtPBC=     1 NCelOv=     1 NCel=       1 NClECP=     1 NCelD=      1
         NCelK=      1 NCelE2=     1 NClLst=     1 CellRange=     0.0.
 One-electron integrals computed using PRISM.
   1 Symmetry operations used in ECPInt.
 ECPInt:  NShTT=    5565 NPrTT=   17967 LenC2=    5371 LenP2D=   13410.
 LDataN:  DoStor=T MaxTD1= 6 Len=  172
 NBasis=   293 RedAO= T EigKep=  4.16D-04  NBF=   293
 NBsUse=   293 1.00D-06 EigRej= -1.00D+00 NBFU=   293
 Precomputing XC quadrature grid using
 IXCGrd= 4 IRadAn=           5 IRanWt=          -1 IRanGd=           0 AccXCQ= 0.00D+00.
 Generated NRdTot=       0 NPtTot=           0 NUsed=           0 NTot=          32
 NSgBfM=   338   338   338   338   338 MxSgAt=    10 MxSgA2=    10.
 Leave Link  302 at Sat May 24 00:42:20 2025, MaxMem=  3758096384 cpu:               1.0 elap:               0.2
 (Enter /apps/easybuild-2022/easybuild/software/Compiler/NVHPC/22.11-CUDA-11.7.0/Gaussian/g16c01-CUDA-11.7.0/g16/l303.exe)
 DipDrv:  MaxL=1.
 Leave Link  303 at Sat May 24 00:42:20 2025, MaxMem=  3758096384 cpu:               0.1 elap:               0.0
 (Enter /apps/easybuild-2022/easybuild/software/Compiler/NVHPC/22.11-CUDA-11.7.0/Gaussian/g16c01-CUDA-11.7.0/g16/l401.exe)
 ExpMin= 9.52D-02 ExpMax= 3.55D+04 ExpMxC= 1.21D+03 IAcc=3 IRadAn=         5 AccDes= 0.00D+00
 Harris functional with IExCor= 1009 and IRadAn=       5 diagonalized for initial guess.
 HarFok:  IExCor= 1009 AccDes= 0.00D+00 IRadAn=         5 IDoV= 1 UseB2=F ITyADJ=14
 ICtDFT=  3500011 ScaDFX=  1.000000  1.000000  1.000000  1.000000
 FoFCou: FMM=F IPFlag=           0 FMFlag=      100000 FMFlg1=           0
         NFxFlg=           0 DoJE=T BraDBF=F KetDBF=T FulRan=T
         wScrn=  0.000000 ICntrl=       500 IOpCl=  0 I1Cent=   200000004 NGrid=           0
         NMat0=    1 NMatS0=      1 NMatT0=    0 NMatD0=    1 NMtDS0=    0 NMtDT0=    0
 Symmetry not used in FoFCou.
 Harris En= -664.293675991085    
 JPrj=0 DoOrth=F DoCkMO=F.
 Initial guess <Sx>= 0.0000 <Sy>= 0.0000 <Sz>= 0.5000 <S**2>= 0.7500 S= 0.5000
 Leave Link  401 at Sat May 24 00:42:21 2025, MaxMem=  3758096384 cpu:               3.1 elap:               0.5
 (Enter /apps/easybuild-2022/easybuild/software/Compiler/NVHPC/22.11-CUDA-11.7.0/Gaussian/g16c01-CUDA-11.7.0/g16/l502.exe)
 Keep R1 and R2 ints in memory in canonical form, NReq=1874806909.
 FoFCou: FMM=F IPFlag=           0 FMFlag=           0 FMFlg1=           0
         NFxFlg=           0 DoJE=F BraDBF=F KetDBF=F FulRan=T
         wScrn=  0.000000 ICntrl=       600 IOpCl=  0 I1Cent=           0 NGrid=           0
         NMat0=    1 NMatS0=  43071 NMatT0=    0 NMatD0=    1 NMtDS0=    0 NMtDT0=    0
 Symmetry not used in FoFCou.
 Two-electron integral symmetry not used.
 UHF open shell SCF:
 Using DIIS extrapolation, IDIIS=  1040.
 NGot=  3758096384 LenX=  1902707317 LenY=  1902591955
 Requested convergence on RMS density matrix=1.00D-08 within  32 cycles.
 Requested convergence on MAX density matrix=1.00D-06.
 Requested convergence on             energy=1.00D-06.
 No special actions if energy rises.
 Integral accuracy reduced to 1.0D-05 until final iterations.

 Cycle   1  Pass 0  IDiag  1:
 E= -664.547690455136    
 DIIS: error= 2.05D-02 at cycle   1 NSaved=   1.
 NSaved= 1 IEnMin= 1 EnMin= -664.547690455136     IErMin= 1 ErrMin= 2.05D-02
 ErrMax= 2.05D-02  0.00D+00 EMaxC= 1.00D-01 BMatC= 1.21D+00 BMatP= 1.21D+00
 IDIUse=3 WtCom= 7.95D-01 WtEn= 2.05D-01
 Coeff-Com:  0.100D+01
 Coeff-En:   0.100D+01
 Coeff:      0.100D+01
 Gap=     0.348 Goal=   None    Shift=    0.000
 Gap=     0.239 Goal=   None    Shift=    0.000
 GapD=    0.239 DampG=1.000 DampE=0.500 DampFc=0.5000 IDamp=-1.
 Damping current iteration by 5.00D-01
 RMSDP=2.56D-03 MaxDP=1.23D-01              OVMax= 2.65D-01

 Cycle   2  Pass 0  IDiag  1:
 E= -664.606080751501     Delta-E=       -0.058390296366 Rises=F Damp=T
 DIIS: error= 7.37D-03 at cycle   2 NSaved=   2.
 NSaved= 2 IEnMin= 2 EnMin= -664.606080751501     IErMin= 2 ErrMin= 7.37D-03
 ErrMax= 7.37D-03  0.00D+00 EMaxC= 1.00D-01 BMatC= 1.59D-01 BMatP= 1.21D+00
 IDIUse=3 WtCom= 9.26D-01 WtEn= 7.37D-02
 Coeff-Com:  0.805D-01 0.919D+00
 Coeff-En:   0.241D+00 0.759D+00
 Coeff:      0.923D-01 0.908D+00
 Gap=     0.394 Goal=   None    Shift=    0.000
 Gap=     0.323 Goal=   None    Shift=    0.000
 RMSDP=8.14D-04 MaxDP=3.83D-02 DE=-5.84D-02 OVMax= 1.56D-01

 Cycle   3  Pass 0  IDiag  1:
 E= -664.705698649978     Delta-E=       -0.099617898477 Rises=F Damp=F
 DIIS: error= 5.56D-03 at cycle   3 NSaved=   3.
 NSaved= 3 IEnMin= 3 EnMin= -664.705698649978     IErMin= 3 ErrMin= 5.56D-03
 ErrMax= 5.56D-03  0.00D+00 EMaxC= 1.00D-01 BMatC= 5.86D-02 BMatP= 1.59D-01
 IDIUse=3 WtCom= 9.44D-01 WtEn= 5.56D-02
 Coeff-Com: -0.826D-01 0.347D+00 0.736D+00
 Coeff-En:   0.000D+00 0.000D+00 0.100D+01
 Coeff:     -0.780D-01 0.328D+00 0.750D+00
 Gap=     0.300 Goal=   None    Shift=    0.000
 Gap=     0.322 Goal=   None    Shift=    0.000
 RMSDP=3.52D-04 MaxDP=1.97D-02 DE=-9.96D-02 OVMax= 4.55D-02

 Cycle   4  Pass 0  IDiag  1:
 E= -664.714305564689     Delta-E=       -0.008606914711 Rises=F Damp=F
 DIIS: error= 2.76D-03 at cycle   4 NSaved=   4.
 NSaved= 4 IEnMin= 4 EnMin= -664.714305564689     IErMin= 4 ErrMin= 2.76D-03
 ErrMax= 2.76D-03  0.00D+00 EMaxC= 1.00D-01 BMatC= 1.90D-02 BMatP= 5.86D-02
 IDIUse=3 WtCom= 9.72D-01 WtEn= 2.76D-02
 Coeff-Com: -0.514D-01 0.933D-01 0.427D+00 0.531D+00
 Coeff-En:   0.000D+00 0.000D+00 0.165D+00 0.835D+00
 Coeff:     -0.500D-01 0.907D-01 0.420D+00 0.539D+00
 Gap=     0.311 Goal=   None    Shift=    0.000
 Gap=     0.322 Goal=   None    Shift=    0.000
 RMSDP=1.50D-04 MaxDP=6.17D-03 DE=-8.61D-03 OVMax= 1.57D-02

 Cycle   5  Pass 0  IDiag  1:
 E= -664.717685410944     Delta-E=       -0.003379846255 Rises=F Damp=F
 DIIS: error= 5.08D-04 at cycle   5 NSaved=   5.
 NSaved= 5 IEnMin= 5 EnMin= -664.717685410944     IErMin= 5 ErrMin= 5.08D-04
 ErrMax= 5.08D-04  0.00D+00 EMaxC= 1.00D-01 BMatC= 4.88D-04 BMatP= 1.90D-02
 IDIUse=3 WtCom= 9.95D-01 WtEn= 5.08D-03
 Coeff-Com: -0.436D-02-0.121D-02 0.370D-01 0.120D+00 0.849D+00
 Coeff-En:   0.000D+00 0.000D+00 0.000D+00 0.000D+00 0.100D+01
 Coeff:     -0.434D-02-0.120D-02 0.368D-01 0.119D+00 0.849D+00
 Gap=     0.317 Goal=   None    Shift=    0.000
 Gap=     0.323 Goal=   None    Shift=    0.000
 RMSDP=6.40D-05 MaxDP=4.76D-03 DE=-3.38D-03 OVMax= 1.22D-02

 Cycle   6  Pass 0  IDiag  1:
 E= -664.717941487355     Delta-E=       -0.000256076411 Rises=F Damp=F
 DIIS: error= 3.74D-04 at cycle   6 NSaved=   6.
 NSaved= 6 IEnMin= 6 EnMin= -664.717941487355     IErMin= 6 ErrMin= 3.74D-04
 ErrMax= 3.74D-04  0.00D+00 EMaxC= 1.00D-01 BMatC= 1.33D-04 BMatP= 4.88D-04
 IDIUse=3 WtCom= 9.96D-01 WtEn= 3.74D-03
 Coeff-Com:  0.104D-01-0.216D-01-0.951D-01-0.112D+00 0.226D+00 0.992D+00
 Coeff-En:   0.000D+00 0.000D+00 0.000D+00 0.000D+00 0.000D+00 0.100D+01
 Coeff:      0.103D-01-0.216D-01-0.947D-01-0.111D+00 0.225D+00 0.992D+00
 Gap=     0.318 Goal=   None    Shift=    0.000
 Gap=     0.327 Goal=   None    Shift=    0.000
 RMSDP=4.97D-05 MaxDP=3.59D-03 DE=-2.56D-04 OVMax= 8.03D-03

 Cycle   7  Pass 0  IDiag  1:
 E= -664.718032761150     Delta-E=       -0.000091273796 Rises=F Damp=F
 DIIS: error= 1.14D-04 at cycle   7 NSaved=   7.
 NSaved= 7 IEnMin= 7 EnMin= -664.718032761150     IErMin= 7 ErrMin= 1.14D-04
 ErrMax= 1.14D-04  0.00D+00 EMaxC= 1.00D-01 BMatC= 1.42D-05 BMatP= 1.33D-04
 IDIUse=3 WtCom= 9.99D-01 WtEn= 1.14D-03
 Coeff-Com:  0.304D-02-0.428D-02-0.242D-01-0.429D-01-0.701D-01 0.199D+00
 Coeff-Com:  0.940D+00
 Coeff-En:   0.000D+00 0.000D+00 0.000D+00 0.000D+00 0.000D+00 0.000D+00
 Coeff-En:   0.100D+01
 Coeff:      0.304D-02-0.427D-02-0.242D-01-0.428D-01-0.700D-01 0.199D+00
 Coeff:      0.940D+00
 Gap=     0.319 Goal=   None    Shift=    0.000
 Gap=     0.327 Goal=   None    Shift=    0.000
 RMSDP=1.78D-05 MaxDP=1.69D-03 DE=-9.13D-05 OVMax= 2.65D-03

 Cycle   8  Pass 0  IDiag  1:
 E= -664.718042388272     Delta-E=       -0.000009627122 Rises=F Damp=F
 DIIS: error= 3.30D-05 at cycle   8 NSaved=   8.
 NSaved= 8 IEnMin= 8 EnMin= -664.718042388272     IErMin= 8 ErrMin= 3.30D-05
 ErrMax= 3.30D-05  0.00D+00 EMaxC= 1.00D-01 BMatC= 2.22D-06 BMatP= 1.42D-05
 IDIUse=1 WtCom= 1.00D+00 WtEn= 0.00D+00
 Coeff-Com: -0.613D-03 0.170D-02 0.719D-02 0.577D-02-0.431D-01-0.695D-01
 Coeff-Com:  0.163D+00 0.936D+00
 Coeff:     -0.613D-03 0.170D-02 0.719D-02 0.577D-02-0.431D-01-0.695D-01
 Coeff:      0.163D+00 0.936D+00
 Gap=     0.319 Goal=   None    Shift=    0.000
 Gap=     0.327 Goal=   None    Shift=    0.000
 RMSDP=4.56D-06 MaxDP=2.87D-04 DE=-9.63D-06 OVMax= 6.26D-04

 Initial convergence to 1.0D-05 achieved.  Increase integral accuracy.
 Cycle   9  Pass 1  IDiag  1:
 E= -664.718027920242     Delta-E=        0.000014468030 Rises=F Damp=F
 DIIS: error= 1.98D-05 at cycle   1 NSaved=   1.
 NSaved= 1 IEnMin= 1 EnMin= -664.718027920242     IErMin= 1 ErrMin= 1.98D-05
 ErrMax= 1.98D-05  0.00D+00 EMaxC= 1.00D-01 BMatC= 2.58D-06 BMatP= 2.58D-06
 IDIUse=1 WtCom= 1.00D+00 WtEn= 0.00D+00
 Coeff-Com:  0.100D+01
 Coeff:      0.100D+01
 Gap=     0.319 Goal=   None    Shift=    0.000
 Gap=     0.327 Goal=   None    Shift=    0.000
 RMSDP=4.56D-06 MaxDP=2.87D-04 DE= 1.45D-05 OVMax= 2.69D-04

 Cycle  10  Pass 1  IDiag  1:
 E= -664.718028428454     Delta-E=       -0.000000508212 Rises=F Damp=F
 DIIS: error= 1.39D-05 at cycle   2 NSaved=   2.
 NSaved= 2 IEnMin= 2 EnMin= -664.718028428454     IErMin= 2 ErrMin= 1.39D-05
 ErrMax= 1.39D-05  0.00D+00 EMaxC= 1.00D-01 BMatC= 8.38D-07 BMatP= 2.58D-06
 IDIUse=1 WtCom= 1.00D+00 WtEn= 0.00D+00
 Coeff-Com:  0.299D+00 0.701D+00
 Coeff:      0.299D+00 0.701D+00
 Gap=     0.319 Goal=   None    Shift=    0.000
 Gap=     0.327 Goal=   None    Shift=    0.000
 RMSDP=1.54D-06 MaxDP=1.17D-04 DE=-5.08D-07 OVMax= 1.11D-04

 Cycle  11  Pass 1  IDiag  1:
 E= -664.718028548108     Delta-E=       -0.000000119654 Rises=F Damp=F
 DIIS: error= 9.65D-06 at cycle   3 NSaved=   3.
 NSaved= 3 IEnMin= 3 EnMin= -664.718028548108     IErMin= 3 ErrMin= 9.65D-06
 ErrMax= 9.65D-06  0.00D+00 EMaxC= 1.00D-01 BMatC= 2.59D-07 BMatP= 8.38D-07
 IDIUse=1 WtCom= 1.00D+00 WtEn= 0.00D+00
 Coeff-Com: -0.562D-01 0.336D+00 0.720D+00
 Coeff:     -0.562D-01 0.336D+00 0.720D+00
 Gap=     0.319 Goal=   None    Shift=    0.000
 Gap=     0.327 Goal=   None    Shift=    0.000
 RMSDP=8.67D-07 MaxDP=7.59D-05 DE=-1.20D-07 OVMax= 9.77D-05

 Cycle  12  Pass 1  IDiag  1:
 E= -664.718028604569     Delta-E=       -0.000000056461 Rises=F Damp=F
 DIIS: error= 3.55D-06 at cycle   4 NSaved=   4.
 NSaved= 4 IEnMin= 4 EnMin= -664.718028604569     IErMin= 4 ErrMin= 3.55D-06
 ErrMax= 3.55D-06  0.00D+00 EMaxC= 1.00D-01 BMatC= 1.47D-08 BMatP= 2.59D-07
 IDIUse=1 WtCom= 1.00D+00 WtEn= 0.00D+00
 Coeff-Com: -0.259D-01 0.405D-01 0.165D+00 0.821D+00
 Coeff:     -0.259D-01 0.405D-01 0.165D+00 0.821D+00
 Gap=     0.319 Goal=   None    Shift=    0.000
 Gap=     0.327 Goal=   None    Shift=    0.000
 RMSDP=3.57D-07 MaxDP=2.80D-05 DE=-5.65D-08 OVMax= 6.06D-05

 Cycle  13  Pass 1  IDiag  1:
 E= -664.718028612466     Delta-E=       -0.000000007897 Rises=F Damp=F
 DIIS: error= 2.73D-06 at cycle   5 NSaved=   5.
 NSaved= 5 IEnMin= 5 EnMin= -664.718028612466     IErMin= 5 ErrMin= 2.73D-06
 ErrMax= 2.73D-06  0.00D+00 EMaxC= 1.00D-01 BMatC= 1.05D-08 BMatP= 1.47D-08
 IDIUse=1 WtCom= 1.00D+00 WtEn= 0.00D+00
 Coeff-Com:  0.101D-01-0.146D+00-0.253D+00 0.560D+00 0.829D+00
 Coeff:      0.101D-01-0.146D+00-0.253D+00 0.560D+00 0.829D+00
 Gap=     0.319 Goal=   None    Shift=    0.000
 Gap=     0.327 Goal=   None    Shift=    0.000
 RMSDP=3.30D-07 MaxDP=2.83D-05 DE=-7.90D-09 OVMax= 6.57D-05

 Cycle  14  Pass 1  IDiag  1:
 E= -664.718028618202     Delta-E=       -0.000000005736 Rises=F Damp=F
 DIIS: error= 7.95D-07 at cycle   6 NSaved=   6.
 NSaved= 6 IEnMin= 6 EnMin= -664.718028618202     IErMin= 6 ErrMin= 7.95D-07
 ErrMax= 7.95D-07  0.00D+00 EMaxC= 1.00D-01 BMatC= 7.51D-10 BMatP= 1.05D-08
 IDIUse=1 WtCom= 1.00D+00 WtEn= 0.00D+00
 Coeff-Com:  0.665D-02-0.435D-01-0.889D-01-0.146D-02 0.206D+00 0.922D+00
 Coeff:      0.665D-02-0.435D-01-0.889D-01-0.146D-02 0.206D+00 0.922D+00
 Gap=     0.319 Goal=   None    Shift=    0.000
 Gap=     0.327 Goal=   None    Shift=    0.000
 RMSDP=1.15D-07 MaxDP=4.76D-06 DE=-5.74D-09 OVMax= 2.72D-05

 Cycle  15  Pass 1  IDiag  1:
 E= -664.718028618926     Delta-E=       -0.000000000724 Rises=F Damp=F
 DIIS: error= 2.94D-07 at cycle   7 NSaved=   7.
 NSaved= 7 IEnMin= 7 EnMin= -664.718028618926     IErMin= 7 ErrMin= 2.94D-07
 ErrMax= 2.94D-07  0.00D+00 EMaxC= 1.00D-01 BMatC= 1.20D-10 BMatP= 7.51D-10
 IDIUse=1 WtCom= 1.00D+00 WtEn= 0.00D+00
 Coeff-Com: -0.853D-03 0.210D-01 0.359D-01-0.111D+00-0.130D+00 0.158D+00
 Coeff-Com:  0.103D+01
 Coeff:     -0.853D-03 0.210D-01 0.359D-01-0.111D+00-0.130D+00 0.158D+00
 Coeff:      0.103D+01
 Gap=     0.319 Goal=   None    Shift=    0.000
 Gap=     0.327 Goal=   None    Shift=    0.000
 RMSDP=5.59D-08 MaxDP=2.12D-06 DE=-7.24D-10 OVMax= 1.24D-05

 Cycle  16  Pass 1  IDiag  1:
 E= -664.718028619061     Delta-E=       -0.000000000135 Rises=F Damp=F
 DIIS: error= 1.23D-07 at cycle   8 NSaved=   8.
 NSaved= 8 IEnMin= 8 EnMin= -664.718028619061     IErMin= 8 ErrMin= 1.23D-07
 ErrMax= 1.23D-07  0.00D+00 EMaxC= 1.00D-01 BMatC= 1.99D-11 BMatP= 1.20D-10
 IDIUse=1 WtCom= 1.00D+00 WtEn= 0.00D+00
 Coeff-Com: -0.108D-02 0.113D-01 0.209D-01-0.336D-01-0.580D-01-0.671D-01
 Coeff-Com:  0.258D+00 0.869D+00
 Coeff:     -0.108D-02 0.113D-01 0.209D-01-0.336D-01-0.580D-01-0.671D-01
 Coeff:      0.258D+00 0.869D+00
 Gap=     0.319 Goal=   None    Shift=    0.000
 Gap=     0.327 Goal=   None    Shift=    0.000
 RMSDP=1.66D-08 MaxDP=7.37D-07 DE=-1.35D-10 OVMax= 3.33D-06

 Cycle  17  Pass 1  IDiag  1:
 E= -664.718028619065     Delta-E=       -0.000000000004 Rises=F Damp=F
 DIIS: error= 5.62D-08 at cycle   9 NSaved=   9.
 NSaved= 9 IEnMin= 9 EnMin= -664.718028619065     IErMin= 9 ErrMin= 5.62D-08
 ErrMax= 5.62D-08  0.00D+00 EMaxC= 1.00D-01 BMatC= 6.65D-12 BMatP= 1.99D-11
 IDIUse=1 WtCom= 1.00D+00 WtEn= 0.00D+00
 Coeff-Com: -0.149D-03-0.970D-03-0.146D-02 0.142D-01 0.116D-01-0.665D-01
 Coeff-Com: -0.146D+00 0.363D+00 0.826D+00
 Coeff:     -0.149D-03-0.970D-03-0.146D-02 0.142D-01 0.116D-01-0.665D-01
 Coeff:     -0.146D+00 0.363D+00 0.826D+00
 Gap=     0.319 Goal=   None    Shift=    0.000
 Gap=     0.327 Goal=   None    Shift=    0.000
 RMSDP=7.75D-09 MaxDP=5.18D-07 DE=-3.87D-12 OVMax= 1.24D-06

 SCF Done:  E(UM062X) =  -664.718028619     A.U. after   17 cycles
            NFock= 17  Conv=0.77D-08     -V/T= 2.0036
 <Sx>= 0.0000 <Sy>= 0.0000 <Sz>= 0.5000 <S**2>= 0.7539 S= 0.5019
 <L.S>=  0.00000000000    
 KE= 6.623415897006D+02 PE=-2.592237457726D+03 EE= 7.561996827746D+02
 Annihilation of the first spin contaminant:
 S**2 before annihilation     0.7539,   after     0.7500
 Leave Link  502 at Sat May 24 00:43:04 2025, MaxMem=  3758096384 cpu:             167.3 elap:              43.4
 (Enter /apps/easybuild-2022/easybuild/software/Compiler/NVHPC/22.11-CUDA-11.7.0/Gaussian/g16c01-CUDA-11.7.0/g16/l508.exe)
 QCSCF skips out because SCF is already converged.
 Leave Link  508 at Sat May 24 00:43:04 2025, MaxMem=  3758096384 cpu:               0.1 elap:               0.0
 (Enter /apps/easybuild-2022/easybuild/software/Compiler/NVHPC/22.11-CUDA-11.7.0/Gaussian/g16c01-CUDA-11.7.0/g16/l801.exe)
 DoSCS=F DFT=T ScalE2(SS,OS)=  1.000000  1.000000
 Range of M.O.s used for correlation:     1   293
 NBasis=   293 NAE=    36 NBE=    35 NFC=     0 NFV=     0
 NROrb=    293 NOA=    36 NOB=    35 NVA=   257 NVB=   258

 **** Warning!!: The largest alpha MO coefficient is  0.14326396D+02


 **** Warning!!: The largest beta MO coefficient is  0.15470959D+02

 Leave Link  801 at Sat May 24 00:43:04 2025, MaxMem=  3758096384 cpu:               0.1 elap:               0.0
 (Enter /apps/easybuild-2022/easybuild/software/Compiler/NVHPC/22.11-CUDA-11.7.0/Gaussian/g16c01-CUDA-11.7.0/g16/l1101.exe)
 Using compressed storage, NAtomX=    10.
 Will process     11 centers per pass.
   1 Symmetry operations used in ECPInt.
 ECPInt:  NShTT=    5565 NPrTT=   17967 LenC2=    5371 LenP2D=   13410.
 LDataN:  DoStor=T MaxTD1= 7 Len=  274
 Leave Link 1101 at Sat May 24 00:43:04 2025, MaxMem=  3758096384 cpu:               0.9 elap:               0.3
 (Enter /apps/easybuild-2022/easybuild/software/Compiler/NVHPC/22.11-CUDA-11.7.0/Gaussian/g16c01-CUDA-11.7.0/g16/l1102.exe)
 Symmetrizing basis deriv contribution to polar:
 IMax=3 JMax=2 DiffMx= 0.00D+00
 Leave Link 1102 at Sat May 24 00:43:04 2025, MaxMem=  3758096384 cpu:               0.1 elap:               0.0
 (Enter /apps/easybuild-2022/easybuild/software/Compiler/NVHPC/22.11-CUDA-11.7.0/Gaussian/g16c01-CUDA-11.7.0/g16/l1110.exe)
 Forming Gx(P) for the SCF density, NAtomX=    10.
 Integral derivatives from FoFJK, PRISM(SPDF).
 Do as many integral derivatives as possible in FoFJK.
 G2DrvN: MDV=    3758095218.
 G2DrvN: will do    11 centers at a time, making    1 passes.
 Calling FoFCou, ICntrl=  3107 FMM=F I1Cent=   0 AccDes= 0.00D+00.
 FoFJK:  IHMeth= 1 ICntrl=    3107 DoSepK=F KAlg= 0 I1Cent=           0 FoldK=F
 IRaf=         0 NMat=       1 IRICut=       1 DoRegI=T DoRafI=F ISym2E= 0 IDoP0=0 IntGTp=1.
 FoFCou: FMM=F IPFlag=           0 FMFlag=      100000 FMFlg1=           0
         NFxFlg=           0 DoJE=F BraDBF=F KetDBF=F FulRan=T
         wScrn=  0.000000 ICntrl=      3107 IOpCl=  1 I1Cent=           0 NGrid=           0
         NMat0=    1 NMatS0=      1 NMatT0=    0 NMatD0=    1 NMtDS0=    0 NMtDT0=    0
 Symmetry not used in FoFCou.
 End of G2Drv F.D. properties file   721 does not exist.
 End of G2Drv F.D. properties file   722 does not exist.
 End of G2Drv F.D. properties file   788 does not exist.
 Leave Link 1110 at Sat May 24 00:43:56 2025, MaxMem=  3758096384 cpu:             406.3 elap:              51.6
 (Enter /apps/easybuild-2022/easybuild/software/Compiler/NVHPC/22.11-CUDA-11.7.0/Gaussian/g16c01-CUDA-11.7.0/g16/l1002.exe)
 Minotr:  UHF open shell wavefunction.
          IDoAtm=1111111111
          Direct CPHF calculation.
          Differentiating once with respect to nuclear coordinates.
          Requested convergence is 1.0D-08 RMS, and 1.0D-07 maximum.
          Secondary convergence is 1.0D-12 RMS, and 1.0D-12 maximum.
          NewPWx=T KeepS1=F KeepF1=F KeepIn=T MapXYZ=F SortEE=F KeepMc=T.
         2995 words used for storage of precomputed grid.
 Keep R1 and R2 ints in memory in canonical form, NReq=1874812120.
 FoFCou: FMM=F IPFlag=           0 FMFlag=           0 FMFlg1=           0
         NFxFlg=           0 DoJE=F BraDBF=F KetDBF=F FulRan=T
         wScrn=  0.000000 ICntrl=       600 IOpCl=  0 I1Cent=           0 NGrid=           0
         NMat0=    1 NMatS0=  43071 NMatT0=    0 NMatD0=    1 NMtDS0=    0 NMtDT0=    0
 Symmetry not used in FoFCou.
 Two-electron integral symmetry not used.
          MDV=    3758096384 using IRadAn=       1.
          Solving linear equations simultaneously, MaxMat=       0.
          There are    33 degrees of freedom in the 1st order CPHF.  IDoFFX=6 NUNeed=     0.
     27 vectors produced by pass  0 Test12= 5.54D-14 3.03D-09 XBig12= 3.09D-01 9.81D-02.
 AX will form    27 AO Fock derivatives at one time.
     27 vectors produced by pass  1 Test12= 5.54D-14 3.03D-09 XBig12= 6.54D-02 6.20D-02.
     27 vectors produced by pass  2 Test12= 5.54D-14 3.03D-09 XBig12= 3.11D-03 1.11D-02.
     27 vectors produced by pass  3 Test12= 5.54D-14 3.03D-09 XBig12= 8.19D-05 1.87D-03.
     27 vectors produced by pass  4 Test12= 5.54D-14 3.03D-09 XBig12= 3.04D-06 3.80D-04.
     27 vectors produced by pass  5 Test12= 5.54D-14 3.03D-09 XBig12= 7.24D-08 4.52D-05.
     27 vectors produced by pass  6 Test12= 5.54D-14 3.03D-09 XBig12= 1.19D-09 3.48D-06.
     27 vectors produced by pass  7 Test12= 5.54D-14 3.03D-09 XBig12= 1.54D-11 3.80D-07.
     12 vectors produced by pass  8 Test12= 5.54D-14 3.03D-09 XBig12= 1.54D-13 3.75D-08.
      1 vectors produced by pass  9 Test12= 5.54D-14 3.03D-09 XBig12= 1.95D-15 6.43D-09.
 InvSVY:  IOpt=1 It=  1 EMax= 1.11D-15
 Solved reduced A of dimension   229 with    27 vectors.
 End of Minotr F.D. properties file   721 does not exist.
 End of Minotr F.D. properties file   722 does not exist.
 End of Minotr F.D. properties file   788 does not exist.
 Leave Link 1002 at Sat May 24 00:45:23 2025, MaxMem=  3758096384 cpu:             664.1 elap:              87.0
 (Enter /apps/easybuild-2022/easybuild/software/Compiler/NVHPC/22.11-CUDA-11.7.0/Gaussian/g16c01-CUDA-11.7.0/g16/l701.exe)
 ... and contract with generalized density number  0.
 Compute integral second derivatives.
   1 Symmetry operations used in ECPInt.
 ECPInt:  NShTT=    5565 NPrTT=   17967 LenC2=    5371 LenP2D=   13410.
 LDataN:  DoStor=T MaxTD1= 8 Len=  415
 Leave Link  701 at Sat May 24 00:45:23 2025, MaxMem=  3758096384 cpu:               1.0 elap:               0.2
 (Enter /apps/easybuild-2022/easybuild/software/Compiler/NVHPC/22.11-CUDA-11.7.0/Gaussian/g16c01-CUDA-11.7.0/g16/l702.exe)
 L702 exits ... SP integral derivatives will be done elsewhere.
 Leave Link  702 at Sat May 24 00:45:23 2025, MaxMem=  3758096384 cpu:               0.0 elap:               0.0
 (Enter /apps/easybuild-2022/easybuild/software/Compiler/NVHPC/22.11-CUDA-11.7.0/Gaussian/g16c01-CUDA-11.7.0/g16/l703.exe)
 Integral derivatives from FoFJK, PRISM(SPDF).
 Compute integral second derivatives, UseDBF=F ICtDFT=           0.
 Calling FoFJK, ICntrl=    100127 FMM=F ISym2X=0 I1Cent= 0 IOpClX= 1 NMat=1 NMatS=1 NMatT=0.
 FoFJK:  IHMeth= 1 ICntrl=  100127 DoSepK=F KAlg= 0 I1Cent=           0 FoldK=F
 IRaf=         0 NMat=       1 IRICut=       1 DoRegI=T DoRafI=F ISym2E= 0 IDoP0=0 IntGTp=1.
 FoFCou: FMM=F IPFlag=           0 FMFlag=      100000 FMFlg1=         800
         NFxFlg=           0 DoJE=F BraDBF=F KetDBF=F FulRan=T
         wScrn=  0.000000 ICntrl=    100127 IOpCl=  1 I1Cent=           0 NGrid=           0
         NMat0=    1 NMatS0=      1 NMatT0=    0 NMatD0=    1 NMtDS0=    0 NMtDT0=    0
 Symmetry not used in FoFCou.
 Leave Link  703 at Sat May 24 00:46:51 2025, MaxMem=  3758096384 cpu:             691.4 elap:              87.3
 (Enter /apps/easybuild-2022/easybuild/software/Compiler/NVHPC/22.11-CUDA-11.7.0/Gaussian/g16c01-CUDA-11.7.0/g16/l716.exe)
 Dipole        =-3.50565829D-01 8.36502875D-01-4.40801201D-01
 Polarizability= 0.00000000D+00 0.00000000D+00 0.00000000D+00
                 0.00000000D+00 0.00000000D+00 0.00000000D+00
 -------------------------------------------------------------------
 Center     Atomic                   Forces (Hartrees/Bohr)
 Number     Number              X              Y              Z
 -------------------------------------------------------------------
      1        6          -0.003702291   -0.017225651   -0.005393397
      2        8          -0.006512799    0.011090323    0.006096899
      3        6           0.000374375   -0.014535699    0.007773141
      4        6           0.000705534   -0.001614439    0.001079374
      5        9          -0.000718787    0.000636880   -0.001397663
      6        9          -0.000139622    0.001222974   -0.000228188
      7        9          -0.000163626    0.004580498   -0.004906605
      8        9          -0.003372216   -0.000285168   -0.001052156
      9        8           0.016403996    0.009808043   -0.007511065
     10        1          -0.002874564    0.006322240    0.005539661
 -------------------------------------------------------------------
 Cartesian Forces:  Max     0.017225651 RMS     0.006784621
 Force constants in Cartesian coordinates: 
                1             2             3             4             5 
      1  0.681291D+00
      2 -0.226764D+00  0.974421D+00
      3  0.205979D-01 -0.485528D-01  0.250806D+00
      4 -0.355214D+00  0.336029D+00 -0.145838D-01  0.356823D+00
      5  0.346158D+00 -0.579152D+00  0.200045D-01 -0.385015D+00  0.686764D+00
      6 -0.129743D-01  0.171380D-01 -0.761485D-01  0.145249D-01 -0.231700D-01
      7 -0.156893D+00 -0.935864D-02  0.225532D-01 -0.235663D-01  0.170157D-01
      8 -0.116619D-01 -0.406777D-01 -0.671362D-02  0.383787D-01 -0.194480D-01
      9 -0.163718D-01 -0.189772D-02 -0.958482D-01  0.801837D-02 -0.619835D-02
     10 -0.528427D-03  0.157938D-01  0.412872D-01 -0.103421D-01  0.462159D-02
     11  0.132441D-01  0.176249D-01 -0.931812D-03 -0.407416D-02 -0.266478D-02
     12  0.259754D-01 -0.504144D-02  0.485957D-02 -0.850684D-02  0.556309D-02
     13 -0.585295D-02  0.740966D-03 -0.739154D-02  0.389977D-02 -0.302741D-02
     14  0.220848D-02 -0.312149D-02  0.281257D-02 -0.179402D-02  0.224130D-02
     15 -0.827058D-02  0.913743D-03 -0.384848D-02  0.494982D-02 -0.286400D-02
     16 -0.350191D-02 -0.559181D-02 -0.391075D-02  0.209015D-02  0.305717D-03
     17 -0.103130D-01 -0.901009D-02 -0.526210D-02  0.414399D-02  0.736439D-03
     18 -0.335791D-02  0.263452D-03 -0.877245D-03  0.135691D-02 -0.492655D-03
     19 -0.741909D-02  0.262273D-01 -0.423018D-01 -0.982006D-02  0.246050D-02
     20  0.108172D-02 -0.143762D-01  0.157664D-01  0.498789D-02  0.195681D-02
     21  0.156448D-02  0.173936D-01 -0.105166D-01 -0.811602D-02  0.130071D-02
     22 -0.159763D-01 -0.443038D-01 -0.897218D-02  0.202462D-02 -0.234901D-02
     23 -0.289794D-02 -0.317431D-01 -0.224173D-02  0.457290D-03  0.936281D-02
     24  0.262072D-02 -0.378420D-02  0.779464D-02 -0.730895D-03  0.137346D-02
     25 -0.143402D+00 -0.926058D-01 -0.183769D-01  0.332514D-01  0.230037D-01
     26 -0.125161D+00 -0.278815D+00 -0.100688D-01  0.109673D-01 -0.969975D-01
     27 -0.875634D-02  0.223359D-01 -0.764268D-01  0.214548D-02  0.108489D-01
     28  0.749687D-02 -0.166698D-03  0.110988D-01  0.854378D-03 -0.317318D-02
     29  0.141061D-01 -0.351503D-01  0.351875D-01 -0.408082D-02 -0.279969D-02
     30 -0.102757D-02  0.123156D-02  0.205678D-03  0.942135D-03 -0.636572D-02
                6             7             8             9            10 
      6  0.305857D-01
      7 -0.544620D-02  0.485845D+00
      8  0.135253D-02  0.233880D-01  0.583875D+00
      9  0.258358D-01  0.421213D-01 -0.803194D-03  0.532716D+00
     10 -0.789763D-02 -0.109441D+00  0.746010D-02  0.414517D-01  0.221267D+00
     11  0.879449D-03  0.227706D-01 -0.620064D-01 -0.552475D-01 -0.378556D-01
     12 -0.359019D-02  0.591920D-01 -0.450598D-01 -0.160395D+00  0.520344D-01
     13  0.283767D-02  0.132280D-01  0.224537D-02  0.125422D-01 -0.763220D-01
     14 -0.154977D-02 -0.471625D-02 -0.586407D-03  0.359582D-02  0.481247D-01
     15  0.184394D-02 -0.166459D-01  0.326686D-01 -0.244256D-01 -0.854979D-01
     16  0.715599D-03  0.101250D-01  0.169186D-01  0.747879D-02 -0.404900D-01
     17  0.126140D-02  0.317503D-02 -0.297348D-01  0.907575D-02 -0.254879D-01
     18  0.395101D-03 -0.764233D-02 -0.256267D-01  0.654062D-02 -0.483786D-02
     19  0.603714D-02 -0.105866D+00  0.415666D-01 -0.821613D-01  0.959788D-02
     20 -0.221513D-02  0.493600D-01 -0.122436D+00  0.100074D+00 -0.334048D-02
     21  0.932854D-03 -0.743215D-01  0.847770D-01 -0.222224D+00 -0.184393D-01
     22  0.110881D-02 -0.102019D+00 -0.738346D-01 -0.198197D-01  0.841105D-02
     23  0.567954D-03 -0.923020D-01 -0.280536D+00 -0.534797D-01 -0.490539D-02
     24 -0.111283D-02 -0.183469D-01 -0.450381D-01 -0.827842D-01 -0.126777D-01
     25 -0.233363D-03 -0.109833D-01 -0.375351D-01  0.437832D-02 -0.184394D-02
     26  0.815198D-02 -0.692046D-02 -0.269168D-01  0.600091D-02 -0.558516D-02
     27  0.218905D-01 -0.352694D-02  0.430139D-02  0.178215D-01 -0.548056D-02
     28  0.132740D-02 -0.429060D-03 -0.692578D-02  0.236212D-02 -0.308733D-03
     29 -0.241644D-02 -0.241198D-02 -0.153233D-02 -0.112023D-02  0.117434D-02
     30 -0.632394D-03  0.206325D-02  0.141810D-03  0.276335D-02  0.577333D-04
               11            12            13            14            15 
     11  0.602702D+00
     12  0.166183D-01  0.590928D+00
     13  0.474662D-01 -0.114446D+00  0.540124D-01
     14 -0.117218D+00  0.112973D+00 -0.629483D-01  0.170380D+00
     15  0.968830D-01 -0.307409D+00  0.969495D-01 -0.161119D+00  0.337678D+00
     16 -0.449027D-01 -0.177943D-01  0.101377D-01  0.186900D-01  0.366411D-02
     17 -0.384322D+00 -0.829623D-01  0.161895D-01 -0.587448D-01  0.394682D-01
     18 -0.594024D-01 -0.852096D-01  0.402538D-02  0.469509D-01  0.858497D-02
     19 -0.666590D-03  0.539126D-02  0.394819D-03  0.133829D-03  0.321490D-02
     20 -0.415031D-02  0.568709D-02  0.919311D-03  0.151779D-02 -0.369094D-03
     21  0.345043D-01 -0.384088D-01  0.334118D-02 -0.275104D-02 -0.137475D-01
     22  0.622920D-02  0.272621D-02 -0.732389D-03  0.386987D-03 -0.742881D-04
     23 -0.412733D-01 -0.549185D-02 -0.212491D-02  0.427828D-02 -0.574918D-02
     24 -0.322802D-01  0.989595D-03  0.104340D-02 -0.420470D-03  0.452574D-03
     25 -0.226771D-03 -0.588555D-02  0.157147D-02 -0.651570D-03  0.294510D-02
     26 -0.109675D-01 -0.325145D-02  0.806573D-03  0.146849D-02  0.464923D-03
     27 -0.262362D-02 -0.736246D-03  0.811251D-03 -0.112607D-03  0.418608D-03
     28 -0.198434D-02  0.131319D-02 -0.336805D-03  0.566135D-03 -0.123479D-02
     29  0.227425D-02  0.965596D-03 -0.267334D-03 -0.215833D-03 -0.297326D-03
     30  0.160042D-02 -0.102759D-02  0.286680D-03 -0.379239D-03  0.452558D-03
               16            17            18            19            20 
     16  0.228773D-01
     17  0.936919D-02  0.471982D+00
     18  0.610686D-02  0.470781D-01  0.774153D-01
     19 -0.781949D-03 -0.242715D-02  0.460767D-03  0.104749D+00
     20  0.654243D-03  0.724969D-02 -0.104694D-02 -0.644783D-01  0.182361D+00
     21 -0.533705D-03 -0.380478D-02  0.675646D-04  0.965513D-01 -0.153858D+00
     22  0.156311D-03  0.250609D-02  0.194391D-02  0.127623D-01  0.790681D-02
     23  0.128131D-02 -0.470813D-02 -0.823298D-02 -0.110104D-02 -0.603524D-01
     24  0.239906D-02 -0.645321D-02 -0.701134D-02  0.985139D-02  0.401490D-01
     25 -0.100351D-02  0.180679D-02  0.239194D-02 -0.108944D-02 -0.405834D-03
     26  0.375472D-02  0.847692D-02  0.745137D-03 -0.237799D-02  0.780577D-02
     27  0.238775D-02  0.235665D-02 -0.209465D-03  0.469728D-02 -0.373075D-02
     28  0.390824D-03  0.103746D-02 -0.447668D-03 -0.252795D-02  0.331459D-02
     29 -0.479259D-03 -0.192552D-02 -0.236026D-03  0.662758D-03  0.424401D-03
     30 -0.513417D-03 -0.757745D-03  0.304014D-03 -0.174096D-02 -0.456382D-03
               21            22            23            24            25 
     21  0.276212D+00
     22  0.503091D-02  0.108424D+00
     23  0.289284D-01  0.109219D+00  0.404783D+00
     24  0.654836D-02  0.175460D-01  0.466502D-01  0.749170D-01
     25 -0.160671D-02 -0.131958D-01 -0.943511D-02 -0.142603D-02  0.199958D+00
     26 -0.588019D-02 -0.655120D-02 -0.502201D-03 -0.265193D-03  0.677656D-01
     27  0.307630D-02  0.193397D-02  0.179226D-03  0.770273D-03  0.154331D+00
     28 -0.347073D-02  0.145828D-03  0.180867D-02 -0.278998D-03 -0.632631D-01
     29 -0.609583D-03  0.790415D-03  0.691485D-03  0.687366D-04  0.482841D-01
     30 -0.194055D-02 -0.142364D-02 -0.113025D-02 -0.564132D-03 -0.136518D+00
               26            27            28            29            30 
     26  0.512922D+00
     27 -0.198205D+00  0.388656D+00
     28  0.633014D-01 -0.148543D+00  0.579778D-01
     29 -0.116474D+00  0.164650D+00 -0.577783D-01  0.154708D+00
     30  0.202308D+00 -0.355260D+00  0.137874D+00 -0.196192D+00  0.355699D+00
 FormGI is forming the generalized inverse of G from B-inverse, IUseBI=4.
 Force constants in internal coordinates: 
                1             2             3             4             5 
      1  0.941475D+00
      2  0.356900D-01  0.255487D+00
      3  0.826110D-01  0.264558D-01  0.477357D+00
      4 -0.145006D-02  0.170997D-01 -0.136846D-02  0.282791D+00
      5  0.724509D-02  0.207981D-01  0.117943D-01  0.238012D-01  0.431301D+00
      6  0.628706D-02  0.179450D-01  0.548269D-02  0.278919D-01  0.516114D-01
      7  0.712077D-02 -0.169514D-02  0.327263D-03  0.152105D-01  0.533816D-02
      8  0.190567D-02 -0.343430D-02  0.737511D-02  0.137902D-01  0.767005D-02
      9 -0.585412D-02 -0.180336D-02  0.848958D-02  0.217596D-03 -0.296755D-02
     10  0.162386D-01  0.929125D-02 -0.510153D-01 -0.347933D-03  0.107437D-01
     11  0.250195D-01 -0.336536D-01  0.231690D-01 -0.417248D-03 -0.111709D-01
     12 -0.412797D-01  0.243140D-01  0.279129D-01  0.750031D-03  0.508741D-03
     13  0.751254D-02  0.308111D-02 -0.273952D-02  0.858004D-02 -0.280459D-01
     14  0.537949D-02  0.105208D-01 -0.301539D-02 -0.150868D-01  0.165490D-01
     15 -0.103059D-01  0.202200D-01  0.113020D-01 -0.168924D-01 -0.738358D-02
     16 -0.412044D-02 -0.103823D-01  0.300673D-04  0.131804D-01  0.172898D-01
     17  0.171041D-02 -0.171934D-01 -0.445361D-02  0.127689D-01 -0.433407D-02
     18 -0.316372D-03 -0.692793D-02 -0.117559D-02 -0.251775D-02  0.642868D-02
     19 -0.359703D-02 -0.938804D-03  0.101552D-02  0.181192D-01  0.168174D-01
     20  0.114812D-02  0.275394D-02 -0.259199D-02  0.217820D-01 -0.772987D-02
     21 -0.722633D-04 -0.160768D-03 -0.687191D-03 -0.158912D-01 -0.504605D-02
     22  0.563277D-02  0.407932D-02  0.562855D-01  0.771244D-04  0.619325D-02
     23 -0.917175D-03 -0.192990D-02  0.215961D-02 -0.954911D-03 -0.132268D-01
     24  0.258910D-02 -0.571697D-02 -0.172915D-02  0.109133D-01  0.177255D-02
     25 -0.779866D-03  0.398062D-02  0.179628D-02 -0.108763D-01  0.147592D-01
     26 -0.619634D-03  0.232393D-03 -0.590546D-03 -0.477666D-03 -0.155077D-01
     27  0.288664D-02 -0.355468D-02 -0.447930D-02  0.113906D-01 -0.508353D-03
     28 -0.482325D-03  0.614292D-02 -0.953871D-03 -0.103991D-01  0.124783D-01
     29  0.405774D-03 -0.968122D-03  0.809806D-02  0.554393D-03 -0.440258D-02
     30 -0.163198D-03 -0.214540D-02  0.919873D-02  0.633354D-04 -0.151738D-02
     31  0.697733D-02 -0.291738D-02 -0.400517D-02 -0.738294D-02  0.144642D-01
     32  0.441273D-02 -0.139412D-02 -0.654586D-02  0.850872D-02  0.161913D-01
     33 -0.179549D-02 -0.109645D-01  0.154878D-02 -0.304346D-02 -0.359828D-03
     34 -0.436008D-02 -0.944122D-02 -0.991912D-03  0.128482D-01  0.136728D-02
     35 -0.736706D-04  0.126862D-01  0.541958D-02 -0.145251D-01 -0.152531D-01
     36 -0.263827D-02  0.142095D-01  0.287889D-02  0.136656D-02 -0.135260D-01
                6             7             8             9            10 
      6  0.447303D+00
      7  0.704298D-02  0.466904D+00
      8  0.525795D-02  0.634207D-01  0.477041D+00
      9 -0.117811D-02 -0.195584D-03 -0.579743D-03  0.522010D+00
     10 -0.159163D-01  0.283354D-02  0.563336D-02  0.199671D-02  0.148767D+00
     11 -0.394727D-02 -0.312743D-02 -0.332923D-02  0.110001D-02 -0.794020D-01
     12  0.198973D-01  0.246402D-03 -0.234954D-02 -0.306361D-02 -0.692761D-01
     13 -0.260101D-01  0.101193D-03 -0.188208D-02  0.684354D-04  0.240700D-02
     14 -0.751611D-02 -0.560124D-02  0.738214D-03 -0.150287D-02  0.449872D-02
     15  0.116857D-01 -0.106122D-02 -0.444233D-02 -0.609863D-03 -0.547587D-02
     16 -0.446678D-02  0.940044D-02 -0.408988D-02  0.639836D-03 -0.440861D-02
     17  0.194411D-01 -0.272891D-02  0.100714D-01  0.280229D-03  0.198675D-02
     18  0.795417D-02 -0.119895D-03 -0.245586D-03  0.119591D-02  0.100052D-02
     19 -0.499732D-02  0.330705D-01 -0.326250D-01  0.315972D-03  0.192698D-02
     20  0.148463D-01 -0.330959D-01  0.283987D-01 -0.431760D-03 -0.574862D-02
     21 -0.542944D-02  0.131197D-01  0.149520D-01  0.107623D-03  0.110010D-03
     22 -0.206160D-02 -0.118687D-02 -0.255426D-02  0.281278D-01 -0.100124D-01
     23  0.158274D-01 -0.521292D-02  0.368423D-02  0.212819D-03 -0.332645D-03
     24 -0.123432D-01  0.288021D-02 -0.224436D-02  0.186168D-04 -0.119114D-02
     25 -0.163104D-03 -0.113881D-02 -0.474443D-02  0.232122D-03 -0.618145D-03
     26  0.147712D-01 -0.366428D-02  0.518605D-02 -0.827392D-03 -0.906652D-03
     27 -0.133994D-01  0.442886D-02 -0.742544D-03 -0.102159D-02 -0.176515D-02
     28 -0.121935D-02  0.409843D-03 -0.324261D-02 -0.808088D-03 -0.119215D-02
     29  0.123383D-02  0.194550D-02 -0.868022D-03 -0.997462D-03 -0.345144D-02
     30  0.206391D-02  0.486834D-03 -0.220948D-02  0.962163D-04  0.252659D-02
     31 -0.152550D-01 -0.969877D-02 -0.982899D-02 -0.406812D-03  0.384824D-02
     32 -0.137185D-01  0.102131D-01  0.756391D-02 -0.355841D-03  0.302861D-03
     33  0.141273D-01 -0.923314D-02 -0.670074D-02  0.100122D-02 -0.317315D-03
     34  0.156638D-01  0.106787D-01  0.106922D-01  0.105220D-02 -0.386269D-02
     35 -0.371498D-02 -0.128128D-01 -0.974762D-02 -0.937983D-03 -0.158889D-03
     36 -0.217848D-02  0.709900D-02  0.764527D-02 -0.887012D-03 -0.370427D-02
               11            12            13            14            15 
     11  0.182786D+00
     12 -0.103501D+00  0.172831D+00
     13 -0.500775D-03 -0.212814D-02  0.126919D+00
     14 -0.318561D-02 -0.112625D-02 -0.320616D-01  0.831098D-01
     15 -0.624091D-02  0.117899D-01 -0.420327D-01 -0.589550D-02  0.955807D-01
     16  0.242605D-02  0.194928D-02 -0.446983D-01 -0.462169D-01  0.223029D-01
     17  0.460164D-02 -0.656918D-02 -0.377187D-01  0.197264D-01 -0.502562D-01
     18  0.314268D-02 -0.416632D-02  0.289440D-01 -0.194867D-01 -0.207383D-01
     19  0.474979D-03 -0.234180D-02 -0.128497D-01 -0.737496D-02  0.509892D-02
     20 -0.236524D-02  0.815771D-02 -0.277003D-02  0.305180D-02 -0.887211D-02
     21  0.168394D-02 -0.182293D-02  0.665815D-02  0.294399D-02  0.237229D-02
     22  0.121158D-01 -0.197379D-02 -0.323890D-03 -0.903042D-04  0.877379D-05
     23  0.583644D-03  0.108066D-03 -0.503633D-02  0.114660D-01 -0.574263D-02
     24  0.110427D-02  0.387585D-03 -0.264016D-03 -0.102946D-01 -0.935835D-02
     25 -0.639168D-03  0.168167D-02 -0.875058D-02  0.108170D-01  0.187666D-01
     26  0.516400D-03 -0.220772D-04  0.188984D-02  0.573196D-02 -0.793203D-02
     27  0.103702D-02  0.257443D-03  0.666216D-02 -0.160287D-01 -0.115478D-01
     28 -0.706412D-03  0.155153D-02 -0.182441D-02  0.508296D-02  0.165772D-01
     29  0.646226D-02 -0.341678D-02  0.360209D-02 -0.342014D-02 -0.129673D-02
     30  0.119741D-03 -0.224939D-02 -0.349495D-02  0.269374D-02  0.100072D-02
     31  0.135894D-03 -0.397640D-02  0.750222D-02  0.214616D-01 -0.260573D-01
     32  0.780793D-03 -0.101590D-02  0.182970D-02  0.214532D-01 -0.261604D-01
     33  0.279290D-02 -0.253741D-02 -0.282506D-02 -0.306175D-01 -0.700694D-02
     34  0.343780D-02  0.423085D-03 -0.849758D-02 -0.306259D-01 -0.711002D-02
     35 -0.487625D-02  0.500873D-02  0.866859D-02  0.739356D-02  0.333240D-01
     36 -0.423135D-02  0.796922D-02  0.299608D-02  0.738514D-02  0.332209D-01
               16            17            18            19            20 
     16  0.896188D-01
     17 -0.215673D-02  0.888022D-01
     18 -0.188672D-01 -0.176620D-01  0.497223D-01
     19  0.213417D-01 -0.232999D-02 -0.388262D-02  0.171230D+00
     20 -0.449550D-02  0.159390D-01 -0.275037D-02 -0.268804D-01  0.175167D+00
     21 -0.837510D-02 -0.664500D-02  0.298934D-02 -0.922519D-01 -0.922061D-01
     22  0.528021D-03  0.268359D-03 -0.401855D-03 -0.741579D-03  0.428026D-03
     23 -0.228143D-01  0.230773D-01 -0.664704D-03 -0.554317D-02  0.607316D-02
     24  0.291310D-01  0.917511D-02 -0.191328D-01  0.791045D-02  0.661745D-03
     25 -0.724515D-02 -0.305073D-01  0.173938D-01  0.196394D-02 -0.614885D-02
     26 -0.218450D-01  0.224059D-01  0.242338D-05 -0.741404D-02  0.472289D-02
     27  0.301003D-01  0.850366D-02 -0.184657D-01  0.603958D-02 -0.688522D-03
     28 -0.627588D-02 -0.311788D-01  0.180610D-01  0.930764D-04 -0.749912D-02
     29  0.137572D-02 -0.417494D-03  0.130940D-03 -0.126678D-02  0.858753D-03
     30  0.211714D-03  0.206266D-03 -0.615576D-03  0.700288D-03  0.218433D-02
     31 -0.103671D-01  0.558400D-02  0.176549D-02 -0.363880D-02 -0.387202D-02
     32 -0.588592D-02  0.905069D-02 -0.377569D-03  0.430242D-02  0.463289D-02
     33  0.144723D-01  0.652116D-02  0.208164D-01 -0.884719D-03 -0.280944D-02
     34  0.189534D-01  0.998785D-02  0.186734D-01  0.705650D-02  0.569547D-02
     35 -0.118434D-01 -0.207905D-01 -0.180721D-01 -0.686524D-02 -0.591928D-02
     36 -0.736220D-02 -0.173238D-01 -0.202151D-01  0.107598D-02  0.258563D-02
               21            22            23            24            25 
     21  0.134251D+00
     22  0.616363D-03  0.159289D+00
     23  0.778438D-04  0.174164D-02  0.209259D-01
     24 -0.409682D-02  0.213511D-02 -0.337930D-02  0.262664D-01
     25  0.262730D-02  0.160225D-02 -0.939940D-03 -0.836740D-02  0.300392D-01
     26  0.949691D-03 -0.256010D-02  0.974125D-02 -0.127619D-01 -0.141354D-01
     27 -0.322498D-02 -0.216662D-02 -0.145640D-01  0.168838D-01 -0.215629D-01
     28  0.349915D-02 -0.269948D-02 -0.121246D-01 -0.177500D-01  0.168437D-01
     29 -0.520074D-04 -0.200975D-03 -0.575592D-02 -0.401754D-02 -0.660902D-02
     30 -0.993777D-03  0.371569D-02  0.579118D-02  0.563288D-02  0.704236D-02
     31 -0.824427D-02 -0.281244D-03 -0.395426D-02  0.287132D-02  0.200858D-02
     32  0.792425D-02  0.309590D-03 -0.341450D-02  0.534505D-02  0.182603D-02
     33 -0.104306D-01 -0.325605D-03  0.693744D-03 -0.423014D-02 -0.959845D-03
     34  0.573794D-02  0.265230D-03  0.123351D-02 -0.175642D-02 -0.114240D-02
     35 -0.561120D-02 -0.290999D-03  0.133558D-02 -0.279927D-02 -0.623020D-03
     36  0.105573D-01  0.299835D-03  0.187534D-02 -0.325546D-03 -0.805576D-03
               26            27            28            29            30 
     26  0.225571D-01
     27  0.538846D-04  0.315016D-01
     28 -0.131961D-02 -0.694502D-02  0.276487D-01
     29  0.674098D-02  0.847937D-02  0.588788D-02  0.427338D-02
     30 -0.654926D-02 -0.670755D-02 -0.529807D-02 -0.889471D-02  0.392463D-02
     31 -0.417823D-02  0.264736D-02  0.178462D-02 -0.217237D-03  0.985249D-04
     32 -0.553530D-02  0.322425D-02 -0.294775D-03 -0.714881D-03  0.146608D-02
     33  0.256494D-02 -0.235894D-02  0.911356D-03  0.818937D-03 -0.119422D-02
     34  0.120787D-02 -0.178206D-02 -0.116804D-02  0.321292D-03  0.173329D-03
     35  0.224537D-02 -0.188948D-02  0.286769D-03  0.128159D-03 -0.693652D-03
     36  0.888294D-03 -0.131259D-02 -0.179262D-02 -0.369485D-03  0.673901D-03
               31            32            33            34            35 
     31  0.264829D-01
     32  0.689400D-02  0.274157D-01
     33  0.175924D-02 -0.172763D-01  0.321676D-01
     34 -0.178296D-01  0.324548D-02  0.131321D-01  0.342072D-01
     35  0.232282D-02 -0.185938D-01 -0.436534D-02 -0.252819D-01  0.353943D-01
     36 -0.172661D-01  0.192799D-02 -0.234008D-01 -0.420678D-02  0.144777D-01
               36 
     36  0.336718D-01
 Leave Link  716 at Sat May 24 00:46:51 2025, MaxMem=  3758096384 cpu:               0.1 elap:               0.0
 (Enter /apps/easybuild-2022/easybuild/software/Compiler/NVHPC/22.11-CUDA-11.7.0/Gaussian/g16c01-CUDA-11.7.0/g16/l103.exe)

 GradGradGradGradGradGradGradGradGradGradGradGradGradGradGradGradGradGrad
 Berny optimization.
 Red2BG is reusing G-inverse.
 Internal  Forces:  Max     0.019779773 RMS     0.005481550
 Search for a local minimum.
 Step number   1 out of a maximum of   46
 All quantities printed in internal units (Hartrees-Bohrs-Radians)
 RMS Force = .54816D-02 SwitMx=.10000D-02 MixMth= 1
 Mixed Optimization -- RFO/linear search
 Second derivative matrix not updated -- analytic derivatives used.
 ITU=  0
     Eigenvalues ---   -0.00572   0.00191   0.00406   0.04578   0.06406
     Eigenvalues ---    0.07259   0.10827   0.14644   0.15498   0.16154
     Eigenvalues ---    0.18534   0.20179   0.21516   0.22643   0.25293
     Eigenvalues ---    0.31380   0.32308   0.40242   0.43014   0.48097
     Eigenvalues ---    0.51165   0.52862   0.54804   0.96195
 Eigenvalue     1 is  -5.72D-03 should be greater than     0.000000 Eigenvector:
                          D7        D8        D2        D5        D3
   1                   -0.69600  -0.69440   0.07576   0.07414   0.07050
                          D6        D1        D4        D10       R3
   1                    0.06888   0.06221   0.06059   0.02968   0.02813
 RFO step:  Lambda=-1.27216661D-02 EMin=-5.71514011D-03
 Linear search not attempted -- first point.
 Iteration  1 RMS(Cart)=  0.04239010 RMS(Int)=  0.11739209
 Iteration  2 RMS(Cart)=  0.05057195 RMS(Int)=  0.07041334
 Iteration  3 RMS(Cart)=  0.05092052 RMS(Int)=  0.02369243
 Iteration  4 RMS(Cart)=  0.02510710 RMS(Int)=  0.00134560
 Iteration  5 RMS(Cart)=  0.00124580 RMS(Int)=  0.00011869
 Iteration  6 RMS(Cart)=  0.00000247 RMS(Int)=  0.00011868
 Iteration  7 RMS(Cart)=  0.00000000 RMS(Int)=  0.00011868
 ITry= 1 IFail=0 DXMaxC= 5.80D-01 DCOld= 1.00D+10 DXMaxT= 3.00D-01 DXLimC= 3.00D+00 Rises=F
 Variable       Old X    -DE/DX   Delta X   Delta X   Delta X     New X
                                 (Linear)    (Quad)   (Total)
    R1        2.24489  -0.01267   0.00000  -0.00983  -0.00983   2.23505
    R2        2.92181   0.00332   0.00000   0.00825   0.00825   2.93007
    R3        2.51647   0.01978   0.00000   0.00559   0.00559   2.52206
    R4        2.86669  -0.00032   0.00000  -0.00294  -0.00294   2.86375
    R5        2.53883   0.00635   0.00000   0.03029   0.03029   2.56913
    R6        2.52299   0.00146   0.00000  -0.01299  -0.01299   2.51000
    R7        2.48729  -0.00167   0.00000  -0.00946  -0.00946   2.47783
    R8        2.47786   0.00117   0.00000   0.00850   0.00850   2.48636
    R9        1.82781  -0.00086   0.00000  -0.00254  -0.00254   1.82527
    A1        2.15778  -0.00543   0.00000  -0.02174  -0.02197   2.13581
    A2        2.20598  -0.00713   0.00000  -0.03732  -0.03754   2.16845
    A3        1.91889   0.01250   0.00000   0.05784   0.05762   1.97651
    A4        1.96950   0.00050   0.00000   0.00401   0.00375   1.97324
    A5        1.91095  -0.00337   0.00000  -0.02264  -0.02271   1.88824
    A6        1.89137   0.00386   0.00000   0.02232   0.02217   1.91354
    A7        1.89078   0.00075   0.00000  -0.01493  -0.01508   1.87570
    A8        1.89053  -0.00147   0.00000   0.01080   0.01055   1.90109
    A9        1.91011  -0.00028   0.00000   0.00077   0.00095   1.91106
   A10        1.98160   0.00017   0.00000   0.00877   0.00878   1.99039
   A11        2.01215  -0.00035   0.00000  -0.01617  -0.01616   1.99599
   A12        1.94866   0.00034   0.00000   0.00290   0.00292   1.95157
   A13        1.89200   0.01009   0.00000   0.04537   0.04537   1.93736
    D1        1.92996  -0.00079   0.00000  -0.05523  -0.05526   1.87471
    D2       -2.24590  -0.00187   0.00000  -0.08743  -0.08738  -2.33327
    D3       -0.16356  -0.00187   0.00000  -0.08639  -0.08658  -0.25014
    D4       -1.17859   0.00139   0.00000  -0.01662  -0.01653  -1.19512
    D5        0.92874   0.00031   0.00000  -0.04881  -0.04865   0.88009
    D6        3.01108   0.00031   0.00000  -0.04778  -0.04786   2.96322
    D7        2.10095   0.00709   0.00000   0.71859   0.71841   2.81936
    D8       -1.07482   0.00490   0.00000   0.67909   0.67927  -0.39555
    D9       -0.98464  -0.00265   0.00000  -0.03440  -0.03440  -1.01905
   D10        1.29486  -0.00233   0.00000  -0.03721  -0.03722   1.25764
   D11       -3.10344   0.00076   0.00000   0.00199   0.00194  -3.10149
   D12       -0.82393   0.00108   0.00000  -0.00083  -0.00088  -0.82480
   D13        1.10936   0.00150   0.00000   0.00337   0.00343   1.11279
   D14       -2.89432   0.00182   0.00000   0.00056   0.00061  -2.89371
         Item               Value     Threshold  Converged?
 Maximum Force            0.019780     0.000450     NO 
 RMS     Force            0.005482     0.000300     NO 
 Maximum Displacement     0.580107     0.001800     NO 
 RMS     Displacement     0.150070     0.001200     NO 
 Predicted change in Energy=-1.267597D-02
 Lowest energy point so far.  Saving SCF results.
 GradGradGradGradGradGradGradGradGradGradGradGradGradGradGradGradGradGrad

 Leave Link  103 at Sat May 24 00:46:51 2025, MaxMem=  3758096384 cpu:               0.2 elap:               0.0
 (Enter /apps/easybuild-2022/easybuild/software/Compiler/NVHPC/22.11-CUDA-11.7.0/Gaussian/g16c01-CUDA-11.7.0/g16/l202.exe)
                          Input orientation:                          
 ---------------------------------------------------------------------
 Center     Atomic      Atomic             Coordinates (Angstroms)
 Number     Number       Type             X           Y           Z
 ---------------------------------------------------------------------
      1          6           0        1.563108   -0.036708   -0.043575
      2          8           0        2.196697   -1.028224    0.076136
      3          6           0        0.012827   -0.033748   -0.016234
      4          6           0       -0.557214    0.555357    1.258340
      5          9           0       -0.170755   -0.059102    2.350296
      6          9           0       -0.425762    1.860611    1.359139
      7          9           0       -0.428395    0.729136   -1.051431
      8          9           0       -0.438468   -1.275061   -0.156511
      9          8           0        2.090811    1.186380   -0.125961
     10          1           0        1.457394    1.812216   -0.500200
 ---------------------------------------------------------------------
                    Distance matrix (angstroms):
                    1          2          3          4          5
     1  C    0.000000
     2  O    1.182739   0.000000
     3  C    1.550525   2.401417   0.000000
     4  C    2.557594   3.389596   1.515430   0.000000
     5  F    2.955910   3.422840   2.373775   1.311213   0.000000
     6  F    3.085940   4.107159   2.381723   1.315723   2.175481
     7  F    2.359740   3.354226   1.359522   2.319878   3.501349
     8  F    2.356390   2.656906   1.328233   2.316534   2.798983
     9  O    1.334617   2.226326   2.412213   3.053935   3.577395
    10  H    1.907407   2.991126   2.393445   2.954793   3.778628
                    6          7          8          9         10
     6  F    0.000000
     7  F    2.662910   0.000000
     8  F    3.482785   2.194946   0.000000
     9  O    2.998875   2.722493   3.529430   0.000000
    10  H    2.646840   2.243461   3.639188   0.965890   0.000000
 Symmetry turned off by external request.
 Stoichiometry    C3HF4O2
 Rotational constants (GHZ):           2.0011866           1.4856190           1.4219277
 Leave Link  202 at Sat May 24 00:46:51 2025, MaxMem=  3758096384 cpu:               0.1 elap:               0.0
 (Enter /apps/easybuild-2022/easybuild/software/Compiler/NVHPC/22.11-CUDA-11.7.0/Gaussian/g16c01-CUDA-11.7.0/g16/l301.exe)
 Standard basis: def2TZVPP (5D, 7F)
 Ernie: Thresh=  0.10000D-02 Tol=  0.10000D-05 Strict=F.
   293 basis functions,   476 primitive gaussians,   339 cartesian basis functions
    36 alpha electrons       35 beta electrons
       nuclear repulsion energy       508.6403096979 Hartrees.
 IExCor= 4336 DFT=T Ex+Corr=M062X ExCW=0 ScaHFX=  0.540000
 ScaDFX=  1.000000  1.000000  1.000000  1.000000 ScalE2=  1.000000  1.000000
 IRadAn=      5 IRanWt=     -1 IRanGd=            0 ICorTp=0 IEmpDi=  4
 NAtoms=   10 NActive=   10 NUniq=   10 SFac= 1.00D+00 NAtFMM=   60 NAOKFM=F Big=F
 Integral buffers will be    131072 words long.
 Raffenetti 2 integral format.
 Two-electron integral symmetry is turned off.
 Leave Link  301 at Sat May 24 00:46:51 2025, MaxMem=  3758096384 cpu:               0.1 elap:               0.1
 (Enter /apps/easybuild-2022/easybuild/software/Compiler/NVHPC/22.11-CUDA-11.7.0/Gaussian/g16c01-CUDA-11.7.0/g16/l302.exe)
 NPDir=0 NMtPBC=     1 NCelOv=     1 NCel=       1 NClECP=     1 NCelD=      1
         NCelK=      1 NCelE2=     1 NClLst=     1 CellRange=     0.0.
 One-electron integrals computed using PRISM.
   1 Symmetry operations used in ECPInt.
 ECPInt:  NShTT=    5565 NPrTT=   17967 LenC2=    5372 LenP2D=   13424.
 LDataN:  DoStor=T MaxTD1= 6 Len=  172
 NBasis=   293 RedAO= T EigKep=  3.90D-04  NBF=   293
 NBsUse=   293 1.00D-06 EigRej= -1.00D+00 NBFU=   293
 Precomputing XC quadrature grid using
 IXCGrd= 4 IRadAn=           5 IRanWt=          -1 IRanGd=           0 AccXCQ= 0.00D+00.
 Generated NRdTot=       0 NPtTot=           0 NUsed=           0 NTot=          32
 NSgBfM=   336   336   336   336   336 MxSgAt=    10 MxSgA2=    10.
 Leave Link  302 at Sat May 24 00:46:51 2025, MaxMem=  3758096384 cpu:               0.8 elap:               0.2
 (Enter /apps/easybuild-2022/easybuild/software/Compiler/NVHPC/22.11-CUDA-11.7.0/Gaussian/g16c01-CUDA-11.7.0/g16/l303.exe)
 DipDrv:  MaxL=1.
 Leave Link  303 at Sat May 24 00:46:51 2025, MaxMem=  3758096384 cpu:               0.1 elap:               0.0
 (Enter /apps/easybuild-2022/easybuild/software/Compiler/NVHPC/22.11-CUDA-11.7.0/Gaussian/g16c01-CUDA-11.7.0/g16/l401.exe)
 Initial guess from the checkpoint file:  "/tmp/Gau-214117.chk"
 B after Tr=     0.031346   -0.029459   -0.039301
         Rot=    0.999850    0.014396   -0.001691    0.009446 Ang=   1.98 deg.
 Guess basis will be translated and rotated to current coordinates.
 JPrj=2 DoOrth=T DoCkMO=T.
 Initial guess <Sx>= 0.0000 <Sy>= 0.0000 <Sz>= 0.5000 <S**2>= 0.7539 S= 0.5019
 Generating alternative initial guess.
 ExpMin= 9.52D-02 ExpMax= 3.55D+04 ExpMxC= 1.21D+03 IAcc=3 IRadAn=         5 AccDes= 0.00D+00
 Harris functional with IExCor= 1009 and IRadAn=       5 diagonalized for initial guess.
 HarFok:  IExCor= 1009 AccDes= 0.00D+00 IRadAn=         5 IDoV= 1 UseB2=F ITyADJ=14
 ICtDFT=  3500011 ScaDFX=  1.000000  1.000000  1.000000  1.000000
 FoFCou: FMM=F IPFlag=           0 FMFlag=      100000 FMFlg1=           0
         NFxFlg=           0 DoJE=T BraDBF=F KetDBF=T FulRan=T
         wScrn=  0.000000 ICntrl=       500 IOpCl=  0 I1Cent=   200000004 NGrid=           0
         NMat0=    1 NMatS0=      1 NMatT0=    0 NMatD0=    1 NMtDS0=    0 NMtDT0=    0
 Symmetry not used in FoFCou.
 Harris En= -664.303560710161    
 Leave Link  401 at Sat May 24 00:46:52 2025, MaxMem=  3758096384 cpu:               3.3 elap:               0.6
 (Enter /apps/easybuild-2022/easybuild/software/Compiler/NVHPC/22.11-CUDA-11.7.0/Gaussian/g16c01-CUDA-11.7.0/g16/l502.exe)
 Keep R1 and R2 ints in memory in canonical form, NReq=1874806909.
 FoFCou: FMM=F IPFlag=           0 FMFlag=           0 FMFlg1=           0
         NFxFlg=           0 DoJE=F BraDBF=F KetDBF=F FulRan=T
         wScrn=  0.000000 ICntrl=       600 IOpCl=  0 I1Cent=           0 NGrid=           0
         NMat0=    1 NMatS0=  43071 NMatT0=    0 NMatD0=    1 NMtDS0=    0 NMtDT0=    0
 Symmetry not used in FoFCou.
 Two-electron integral symmetry not used.
 UHF open shell SCF:
 Using DIIS extrapolation, IDIIS=  1040.
 NGot=  3758096384 LenX=  1902707317 LenY=  1902591955
 Requested convergence on RMS density matrix=1.00D-08 within  32 cycles.
 Requested convergence on MAX density matrix=1.00D-06.
 Requested convergence on             energy=1.00D-06.
 No special actions if energy rises.
 Integral accuracy reduced to 1.0D-05 until final iterations.

 Cycle   1  Pass 0  IDiag  1:
 E= -664.668614597984    
 DIIS: error= 1.13D-02 at cycle   1 NSaved=   1.
 NSaved= 1 IEnMin= 1 EnMin= -664.668614597984     IErMin= 1 ErrMin= 1.13D-02
 ErrMax= 1.13D-02  0.00D+00 EMaxC= 1.00D-01 BMatC= 2.12D-01 BMatP= 2.12D-01
 IDIUse=3 WtCom= 8.87D-01 WtEn= 1.13D-01
 Coeff-Com:  0.100D+01
 Coeff-En:   0.100D+01
 Coeff:      0.100D+01
 Recover alternate guess density for next cycle.
 RMSDP=2.23D-03 MaxDP=1.48D-01              OVMax= 0.00D+00

 Cycle   2  Pass 0  IDiag  1:
 E= -664.555454694359     Delta-E=        0.113159903624 Rises=F Damp=F
 Switch densities from cycles 1 and 2 for lowest energy.
 DIIS: error= 1.90D-02 at cycle   2 NSaved=   2.
 NSaved= 2 IEnMin= 1 EnMin= -664.668614597984     IErMin= 1 ErrMin= 1.13D-02
 ErrMax= 1.90D-02  0.00D+00 EMaxC= 1.00D+00 BMatC= 1.22D+00 BMatP= 2.12D-01
 IDIUse=1 WtCom= 1.00D+00 WtEn= 0.00D+00
 Coeff-Com:  0.882D+00 0.118D+00
 Coeff:      0.882D+00 0.118D+00
 Gap=     0.320 Goal=   None    Shift=    0.000
 Gap=     0.329 Goal=   None    Shift=    0.000
 RMSDP=9.54D-04 MaxDP=4.80D-02 DE= 1.13D-01 OVMax= 2.22D-01

 Cycle   3  Pass 0  IDiag  1:
 E= -664.718676879613     Delta-E=       -0.163222185254 Rises=F Damp=F
 DIIS: error= 3.41D-03 at cycle   3 NSaved=   3.
 NSaved= 3 IEnMin= 3 EnMin= -664.718676879613     IErMin= 3 ErrMin= 3.41D-03
 ErrMax= 3.41D-03  0.00D+00 EMaxC= 1.00D+00 BMatC= 4.44D-02 BMatP= 2.12D-01
 IDIUse=1 WtCom= 1.00D+00 WtEn= 0.00D+00
 Coeff-Com:  0.440D-01 0.124D+00 0.832D+00
 Coeff:      0.440D-01 0.124D+00 0.832D+00
 Gap=     0.333 Goal=   None    Shift=    0.000
 Gap=     0.319 Goal=   None    Shift=    0.000
 RMSDP=2.78D-04 MaxDP=1.30D-02 DE=-1.63D-01 OVMax= 2.63D-02

 Cycle   4  Pass 0  IDiag  1:
 E= -664.725627514778     Delta-E=       -0.006950635165 Rises=F Damp=F
 DIIS: error= 2.07D-03 at cycle   4 NSaved=   4.
 NSaved= 4 IEnMin= 4 EnMin= -664.725627514778     IErMin= 4 ErrMin= 2.07D-03
 ErrMax= 2.07D-03  0.00D+00 EMaxC= 1.00D+00 BMatC= 6.95D-03 BMatP= 4.44D-02
 IDIUse=1 WtCom= 1.00D+00 WtEn= 0.00D+00
 Coeff-Com: -0.408D-01 0.185D-01 0.306D+00 0.716D+00
 Coeff:     -0.408D-01 0.185D-01 0.306D+00 0.716D+00
 Gap=     0.333 Goal=   None    Shift=    0.000
 Gap=     0.321 Goal=   None    Shift=    0.000
 RMSDP=1.03D-04 MaxDP=5.76D-03 DE=-6.95D-03 OVMax= 1.33D-02

 Cycle   5  Pass 0  IDiag  1:
 E= -664.726665717661     Delta-E=       -0.001038202884 Rises=F Damp=F
 DIIS: error= 9.28D-04 at cycle   5 NSaved=   5.
 NSaved= 5 IEnMin= 5 EnMin= -664.726665717661     IErMin= 5 ErrMin= 9.28D-04
 ErrMax= 9.28D-04  0.00D+00 EMaxC= 1.00D+00 BMatC= 1.33D-03 BMatP= 6.95D-03
 IDIUse=1 WtCom= 1.00D+00 WtEn= 0.00D+00
 Coeff-Com: -0.181D-01-0.567D-02 0.860D-01 0.373D+00 0.564D+00
 Coeff:     -0.181D-01-0.567D-02 0.860D-01 0.373D+00 0.564D+00
 Gap=     0.336 Goal=   None    Shift=    0.000
 Gap=     0.318 Goal=   None    Shift=    0.000
 RMSDP=4.40D-05 MaxDP=2.18D-03 DE=-1.04D-03 OVMax= 5.58D-03

 Cycle   6  Pass 0  IDiag  1:
 E= -664.726897373718     Delta-E=       -0.000231656056 Rises=F Damp=F
 DIIS: error= 1.62D-04 at cycle   6 NSaved=   6.
 NSaved= 6 IEnMin= 6 EnMin= -664.726897373718     IErMin= 6 ErrMin= 1.62D-04
 ErrMax= 1.62D-04  0.00D+00 EMaxC= 1.00D+00 BMatC= 5.42D-05 BMatP= 1.33D-03
 IDIUse=1 WtCom= 1.00D+00 WtEn= 0.00D+00
 Coeff-Com: -0.327D-02-0.142D-02-0.723D-02 0.361D-01 0.145D+00 0.831D+00
 Coeff:     -0.327D-02-0.142D-02-0.723D-02 0.361D-01 0.145D+00 0.831D+00
 Gap=     0.337 Goal=   None    Shift=    0.000
 Gap=     0.319 Goal=   None    Shift=    0.000
 RMSDP=1.63D-05 MaxDP=1.02D-03 DE=-2.32D-04 OVMax= 2.07D-03

 Cycle   7  Pass 0  IDiag  1:
 E= -664.726912465532     Delta-E=       -0.000015091814 Rises=F Damp=F
 DIIS: error= 7.85D-05 at cycle   7 NSaved=   7.
 NSaved= 7 IEnMin= 7 EnMin= -664.726912465532     IErMin= 7 ErrMin= 7.85D-05
 ErrMax= 7.85D-05  0.00D+00 EMaxC= 1.00D+00 BMatC= 1.70D-05 BMatP= 5.42D-05
 IDIUse=1 WtCom= 1.00D+00 WtEn= 0.00D+00
 Coeff-Com:  0.181D-02-0.868D-05-0.185D-01-0.475D-01-0.327D-01 0.400D+00
 Coeff-Com:  0.696D+00
 Coeff:      0.181D-02-0.868D-05-0.185D-01-0.475D-01-0.327D-01 0.400D+00
 Coeff:      0.696D+00
 Gap=     0.337 Goal=   None    Shift=    0.000
 Gap=     0.319 Goal=   None    Shift=    0.000
 RMSDP=7.46D-06 MaxDP=4.48D-04 DE=-1.51D-05 OVMax= 7.82D-04

 Initial convergence to 1.0D-05 achieved.  Increase integral accuracy.
 Cycle   8  Pass 1  IDiag  1:
 E= -664.726925589893     Delta-E=       -0.000013124361 Rises=F Damp=F
 DIIS: error= 3.44D-05 at cycle   1 NSaved=   1.
 NSaved= 1 IEnMin= 1 EnMin= -664.726925589893     IErMin= 1 ErrMin= 3.44D-05
 ErrMax= 3.44D-05  0.00D+00 EMaxC= 1.00D+00 BMatC= 2.73D-06 BMatP= 2.73D-06
 IDIUse=1 WtCom= 1.00D+00 WtEn= 0.00D+00
 Coeff-Com:  0.100D+01
 Coeff:      0.100D+01
 Gap=     0.337 Goal=   None    Shift=    0.000
 Gap=     0.319 Goal=   None    Shift=    0.000
 RMSDP=7.46D-06 MaxDP=4.48D-04 DE=-1.31D-05 OVMax= 4.54D-04

 Cycle   9  Pass 1  IDiag  1:
 E= -664.726926358495     Delta-E=       -0.000000768602 Rises=F Damp=F
 DIIS: error= 1.85D-05 at cycle   2 NSaved=   2.
 NSaved= 2 IEnMin= 2 EnMin= -664.726926358495     IErMin= 2 ErrMin= 1.85D-05
 ErrMax= 1.85D-05  0.00D+00 EMaxC= 1.00D+00 BMatC= 1.07D-06 BMatP= 2.73D-06
 IDIUse=1 WtCom= 1.00D+00 WtEn= 0.00D+00
 Coeff-Com:  0.315D+00 0.685D+00
 Coeff:      0.315D+00 0.685D+00
 Gap=     0.337 Goal=   None    Shift=    0.000
 Gap=     0.319 Goal=   None    Shift=    0.000
 RMSDP=1.50D-06 MaxDP=6.34D-05 DE=-7.69D-07 OVMax= 2.03D-04

 Cycle  10  Pass 1  IDiag  1:
 E= -664.726926559400     Delta-E=       -0.000000200906 Rises=F Damp=F
 DIIS: error= 1.02D-05 at cycle   3 NSaved=   3.
 NSaved= 3 IEnMin= 3 EnMin= -664.726926559400     IErMin= 3 ErrMin= 1.02D-05
 ErrMax= 1.02D-05  0.00D+00 EMaxC= 1.00D+00 BMatC= 3.58D-07 BMatP= 1.07D-06
 IDIUse=1 WtCom= 1.00D+00 WtEn= 0.00D+00
 Coeff-Com: -0.107D+00 0.333D+00 0.774D+00
 Coeff:     -0.107D+00 0.333D+00 0.774D+00
 Gap=     0.337 Goal=   None    Shift=    0.000
 Gap=     0.319 Goal=   None    Shift=    0.000
 RMSDP=1.19D-06 MaxDP=6.46D-05 DE=-2.01D-07 OVMax= 1.41D-04

 Cycle  11  Pass 1  IDiag  1:
 E= -664.726926660632     Delta-E=       -0.000000101232 Rises=F Damp=F
 DIIS: error= 4.25D-06 at cycle   4 NSaved=   4.
 NSaved= 4 IEnMin= 4 EnMin= -664.726926660632     IErMin= 4 ErrMin= 4.25D-06
 ErrMax= 4.25D-06  0.00D+00 EMaxC= 1.00D+00 BMatC= 2.54D-08 BMatP= 3.58D-07
 IDIUse=1 WtCom= 1.00D+00 WtEn= 0.00D+00
 Coeff-Com: -0.398D-01-0.331D-01 0.134D-01 0.106D+01
 Coeff:     -0.398D-01-0.331D-01 0.134D-01 0.106D+01
 Gap=     0.337 Goal=   None    Shift=    0.000
 Gap=     0.319 Goal=   None    Shift=    0.000
 RMSDP=6.71D-07 MaxDP=6.16D-05 DE=-1.01D-07 OVMax= 8.30D-05

 Cycle  12  Pass 1  IDiag  1:
 E= -664.726926676549     Delta-E=       -0.000000015917 Rises=F Damp=F
 DIIS: error= 3.93D-06 at cycle   5 NSaved=   5.
 NSaved= 5 IEnMin= 5 EnMin= -664.726926676549     IErMin= 5 ErrMin= 3.93D-06
 ErrMax= 3.93D-06  0.00D+00 EMaxC= 1.00D+00 BMatC= 2.25D-08 BMatP= 2.54D-08
 IDIUse=1 WtCom= 1.00D+00 WtEn= 0.00D+00
 Coeff-Com:  0.106D-01-0.136D+00-0.266D+00 0.736D+00 0.656D+00
 Coeff:      0.106D-01-0.136D+00-0.266D+00 0.736D+00 0.656D+00
 Gap=     0.337 Goal=   None    Shift=    0.000
 Gap=     0.319 Goal=   None    Shift=    0.000
 RMSDP=3.82D-07 MaxDP=3.14D-05 DE=-1.59D-08 OVMax= 4.73D-05

 Cycle  13  Pass 1  IDiag  1:
 E= -664.726926683330     Delta-E=       -0.000000006781 Rises=F Damp=F
 DIIS: error= 6.96D-07 at cycle   6 NSaved=   6.
 NSaved= 6 IEnMin= 6 EnMin= -664.726926683330     IErMin= 6 ErrMin= 6.96D-07
 ErrMax= 6.96D-07  0.00D+00 EMaxC= 1.00D+00 BMatC= 7.40D-10 BMatP= 2.25D-08
 IDIUse=1 WtCom= 1.00D+00 WtEn= 0.00D+00
 Coeff-Com:  0.679D-02-0.399D-01-0.819D-01 0.126D+00 0.200D+00 0.790D+00
 Coeff:      0.679D-02-0.399D-01-0.819D-01 0.126D+00 0.200D+00 0.790D+00
 Gap=     0.337 Goal=   None    Shift=    0.000
 Gap=     0.319 Goal=   None    Shift=    0.000
 RMSDP=8.45D-08 MaxDP=6.13D-06 DE=-6.78D-09 OVMax= 1.14D-05

 Cycle  14  Pass 1  IDiag  1:
 E= -664.726926683629     Delta-E=       -0.000000000299 Rises=F Damp=F
 DIIS: error= 2.82D-07 at cycle   7 NSaved=   7.
 NSaved= 7 IEnMin= 7 EnMin= -664.726926683629     IErMin= 7 ErrMin= 2.82D-07
 ErrMax= 2.82D-07  0.00D+00 EMaxC= 1.00D+00 BMatC= 1.44D-10 BMatP= 7.40D-10
 IDIUse=1 WtCom= 1.00D+00 WtEn= 0.00D+00
 Coeff-Com:  0.842D-03 0.550D-02 0.886D-02-0.573D-01-0.234D-01 0.277D+00
 Coeff-Com:  0.789D+00
 Coeff:      0.842D-03 0.550D-02 0.886D-02-0.573D-01-0.234D-01 0.277D+00
 Coeff:      0.789D+00
 Gap=     0.337 Goal=   None    Shift=    0.000
 Gap=     0.319 Goal=   None    Shift=    0.000
 RMSDP=3.21D-08 MaxDP=1.51D-06 DE=-2.99D-10 OVMax= 5.79D-06

 Cycle  15  Pass 1  IDiag  1:
 E= -664.726926683700     Delta-E=       -0.000000000070 Rises=F Damp=F
 DIIS: error= 1.38D-07 at cycle   8 NSaved=   8.
 NSaved= 8 IEnMin= 8 EnMin= -664.726926683700     IErMin= 8 ErrMin= 1.38D-07
 ErrMax= 1.38D-07  0.00D+00 EMaxC= 1.00D+00 BMatC= 2.94D-11 BMatP= 1.44D-10
 IDIUse=1 WtCom= 1.00D+00 WtEn= 0.00D+00
 Coeff-Com: -0.878D-03 0.894D-02 0.168D-01-0.400D-01-0.446D-01-0.572D-01
 Coeff-Com:  0.274D+00 0.843D+00
 Coeff:     -0.878D-03 0.894D-02 0.168D-01-0.400D-01-0.446D-01-0.572D-01
 Coeff:      0.274D+00 0.843D+00
 Gap=     0.337 Goal=   None    Shift=    0.000
 Gap=     0.319 Goal=   None    Shift=    0.000
 RMSDP=1.60D-08 MaxDP=7.62D-07 DE=-7.05D-11 OVMax= 3.56D-06

 Cycle  16  Pass 1  IDiag  1:
 E= -664.726926683714     Delta-E=       -0.000000000014 Rises=F Damp=F
 DIIS: error= 7.45D-08 at cycle   9 NSaved=   9.
 NSaved= 9 IEnMin= 9 EnMin= -664.726926683714     IErMin= 9 ErrMin= 7.45D-08
 ErrMax= 7.45D-08  0.00D+00 EMaxC= 1.00D+00 BMatC= 5.64D-12 BMatP= 2.94D-11
 IDIUse=1 WtCom= 1.00D+00 WtEn= 0.00D+00
 Coeff-Com: -0.498D-03 0.171D-02 0.374D-02-0.713D-03-0.984D-02-0.766D-01
 Coeff-Com: -0.920D-01 0.225D+00 0.949D+00
 Coeff:     -0.498D-03 0.171D-02 0.374D-02-0.713D-03-0.984D-02-0.766D-01
 Coeff:     -0.920D-01 0.225D+00 0.949D+00
 Gap=     0.337 Goal=   None    Shift=    0.000
 Gap=     0.319 Goal=   None    Shift=    0.000
 RMSDP=9.87D-09 MaxDP=4.76D-07 DE=-1.43D-11 OVMax= 2.30D-06

 SCF Done:  E(UM062X) =  -664.726926684     A.U. after   16 cycles
            NFock= 16  Conv=0.99D-08     -V/T= 2.0036
 <Sx>= 0.0000 <Sy>= 0.0000 <Sz>= 0.5000 <S**2>= 0.7538 S= 0.5019
 <L.S>=  0.00000000000    
 KE= 6.623112951741D+02 PE=-2.591287356254D+03 EE= 7.556088246984D+02
 Annihilation of the first spin contaminant:
 S**2 before annihilation     0.7538,   after     0.7500
 Leave Link  502 at Sat May 24 00:47:33 2025, MaxMem=  3758096384 cpu:             163.2 elap:              41.3
[...]
               31            32            33            34            35 
     31  0.285307D-01
     32  0.799831D-02  0.283282D-01
     33 -0.278460D-03 -0.194918D-01  0.357530D-01
     34 -0.208109D-01  0.838054D-03  0.165396D-01  0.381886D-01
     35  0.404953D-02 -0.171045D-01 -0.449205D-02 -0.256461D-01  0.335736D-01
     36 -0.164829D-01  0.322531D-02 -0.237054D-01 -0.399719D-02  0.124195D-01
               36 
     36  0.321277D-01
 Leave Link  716 at Sat May 24 00:56:34 2025, MaxMem=  3758096384 cpu:               0.1 elap:               0.0
 (Enter /apps/easybuild-2022/easybuild/software/Compiler/NVHPC/22.11-CUDA-11.7.0/Gaussian/g16c01-CUDA-11.7.0/g16/l103.exe)

 GradGradGradGradGradGradGradGradGradGradGradGradGradGradGradGradGradGrad
 Berny optimization.
 Red2BG is reusing G-inverse.
 Internal  Forces:  Max     0.000030853 RMS     0.000008854
 Search for a local minimum.
 Step number   1 out of a maximum of    2
 All quantities printed in internal units (Hartrees-Bohrs-Radians)
 Second derivative matrix not updated -- analytic derivatives used.
 ITU=  0
     Eigenvalues ---    0.00042   0.00377   0.01542   0.04531   0.06514
     Eigenvalues ---    0.07227   0.10668   0.15346   0.16570   0.17103
     Eigenvalues ---    0.18402   0.21174   0.21835   0.23038   0.25435
     Eigenvalues ---    0.31352   0.35439   0.38347   0.43262   0.46903
     Eigenvalues ---    0.49732   0.53449   0.55042   0.98663
 Angle between quadratic step and forces=  83.50 degrees.
 Linear search not attempted -- first point.
 Iteration  1 RMS(Cart)=  0.00115566 RMS(Int)=  0.00000057
 Iteration  2 RMS(Cart)=  0.00000067 RMS(Int)=  0.00000001
 ITry= 1 IFail=0 DXMaxC= 2.80D-03 DCOld= 1.00D+10 DXMaxT= 3.00D-01 DXLimC= 3.00D+00 Rises=F
 Variable       Old X    -DE/DX   Delta X   Delta X   Delta X     New X
                                 (Linear)    (Quad)   (Total)
    R1        2.24136   0.00002   0.00000   0.00001   0.00001   2.24137
    R2        2.93391  -0.00001   0.00000  -0.00005  -0.00005   2.93385
    R3        2.51155  -0.00001   0.00000  -0.00001  -0.00001   2.51153
    R4        2.85989   0.00000   0.00000   0.00005   0.00005   2.85994
    R5        2.56653  -0.00000   0.00000  -0.00002  -0.00002   2.56651
    R6        2.52079   0.00000   0.00000  -0.00004  -0.00004   2.52074
    R7        2.46891   0.00000   0.00000   0.00001   0.00001   2.46892
    R8        2.49112   0.00000   0.00000   0.00001   0.00001   2.49113
    R9        1.82369  -0.00000   0.00000  -0.00001  -0.00001   1.82368
    A1        2.09544  -0.00001   0.00000   0.00002   0.00002   2.09546
    A2        2.16913   0.00002   0.00000   0.00006   0.00006   2.16919
    A3        2.01808  -0.00001   0.00000  -0.00010  -0.00010   2.01798
    A4        1.95825  -0.00003   0.00000  -0.00024  -0.00024   1.95801
    A5        1.91418   0.00001   0.00000   0.00005   0.00005   1.91423
    A6        1.90751   0.00001   0.00000   0.00011   0.00011   1.90762
    A7        1.87828   0.00001   0.00000   0.00001   0.00001   1.87829
    A8        1.90506   0.00001   0.00000   0.00003   0.00003   1.90509
    A9        1.89960  -0.00001   0.00000   0.00004   0.00004   1.89964
   A10        2.01114  -0.00000   0.00000  -0.00008  -0.00008   2.01107
   A11        1.97245   0.00000   0.00000   0.00002   0.00002   1.97246
   A12        1.95503  -0.00000   0.00000  -0.00003  -0.00003   1.95500
   A13        1.94012  -0.00001   0.00000  -0.00002  -0.00002   1.94009
    D1        1.17045  -0.00000   0.00000   0.00169   0.00169   1.17215
    D2       -3.02632  -0.00001   0.00000   0.00159   0.00159  -3.02473
    D3       -0.94517   0.00000   0.00000   0.00174   0.00174  -0.94343
    D4       -1.93748   0.00000   0.00000   0.00207   0.00207  -1.93541
    D5        0.14893  -0.00000   0.00000   0.00197   0.00197   0.15090
    D6        2.23008   0.00000   0.00000   0.00212   0.00212   2.23220
    D7        3.10506  -0.00000   0.00000  -0.00073  -0.00073   3.10433
    D8       -0.07179  -0.00001   0.00000  -0.00113  -0.00113  -0.07292
    D9       -1.26315   0.00000   0.00000   0.00056   0.00056  -1.26259
   D10        1.01568   0.00000   0.00000   0.00046   0.00046   1.01614
   D11        2.91276   0.00000   0.00000   0.00063   0.00063   2.91340
   D12       -1.09159   0.00000   0.00000   0.00054   0.00054  -1.09106
   D13        0.85388  -0.00000   0.00000   0.00057   0.00057   0.85444
   D14        3.13270  -0.00000   0.00000   0.00047   0.00047   3.13317
         Item               Value     Threshold  Converged?
 Maximum Force            0.000031     0.000450     YES
 RMS     Force            0.000009     0.000300     YES
 Maximum Displacement     0.002799     0.001800     NO 
 RMS     Displacement     0.001156     0.001200     YES
 Predicted change in Energy=-1.496099D-08
                           ----------------------------
                           ! Non-Optimized Parameters !
                           ! (Angstroms and Degrees)  !
 --------------------------                            --------------------------
 ! Name  Definition              Value          Derivative Info.                !
 --------------------------------------------------------------------------------
 ! R1    R(1,2)                  1.1861         -DE/DX =    0.0                 !
 ! R2    R(1,3)                  1.5525         -DE/DX =    0.0                 !
 ! R3    R(1,9)                  1.329          -DE/DX =    0.0                 !
 ! R4    R(3,4)                  1.5134         -DE/DX =    0.0                 !
 ! R5    R(3,7)                  1.3581         -DE/DX =    0.0                 !
 ! R6    R(3,8)                  1.3339         -DE/DX =    0.0                 !
 ! R7    R(4,5)                  1.3065         -DE/DX =    0.0                 !
 ! R8    R(4,6)                  1.3182         -DE/DX =    0.0                 !
 ! R9    R(9,10)                 0.965          -DE/DX =    0.0                 !
 ! A1    A(2,1,3)              120.0612         -DE/DX =    0.0                 !
 ! A2    A(2,1,9)              124.2857         -DE/DX =    0.0                 !
 ! A3    A(3,1,9)              115.6217         -DE/DX =    0.0                 !
 ! A4    A(1,3,4)              112.1858         -DE/DX =    0.0                 !
 ! A5    A(1,3,7)              109.6771         -DE/DX =    0.0                 !
 ! A6    A(1,3,8)              109.2986         -DE/DX =    0.0                 !
 ! A7    A(4,3,7)              107.6183         -DE/DX =    0.0                 !
 ! A8    A(4,3,8)              109.1537         -DE/DX =    0.0                 !
 ! A9    A(7,3,8)              108.8413         -DE/DX =    0.0                 !
 ! A10   A(3,4,5)              115.2256         -DE/DX =    0.0                 !
 ! A11   A(3,4,6)              113.0138         -DE/DX =    0.0                 !
 ! A12   A(5,4,6)              112.013          -DE/DX =    0.0                 !
 ! A13   A(1,9,10)             111.1592         -DE/DX =    0.0                 !
 ! D1    D(2,1,3,4)             67.1591         -DE/DX =    0.0                 !
 ! D2    D(2,1,3,7)           -173.3044         -DE/DX =    0.0                 !
 ! D3    D(2,1,3,8)            -54.0547         -DE/DX =    0.0                 !
 ! D4    D(9,1,3,4)           -110.8906         -DE/DX =    0.0                 !
 ! D5    D(9,1,3,7)              8.646          -DE/DX =    0.0                 !
 ! D6    D(9,1,3,8)            127.8957         -DE/DX =    0.0                 !
 ! D7    D(2,1,9,10)           177.8651         -DE/DX =    0.0                 !
 ! D8    D(3,1,9,10)            -4.178          -DE/DX =    0.0                 !
 ! D9    D(1,3,4,5)            -72.3411         -DE/DX =    0.0                 !
 ! D10   D(1,3,4,6)             58.2205         -DE/DX =    0.0                 !
 ! D11   D(7,3,4,5)            166.9255         -DE/DX =    0.0                 !
 ! D12   D(7,3,4,6)            -62.513          -DE/DX =    0.0                 !
 ! D13   D(8,3,4,5)             48.9559         -DE/DX =    0.0                 !
 ! D14   D(8,3,4,6)            179.5175         -DE/DX =    0.0                 !
 --------------------------------------------------------------------------------
 GradGradGradGradGradGradGradGradGradGradGradGradGradGradGradGradGradGrad

 Leave Link  103 at Sat May 24 00:56:34 2025, MaxMem=  3758096384 cpu:               0.1 elap:               0.0
 (Enter /apps/easybuild-2022/easybuild/software/Compiler/NVHPC/22.11-CUDA-11.7.0/Gaussian/g16c01-CUDA-11.7.0/g16/l9999.exe)

 ----------------------------------------------------------------------

 Electric dipole moment (input orientation):
 (Debye = 10**-18 statcoulomb cm , SI units = C m)
                  (au)            (Debye)         (10**-30 SI)
   Tot        0.114577D+01      0.291225D+01      0.971423D+01
   x         -0.602106D+00     -0.153040D+01     -0.510487D+01
   y          0.780868D+00      0.198477D+01      0.662048D+01
   z         -0.583523D+00     -0.148317D+01     -0.494731D+01

 Dipole polarizability, Alpha (input orientation).
 (esu units = cm**3 , SI units = C**2 m**2 J**-1)
 Alpha(0;0):
               (au)            (10**-24 esu)      (10**-40 SI)
   iso        0.429402D+02      0.636309D+01      0.707989D+01
   aniso      0.968776D+01      0.143558D+01      0.159730D+01
   xx         0.433141D+02      0.641849D+01      0.714153D+01
   yx        -0.102222D+01     -0.151478D+00     -0.168542D+00
   yy         0.435200D+02      0.644899D+01      0.717547D+01
   zx        -0.150849D+01     -0.223535D+00     -0.248716D+00
   zy        -0.522217D+01     -0.773846D+00     -0.861020D+00
   zz         0.419866D+02      0.622177D+01      0.692266D+01

 ----------------------------------------------------------------------

 Dipole orientation:
     6          2.42462224         -0.93017847         -1.47505987
     8          2.32219431         -1.01410397         -3.71249981
     6          0.06279664         -0.13955666          0.07558396
     6         -2.04450231         -2.06425521         -0.10829016
     9         -3.21317364         -2.14078752         -2.28173334
     9         -1.36264626         -4.33180130          0.66563998
     9          0.69245774          0.08858391          2.55319503
     9         -0.77501001          2.08638146         -0.75966454
     8          4.45105951         -1.55084303         -0.12739611
     1          4.16146342         -1.29147597          1.65437082

 Electric dipole moment (dipole orientation):
 (Debye = 10**-18 statcoulomb cm , SI units = C m)
                  (au)            (Debye)         (10**-30 SI)
   Tot        0.114577D+01      0.291225D+01      0.971423D+01
   x          0.000000D+00      0.000000D+00      0.000000D+00
   y          0.000000D+00      0.000000D+00      0.000000D+00
   z          0.114577D+01      0.291225D+01      0.971423D+01

 Dipole polarizability, Alpha (dipole orientation).
 (esu units = cm**3 , SI units = C**2 m**2 J**-1)
 Alpha(0;0):
               (au)            (10**-24 esu)      (10**-40 SI)
   iso        0.429402D+02      0.636309D+01      0.707989D+01
   aniso      0.968776D+01      0.143558D+01      0.159730D+01
   xx         0.451605D+02      0.669209D+01      0.744596D+01
   yx        -0.276880D+00     -0.410293D-01     -0.456513D-01
   yy         0.370449D+02      0.548949D+01      0.610788D+01
   zx         0.194877D+01      0.288778D+00      0.321308D+00
   zy        -0.902527D+00     -0.133741D+00     -0.148807D+00
   zz         0.466153D+02      0.690768D+01      0.768582D+01

 ----------------------------------------------------------------------
 Unable to Open any file for archive entry.
 1\1\GINC-SPARTAN-BM181\Freq\UM062X\def2TZVPP\C3H1F4O2\AKHALILOV\24-May
 -2025\0\\#P Geom=AllCheck Guess=TCheck SCRF=Check GenChk UM062X/def2TZ
 VPP Freq\\Gaussian input prepared by ASE\\0,2\C,1.5752881864,0.1132333
 029,0.0587468724\O,2.1637396431,-0.6758098968,0.7204925022\C,0.0236557
 612,0.0862677021,0.0124978344\C,-0.5946246689,0.4604066979,1.342196237
 \F,-0.4858920971,-0.4421530645,2.2805343364\F,-0.2303036855,1.65580348
 53,1.7617897968\F,-0.4217416769,0.9753029413,-0.9126006022\F,-0.385814
 5729,-1.1355840403,-0.3321970399\O,2.1545975414,1.0810895102,-0.644131
 9026\H,1.5013386363,1.5923004095,-1.1373292652\\Version=ES64L-G16RevC.
 01\HF=-664.7290548\S2=0.753619\S2-1=0.\S2A=0.75001\RMSD=3.052e-09\RMSF
 =7.822e-06\ZeroPoint=0.0477975\Thermal=0.0561033\ETot=-664.6729515\HTo
 t=-664.6720073\GTot=-664.716816\Dipole=-0.6021062,0.7808684,-0.5835229
 \DipoleDeriv=1.1916907,0.0482427,-0.2255635,0.0432246,1.2462924,-0.813
 6721,0.1458521,-0.790639,0.7853151,-0.7528119,0.2703748,-0.1563573,0.1
 362717,-0.7191771,0.2921401,-0.154869,0.3341973,-0.5550418,0.6206348,0
 .0561321,0.3399423,0.06545,1.2306825,-0.054423,0.1618361,-0.0403418,0.
 9918876,0.167529,0.1969098,0.1883907,0.1343265,1.3769106,-0.1148081,-0
 .1445434,-0.094816,1.0378978,-0.0729863,0.059235,-0.1159876,-0.0931427
 ,-0.5305371,0.329599,0.1235961,0.3689451,-0.6872769,-0.1316729,-0.2731
 048,-0.115894,-0.0446017,-0.8280824,-0.2214867,0.0180878,-0.2868459,-0
 .3838525,-0.4392616,0.1463345,-0.1635098,0.0765996,-0.5134791,0.257413
 3,-0.140498,0.3085383,-0.5852411,-0.3380717,-0.1921409,-0.060327,-0.17
 10247,-0.7222943,-0.139428,-0.0788807,-0.1946838,-0.2967609,-0.5666999
 ,-0.3183025,0.3218651,-0.1864677,-0.9187748,0.5219367,0.1065031,0.4366
 12,-0.6828581,0.3216497,0.0063194,-0.0125589,0.0393643,0.3784592,-0.05
 72712,-0.037084,-0.0409662,0.3759308\Polar=43.3141223,-1.0222217,43.51
 99607,-1.5084869,-5.2221739,41.9866035\PG=Unknown\NImag=0\\0.67372160,
 -0.16219828,0.70340083,0.15321665,-0.38614873,0.53580226,-0.31784511,0
 .25220250,-0.21153584,0.31172290,0.25748766,-0.40099063,0.27290569,-0.
 28366664,0.45965306,-0.21628597,0.27257589,-0.30219066,0.23976331,-0.3
 5352322,0.32398314,-0.15488199,-0.01244188,0.03316498,-0.01585112,0.01
 318439,-0.01709004,0.47535391,-0.01028418,-0.05500667,-0.02109413,0.03
 220978,-0.00765188,0.01949533,0.03331332,0.55911925,-0.01218056,-0.017
 89452,-0.08326237,-0.02118489,0.01437432,0.00910770,0.02649646,0.00641
 191,0.54135811,-0.00604073,0.00940805,0.04276584,-0.00287684,0.0000351
 9,-0.00843022,-0.11096968,0.01572276,0.03942243,0.22145172,0.00569078,
 0.01488081,-0.00480524,-0.00271402,-0.00338734,0.00238420,0.01935119,-
 0.05054107,-0.03311799,0.04707294,0.58809542,0.02686139,-0.00444550,0.
 00900044,-0.00808330,0.00465301,-0.00763386,0.06636448,-0.03940981,-0.
 17478284,0.01337966,-0.01620888,0.62017844,-0.00271586,0.00209685,-0.0
 0658337,-0.00003624,-0.00125205,0.00347458,0.01008269,-0.00781129,0.01
 741450,-0.04290284,0.02985214,-0.04924902,0.02396057,0.00528894,-0.003
 15658,0.00673034,-0.00153579,0.00265479,-0.00409807,-0.00666789,-0.007
 54552,0.00342457,0.02292479,-0.20066717,0.17738760,-0.01284165,0.27444
 033,-0.00890052,0.00171085,-0.00654624,0.00459113,-0.00278986,0.004349
 18,-0.00507081,0.03670840,-0.01718458,-0.02568811,0.15434571,-0.280604
 00,0.01822648,-0.20863840,0.28672411,-0.00425979,-0.00361783,-0.006271
 05,0.00210452,0.00002657,0.00205536,0.01266867,0.00859452,0.01210393,-
 0.06907602,-0.09884594,-0.05377327,0.01090906,-0.00713605,0.01275928,0
 .04553484,-0.00645866,-0.00466223,-0.00236762,0.00247061,0.00106785,0.
 00080229,-0.00632449,-0.02898354,-0.00039068,-0.08060672,-0.29914255,-
 0.12330086,-0.00932993,-0.07414083,0.02118309,0.09477139,0.39897418,-0
 .00483381,0.00053676,-0.00163364,0.00216442,-0.00042934,0.00128540,-0.
 01544598,-0.03140915,0.00198486,-0.03064341,-0.10689752,-0.12780459,0.
 01342745,0.02856137,0.02408977,0.03042703,0.11572377,0.11310198,-0.007
 39806,0.02487740,-0.03167850,-0.01465038,0.00516379,-0.00303189,-0.101
 60224,0.03999146,-0.05627785,0.00859282,-0.00392378,0.00586766,-0.0000
 6561,-0.00074595,0.00376755,-0.00064933,-0.00029598,0.00031783,0.11364
 266,-0.00210711,-0.01509874,0.01971215,0.00731886,0.00127201,-0.000526
 05,0.04991982,-0.12902449,0.08890013,-0.00321446,-0.00825699,0.0102154
 7,0.00057094,0.00147016,0.00202957,0.00228824,0.00649139,0.00125858,-0
 .06491242,0.20419918,0.00448806,0.02097460,-0.01279163,-0.00836294,-0.
 00053968,0.00013020,-0.06145286,0.07869780,-0.18192654,-0.01401425,0.0
 3806779,-0.03220412,0.00267396,-0.00062082,-0.01297629,-0.00054399,-0.
 00396424,-0.00117795,0.07475664,-0.14427151,0.22103784,-0.01084216,-0.
 04374248,-0.01691435,-0.00041577,0.00234449,0.00370479,-0.10206091,-0.
 08003095,-0.03571209,0.00941472,0.00540398,0.00375665,-0.00069680,0.00
 169485,-0.00102525,0.00043586,0.00209452,0.00278929,0.01258078,0.00789
 533,0.00673048,0.09979301,-0.00315981,-0.02682803,-0.00146768,-0.00310
 077,0.00842271,-0.00131895,-0.08439632,-0.27283343,-0.08579449,-0.0064
 8628,-0.03587668,-0.00797342,-0.00096999,0.00625408,-0.00412442,0.0013
 8198,-0.00273405,-0.00767841,-0.00229916,-0.06798897,0.01914580,0.1043
 6634,0.39036158,-0.00021190,-0.00457007,0.00573861,-0.00032771,-0.0000
 8938,0.00037391,-0.02657396,-0.06905609,-0.09993189,-0.01465861,-0.036
 54177,-0.00486116,-0.00017199,-0.00108182,0.00063505,0.00333591,-0.006
 28793,-0.00957607,0.00814389,0.02961471,0.01479616,0.03338046,0.089841
 87,0.09347932,-0.18946680,-0.06308476,0.03764215,0.03917804,0.01533418
 ,-0.01006850,-0.01389469,-0.02180179,0.02161203,-0.00709286,-0.0016046
 2,-0.00623214,0.00156591,-0.00149846,0.00255496,0.00230095,0.00357995,
 0.00224939,-0.00398413,-0.00160723,0.00022301,-0.00791115,-0.00726278,
 -0.00232080,0.45217698,-0.10922683,-0.18818828,0.10008044,0.00173815,-
 0.06111548,0.05930519,-0.00384757,-0.00582661,0.02299023,-0.00646388,-
 0.00652809,-0.00259148,0.00002167,0.00051991,0.00026956,0.00335741,0.0
 0461109,0.00093824,0.00010742,0.00676804,-0.00596629,-0.00076329,0.000
 54353,-0.00212290,-0.06803489,0.40274141,0.07526854,0.10390511,-0.1251
 1867,-0.00005431,0.06136225,-0.03307951,-0.00318383,0.01815469,0.00347
 837,-0.00253015,0.00106501,-0.00037311,0.00069253,-0.00110343,0.001031
 59,0.00041792,-0.00073283,-0.00047222,0.00043065,-0.00583608,0.0064520
 8,0.00468918,0.00080487,0.00013142,0.10424759,-0.31189294,0.28855847,0
 .01972891,-0.00349957,0.00619349,-0.00133001,-0.00865757,0.00590857,0.
 00115535,-0.00990364,0.00830602,-0.00050031,-0.00028267,0.00110790,-0.
 00010089,0.00051723,-0.00121472,0.00003123,0.00009932,-0.00045220,-0.0
 0646650,0.00384803,-0.00449812,-0.00029758,0.00192679,-0.00059528,-0.2
 7287225,0.18311181,-0.17997812,0.26065203,0.02496749,-0.02435048,0.016
 45478,-0.00492267,0.00007492,0.00490338,-0.00209057,-0.00170604,0.0010
 9651,0.00160762,0.00142367,0.00167387,-0.00033669,0.00017084,-0.000694
 50,-0.00082028,-0.00148131,-0.00060429,0.00203722,0.00016842,-0.001523
 45,0.00073719,0.00067926,0.00029339,0.14598040,-0.15352552,0.13427336,
 -0.16715971,0.17854624,-0.01742188,0.01335560,-0.01899809,0.00303013,0
 .00407621,0.00367450,0.00279155,0.00150104,0.00115919,0.00039683,0.001
 70870,-0.00091521,0.00009488,-0.00056133,0.00048141,-0.00051112,-0.000
 66500,0.00020246,-0.00229599,-0.00109697,-0.00133975,-0.00139915,-0.00
 143518,-0.00078535,-0.14990770,0.13898995,-0.14060841,0.16522245,-0.15
 587303,0.15712926\\-0.00000201,-0.00001378,0.00001127,0.00000071,0.000
 01501,-0.00001405,-0.00000492,-0.00000433,0.00001648,-0.00001023,-0.00
 000494,-0.00000512,-0.00000362,-0.00000275,-0.00000234,-0.00000120,-0.
 00000504,-0.00000121,0.00000168,0.00000417,-0.00000122,0.00000366,0.00
 000291,0.00000048,0.00001636,-0.00000263,-0.00000955,-0.00000043,0.000
 01139,0.00000525\\\@
 The archive entry for this job was punched.


 FORGIVE MY NONSENSE AS I ALSO FORGIVE THOSE WHO THINK THEY TALK SENSE

                                                       -- ROBERT FROST
 Job cpu time:       0 days  0 hours 31 minutes  7.5 seconds.
 Elapsed time:       0 days  0 hours  4 minutes  0.7 seconds.
 File lengths (MBytes):  RWF=    165 Int=      0 D2E=      0 Chk=      9 Scr=      1
 Normal termination of Gaussian 16 at Sat May 24 00:56:34 2025.
done
