 Entering Gaussian System, Link 0=g16
 Initial command:
 /apps/easybuild-2022/easybuild/software/Compiler/NVHPC/22.11-CUDA-11.7.0/Gaussian/g16c01-CUDA-11.7.0/g16/l1.exe "/tmp/Gau-273952.inp" -scrdir="/tmp/"
 Entering Link 1 = /apps/easybuild-2022/easybuild/software/Compiler/NVHPC/22.11-CUDA-11.7.0/Gaussian/g16c01-CUDA-11.7.0/g16/l1.exe PID=    273953.
  
 Copyright (c) 1988-2019, Gaussian, Inc.  All Rights Reserved.
  
 This is part of the Gaussian(R) 16 program.  It is based on
 the Gaussian(R) 09 system (copyright 2009, Gaussian, Inc.),
 the Gaussian(R) 03 system (copyright 2003, Gaussian, Inc.),
 the Gaussian(R) 98 system (copyright 1998, Gaussian, Inc.),
 the Gaussian(R) 94 system (copyright 1995, Gaussian, Inc.),
 the Gaussian 92(TM) system (copyright 1992, Gaussian, Inc.),
 the Gaussian 90(TM) system (copyright 1990, Gaussian, Inc.),
 the Gaussian 88(TM) system (copyright 1988, Gaussian, Inc.),
 the Gaussian 86(TM) system (copyright 1986, Carnegie Mellon
 University), and the Gaussian 82(TM) system (copyright 1983,
 Carnegie Mellon University). Gaussian is a federally registered
 trademark of Gaussian, Inc.
  
 This software contains proprietary and confidential information,
 including trade secrets, belonging to Gaussian, Inc.
  
 This software is provided under written license and may be
 used, copied, transmitted, or stored only in accord with that
 written license.
  
 The following legend is applicable only to US Government
 contracts under FAR:
  
                    RESTRICTED RIGHTS LEGEND
  
 Use, reproduction and disclosure by the US Government is
 subject to restrictions as set forth in subparagraphs (a)
 and (c) of the Commercial Computer Software - Restricted
 Rights clause in FAR 52.227-19.
  
 Gaussian, Inc.
 340 Quinnipiac St., Bldg. 40, Wallingford CT 06492
  
  
 ---------------------------------------------------------------
 Warning -- This program may not be used in any manner that
 competes with the business of Gaussian, Inc. or will provide
 assistance to any competitor of Gaussian, Inc.  The licensee
 of this program is prohibited from giving any competitor of
 Gaussian, Inc. access to this program.  By using this program,
 the user acknowledges that Gaussian, Inc. is engaged in the
 business of creating and licensing software in the field of
 computational chemistry and represents and warrants to the
 licensee that it is not a competitor of Gaussian, Inc. and that
 it will not use this program in any manner prohibited above.
 ---------------------------------------------------------------
  

 Cite this work as:
 Gaussian 16, Revision C.01,
 M. J. Frisch, G. W. Trucks, H. B. Schlegel, G. E. Scuseria, 
 M. A. Robb, J. R. Cheeseman, G. Scalmani, V. Barone, 
 G. A. Petersson, H. Nakatsuji, X. Li, M. Caricato, A. V. Marenich, 
 J. Bloino, B. G. Janesko, R. Gomperts, B. Mennucci, H. P. Hratchian, 
 J. V. Ortiz, A. F. Izmaylov, J. L. Sonnenberg, D. Williams-Young, 
 F. Ding, F. Lipparini, F. Egidi, J. Goings, B. Peng, A. Petrone, 
 T. Henderson, D. Ranasinghe, V. G. Zakrzewski, J. Gao, N. Rega, 
 G. Zheng, W. Liang, M. Hada, M. Ehara, K. Toyota, R. Fukuda, 
 J. Hasegawa, M. Ishida, T. Nakajima, Y. Honda, O. Kitao, H. Nakai, 
 T. Vreven, K. Throssell, J. A. Montgomery, Jr., J. E. Peralta, 
 F. Ogliaro, M. J. Bearpark, J. J. Heyd, E. N. Brothers, K. N. Kudin, 
 V. N. Staroverov, T. A. Keith, R. Kobayashi, J. Normand, 
 K. Raghavachari, A. P. Rendell, J. C. Burant, S. S. Iyengar, 
 J. Tomasi, M. Cossi, J. M. Millam, M. Klene, C. Adamo, R. Cammi, 
 J. W. Ochterski, R. L. Martin, K. Morokuma, O. Farkas, 
 J. B. Foresman, and D. J. Fox, Gaussian, Inc., Wallingford CT, 2019.
 
 ******************************************
 Gaussian 16:  ES64L-G16RevC.01  3-Jul-2019
                24-May-2025 
 ******************************************
 %mem=28GB
 %nprocshared=8
 Will use up to    8 processors via shared memory.
 -----------------------------------------------------------------
 #P M062X/Def2TZVPP Symm(None) scf(xqc) pop(None) freq opt(CalcFC)
 -----------------------------------------------------------------
 1/10=4,18=20,19=15,26=3,38=1/1,3;
 2/9=110,12=2,15=3,17=6,18=5,40=1/2;
 3/5=44,7=202,11=2,25=1,30=1,71=2,74=-55,140=1/1,2,3;
 4//1;
 5/5=2,8=3,13=1,38=5/2,8;
 8/6=4,10=90,11=11/1;
 11/6=1,8=1,9=11,15=111,16=1,31=1/1,2,10;
 10/6=1,13=1,31=1/2;
 7/10=1,25=1,30=1/1,2,3,16;
 1/10=4,18=20,19=15,26=3/3(2);
 2/9=110,15=3/2;
 99//99;
 2/9=110,15=3/2;
 3/5=44,7=202,11=2,25=1,30=1,71=1,74=-55/1,2,3;
 4/5=5,16=3,69=1/1;
 5/5=2,8=3,13=1,38=5/2,8;
 7/30=1/1,2,3,16;
 1/18=20,19=15,26=3/3(-5);
 2/9=110,15=3/2;
 99/9=1/99;
 Leave Link    1 at Sat May 24 00:39:04 2025, MaxMem=  3758096384 cpu:               0.0 elap:               0.0
 (Enter /apps/easybuild-2022/easybuild/software/Compiler/NVHPC/22.11-CUDA-11.7.0/Gaussian/g16c01-CUDA-11.7.0/g16/l101.exe)
 ------------------------------
 Gaussian input prepared by ASE
 ------------------------------
 Symbolic Z-matrix:
 Charge =  0 Multiplicity = 2
 C                     1.45706   0.        0. 
 O                     2.11814  -1.00085  -0.00012 
 C                     0.        0.        0. 
 C                    -0.88965   1.21737   0.00031 
 F                    -2.16353   0.84556  -0.00119 
 F                    -0.67475   1.97345   1.07645 
 F                    -0.67293   1.97552  -1.074 
 F                    -0.60065  -1.15666   0.0002 
 O                     1.94371   1.24963   0. 
 H                     1.62169   1.69169  -0.79633 
 
 ITRead=  0  0  0  0  0  0  0  0  0  0
 MicOpt= -1 -1 -1 -1 -1 -1 -1 -1 -1 -1
 NAtoms=     10 NQM=       10 NQMF=       0 NMMI=      0 NMMIF=      0
                NMic=       0 NMicF=      0.
                    Isotopes and Nuclear Properties:
 (Nuclear quadrupole moments (NQMom) in fm**2, nuclear magnetic moments (NMagM)
  in nuclear magnetons)

  Atom         1           2           3           4           5           6           7           8           9          10
 IAtWgt=          12          16          12          12          19          19          19          19          16           1
 AtmWgt=  12.0000000  15.9949146  12.0000000  12.0000000  18.9984032  18.9984032  18.9984032  18.9984032  15.9949146   1.0078250
 NucSpn=           0           0           0           0           1           1           1           1           0           1
 AtZEff=  -0.0000000  -0.0000000  -0.0000000  -0.0000000  -0.0000000  -0.0000000  -0.0000000  -0.0000000  -0.0000000  -0.0000000
 NQMom=    0.0000000   0.0000000   0.0000000   0.0000000   0.0000000   0.0000000   0.0000000   0.0000000   0.0000000   0.0000000
 NMagM=    0.0000000   0.0000000   0.0000000   0.0000000   2.6288670   2.6288670   2.6288670   2.6288670   0.0000000   2.7928460
 AtZNuc=   6.0000000   8.0000000   6.0000000   6.0000000   9.0000000   9.0000000   9.0000000   9.0000000   8.0000000   1.0000000
 Leave Link  101 at Sat May 24 00:39:04 2025, MaxMem=  3758096384 cpu:               0.2 elap:               0.2
 (Enter /apps/easybuild-2022/easybuild/software/Compiler/NVHPC/22.11-CUDA-11.7.0/Gaussian/g16c01-CUDA-11.7.0/g16/l103.exe)

 GradGradGradGradGradGradGradGradGradGradGradGradGradGradGradGradGradGrad
 Berny optimization.
 Initialization pass.
                           ----------------------------
                           !    Initial Parameters    !
                           ! (Angstroms and Degrees)  !
 --------------------------                            --------------------------
 ! Name  Definition              Value          Derivative Info.                !
 --------------------------------------------------------------------------------
 ! R1    R(1,2)                  1.1995         calculate D2E/DX2 analytically  !
 ! R2    R(1,3)                  1.4571         calculate D2E/DX2 analytically  !
 ! R3    R(1,9)                  1.341          calculate D2E/DX2 analytically  !
 ! R4    R(3,4)                  1.5078         calculate D2E/DX2 analytically  !
 ! R5    R(3,8)                  1.3033         calculate D2E/DX2 analytically  !
 ! R6    R(4,5)                  1.327          calculate D2E/DX2 analytically  !
 ! R7    R(4,6)                  1.3326         calculate D2E/DX2 analytically  !
 ! R8    R(4,7)                  1.3326         calculate D2E/DX2 analytically  !
 ! R9    R(9,10)                 0.9661         calculate D2E/DX2 analytically  !
 ! A1    A(2,1,3)              123.4456         calculate D2E/DX2 analytically  !
 ! A2    A(2,1,9)              125.2766         calculate D2E/DX2 analytically  !
 ! A3    A(3,1,9)              111.2778         calculate D2E/DX2 analytically  !
 ! A4    A(1,3,4)              126.1591         calculate D2E/DX2 analytically  !
 ! A5    A(1,3,8)              117.4426         calculate D2E/DX2 analytically  !
 ! A6    A(4,3,8)              116.3982         calculate D2E/DX2 analytically  !
 ! A7    A(3,4,5)              109.8882         calculate D2E/DX2 analytically  !
 ! A8    A(3,4,6)              111.2903         calculate D2E/DX2 analytically  !
 ! A9    A(3,4,7)              111.2976         calculate D2E/DX2 analytically  !
 ! A10   A(5,4,6)              108.341          calculate D2E/DX2 analytically  !
 ! A11   A(5,4,7)              108.3363         calculate D2E/DX2 analytically  !
 ! A12   A(6,4,7)              107.5776         calculate D2E/DX2 analytically  !
 ! A13   A(1,9,10)             107.7842         calculate D2E/DX2 analytically  !
 ! D1    D(2,1,3,4)            179.9925         calculate D2E/DX2 analytically  !
 ! D2    D(2,1,3,8)              0.0171         calculate D2E/DX2 analytically  !
 ! D3    D(9,1,3,4)             -0.0147         calculate D2E/DX2 analytically  !
 ! D4    D(9,1,3,8)           -179.99           calculate D2E/DX2 analytically  !
 ! D5    D(2,1,9,10)           120.0319         calculate D2E/DX2 analytically  !
 ! D6    D(3,1,9,10)           -59.9608         calculate D2E/DX2 analytically  !
 ! D7    D(1,3,4,5)            179.9355         calculate D2E/DX2 analytically  !
 ! D8    D(1,3,4,6)            -60.0569         calculate D2E/DX2 analytically  !
 ! D9    D(1,3,4,7)             59.9292         calculate D2E/DX2 analytically  !
 ! D10   D(8,3,4,5)             -0.0889         calculate D2E/DX2 analytically  !
 ! D11   D(8,3,4,6)            119.9187         calculate D2E/DX2 analytically  !
 ! D12   D(8,3,4,7)           -120.0953         calculate D2E/DX2 analytically  !
 --------------------------------------------------------------------------------
 Trust Radius=3.00D-01 FncErr=1.00D-07 GrdErr=1.00D-06 EigMax=2.50D+02 EigMin=1.00D-04
 Number of steps in this run=     44 maximum allowed number of steps=    100.
 GradGradGradGradGradGradGradGradGradGradGradGradGradGradGradGradGradGrad

 Leave Link  103 at Sat May 24 00:39:04 2025, MaxMem=  3758096384 cpu:               0.0 elap:               0.0
 (Enter /apps/easybuild-2022/easybuild/software/Compiler/NVHPC/22.11-CUDA-11.7.0/Gaussian/g16c01-CUDA-11.7.0/g16/l202.exe)
                          Input orientation:                          
 ---------------------------------------------------------------------
 Center     Atomic      Atomic             Coordinates (Angstroms)
 Number     Number       Type             X           Y           Z
 ---------------------------------------------------------------------
      1          6           0        1.457061    0.000000    0.000000
      2          8           0        2.118139   -1.000846   -0.000124
      3          6           0        0.000000    0.000000    0.000000
      4          6           0       -0.889647    1.217369    0.000312
      5          9           0       -2.163529    0.845563   -0.001187
      6          9           0       -0.674751    1.973447    1.076453
      7          9           0       -0.672934    1.975521   -1.074002
      8          9           0       -0.600648   -1.156660    0.000201
      9          8           0        1.943714    1.249633    0.000000
     10          1           0        1.621692    1.691690   -0.796331
 ---------------------------------------------------------------------
                    Distance matrix (angstroms):
                    1          2          3          4          5
     1  C    0.000000
     2  O    1.199465   0.000000
     3  C    1.457061   2.342692   0.000000
     4  C    2.643676   3.737279   1.507800   0.000000
     5  F    3.718017   4.662822   2.322894   1.327033   0.000000
     6  F    3.098042   4.219677   2.347027   1.332634   2.156361
     7  F    3.097263   4.219248   2.347126   1.332632   2.156296
     8  F    2.360514   2.723248   1.303319   2.391555   2.539979
     9  O    1.341050   2.257228   2.310759   2.833545   4.127072
    10  H    1.876982   2.851342   2.475044   2.677021   3.959303
                    6          7          8          9         10
     6  F    0.000000
     7  F    2.150456   0.000000
     8  F    3.310798   3.312053   0.000000
     9  O    2.922160   2.920144   3.502003   0.000000
    10  H    2.976635   2.328726   3.699507   0.966052   0.000000
 Symmetry turned off by external request.
 Stoichiometry    C3HF4O2
 Rotational constants (GHZ):           2.5789559           1.3676878           1.0608518
 Leave Link  202 at Sat May 24 00:39:04 2025, MaxMem=  3758096384 cpu:               0.0 elap:               0.0
 (Enter /apps/easybuild-2022/easybuild/software/Compiler/NVHPC/22.11-CUDA-11.7.0/Gaussian/g16c01-CUDA-11.7.0/g16/l301.exe)
 Standard basis: def2TZVPP (5D, 7F)
 Ernie: Thresh=  0.10000D-02 Tol=  0.10000D-05 Strict=F.
   293 basis functions,   476 primitive gaussians,   339 cartesian basis functions
    36 alpha electrons       35 beta electrons
       nuclear repulsion energy       503.8515314866 Hartrees.
 IExCor= 4336 DFT=T Ex+Corr=M062X ExCW=0 ScaHFX=  0.540000
 ScaDFX=  1.000000  1.000000  1.000000  1.000000 ScalE2=  1.000000  1.000000
 IRadAn=      5 IRanWt=     -1 IRanGd=            0 ICorTp=0 IEmpDi=  4
 NAtoms=   10 NActive=   10 NUniq=   10 SFac= 1.00D+00 NAtFMM=   60 NAOKFM=F Big=F
 Integral buffers will be    131072 words long.
 Raffenetti 2 integral format.
 Two-electron integral symmetry is turned off.
 Leave Link  301 at Sat May 24 00:39:04 2025, MaxMem=  3758096384 cpu:               0.0 elap:               0.0
 (Enter /apps/easybuild-2022/easybuild/software/Compiler/NVHPC/22.11-CUDA-11.7.0/Gaussian/g16c01-CUDA-11.7.0/g16/l302.exe)
 NPDir=0 NMtPBC=     1 NCelOv=     1 NCel=       1 NClECP=     1 NCelD=      1
         NCelK=      1 NCelE2=     1 NClLst=     1 CellRange=     0.0.
 One-electron integrals computed using PRISM.
   1 Symmetry operations used in ECPInt.
 ECPInt:  NShTT=    5565 NPrTT=   17967 LenC2=    5335 LenP2D=   13275.
 LDataN:  DoStor=T MaxTD1= 6 Len=  172
 NBasis=   293 RedAO= T EigKep=  2.46D-04  NBF=   293
 NBsUse=   293 1.00D-06 EigRej= -1.00D+00 NBFU=   293
 Precomputing XC quadrature grid using
 IXCGrd= 4 IRadAn=           5 IRanWt=          -1 IRanGd=           0 AccXCQ= 0.00D+00.
 Generated NRdTot=       0 NPtTot=           0 NUsed=           0 NTot=          32
 NSgBfM=   338   338   338   338   338 MxSgAt=    10 MxSgA2=    10.
 Leave Link  302 at Sat May 24 00:39:04 2025, MaxMem=  3758096384 cpu:               0.6 elap:               0.1
 (Enter /apps/easybuild-2022/easybuild/software/Compiler/NVHPC/22.11-CUDA-11.7.0/Gaussian/g16c01-CUDA-11.7.0/g16/l303.exe)
 DipDrv:  MaxL=1.
 Leave Link  303 at Sat May 24 00:39:04 2025, MaxMem=  3758096384 cpu:               0.1 elap:               0.0
 (Enter /apps/easybuild-2022/easybuild/software/Compiler/NVHPC/22.11-CUDA-11.7.0/Gaussian/g16c01-CUDA-11.7.0/g16/l401.exe)
 ExpMin= 9.52D-02 ExpMax= 3.55D+04 ExpMxC= 1.21D+03 IAcc=3 IRadAn=         5 AccDes= 0.00D+00
 Harris functional with IExCor= 1009 and IRadAn=       5 diagonalized for initial guess.
 HarFok:  IExCor= 1009 AccDes= 0.00D+00 IRadAn=         5 IDoV= 1 UseB2=F ITyADJ=14
 ICtDFT=  3500011 ScaDFX=  1.000000  1.000000  1.000000  1.000000
 FoFCou: FMM=F IPFlag=           0 FMFlag=      100000 FMFlg1=           0
         NFxFlg=           0 DoJE=T BraDBF=F KetDBF=T FulRan=T
         wScrn=  0.000000 ICntrl=       500 IOpCl=  0 I1Cent=   200000004 NGrid=           0
         NMat0=    1 NMatS0=      1 NMatT0=    0 NMatD0=    1 NMtDS0=    0 NMtDT0=    0
 Symmetry not used in FoFCou.
 Harris En= -664.337850488659    
 JPrj=0 DoOrth=F DoCkMO=F.
 Initial guess <Sx>= 0.0000 <Sy>= 0.0000 <Sz>= 0.5000 <S**2>= 0.7500 S= 0.5000
 Leave Link  401 at Sat May 24 00:39:05 2025, MaxMem=  3758096384 cpu:               3.0 elap:               0.4
 (Enter /apps/easybuild-2022/easybuild/software/Compiler/NVHPC/22.11-CUDA-11.7.0/Gaussian/g16c01-CUDA-11.7.0/g16/l502.exe)
 Keep R1 and R2 ints in memory in canonical form, NReq=1874806909.
 FoFCou: FMM=F IPFlag=           0 FMFlag=           0 FMFlg1=           0
         NFxFlg=           0 DoJE=F BraDBF=F KetDBF=F FulRan=T
         wScrn=  0.000000 ICntrl=       600 IOpCl=  0 I1Cent=           0 NGrid=           0
         NMat0=    1 NMatS0=  43071 NMatT0=    0 NMatD0=    1 NMtDS0=    0 NMtDT0=    0
 Symmetry not used in FoFCou.
 Two-electron integral symmetry not used.
 UHF open shell SCF:
 Using DIIS extrapolation, IDIIS=  1040.
 NGot=  3758096384 LenX=  1902707317 LenY=  1902591955
 Requested convergence on RMS density matrix=1.00D-08 within  32 cycles.
 Requested convergence on MAX density matrix=1.00D-06.
 Requested convergence on             energy=1.00D-06.
 No special actions if energy rises.
 Integral accuracy reduced to 1.0D-05 until final iterations.

 Cycle   1  Pass 0  IDiag  1:
 E= -664.551579548813    
 DIIS: error= 1.75D-02 at cycle   1 NSaved=   1.
 NSaved= 1 IEnMin= 1 EnMin= -664.551579548813     IErMin= 1 ErrMin= 1.75D-02
 ErrMax= 1.75D-02  0.00D+00 EMaxC= 1.00D-01 BMatC= 1.33D+00 BMatP= 1.33D+00
 IDIUse=3 WtCom= 8.25D-01 WtEn= 1.75D-01
 Coeff-Com:  0.100D+01
 Coeff-En:   0.100D+01
 Coeff:      0.100D+01
 Gap=     0.375 Goal=   None    Shift=    0.000
 Gap=     0.221 Goal=   None    Shift=    0.000
 GapD=    0.221 DampG=1.000 DampE=0.500 DampFc=0.5000 IDamp=-1.
 Damping current iteration by 5.00D-01
 RMSDP=2.99D-03 MaxDP=1.64D-01              OVMax= 3.21D-01

 Cycle   2  Pass 0  IDiag  1:
 E= -664.616097002280     Delta-E=       -0.064517453466 Rises=F Damp=T
 DIIS: error= 6.53D-03 at cycle   2 NSaved=   2.
 NSaved= 2 IEnMin= 2 EnMin= -664.616097002280     IErMin= 2 ErrMin= 6.53D-03
 ErrMax= 6.53D-03  0.00D+00 EMaxC= 1.00D-01 BMatC= 1.67D-01 BMatP= 1.33D+00
 IDIUse=3 WtCom= 9.35D-01 WtEn= 6.53D-02
 Coeff-Com:  0.895D-01 0.911D+00
 Coeff-En:   0.254D+00 0.746D+00
 Coeff:      0.100D+00 0.900D+00
 Gap=     0.488 Goal=   None    Shift=    0.000
 Gap=     0.299 Goal=   None    Shift=    0.000
 RMSDP=9.51D-04 MaxDP=7.39D-02 DE=-6.45D-02 OVMax= 1.86D-01

 Cycle   3  Pass 0  IDiag  1:
 E= -664.727613832621     Delta-E=       -0.111516830342 Rises=F Damp=F
 DIIS: error= 6.14D-03 at cycle   3 NSaved=   3.
 NSaved= 3 IEnMin= 3 EnMin= -664.727613832621     IErMin= 3 ErrMin= 6.14D-03
 ErrMax= 6.14D-03  0.00D+00 EMaxC= 1.00D-01 BMatC= 6.47D-02 BMatP= 1.67D-01
 IDIUse=3 WtCom= 9.39D-01 WtEn= 6.14D-02
 Coeff-Com: -0.689D-01 0.353D+00 0.716D+00
 Coeff-En:   0.000D+00 0.000D+00 0.100D+01
 Coeff:     -0.647D-01 0.332D+00 0.733D+00
 Gap=     0.359 Goal=   None    Shift=    0.000
 Gap=     0.272 Goal=   None    Shift=    0.000
 RMSDP=3.89D-04 MaxDP=2.27D-02 DE=-1.12D-01 OVMax= 6.45D-02

 Cycle   4  Pass 0  IDiag  1:
 E= -664.736825369568     Delta-E=       -0.009211536947 Rises=F Damp=F
 DIIS: error= 2.46D-03 at cycle   4 NSaved=   4.
 NSaved= 4 IEnMin= 4 EnMin= -664.736825369568     IErMin= 4 ErrMin= 2.46D-03
 ErrMax= 2.46D-03  0.00D+00 EMaxC= 1.00D-01 BMatC= 2.20D-02 BMatP= 6.47D-02
 IDIUse=3 WtCom= 9.75D-01 WtEn= 2.46D-02
 Coeff-Com: -0.459D-01 0.855D-01 0.423D+00 0.538D+00
 Coeff-En:   0.000D+00 0.000D+00 0.198D+00 0.802D+00
 Coeff:     -0.447D-01 0.834D-01 0.417D+00 0.544D+00
 Gap=     0.365 Goal=   None    Shift=    0.000
 Gap=     0.278 Goal=   None    Shift=    0.000
 RMSDP=1.58D-04 MaxDP=6.18D-03 DE=-9.21D-03 OVMax= 1.69D-02

 Cycle   5  Pass 0  IDiag  1:
 E= -664.740635226405     Delta-E=       -0.003809856837 Rises=F Damp=F
 DIIS: error= 5.76D-04 at cycle   5 NSaved=   5.
 NSaved= 5 IEnMin= 5 EnMin= -664.740635226405     IErMin= 5 ErrMin= 5.76D-04
 ErrMax= 5.76D-04  0.00D+00 EMaxC= 1.00D-01 BMatC= 4.56D-04 BMatP= 2.20D-02
 IDIUse=3 WtCom= 9.94D-01 WtEn= 5.76D-03
 Coeff-Com: -0.614D-02 0.334D-03 0.648D-01 0.140D+00 0.801D+00
 Coeff-En:   0.000D+00 0.000D+00 0.000D+00 0.000D+00 0.100D+01
 Coeff:     -0.610D-02 0.332D-03 0.644D-01 0.139D+00 0.802D+00
 Gap=     0.366 Goal=   None    Shift=    0.000
 Gap=     0.282 Goal=   None    Shift=    0.000
 RMSDP=4.26D-05 MaxDP=1.90D-03 DE=-3.81D-03 OVMax= 7.20D-03

 Cycle   6  Pass 0  IDiag  1:
 E= -664.740830731162     Delta-E=       -0.000195504757 Rises=F Damp=F
 DIIS: error= 2.55D-04 at cycle   6 NSaved=   6.
 NSaved= 6 IEnMin= 6 EnMin= -664.740830731162     IErMin= 6 ErrMin= 2.55D-04
 ErrMax= 2.55D-04  0.00D+00 EMaxC= 1.00D-01 BMatC= 9.76D-05 BMatP= 4.56D-04
 IDIUse=3 WtCom= 9.97D-01 WtEn= 2.55D-03
 Coeff-Com:  0.921D-02-0.189D-01-0.802D-01-0.102D+00 0.124D+00 0.107D+01
 Coeff-En:   0.000D+00 0.000D+00 0.000D+00 0.000D+00 0.000D+00 0.100D+01
 Coeff:      0.918D-02-0.188D-01-0.800D-01-0.102D+00 0.124D+00 0.107D+01
 Gap=     0.368 Goal=   None    Shift=    0.000
 Gap=     0.285 Goal=   None    Shift=    0.000
 RMSDP=3.61D-05 MaxDP=2.52D-03 DE=-1.96D-04 OVMax= 6.76D-03

 Cycle   7  Pass 0  IDiag  1:
 E= -664.740900373138     Delta-E=       -0.000069641976 Rises=F Damp=F
 DIIS: error= 1.19D-04 at cycle   7 NSaved=   7.
 NSaved= 7 IEnMin= 7 EnMin= -664.740900373138     IErMin= 7 ErrMin= 1.19D-04
 ErrMax= 1.19D-04  0.00D+00 EMaxC= 1.00D-01 BMatC= 1.77D-05 BMatP= 9.76D-05
 IDIUse=3 WtCom= 9.99D-01 WtEn= 1.19D-03
 Coeff-Com:  0.410D-02-0.657D-02-0.320D-01-0.520D-01-0.789D-01 0.327D+00
 Coeff-Com:  0.839D+00
 Coeff-En:   0.000D+00 0.000D+00 0.000D+00 0.000D+00 0.000D+00 0.000D+00
 Coeff-En:   0.100D+01
 Coeff:      0.410D-02-0.656D-02-0.320D-01-0.519D-01-0.788D-01 0.326D+00
 Coeff:      0.839D+00
 Gap=     0.369 Goal=   None    Shift=    0.000
 Gap=     0.285 Goal=   None    Shift=    0.000
 RMSDP=1.04D-05 MaxDP=5.85D-04 DE=-6.96D-05 OVMax= 1.77D-03

 Cycle   8  Pass 0  IDiag  1:
 E= -664.740908455773     Delta-E=       -0.000008082634 Rises=F Damp=F
 DIIS: error= 5.32D-05 at cycle   8 NSaved=   8.
 NSaved= 8 IEnMin= 8 EnMin= -664.740908455773     IErMin= 8 ErrMin= 5.32D-05
 ErrMax= 5.32D-05  0.00D+00 EMaxC= 1.00D-01 BMatC= 4.13D-06 BMatP= 1.77D-05
 IDIUse=1 WtCom= 1.00D+00 WtEn= 0.00D+00
 Coeff-Com:  0.374D-03-0.234D-04 0.196D-03-0.536D-02-0.533D-01-0.283D-01
 Coeff-Com:  0.330D+00 0.756D+00
 Coeff:      0.374D-03-0.234D-04 0.196D-03-0.536D-02-0.533D-01-0.283D-01
 Coeff:      0.330D+00 0.756D+00
 Gap=     0.368 Goal=   None    Shift=    0.000
 Gap=     0.285 Goal=   None    Shift=    0.000
 RMSDP=4.01D-06 MaxDP=1.68D-04 DE=-8.08D-06 OVMax= 4.65D-04

 Initial convergence to 1.0D-05 achieved.  Increase integral accuracy.
 Cycle   9  Pass 1  IDiag  1:
 E= -664.740842941487     Delta-E=        0.000065514286 Rises=F Damp=F
 DIIS: error= 4.44D-05 at cycle   1 NSaved=   1.
 NSaved= 1 IEnMin= 1 EnMin= -664.740842941487     IErMin= 1 ErrMin= 4.44D-05
 ErrMax= 4.44D-05  0.00D+00 EMaxC= 1.00D-01 BMatC= 2.84D-06 BMatP= 2.84D-06
 IDIUse=1 WtCom= 1.00D+00 WtEn= 0.00D+00
 Coeff-Com:  0.100D+01
 Coeff:      0.100D+01
 Gap=     0.368 Goal=   None    Shift=    0.000
 Gap=     0.285 Goal=   None    Shift=    0.000
 RMSDP=4.01D-06 MaxDP=1.68D-04 DE= 6.55D-05 OVMax= 3.53D-04

 Cycle  10  Pass 1  IDiag  1:
 E= -664.740843666575     Delta-E=       -0.000000725088 Rises=F Damp=F
 DIIS: error= 1.44D-05 at cycle   2 NSaved=   2.
 NSaved= 2 IEnMin= 2 EnMin= -664.740843666575     IErMin= 2 ErrMin= 1.44D-05
 ErrMax= 1.44D-05  0.00D+00 EMaxC= 1.00D-01 BMatC= 3.80D-07 BMatP= 2.84D-06
 IDIUse=1 WtCom= 1.00D+00 WtEn= 0.00D+00
 Coeff-Com:  0.106D+00 0.894D+00
 Coeff:      0.106D+00 0.894D+00
 Gap=     0.368 Goal=   None    Shift=    0.000
 Gap=     0.285 Goal=   None    Shift=    0.000
 RMSDP=1.32D-06 MaxDP=7.20D-05 DE=-7.25D-07 OVMax= 1.98D-04

 Cycle  11  Pass 1  IDiag  1:
 E= -664.740843777113     Delta-E=       -0.000000110539 Rises=F Damp=F
 DIIS: error= 1.25D-05 at cycle   3 NSaved=   3.
 NSaved= 3 IEnMin= 3 EnMin= -664.740843777113     IErMin= 3 ErrMin= 1.25D-05
 ErrMax= 1.25D-05  0.00D+00 EMaxC= 1.00D-01 BMatC= 2.75D-07 BMatP= 3.80D-07
 IDIUse=1 WtCom= 1.00D+00 WtEn= 0.00D+00
 Coeff-Com: -0.541D-01 0.459D+00 0.595D+00
 Coeff:     -0.541D-01 0.459D+00 0.595D+00
 Gap=     0.368 Goal=   None    Shift=    0.000
 Gap=     0.285 Goal=   None    Shift=    0.000
 RMSDP=6.94D-07 MaxDP=4.31D-05 DE=-1.11D-07 OVMax= 1.05D-04

 Cycle  12  Pass 1  IDiag  1:
 E= -664.740843849602     Delta-E=       -0.000000072489 Rises=F Damp=F
 DIIS: error= 6.41D-06 at cycle   4 NSaved=   4.
 NSaved= 4 IEnMin= 4 EnMin= -664.740843849602     IErMin= 4 ErrMin= 6.41D-06
 ErrMax= 6.41D-06  0.00D+00 EMaxC= 1.00D-01 BMatC= 2.58D-08 BMatP= 2.75D-07
 IDIUse=1 WtCom= 1.00D+00 WtEn= 0.00D+00
 Coeff-Com: -0.562D-02-0.212D+00-0.765D-01 0.129D+01
 Coeff:     -0.562D-02-0.212D+00-0.765D-01 0.129D+01
 Gap=     0.368 Goal=   None    Shift=    0.000
 Gap=     0.285 Goal=   None    Shift=    0.000
 RMSDP=6.44D-07 MaxDP=5.88D-05 DE=-7.25D-08 OVMax= 1.71D-04

 Cycle  13  Pass 1  IDiag  1:
 E= -664.740843885058     Delta-E=       -0.000000035455 Rises=F Damp=F
 DIIS: error= 4.75D-06 at cycle   5 NSaved=   5.
 NSaved= 5 IEnMin= 5 EnMin= -664.740843885058     IErMin= 5 ErrMin= 4.75D-06
 ErrMax= 4.75D-06  0.00D+00 EMaxC= 1.00D-01 BMatC= 1.47D-08 BMatP= 2.58D-08
 IDIUse=1 WtCom= 1.00D+00 WtEn= 0.00D+00
 Coeff-Com:  0.164D-01-0.295D+00-0.266D+00 0.743D+00 0.802D+00
 Coeff:      0.164D-01-0.295D+00-0.266D+00 0.743D+00 0.802D+00
 Gap=     0.368 Goal=   None    Shift=    0.000
 Gap=     0.285 Goal=   None    Shift=    0.000
 RMSDP=4.43D-07 MaxDP=3.93D-05 DE=-3.55D-08 OVMax= 9.03D-05

 Cycle  14  Pass 1  IDiag  1:
 E= -664.740843896701     Delta-E=       -0.000000011643 Rises=F Damp=F
 DIIS: error= 1.61D-06 at cycle   6 NSaved=   6.
 NSaved= 6 IEnMin= 6 EnMin= -664.740843896701     IErMin= 6 ErrMin= 1.61D-06
 ErrMax= 1.61D-06  0.00D+00 EMaxC= 1.00D-01 BMatC= 2.47D-09 BMatP= 1.47D-08
 IDIUse=1 WtCom= 1.00D+00 WtEn= 0.00D+00
 Coeff-Com:  0.810D-02-0.805D-01-0.991D-01 0.602D-01 0.348D+00 0.764D+00
 Coeff:      0.810D-02-0.805D-01-0.991D-01 0.602D-01 0.348D+00 0.764D+00
 Gap=     0.368 Goal=   None    Shift=    0.000
 Gap=     0.285 Goal=   None    Shift=    0.000
 RMSDP=1.49D-07 MaxDP=1.51D-05 DE=-1.16D-08 OVMax= 4.16D-05

 Cycle  15  Pass 1  IDiag  1:
 E= -664.740843898257     Delta-E=       -0.000000001557 Rises=F Damp=F
 DIIS: error= 8.62D-07 at cycle   7 NSaved=   7.
 NSaved= 7 IEnMin= 7 EnMin= -664.740843898257     IErMin= 7 ErrMin= 8.62D-07
 ErrMax= 8.62D-07  0.00D+00 EMaxC= 1.00D-01 BMatC= 6.56D-10 BMatP= 2.47D-09
 IDIUse=1 WtCom= 1.00D+00 WtEn= 0.00D+00
 Coeff-Com: -0.159D-02 0.576D-01 0.376D-01-0.211D+00-0.113D+00 0.355D+00
 Coeff-Com:  0.875D+00
 Coeff:     -0.159D-02 0.576D-01 0.376D-01-0.211D+00-0.113D+00 0.355D+00
 Coeff:      0.875D+00
 Gap=     0.368 Goal=   None    Shift=    0.000
 Gap=     0.285 Goal=   None    Shift=    0.000
 RMSDP=8.98D-08 MaxDP=7.78D-06 DE=-1.56D-09 OVMax= 1.67D-05

 Cycle  16  Pass 1  IDiag  1:
 E= -664.740843898640     Delta-E=       -0.000000000383 Rises=F Damp=F
 DIIS: error= 1.58D-07 at cycle   8 NSaved=   8.
 NSaved= 8 IEnMin= 8 EnMin= -664.740843898640     IErMin= 8 ErrMin= 1.58D-07
 ErrMax= 1.58D-07  0.00D+00 EMaxC= 1.00D-01 BMatC= 3.96D-11 BMatP= 6.56D-10
 IDIUse=1 WtCom= 1.00D+00 WtEn= 0.00D+00
 Coeff-Com: -0.108D-02 0.194D-01 0.156D-01-0.481D-01-0.573D-01 0.172D-01
 Coeff-Com:  0.205D+00 0.849D+00
 Coeff:     -0.108D-02 0.194D-01 0.156D-01-0.481D-01-0.573D-01 0.172D-01
 Coeff:      0.205D+00 0.849D+00
 Gap=     0.368 Goal=   None    Shift=    0.000
 Gap=     0.285 Goal=   None    Shift=    0.000
 RMSDP=1.36D-08 MaxDP=9.46D-07 DE=-3.83D-10 OVMax= 2.50D-06

 Cycle  17  Pass 1  IDiag  1:
 E= -664.740843898646     Delta-E=       -0.000000000006 Rises=F Damp=F
 DIIS: error= 7.63D-08 at cycle   9 NSaved=   9.
 NSaved= 9 IEnMin= 9 EnMin= -664.740843898646     IErMin= 9 ErrMin= 7.63D-08
 ErrMax= 7.63D-08  0.00D+00 EMaxC= 1.00D-01 BMatC= 1.24D-11 BMatP= 3.96D-11
 IDIUse=1 WtCom= 1.00D+00 WtEn= 0.00D+00
 Coeff-Com: -0.610D-04-0.421D-02-0.201D-02 0.271D-01 0.481D-04-0.748D-01
 Coeff-Com: -0.116D+00 0.355D+00 0.815D+00
 Coeff:     -0.610D-04-0.421D-02-0.201D-02 0.271D-01 0.481D-04-0.748D-01
 Coeff:     -0.116D+00 0.355D+00 0.815D+00
 Gap=     0.368 Goal=   None    Shift=    0.000
 Gap=     0.285 Goal=   None    Shift=    0.000
 RMSDP=6.96D-09 MaxDP=4.32D-07 DE=-5.91D-12 OVMax= 9.05D-07

 SCF Done:  E(UM062X) =  -664.740843899     A.U. after   17 cycles
            NFock= 17  Conv=0.70D-08     -V/T= 2.0036
 <Sx>= 0.0000 <Sy>= 0.0000 <Sz>= 0.5000 <S**2>= 0.7604 S= 0.5052
 <L.S>=  0.00000000000    
 KE= 6.623706288155D+02 PE=-2.581676489828D+03 EE= 7.507134856275D+02
 Annihilation of the first spin contaminant:
 S**2 before annihilation     0.7604,   after     0.7501
 Leave Link  502 at Sat May 24 00:39:44 2025, MaxMem=  3758096384 cpu:             162.5 elap:              39.4
 (Enter /apps/easybuild-2022/easybuild/software/Compiler/NVHPC/22.11-CUDA-11.7.0/Gaussian/g16c01-CUDA-11.7.0/g16/l508.exe)
 QCSCF skips out because SCF is already converged.
 Leave Link  508 at Sat May 24 00:39:44 2025, MaxMem=  3758096384 cpu:               0.0 elap:               0.0
 (Enter /apps/easybuild-2022/easybuild/software/Compiler/NVHPC/22.11-CUDA-11.7.0/Gaussian/g16c01-CUDA-11.7.0/g16/l801.exe)
 DoSCS=F DFT=T ScalE2(SS,OS)=  1.000000  1.000000
 Range of M.O.s used for correlation:     1   293
 NBasis=   293 NAE=    36 NBE=    35 NFC=     0 NFV=     0
 NROrb=    293 NOA=    36 NOB=    35 NVA=   257 NVB=   258

 **** Warning!!: The largest alpha MO coefficient is  0.18485807D+02


 **** Warning!!: The largest beta MO coefficient is  0.16657074D+02

 Leave Link  801 at Sat May 24 00:39:44 2025, MaxMem=  3758096384 cpu:               0.0 elap:               0.0
 (Enter /apps/easybuild-2022/easybuild/software/Compiler/NVHPC/22.11-CUDA-11.7.0/Gaussian/g16c01-CUDA-11.7.0/g16/l1101.exe)
 Using compressed storage, NAtomX=    10.
 Will process     11 centers per pass.
   1 Symmetry operations used in ECPInt.
 ECPInt:  NShTT=    5565 NPrTT=   17967 LenC2=    5335 LenP2D=   13275.
 LDataN:  DoStor=T MaxTD1= 7 Len=  274
 Leave Link 1101 at Sat May 24 00:39:44 2025, MaxMem=  3758096384 cpu:               0.8 elap:               0.2
 (Enter /apps/easybuild-2022/easybuild/software/Compiler/NVHPC/22.11-CUDA-11.7.0/Gaussian/g16c01-CUDA-11.7.0/g16/l1102.exe)
 Symmetrizing basis deriv contribution to polar:
 IMax=3 JMax=2 DiffMx= 0.00D+00
 Leave Link 1102 at Sat May 24 00:39:44 2025, MaxMem=  3758096384 cpu:               0.0 elap:               0.0
 (Enter /apps/easybuild-2022/easybuild/software/Compiler/NVHPC/22.11-CUDA-11.7.0/Gaussian/g16c01-CUDA-11.7.0/g16/l1110.exe)
 Forming Gx(P) for the SCF density, NAtomX=    10.
 Integral derivatives from FoFJK, PRISM(SPDF).
 Do as many integral derivatives as possible in FoFJK.
 G2DrvN: MDV=    3758095218.
 G2DrvN: will do    11 centers at a time, making    1 passes.
 Calling FoFCou, ICntrl=  3107 FMM=F I1Cent=   0 AccDes= 0.00D+00.
 FoFJK:  IHMeth= 1 ICntrl=    3107 DoSepK=F KAlg= 0 I1Cent=           0 FoldK=F
 IRaf=         0 NMat=       1 IRICut=       1 DoRegI=T DoRafI=F ISym2E= 0 IDoP0=0 IntGTp=1.
 FoFCou: FMM=F IPFlag=           0 FMFlag=      100000 FMFlg1=           0
         NFxFlg=           0 DoJE=F BraDBF=F KetDBF=F FulRan=T
         wScrn=  0.000000 ICntrl=      3107 IOpCl=  1 I1Cent=           0 NGrid=           0
         NMat0=    1 NMatS0=      1 NMatT0=    0 NMatD0=    1 NMtDS0=    0 NMtDT0=    0
 Symmetry not used in FoFCou.
 End of G2Drv F.D. properties file   721 does not exist.
 End of G2Drv F.D. properties file   722 does not exist.
 End of G2Drv F.D. properties file   788 does not exist.
 Leave Link 1110 at Sat May 24 00:40:34 2025, MaxMem=  3758096384 cpu:             394.6 elap:              49.7
 (Enter /apps/easybuild-2022/easybuild/software/Compiler/NVHPC/22.11-CUDA-11.7.0/Gaussian/g16c01-CUDA-11.7.0/g16/l1002.exe)
 Minotr:  UHF open shell wavefunction.
          IDoAtm=1111111111
          Direct CPHF calculation.
          Differentiating once with respect to nuclear coordinates.
          Requested convergence is 1.0D-08 RMS, and 1.0D-07 maximum.
          Secondary convergence is 1.0D-12 RMS, and 1.0D-12 maximum.
          NewPWx=T KeepS1=F KeepF1=F KeepIn=T MapXYZ=F SortEE=F KeepMc=T.
         2995 words used for storage of precomputed grid.
 Keep R1 and R2 ints in memory in canonical form, NReq=1874812120.
 FoFCou: FMM=F IPFlag=           0 FMFlag=           0 FMFlg1=           0
         NFxFlg=           0 DoJE=F BraDBF=F KetDBF=F FulRan=T
         wScrn=  0.000000 ICntrl=       600 IOpCl=  0 I1Cent=           0 NGrid=           0
         NMat0=    1 NMatS0=  43071 NMatT0=    0 NMatD0=    1 NMtDS0=    0 NMtDT0=    0
 Symmetry not used in FoFCou.
 Two-electron integral symmetry not used.
          MDV=    3758096384 using IRadAn=       1.
          Solving linear equations simultaneously, MaxMat=       0.
          There are    33 degrees of freedom in the 1st order CPHF.  IDoFFX=6 NUNeed=     0.
     27 vectors produced by pass  0 Test12= 5.54D-14 3.03D-09 XBig12= 3.19D-01 1.42D-01.
 AX will form    27 AO Fock derivatives at one time.
     27 vectors produced by pass  1 Test12= 5.54D-14 3.03D-09 XBig12= 7.89D-02 1.01D-01.
     27 vectors produced by pass  2 Test12= 5.54D-14 3.03D-09 XBig12= 1.38D-02 4.53D-02.
     27 vectors produced by pass  3 Test12= 5.54D-14 3.03D-09 XBig12= 5.04D-04 4.91D-03.
     27 vectors produced by pass  4 Test12= 5.54D-14 3.03D-09 XBig12= 1.14D-05 5.76D-04.
     27 vectors produced by pass  5 Test12= 5.54D-14 3.03D-09 XBig12= 1.70D-07 5.40D-05.
     27 vectors produced by pass  6 Test12= 5.54D-14 3.03D-09 XBig12= 2.41D-09 5.93D-06.
     27 vectors produced by pass  7 Test12= 5.54D-14 3.03D-09 XBig12= 2.63D-11 5.35D-07.
     10 vectors produced by pass  8 Test12= 5.54D-14 3.03D-09 XBig12= 2.91D-13 4.85D-08.
      1 vectors produced by pass  9 Test12= 5.54D-14 3.03D-09 XBig12= 3.10D-15 5.09D-09.
 InvSVY:  IOpt=1 It=  1 EMax= 1.55D-15
 Solved reduced A of dimension   227 with    27 vectors.
 End of Minotr F.D. properties file   721 does not exist.
 End of Minotr F.D. properties file   722 does not exist.
 End of Minotr F.D. properties file   788 does not exist.
 Leave Link 1002 at Sat May 24 00:41:54 2025, MaxMem=  3758096384 cpu:             620.4 elap:              79.9
 (Enter /apps/easybuild-2022/easybuild/software/Compiler/NVHPC/22.11-CUDA-11.7.0/Gaussian/g16c01-CUDA-11.7.0/g16/l701.exe)
 ... and contract with generalized density number  0.
 Compute integral second derivatives.
   1 Symmetry operations used in ECPInt.
 ECPInt:  NShTT=    5565 NPrTT=   17967 LenC2=    5335 LenP2D=   13275.
 LDataN:  DoStor=T MaxTD1= 8 Len=  415
 Leave Link  701 at Sat May 24 00:41:54 2025, MaxMem=  3758096384 cpu:               0.7 elap:               0.1
 (Enter /apps/easybuild-2022/easybuild/software/Compiler/NVHPC/22.11-CUDA-11.7.0/Gaussian/g16c01-CUDA-11.7.0/g16/l702.exe)
 L702 exits ... SP integral derivatives will be done elsewhere.
 Leave Link  702 at Sat May 24 00:41:54 2025, MaxMem=  3758096384 cpu:               0.0 elap:               0.0
 (Enter /apps/easybuild-2022/easybuild/software/Compiler/NVHPC/22.11-CUDA-11.7.0/Gaussian/g16c01-CUDA-11.7.0/g16/l703.exe)
 Integral derivatives from FoFJK, PRISM(SPDF).
 Compute integral second derivatives, UseDBF=F ICtDFT=           0.
 Calling FoFJK, ICntrl=    100127 FMM=F ISym2X=0 I1Cent= 0 IOpClX= 1 NMat=1 NMatS=1 NMatT=0.
 FoFJK:  IHMeth= 1 ICntrl=  100127 DoSepK=F KAlg= 0 I1Cent=           0 FoldK=F
 IRaf=         0 NMat=       1 IRICut=       1 DoRegI=T DoRafI=F ISym2E= 0 IDoP0=0 IntGTp=1.
 FoFCou: FMM=F IPFlag=           0 FMFlag=      100000 FMFlg1=         800
         NFxFlg=           0 DoJE=F BraDBF=F KetDBF=F FulRan=T
         wScrn=  0.000000 ICntrl=    100127 IOpCl=  1 I1Cent=           0 NGrid=           0
         NMat0=    1 NMatS0=      1 NMatT0=    0 NMatD0=    1 NMtDS0=    0 NMtDT0=    0
 Symmetry not used in FoFCou.
 Leave Link  703 at Sat May 24 00:43:22 2025, MaxMem=  3758096384 cpu:             697.4 elap:              87.7
 (Enter /apps/easybuild-2022/easybuild/software/Compiler/NVHPC/22.11-CUDA-11.7.0/Gaussian/g16c01-CUDA-11.7.0/g16/l716.exe)
 Dipole        =-5.03185505D-01 6.42762900D-01-4.85770220D-01
 Polarizability= 0.00000000D+00 0.00000000D+00 0.00000000D+00
                 0.00000000D+00 0.00000000D+00 0.00000000D+00
 -------------------------------------------------------------------
 Center     Atomic                   Forces (Hartrees/Bohr)
 Number     Number              X              Y              Z
 -------------------------------------------------------------------
      1        6          -0.005657878   -0.015101230   -0.004510601
      2        8          -0.004958088    0.008671499    0.005415706
      3        6           0.000420156   -0.010351694    0.000908028
      4        6          -0.004920048   -0.007131233    0.010124986
      5        9           0.001780220    0.001406968   -0.001162786
      6        9          -0.000309839    0.000473742   -0.001931900
      7        9           0.002431305    0.004299800   -0.005230735
      8        9          -0.003544556    0.000326992   -0.000504833
      9        8           0.013602038    0.010413105   -0.007282576
     10        1           0.001156690    0.006992051    0.004174712
 -------------------------------------------------------------------
 Cartesian Forces:  Max     0.015101230 RMS     0.006283909
 Force constants in Cartesian coordinates: 
                1             2             3             4             5 
      1  0.653231D+00
      2 -0.156960D+00  0.904212D+00
      3  0.131948D-01 -0.265808D-01  0.195504D+00
      4 -0.302237D+00  0.298452D+00 -0.450614D-02  0.334429D+00
      5  0.268486D+00 -0.522020D+00  0.347150D-02 -0.349862D+00  0.625747D+00
      6 -0.474645D-02  0.130344D-02 -0.716975D-01  0.177919D-02 -0.536934D-02
      7 -0.205459D+00 -0.202670D-01 -0.165694D-02 -0.607330D-01  0.584971D-01
      8 -0.365207D-01 -0.644628D-01  0.182987D-02  0.611687D-01 -0.316656D-01
      9  0.294880D-02  0.220938D-02 -0.568644D-01 -0.795973D-03  0.312013D-03
     10 -0.158335D-01  0.268778D-01  0.124910D-03  0.114263D-02 -0.697045D-02
     11  0.379759D-01  0.245775D-01 -0.104121D-02 -0.188647D-01  0.712558D-02
     12 -0.164033D-02 -0.116039D-02  0.156218D-02  0.152393D-03  0.559854D-03
     13  0.887422D-02  0.537644D-02 -0.100213D-03 -0.683784D-02  0.365612D-02
     14 -0.414047D-02 -0.608812D-02  0.120772D-03  0.301677D-02 -0.431048D-04
     15  0.186553D-03  0.143457D-04  0.111359D-02 -0.207360D-04 -0.378675D-04
     16  0.529030D-03 -0.428287D-02 -0.738176D-03 -0.252012D-03  0.146051D-02
     17 -0.127077D-01 -0.491969D-02 -0.266655D-03  0.484622D-02 -0.222467D-02
     18 -0.523601D-02 -0.228018D-02 -0.878371D-03  0.245836D-02 -0.120133D-02
     19 -0.799593D-03 -0.576905D-02  0.111650D-02  0.100340D-03  0.184976D-02
     20 -0.133233D-01 -0.543337D-02  0.750541D-03  0.494692D-02 -0.203276D-02
     21  0.617359D-02  0.358932D-02 -0.105249D-02 -0.254691D-02  0.704449D-03
     22 -0.983844D-02 -0.429270D-01  0.508181D-03  0.284669D-02 -0.405634D-03
     23  0.116948D-01 -0.220289D-01 -0.983257D-05 -0.385177D-02  0.133276D-01
     24 -0.227939D-03  0.120100D-02  0.286927D-02  0.161335D-03 -0.477229D-03
     25 -0.140847D+00 -0.947651D-01 -0.197078D-01  0.326644D-01  0.230477D-01
     26 -0.105996D+00 -0.270329D+00 -0.130398D-01  0.323641D-02 -0.839553D-01
     27 -0.100770D-01  0.232942D-01 -0.708849D-01  0.279303D-02  0.690609D-02
     28  0.123798D-01 -0.573457D-02  0.117648D-01 -0.112342D-02  0.239993D-03
     29  0.114913D-01 -0.335077D-01  0.347656D-01 -0.308854D-02 -0.425931D-02
     30 -0.576080D-03 -0.159034D-02  0.328793D-03  0.525443D-03 -0.486814D-02
                6             7             8             9            10 
      6  0.317240D-01
      7  0.205310D-02  0.614087D+00
      8 -0.131228D-02  0.750286D-01  0.691054D+00
      9  0.199042D-01 -0.355939D-02 -0.161350D-02  0.791705D-01
     10  0.152973D-03 -0.122996D+00  0.948538D-01 -0.204431D-03  0.605605D+00
     11  0.109469D-02  0.423638D-01 -0.163694D+00  0.371674D-04 -0.212759D-01
     12  0.199671D-02  0.140702D-03  0.330294D-03 -0.428575D-01 -0.314163D-02
     13  0.652780D-04 -0.617140D-01 -0.151974D-01  0.203989D-04 -0.307490D+00
     14 -0.127668D-03  0.224537D-01  0.460262D-02 -0.478051D-04 -0.398668D-01
     15 -0.450423D-03  0.705400D-04  0.345395D-04  0.854018D-02 -0.381000D-03
     16 -0.100476D-03  0.938952D-02  0.851890D-02  0.851487D-02 -0.811196D-01
     17  0.214233D-03  0.850400D-02 -0.235243D-01 -0.293425D-01 -0.751850D-02
     18  0.196468D-03  0.104539D-02 -0.158289D-01 -0.572989D-02 -0.143422D-01
     19 -0.899689D-04  0.970293D-02  0.872275D-02 -0.838111D-02 -0.791485D-01
     20 -0.858981D-03  0.807056D-02 -0.235983D-01  0.294999D-01 -0.807255D-02
     21  0.423622D-03 -0.709714D-03  0.153582D-01 -0.525688D-02  0.148245D-01
     22 -0.340993D-03 -0.156644D+00 -0.151788D+00  0.759956D-03  0.247823D-03
     23  0.131123D-03 -0.164697D+00 -0.370520D+00  0.725276D-03 -0.339789D-01
     24 -0.200962D-02  0.560182D-03  0.387206D-03 -0.104709D-01  0.142658D-03
     25 -0.417060D-05 -0.195406D-01 -0.430238D-01  0.179190D-02  0.507914D-02
     26  0.739515D-02 -0.295210D-01 -0.167641D-01 -0.911405D-03 -0.264506D-02
     27  0.206516D-01  0.196845D-02  0.627008D-03  0.128753D-01 -0.102067D-02
     28  0.123153D-02 -0.609232D-02 -0.176251D-02 -0.109503D-02 -0.548651D-02
     29 -0.247037D-02 -0.433050D-03 -0.142738D-02 -0.868618D-03 -0.140335D-02
     30 -0.739048D-03  0.876790D-04  0.187537D-03  0.689429D-03  0.384493D-02
               11            12            13            14            15 
     11  0.597680D+00
     12 -0.237560D-02  0.519823D+00
     13 -0.306928D-01 -0.404639D-03  0.417792D+00
     14 -0.905278D-01 -0.468759D-03  0.999044D-01  0.111500D+00
     15 -0.209094D-03 -0.737453D-01  0.838160D-03  0.522570D-03  0.817368D-01
     16 -0.554417D-02 -0.130737D-01 -0.279686D-01 -0.445359D-01 -0.455275D-01
     17 -0.166037D+00 -0.114424D+00 -0.328932D-01 -0.119186D-01 -0.238974D-01
     18 -0.106101D+00 -0.204641D+00 -0.320068D-01 -0.222809D-01 -0.829442D-02
     19 -0.335553D-02  0.104974D-01 -0.285545D-01 -0.449851D-01  0.457178D-01
     20 -0.165788D+00  0.116898D+00 -0.326087D-01 -0.120911D-01  0.234580D-01
     21  0.107960D+00 -0.204423D+00  0.319192D-01  0.221984D-01 -0.810583D-02
     22  0.996512D-02  0.534494D-04  0.589531D-02  0.660645D-02 -0.273781D-04
     23 -0.279728D-01 -0.330816D-04  0.277843D-02  0.228359D-02  0.407377D-04
     24  0.258003D-04  0.408394D-02 -0.254520D-04  0.141655D-04 -0.771394D-03
     25 -0.317698D-02  0.670442D-03 -0.134832D-02  0.436496D-03 -0.135260D-03
     26 -0.210810D-01  0.146608D-02 -0.436121D-03  0.311616D-02 -0.178776D-03
     27  0.692482D-03 -0.504915D-02  0.348365D-03 -0.123012D-03  0.452174D-03
     28 -0.739468D-02  0.674593D-02  0.135111D-02  0.111052D-02 -0.721209D-03
     29  0.571752D-02 -0.792868D-03  0.112898D-03 -0.833559D-03  0.252934D-03
     30 -0.825613D-04  0.325013D-02 -0.654354D-03  0.192171D-03 -0.475412D-03
               16            17            18            19            20 
     16  0.881431D-01
     17  0.369362D-01  0.188076D+00
     18  0.463528D-01  0.160073D+00  0.309920D+00
     19  0.140438D-01 -0.492705D-03 -0.501886D-03  0.862502D-01
     20 -0.380381D-03  0.236138D-01 -0.929195D-02  0.349611D-01  0.188982D+00
     21  0.188060D-02  0.982442D-02 -0.886297D-01 -0.439552D-01 -0.162578D+00
     22  0.246217D-03  0.446732D-03  0.158396D-02  0.510002D-03  0.565786D-03
     23  0.513412D-02 -0.814928D-02 -0.515758D-02  0.510833D-02 -0.828285D-02
     24  0.141773D-02 -0.194271D-02 -0.212526D-02 -0.156031D-02  0.199630D-02
     25 -0.318919D-02  0.185170D-02  0.156977D-02 -0.345358D-02  0.227405D-02
     26  0.268149D-02  0.660491D-02  0.228793D-02  0.334493D-02  0.733364D-02
     27  0.226197D-02  0.331764D-03  0.109785D-02 -0.132339D-02 -0.850750D-03
     28  0.177722D-03  0.102723D-02 -0.923311D-03  0.134889D-02  0.356654D-02
     29  0.121632D-04 -0.152130D-02 -0.218469D-03  0.615499D-03 -0.270308D-02
     30 -0.988074D-03 -0.570101D-03 -0.915606D-03 -0.151979D-02  0.976967D-03
               21            22            23            24            25 
     21  0.309972D+00
     22 -0.176878D-02  0.170114D+00
     23  0.514501D-02  0.183511D+00  0.423767D+00
     24 -0.225316D-02 -0.177380D-03 -0.344074D-03  0.630972D-02
     25 -0.218391D-02 -0.131863D-01 -0.589591D-02  0.143544D-03  0.213123D+00
     26 -0.366656D-02 -0.739280D-02 -0.359346D-02 -0.313325D-03  0.679378D-01
     27  0.181677D-02  0.101672D-02  0.894758D-03  0.382611D-02  0.160495D+00
     28 -0.363339D-02 -0.191792D-03  0.196237D-03 -0.434361D-03 -0.693019D-01
     29  0.146537D-02  0.141816D-02  0.116958D-02 -0.547134D-03  0.513140D-01
     30 -0.249196D-02 -0.160775D-02 -0.139234D-02  0.541338D-03 -0.142640D+00
               26            27            28            29            30 
     26  0.498577D+00
     27 -0.197519D+00  0.385925D+00
     28  0.687903D-01 -0.156463D+00  0.669384D-01
     29 -0.119909D+00  0.165746D+00 -0.600391D-01  0.157274D+00
     30  0.204479D+00 -0.350711D+00  0.143528D+00 -0.197332D+00  0.350523D+00
 FormGI is forming the generalized inverse of G from B-inverse, IUseBI=4.
 Force constants in internal coordinates: 
                1             2             3             4             5 
      1  0.859060D+00
      2  0.835831D-01  0.330799D+00
      3  0.678931D-01  0.475233D-01  0.466458D+00
      4 -0.266875D-02  0.121286D-01 -0.271119D-02  0.314356D+00
      5  0.108790D-01  0.748162D-02  0.863264D-02  0.145509D-01  0.520007D+00
      6  0.606460D-02 -0.207697D-02 -0.476852D-03  0.234100D-01  0.639309D-02
      7  0.426720D-02 -0.500619D-02  0.522317D-02  0.305432D-01  0.634213D-02
      8  0.389131D-02 -0.134850D-03  0.748580D-02  0.338211D-01  0.628753D-02
      9 -0.247920D-02 -0.380127D-02  0.630292D-02  0.343155D-03 -0.238038D-02
     10  0.286137D-01  0.484793D-02 -0.539960D-01 -0.378416D-02 -0.140307D-01
     11  0.217361D-01 -0.431445D-01  0.162211D-01 -0.390014D-02 -0.344672D-02
     12 -0.503495D-01  0.382967D-01  0.377750D-01  0.768435D-02  0.174774D-01
     13  0.167380D-01  0.148238D-01 -0.776495D-02  0.740264D-02 -0.383821D-01
     14 -0.179397D-01  0.160563D-01  0.128064D-01 -0.270376D-01  0.197852D-01
     15  0.120163D-02 -0.308802D-01 -0.504132D-02  0.196351D-01  0.185968D-01
     16  0.459952D-02 -0.170493D-02  0.536723D-02  0.298789D-01 -0.114358D-01
     17  0.349995D-02  0.764575D-04  0.199656D-02  0.200461D-01  0.114938D-01
     18  0.382404D-02  0.213117D-03 -0.798648D-03  0.207985D-01  0.118007D-01
     19 -0.410178D-02 -0.632146D-03 -0.159241D-02 -0.245551D-01 -0.270147D-02
     20 -0.414339D-02 -0.178817D-02 -0.903890D-03 -0.253583D-01 -0.279237D-02
     21 -0.425780D-02  0.385980D-02 -0.436153D-02 -0.242610D-01 -0.690191D-02
     22  0.417396D-02  0.784669D-02  0.579378D-01  0.157309D-02 -0.169317D-02
     23 -0.103879D-02 -0.123645D-02 -0.960862D-03  0.159903D-04  0.361209D-04
     24 -0.766374D-03 -0.987435D-03 -0.141956D-02 -0.124161D-03  0.338769D-03
     25  0.113242D-02 -0.103132D-03 -0.142324D-03  0.468469D-03  0.176367D-04
     26  0.140484D-02  0.145879D-03 -0.601021D-03  0.328317D-03  0.320284D-03
     27  0.406760D-02 -0.537321D-02  0.700124D-02  0.341913D-03  0.443068D-03
     28  0.184797D-02 -0.653585D-02  0.617061D-02 -0.120596D-03  0.462829D-03
     29  0.185912D-03 -0.229755D-03 -0.776037D-03 -0.299788D-03  0.171074D-03
     30  0.335079D-03 -0.209488D-02  0.205189D-02  0.155531D-02 -0.335560D-02
     31 -0.120168D-03  0.299413D-02 -0.266922D-02 -0.163768D-02  0.361531D-02
     32 -0.882174D-04 -0.466384D-03 -0.317665D-03 -0.171067D-03 -0.128341D-03
     33  0.609498D-04 -0.233151D-02  0.251026D-02  0.168403D-02 -0.365502D-02
     34 -0.394297D-03  0.275750D-02 -0.221085D-02 -0.150896D-02  0.331590D-02
                6             7             8             9            10 
      6  0.447480D+00
      7  0.560312D-01  0.430466D+00
      8  0.559280D-01  0.565373D-01  0.432025D+00
      9  0.113521D-03  0.606490D-03 -0.486518D-02  0.524624D+00
     10  0.492189D-02  0.469737D-02 -0.470984D-03  0.156721D-02  0.153022D+00
     11 -0.148752D-02 -0.165205D-02 -0.789773D-02  0.186401D-02 -0.774970D-01
     12 -0.343444D-02 -0.304533D-02  0.836886D-02 -0.343148D-02 -0.755256D-01
     13  0.120957D-01 -0.493223D-02  0.763673D-02 -0.870449D-03 -0.892987D-03
     14  0.297311D-03 -0.375200D-02 -0.103608D-01 -0.878844D-03 -0.685786D-02
     15 -0.123929D-01  0.868456D-02  0.272319D-02  0.174934D-02  0.775105D-02
     16  0.191558D-01 -0.303518D-01 -0.328573D-01 -0.580315D-03  0.114429D-01
     17 -0.304039D-01  0.158691D-01 -0.326399D-01 -0.176248D-02 -0.464879D-02
     18 -0.317023D-01 -0.325996D-01  0.233754D-01 -0.212915D-02 -0.476668D-02
     19  0.231626D-01  0.253134D-01 -0.292858D-02  0.912930D-03 -0.949006D-03
     20  0.235190D-01 -0.235615D-02  0.218092D-01  0.234064D-02  0.257471D-03
     21 -0.142714D-02  0.262894D-01  0.251558D-01  0.143754D-02 -0.142740D-02
     22 -0.974625D-03 -0.235017D-02  0.179322D-02  0.232588D-01 -0.117634D-01
     23  0.795045D-03 -0.160935D-03 -0.179017D-02  0.382611D-03  0.173759D-02
     24  0.417388D-03 -0.115330D-02  0.632177D-03  0.249777D-03  0.116566D-02
     25  0.263549D-03 -0.274576D-03 -0.562823D-03 -0.180195D-02  0.166747D-03
     26 -0.114109D-03 -0.126694D-02  0.185952D-02 -0.193478D-02 -0.405179D-03
     27  0.113867D-02 -0.792756D-03 -0.272330D-02 -0.112192D-02  0.121666D-02
     28  0.168136D-02 -0.677147D-03 -0.397844D-02  0.111094D-02  0.280240D-02
     29 -0.415475D-03 -0.218555D-01  0.236033D-01  0.215897D-03  0.160567D-03
     30  0.216399D-01  0.133150D-04 -0.226926D-01 -0.157339D-03  0.352515D-02
     31 -0.220848D-01  0.220546D-01  0.294586D-02 -0.961217D-03 -0.463903D-02
     32 -0.386090D-04 -0.208749D-01  0.212004D-01  0.346941D-03  0.724065D-03
     33  0.220167D-01  0.993872D-03 -0.250955D-01 -0.262938D-04  0.408865D-02
     34 -0.217079D-01  0.230352D-01  0.542964D-03 -0.830172D-03 -0.407553D-02
               11            12            13            14            15 
     11  0.188947D+00
     12 -0.111450D+00  0.186976D+00
     13 -0.135596D-01  0.144527D-01  0.138231D+00
     14 -0.509211D-03  0.736707D-02 -0.665752D-01  0.144882D+00
     15  0.140688D-01 -0.218200D-01 -0.716564D-01 -0.783069D-01  0.149963D+00
     16 -0.316333D-02 -0.827956D-02  0.343964D-02 -0.672466D-02  0.328491D-02
     17 -0.491607D-02  0.956471D-02  0.476734D-02 -0.691418D-02  0.214728D-02
     18 -0.341069D-02  0.817755D-02  0.562237D-02 -0.705133D-02  0.142833D-02
     19  0.403841D-02 -0.308929D-02 -0.526707D-02  0.823587D-02 -0.296906D-02
     20  0.462427D-02 -0.488190D-02 -0.787413D-02  0.943148D-02 -0.155691D-02
     21  0.339501D-02 -0.196759D-02 -0.140703D-02  0.407244D-02 -0.266526D-02
     22  0.930880D-02  0.245417D-02  0.433158D-02 -0.274814D-02 -0.158337D-02
     23  0.851671D-03 -0.259189D-02 -0.991603D-03  0.191862D-03  0.800067D-03
     24  0.737777D-03 -0.190588D-02 -0.658002D-03 -0.569818D-04  0.714275D-03
     25  0.913245D-03 -0.107732D-02 -0.335589D-05  0.120986D-03 -0.117858D-03
     26  0.799351D-03 -0.391311D-03  0.330245D-03 -0.127858D-03 -0.203650D-03
     27  0.597296D-02 -0.718693D-02 -0.243834D-02  0.136728D-02  0.107078D-02
     28  0.593352D-02 -0.873864D-02 -0.344957D-02  0.144025D-02  0.200960D-02
     29  0.748624D-03 -0.909056D-03 -0.778696D-03  0.447858D-03  0.330178D-03
     30  0.556228D-03 -0.408120D-02 -0.203693D-02  0.187550D-02  0.160647D-03
     31 -0.759237D-03  0.539849D-02  0.319113D-02 -0.238660D-02 -0.805263D-03
     32  0.858380D-03 -0.158250D-02 -0.110880D-02  0.743046D-03  0.366119D-03
     33  0.665983D-03 -0.475464D-02 -0.236704D-02  0.217069D-02  0.196587D-03
     34 -0.649481D-03  0.472505D-02  0.286103D-02 -0.209141D-02 -0.769322D-03
               16            17            18            19            20 
     16  0.210177D+00
     17 -0.672553D-02  0.185220D+00
     18 -0.827855D-02  0.497957D-02  0.192866D+00
     19 -0.957477D-01 -0.859363D-01 -0.154691D-01  0.141980D+00
     20 -0.948542D-01 -0.159619D-01 -0.891968D-01  0.341229D-01  0.143764D+00
     21 -0.148219D-01 -0.901488D-01 -0.937428D-01  0.311660D-01  0.323694D-01
     22 -0.202169D-03  0.266310D-03 -0.343506D-02  0.655346D-03  0.113816D-02
     23 -0.606550D-03 -0.457233D-03  0.249852D-03 -0.313170D-03  0.317017D-03
     24 -0.289375D-03 -0.172638D-02  0.208167D-02  0.453703D-03 -0.952731D-03
     25 -0.611599D-03 -0.170051D-02  0.173684D-02  0.614418D-03 -0.108008D-02
     26 -0.294425D-03 -0.296966D-02  0.356866D-02  0.138129D-02 -0.234983D-02
     27 -0.138232D-02 -0.124046D-02  0.110737D-02  0.507437D-03 -0.688036D-03
     28 -0.137840D-02  0.302304D-04 -0.412382D-03 -0.440201D-03  0.740324D-03
     29  0.183703D-03 -0.100037D-01  0.108460D-01 -0.297478D-01  0.290020D-01
     30  0.145708D-01 -0.288160D-02 -0.107602D-01  0.295398D-01 -0.107270D-02
     31 -0.143470D-01  0.111978D-01  0.390692D-02  0.611920D-03 -0.310019D-01
     32 -0.132733D-03 -0.874819D-02  0.902924D-02 -0.305051D-01  0.302624D-01
     33  0.142544D-01 -0.162613D-02 -0.125770D-01  0.287824D-01  0.187762D-03
     34 -0.146635D-01  0.124533D-01  0.209012D-02 -0.145436D-03 -0.297415D-01
               21            22            23            24            25 
     21  0.143845D+00
     22  0.173385D-02  0.168093D+00
     23  0.842296D-03  0.896169D-03  0.136158D-01
     24  0.424054D-03  0.700285D-03  0.126686D-01  0.147288D-01
     25  0.105763D-02 -0.288196D-02 -0.860223D-02 -0.794000D-02  0.139533D-01
     26  0.639386D-03 -0.307785D-02 -0.954947D-02 -0.587977D-02  0.146155D-01
     27  0.175364D-02 -0.398565D-02 -0.104662D-01 -0.964343D-02  0.123286D-01
     28  0.153397D-02 -0.122221D-03  0.122426D-01  0.114204D-01 -0.107252D-01
     29 -0.332315D-03 -0.846977D-03  0.469080D-04  0.196421D-02  0.118960D-02
     30 -0.290584D-01  0.108498D-04 -0.103847D-02  0.123138D-02  0.462139D-03
     31  0.292047D-01  0.706570D-04 -0.110569D-03  0.200863D-02  0.182741D-02
     32  0.835394D-04 -0.653171D-03  0.985291D-03 -0.772040D-04  0.533525D-03
     33 -0.286426D-01  0.204656D-03 -0.100086D-03 -0.810033D-03 -0.193938D-03
     34  0.296206D-01  0.264463D-03  0.827814D-03 -0.327816D-04  0.117134D-02
               26            27            28            29            30 
     26  0.182852D-01
     27  0.131514D-01  0.989279D-02
     28 -0.115474D-01 -0.134052D-01  0.100703D-01
     29  0.310690D-02  0.106982D-02 -0.980658D-04  0.308451D-01
     30  0.273199D-02 -0.360539D-05 -0.153761D-02 -0.126796D-01  0.320243D-01
     31  0.394661D-02  0.212979D-02  0.149313D-03 -0.125333D-01 -0.140234D-01
     32 -0.528970D-03  0.254676D-03  0.716440D-03  0.289455D-01 -0.149282D-01
     33 -0.903884D-03 -0.818750D-03 -0.723109D-03 -0.145792D-01  0.297758D-01
     34  0.310740D-03  0.131465D-02  0.963818D-03 -0.144329D-01 -0.162720D-01
               31            32            33            34 
     31  0.331977D-01
     32 -0.146333D-01  0.299983D-01
     33 -0.161235D-01 -0.138754D-01  0.304796D-01
     34  0.310977D-01 -0.135805D-01 -0.154196D-01  0.319501D-01
 Leave Link  716 at Sat May 24 00:43:22 2025, MaxMem=  3758096384 cpu:               0.0 elap:               0.0
 (Enter /apps/easybuild-2022/easybuild/software/Compiler/NVHPC/22.11-CUDA-11.7.0/Gaussian/g16c01-CUDA-11.7.0/g16/l103.exe)

 GradGradGradGradGradGradGradGradGradGradGradGradGradGradGradGradGradGrad
 Berny optimization.
 Red2BG is reusing G-inverse.
 Internal  Forces:  Max     0.021565899 RMS     0.006170263
 Search for a local minimum.
 Step number   1 out of a maximum of   44
 All quantities printed in internal units (Hartrees-Bohrs-Radians)
 RMS Force = .61703D-02 SwitMx=.10000D-02 MixMth= 1
 Mixed Optimization -- RFO/linear search
 Second derivative matrix not updated -- analytic derivatives used.
 ITU=  0
     Eigenvalues ---   -0.00528   0.00210   0.00498   0.01623   0.06810
     Eigenvalues ---    0.12432   0.13319   0.15374   0.18442   0.19810
     Eigenvalues ---    0.21919   0.22851   0.24014   0.25566   0.27386
     Eigenvalues ---    0.37304   0.40100   0.41494   0.43019   0.49300
     Eigenvalues ---    0.52866   0.53651   0.57746   0.89023
 Eigenvalue     1 is  -5.28D-03 should be greater than     0.000000 Eigenvector:
                          D5        D6        D1        D3        D12
   1                    0.70126   0.69641  -0.06641  -0.06167  -0.05027
                          D2        D10       D4        A3        R3
   1                   -0.04448  -0.04113  -0.03974   0.03865  -0.02977
 RFO step:  Lambda=-9.72069403D-03 EMin=-5.27897974D-03
 Linear search not attempted -- first point.
 Iteration  1 RMS(Cart)=  0.06031662 RMS(Int)=  0.11547455
 Iteration  2 RMS(Cart)=  0.05007416 RMS(Int)=  0.06695054
 Iteration  3 RMS(Cart)=  0.05059315 RMS(Int)=  0.01903299
 Iteration  4 RMS(Cart)=  0.01917077 RMS(Int)=  0.00086586
 Iteration  5 RMS(Cart)=  0.00083555 RMS(Int)=  0.00020122
 Iteration  6 RMS(Cart)=  0.00000117 RMS(Int)=  0.00020122
 Iteration  7 RMS(Cart)=  0.00000000 RMS(Int)=  0.00020122
 ITry= 1 IFail=0 DXMaxC= 4.76D-01 DCOld= 1.00D+10 DXMaxT= 3.00D-01 DXLimC= 3.00D+00 Rises=F
 Variable       Old X    -DE/DX   Delta X   Delta X   Delta X     New X
                                 (Linear)    (Quad)   (Total)
    R1        2.26666  -0.00997   0.00000  -0.01175  -0.01175   2.25491
    R2        2.75345   0.00414   0.00000   0.02130   0.02130   2.77475
    R3        2.53422   0.02157   0.00000   0.00334   0.00334   2.53756
    R4        2.84933  -0.00016   0.00000  -0.00926  -0.00926   2.84007
    R5        2.46292   0.00134   0.00000  -0.00148  -0.00148   2.46144
    R6        2.50773  -0.00210   0.00000  -0.01820  -0.01820   2.48953
    R7        2.51831  -0.00134   0.00000   0.00033   0.00033   2.51864
    R8        2.51831   0.00706   0.00000   0.03615   0.03615   2.55446
    R9        1.82557  -0.00063   0.00000  -0.00401  -0.00401   1.82156
    A1        2.15453  -0.00707   0.00000  -0.03657  -0.03706   2.11748
    A2        2.18649  -0.00851   0.00000  -0.04669  -0.04716   2.13933
    A3        1.94216   0.01558   0.00000   0.08327   0.08279   2.02495
    A4        2.20189  -0.00229   0.00000  -0.00316  -0.00317   2.19872
    A5        2.04976   0.00521   0.00000   0.00958   0.00957   2.05933
    A6        2.03153  -0.00292   0.00000  -0.00642  -0.00643   2.02510
    A7        1.91791   0.00191   0.00000   0.02759   0.02740   1.94531
    A8        1.94238   0.00199   0.00000   0.00816   0.00780   1.95018
    A9        1.94251  -0.00221   0.00000  -0.02388  -0.02391   1.91860
   A10        1.89091  -0.00029   0.00000   0.01097   0.01050   1.90141
   A11        1.89083  -0.00017   0.00000   0.00072   0.00086   1.89169
   A12        1.87758  -0.00131   0.00000  -0.02386  -0.02405   1.85353
   A13        1.88119   0.01366   0.00000   0.08952   0.08952   1.97071
    D1        3.14146  -0.00249   0.00000  -0.08351  -0.08356   3.05791
    D2        0.00030  -0.00289   0.00000  -0.09359  -0.09368  -0.09338
    D3       -0.00026   0.00110   0.00000  -0.02749  -0.02739  -0.02765
    D4       -3.14142   0.00070   0.00000  -0.03757  -0.03752   3.10425
    D5        2.09495   0.00475   0.00000   0.70960   0.70944   2.80439
    D6       -1.04651   0.00107   0.00000   0.65234   0.65250  -0.39401
    D7        3.14047  -0.00162   0.00000  -0.07019  -0.07041   3.07006
    D8       -1.04819   0.00056   0.00000  -0.03304  -0.03292  -1.08111
    D9        1.04596  -0.00125   0.00000  -0.07391  -0.07376   0.97220
   D10       -0.00155  -0.00122   0.00000  -0.06020  -0.06045  -0.06200
   D11        2.09298   0.00096   0.00000  -0.02306  -0.02297   2.07001
   D12       -2.09606  -0.00085   0.00000  -0.06392  -0.06380  -2.15986
         Item               Value     Threshold  Converged?
 Maximum Force            0.021566     0.000450     NO 
 RMS     Force            0.006170     0.000300     NO 
 Maximum Displacement     0.475658     0.001800     NO 
 RMS     Displacement     0.139654     0.001200     NO 
 Predicted change in Energy=-9.594480D-03
 Lowest energy point so far.  Saving SCF results.
 GradGradGradGradGradGradGradGradGradGradGradGradGradGradGradGradGradGrad

 Leave Link  103 at Sat May 24 00:43:22 2025, MaxMem=  3758096384 cpu:               0.0 elap:               0.0
 (Enter /apps/easybuild-2022/easybuild/software/Compiler/NVHPC/22.11-CUDA-11.7.0/Gaussian/g16c01-CUDA-11.7.0/g16/l202.exe)
                          Input orientation:                          
 ---------------------------------------------------------------------
 Center     Atomic      Atomic             Coordinates (Angstroms)
 Number     Number       Type             X           Y           Z
 ---------------------------------------------------------------------
      1          6           0        1.466343   -0.019255   -0.065872
      2          8           0        2.091387   -1.030543    0.036385
      3          6           0       -0.000427   -0.018311    0.001848
      4          6           0       -0.884142    1.197238   -0.012314
      5          9           0       -2.159147    0.865999   -0.026242
      6          9           0       -0.653784    1.987222    1.036133
      7          9           0       -0.625190    1.942355   -1.110039
      8          9           0       -0.609952   -1.167364    0.070811
      9          8           0        2.051540    1.183866   -0.180763
     10          1           0        1.462470    1.854509   -0.544623
 ---------------------------------------------------------------------
                    Distance matrix (angstroms):
                    1          2          3          4          5
     1  C    0.000000
     2  O    1.193248   0.000000
     3  C    1.468332   2.324111   0.000000
     4  C    2.647169   3.717413   1.502901   0.000000
     5  F    3.732213   4.654872   2.332994   1.317403   0.000000
     6  F    3.120145   4.200282   2.349209   1.332809   2.156826
     7  F    3.051673   4.187147   2.338981   1.351760   2.164759
     8  F    2.376517   2.705021   1.302536   2.381897   2.558121
     9  O    1.342817   2.225387   2.385192   2.940541   4.225494
    10  H    1.933963   3.009424   2.438474   2.494383   3.789721
                    6          7          8          9         10
     6  F    0.000000
     7  F    2.146831   0.000000
     8  F    3.299270   3.326408   0.000000
     9  O    3.073271   2.933213   3.560212   0.000000
    10  H    2.644794   2.164656   3.715563   0.963929   0.000000
 Symmetry turned off by external request.
 Stoichiometry    C3HF4O2
 Rotational constants (GHZ):           2.5581426           1.3607497           1.0507415
 Leave Link  202 at Sat May 24 00:43:22 2025, MaxMem=  3758096384 cpu:               0.0 elap:               0.0
 (Enter /apps/easybuild-2022/easybuild/software/Compiler/NVHPC/22.11-CUDA-11.7.0/Gaussian/g16c01-CUDA-11.7.0/g16/l301.exe)
 Standard basis: def2TZVPP (5D, 7F)
 Ernie: Thresh=  0.10000D-02 Tol=  0.10000D-05 Strict=F.
   293 basis functions,   476 primitive gaussians,   339 cartesian basis functions
    36 alpha electrons       35 beta electrons
       nuclear repulsion energy       502.7293659548 Hartrees.
 IExCor= 4336 DFT=T Ex+Corr=M062X ExCW=0 ScaHFX=  0.540000
 ScaDFX=  1.000000  1.000000  1.000000  1.000000 ScalE2=  1.000000  1.000000
 IRadAn=      5 IRanWt=     -1 IRanGd=            0 ICorTp=0 IEmpDi=  4
 NAtoms=   10 NActive=   10 NUniq=   10 SFac= 1.00D+00 NAtFMM=   60 NAOKFM=F Big=F
 Integral buffers will be    131072 words long.
 Raffenetti 2 integral format.
 Two-electron integral symmetry is turned off.
 Leave Link  301 at Sat May 24 00:43:22 2025, MaxMem=  3758096384 cpu:               0.0 elap:               0.0
 (Enter /apps/easybuild-2022/easybuild/software/Compiler/NVHPC/22.11-CUDA-11.7.0/Gaussian/g16c01-CUDA-11.7.0/g16/l302.exe)
 NPDir=0 NMtPBC=     1 NCelOv=     1 NCel=       1 NClECP=     1 NCelD=      1
         NCelK=      1 NCelE2=     1 NClLst=     1 CellRange=     0.0.
 One-electron integrals computed using PRISM.
   1 Symmetry operations used in ECPInt.
 ECPInt:  NShTT=    5565 NPrTT=   17967 LenC2=    5332 LenP2D=   13265.
 LDataN:  DoStor=T MaxTD1= 6 Len=  172
 NBasis=   293 RedAO= T EigKep=  2.53D-04  NBF=   293
 NBsUse=   293 1.00D-06 EigRej= -1.00D+00 NBFU=   293
 Precomputing XC quadrature grid using
 IXCGrd= 4 IRadAn=           5 IRanWt=          -1 IRanGd=           0 AccXCQ= 0.00D+00.
 Generated NRdTot=       0 NPtTot=           0 NUsed=           0 NTot=          32
 NSgBfM=   338   338   338   338   338 MxSgAt=    10 MxSgA2=    10.
 Leave Link  302 at Sat May 24 00:43:22 2025, MaxMem=  3758096384 cpu:               0.6 elap:               0.1
 (Enter /apps/easybuild-2022/easybuild/software/Compiler/NVHPC/22.11-CUDA-11.7.0/Gaussian/g16c01-CUDA-11.7.0/g16/l303.exe)
 DipDrv:  MaxL=1.
 Leave Link  303 at Sat May 24 00:43:22 2025, MaxMem=  3758096384 cpu:               0.1 elap:               0.0
 (Enter /apps/easybuild-2022/easybuild/software/Compiler/NVHPC/22.11-CUDA-11.7.0/Gaussian/g16c01-CUDA-11.7.0/g16/l401.exe)
 Initial guess from the checkpoint file:  "/tmp/Gau-273953.chk"
 B after Tr=     0.015418   -0.025831   -0.003488
         Rot=    0.999792    0.017096   -0.008796    0.006834 Ang=   2.34 deg.
 Guess basis will be translated and rotated to current coordinates.
 JPrj=2 DoOrth=T DoCkMO=T.
 Initial guess <Sx>= 0.0000 <Sy>= 0.0000 <Sz>= 0.5000 <S**2>= 0.7604 S= 0.5052
 Generating alternative initial guess.
 ExpMin= 9.52D-02 ExpMax= 3.55D+04 ExpMxC= 1.21D+03 IAcc=3 IRadAn=         5 AccDes= 0.00D+00
 Harris functional with IExCor= 1009 and IRadAn=       5 diagonalized for initial guess.
 HarFok:  IExCor= 1009 AccDes= 0.00D+00 IRadAn=         5 IDoV= 1 UseB2=F ITyADJ=14
 ICtDFT=  3500011 ScaDFX=  1.000000  1.000000  1.000000  1.000000
 FoFCou: FMM=F IPFlag=           0 FMFlag=      100000 FMFlg1=           0
         NFxFlg=           0 DoJE=T BraDBF=F KetDBF=T FulRan=T
         wScrn=  0.000000 ICntrl=       500 IOpCl=  0 I1Cent=   200000004 NGrid=           0
         NMat0=    1 NMatS0=      1 NMatT0=    0 NMatD0=    1 NMtDS0=    0 NMtDT0=    0
 Symmetry not used in FoFCou.
 Harris En= -664.345201799286    
 Leave Link  401 at Sat May 24 00:43:23 2025, MaxMem=  3758096384 cpu:               3.4 elap:               0.5
 (Enter /apps/easybuild-2022/easybuild/software/Compiler/NVHPC/22.11-CUDA-11.7.0/Gaussian/g16c01-CUDA-11.7.0/g16/l502.exe)
 Keep R1 and R2 ints in memory in canonical form, NReq=1874806909.
 FoFCou: FMM=F IPFlag=           0 FMFlag=           0 FMFlg1=           0
         NFxFlg=           0 DoJE=F BraDBF=F KetDBF=F FulRan=T
         wScrn=  0.000000 ICntrl=       600 IOpCl=  0 I1Cent=           0 NGrid=           0
         NMat0=    1 NMatS0=  43071 NMatT0=    0 NMatD0=    1 NMtDS0=    0 NMtDT0=    0
 Symmetry not used in FoFCou.
 Two-electron integral symmetry not used.
 UHF open shell SCF:
 Using DIIS extrapolation, IDIIS=  1040.
 NGot=  3758096384 LenX=  1902707317 LenY=  1902591955
 Requested convergence on RMS density matrix=1.00D-08 within  32 cycles.
 Requested convergence on MAX density matrix=1.00D-06.
 Requested convergence on             energy=1.00D-06.
 No special actions if energy rises.
 Integral accuracy reduced to 1.0D-05 until final iterations.

 Cycle   1  Pass 0  IDiag  1:
 E= -664.687214435388    
 DIIS: error= 1.12D-02 at cycle   1 NSaved=   1.
 NSaved= 1 IEnMin= 1 EnMin= -664.687214435388     IErMin= 1 ErrMin= 1.12D-02
 ErrMax= 1.12D-02  0.00D+00 EMaxC= 1.00D-01 BMatC= 2.19D-01 BMatP= 2.19D-01
 IDIUse=3 WtCom= 8.88D-01 WtEn= 1.12D-01
 Coeff-Com:  0.100D+01
 Coeff-En:   0.100D+01
 Coeff:      0.100D+01
 Recover alternate guess density for next cycle.
 RMSDP=1.99D-03 MaxDP=7.24D-02              OVMax= 0.00D+00

 Cycle   2  Pass 0  IDiag  1:
 E= -664.555286894843     Delta-E=        0.131927540545 Rises=F Damp=F
 Switch densities from cycles 1 and 2 for lowest energy.
 DIIS: error= 2.13D-02 at cycle   2 NSaved=   2.
 NSaved= 2 IEnMin= 1 EnMin= -664.687214435388     IErMin= 1 ErrMin= 1.12D-02
 ErrMax= 2.13D-02  0.00D+00 EMaxC= 1.00D+00 BMatC= 1.34D+00 BMatP= 2.19D-01
 IDIUse=1 WtCom= 1.00D+00 WtEn= 0.00D+00
 Coeff-Com:  0.891D+00 0.109D+00
 Coeff:      0.891D+00 0.109D+00
 Gap=     0.366 Goal=   None    Shift=    0.000
 Gap=     0.299 Goal=   None    Shift=    0.000
 RMSDP=9.38D-04 MaxDP=4.90D-02 DE= 1.32D-01 OVMax= 2.24D-01

 Cycle   3  Pass 0  IDiag  1:
 E= -664.738597569117     Delta-E=       -0.183310674274 Rises=F Damp=F
 DIIS: error= 4.31D-03 at cycle   3 NSaved=   3.
 NSaved= 3 IEnMin= 3 EnMin= -664.738597569117     IErMin= 3 ErrMin= 4.31D-03
 ErrMax= 4.31D-03  0.00D+00 EMaxC= 1.00D+00 BMatC= 4.73D-02 BMatP= 2.19D-01
 IDIUse=1 WtCom= 1.00D+00 WtEn= 0.00D+00
 Coeff-Com:  0.426D-01 0.123D+00 0.834D+00
 Coeff:      0.426D-01 0.123D+00 0.834D+00
 Gap=     0.380 Goal=   None    Shift=    0.000
 Gap=     0.286 Goal=   None    Shift=    0.000
 RMSDP=3.15D-04 MaxDP=1.37D-02 DE=-1.83D-01 OVMax= 2.95D-02

 Cycle   4  Pass 0  IDiag  1:
 E= -664.746154305874     Delta-E=       -0.007556736757 Rises=F Damp=F
 DIIS: error= 2.08D-03 at cycle   4 NSaved=   4.
 NSaved= 4 IEnMin= 4 EnMin= -664.746154305874     IErMin= 4 ErrMin= 2.08D-03
 ErrMax= 2.08D-03  0.00D+00 EMaxC= 1.00D+00 BMatC= 7.22D-03 BMatP= 4.73D-02
 IDIUse=1 WtCom= 1.00D+00 WtEn= 0.00D+00
 Coeff-Com: -0.426D-01 0.233D-01 0.312D+00 0.708D+00
 Coeff:     -0.426D-01 0.233D-01 0.312D+00 0.708D+00
 Gap=     0.383 Goal=   None    Shift=    0.000
 Gap=     0.285 Goal=   None    Shift=    0.000
 RMSDP=1.06D-04 MaxDP=6.02D-03 DE=-7.56D-03 OVMax= 1.38D-02

 Cycle   5  Pass 0  IDiag  1:
 E= -664.747241654734     Delta-E=       -0.001087348860 Rises=F Damp=F
 DIIS: error= 8.44D-04 at cycle   5 NSaved=   5.
 NSaved= 5 IEnMin= 5 EnMin= -664.747241654734     IErMin= 5 ErrMin= 8.44D-04
 ErrMax= 8.44D-04  0.00D+00 EMaxC= 1.00D+00 BMatC= 1.40D-03 BMatP= 7.22D-03
 IDIUse=1 WtCom= 1.00D+00 WtEn= 0.00D+00
 Coeff-Com: -0.177D-01-0.529D-02 0.741D-01 0.361D+00 0.588D+00
 Coeff:     -0.177D-01-0.529D-02 0.741D-01 0.361D+00 0.588D+00
 Gap=     0.384 Goal=   None    Shift=    0.000
 Gap=     0.283 Goal=   None    Shift=    0.000
 RMSDP=4.69D-05 MaxDP=1.89D-03 DE=-1.09D-03 OVMax= 6.30D-03

 Cycle   6  Pass 0  IDiag  1:
 E= -664.747490233756     Delta-E=       -0.000248579022 Rises=F Damp=F
 DIIS: error= 1.85D-04 at cycle   6 NSaved=   6.
 NSaved= 6 IEnMin= 6 EnMin= -664.747490233756     IErMin= 6 ErrMin= 1.85D-04
 ErrMax= 1.85D-04  0.00D+00 EMaxC= 1.00D+00 BMatC= 5.86D-05 BMatP= 1.40D-03
 IDIUse=1 WtCom= 1.00D+00 WtEn= 0.00D+00
 Coeff-Com: -0.295D-02-0.179D-02-0.943D-02 0.395D-01 0.157D+00 0.818D+00
 Coeff:     -0.295D-02-0.179D-02-0.943D-02 0.395D-01 0.157D+00 0.818D+00
 Gap=     0.385 Goal=   None    Shift=    0.000
 Gap=     0.285 Goal=   None    Shift=    0.000
 RMSDP=1.43D-05 MaxDP=6.64D-04 DE=-2.49D-04 OVMax= 2.57D-03

 Cycle   7  Pass 0  IDiag  1:
 E= -664.747506828715     Delta-E=       -0.000016594960 Rises=F Damp=F
 DIIS: error= 1.15D-04 at cycle   7 NSaved=   7.
 NSaved= 7 IEnMin= 7 EnMin= -664.747506828715     IErMin= 7 ErrMin= 1.15D-04
 ErrMax= 1.15D-04  0.00D+00 EMaxC= 1.00D+00 BMatC= 1.99D-05 BMatP= 5.86D-05
 IDIUse=1 WtCom= 1.00D+00 WtEn= 0.00D+00
 Coeff-Com:  0.194D-02-0.116D-03-0.190D-01-0.474D-01-0.317D-01 0.419D+00
 Coeff-Com:  0.677D+00
 Coeff:      0.194D-02-0.116D-03-0.190D-01-0.474D-01-0.317D-01 0.419D+00
 Coeff:      0.677D+00
 Gap=     0.385 Goal=   None    Shift=    0.000
 Gap=     0.285 Goal=   None    Shift=    0.000
 RMSDP=7.02D-06 MaxDP=3.95D-04 DE=-1.66D-05 OVMax= 1.32D-03

 Initial convergence to 1.0D-05 achieved.  Increase integral accuracy.
 Cycle   8  Pass 1  IDiag  1:
 E= -664.747443212423     Delta-E=        0.000063616293 Rises=F Damp=F
 DIIS: error= 3.20D-05 at cycle   1 NSaved=   1.
 NSaved= 1 IEnMin= 1 EnMin= -664.747443212423     IErMin= 1 ErrMin= 3.20D-05
 ErrMax= 3.20D-05  0.00D+00 EMaxC= 1.00D+00 BMatC= 3.06D-06 BMatP= 3.06D-06
 IDIUse=1 WtCom= 1.00D+00 WtEn= 0.00D+00
 Coeff-Com:  0.100D+01
 Coeff:      0.100D+01
 Gap=     0.385 Goal=   None    Shift=    0.000
 Gap=     0.285 Goal=   None    Shift=    0.000
 RMSDP=7.02D-06 MaxDP=3.95D-04 DE= 6.36D-05 OVMax= 5.83D-04

 Cycle   9  Pass 1  IDiag  1:
 E= -664.747444126723     Delta-E=       -0.000000914300 Rises=F Damp=F
 DIIS: error= 2.27D-05 at cycle   2 NSaved=   2.
 NSaved= 2 IEnMin= 2 EnMin= -664.747444126723     IErMin= 2 ErrMin= 2.27D-05
 ErrMax= 2.27D-05  0.00D+00 EMaxC= 1.00D+00 BMatC= 8.77D-07 BMatP= 3.06D-06
 IDIUse=1 WtCom= 1.00D+00 WtEn= 0.00D+00
 Coeff-Com:  0.240D+00 0.760D+00
 Coeff:      0.240D+00 0.760D+00
 Gap=     0.385 Goal=   None    Shift=    0.000
 Gap=     0.285 Goal=   None    Shift=    0.000
 RMSDP=1.59D-06 MaxDP=7.60D-05 DE=-9.14D-07 OVMax= 1.92D-04

 Cycle  10  Pass 1  IDiag  1:
 E= -664.747444299475     Delta-E=       -0.000000172752 Rises=F Damp=F
 DIIS: error= 1.38D-05 at cycle   3 NSaved=   3.
 NSaved= 3 IEnMin= 3 EnMin= -664.747444299475     IErMin= 3 ErrMin= 1.38D-05
 ErrMax= 1.38D-05  0.00D+00 EMaxC= 1.00D+00 BMatC= 3.84D-07 BMatP= 8.77D-07
 IDIUse=1 WtCom= 1.00D+00 WtEn= 0.00D+00
 Coeff-Com: -0.768D-01 0.382D+00 0.695D+00
 Coeff:     -0.768D-01 0.382D+00 0.695D+00
 Gap=     0.385 Goal=   None    Shift=    0.000
 Gap=     0.285 Goal=   None    Shift=    0.000
 RMSDP=9.89D-07 MaxDP=5.49D-05 DE=-1.73D-07 OVMax= 1.98D-04

 Cycle  11  Pass 1  IDiag  1:
 E= -664.747444405530     Delta-E=       -0.000000106055 Rises=F Damp=F
 DIIS: error= 9.43D-06 at cycle   4 NSaved=   4.
 NSaved= 4 IEnMin= 4 EnMin= -664.747444405530     IErMin= 4 ErrMin= 9.43D-06
 ErrMax= 9.43D-06  0.00D+00 EMaxC= 1.00D+00 BMatC= 4.30D-08 BMatP= 3.84D-07
 IDIUse=1 WtCom= 1.00D+00 WtEn= 0.00D+00
 Coeff-Com: -0.415D-01 0.193D-01 0.194D+00 0.828D+00
 Coeff:     -0.415D-01 0.193D-01 0.194D+00 0.828D+00
 Gap=     0.385 Goal=   None    Shift=    0.000
 Gap=     0.285 Goal=   None    Shift=    0.000
 RMSDP=5.23D-07 MaxDP=3.47D-05 DE=-1.06D-07 OVMax= 1.09D-04

 Cycle  12  Pass 1  IDiag  1:
 E= -664.747444428576     Delta-E=       -0.000000023046 Rises=F Damp=F
 DIIS: error= 4.73D-06 at cycle   5 NSaved=   5.
 NSaved= 5 IEnMin= 5 EnMin= -664.747444428576     IErMin= 5 ErrMin= 4.73D-06
 ErrMax= 4.73D-06  0.00D+00 EMaxC= 1.00D+00 BMatC= 2.30D-08 BMatP= 4.30D-08
 IDIUse=1 WtCom= 1.00D+00 WtEn= 0.00D+00
 Coeff-Com:  0.950D-02-0.186D+00-0.217D+00 0.546D+00 0.847D+00
 Coeff:      0.950D-02-0.186D+00-0.217D+00 0.546D+00 0.847D+00
 Gap=     0.385 Goal=   None    Shift=    0.000
 Gap=     0.285 Goal=   None    Shift=    0.000
 RMSDP=4.49D-07 MaxDP=2.83D-05 DE=-2.30D-08 OVMax= 1.15D-04

 Cycle  13  Pass 1  IDiag  1:
 E= -664.747444442218     Delta-E=       -0.000000013642 Rises=F Damp=F
 DIIS: error= 1.82D-06 at cycle   6 NSaved=   6.
 NSaved= 6 IEnMin= 6 EnMin= -664.747444442218     IErMin= 6 ErrMin= 1.82D-06
 ErrMax= 1.82D-06  0.00D+00 EMaxC= 1.00D+00 BMatC= 1.56D-09 BMatP= 2.30D-08
 IDIUse=1 WtCom= 1.00D+00 WtEn= 0.00D+00
 Coeff-Com:  0.731D-02-0.431D-01-0.688D-01 0.119D-01 0.186D+00 0.907D+00
 Coeff:      0.731D-02-0.431D-01-0.688D-01 0.119D-01 0.186D+00 0.907D+00
 Gap=     0.385 Goal=   None    Shift=    0.000
 Gap=     0.285 Goal=   None    Shift=    0.000
 RMSDP=1.38D-07 MaxDP=9.23D-06 DE=-1.36D-08 OVMax= 3.41D-05

 Cycle  14  Pass 1  IDiag  1:
 E= -664.747444443717     Delta-E=       -0.000000001499 Rises=F Damp=F
 DIIS: error= 7.82D-07 at cycle   7 NSaved=   7.
 NSaved= 7 IEnMin= 7 EnMin= -664.747444443717     IErMin= 7 ErrMin= 7.82D-07
 ErrMax= 7.82D-07  0.00D+00 EMaxC= 1.00D+00 BMatC= 4.09D-10 BMatP= 1.56D-09
 IDIUse=1 WtCom= 1.00D+00 WtEn= 0.00D+00
 Coeff-Com: -0.212D-02 0.443D-01 0.525D-01-0.151D+00-0.171D+00 0.105D+00
 Coeff-Com:  0.112D+01
 Coeff:     -0.212D-02 0.443D-01 0.525D-01-0.151D+00-0.171D+00 0.105D+00
 Coeff:      0.112D+01
 Gap=     0.385 Goal=   None    Shift=    0.000
 Gap=     0.285 Goal=   None    Shift=    0.000
 RMSDP=8.56D-08 MaxDP=5.79D-06 DE=-1.50D-09 OVMax= 2.28D-05

 Cycle  15  Pass 1  IDiag  1:
 E= -664.747444444206     Delta-E=       -0.000000000489 Rises=F Damp=F
 DIIS: error= 3.88D-07 at cycle   8 NSaved=   8.
 NSaved= 8 IEnMin= 8 EnMin= -664.747444444206     IErMin= 8 ErrMin= 3.88D-07
 ErrMax= 3.88D-07  0.00D+00 EMaxC= 1.00D+00 BMatC= 1.04D-10 BMatP= 4.09D-10
 IDIUse=1 WtCom= 1.00D+00 WtEn= 0.00D+00
 Coeff-Com: -0.201D-02 0.211D-01 0.296D-01-0.495D-01-0.783D-01-0.186D+00
 Coeff-Com:  0.302D+00 0.963D+00
 Coeff:     -0.201D-02 0.211D-01 0.296D-01-0.495D-01-0.783D-01-0.186D+00
 Coeff:      0.302D+00 0.963D+00
 Gap=     0.385 Goal=   None    Shift=    0.000
 Gap=     0.285 Goal=   None    Shift=    0.000
 RMSDP=4.14D-08 MaxDP=2.86D-06 DE=-4.89D-10 OVMax= 1.13D-05

 Cycle  16  Pass 1  IDiag  1:
 E= -664.747444444334     Delta-E=       -0.000000000127 Rises=F Damp=F
 DIIS: error= 1.29D-07 at cycle   9 NSaved=   9.
 NSaved= 9 IEnMin= 9 EnMin= -664.747444444334     IErMin= 9 ErrMin= 1.29D-07
 ErrMax= 1.29D-07  0.00D+00 EMaxC= 1.00D+00 BMatC= 2.26D-11 BMatP= 1.04D-10
 IDIUse=1 WtCom= 1.00D+00 WtEn= 0.00D+00
 Coeff-Com: -0.313D-03-0.266D-02-0.988D-03 0.166D-01 0.137D-01-0.866D-01
 Coeff-Com: -0.167D+00 0.329D+00 0.899D+00
 Coeff:     -0.313D-03-0.266D-02-0.988D-03 0.166D-01 0.137D-01-0.866D-01
 Coeff:     -0.167D+00 0.329D+00 0.899D+00
 Gap=     0.385 Goal=   None    Shift=    0.000
 Gap=     0.285 Goal=   None    Shift=    0.000
 RMSDP=1.79D-08 MaxDP=1.17D-06 DE=-1.27D-10 OVMax= 4.62D-06

 Cycle  17  Pass 1  IDiag  1:
 E= -664.747444444330     Delta-E=        0.000000000004 Rises=F Damp=F
 DIIS: error= 4.91D-08 at cycle  10 NSaved=  10.
 NSaved=10 IEnMin= 9 EnMin= -664.747444444334     IErMin=10 ErrMin= 4.91D-08
 ErrMax= 4.91D-08  0.00D+00 EMaxC= 1.00D+00 BMatC= 2.99D-12 BMatP= 2.26D-11
 IDIUse=1 WtCom= 1.00D+00 WtEn= 0.00D+00
 Coeff-Com:  0.244D-03-0.448D-02-0.513D-02 0.139D-01 0.179D-01-0.134D-02
 Coeff-Com: -0.107D+00-0.383D-01 0.297D+00 0.828D+00
 Coeff:      0.244D-03-0.448D-02-0.513D-02 0.139D-01 0.179D-01-0.134D-02
 Coeff:     -0.107D+00-0.383D-01 0.297D+00 0.828D+00
 Gap=     0.385 Goal=   None    Shift=    0.000
 Gap=     0.285 Goal=   None    Shift=    0.000
 RMSDP=5.66D-09 MaxDP=3.49D-07 DE= 3.64D-12 OVMax= 1.37D-06

 SCF Done:  E(UM062X) =  -664.747444444     A.U. after   17 cycles
            NFock= 17  Conv=0.57D-08     -V/T= 2.0036
 <Sx>= 0.0000 <Sy>= 0.0000 <Sz>= 0.5000 <S**2>= 0.7590 S= 0.5045
 <L.S>=  0.00000000000    
 KE= 6.623334405418D+02 PE=-2.579186718888D+03 EE= 7.493764679475D+02
 Annihilation of the first spin contaminant:
 S**2 before annihilation     0.7590,   after     0.7501
 Leave Link  502 at Sat May 24 00:44:01 2025, MaxMem=  3758096384 cpu:             163.6 elap:              38.9
 (Enter /apps/easybuild-2022/easybuild/software/Compiler/NVHPC/22.11-CUDA-11.7.0/Gaussian/g16c01-CUDA-11.7.0/g16/l508.exe)
 QCSCF skips out because SCF is already converged.
 Leave Link  508 at Sat May 24 00:44:02 2025, MaxMem=  3758096384 cpu:               0.0 elap:               0.0
 (Enter /apps/easybuild-2022/easybuild/software/Compiler/NVHPC/22.11-CUDA-11.7.0/Gaussian/g16c01-CUDA-11.7.0/g16/l701.exe)
 ... and contract with generalized density number  0.
 Compute integral first derivatives.
   1 Symmetry operations used in ECPInt.
 ECPInt:  NShTT=    5565 NPrTT=   17967 LenC2=    5332 LenP2D=   13265.
 LDataN:  DoStor=T MaxTD1= 7 Len=  274
[...]
     27  0.127883D-01  0.200042D-01
     28 -0.872599D-02 -0.574145D-02  0.123584D-01
     29  0.136480D-02  0.277015D-03 -0.242644D-03  0.307379D-01
     30  0.137719D-02  0.285064D-03 -0.229468D-03 -0.155564D-01  0.308762D-01
     31  0.102317D-02  0.116112D-02  0.681797D-03 -0.142812D-01 -0.140023D-01
     32 -0.178635D-02 -0.190483D-03  0.656015D-03  0.297649D-01 -0.165420D-01
     33 -0.177396D-02 -0.182434D-03  0.669191D-03 -0.165294D-01  0.298907D-01
     34 -0.212798D-02  0.693619D-03  0.158046D-02 -0.152542D-01 -0.149878D-01
               31            32            33            34 
     31  0.291806D-01
     32 -0.147428D-01  0.316191D-01
     33 -0.144639D-01 -0.146878D-01  0.317323D-01
     34  0.287190D-01 -0.128886D-01 -0.126223D-01  0.310845D-01
 Leave Link  716 at Sat May 24 01:02:52 2025, MaxMem=  3758096384 cpu:               0.0 elap:               0.0
 (Enter /apps/easybuild-2022/easybuild/software/Compiler/NVHPC/22.11-CUDA-11.7.0/Gaussian/g16c01-CUDA-11.7.0/g16/l103.exe)

 GradGradGradGradGradGradGradGradGradGradGradGradGradGradGradGradGradGrad
 Berny optimization.
 Red2BG is reusing G-inverse.
 Internal  Forces:  Max     0.000028654 RMS     0.000008453
 Search for a local minimum.
 Step number   1 out of a maximum of    2
 All quantities printed in internal units (Hartrees-Bohrs-Radians)
 Second derivative matrix not updated -- analytic derivatives used.
 ITU=  0
     Eigenvalues ---    0.00005   0.00408   0.01015   0.01072   0.06440
     Eigenvalues ---    0.12473   0.12641   0.16848   0.17620   0.19191
     Eigenvalues ---    0.22155   0.22983   0.23672   0.27077   0.31064
     Eigenvalues ---    0.37580   0.39721   0.40503   0.46593   0.51733
     Eigenvalues ---    0.52754   0.56936   0.60892   0.92812
 Angle between quadratic step and forces=  86.70 degrees.
 Linear search not attempted -- first point.
 Iteration  1 RMS(Cart)=  0.00049561 RMS(Int)=  0.00000013
 Iteration  2 RMS(Cart)=  0.00000016 RMS(Int)=  0.00000001
 ITry= 1 IFail=0 DXMaxC= 1.20D-03 DCOld= 1.00D+10 DXMaxT= 3.00D-01 DXLimC= 3.00D+00 Rises=F
 Variable       Old X    -DE/DX   Delta X   Delta X   Delta X     New X
                                 (Linear)    (Quad)   (Total)
    R1        2.25812  -0.00000   0.00000  -0.00001  -0.00001   2.25812
    R2        2.78313   0.00000   0.00000   0.00004   0.00004   2.78317
    R3        2.52944  -0.00001   0.00000  -0.00002  -0.00002   2.52942
    R4        2.83628  -0.00001   0.00000  -0.00001  -0.00001   2.83627
    R5        2.46891   0.00001   0.00000   0.00001   0.00001   2.46892
    R6        2.51188   0.00000   0.00000  -0.00001  -0.00001   2.51187
    R7        2.51057  -0.00000   0.00000   0.00001   0.00001   2.51057
    R8        2.53885   0.00000   0.00000   0.00001   0.00001   2.53886
    R9        1.81920   0.00001   0.00000   0.00000   0.00000   1.81921
    A1        2.08863   0.00001   0.00000   0.00001   0.00001   2.08864
    A2        2.13246   0.00001   0.00000   0.00002   0.00002   2.13248
    A3        2.06209  -0.00002   0.00000  -0.00002  -0.00002   2.06207
    A4        2.30024  -0.00003   0.00000  -0.00006  -0.00006   2.30017
    A5        2.02835   0.00001   0.00000   0.00001   0.00001   2.02836
    A6        1.95446   0.00002   0.00000   0.00006   0.00006   1.95452
    A7        1.94058   0.00000   0.00000  -0.00002  -0.00002   1.94056
    A8        1.93919   0.00000   0.00000   0.00005   0.00005   1.93924
    A9        1.94097  -0.00002   0.00000  -0.00004  -0.00004   1.94093
   A10        1.88029   0.00000   0.00000   0.00001   0.00001   1.88029
   A11        1.87957   0.00000   0.00000   0.00000   0.00000   1.87957
   A12        1.88049   0.00001   0.00000  -0.00000  -0.00000   1.88048
   A13        1.96819  -0.00000   0.00000  -0.00001  -0.00001   1.96818
    D1       -3.12411   0.00000   0.00000  -0.00040  -0.00040  -3.12450
    D2       -0.00224  -0.00000   0.00000   0.00002   0.00002  -0.00222
    D3        0.01771   0.00000   0.00000  -0.00036  -0.00036   0.01735
    D4        3.13958  -0.00000   0.00000   0.00005   0.00005   3.13963
    D5       -3.13662  -0.00000   0.00000  -0.00029  -0.00029  -3.13692
    D6        0.00474  -0.00000   0.00000  -0.00033  -0.00033   0.00441
    D7        2.05395  -0.00000   0.00000   0.00111   0.00111   2.05506
    D8       -2.13510   0.00000   0.00000   0.00113   0.00113  -2.13397
    D9       -0.04046   0.00000   0.00000   0.00114   0.00114  -0.03932
   D10       -1.06856  -0.00000   0.00000   0.00071   0.00071  -1.06785
   D11        1.02557   0.00000   0.00000   0.00074   0.00074   1.02631
   D12        3.12022   0.00000   0.00000   0.00074   0.00074   3.12096
         Item               Value     Threshold  Converged?
 Maximum Force            0.000029     0.000450     YES
 RMS     Force            0.000008     0.000300     YES
 Maximum Displacement     0.001200     0.001800     YES
 RMS     Displacement     0.000496     0.001200     YES
 Predicted change in Energy=-3.453129D-09
 Optimization completed.
    -- Stationary point found.
                           ----------------------------
                           !   Optimized Parameters   !
                           ! (Angstroms and Degrees)  !
 --------------------------                            --------------------------
 ! Name  Definition              Value          Derivative Info.                !
 --------------------------------------------------------------------------------
 ! R1    R(1,2)                  1.1949         -DE/DX =    0.0                 !
 ! R2    R(1,3)                  1.4728         -DE/DX =    0.0                 !
 ! R3    R(1,9)                  1.3385         -DE/DX =    0.0                 !
 ! R4    R(3,4)                  1.5009         -DE/DX =    0.0                 !
 ! R5    R(3,8)                  1.3065         -DE/DX =    0.0                 !
 ! R6    R(4,5)                  1.3292         -DE/DX =    0.0                 !
 ! R7    R(4,6)                  1.3285         -DE/DX =    0.0                 !
 ! R8    R(4,7)                  1.3435         -DE/DX =    0.0                 !
 ! R9    R(9,10)                 0.9627         -DE/DX =    0.0                 !
 ! A1    A(2,1,3)              119.6697         -DE/DX =    0.0                 !
 ! A2    A(2,1,9)              122.1812         -DE/DX =    0.0                 !
 ! A3    A(3,1,9)              118.1491         -DE/DX =    0.0                 !
 ! A4    A(1,3,4)              131.7939         -DE/DX =    0.0                 !
 ! A5    A(1,3,8)              116.2157         -DE/DX =    0.0                 !
 ! A6    A(4,3,8)              111.9824         -DE/DX =    0.0                 !
 ! A7    A(3,4,5)              111.1868         -DE/DX =    0.0                 !
 ! A8    A(3,4,6)              111.1075         -DE/DX =    0.0                 !
 ! A9    A(3,4,7)              111.2093         -DE/DX =    0.0                 !
 ! A10   A(5,4,6)              107.7324         -DE/DX =    0.0                 !
 ! A11   A(5,4,7)              107.6914         -DE/DX =    0.0                 !
 ! A12   A(6,4,7)              107.7439         -DE/DX =    0.0                 !
 ! A13   A(1,9,10)             112.7689         -DE/DX =    0.0                 !
 ! D1    D(2,1,3,4)           -178.9981         -DE/DX =    0.0                 !
 ! D2    D(2,1,3,8)             -0.1284         -DE/DX =    0.0                 !
 ! D3    D(9,1,3,4)              1.0148         -DE/DX =    0.0                 !
 ! D4    D(9,1,3,8)            179.8846         -DE/DX =    0.0                 !
 ! D5    D(2,1,9,10)          -179.7153         -DE/DX =    0.0                 !
 ! D6    D(3,1,9,10)             0.2713         -DE/DX =    0.0                 !
 ! D7    D(1,3,4,5)            117.6828         -DE/DX =    0.0                 !
 ! D8    D(1,3,4,6)           -122.3325         -DE/DX =    0.0                 !
 ! D9    D(1,3,4,7)             -2.3183         -DE/DX =    0.0                 !
 ! D10   D(8,3,4,5)            -61.2237         -DE/DX =    0.0                 !
 ! D11   D(8,3,4,6)             58.761          -DE/DX =    0.0                 !
 ! D12   D(8,3,4,7)            178.7752         -DE/DX =    0.0                 !
 --------------------------------------------------------------------------------
 GradGradGradGradGradGradGradGradGradGradGradGradGradGradGradGradGradGrad

 Leave Link  103 at Sat May 24 01:02:52 2025, MaxMem=  3758096384 cpu:               0.0 elap:               0.0
 (Enter /apps/easybuild-2022/easybuild/software/Compiler/NVHPC/22.11-CUDA-11.7.0/Gaussian/g16c01-CUDA-11.7.0/g16/l9999.exe)

 ----------------------------------------------------------------------

 Electric dipole moment (input orientation):
 (Debye = 10**-18 statcoulomb cm , SI units = C m)
                  (au)            (Debye)         (10**-30 SI)
   Tot        0.116341D+01      0.295709D+01      0.986378D+01
   x         -0.636952D+00     -0.161897D+01     -0.540031D+01
   y          0.963131D+00      0.244803D+01      0.816577D+01
   z         -0.142085D+00     -0.361145D+00     -0.120465D+01

 Dipole polarizability, Alpha (input orientation).
 (esu units = cm**3 , SI units = C**2 m**2 J**-1)
 Alpha(0;0):
               (au)            (10**-24 esu)      (10**-40 SI)
   iso        0.435145D+02      0.644818D+01      0.717457D+01
   aniso      0.183554D+02      0.272000D+01      0.302640D+01
   xx         0.492330D+02      0.729558D+01      0.811743D+01
   yx        -0.496364D+01     -0.735535D+00     -0.818393D+00
   yy         0.468492D+02      0.694233D+01      0.772438D+01
   zx        -0.327492D+01     -0.485294D+00     -0.539962D+00
   zy        -0.374881D+01     -0.555516D+00     -0.618095D+00
   zz         0.344613D+02      0.510664D+01      0.568190D+01

 ----------------------------------------------------------------------

 Dipole orientation:
     6          2.22763862         -0.79918336         -1.54805576
     8          2.04080882         -0.78127307         -3.79836400
     6         -0.03369364         -0.40316174          0.02527311
     6         -0.38334890         -0.28843537          2.83757808
     9         -1.23228935          1.96392652          3.55570332
     9         -2.03573658         -2.01161524          3.61424013
     9          1.80498580         -0.71164866          4.05324470
     9         -2.15519142         -0.04330750         -1.18521876
     8          4.44184610         -1.17063222         -0.38299147
     1          4.29672485         -1.14294906          1.43020449

 Electric dipole moment (dipole orientation):
 (Debye = 10**-18 statcoulomb cm , SI units = C m)
                  (au)            (Debye)         (10**-30 SI)
   Tot        0.116341D+01      0.295709D+01      0.986378D+01
   x          0.000000D+00      0.000000D+00      0.000000D+00
   y          0.000000D+00      0.000000D+00      0.000000D+00
   z          0.116341D+01      0.295709D+01      0.986378D+01

 Dipole polarizability, Alpha (dipole orientation).
 (esu units = cm**3 , SI units = C**2 m**2 J**-1)
 Alpha(0;0):
               (au)            (10**-24 esu)      (10**-40 SI)
   iso        0.435145D+02      0.644818D+01      0.717457D+01
   aniso      0.183554D+02      0.272000D+01      0.302640D+01
   xx         0.457638D+02      0.678150D+01      0.754543D+01
   yx        -0.237721D+01     -0.352266D+00     -0.391948D+00
   yy         0.325812D+02      0.482804D+01      0.537191D+01
   zx        -0.250316D+01     -0.370930D+00     -0.412716D+00
   zy         0.621751D+00      0.921340D-01      0.102513D+00
   zz         0.521985D+02      0.773502D+01      0.860637D+01

 ----------------------------------------------------------------------
 Unable to Open any file for archive entry.
 1\1\GINC-SPARTAN-BM153\Freq\UM062X\def2TZVPP\C3H1F4O2\AKHALILOV\24-May
 -2025\0\\#P Geom=AllCheck Guess=TCheck SCRF=Check GenChk UM062X/def2TZ
 VPP Freq\\Gaussian input prepared by ASE\\0,2\C,1.4832478203,-0.037420
 0841,-0.1952336982\O,2.0589185098,-1.0668598355,-0.0035197769\C,0.0657
 827488,0.0869139309,0.1847458529\C,-0.9091198691,1.2205644789,0.054035
 4241\F,-1.9278337059,0.889763144,-0.7331387258\F,-1.4066538697,1.56256
 67961,1.2374612526\F,-0.3221763492,2.3080350497,-0.473129354\F,-0.4831
 966951,-0.9709531133,0.7199687104\O,2.0838216696,1.0227500957,-0.74930
 10047\H,1.4963070156,1.7803564087,-0.8365666946\\Version=ES64L-G16RevC
 .01\HF=-664.7489863\S2=0.758842\S2-1=0.\S2A=0.750055\RMSD=1.490e-09\RM
 SF=5.248e-06\ZeroPoint=0.0476455\Thermal=0.0559411\ETot=-664.6930452\H
 Tot=-664.6921011\GTot=-664.7379042\Dipole=-0.6369525,0.9631311,-0.1420
 853\DipoleDeriv=1.3861857,-0.0025379,-0.3026284,-0.0168886,1.558897,-0
 .4161181,-0.296668,-0.4203043,0.6026445,-0.7765349,0.3412281,0.0057493
 ,0.3066768,-0.9407012,0.1186149,0.0179148,0.1069033,-0.3917382,0.04217
 22,0.2063257,-0.0902193,0.4358913,0.5645876,-0.3391459,-0.1622148,-0.2
 715325,0.1227233,1.8225308,-0.0218944,-0.026693,-0.1414183,1.5371441,0
 .1007626,0.0172932,0.0648817,1.6763016,-0.8258687,-0.0230392,-0.285704
 9,-0.004836,-0.3416433,-0.064578,-0.32273,-0.0779016,-0.48023,-0.50818
 33,0.1568362,0.2443366,0.1806061,-0.3794436,-0.1926932,0.2607947,-0.16
 54344,-0.75449,-0.5356929,-0.0792455,0.0997496,-0.1917326,-0.722473,0.
 2035142,0.1377665,0.1733521,-0.36977,-0.4286411,-0.1828581,0.1768566,-
 0.3278753,-0.597689,0.2930059,0.2244682,0.2472138,-0.2038053,-0.539397
 5,-0.3690203,0.1804995,-0.233923,-1.0702308,0.3183657,0.1325119,0.3595
 609,-0.5329525,0.3634298,-0.0257945,-0.0019461,-0.0065004,0.3915522,-0
 .0217282,-0.0091366,-0.0167389,0.3313165\Polar=49.233022,-4.9636379,46
 .8491704,-3.2749248,-3.7488109,34.46129\PG=Unknown\NImag=0\\0.60441705
 ,-0.18089418,0.88575880,-0.06517575,-0.19823335,0.26129840,-0.26137354
 ,0.28966935,-0.04525080,0.28481626,0.26390770,-0.56909425,0.09708478,-
 0.33474521,0.68487859,-0.03619209,0.08938775,-0.09188974,0.04257443,-0
 .13049715,0.06543367,-0.17686981,-0.00929077,0.04270193,-0.05209089,0.
 05882163,0.00007637,0.56872003,-0.03249238,-0.06149907,0.01606248,0.06
 262486,-0.03946358,0.00146002,0.00677402,0.59845037,0.04963813,0.00951
 030,-0.06240262,-0.00118321,0.00224438,0.01716945,-0.14385473,-0.18784
 390,0.18918339,-0.01522043,0.02145529,-0.00314833,0.00288737,-0.007087
 59,0.00218764,-0.12727208,0.09668674,-0.00907494,0.58111735,0.03488513
 ,0.02079605,-0.01711780,-0.01557645,0.00533784,0.00328579,0.06001301,-
 0.15265241,0.02449036,-0.03777983,0.59391224,-0.00720137,-0.01320340,0
 .00861369,0.00529718,0.00059883,-0.00029922,0.00406436,0.01385997,-0.0
 4387226,-0.00442417,-0.01449068,0.53066359,0.01011454,0.00036496,-0.00
 663617,-0.00512424,0.00466454,0.00115902,-0.04911779,-0.00586592,-0.01
 772722,-0.22458003,-0.02671594,-0.11243376,0.28769743,-0.00539650,-0.0
 0342387,0.00382891,0.00232756,-0.00068365,-0.00092202,0.02065501,0.007
 45966,0.00833442,-0.02250554,-0.08430045,-0.01824407,0.07336817,0.0977
 6309,0.00414757,0.00148014,-0.00440435,-0.00283928,0.00196020,0.000849
 12,-0.02408813,-0.00227520,0.00131290,-0.10324405,-0.01876016,-0.14839
 214,0.16112855,0.05566090,0.20633485,0.00873376,0.00169044,-0.00096758
 ,-0.00411614,0.00278646,-0.00068494,-0.02305594,0.01145411,0.03173406,
 -0.11751995,0.03866195,0.08866309,0.01685803,-0.01395522,-0.03402456,0
 .12887640,-0.00935398,-0.00549941,0.00193910,0.00478615,-0.00176968,0.
 00014254,0.02800754,-0.00436954,-0.02799713,0.03578726,-0.10510070,-0.
 06339757,-0.00749513,0.00481990,-0.02972981,-0.03035134,0.09788968,-0.
 00542714,-0.00081359,-0.00080487,0.00325339,-0.00258431,0.00068801,0.0
 2230608,-0.00516024,-0.01403520,0.07955350,-0.06331568,-0.23673601,-0.
 01497265,-0.02944056,-0.07336920,-0.11983714,0.08229047,0.36799051,-0.
 00689964,-0.01082491,0.00554475,0.00143510,0.00330420,-0.00158116,0.01
 172586,0.00490816,-0.00347137,-0.09776396,-0.04612098,0.02324191,-0.04
 012455,-0.05761314,-0.00184522,-0.01223961,-0.02359071,0.03914270,0.15
 085187,-0.00980131,-0.00416890,0.00394297,0.00301061,0.00006542,-0.000
 88872,-0.02218539,-0.03187550,0.01894448,-0.04700170,-0.23464183,0.068
 49468,-0.04330899,-0.02552787,-0.00780460,-0.01328794,0.01057690,0.022
 47629,0.11204347,0.29736848,0.00507115,0.00414802,-0.00409781,-0.00145
 813,-0.00096330,0.00077981,0.00570876,0.01172037,-0.00004874,0.0234826
 4,0.06809805,-0.09900370,-0.00930446,-0.01629685,0.01669752,0.03819059
 ,0.03752494,-0.04735127,-0.05762763,-0.10409957,0.12895642,-0.01350982
 ,-0.03665802,0.01747414,0.00158106,-0.00320660,0.00004264,-0.13076383,
 -0.11740150,0.07510023,0.00127586,0.01032567,-0.00426402,0.00533939,0.
 00026628,0.00152775,0.00340463,-0.00067876,-0.00320233,0.00073353,0.00
 595422,-0.00162151,0.14248835,0.00948211,-0.01673330,0.00363110,-0.001
 59902,0.01110016,-0.00417500,-0.12581261,-0.31650602,0.14384099,-0.035
 86626,-0.03320101,0.02152251,0.00646920,0.00231381,0.00026189,0.004161
 07,0.00148010,-0.00357515,0.00481407,-0.01123584,0.00332706,0.14127362
 ,0.36192206,0.00165793,0.01734818,-0.00494158,-0.00061550,-0.00354402,
 -0.00054871,0.07778509,0.14100937,-0.08820573,0.01230322,0.00872733,-0
 .00769847,-0.00201111,-0.00128511,0.00045615,-0.00374924,0.00061101,0.
 00353747,-0.00132648,0.00292728,0.00147215,-0.08916472,-0.16660370,0.0
 9435862,-0.16989251,-0.06047043,0.05871856,0.03325512,0.01816033,-0.01
 223742,-0.01964071,-0.02465980,0.01749859,0.00469733,-0.00574696,-0.00
 004261,-0.00217632,0.00093735,-0.00087684,-0.00172483,0.00166739,0.001
 36817,-0.00537465,0.00539534,0.00033849,-0.00958977,-0.00397149,0.0054
 1648,0.40306555,-0.09055128,-0.21535660,0.08685009,-0.00707959,-0.0886
 7945,0.03833750,-0.01514489,0.00086077,0.00778027,-0.00218405,-0.01854
 411,0.00614826,-0.00149415,0.00313517,-0.00085804,-0.00147685,0.003341
 46,-0.00018923,0.00865585,0.00735102,-0.00432995,-0.00249102,-0.000171
 47,0.00215402,-0.14485862,0.63196173,0.06903386,0.07762353,-0.09393816
 ,-0.00329571,0.03081538,0.00417520,0.01411295,0.01033821,0.00137307,-0
 .00131614,0.00732654,-0.00479686,0.00180228,-0.00119592,0.00123175,0.0
 0082138,-0.00136206,0.00045520,-0.00081209,-0.00347157,0.00343905,0.00
 492370,0.00267102,0.00164770,-0.06410777,-0.16941225,0.10221269,0.0205
 0040,-0.01504173,-0.00326075,-0.00127011,-0.00660546,0.00465554,-0.001
 63484,-0.00202829,0.00134046,-0.00762147,-0.01194560,0.00709937,0.0011
 1353,0.00191602,0.00011422,0.00078365,0.00122159,-0.00218457,-0.002343
 94,0.00918168,-0.00277991,-0.00095940,0.00104931,-0.00029566,-0.232619
 22,0.25662459,-0.02116246,0.22405141,0.02021470,-0.03077945,0.00201173
 ,-0.00341828,-0.00169140,0.00386929,-0.00183754,-0.00040468,0.00069582
 ,-0.00150432,0.00839438,-0.00128852,0.00001325,-0.00155578,0.00006467,
 0.00031733,-0.00136870,0.00031200,0.00442400,-0.00791188,0.00087122,0.
 00261611,0.00103150,-0.00134435,0.21354687,-0.32389852,0.04666711,-0.2
 3437212,0.35818454,-0.01555230,0.01275243,-0.00743296,0.00351763,0.004
 88522,0.00364242,0.00118733,0.00082892,-0.00047426,0.00368064,0.001756
 25,0.00152136,-0.00100448,-0.00043971,-0.00071659,-0.00014567,-0.00002
 150,-0.00037464,-0.00126541,-0.00052125,-0.00084344,-0.00081587,-0.000
 90072,-0.00007761,-0.00607564,0.03351933,-0.01579965,0.01647376,-0.051
 85898,0.02055538\\-0.00001325,-0.00000187,0.00000537,0.,-0.00000400,-0
 .00000022,0.00001177,-0.00000352,-0.00000406,-0.00000059,-0.00000689,-
 0.00000435,-0.00000061,0.00000163,0.00000632,0.00000161,0.00000320,0.0
 0000260,-0.00000809,0.00000487,0.00000322,0.00000035,0.00000825,0.0000
 0174,0.00000409,0.00000233,-0.00000828,0.00000473,-0.00000399,-0.00000
 234\\\@
 The archive entry for this job was punched.


 THE ONLY TROUBLE WITH A SURE THING IS THE UNCERTAINTY.
     -- FROM A TEABAG (BELONGING TO W.H.?)
 Job cpu time:       0 days  0 hours 30 minutes  4.9 seconds.
 Elapsed time:       0 days  0 hours  3 minutes 49.7 seconds.
 File lengths (MBytes):  RWF=    165 Int=      0 D2E=      0 Chk=      9 Scr=      1
 Normal termination of Gaussian 16 at Sat May 24 01:02:52 2025.
done
