9
energy = -688.715533551
C 1.52848000 0.03470700 -0.01432800
O 2.21804900 -0.89372200 0.09588800
C -0.03529500 -0.02870000 -0.01724100
C -0.58358900 0.37274700 1.36589000
F -1.90480100 0.31758900 1.36271600
F -0.11518100 -0.45695100 2.28866100
F -0.20066000 1.60685200 1.66136700
F -0.49918600 0.82443100 -0.93281200
F -0.46617500 -1.25843600 -0.31016400
