 Entering Gaussian System, Link 0=g16
 Initial command:
 /apps/easybuild-2022/easybuild/software/Compiler/NVHPC/22.11-CUDA-11.7.0/Gaussian/g16c01-CUDA-11.7.0/g16/l1.exe "/tmp/Gau-150131.inp" -scrdir="/tmp/"
 Entering Link 1 = /apps/easybuild-2022/easybuild/software/Compiler/NVHPC/22.11-CUDA-11.7.0/Gaussian/g16c01-CUDA-11.7.0/g16/l1.exe PID=    150134.
  
 Copyright (c) 1988-2019, Gaussian, Inc.  All Rights Reserved.
  
 This is part of the Gaussian(R) 16 program.  It is based on
 the Gaussian(R) 09 system (copyright 2009, Gaussian, Inc.),
 the Gaussian(R) 03 system (copyright 2003, Gaussian, Inc.),
 the Gaussian(R) 98 system (copyright 1998, Gaussian, Inc.),
 the Gaussian(R) 94 system (copyright 1995, Gaussian, Inc.),
 the Gaussian 92(TM) system (copyright 1992, Gaussian, Inc.),
 the Gaussian 90(TM) system (copyright 1990, Gaussian, Inc.),
 the Gaussian 88(TM) system (copyright 1988, Gaussian, Inc.),
 the Gaussian 86(TM) system (copyright 1986, Carnegie Mellon
 University), and the Gaussian 82(TM) system (copyright 1983,
 Carnegie Mellon University). Gaussian is a federally registered
 trademark of Gaussian, Inc.
  
 This software contains proprietary and confidential information,
 including trade secrets, belonging to Gaussian, Inc.
  
 This software is provided under written license and may be
 used, copied, transmitted, or stored only in accord with that
 written license.
  
 The following legend is applicable only to US Government
 contracts under FAR:
  
                    RESTRICTED RIGHTS LEGEND
  
 Use, reproduction and disclosure by the US Government is
 subject to restrictions as set forth in subparagraphs (a)
 and (c) of the Commercial Computer Software - Restricted
 Rights clause in FAR 52.227-19.
  
 Gaussian, Inc.
 340 Quinnipiac St., Bldg. 40, Wallingford CT 06492
  
  
 ---------------------------------------------------------------
 Warning -- This program may not be used in any manner that
 competes with the business of Gaussian, Inc. or will provide
 assistance to any competitor of Gaussian, Inc.  The licensee
 of this program is prohibited from giving any competitor of
 Gaussian, Inc. access to this program.  By using this program,
 the user acknowledges that Gaussian, Inc. is engaged in the
 business of creating and licensing software in the field of
 computational chemistry and represents and warrants to the
 licensee that it is not a competitor of Gaussian, Inc. and that
 it will not use this program in any manner prohibited above.
 ---------------------------------------------------------------
  

 Cite this work as:
 Gaussian 16, Revision C.01,
 M. J. Frisch, G. W. Trucks, H. B. Schlegel, G. E. Scuseria, 
 M. A. Robb, J. R. Cheeseman, G. Scalmani, V. Barone, 
 G. A. Petersson, H. Nakatsuji, X. Li, M. Caricato, A. V. Marenich, 
 J. Bloino, B. G. Janesko, R. Gomperts, B. Mennucci, H. P. Hratchian, 
 J. V. Ortiz, A. F. Izmaylov, J. L. Sonnenberg, D. Williams-Young, 
 F. Ding, F. Lipparini, F. Egidi, J. Goings, B. Peng, A. Petrone, 
 T. Henderson, D. Ranasinghe, V. G. Zakrzewski, J. Gao, N. Rega, 
 G. Zheng, W. Liang, M. Hada, M. Ehara, K. Toyota, R. Fukuda, 
 J. Hasegawa, M. Ishida, T. Nakajima, Y. Honda, O. Kitao, H. Nakai, 
 T. Vreven, K. Throssell, J. A. Montgomery, Jr., J. E. Peralta, 
 F. Ogliaro, M. J. Bearpark, J. J. Heyd, E. N. Brothers, K. N. Kudin, 
 V. N. Staroverov, T. A. Keith, R. Kobayashi, J. Normand, 
 K. Raghavachari, A. P. Rendell, J. C. Burant, S. S. Iyengar, 
 J. Tomasi, M. Cossi, J. M. Millam, M. Klene, C. Adamo, R. Cammi, 
 J. W. Ochterski, R. L. Martin, K. Morokuma, O. Farkas, 
 J. B. Foresman, and D. J. Fox, Gaussian, Inc., Wallingford CT, 2019.
 
 ******************************************
 Gaussian 16:  ES64L-G16RevC.01  3-Jul-2019
                24-May-2025 
 ******************************************
 %mem=28GB
 %nprocshared=8
 Will use up to    8 processors via shared memory.
 -----------------------------------------------------------------
 #P M062X/Def2TZVPP Symm(None) scf(xqc) pop(None) freq opt(CalcFC)
 -----------------------------------------------------------------
 1/10=4,18=20,19=15,26=3,38=1/1,3;
 2/9=110,12=2,15=3,17=6,18=5,40=1/2;
 3/5=44,7=202,11=2,25=1,30=1,71=2,74=-55,140=1/1,2,3;
 4//1;
 5/5=2,8=3,13=1,38=5/2,8;
 8/6=4,10=90,11=11/1;
 11/6=1,8=1,9=11,15=111,16=1,31=1/1,2,10;
 10/6=1,13=1,31=1/2;
 7/10=1,25=1,30=1/1,2,3,16;
 1/10=4,18=20,19=15,26=3/3(2);
 2/9=110,15=3/2;
 99//99;
 2/9=110,15=3/2;
 3/5=44,7=202,11=2,25=1,30=1,71=1,74=-55/1,2,3;
 4/5=5,16=3,69=1/1;
 5/5=2,8=3,13=1,38=5/2,8;
 7/30=1/1,2,3,16;
 1/18=20,19=15,26=3/3(-5);
 2/9=110,15=3/2;
 99/9=1/99;
 Leave Link    1 at Sat May 24 00:30:49 2025, MaxMem=  3758096384 cpu:               0.1 elap:               0.0
 (Enter /apps/easybuild-2022/easybuild/software/Compiler/NVHPC/22.11-CUDA-11.7.0/Gaussian/g16c01-CUDA-11.7.0/g16/l101.exe)
 ------------------------------
 Gaussian input prepared by ASE
 ------------------------------
 Symbolic Z-matrix:
 Charge =  0 Multiplicity = 2
 C                     1.52848   0.03471  -0.01433 
 O                     2.21805  -0.89372   0.09589 
 C                    -0.0353   -0.0287   -0.01724 
 C                    -0.58359   0.37275   1.36589 
 F                    -1.9048    0.31759   1.36272 
 F                    -0.11518  -0.45695   2.28866 
 F                    -0.20066   1.60685   1.66137 
 F                    -0.49919   0.82443  -0.93281 
 F                    -0.46618  -1.25844  -0.31016 
 
 ITRead=  0  0  0  0  0  0  0  0  0
 MicOpt= -1 -1 -1 -1 -1 -1 -1 -1 -1
 NAtoms=      9 NQM=        9 NQMF=       0 NMMI=      0 NMMIF=      0
                NMic=       0 NMicF=      0.
                    Isotopes and Nuclear Properties:
 (Nuclear quadrupole moments (NQMom) in fm**2, nuclear magnetic moments (NMagM)
  in nuclear magnetons)

  Atom         1           2           3           4           5           6           7           8           9
 IAtWgt=          12          16          12          12          19          19          19          19          19
 AtmWgt=  12.0000000  15.9949146  12.0000000  12.0000000  18.9984032  18.9984032  18.9984032  18.9984032  18.9984032
 NucSpn=           0           0           0           0           1           1           1           1           1
 AtZEff=  -0.0000000  -0.0000000  -0.0000000  -0.0000000  -0.0000000  -0.0000000  -0.0000000  -0.0000000  -0.0000000
 NQMom=    0.0000000   0.0000000   0.0000000   0.0000000   0.0000000   0.0000000   0.0000000   0.0000000   0.0000000
 NMagM=    0.0000000   0.0000000   0.0000000   0.0000000   2.6288670   2.6288670   2.6288670   2.6288670   2.6288670
 AtZNuc=   6.0000000   8.0000000   6.0000000   6.0000000   9.0000000   9.0000000   9.0000000   9.0000000   9.0000000
 Leave Link  101 at Sat May 24 00:30:49 2025, MaxMem=  3758096384 cpu:               0.2 elap:               0.2
 (Enter /apps/easybuild-2022/easybuild/software/Compiler/NVHPC/22.11-CUDA-11.7.0/Gaussian/g16c01-CUDA-11.7.0/g16/l103.exe)

 GradGradGradGradGradGradGradGradGradGradGradGradGradGradGradGradGradGrad
 Berny optimization.
 Initialization pass.
                           ----------------------------
                           !    Initial Parameters    !
                           ! (Angstroms and Degrees)  !
 --------------------------                            --------------------------
 ! Name  Definition              Value          Derivative Info.                !
 --------------------------------------------------------------------------------
 ! R1    R(1,2)                  1.1617         calculate D2E/DX2 analytically  !
 ! R2    R(1,3)                  1.5651         calculate D2E/DX2 analytically  !
 ! R3    R(3,4)                  1.5411         calculate D2E/DX2 analytically  !
 ! R4    R(3,8)                  1.3347         calculate D2E/DX2 analytically  !
 ! R5    R(3,9)                  1.3356         calculate D2E/DX2 analytically  !
 ! R6    R(4,5)                  1.3224         calculate D2E/DX2 analytically  !
 ! R7    R(4,6)                  1.3264         calculate D2E/DX2 analytically  !
 ! R8    R(4,7)                  1.3255         calculate D2E/DX2 analytically  !
 ! A1    A(2,1,3)              124.1165         calculate D2E/DX2 analytically  !
 ! A2    A(1,3,4)              110.0765         calculate D2E/DX2 analytically  !
 ! A3    A(1,3,8)              108.8244         calculate D2E/DX2 analytically  !
 ! A4    A(1,3,9)              111.1044         calculate D2E/DX2 analytically  !
 ! A5    A(4,3,8)              108.9971         calculate D2E/DX2 analytically  !
 ! A6    A(4,3,9)              108.7795         calculate D2E/DX2 analytically  !
 ! A7    A(8,3,9)              109.0247         calculate D2E/DX2 analytically  !
 ! A8    A(3,4,5)              110.0269         calculate D2E/DX2 analytically  !
 ! A9    A(3,4,6)              109.6218         calculate D2E/DX2 analytically  !
 ! A10   A(3,4,7)              109.8663         calculate D2E/DX2 analytically  !
 ! A11   A(5,4,6)              109.1726         calculate D2E/DX2 analytically  !
 ! A12   A(5,4,7)              109.1481         calculate D2E/DX2 analytically  !
 ! A13   A(6,4,7)              108.9834         calculate D2E/DX2 analytically  !
 ! D1    D(2,1,3,4)            100.4987         calculate D2E/DX2 analytically  !
 ! D2    D(2,1,3,8)           -140.1107         calculate D2E/DX2 analytically  !
 ! D3    D(2,1,3,9)            -20.0624         calculate D2E/DX2 analytically  !
 ! D4    D(1,3,4,5)           -179.9397         calculate D2E/DX2 analytically  !
 ! D5    D(1,3,4,6)            -59.8702         calculate D2E/DX2 analytically  !
 ! D6    D(1,3,4,7)             59.8669         calculate D2E/DX2 analytically  !
 ! D7    D(8,3,4,5)             60.7751         calculate D2E/DX2 analytically  !
 ! D8    D(8,3,4,6)           -179.1554         calculate D2E/DX2 analytically  !
 ! D9    D(8,3,4,7)            -59.4183         calculate D2E/DX2 analytically  !
 ! D10   D(9,3,4,5)            -57.9887         calculate D2E/DX2 analytically  !
 ! D11   D(9,3,4,6)             62.0809         calculate D2E/DX2 analytically  !
 ! D12   D(9,3,4,7)           -178.1821         calculate D2E/DX2 analytically  !
 --------------------------------------------------------------------------------
 Trust Radius=3.00D-01 FncErr=1.00D-07 GrdErr=1.00D-06 EigMax=2.50D+02 EigMin=1.00D-04
 Number of steps in this run=     43 maximum allowed number of steps=    100.
 GradGradGradGradGradGradGradGradGradGradGradGradGradGradGradGradGradGrad

 Leave Link  103 at Sat May 24 00:30:49 2025, MaxMem=  3758096384 cpu:               0.0 elap:               0.0
 (Enter /apps/easybuild-2022/easybuild/software/Compiler/NVHPC/22.11-CUDA-11.7.0/Gaussian/g16c01-CUDA-11.7.0/g16/l202.exe)
                          Input orientation:                          
 ---------------------------------------------------------------------
 Center     Atomic      Atomic             Coordinates (Angstroms)
 Number     Number       Type             X           Y           Z
 ---------------------------------------------------------------------
      1          6           0        1.528480    0.034707   -0.014328
      2          8           0        2.218049   -0.893722    0.095888
      3          6           0       -0.035295   -0.028700   -0.017241
      4          6           0       -0.583589    0.372747    1.365890
      5          9           0       -1.904801    0.317589    1.362716
      6          9           0       -0.115181   -0.456951    2.288661
      7          9           0       -0.200660    1.606852    1.661367
      8          9           0       -0.499186    0.824431   -0.932812
      9          9           0       -0.466175   -1.258436   -0.310164
 ---------------------------------------------------------------------
                    Distance matrix (angstroms):
                    1          2          3          4          5
     1  C    0.000000
     2  O    1.161737   0.000000
     3  C    1.565063   2.416324   0.000000
     4  C    2.545606   3.326563   1.541051   0.000000
     5  F    3.709945   4.479958   2.349308   1.322367   0.000000
     6  F    2.871778   3.231561   2.346692   1.326390   2.158709
     7  F    2.875677   3.814937   2.349489   1.325502   2.157658
     8  F    2.361929   3.375447   1.334653   2.344179   2.738995
     9  F    2.395493   2.739152   1.335557   2.341730   2.711462
                    6          7          8          9
     6  F    0.000000
     7  F    2.158724   0.000000
     8  F    3.488164   2.725998   0.000000
     9  F    2.742165   3.488167   2.174193   0.000000
 Symmetry turned off by external request.
 Stoichiometry    C3F5O
 Rotational constants (GHZ):           2.3018010           1.5022571           1.3374143
 Leave Link  202 at Sat May 24 00:30:49 2025, MaxMem=  3758096384 cpu:               0.1 elap:               0.0
 (Enter /apps/easybuild-2022/easybuild/software/Compiler/NVHPC/22.11-CUDA-11.7.0/Gaussian/g16c01-CUDA-11.7.0/g16/l301.exe)
 Standard basis: def2TZVPP (5D, 7F)
 Ernie: Thresh=  0.10000D-02 Tol=  0.10000D-05 Strict=F.
   279 basis functions,   459 primitive gaussians,   324 cartesian basis functions
    36 alpha electrons       35 beta electrons
       nuclear repulsion energy       514.2213792879 Hartrees.
 IExCor= 4336 DFT=T Ex+Corr=M062X ExCW=0 ScaHFX=  0.540000
 ScaDFX=  1.000000  1.000000  1.000000  1.000000 ScalE2=  1.000000  1.000000
 IRadAn=      5 IRanWt=     -1 IRanGd=            0 ICorTp=0 IEmpDi=  4
 NAtoms=    9 NActive=    9 NUniq=    9 SFac= 1.00D+00 NAtFMM=   60 NAOKFM=F Big=F
 Integral buffers will be    131072 words long.
 Raffenetti 2 integral format.
 Two-electron integral symmetry is turned off.
 Leave Link  301 at Sat May 24 00:30:49 2025, MaxMem=  3758096384 cpu:               0.1 elap:               0.0
 (Enter /apps/easybuild-2022/easybuild/software/Compiler/NVHPC/22.11-CUDA-11.7.0/Gaussian/g16c01-CUDA-11.7.0/g16/l302.exe)
 NPDir=0 NMtPBC=     1 NCelOv=     1 NCel=       1 NClECP=     1 NCelD=      1
         NCelK=      1 NCelE2=     1 NClLst=     1 CellRange=     0.0.
 One-electron integrals computed using PRISM.
   1 Symmetry operations used in ECPInt.
 ECPInt:  NShTT=    4950 NPrTT=   16488 LenC2=    4756 LenP2D=   12184.
 LDataN:  DoStor=T MaxTD1= 6 Len=  172
 NBasis=   279 RedAO= T EigKep=  5.12D-04  NBF=   279
 NBsUse=   279 1.00D-06 EigRej= -1.00D+00 NBFU=   279
 Precomputing XC quadrature grid using
 IXCGrd= 4 IRadAn=           5 IRanWt=          -1 IRanGd=           0 AccXCQ= 0.00D+00.
 Generated NRdTot=       0 NPtTot=           0 NUsed=           0 NTot=          32
 NSgBfM=   323   323   323   323   323 MxSgAt=     9 MxSgA2=     9.
 Leave Link  302 at Sat May 24 00:30:50 2025, MaxMem=  3758096384 cpu:               0.8 elap:               0.2
 (Enter /apps/easybuild-2022/easybuild/software/Compiler/NVHPC/22.11-CUDA-11.7.0/Gaussian/g16c01-CUDA-11.7.0/g16/l303.exe)
 DipDrv:  MaxL=1.
 Leave Link  303 at Sat May 24 00:30:50 2025, MaxMem=  3758096384 cpu:               0.1 elap:               0.0
 (Enter /apps/easybuild-2022/easybuild/software/Compiler/NVHPC/22.11-CUDA-11.7.0/Gaussian/g16c01-CUDA-11.7.0/g16/l401.exe)
 ExpMin= 9.52D-02 ExpMax= 3.55D+04 ExpMxC= 1.21D+03 IAcc=3 IRadAn=         5 AccDes= 0.00D+00
 Harris functional with IExCor= 1009 and IRadAn=       5 diagonalized for initial guess.
 HarFok:  IExCor= 1009 AccDes= 0.00D+00 IRadAn=         5 IDoV= 1 UseB2=F ITyADJ=14
 ICtDFT=  3500011 ScaDFX=  1.000000  1.000000  1.000000  1.000000
 FoFCou: FMM=F IPFlag=           0 FMFlag=      100000 FMFlg1=           0
         NFxFlg=           0 DoJE=T BraDBF=F KetDBF=T FulRan=T
         wScrn=  0.000000 ICntrl=       500 IOpCl=  0 I1Cent=   200000004 NGrid=           0
         NMat0=    1 NMatS0=      1 NMatT0=    0 NMatD0=    1 NMtDS0=    0 NMtDT0=    0
 Symmetry not used in FoFCou.
 Harris En= -688.287802634881    
 JPrj=0 DoOrth=F DoCkMO=F.
 Initial guess <Sx>= 0.0000 <Sy>= 0.0000 <Sz>= 0.5000 <S**2>= 0.7500 S= 0.5000
 Leave Link  401 at Sat May 24 00:30:50 2025, MaxMem=  3758096384 cpu:               2.8 elap:               0.4
 (Enter /apps/easybuild-2022/easybuild/software/Compiler/NVHPC/22.11-CUDA-11.7.0/Gaussian/g16c01-CUDA-11.7.0/g16/l502.exe)
 Keep R1 and R2 ints in memory in canonical form, NReq=1542887460.
 FoFCou: FMM=F IPFlag=           0 FMFlag=           0 FMFlg1=           0
         NFxFlg=           0 DoJE=F BraDBF=F KetDBF=F FulRan=T
         wScrn=  0.000000 ICntrl=       600 IOpCl=  0 I1Cent=           0 NGrid=           0
         NMat0=    1 NMatS0=  39060 NMatT0=    0 NMatD0=    1 NMtDS0=    0 NMtDT0=    0
 Symmetry not used in FoFCou.
 Two-electron integral symmetry not used.
 UHF open shell SCF:
 Using DIIS extrapolation, IDIIS=  1040.
 NGot=  3758096384 LenX=  2232158908 LenY=  2232053491
 Requested convergence on RMS density matrix=1.00D-08 within  32 cycles.
 Requested convergence on MAX density matrix=1.00D-06.
 Requested convergence on             energy=1.00D-06.
 No special actions if energy rises.
 Integral accuracy reduced to 1.0D-05 until final iterations.

 Cycle   1  Pass 0  IDiag  1:
 E= -688.633076090201    
 DIIS: error= 1.87D-02 at cycle   1 NSaved=   1.
 NSaved= 1 IEnMin= 1 EnMin= -688.633076090201     IErMin= 1 ErrMin= 1.87D-02
 ErrMax= 1.87D-02  0.00D+00 EMaxC= 1.00D-01 BMatC= 1.00D+00 BMatP= 1.00D+00
 IDIUse=3 WtCom= 8.13D-01 WtEn= 1.87D-01
 Coeff-Com:  0.100D+01
 Coeff-En:   0.100D+01
 Coeff:      0.100D+01
 Gap=     0.278 Goal=   None    Shift=    0.000
 Gap=     0.432 Goal=   None    Shift=    0.000
 GapD=    0.278 DampG=1.000 DampE=0.500 DampFc=0.5000 IDamp=-1.
 Damping current iteration by 5.00D-01
 RMSDP=1.92D-03 MaxDP=7.32D-02              OVMax= 1.79D-01

 Cycle   2  Pass 0  IDiag  1:
 E= -688.673981050618     Delta-E=       -0.040904960417 Rises=F Damp=T
 DIIS: error= 7.38D-03 at cycle   2 NSaved=   2.
 NSaved= 2 IEnMin= 2 EnMin= -688.673981050618     IErMin= 2 ErrMin= 7.38D-03
 ErrMax= 7.38D-03  0.00D+00 EMaxC= 1.00D-01 BMatC= 1.39D-01 BMatP= 1.00D+00
 IDIUse=3 WtCom= 9.26D-01 WtEn= 7.38D-02
 Coeff-Com:  0.548D-01 0.945D+00
 Coeff-En:   0.242D+00 0.758D+00
 Coeff:      0.686D-01 0.931D+00
 Gap=     0.291 Goal=   None    Shift=    0.000
 Gap=     0.422 Goal=   None    Shift=    0.000
 RMSDP=6.72D-04 MaxDP=2.00D-02 DE=-4.09D-02 OVMax= 1.29D-01

 Cycle   3  Pass 0  IDiag  1:
 E= -688.738651226754     Delta-E=       -0.064670176136 Rises=F Damp=F
 DIIS: error= 6.47D-03 at cycle   3 NSaved=   3.
 NSaved= 3 IEnMin= 3 EnMin= -688.738651226754     IErMin= 3 ErrMin= 6.47D-03
 ErrMax= 6.47D-03  0.00D+00 EMaxC= 1.00D-01 BMatC= 6.04D-02 BMatP= 1.39D-01
 IDIUse=3 WtCom= 9.35D-01 WtEn= 6.47D-02
 Coeff-Com: -0.114D+00 0.387D+00 0.727D+00
 Coeff-En:   0.000D+00 0.000D+00 0.100D+01
 Coeff:     -0.107D+00 0.362D+00 0.745D+00
 Gap=     0.275 Goal=   None    Shift=    0.000
 Gap=     0.386 Goal=   None    Shift=    0.000
 RMSDP=3.24D-04 MaxDP=1.93D-02 DE=-6.47D-02 OVMax= 5.14D-02

 Cycle   4  Pass 0  IDiag  1:
 E= -688.746493523245     Delta-E=       -0.007842296491 Rises=F Damp=F
 DIIS: error= 2.64D-03 at cycle   4 NSaved=   4.
 NSaved= 4 IEnMin= 4 EnMin= -688.746493523245     IErMin= 4 ErrMin= 2.64D-03
 ErrMax= 2.64D-03  0.00D+00 EMaxC= 1.00D-01 BMatC= 1.92D-02 BMatP= 6.04D-02
 IDIUse=3 WtCom= 9.74D-01 WtEn= 2.64D-02
 Coeff-Com: -0.655D-01 0.123D+00 0.446D+00 0.496D+00
 Coeff-En:   0.000D+00 0.000D+00 0.229D+00 0.771D+00
 Coeff:     -0.638D-01 0.120D+00 0.440D+00 0.504D+00
 Gap=     0.274 Goal=   None    Shift=    0.000
 Gap=     0.387 Goal=   None    Shift=    0.000
 RMSDP=1.13D-04 MaxDP=6.18D-03 DE=-7.84D-03 OVMax= 1.76D-02

 Cycle   5  Pass 0  IDiag  1:
 E= -688.749719774945     Delta-E=       -0.003226251700 Rises=F Damp=F
 DIIS: error= 2.61D-04 at cycle   5 NSaved=   5.
 NSaved= 5 IEnMin= 5 EnMin= -688.749719774945     IErMin= 5 ErrMin= 2.61D-04
 ErrMax= 2.61D-04  0.00D+00 EMaxC= 1.00D-01 BMatC= 1.55D-04 BMatP= 1.92D-02
 IDIUse=3 WtCom= 9.97D-01 WtEn= 2.61D-03
 Coeff-Com: -0.115D-01 0.151D-01 0.859D-01 0.135D+00 0.775D+00
 Coeff-En:   0.000D+00 0.000D+00 0.000D+00 0.000D+00 0.100D+01
 Coeff:     -0.115D-01 0.151D-01 0.856D-01 0.135D+00 0.776D+00
 Gap=     0.275 Goal=   None    Shift=    0.000
 Gap=     0.389 Goal=   None    Shift=    0.000
 RMSDP=2.02D-05 MaxDP=8.25D-04 DE=-3.23D-03 OVMax= 3.15D-03

 Cycle   6  Pass 0  IDiag  1:
 E= -688.749757235199     Delta-E=       -0.000037460254 Rises=F Damp=F
 DIIS: error= 1.11D-04 at cycle   6 NSaved=   6.
 NSaved= 6 IEnMin= 6 EnMin= -688.749757235199     IErMin= 6 ErrMin= 1.11D-04
 ErrMax= 1.11D-04  0.00D+00 EMaxC= 1.00D-01 BMatC= 1.75D-05 BMatP= 1.55D-04
 IDIUse=3 WtCom= 9.99D-01 WtEn= 1.11D-03
 Coeff-Com:  0.448D-02-0.960D-02-0.329D-01-0.299D-01 0.158D+00 0.909D+00
 Coeff-En:   0.000D+00 0.000D+00 0.000D+00 0.000D+00 0.000D+00 0.100D+01
 Coeff:      0.447D-02-0.959D-02-0.329D-01-0.298D-01 0.158D+00 0.910D+00
 Gap=     0.275 Goal=   None    Shift=    0.000
 Gap=     0.389 Goal=   None    Shift=    0.000
 RMSDP=1.38D-05 MaxDP=2.01D-03 DE=-3.75D-05 OVMax= 1.69D-03

 Cycle   7  Pass 0  IDiag  1:
 E= -688.749764537059     Delta-E=       -0.000007301860 Rises=F Damp=F
 DIIS: error= 4.84D-05 at cycle   7 NSaved=   7.
 NSaved= 7 IEnMin= 7 EnMin= -688.749764537059     IErMin= 7 ErrMin= 4.84D-05
 ErrMax= 4.84D-05  0.00D+00 EMaxC= 1.00D-01 BMatC= 3.01D-06 BMatP= 1.75D-05
 IDIUse=1 WtCom= 1.00D+00 WtEn= 0.00D+00
 Coeff-Com:  0.264D-02-0.479D-02-0.203D-01-0.244D-01-0.220D-01 0.291D+00
 Coeff-Com:  0.778D+00
 Coeff:      0.264D-02-0.479D-02-0.203D-01-0.244D-01-0.220D-01 0.291D+00
 Coeff:      0.778D+00
 Gap=     0.275 Goal=   None    Shift=    0.000
 Gap=     0.389 Goal=   None    Shift=    0.000
 RMSDP=4.72D-06 MaxDP=6.10D-04 DE=-7.30D-06 OVMax= 8.12D-04

 Initial convergence to 1.0D-05 achieved.  Increase integral accuracy.
 Cycle   8  Pass 1  IDiag  1:
 E= -688.749727475693     Delta-E=        0.000037061367 Rises=F Damp=F
 DIIS: error= 2.43D-05 at cycle   1 NSaved=   1.
 NSaved= 1 IEnMin= 1 EnMin= -688.749727475693     IErMin= 1 ErrMin= 2.43D-05
 ErrMax= 2.43D-05  0.00D+00 EMaxC= 1.00D-01 BMatC= 2.20D-06 BMatP= 2.20D-06
 IDIUse=1 WtCom= 1.00D+00 WtEn= 0.00D+00
 Coeff-Com:  0.100D+01
 Coeff:      0.100D+01
 Gap=     0.275 Goal=   None    Shift=    0.000
 Gap=     0.389 Goal=   None    Shift=    0.000
 RMSDP=4.72D-06 MaxDP=6.10D-04 DE= 3.71D-05 OVMax= 3.94D-04

 Cycle   9  Pass 1  IDiag  1:
 E= -688.749728195280     Delta-E=       -0.000000719587 Rises=F Damp=F
 DIIS: error= 1.68D-05 at cycle   2 NSaved=   2.
 NSaved= 2 IEnMin= 2 EnMin= -688.749728195280     IErMin= 2 ErrMin= 1.68D-05
 ErrMax= 1.68D-05  0.00D+00 EMaxC= 1.00D-01 BMatC= 5.59D-07 BMatP= 2.20D-06
 IDIUse=1 WtCom= 1.00D+00 WtEn= 0.00D+00
 Coeff-Com:  0.218D+00 0.782D+00
 Coeff:      0.218D+00 0.782D+00
 Gap=     0.275 Goal=   None    Shift=    0.000
 Gap=     0.389 Goal=   None    Shift=    0.000
 RMSDP=1.66D-06 MaxDP=1.32D-04 DE=-7.20D-07 OVMax= 1.67D-04

 Cycle  10  Pass 1  IDiag  1:
 E= -688.749728368126     Delta-E=       -0.000000172846 Rises=F Damp=F
 DIIS: error= 1.07D-05 at cycle   3 NSaved=   3.
 NSaved= 3 IEnMin= 3 EnMin= -688.749728368126     IErMin= 3 ErrMin= 1.07D-05
 ErrMax= 1.07D-05  0.00D+00 EMaxC= 1.00D-01 BMatC= 2.49D-07 BMatP= 5.59D-07
 IDIUse=1 WtCom= 1.00D+00 WtEn= 0.00D+00
 Coeff-Com: -0.932D-01 0.357D+00 0.736D+00
 Coeff:     -0.932D-01 0.357D+00 0.736D+00
 Gap=     0.275 Goal=   None    Shift=    0.000
 Gap=     0.389 Goal=   None    Shift=    0.000
 RMSDP=1.04D-06 MaxDP=9.70D-05 DE=-1.73D-07 OVMax= 1.44D-04

 Cycle  11  Pass 1  IDiag  1:
 E= -688.749728475916     Delta-E=       -0.000000107790 Rises=F Damp=F
 DIIS: error= 6.28D-06 at cycle   4 NSaved=   4.
 NSaved= 4 IEnMin= 4 EnMin= -688.749728475916     IErMin= 4 ErrMin= 6.28D-06
 ErrMax= 6.28D-06  0.00D+00 EMaxC= 1.00D-01 BMatC= 3.50D-08 BMatP= 2.49D-07
 IDIUse=1 WtCom= 1.00D+00 WtEn= 0.00D+00
 Coeff-Com:  0.187D-01-0.382D+00-0.460D+00 0.182D+01
 Coeff:      0.187D-01-0.382D+00-0.460D+00 0.182D+01
 Gap=     0.275 Goal=   None    Shift=    0.000
 Gap=     0.389 Goal=   None    Shift=    0.000
 RMSDP=1.16D-06 MaxDP=9.10D-05 DE=-1.08D-07 OVMax= 2.03D-04

 Cycle  12  Pass 1  IDiag  1:
 E= -688.749728541774     Delta-E=       -0.000000065858 Rises=F Damp=F
 DIIS: error= 2.93D-06 at cycle   5 NSaved=   5.
 NSaved= 5 IEnMin= 5 EnMin= -688.749728541774     IErMin= 5 ErrMin= 2.93D-06
 ErrMax= 2.93D-06  0.00D+00 EMaxC= 1.00D-01 BMatC= 9.73D-09 BMatP= 3.50D-08
 IDIUse=1 WtCom= 1.00D+00 WtEn= 0.00D+00
 Coeff-Com:  0.270D-01-0.237D+00-0.347D+00 0.814D+00 0.743D+00
 Coeff:      0.270D-01-0.237D+00-0.347D+00 0.814D+00 0.743D+00
 Gap=     0.275 Goal=   None    Shift=    0.000
 Gap=     0.389 Goal=   None    Shift=    0.000
 RMSDP=3.36D-07 MaxDP=2.20D-05 DE=-6.59D-08 OVMax= 7.22D-05

 Cycle  13  Pass 1  IDiag  1:
 E= -688.749728548941     Delta-E=       -0.000000007167 Rises=F Damp=F
 DIIS: error= 1.41D-06 at cycle   6 NSaved=   6.
 NSaved= 6 IEnMin= 6 EnMin= -688.749728548941     IErMin= 6 ErrMin= 1.41D-06
 ErrMax= 1.41D-06  0.00D+00 EMaxC= 1.00D-01 BMatC= 2.23D-09 BMatP= 9.73D-09
 IDIUse=1 WtCom= 1.00D+00 WtEn= 0.00D+00
 Coeff-Com:  0.689D-02-0.123D-01-0.407D-01-0.777D-01 0.308D+00 0.815D+00
 Coeff:      0.689D-02-0.123D-01-0.407D-01-0.777D-01 0.308D+00 0.815D+00
 Gap=     0.275 Goal=   None    Shift=    0.000
 Gap=     0.389 Goal=   None    Shift=    0.000
 RMSDP=1.54D-07 MaxDP=1.37D-05 DE=-7.17D-09 OVMax= 2.92D-05

 Cycle  14  Pass 1  IDiag  1:
 E= -688.749728550139     Delta-E=       -0.000000001199 Rises=F Damp=F
 DIIS: error= 8.77D-07 at cycle   7 NSaved=   7.
 NSaved= 7 IEnMin= 7 EnMin= -688.749728550139     IErMin= 7 ErrMin= 8.77D-07
 ErrMax= 8.77D-07  0.00D+00 EMaxC= 1.00D-01 BMatC= 6.48D-10 BMatP= 2.23D-09
 IDIUse=1 WtCom= 1.00D+00 WtEn= 0.00D+00
 Coeff-Com: -0.362D-02 0.558D-01 0.721D-01-0.245D+00-0.469D-01 0.422D+00
 Coeff-Com:  0.746D+00
 Coeff:     -0.362D-02 0.558D-01 0.721D-01-0.245D+00-0.469D-01 0.422D+00
 Coeff:      0.746D+00
 Gap=     0.275 Goal=   None    Shift=    0.000
 Gap=     0.389 Goal=   None    Shift=    0.000
 RMSDP=7.16D-08 MaxDP=7.11D-06 DE=-1.20D-09 OVMax= 1.21D-05

 Cycle  15  Pass 1  IDiag  1:
 E= -688.749728550456     Delta-E=       -0.000000000317 Rises=F Damp=F
 DIIS: error= 2.57D-07 at cycle   8 NSaved=   8.
 NSaved= 8 IEnMin= 8 EnMin= -688.749728550456     IErMin= 8 ErrMin= 2.57D-07
 ErrMax= 2.57D-07  0.00D+00 EMaxC= 1.00D-01 BMatC= 1.41D-10 BMatP= 6.48D-10
 IDIUse=1 WtCom= 1.00D+00 WtEn= 0.00D+00
 Coeff-Com: -0.350D-02 0.340D-01 0.487D-01-0.125D+00-0.851D-01 0.701D-01
 Coeff-Com:  0.379D+00 0.682D+00
 Coeff:     -0.350D-02 0.340D-01 0.487D-01-0.125D+00-0.851D-01 0.701D-01
 Coeff:      0.379D+00 0.682D+00
 Gap=     0.275 Goal=   None    Shift=    0.000
 Gap=     0.389 Goal=   None    Shift=    0.000
 RMSDP=3.12D-08 MaxDP=2.79D-06 DE=-3.17D-10 OVMax= 4.42D-06

 Cycle  16  Pass 1  IDiag  1:
 E= -688.749728550514     Delta-E=       -0.000000000058 Rises=F Damp=F
 DIIS: error= 8.60D-08 at cycle   9 NSaved=   9.
 NSaved= 9 IEnMin= 9 EnMin= -688.749728550514     IErMin= 9 ErrMin= 8.60D-08
 ErrMax= 8.60D-08  0.00D+00 EMaxC= 1.00D-01 BMatC= 1.43D-11 BMatP= 1.41D-10
 IDIUse=1 WtCom= 1.00D+00 WtEn= 0.00D+00
 Coeff-Com:  0.280D-03-0.753D-02-0.877D-02 0.385D-01-0.455D-02-0.942D-01
 Coeff-Com: -0.118D+00 0.154D+00 0.104D+01
 Coeff:      0.280D-03-0.753D-02-0.877D-02 0.385D-01-0.455D-02-0.942D-01
 Coeff:     -0.118D+00 0.154D+00 0.104D+01
 Gap=     0.275 Goal=   None    Shift=    0.000
 Gap=     0.389 Goal=   None    Shift=    0.000
 RMSDP=1.74D-08 MaxDP=1.25D-06 DE=-5.78D-11 OVMax= 2.99D-06

 Cycle  17  Pass 1  IDiag  1:
 E= -688.749728550536     Delta-E=       -0.000000000023 Rises=F Damp=F
 DIIS: error= 2.20D-08 at cycle  10 NSaved=  10.
 NSaved=10 IEnMin=10 EnMin= -688.749728550536     IErMin=10 ErrMin= 2.20D-08
 ErrMax= 2.20D-08  0.00D+00 EMaxC= 1.00D-01 BMatC= 1.15D-12 BMatP= 1.43D-11
 IDIUse=1 WtCom= 1.00D+00 WtEn= 0.00D+00
 Coeff-Com:  0.323D-03-0.405D-02-0.542D-02 0.168D-01 0.532D-02-0.215D-01
 Coeff-Com: -0.564D-01-0.204D-01 0.201D+00 0.884D+00
 Coeff:      0.323D-03-0.405D-02-0.542D-02 0.168D-01 0.532D-02-0.215D-01
 Coeff:     -0.564D-01-0.204D-01 0.201D+00 0.884D+00
 Gap=     0.275 Goal=   None    Shift=    0.000
 Gap=     0.389 Goal=   None    Shift=    0.000
 RMSDP=4.81D-09 MaxDP=2.00D-07 DE=-2.27D-11 OVMax= 1.21D-06

 SCF Done:  E(UM062X) =  -688.749728551     A.U. after   17 cycles
            NFock= 17  Conv=0.48D-08     -V/T= 2.0036
 <Sx>= 0.0000 <Sy>= 0.0000 <Sz>= 0.5000 <S**2>= 0.7539 S= 0.5019
 <L.S>=  0.00000000000    
 KE= 6.862909273625D+02 PE=-2.661267455917D+03 EE= 7.720054207163D+02
 Annihilation of the first spin contaminant:
 S**2 before annihilation     0.7539,   after     0.7500
 Leave Link  502 at Sat May 24 00:31:30 2025, MaxMem=  3758096384 cpu:             153.6 elap:              39.8
 (Enter /apps/easybuild-2022/easybuild/software/Compiler/NVHPC/22.11-CUDA-11.7.0/Gaussian/g16c01-CUDA-11.7.0/g16/l508.exe)
 QCSCF skips out because SCF is already converged.
 Leave Link  508 at Sat May 24 00:31:30 2025, MaxMem=  3758096384 cpu:               0.1 elap:               0.0
 (Enter /apps/easybuild-2022/easybuild/software/Compiler/NVHPC/22.11-CUDA-11.7.0/Gaussian/g16c01-CUDA-11.7.0/g16/l801.exe)
 DoSCS=F DFT=T ScalE2(SS,OS)=  1.000000  1.000000
 Range of M.O.s used for correlation:     1   279
 NBasis=   279 NAE=    36 NBE=    35 NFC=     0 NFV=     0
 NROrb=    279 NOA=    36 NOB=    35 NVA=   243 NVB=   244

 **** Warning!!: The largest alpha MO coefficient is  0.14541688D+02


 **** Warning!!: The largest beta MO coefficient is  0.14273453D+02

 Leave Link  801 at Sat May 24 00:31:30 2025, MaxMem=  3758096384 cpu:               0.0 elap:               0.0
 (Enter /apps/easybuild-2022/easybuild/software/Compiler/NVHPC/22.11-CUDA-11.7.0/Gaussian/g16c01-CUDA-11.7.0/g16/l1101.exe)
 Using compressed storage, NAtomX=     9.
 Will process     10 centers per pass.
   1 Symmetry operations used in ECPInt.
 ECPInt:  NShTT=    4950 NPrTT=   16488 LenC2=    4756 LenP2D=   12184.
 LDataN:  DoStor=T MaxTD1= 7 Len=  274
 Leave Link 1101 at Sat May 24 00:31:30 2025, MaxMem=  3758096384 cpu:               1.3 elap:               0.3
 (Enter /apps/easybuild-2022/easybuild/software/Compiler/NVHPC/22.11-CUDA-11.7.0/Gaussian/g16c01-CUDA-11.7.0/g16/l1102.exe)
 Symmetrizing basis deriv contribution to polar:
 IMax=3 JMax=2 DiffMx= 0.00D+00
 Leave Link 1102 at Sat May 24 00:31:30 2025, MaxMem=  3758096384 cpu:               0.1 elap:               0.0
 (Enter /apps/easybuild-2022/easybuild/software/Compiler/NVHPC/22.11-CUDA-11.7.0/Gaussian/g16c01-CUDA-11.7.0/g16/l1110.exe)
 Forming Gx(P) for the SCF density, NAtomX=     9.
 Integral derivatives from FoFJK, PRISM(SPDF).
 Do as many integral derivatives as possible in FoFJK.
 G2DrvN: MDV=    3758095321.
 G2DrvN: will do    10 centers at a time, making    1 passes.
 Calling FoFCou, ICntrl=  3107 FMM=F I1Cent=   0 AccDes= 0.00D+00.
 FoFJK:  IHMeth= 1 ICntrl=    3107 DoSepK=F KAlg= 0 I1Cent=           0 FoldK=F
 IRaf=         0 NMat=       1 IRICut=       1 DoRegI=T DoRafI=F ISym2E= 0 IDoP0=0 IntGTp=1.
 FoFCou: FMM=F IPFlag=           0 FMFlag=      100000 FMFlg1=           0
         NFxFlg=           0 DoJE=F BraDBF=F KetDBF=F FulRan=T
         wScrn=  0.000000 ICntrl=      3107 IOpCl=  1 I1Cent=           0 NGrid=           0
         NMat0=    1 NMatS0=      1 NMatT0=    0 NMatD0=    1 NMtDS0=    0 NMtDT0=    0
 Symmetry not used in FoFCou.
 End of G2Drv F.D. properties file   721 does not exist.
 End of G2Drv F.D. properties file   722 does not exist.
 End of G2Drv F.D. properties file   788 does not exist.
 Leave Link 1110 at Sat May 24 00:32:23 2025, MaxMem=  3758096384 cpu:             332.7 elap:              52.7
 (Enter /apps/easybuild-2022/easybuild/software/Compiler/NVHPC/22.11-CUDA-11.7.0/Gaussian/g16c01-CUDA-11.7.0/g16/l1002.exe)
 Minotr:  UHF open shell wavefunction.
          IDoAtm=111111111
          Direct CPHF calculation.
          Differentiating once with respect to nuclear coordinates.
          Requested convergence is 1.0D-08 RMS, and 1.0D-07 maximum.
          Secondary convergence is 1.0D-12 RMS, and 1.0D-12 maximum.
          NewPWx=T KeepS1=F KeepF1=F KeepIn=T MapXYZ=F SortEE=F KeepMc=T.
         2704 words used for storage of precomputed grid.
 Keep R1 and R2 ints in memory in canonical form, NReq=1542892240.
 FoFCou: FMM=F IPFlag=           0 FMFlag=           0 FMFlg1=           0
         NFxFlg=           0 DoJE=F BraDBF=F KetDBF=F FulRan=T
         wScrn=  0.000000 ICntrl=       600 IOpCl=  0 I1Cent=           0 NGrid=           0
         NMat0=    1 NMatS0=  39060 NMatT0=    0 NMatD0=    1 NMtDS0=    0 NMtDT0=    0
 Symmetry not used in FoFCou.
 Two-electron integral symmetry not used.
          MDV=    3758096384 using IRadAn=       1.
          Solving linear equations simultaneously, MaxMat=       0.
          There are    30 degrees of freedom in the 1st order CPHF.  IDoFFX=6 NUNeed=     0.
     24 vectors produced by pass  0 Test12= 5.76D-14 3.33D-09 XBig12= 2.27D-01 1.83D-01.
 AX will form    24 AO Fock derivatives at one time.
     24 vectors produced by pass  1 Test12= 5.76D-14 3.33D-09 XBig12= 7.14D-02 8.66D-02.
     24 vectors produced by pass  2 Test12= 5.76D-14 3.33D-09 XBig12= 7.90D-03 3.37D-02.
     24 vectors produced by pass  3 Test12= 5.76D-14 3.33D-09 XBig12= 2.32D-04 2.65D-03.
     24 vectors produced by pass  4 Test12= 5.76D-14 3.33D-09 XBig12= 7.12D-06 4.58D-04.
     24 vectors produced by pass  5 Test12= 5.76D-14 3.33D-09 XBig12= 1.27D-07 3.58D-05.
     24 vectors produced by pass  6 Test12= 5.76D-14 3.33D-09 XBig12= 1.78D-09 6.12D-06.
     23 vectors produced by pass  7 Test12= 5.76D-14 3.33D-09 XBig12= 2.04D-11 5.37D-07.
     11 vectors produced by pass  8 Test12= 5.76D-14 3.33D-09 XBig12= 2.50D-13 6.87D-08.
      1 vectors produced by pass  9 Test12= 5.76D-14 3.33D-09 XBig12= 2.82D-15 4.69D-09.
 InvSVY:  IOpt=1 It=  1 EMax= 2.00D-15
 Solved reduced A of dimension   203 with    24 vectors.
 End of Minotr F.D. properties file   721 does not exist.
 End of Minotr F.D. properties file   722 does not exist.
 End of Minotr F.D. properties file   788 does not exist.
 Leave Link 1002 at Sat May 24 00:33:51 2025, MaxMem=  3758096384 cpu:             590.6 elap:              88.1
 (Enter /apps/easybuild-2022/easybuild/software/Compiler/NVHPC/22.11-CUDA-11.7.0/Gaussian/g16c01-CUDA-11.7.0/g16/l701.exe)
 ... and contract with generalized density number  0.
 Compute integral second derivatives.
   1 Symmetry operations used in ECPInt.
 ECPInt:  NShTT=    4950 NPrTT=   16488 LenC2=    4756 LenP2D=   12184.
 LDataN:  DoStor=T MaxTD1= 8 Len=  415
 Leave Link  701 at Sat May 24 00:33:51 2025, MaxMem=  3758096384 cpu:               1.1 elap:               0.2
 (Enter /apps/easybuild-2022/easybuild/software/Compiler/NVHPC/22.11-CUDA-11.7.0/Gaussian/g16c01-CUDA-11.7.0/g16/l702.exe)
 L702 exits ... SP integral derivatives will be done elsewhere.
 Leave Link  702 at Sat May 24 00:33:51 2025, MaxMem=  3758096384 cpu:               0.1 elap:               0.0
 (Enter /apps/easybuild-2022/easybuild/software/Compiler/NVHPC/22.11-CUDA-11.7.0/Gaussian/g16c01-CUDA-11.7.0/g16/l703.exe)
 Integral derivatives from FoFJK, PRISM(SPDF).
 Compute integral second derivatives, UseDBF=F ICtDFT=           0.
 Calling FoFJK, ICntrl=    100127 FMM=F ISym2X=0 I1Cent= 0 IOpClX= 1 NMat=1 NMatS=1 NMatT=0.
 FoFJK:  IHMeth= 1 ICntrl=  100127 DoSepK=F KAlg= 0 I1Cent=           0 FoldK=F
 IRaf=         0 NMat=       1 IRICut=       1 DoRegI=T DoRafI=F ISym2E= 0 IDoP0=0 IntGTp=1.
 FoFCou: FMM=F IPFlag=           0 FMFlag=      100000 FMFlg1=         800
         NFxFlg=           0 DoJE=F BraDBF=F KetDBF=F FulRan=T
         wScrn=  0.000000 ICntrl=    100127 IOpCl=  1 I1Cent=           0 NGrid=           0
         NMat0=    1 NMatS0=      1 NMatT0=    0 NMatD0=    1 NMtDS0=    0 NMtDT0=    0
 Symmetry not used in FoFCou.
 Leave Link  703 at Sat May 24 00:35:04 2025, MaxMem=  3758096384 cpu:             578.6 elap:              73.1
 (Enter /apps/easybuild-2022/easybuild/software/Compiler/NVHPC/22.11-CUDA-11.7.0/Gaussian/g16c01-CUDA-11.7.0/g16/l716.exe)
 Dipole        =-5.87420320D-02 1.44929807D-01-2.22339968D-02
 Polarizability= 0.00000000D+00 0.00000000D+00 0.00000000D+00
                 0.00000000D+00 0.00000000D+00 0.00000000D+00
 -------------------------------------------------------------------
 Center     Atomic                   Forces (Hartrees/Bohr)
 Number     Number              X              Y              Z
 -------------------------------------------------------------------
      1        6          -0.000000493   -0.000001013   -0.000003239
      2        8          -0.000000830    0.000000857   -0.000002788
      3        6          -0.000001932   -0.000001069    0.000000905
      4        6           0.000001283    0.000000460    0.000000534
      5        9           0.000001437    0.000000317    0.000003346
      6        9           0.000003773    0.000003127    0.000001098
      7        9           0.000001298    0.000002202   -0.000002479
      8        9          -0.000004013   -0.000002858   -0.000000836
      9        9          -0.000000523   -0.000002023    0.000003459
 -------------------------------------------------------------------
 Cartesian Forces:  Max     0.000004013 RMS     0.000002120
 Force constants in Cartesian coordinates: 
                1             2             3             4             5 
      1  0.498843D+00
      2 -0.442898D+00  0.782977D+00
      3  0.567563D-01 -0.916719D-01  0.465608D-01
      4 -0.373115D+00  0.460971D+00 -0.546044D-01  0.422888D+00
      5  0.468901D+00 -0.701797D+00  0.826171D-01 -0.498720D+00  0.691902D+00
      6 -0.554864D-01  0.832688D-01 -0.112162D-01  0.591805D-01 -0.808166D-01
      7 -0.655827D-01 -0.129570D-01  0.800993D-02 -0.441515D-01  0.249348D-01
      8 -0.252209D-01 -0.553331D-01  0.552393D-02  0.364943D-01 -0.282518D-02
      9  0.200831D-02  0.105170D-01 -0.355636D-01  0.154802D-02 -0.966491D-02
     10 -0.177856D-01  0.586104D-02  0.188174D-01 -0.822192D-03 -0.357141D-03
     11  0.298048D-02  0.660768D-02 -0.353649D-02 -0.185119D-02 -0.157088D-02
     12  0.199639D-01 -0.103214D-01  0.491987D-02 -0.103500D-01  0.122443D-01
     13  0.601724D-02 -0.957077D-03  0.345985D-02 -0.339969D-02  0.313205D-02
     14 -0.530446D-03 -0.466108D-03 -0.314990D-03  0.539093D-03 -0.540597D-04
     15 -0.373268D-02  0.128768D-02 -0.307483D-02  0.297485D-02 -0.287912D-02
     16 -0.678797D-03  0.113258D-02 -0.174997D-02  0.829536D-03 -0.168072D-02
     17  0.162992D-02 -0.194214D-02  0.128193D-02 -0.123568D-02  0.214931D-02
     18 -0.333727D-02  0.161266D-02 -0.154600D-02  0.297064D-02 -0.296452D-02
     19 -0.415023D-03  0.400783D-03  0.155680D-02  0.251125D-03  0.258846D-03
     20 -0.473901D-03  0.348074D-03  0.804562D-03  0.564043D-03 -0.287219D-03
     21 -0.900630D-03  0.158451D-02 -0.106464D-02  0.107565D-02 -0.191356D-02
     22 -0.202758D-01  0.306910D-01 -0.287115D-01 -0.798636D-02 -0.836888D-03
     23  0.119003D-01 -0.353643D-02  0.590650D-02  0.243372D-02  0.323980D-03
     24 -0.120219D-01  0.109358D-01 -0.408869D-02 -0.355570D-02  0.739716D-03
     25 -0.270073D-01 -0.422437D-01 -0.353447D-02  0.550636D-02  0.436807D-02
     26 -0.162883D-01 -0.268581D-01 -0.610670D-03  0.805206D-03  0.121591D-01
     27 -0.324971D-02 -0.721319D-02  0.507325D-02  0.760463D-03  0.263762D-02
                6             7             8             9            10 
      6  0.102598D-01
      7 -0.386253D-02  0.433480D+00
      8 -0.260553D-02 -0.301416D-02  0.562332D+00
      9  0.384848D-02  0.418184D-01 -0.384243D-02  0.531061D+00
     10 -0.931094D-04 -0.832965D-01  0.212129D-01  0.760956D-01  0.608178D+00
     11  0.205101D-02  0.962997D-02 -0.476364D-01 -0.360329D-01 -0.476561D-02
     12 -0.337016D-02  0.316059D-01 -0.396422D-01 -0.162706D+00 -0.175629D-01
     13 -0.420928D-03 -0.539936D-01 -0.297349D-02  0.312362D-03 -0.323182D+00
     14 -0.116389D-03  0.906256D-02  0.271282D-02 -0.133764D-02 -0.264708D-02
     15  0.511491D-03  0.386986D-01  0.701758D-03 -0.170803D-02  0.253367D-01
     16  0.151547D-02  0.657674D-02 -0.853962D-04 -0.649498D-03 -0.972486D-01
     17 -0.110947D-02  0.486658D-02 -0.736873D-02  0.625085D-02  0.399848D-01
     18  0.726643D-03 -0.185925D-01  0.382343D-01 -0.262414D-01 -0.459534D-01
     19 -0.798236D-03  0.770661D-02  0.147531D-02 -0.214004D-02 -0.897901D-01
     20 -0.717782D-03 -0.128646D-01 -0.341662D-01 -0.178716D-02 -0.464656D-01
     21  0.324818D-03 -0.110774D-01 -0.331004D-01 -0.122208D-03 -0.110066D-01
     22  0.198341D-02 -0.103848D+00  0.520620D-01 -0.840365D-01  0.187662D-02
     23  0.110819D-02  0.538260D-01 -0.150909D+00  0.116236D+00  0.365240D-02
     24 -0.728954D-03 -0.651285D-01  0.987982D-01 -0.212900D+00 -0.266596D-01
     25 -0.201824D-02 -0.968914D-01 -0.799506D-01 -0.349566D-01  0.207053D-02
     26 -0.106226D-02 -0.734842D-01 -0.266806D+00 -0.803384D-01 -0.164757D-01
     27 -0.355943D-03 -0.214718D-01 -0.640677D-01 -0.956691D-01 -0.189741D-01
               11            12            13            14            15 
     11  0.598921D+00
     12  0.786840D-02  0.620156D+00
     13 -0.541850D-03  0.314400D-01  0.455814D+00
     14 -0.763069D-01 -0.188341D-02  0.164665D-01  0.821886D-01
     15 -0.208347D-02 -0.858510D-01  0.335475D-02 -0.227999D-02  0.730805D-01
     16  0.404420D-01 -0.507225D-01 -0.505987D-01  0.367463D-01 -0.472672D-01
     17 -0.153130D+00  0.106414D+00  0.268362D-01  0.249547D-02  0.122426D-01
     18  0.981477D-01 -0.230326D+00 -0.315691D-01  0.108464D-01  0.989134D-03
     19 -0.499353D-01 -0.137576D-01 -0.437540D-01 -0.596424D-01 -0.172830D-01
     20 -0.281161D+00 -0.794518D-01 -0.429352D-01 -0.160894D-01 -0.629513D-02
     21 -0.706039D-01 -0.110911D+00 -0.978055D-02 -0.383907D-02  0.128274D-01
     22  0.194010D-02  0.537014D-02  0.679363D-02 -0.170268D-02 -0.876588D-03
     23 -0.952269D-02  0.666388D-02 -0.220047D-02  0.195242D-02 -0.532557D-03
     24  0.381812D-01 -0.299793D-01  0.253498D-02 -0.243770D-02  0.244899D-02
     25  0.210137D-02  0.401310D-02  0.630325D-02  0.170808D-02 -0.120549D-02
     26 -0.362004D-01 -0.189161D-02  0.317330D-02  0.356725D-02 -0.161773D-03
     27 -0.339916D-01 -0.193293D-02  0.668599D-03  0.136284D-02  0.776382D-03
               16            17            18            19            20 
     16  0.124999D+00
     17 -0.788768D-01  0.225689D+00
     18  0.922954D-01 -0.164810D+00  0.257099D+00
     19  0.145925D-01  0.782860D-02  0.199419D-02  0.110607D+00
     20  0.203236D-02 -0.753893D-01  0.217658D-01  0.980837D-01  0.404634D+00
     21  0.313386D-02  0.385102D-01  0.141113D-01  0.267474D-01  0.768929D-01
     22  0.943973D-03 -0.101546D-02  0.177062D-02  0.278479D-03 -0.374563D-03
     23 -0.229164D-03  0.165496D-02  0.962086D-03 -0.624816D-04  0.593537D-02
     24  0.239636D-02  0.109297D-02 -0.149884D-01  0.154093D-02 -0.330198D-02
     25  0.584880D-03 -0.181723D-04  0.421437D-03  0.523880D-03  0.243383D-02
     26  0.518857D-03  0.584194D-02 -0.379435D-02  0.159294D-02 -0.382484D-02
     27  0.104803D-02  0.127143D-03  0.175830D-03  0.213954D-02 -0.790935D-02
               21            22            23            24            25 
     21  0.930534D-01
     22  0.560344D-04  0.109021D+00
     23 -0.129318D-03 -0.781898D-01  0.224113D+00
     24  0.457301D-03  0.962004D-01 -0.164569D+00  0.246864D+00
     25  0.175220D-02  0.131960D-01  0.886947D-02  0.469302D-02  0.957138D-01
     26 -0.740139D-02 -0.257381D-02 -0.700118D-01  0.205611D-01  0.102732D+00
     27 -0.867654D-02  0.824401D-02  0.343549D-01  0.129153D-01  0.308350D-01
               26            27 
     26  0.382133D+00
     27  0.746994D-01  0.876937D-01
 FormGI is forming the generalized inverse of G from B-inverse, IUseBI=4.
 Force constants in internal coordinates: 
                1             2             3             4             5 
      1  0.108307D+01
      2  0.531024D-01  0.174392D+00
      3 -0.445092D-02  0.137292D-01  0.281502D+00
      4  0.407801D-02  0.288552D-01  0.180588D-01  0.445854D+00
      5  0.911029D-02  0.228107D-01  0.167887D-01  0.518182D-01  0.433726D+00
      6  0.452806D-02 -0.268964D-02  0.193181D-01  0.536003D-02  0.526871D-02
      7  0.521736D-02 -0.494666D-03  0.194790D-01  0.597899D-02  0.537477D-02
      8  0.910660D-03  0.967434D-04  0.184746D-01  0.532924D-02  0.536923D-02
      9  0.335831D-01  0.455066D-01  0.647021D-03  0.118874D-01 -0.220771D-01
     10  0.448361D-02  0.567047D-02  0.128041D-01 -0.223866D-01 -0.202363D-01
     11  0.196570D-02  0.124226D-01 -0.136638D-01  0.121552D-01 -0.340539D-02
     12 -0.486072D-02  0.104569D-01 -0.137180D-01 -0.344982D-02  0.484211D-02
     13 -0.192655D-02 -0.136503D-01  0.114255D-01  0.182706D-01 -0.134791D-01
     14  0.980301D-04 -0.136209D-01  0.105119D-01 -0.129849D-01  0.217702D-01
     15  0.225195D-03 -0.182427D-02 -0.705744D-02  0.917905D-02  0.103355D-01
     16  0.700700D-02 -0.152065D-02  0.198332D-01 -0.419614D-02 -0.452083D-02
     17 -0.828423D-03 -0.705062D-04  0.154680D-01  0.175735D-01 -0.268095D-02
     18  0.214746D-02  0.592016D-03  0.147317D-01 -0.350392D-02  0.160743D-01
     19 -0.302694D-02  0.779266D-03 -0.172108D-01 -0.381539D-02 -0.180208D-02
     20 -0.342680D-02  0.347297D-03 -0.171166D-01 -0.180966D-02 -0.322414D-02
     21 -0.199921D-02 -0.111043D-03 -0.163909D-01 -0.434597D-02 -0.395037D-02
     22  0.148834D-03 -0.294727D-03  0.590461D-03 -0.168856D-01  0.157471D-01
     23  0.167633D-02 -0.597555D-02  0.138280D-01 -0.517237D-03 -0.148728D-01
     24  0.219429D-03  0.620986D-02 -0.121533D-01  0.165237D-01 -0.129124D-02
     25  0.298352D-02  0.847099D-03 -0.192899D-03  0.936717D-02 -0.721063D-02
     26  0.309584D-02  0.816550D-03  0.644892D-03  0.130767D-01 -0.139321D-01
     27  0.144968D-02  0.100161D-02 -0.828652D-03  0.164640D-01 -0.105323D-01
     28 -0.928024D-03 -0.937791D-02  0.183158D-02 -0.324473D-02  0.173370D-01
     29 -0.815709D-03 -0.940846D-02  0.266938D-02  0.464756D-03  0.106155D-01
     30 -0.246187D-02 -0.922339D-02  0.119583D-02  0.385212D-02  0.140154D-01
     31 -0.144745D-03  0.858590D-02 -0.234774D-02 -0.173193D-01  0.482566D-04
     32 -0.324305D-04  0.855535D-02 -0.150995D-02 -0.136098D-01 -0.667321D-02
     33 -0.167859D-02  0.874041D-02 -0.298349D-02 -0.102225D-01 -0.327338D-02
                6             7             8             9            10 
      6  0.456566D+00
      7  0.558329D-01  0.451964D+00
      8  0.561444D-01  0.562187D-01  0.452722D+00
      9  0.187439D-02  0.137535D-03  0.821650D-03  0.198458D+00
     10  0.104924D-01 -0.275338D-02 -0.368120D-02  0.397677D-02  0.126116D+00
     11  0.782286D-03 -0.469670D-02  0.526973D-03  0.125304D-01 -0.389958D-01
     12  0.267671D-03 -0.411026D-03 -0.495996D-02 -0.124790D-01 -0.397782D-01
     13 -0.583757D-02  0.135257D-01 -0.360759D-02 -0.842596D-02 -0.366014D-01
     14 -0.598806D-02 -0.300140D-02  0.138142D-01  0.392948D-02 -0.392537D-01
     15  0.696111D-04 -0.231095D-02 -0.214450D-02  0.372572D-03  0.277346D-01
     16  0.146051D-01 -0.301864D-01 -0.304057D-01  0.289386D-02  0.150651D-01
     17 -0.290472D-01  0.202271D-01 -0.291912D-01  0.310151D-02 -0.473804D-02
     18 -0.288900D-01 -0.291798D-01  0.191960D-01 -0.307546D-02 -0.432182D-02
     19  0.205520D-01  0.179050D-01  0.291989D-02 -0.205749D-02 -0.387568D-02
     20  0.205401D-01  0.277507D-02  0.184878D-01 -0.429118D-03 -0.397510D-02
     21  0.265239D-02  0.191375D-01  0.195809D-01 -0.476518D-03  0.172947D-02
     22 -0.350638D-04 -0.671965D-02  0.651655D-02 -0.612648D-03  0.782564D-03
     23 -0.417489D-03  0.527526D-02  0.236858D-03 -0.861548D-03  0.756365D-02
     24  0.336864D-03 -0.857038D-03 -0.513744D-02 -0.434302D-04 -0.775784D-02
     25  0.311793D-03 -0.155545D-01  0.156204D-01  0.680653D-02  0.608092D-03
     26  0.165271D-01  0.415912D-03 -0.180413D-01  0.801841D-02  0.224012D-02
     27 -0.160403D-01  0.184749D-01 -0.218582D-03  0.745735D-02 -0.123690D-02
     28 -0.336306D-02 -0.164434D-01  0.193923D-01 -0.573235D-02 -0.496663D-02
     29  0.128522D-01 -0.473020D-03 -0.142694D-01 -0.452047D-02 -0.333461D-02
     30 -0.197151D-01  0.175860D-01  0.355334D-02 -0.508153D-02 -0.681163D-02
     31  0.338996D-02 -0.197231D-01  0.160532D-01 -0.359718D-02  0.547858D-02
     32  0.196053D-01 -0.375264D-02 -0.176085D-01 -0.238530D-02  0.711061D-02
     33 -0.129621D-01  0.143064D-01  0.214239D-03 -0.294635D-02  0.363359D-02
               11            12            13            14            15 
     11  0.661915D-01
     12  0.333640D-02  0.674792D-01
     13 -0.431127D-01  0.163842D-01  0.109139D+00
     14  0.172317D-01 -0.441937D-01 -0.456209D-02  0.110237D+00
     15 -0.573394D-02 -0.341739D-02 -0.388517D-01 -0.394301D-01  0.593915D-01
     16  0.122077D-03 -0.100268D-02 -0.101388D-01 -0.905968D-02  0.474186D-02
     17 -0.772450D-02  0.241072D-02  0.202578D-01 -0.435519D-02 -0.538301D-02
     18  0.236015D-02 -0.865032D-02 -0.449904D-02  0.201126D-01 -0.507313D-02
     19  0.306595D-02  0.540056D-03 -0.387576D-02  0.294298D-02  0.112716D-02
     20  0.915873D-04  0.410079D-02  0.326059D-02 -0.452898D-02  0.112812D-02
     21  0.214774D-02  0.269651D-02 -0.504191D-02 -0.517498D-02  0.351667D-02
     22  0.123561D-01 -0.131501D-01 -0.356754D-01  0.345967D-01  0.276680D-03
     23 -0.230820D-01 -0.148619D-01  0.493333D-01  0.161255D-01 -0.340954D-01
     24  0.144518D-01  0.246983D-01 -0.163345D-01 -0.488336D-01  0.335661D-01
     25  0.142290D-01 -0.141312D-01 -0.311734D-02  0.302014D-02 -0.536712D-03
     26  0.132384D-01 -0.125768D-01 -0.149989D-02 -0.172774D-02  0.429175D-03
     27  0.125473D-01 -0.131050D-01  0.208163D-02  0.162054D-02 -0.171410D-02
     28 -0.168794D-01 -0.438250D-02  0.470882D-02  0.829621D-02  0.136196D-01
     29 -0.178701D-01 -0.282816D-02  0.632627D-02  0.354833D-02  0.145855D-01
     30 -0.185611D-01 -0.335631D-02  0.990779D-02  0.689661D-02  0.124422D-01
     31  0.491497D-02  0.158878D-01 -0.880227D-02 -0.544002D-02 -0.126719D-01
     32  0.392433D-02  0.174422D-01 -0.718482D-02 -0.101879D-01 -0.117060D-01
     33  0.323324D-02  0.169140D-01 -0.360330D-02 -0.683962D-02 -0.138493D-01
               16            17            18            19            20 
     16  0.186658D+00
     17  0.361389D-03  0.192906D+00
     18  0.764437D-03  0.200254D-02  0.190904D+00
     19 -0.896090D-01 -0.934310D-01 -0.115463D-01  0.122876D+00
     20 -0.909192D-01 -0.114724D-01 -0.929514D-01  0.369905D-01  0.123725D+00
     21 -0.100381D-01 -0.928679D-01 -0.916547D-01  0.373884D-01  0.371588D-01
     22  0.194061D-03 -0.702091D-02  0.714077D-02  0.184489D-02 -0.215401D-02
     23 -0.311215D-02  0.101553D-01  0.511322D-03 -0.332574D-02 -0.491394D-03
     24  0.221253D-02  0.175653D-04 -0.958365D-02  0.373314D-03  0.349340D-02
     25  0.302727D-04 -0.542355D-02  0.570705D-02 -0.185829D-01  0.183199D-01
     26  0.603027D-02  0.642036D-03 -0.679970D-02  0.184948D-01  0.977174D-04
     27 -0.561418D-02  0.727341D-02 -0.445925D-03 -0.574059D-03 -0.186828D-01
     28 -0.294720D-02 -0.554323D-02  0.816872D-02 -0.176327D-01  0.185960D-01
     29  0.305280D-02  0.522361D-03 -0.433803D-02  0.194450D-01  0.373781D-03
     30 -0.859165D-02  0.715374D-02  0.201575D-02  0.376086D-03 -0.184067D-01
     31  0.243804D-02 -0.822110D-02  0.522282D-02 -0.184599D-01  0.179800D-01
     32  0.843804D-02 -0.215551D-02 -0.728393D-02  0.186178D-01 -0.242200D-03
     33 -0.320641D-02  0.447587D-02 -0.930150D-03 -0.451108D-03 -0.190227D-01
               21            22            23            24            25 
     21  0.122686D+00
     22 -0.120676D-04  0.240527D-01
     23 -0.382075D-02 -0.114737D-01  0.391501D-01
     24  0.357400D-02 -0.113003D-01 -0.270354D-01  0.390155D-01
     25 -0.115989D-03 -0.304163D-02  0.221696D-02  0.198330D-02  0.280846D-01
     26 -0.185429D-01 -0.505177D-02  0.255001D-02  0.383311D-02  0.178184D-02
     27  0.181695D-01 -0.501228D-02  0.446271D-02  0.232458D-02  0.179900D-02
     28 -0.691375D-03  0.322784D-02 -0.431126D-02 -0.102532D-02  0.122407D-01
     29 -0.191183D-01  0.121771D-02 -0.397821D-02  0.824490D-03 -0.140621D-01
     30  0.175941D-01  0.125719D-02 -0.206551D-02 -0.684049D-03 -0.140449D-01
     31  0.978896D-03  0.342993D-02 -0.103828D-02 -0.374626D-02  0.129358D-01
     32 -0.174480D-01  0.141979D-02 -0.705229D-03 -0.189645D-02 -0.133670D-01
     33  0.192644D-01  0.145928D-02  0.120747D-02 -0.340499D-02 -0.133499D-01
               26            27            28            29            30 
     26  0.287509D-01
     27  0.215821D-02  0.287273D-01
     28 -0.148204D-01 -0.140659D-01  0.329629D-01
     29  0.121487D-01 -0.137067D-01  0.590188D-02  0.321127D-01
     30 -0.144440D-01  0.128624D-01  0.665637D-02  0.625733D-02  0.335637D-01
     31 -0.134711D-01 -0.141406D-01  0.903237D-02 -0.173745D-01 -0.180440D-01
     32  0.134979D-01 -0.137814D-01 -0.180287D-01  0.883627D-02 -0.184431D-01
     33 -0.130947D-01  0.127877D-01 -0.172742D-01 -0.170191D-01  0.886333D-02
               31            32            33 
     31  0.325278D-01
     32  0.612090D-02  0.329859D-01
     33  0.545139D-02  0.570652D-02  0.315889D-01
 Leave Link  716 at Sat May 24 00:35:05 2025, MaxMem=  3758096384 cpu:               0.1 elap:               0.0
 (Enter /apps/easybuild-2022/easybuild/software/Compiler/NVHPC/22.11-CUDA-11.7.0/Gaussian/g16c01-CUDA-11.7.0/g16/l103.exe)

 GradGradGradGradGradGradGradGradGradGradGradGradGradGradGradGradGradGrad
 Berny optimization.
 Red2BG is reusing G-inverse.
 Internal  Forces:  Max     0.000000631 RMS     0.000000240
 Search for a local minimum.
 Step number   1 out of a maximum of   43
 All quantities printed in internal units (Hartrees-Bohrs-Radians)
 RMS Force = .23982D-06 SwitMx=.10000D-02 MixMth= 2
 Mixed Optimization -- En-DIIS/RFO-DIIS
 Second derivative matrix not updated -- analytic derivatives used.
 ITU=  0
     Eigenvalues ---    0.00034   0.00319   0.06737   0.09185   0.10381
     Eigenvalues ---    0.10475   0.13389   0.15919   0.17319   0.19709
     Eigenvalues ---    0.22936   0.23812   0.25389   0.26613   0.39309
     Eigenvalues ---    0.39947   0.42049   0.42429   0.50604   0.58638
     Eigenvalues ---    1.08816
 RFO step:  Lambda= 0.00000000D+00 EMin= 3.35901957D-04
 Linear search not attempted -- first point.
 Iteration  1 RMS(Cart)=  0.00005099 RMS(Int)=  0.00000000
 Iteration  2 RMS(Cart)=  0.00000000 RMS(Int)=  0.00000000
 ITry= 1 IFail=0 DXMaxC= 2.01D-04 DCOld= 1.00D+10 DXMaxT= 3.00D-01 DXLimC= 3.00D+00 Rises=F
 Variable       Old X    -DE/DX   Delta X   Delta X   Delta X     New X
                                 (Linear)    (Quad)   (Total)
    R1        2.19537  -0.00000   0.00000  -0.00000  -0.00000   2.19536
    R2        2.95754   0.00000   0.00000   0.00000   0.00000   2.95754
    R3        2.91216  -0.00000   0.00000  -0.00000  -0.00000   2.91216
    R4        2.52213   0.00000   0.00000  -0.00000  -0.00000   2.52213
    R5        2.52384  -0.00000   0.00000   0.00000   0.00000   2.52384
    R6        2.49891  -0.00000   0.00000   0.00000   0.00000   2.49891
    R7        2.50651  -0.00000   0.00000  -0.00000  -0.00000   2.50651
    R8        2.50484   0.00000   0.00000   0.00000   0.00000   2.50484
    A1        2.16624  -0.00000   0.00000  -0.00001  -0.00001   2.16624
    A2        1.92120   0.00000   0.00000   0.00000   0.00000   1.92120
    A3        1.89934   0.00000   0.00000   0.00001   0.00001   1.89935
    A4        1.93914  -0.00000   0.00000  -0.00001  -0.00001   1.93913
    A5        1.90236  -0.00000   0.00000  -0.00000  -0.00000   1.90236
    A6        1.89856   0.00000   0.00000   0.00000   0.00000   1.89856
    A7        1.90284   0.00000   0.00000   0.00000   0.00000   1.90284
    A8        1.92033  -0.00000   0.00000  -0.00000  -0.00000   1.92033
    A9        1.91326  -0.00000   0.00000   0.00000   0.00000   1.91327
   A10        1.91753  -0.00000   0.00000  -0.00000  -0.00000   1.91753
   A11        1.90542   0.00000   0.00000   0.00000   0.00000   1.90542
   A12        1.90499   0.00000   0.00000  -0.00000  -0.00000   1.90499
   A13        1.90212   0.00000   0.00000   0.00000   0.00000   1.90212
    D1        1.75403  -0.00000   0.00000  -0.00019  -0.00019   1.75385
    D2       -2.44539   0.00000   0.00000  -0.00018  -0.00018  -2.44558
    D3       -0.35015  -0.00000   0.00000  -0.00018  -0.00018  -0.35034
    D4       -3.14054   0.00000   0.00000  -0.00004  -0.00004  -3.14058
    D5       -1.04493   0.00000   0.00000  -0.00004  -0.00004  -1.04497
    D6        1.04487   0.00000   0.00000  -0.00004  -0.00004   1.04484
    D7        1.06072  -0.00000   0.00000  -0.00005  -0.00005   1.06068
    D8       -3.12685  -0.00000   0.00000  -0.00005  -0.00005  -3.12690
    D9       -1.03705  -0.00000   0.00000  -0.00005  -0.00005  -1.03709
   D10       -1.01209  -0.00000   0.00000  -0.00005  -0.00005  -1.01214
   D11        1.08352  -0.00000   0.00000  -0.00005  -0.00005   1.08347
   D12       -3.10986  -0.00000   0.00000  -0.00005  -0.00005  -3.10991
         Item               Value     Threshold  Converged?
 Maximum Force            0.000001     0.000450     YES
 RMS     Force            0.000000     0.000300     YES
 Maximum Displacement     0.000201     0.001800     YES
 RMS     Displacement     0.000051     0.001200     YES
 Predicted change in Energy=-2.590576D-11
 Optimization completed.
    -- Stationary point found.
                           ----------------------------
                           !   Optimized Parameters   !
                           ! (Angstroms and Degrees)  !
 --------------------------                            --------------------------
 ! Name  Definition              Value          Derivative Info.                !
 --------------------------------------------------------------------------------
 ! R1    R(1,2)                  1.1617         -DE/DX =    0.0                 !
 ! R2    R(1,3)                  1.5651         -DE/DX =    0.0                 !
 ! R3    R(3,4)                  1.5411         -DE/DX =    0.0                 !
 ! R4    R(3,8)                  1.3347         -DE/DX =    0.0                 !
 ! R5    R(3,9)                  1.3356         -DE/DX =    0.0                 !
 ! R6    R(4,5)                  1.3224         -DE/DX =    0.0                 !
 ! R7    R(4,6)                  1.3264         -DE/DX =    0.0                 !
 ! R8    R(4,7)                  1.3255         -DE/DX =    0.0                 !
 ! A1    A(2,1,3)              124.1165         -DE/DX =    0.0                 !
 ! A2    A(1,3,4)              110.0765         -DE/DX =    0.0                 !
 ! A3    A(1,3,8)              108.8244         -DE/DX =    0.0                 !
 ! A4    A(1,3,9)              111.1044         -DE/DX =    0.0                 !
 ! A5    A(4,3,8)              108.9971         -DE/DX =    0.0                 !
 ! A6    A(4,3,9)              108.7795         -DE/DX =    0.0                 !
 ! A7    A(8,3,9)              109.0247         -DE/DX =    0.0                 !
 ! A8    A(3,4,5)              110.0269         -DE/DX =    0.0                 !
 ! A9    A(3,4,6)              109.6218         -DE/DX =    0.0                 !
 ! A10   A(3,4,7)              109.8663         -DE/DX =    0.0                 !
 ! A11   A(5,4,6)              109.1726         -DE/DX =    0.0                 !
 ! A12   A(5,4,7)              109.1481         -DE/DX =    0.0                 !
 ! A13   A(6,4,7)              108.9834         -DE/DX =    0.0                 !
 ! D1    D(2,1,3,4)            100.4987         -DE/DX =    0.0                 !
 ! D2    D(2,1,3,8)           -140.1107         -DE/DX =    0.0                 !
 ! D3    D(2,1,3,9)            -20.0624         -DE/DX =    0.0                 !
 ! D4    D(1,3,4,5)           -179.9397         -DE/DX =    0.0                 !
 ! D5    D(1,3,4,6)            -59.8702         -DE/DX =    0.0                 !
 ! D6    D(1,3,4,7)             59.8669         -DE/DX =    0.0                 !
 ! D7    D(8,3,4,5)             60.7751         -DE/DX =    0.0                 !
 ! D8    D(8,3,4,6)           -179.1554         -DE/DX =    0.0                 !
 ! D9    D(8,3,4,7)            -59.4183         -DE/DX =    0.0                 !
 ! D10   D(9,3,4,5)            -57.9887         -DE/DX =    0.0                 !
 ! D11   D(9,3,4,6)             62.0809         -DE/DX =    0.0                 !
 ! D12   D(9,3,4,7)           -178.1821         -DE/DX =    0.0                 !
 --------------------------------------------------------------------------------
 Lowest energy point so far.  Saving SCF results.
 Largest change from initial coordinates is atom    0       0.000 Angstoms.
 GradGradGradGradGradGradGradGradGradGradGradGradGradGradGradGradGradGrad

 Leave Link  103 at Sat May 24 00:35:05 2025, MaxMem=  3758096384 cpu:               0.1 elap:               0.0
 (Enter /apps/easybuild-2022/easybuild/software/Compiler/NVHPC/22.11-CUDA-11.7.0/Gaussian/g16c01-CUDA-11.7.0/g16/l202.exe)
                          Input orientation:                          
 ---------------------------------------------------------------------
 Center     Atomic      Atomic             Coordinates (Angstroms)
 Number     Number       Type             X           Y           Z
 ---------------------------------------------------------------------
      1          6           0        1.528480    0.034707   -0.014328
      2          8           0        2.218049   -0.893722    0.095888
      3          6           0       -0.035295   -0.028700   -0.017241
      4          6           0       -0.583589    0.372747    1.365890
      5          9           0       -1.904801    0.317589    1.362716
      6          9           0       -0.115181   -0.456951    2.288661
      7          9           0       -0.200660    1.606852    1.661367
      8          9           0       -0.499186    0.824431   -0.932812
      9          9           0       -0.466175   -1.258436   -0.310164
 ---------------------------------------------------------------------
                    Distance matrix (angstroms):
                    1          2          3          4          5
     1  C    0.000000
     2  O    1.161737   0.000000
     3  C    1.565063   2.416324   0.000000
     4  C    2.545606   3.326563   1.541051   0.000000
     5  F    3.709945   4.479958   2.349308   1.322367   0.000000
     6  F    2.871778   3.231561   2.346692   1.326390   2.158709
     7  F    2.875677   3.814937   2.349489   1.325502   2.157658
     8  F    2.361929   3.375447   1.334653   2.344179   2.738995
     9  F    2.395493   2.739152   1.335557   2.341730   2.711462
                    6          7          8          9
     6  F    0.000000
     7  F    2.158724   0.000000
     8  F    3.488164   2.725998   0.000000
     9  F    2.742165   3.488167   2.174193   0.000000
 Symmetry turned off by external request.
 Stoichiometry    C3F5O
 Rotational constants (GHZ):           2.3018010           1.5022571           1.3374143
 Leave Link  202 at Sat May 24 00:35:05 2025, MaxMem=  3758096384 cpu:               0.1 elap:               0.0
 (Enter /apps/easybuild-2022/easybuild/software/Compiler/NVHPC/22.11-CUDA-11.7.0/Gaussian/g16c01-CUDA-11.7.0/g16/l9999.exe)
 Unable to Open any file for archive entry.
 1\1\GINC-SPARTAN-BM160\FOpt\UM062X\def2TZVPP\C3F5O1\AKHALILOV\24-May-2
 025\0\\#P M062X/Def2TZVPP Symm(None) scf(xqc) pop(None) freq opt(CalcF
 C)\\Gaussian input prepared by ASE\\0,2\C,1.52848,0.034707,-0.014328\O
 ,2.218049,-0.893722,0.095888\C,-0.035295,-0.0287,-0.017241\C,-0.583589
 ,0.372747,1.36589\F,-1.904801,0.317589,1.362716\F,-0.115181,-0.456951,
 2.288661\F,-0.20066,1.606852,1.661367\F,-0.499186,0.824431,-0.932812\F
 ,-0.466175,-1.258436,-0.310164\\Version=ES64L-G16RevC.01\HF=-688.74972
 86\S2=0.753857\S2-1=0.\S2A=0.75001\RMSD=4.811e-09\RMSF=2.120e-06\Dipol
 e=-0.058742,0.1449298,-0.022234\Polar=0.,0.,0.,0.,0.,0.\PG=Unknown\\@
 The archive entry for this job was punched.


 ON A TOMBSTONE, "HERE LIES LESTER MOORE,
 FOUR SLUGS FROM A 44, NO LES, NO MORE".
 Leave Link 9999 at Sat May 24 00:35:05 2025, MaxMem=  3758096384 cpu:               0.1 elap:               0.0
 Job cpu time:       0 days  0 hours 27 minutes 42.9 seconds.
 Elapsed time:       0 days  0 hours  4 minutes 15.4 seconds.
 File lengths (MBytes):  RWF=    136 Int=      0 D2E=      0 Chk=      8 Scr=      1
 Normal termination of Gaussian 16 at Sat May 24 00:35:05 2025.
 (Enter /apps/easybuild-2022/easybuild/software/Compiler/NVHPC/22.11-CUDA-11.7.0/Gaussian/g16c01-CUDA-11.7.0/g16/l1.exe)
 Link1:  Proceeding to internal job step number  2.
 ---------------------------------------------------------------------
 #P Geom=AllCheck Guess=TCheck SCRF=Check GenChk UM062X/def2TZVPP Freq
 ---------------------------------------------------------------------
 1/10=4,29=7,30=1,38=1,40=1/1,3;
 2/12=2,15=3,40=1/2;
 3/5=44,7=202,11=2,14=-4,25=1,30=1,70=2,71=2,74=-55,116=2,140=1/1,2,3;
 4/5=101/1;
 5/5=2,8=3,13=1,38=6,98=1/2,8;
 8/6=4,10=90,11=11/1;
 11/6=1,8=1,9=11,15=111,16=1,31=1/1,2,10;
 10/6=1,31=1/2;
 7/8=1,10=1,25=1,30=1/1,2,3,16;
 1/10=4,30=1/3;
 99//99;
 Leave Link    1 at Sat May 24 00:35:05 2025, MaxMem=  3758096384 cpu:               0.0 elap:               0.0
 (Enter /apps/easybuild-2022/easybuild/software/Compiler/NVHPC/22.11-CUDA-11.7.0/Gaussian/g16c01-CUDA-11.7.0/g16/l101.exe)
 Structure from the checkpoint file:  "/tmp/Gau-150134.chk"
 ------------------------------
 Gaussian input prepared by ASE
 ------------------------------
 Charge =  0 Multiplicity = 2
 Redundant internal coordinates found in file.  (old form).
 C,0,1.52848,0.034707,-0.014328
 O,0,2.218049,-0.893722,0.095888
 C,0,-0.035295,-0.0287,-0.017241
 C,0,-0.583589,0.372747,1.36589
 F,0,-1.904801,0.317589,1.362716
 F,0,-0.115181,-0.456951,2.288661
 F,0,-0.20066,1.606852,1.661367
 F,0,-0.499186,0.824431,-0.932812
 F,0,-0.466175,-1.258436,-0.310164
 Recover connectivity data from disk.
 ITRead=  0  0  0  0  0  0  0  0  0
 MicOpt= -1 -1 -1 -1 -1 -1 -1 -1 -1
 NAtoms=      9 NQM=        9 NQMF=       0 NMMI=      0 NMMIF=      0
                NMic=       0 NMicF=      0.
                    Isotopes and Nuclear Properties:
 (Nuclear quadrupole moments (NQMom) in fm**2, nuclear magnetic moments (NMagM)
  in nuclear magnetons)

  Atom         1           2           3           4           5           6           7           8           9
 IAtWgt=          12          16          12          12          19          19          19          19          19
 AtmWgt=  12.0000000  15.9949146  12.0000000  12.0000000  18.9984032  18.9984032  18.9984032  18.9984032  18.9984032
 NucSpn=           0           0           0           0           1           1           1           1           1
 AtZEff=   3.6000000   5.6000000   3.6000000   3.6000000   6.7500000   6.7500000   6.7500000   6.7500000   6.7500000
 NQMom=    0.0000000   0.0000000   0.0000000   0.0000000   0.0000000   0.0000000   0.0000000   0.0000000   0.0000000
 NMagM=    0.0000000   0.0000000   0.0000000   0.0000000   2.6288670   2.6288670   2.6288670   2.6288670   2.6288670
 AtZNuc=   6.0000000   8.0000000   6.0000000   6.0000000   9.0000000   9.0000000   9.0000000   9.0000000   9.0000000
 Leave Link  101 at Sat May 24 00:35:05 2025, MaxMem=  3758096384 cpu:               0.3 elap:               0.2
 (Enter /apps/easybuild-2022/easybuild/software/Compiler/NVHPC/22.11-CUDA-11.7.0/Gaussian/g16c01-CUDA-11.7.0/g16/l103.exe)

 GradGradGradGradGradGradGradGradGradGradGradGradGradGradGradGradGradGrad
 Berny optimization.
 Initialization pass.
                           ----------------------------
                           !    Initial Parameters    !
                           ! (Angstroms and Degrees)  !
 --------------------------                            --------------------------
 ! Name  Definition              Value          Derivative Info.                !
 --------------------------------------------------------------------------------
 ! R1    R(1,2)                  1.1617         calculate D2E/DX2 analytically  !
 ! R2    R(1,3)                  1.5651         calculate D2E/DX2 analytically  !
 ! R3    R(3,4)                  1.5411         calculate D2E/DX2 analytically  !
 ! R4    R(3,8)                  1.3347         calculate D2E/DX2 analytically  !
 ! R5    R(3,9)                  1.3356         calculate D2E/DX2 analytically  !
 ! R6    R(4,5)                  1.3224         calculate D2E/DX2 analytically  !
 ! R7    R(4,6)                  1.3264         calculate D2E/DX2 analytically  !
 ! R8    R(4,7)                  1.3255         calculate D2E/DX2 analytically  !
 ! A1    A(2,1,3)              124.1165         calculate D2E/DX2 analytically  !
 ! A2    A(1,3,4)              110.0765         calculate D2E/DX2 analytically  !
 ! A3    A(1,3,8)              108.8244         calculate D2E/DX2 analytically  !
 ! A4    A(1,3,9)              111.1044         calculate D2E/DX2 analytically  !
 ! A5    A(4,3,8)              108.9971         calculate D2E/DX2 analytically  !
 ! A6    A(4,3,9)              108.7795         calculate D2E/DX2 analytically  !
 ! A7    A(8,3,9)              109.0247         calculate D2E/DX2 analytically  !
 ! A8    A(3,4,5)              110.0269         calculate D2E/DX2 analytically  !
 ! A9    A(3,4,6)              109.6218         calculate D2E/DX2 analytically  !
 ! A10   A(3,4,7)              109.8663         calculate D2E/DX2 analytically  !
 ! A11   A(5,4,6)              109.1726         calculate D2E/DX2 analytically  !
 ! A12   A(5,4,7)              109.1481         calculate D2E/DX2 analytically  !
 ! A13   A(6,4,7)              108.9834         calculate D2E/DX2 analytically  !
 ! D1    D(2,1,3,4)            100.4987         calculate D2E/DX2 analytically  !
 ! D2    D(2,1,3,8)           -140.1107         calculate D2E/DX2 analytically  !
 ! D3    D(2,1,3,9)            -20.0624         calculate D2E/DX2 analytically  !
 ! D4    D(1,3,4,5)           -179.9397         calculate D2E/DX2 analytically  !
 ! D5    D(1,3,4,6)            -59.8702         calculate D2E/DX2 analytically  !
 ! D6    D(1,3,4,7)             59.8669         calculate D2E/DX2 analytically  !
 ! D7    D(8,3,4,5)             60.7751         calculate D2E/DX2 analytically  !
 ! D8    D(8,3,4,6)           -179.1554         calculate D2E/DX2 analytically  !
 ! D9    D(8,3,4,7)            -59.4183         calculate D2E/DX2 analytically  !
 ! D10   D(9,3,4,5)            -57.9887         calculate D2E/DX2 analytically  !
 ! D11   D(9,3,4,6)             62.0809         calculate D2E/DX2 analytically  !
 ! D12   D(9,3,4,7)           -178.1821         calculate D2E/DX2 analytically  !
 --------------------------------------------------------------------------------
 Trust Radius=3.00D-01 FncErr=1.00D-07 GrdErr=1.00D-07 EigMax=2.50D+02 EigMin=1.00D-04
 Number of steps in this run=      2 maximum allowed number of steps=      2.
 GradGradGradGradGradGradGradGradGradGradGradGradGradGradGradGradGradGrad

 Leave Link  103 at Sat May 24 00:35:05 2025, MaxMem=  3758096384 cpu:               0.1 elap:               0.0
 (Enter /apps/easybuild-2022/easybuild/software/Compiler/NVHPC/22.11-CUDA-11.7.0/Gaussian/g16c01-CUDA-11.7.0/g16/l202.exe)
                          Input orientation:                          
 ---------------------------------------------------------------------
 Center     Atomic      Atomic             Coordinates (Angstroms)
 Number     Number       Type             X           Y           Z
 ---------------------------------------------------------------------
      1          6           0        1.528480    0.034707   -0.014328
      2          8           0        2.218049   -0.893722    0.095888
      3          6           0       -0.035295   -0.028700   -0.017241
      4          6           0       -0.583589    0.372747    1.365890
      5          9           0       -1.904801    0.317589    1.362716
      6          9           0       -0.115181   -0.456951    2.288661
      7          9           0       -0.200660    1.606852    1.661367
      8          9           0       -0.499186    0.824431   -0.932812
      9          9           0       -0.466175   -1.258436   -0.310164
 ---------------------------------------------------------------------
                    Distance matrix (angstroms):
                    1          2          3          4          5
     1  C    0.000000
     2  O    1.161737   0.000000
     3  C    1.565063   2.416324   0.000000
     4  C    2.545606   3.326563   1.541051   0.000000
     5  F    3.709945   4.479958   2.349308   1.322367   0.000000
     6  F    2.871778   3.231561   2.346692   1.326390   2.158709
     7  F    2.875677   3.814937   2.349489   1.325502   2.157658
     8  F    2.361929   3.375447   1.334653   2.344179   2.738995
     9  F    2.395493   2.739152   1.335557   2.341730   2.711462
                    6          7          8          9
     6  F    0.000000
     7  F    2.158724   0.000000
     8  F    3.488164   2.725998   0.000000
     9  F    2.742165   3.488167   2.174193   0.000000
 Symmetry turned off by external request.
 Stoichiometry    C3F5O
 Rotational constants (GHZ):           2.3018010           1.5022571           1.3374143
 Leave Link  202 at Sat May 24 00:35:05 2025, MaxMem=  3758096384 cpu:               0.1 elap:               0.0
 (Enter /apps/easybuild-2022/easybuild/software/Compiler/NVHPC/22.11-CUDA-11.7.0/Gaussian/g16c01-CUDA-11.7.0/g16/l301.exe)
 Standard basis: def2TZVPP (5D, 7F)
 Ernie: Thresh=  0.10000D-02 Tol=  0.10000D-05 Strict=F.
   279 basis functions,   459 primitive gaussians,   324 cartesian basis functions
    36 alpha electrons       35 beta electrons
       nuclear repulsion energy       514.2213792879 Hartrees.
 IExCor= 4336 DFT=T Ex+Corr=M062X ExCW=0 ScaHFX=  0.540000
 ScaDFX=  1.000000  1.000000  1.000000  1.000000 ScalE2=  1.000000  1.000000
 IRadAn=      5 IRanWt=     -1 IRanGd=            0 ICorTp=0 IEmpDi=  4
 NAtoms=    9 NActive=    9 NUniq=    9 SFac= 1.00D+00 NAtFMM=   60 NAOKFM=F Big=F
 Integral buffers will be    131072 words long.
 Raffenetti 2 integral format.
 Two-electron integral symmetry is turned off.
 Leave Link  301 at Sat May 24 00:35:05 2025, MaxMem=  3758096384 cpu:               0.1 elap:               0.0
 (Enter /apps/easybuild-2022/easybuild/software/Compiler/NVHPC/22.11-CUDA-11.7.0/Gaussian/g16c01-CUDA-11.7.0/g16/l302.exe)
 NPDir=0 NMtPBC=     1 NCelOv=     1 NCel=       1 NClECP=     1 NCelD=      1
         NCelK=      1 NCelE2=     1 NClLst=     1 CellRange=     0.0.
 One-electron integrals computed using PRISM.
   1 Symmetry operations used in ECPInt.
 ECPInt:  NShTT=    4950 NPrTT=   16488 LenC2=    4756 LenP2D=   12184.
 LDataN:  DoStor=T MaxTD1= 6 Len=  172
 NBasis=   279 RedAO= T EigKep=  5.12D-04  NBF=   279
 NBsUse=   279 1.00D-06 EigRej= -1.00D+00 NBFU=   279
 Precomputing XC quadrature grid using
 IXCGrd= 4 IRadAn=           5 IRanWt=          -1 IRanGd=           0 AccXCQ= 0.00D+00.
 Generated NRdTot=       0 NPtTot=           0 NUsed=           0 NTot=          32
 NSgBfM=   323   323   323   323   323 MxSgAt=     9 MxSgA2=     9.
 Leave Link  302 at Sat May 24 00:35:05 2025, MaxMem=  3758096384 cpu:               0.9 elap:               0.2
 (Enter /apps/easybuild-2022/easybuild/software/Compiler/NVHPC/22.11-CUDA-11.7.0/Gaussian/g16c01-CUDA-11.7.0/g16/l303.exe)
 DipDrv:  MaxL=1.
 Leave Link  303 at Sat May 24 00:35:05 2025, MaxMem=  3758096384 cpu:               0.1 elap:               0.0
 (Enter /apps/easybuild-2022/easybuild/software/Compiler/NVHPC/22.11-CUDA-11.7.0/Gaussian/g16c01-CUDA-11.7.0/g16/l401.exe)
 Initial guess from the checkpoint file:  "/tmp/Gau-150134.chk"
 B after Tr=     0.000000    0.000000    0.000000
         Rot=    1.000000    0.000000    0.000000    0.000000 Ang=   0.00 deg.
 Guess basis will be translated and rotated to current coordinates.
 JPrj=2 DoOrth=T DoCkMO=T.
 Initial guess <Sx>= 0.0000 <Sy>= 0.0000 <Sz>= 0.5000 <S**2>= 0.7539 S= 0.5019
 Leave Link  401 at Sat May 24 00:35:05 2025, MaxMem=  3758096384 cpu:               0.5 elap:               0.2
 (Enter /apps/easybuild-2022/easybuild/software/Compiler/NVHPC/22.11-CUDA-11.7.0/Gaussian/g16c01-CUDA-11.7.0/g16/l502.exe)
 Keep R1 and R2 ints in memory in canonical form, NReq=1542887460.
 FoFCou: FMM=F IPFlag=           0 FMFlag=           0 FMFlg1=           0
         NFxFlg=           0 DoJE=F BraDBF=F KetDBF=F FulRan=T
         wScrn=  0.000000 ICntrl=       600 IOpCl=  0 I1Cent=           0 NGrid=           0
         NMat0=    1 NMatS0=  39060 NMatT0=    0 NMatD0=    1 NMtDS0=    0 NMtDT0=    0
 Symmetry not used in FoFCou.
 Two-electron integral symmetry not used.
 UHF open shell SCF:
 Using DIIS extrapolation, IDIIS=  1040.
 NGot=  3758096384 LenX=  2232158908 LenY=  2232053491
 Requested convergence on RMS density matrix=1.00D-08 within  32 cycles.
 Requested convergence on MAX density matrix=1.00D-06.
 Requested convergence on             energy=1.00D-06.
 No special actions if energy rises.

 Cycle   1  Pass 1  IDiag  1:
 E= -688.749728550550    
 DIIS: error= 1.69D-08 at cycle   1 NSaved=   1.
 NSaved= 1 IEnMin= 1 EnMin= -688.749728550550     IErMin= 1 ErrMin= 1.69D-08
 ErrMax= 1.69D-08  0.00D+00 EMaxC= 1.00D-01 BMatC= 3.01D-13 BMatP= 3.01D-13
 IDIUse=1 WtCom= 1.00D+00 WtEn= 0.00D+00
 Coeff-Com:  0.100D+01
 Coeff:      0.100D+01
 Gap=     0.275 Goal=   None    Shift=    0.000
 Gap=     0.389 Goal=   None    Shift=    0.000
 RMSDP=2.40D-09 MaxDP=1.21D-07              OVMax= 7.44D-07

 SCF Done:  E(UM062X) =  -688.749728551     A.U. after    1 cycles
            NFock=  1  Conv=0.24D-08     -V/T= 2.0036
 <Sx>= 0.0000 <Sy>= 0.0000 <Sz>= 0.5000 <S**2>= 0.7539 S= 0.5019
 <L.S>=  0.00000000000    
 KE= 6.862909265885D+02 PE=-2.661267458804D+03 EE= 7.720054243768D+02
 Annihilation of the first spin contaminant:
 S**2 before annihilation     0.7539,   after     0.7500
 Leave Link  502 at Sat May 24 00:35:13 2025, MaxMem=  3758096384 cpu:              38.7 elap:               7.3
 (Enter /apps/easybuild-2022/easybuild/software/Compiler/NVHPC/22.11-CUDA-11.7.0/Gaussian/g16c01-CUDA-11.7.0/g16/l508.exe)
 QCSCF skips out because SCF is already converged.
 Leave Link  508 at Sat May 24 00:35:13 2025, MaxMem=  3758096384 cpu:               0.1 elap:               0.0
 (Enter /apps/easybuild-2022/easybuild/software/Compiler/NVHPC/22.11-CUDA-11.7.0/Gaussian/g16c01-CUDA-11.7.0/g16/l801.exe)
 DoSCS=F DFT=T ScalE2(SS,OS)=  1.000000  1.000000
 Range of M.O.s used for correlation:     1   279
 NBasis=   279 NAE=    36 NBE=    35 NFC=     0 NFV=     0
 NROrb=    279 NOA=    36 NOB=    35 NVA=   243 NVB=   244

 **** Warning!!: The largest alpha MO coefficient is  0.14541690D+02


 **** Warning!!: The largest beta MO coefficient is  0.14273455D+02

 Leave Link  801 at Sat May 24 00:35:13 2025, MaxMem=  3758096384 cpu:               0.1 elap:               0.0
 (Enter /apps/easybuild-2022/easybuild/software/Compiler/NVHPC/22.11-CUDA-11.7.0/Gaussian/g16c01-CUDA-11.7.0/g16/l1101.exe)
 Using compressed storage, NAtomX=     9.
 Will process     10 centers per pass.
   1 Symmetry operations used in ECPInt.
 ECPInt:  NShTT=    4950 NPrTT=   16488 LenC2=    4756 LenP2D=   12184.
 LDataN:  DoStor=T MaxTD1= 7 Len=  274
 Leave Link 1101 at Sat May 24 00:35:13 2025, MaxMem=  3758096384 cpu:               1.3 elap:               0.3
 (Enter /apps/easybuild-2022/easybuild/software/Compiler/NVHPC/22.11-CUDA-11.7.0/Gaussian/g16c01-CUDA-11.7.0/g16/l1102.exe)
 Symmetrizing basis deriv contribution to polar:
 IMax=3 JMax=2 DiffMx= 0.00D+00
 Leave Link 1102 at Sat May 24 00:35:13 2025, MaxMem=  3758096384 cpu:               0.1 elap:               0.0
[...]
     27 -0.561416D-02  0.727341D-02 -0.445928D-03 -0.574063D-03 -0.186828D-01
     28 -0.294721D-02 -0.554321D-02  0.816871D-02 -0.176327D-01  0.185960D-01
     29  0.305277D-02  0.522370D-03 -0.433802D-02  0.194450D-01  0.373788D-03
     30 -0.859164D-02  0.715373D-02  0.201575D-02  0.376087D-03 -0.184067D-01
     31  0.243805D-02 -0.822109D-02  0.522281D-02 -0.184599D-01  0.179800D-01
     32  0.843803D-02 -0.215552D-02 -0.728392D-02  0.186178D-01 -0.242199D-03
     33 -0.320638D-02  0.447584D-02 -0.930151D-03 -0.451111D-03 -0.190227D-01
               21            22            23            24            25 
     21  0.122686D+00
     22 -0.120635D-04  0.240527D-01
     23 -0.382075D-02 -0.114737D-01  0.391501D-01
     24  0.357400D-02 -0.113003D-01 -0.270354D-01  0.390155D-01
     25 -0.115992D-03 -0.304163D-02  0.221696D-02  0.198330D-02  0.280846D-01
     26 -0.185429D-01 -0.505177D-02  0.255001D-02  0.383311D-02  0.178182D-02
     27  0.181695D-01 -0.501229D-02  0.446271D-02  0.232457D-02  0.179899D-02
     28 -0.691377D-03  0.322785D-02 -0.431126D-02 -0.102532D-02  0.122407D-01
     29 -0.191183D-01  0.121771D-02 -0.397821D-02  0.824495D-03 -0.140621D-01
     30  0.175941D-01  0.125720D-02 -0.206551D-02 -0.684044D-03 -0.140449D-01
     31  0.978898D-03  0.342993D-02 -0.103828D-02 -0.374626D-02  0.129357D-01
     32 -0.174480D-01  0.141979D-02 -0.705227D-03 -0.189644D-02 -0.133670D-01
     33  0.192644D-01  0.145928D-02  0.120747D-02 -0.340498D-02 -0.133499D-01
               26            27            28            29            30 
     26  0.287509D-01
     27  0.215821D-02  0.287273D-01
     28 -0.148204D-01 -0.140659D-01  0.329629D-01
     29  0.121487D-01 -0.137067D-01  0.590188D-02  0.321127D-01
     30 -0.144440D-01  0.128624D-01  0.665637D-02  0.625733D-02  0.335637D-01
     31 -0.134711D-01 -0.141407D-01  0.903236D-02 -0.173745D-01 -0.180440D-01
     32  0.134979D-01 -0.137814D-01 -0.180287D-01  0.883626D-02 -0.184431D-01
     33 -0.130947D-01  0.127876D-01 -0.172742D-01 -0.170191D-01  0.886333D-02
               31            32            33 
     31  0.325278D-01
     32  0.612090D-02  0.329858D-01
     33  0.545138D-02  0.570652D-02  0.315889D-01
 Leave Link  716 at Sat May 24 00:38:28 2025, MaxMem=  3758096384 cpu:               0.1 elap:               0.0
 (Enter /apps/easybuild-2022/easybuild/software/Compiler/NVHPC/22.11-CUDA-11.7.0/Gaussian/g16c01-CUDA-11.7.0/g16/l103.exe)

 GradGradGradGradGradGradGradGradGradGradGradGradGradGradGradGradGradGrad
 Berny optimization.
 Red2BG is reusing G-inverse.
 Internal  Forces:  Max     0.000000650 RMS     0.000000238
 Search for a local minimum.
 Step number   1 out of a maximum of    2
 All quantities printed in internal units (Hartrees-Bohrs-Radians)
 Second derivative matrix not updated -- analytic derivatives used.
 ITU=  0
     Eigenvalues ---    0.00034   0.00319   0.06737   0.09185   0.10381
     Eigenvalues ---    0.10475   0.13389   0.15919   0.17319   0.19709
     Eigenvalues ---    0.22936   0.23812   0.25389   0.26613   0.39309
     Eigenvalues ---    0.39947   0.42049   0.42429   0.50604   0.58638
     Eigenvalues ---    1.08816
 Angle between quadratic step and forces=  84.73 degrees.
 Linear search not attempted -- first point.
 Iteration  1 RMS(Cart)=  0.00003110 RMS(Int)=  0.00000000
 Iteration  2 RMS(Cart)=  0.00000000 RMS(Int)=  0.00000000
 ITry= 1 IFail=0 DXMaxC= 1.18D-04 DCOld= 1.00D+10 DXMaxT= 3.00D-01 DXLimC= 3.00D+00 Rises=F
 Variable       Old X    -DE/DX   Delta X   Delta X   Delta X     New X
                                 (Linear)    (Quad)   (Total)
    R1        2.19537  -0.00000   0.00000  -0.00000  -0.00000   2.19536
    R2        2.95754   0.00000   0.00000   0.00000   0.00000   2.95754
    R3        2.91216  -0.00000   0.00000  -0.00000  -0.00000   2.91216
    R4        2.52213   0.00000   0.00000   0.00000   0.00000   2.52213
    R5        2.52384  -0.00000   0.00000  -0.00000  -0.00000   2.52384
    R6        2.49891  -0.00000   0.00000  -0.00000  -0.00000   2.49891
    R7        2.50651  -0.00000   0.00000  -0.00000  -0.00000   2.50651
    R8        2.50484   0.00000   0.00000   0.00000   0.00000   2.50484
    A1        2.16624  -0.00000   0.00000  -0.00000  -0.00000   2.16624
    A2        1.92120   0.00000   0.00000   0.00000   0.00000   1.92120
    A3        1.89934   0.00000   0.00000   0.00001   0.00001   1.89935
    A4        1.93914  -0.00000   0.00000  -0.00001  -0.00001   1.93913
    A5        1.90236  -0.00000   0.00000  -0.00000  -0.00000   1.90236
    A6        1.89856   0.00000   0.00000   0.00000   0.00000   1.89856
    A7        1.90284   0.00000   0.00000   0.00000   0.00000   1.90284
    A8        1.92033  -0.00000   0.00000  -0.00000  -0.00000   1.92033
    A9        1.91326  -0.00000   0.00000   0.00000   0.00000   1.91326
   A10        1.91753  -0.00000   0.00000  -0.00000  -0.00000   1.91753
   A11        1.90542   0.00000   0.00000   0.00000   0.00000   1.90542
   A12        1.90499   0.00000   0.00000  -0.00000  -0.00000   1.90499
   A13        1.90212   0.00000   0.00000   0.00000   0.00000   1.90212
    D1        1.75403  -0.00000   0.00000  -0.00011  -0.00011   1.75392
    D2       -2.44539   0.00000   0.00000  -0.00011  -0.00011  -2.44550
    D3       -0.35015  -0.00000   0.00000  -0.00011  -0.00011  -0.35026
    D4       -3.14054   0.00000   0.00000  -0.00003  -0.00003  -3.14057
    D5       -1.04493   0.00000   0.00000  -0.00002  -0.00002  -1.04496
    D6        1.04487   0.00000   0.00000  -0.00002  -0.00002   1.04485
    D7        1.06072  -0.00000   0.00000  -0.00003  -0.00003   1.06069
    D8       -3.12685  -0.00000   0.00000  -0.00003  -0.00003  -3.12688
    D9       -1.03705  -0.00000   0.00000  -0.00003  -0.00003  -1.03708
   D10       -1.01209  -0.00000   0.00000  -0.00003  -0.00003  -1.01213
   D11        1.08352  -0.00000   0.00000  -0.00003  -0.00003   1.08348
   D12       -3.10986  -0.00000   0.00000  -0.00003  -0.00003  -3.10990
         Item               Value     Threshold  Converged?
 Maximum Force            0.000001     0.000450     YES
 RMS     Force            0.000000     0.000300     YES
 Maximum Displacement     0.000118     0.001800     YES
 RMS     Displacement     0.000031     0.001200     YES
 Predicted change in Energy=-1.322867D-11
 Optimization completed.
    -- Stationary point found.
                           ----------------------------
                           !   Optimized Parameters   !
                           ! (Angstroms and Degrees)  !
 --------------------------                            --------------------------
 ! Name  Definition              Value          Derivative Info.                !
 --------------------------------------------------------------------------------
 ! R1    R(1,2)                  1.1617         -DE/DX =    0.0                 !
 ! R2    R(1,3)                  1.5651         -DE/DX =    0.0                 !
 ! R3    R(3,4)                  1.5411         -DE/DX =    0.0                 !
 ! R4    R(3,8)                  1.3347         -DE/DX =    0.0                 !
 ! R5    R(3,9)                  1.3356         -DE/DX =    0.0                 !
 ! R6    R(4,5)                  1.3224         -DE/DX =    0.0                 !
 ! R7    R(4,6)                  1.3264         -DE/DX =    0.0                 !
 ! R8    R(4,7)                  1.3255         -DE/DX =    0.0                 !
 ! A1    A(2,1,3)              124.1165         -DE/DX =    0.0                 !
 ! A2    A(1,3,4)              110.0765         -DE/DX =    0.0                 !
 ! A3    A(1,3,8)              108.8244         -DE/DX =    0.0                 !
 ! A4    A(1,3,9)              111.1044         -DE/DX =    0.0                 !
 ! A5    A(4,3,8)              108.9971         -DE/DX =    0.0                 !
 ! A6    A(4,3,9)              108.7795         -DE/DX =    0.0                 !
 ! A7    A(8,3,9)              109.0247         -DE/DX =    0.0                 !
 ! A8    A(3,4,5)              110.0269         -DE/DX =    0.0                 !
 ! A9    A(3,4,6)              109.6218         -DE/DX =    0.0                 !
 ! A10   A(3,4,7)              109.8663         -DE/DX =    0.0                 !
 ! A11   A(5,4,6)              109.1726         -DE/DX =    0.0                 !
 ! A12   A(5,4,7)              109.1481         -DE/DX =    0.0                 !
 ! A13   A(6,4,7)              108.9834         -DE/DX =    0.0                 !
 ! D1    D(2,1,3,4)            100.4987         -DE/DX =    0.0                 !
 ! D2    D(2,1,3,8)           -140.1107         -DE/DX =    0.0                 !
 ! D3    D(2,1,3,9)            -20.0624         -DE/DX =    0.0                 !
 ! D4    D(1,3,4,5)           -179.9397         -DE/DX =    0.0                 !
 ! D5    D(1,3,4,6)            -59.8702         -DE/DX =    0.0                 !
 ! D6    D(1,3,4,7)             59.8669         -DE/DX =    0.0                 !
 ! D7    D(8,3,4,5)             60.7751         -DE/DX =    0.0                 !
 ! D8    D(8,3,4,6)           -179.1554         -DE/DX =    0.0                 !
 ! D9    D(8,3,4,7)            -59.4183         -DE/DX =    0.0                 !
 ! D10   D(9,3,4,5)            -57.9887         -DE/DX =    0.0                 !
 ! D11   D(9,3,4,6)             62.0809         -DE/DX =    0.0                 !
 ! D12   D(9,3,4,7)           -178.1821         -DE/DX =    0.0                 !
 --------------------------------------------------------------------------------
 GradGradGradGradGradGradGradGradGradGradGradGradGradGradGradGradGradGrad

 Leave Link  103 at Sat May 24 00:38:28 2025, MaxMem=  3758096384 cpu:               0.1 elap:               0.0
 (Enter /apps/easybuild-2022/easybuild/software/Compiler/NVHPC/22.11-CUDA-11.7.0/Gaussian/g16c01-CUDA-11.7.0/g16/l9999.exe)

 ----------------------------------------------------------------------

 Electric dipole moment (input orientation):
 (Debye = 10**-18 statcoulomb cm , SI units = C m)
                  (au)            (Debye)         (10**-30 SI)
   Tot        0.157955D+00      0.401481D+00      0.133920D+01
   x         -0.587425D-01     -0.149309D+00     -0.498040D+00
   y          0.144930D+00      0.368375D+00      0.122877D+01
   z         -0.222341D-01     -0.565134D-01     -0.188508D+00

 Dipole polarizability, Alpha (input orientation).
 (esu units = cm**3 , SI units = C**2 m**2 J**-1)
 Alpha(0;0):
               (au)            (10**-24 esu)      (10**-40 SI)
   iso        0.394668D+02      0.584837D+01      0.650719D+01
   aniso      0.934447D+01      0.138471D+01      0.154070D+01
   xx         0.436083D+02      0.646209D+01      0.719004D+01
   yx        -0.322294D+01     -0.477591D+00     -0.531391D+00
   yy         0.397059D+02      0.588380D+01      0.654661D+01
   zx        -0.615665D+00     -0.912321D-01     -0.101509D+00
   zy        -0.374028D+00     -0.554253D-01     -0.616690D-01
   zz         0.350861D+02      0.519922D+01      0.578491D+01

 ----------------------------------------------------------------------

 Dipole orientation:
     6          2.56790655         -0.85633056         -1.01019444
     8          3.11075383         -0.97754394         -3.13392993
     6         -0.06271782          0.06405477         -0.02037218
     6         -1.71833731         -2.22298805          0.69311043
     9         -3.94131137         -1.44334573          1.52683678
     9         -2.05799167         -3.67695969         -1.32014949
     9         -0.59250301         -3.56279085          2.48521279
     9          0.29262329          1.49138709          2.02842854
     9         -1.26750559          1.42437088         -1.77187954

 Electric dipole moment (dipole orientation):
 (Debye = 10**-18 statcoulomb cm , SI units = C m)
                  (au)            (Debye)         (10**-30 SI)
   Tot        0.157955D+00      0.401481D+00      0.133920D+01
   x          0.000000D+00      0.000000D+00      0.000000D+00
   y          0.000000D+00      0.000000D+00      0.000000D+00
   z          0.157955D+00      0.401481D+00      0.133920D+01

 Dipole polarizability, Alpha (dipole orientation).
 (esu units = cm**3 , SI units = C**2 m**2 J**-1)
 Alpha(0;0):
               (au)            (10**-24 esu)      (10**-40 SI)
   iso        0.394668D+02      0.584837D+01      0.650719D+01
   aniso      0.934447D+01      0.138471D+01      0.154070D+01
   xx         0.408718D+02      0.605657D+01      0.673884D+01
   yx        -0.107765D+01     -0.159692D+00     -0.177681D+00
   yy         0.351428D+02      0.520762D+01      0.579426D+01
   zx        -0.362293D+01     -0.536863D+00     -0.597341D+00
   zy         0.473063D+00      0.701008D-01      0.779976D-01
   zz         0.423857D+02      0.628092D+01      0.698846D+01

 ----------------------------------------------------------------------
 Unable to Open any file for archive entry.
 1\1\GINC-SPARTAN-BM160\Freq\UM062X\def2TZVPP\C3F5O1\AKHALILOV\24-May-2
 025\0\\#P Geom=AllCheck Guess=TCheck SCRF=Check GenChk UM062X/def2TZVP
 P Freq\\Gaussian input prepared by ASE\\0,2\C,1.52848,0.034707,-0.0143
 28\O,2.218049,-0.893722,0.095888\C,-0.035295,-0.0287,-0.017241\C,-0.58
 3589,0.372747,1.36589\F,-1.904801,0.317589,1.362716\F,-0.115181,-0.456
 951,2.288661\F,-0.20066,1.606852,1.661367\F,-0.499186,0.824431,-0.9328
 12\F,-0.466175,-1.258436,-0.310164\\Version=ES64L-G16RevC.01\HF=-688.7
 497286\S2=0.753857\S2-1=0.\S2A=0.75001\RMSD=2.405e-09\RMSF=2.116e-06\Z
 eroPoint=0.0341955\Thermal=0.0423905\ETot=-688.707338\HTot=-688.706393
 9\GTot=-688.7507531\Dipole=-0.0587425,0.1449298,-0.0222341\DipoleDeriv
 =0.5810906,-0.2906364,-0.0679271,-0.3376368,0.3416283,-0.033264,0.0583
 73,-0.0288804,-0.0984233,-0.5843371,0.2308001,0.0097388,0.4895179,-0.4
 596324,0.0077469,-0.0574124,0.0283251,-0.0800196,0.8698553,0.0772781,0
 .189904,0.0009839,1.3177585,-0.0786035,0.3758056,-0.1158475,1.0464199,
 1.6246596,0.0020342,0.0746711,-0.0326146,1.5803432,-0.067345,-0.157148
 9,-0.029555,1.3915214,-0.9936141,-0.0012289,0.0300645,0.0119868,-0.272
 927,-0.0177138,0.1475683,-0.0254548,-0.3322824,-0.3563128,0.1229373,-0
 .0895322,0.1249066,-0.4925594,0.2205422,-0.1043888,0.2805784,-0.653099
 ,-0.3336823,-0.1114661,0.0063808,-0.1343529,-0.8051494,-0.1300389,0.00
 20091,-0.2106998,-0.3702391,-0.3565655,0.1428206,-0.1317811,0.141165,-
 0.4713192,0.206149,-0.1816154,0.2721728,-0.5764276,-0.4510936,-0.17253
 88,-0.0215188,-0.263956,-0.7381427,-0.1074728,-0.0831904,-0.1706389,-0
 .3274502\Polar=43.6083313,-3.2229423,39.7058699,-0.6156646,-0.3740284,
 35.0860759\PG=Unknown\NImag=0\\0.49884284,-0.44289832,0.78297696,0.056
 75636,-0.09167179,0.04656082,-0.37311488,0.46097068,-0.05460444,0.4228
 8759,0.46890121,-0.70179679,0.08261707,-0.49872019,0.69190169,-0.05548
 639,0.08326876,-0.01121623,0.05918055,-0.08081656,0.01025985,-0.065582
 66,-0.01295700,0.00800992,-0.04415148,0.02493476,-0.00386253,0.4334801
 3,-0.02522088,-0.05533314,0.00552389,0.03649429,-0.00282517,-0.0026055
 0,-0.00301419,0.56233158,0.00200827,0.01051697,-0.03556356,0.00154804,
 -0.00966491,0.00384849,0.04181835,-0.00384240,0.53106140,-0.01778559,0
 .00586104,0.01881741,-0.00082219,-0.00035714,-0.00009311,-0.08329646,0
 .02121292,0.07609568,0.60817785,0.00298048,0.00660769,-0.00353649,-0.0
 0185119,-0.00157087,0.00205101,0.00962998,-0.04763639,-0.03603294,-0.0
 0476563,0.59892079,0.01996394,-0.01032137,0.00491989,-0.01035006,0.012
 24427,-0.00337017,0.03160587,-0.03964224,-0.16270577,-0.01756296,0.007
 86846,0.62015579,0.00601724,-0.00095707,0.00345986,-0.00339970,0.00313
 205,-0.00042093,-0.05399366,-0.00297350,0.00031235,-0.32318205,-0.0005
 4184,0.03144004,0.45581404,-0.00053045,-0.00046611,-0.00031499,0.00053
 910,-0.00005406,-0.00011639,0.00906256,0.00271282,-0.00133764,-0.00264
 707,-0.07630691,-0.00188342,0.01646654,0.08218855,-0.00373268,0.001287
 68,-0.00307483,0.00297485,-0.00287912,0.00051149,0.03869862,0.00070176
 ,-0.00170803,0.02533674,-0.00208347,-0.08585100,0.00335475,-0.00227999
 ,0.07308044,-0.00067880,0.00113259,-0.00174997,0.00082953,-0.00168073,
 0.00151547,0.00657675,-0.00008540,-0.00064950,-0.09724862,0.04044202,-
 0.05072245,-0.05059874,0.03674630,-0.04726721,0.12499852,0.00162992,-0
 .00194214,0.00128193,-0.00123568,0.00214931,-0.00110947,0.00486659,-0.
 00736875,0.00625085,0.03998481,-0.15313033,0.10641385,0.02683623,0.002
 49547,0.01224262,-0.07887684,0.22568889,-0.00333727,0.00161265,-0.0015
 4600,0.00297064,-0.00296452,0.00072665,-0.01859250,0.03823436,-0.02624
 137,-0.04595343,0.09814771,-0.23032573,-0.03156910,0.01084636,0.000989
 13,0.09229541,-0.16481008,0.25709865,-0.00041503,0.00040078,0.00155680
 ,0.00025113,0.00025885,-0.00079823,0.00770661,0.00147531,-0.00214005,-
 0.08979008,-0.04993529,-0.01375763,-0.04375403,-0.05964239,-0.01728300
 ,0.01459251,0.00782860,0.00199420,0.11060653,-0.00047390,0.00034808,0.
 00080456,0.00056404,-0.00028722,-0.00071778,-0.01286458,-0.03416626,-0
 .00178716,-0.04646562,-0.28116081,-0.07945180,-0.04293524,-0.01608944,
 -0.00629514,0.00203236,-0.07538936,0.02176577,0.09808367,0.40463447,-0
 .00090064,0.00158451,-0.00106464,0.00107566,-0.00191356,0.00032482,-0.
 01107740,-0.03310036,-0.00012221,-0.01100660,-0.07060387,-0.11091080,-
 0.00978055,-0.00383907,0.01282742,0.00313386,0.03851018,0.01411128,0.0
 2674744,0.07689288,0.09305337,-0.02027576,0.03069104,-0.02871145,-0.00
 798637,-0.00083688,0.00198340,-0.10384786,0.05206202,-0.08403657,0.001
 87662,0.00194010,0.00537015,0.00679363,-0.00170268,-0.00087659,0.00094
 397,-0.00101546,0.00177062,0.00027848,-0.00037456,0.00005603,0.1090213
 0,0.01190025,-0.00353642,0.00590650,0.00243373,0.00032397,0.00110819,0
 .05382603,-0.15090850,0.11623565,0.00365241,-0.00952270,0.00666387,-0.
 00220047,0.00195243,-0.00053256,-0.00022917,0.00165496,0.00096209,-0.0
 0006248,0.00593537,-0.00012931,-0.07818977,0.22411271,-0.01202188,0.01
 093579,-0.00408869,-0.00355571,0.00073973,-0.00072896,-0.06512850,0.09
 879819,-0.21289991,-0.02665959,0.03818123,-0.02997927,0.00253498,-0.00
 243770,0.00244899,0.00239636,0.00109297,-0.01498844,0.00154093,-0.0033
 0198,0.00045730,0.09620039,-0.16456930,0.24686363,-0.02700736,-0.04224
 374,-0.00353449,0.00550637,0.00436807,-0.00201823,-0.09689137,-0.07995
 057,-0.03495658,0.00207053,0.00210136,0.00401309,0.00630326,0.00170809
 ,-0.00120549,0.00058488,-0.00001817,0.00042144,0.00052388,0.00243383,0
 .00175220,0.01319599,0.00886948,0.00469302,0.09571384,-0.01628830,-0.0
 2685813,-0.00061069,0.00080521,0.01215914,-0.00106226,-0.07348415,-0.2
 6680620,-0.08033843,-0.01647573,-0.03620045,-0.00189161,0.00317330,0.0
 0356725,-0.00016177,0.00051886,0.00584194,-0.00379435,0.00159295,-0.00
 382484,-0.00740139,-0.00257381,-0.07001182,0.02056107,0.10273166,0.382
 13310,-0.00324971,-0.00721320,0.00507325,0.00076047,0.00263761,-0.0003
 5594,-0.02147184,-0.06406770,-0.09566905,-0.01897413,-0.03399164,-0.00
 193293,0.00066860,0.00136285,0.00077638,0.00104803,0.00012714,0.000175
 83,0.00213954,-0.00790936,-0.00867654,0.00824401,0.03435487,0.01291535
 ,0.03083503,0.07469942,0.08769366\\0.00000053,0.00000095,0.00000316,0.
 00000081,-0.00000081,0.00000283,0.00000191,0.00000111,-0.00000090,-0.0
 0000122,-0.00000044,-0.00000055,-0.00000151,-0.00000032,-0.00000334,-0
 .00000377,-0.00000316,-0.00000107,-0.00000130,-0.00000218,0.00000248,0
 .00000402,0.00000285,0.00000085,0.00000053,0.00000201,-0.00000346\\\@
 The archive entry for this job was punched.


 MICHAEL FARADAY, ASKED BY A POLITICIAN WHAT GOOD
 HIS ELECTRICAL DISCOVERIES WERE, REPLIED 
 "AT PRESENT I DO NOT KNOW, BUT ONE DAY YOU WILL BE
 ABLE TO TAX THEM."
 Job cpu time:       0 days  0 hours 26 minutes  7.8 seconds.
 Elapsed time:       0 days  0 hours  3 minutes 23.0 seconds.
 File lengths (MBytes):  RWF=    141 Int=      0 D2E=      0 Chk=      8 Scr=      1
 Normal termination of Gaussian 16 at Sat May 24 00:38:28 2025.
done
