 Entering Gaussian System, Link 0=g16
 Initial command:
 /apps/easybuild-2022/easybuild/software/Compiler/NVHPC/22.11-CUDA-11.7.0/Gaussian/g16c01-CUDA-11.7.0/g16/l1.exe "/tmp/Gau-45436.inp" -scrdir="/tmp/"
 Entering Link 1 = /apps/easybuild-2022/easybuild/software/Compiler/NVHPC/22.11-CUDA-11.7.0/Gaussian/g16c01-CUDA-11.7.0/g16/l1.exe PID=     45437.
  
 Copyright (c) 1988-2019, Gaussian, Inc.  All Rights Reserved.
  
 This is part of the Gaussian(R) 16 program.  It is based on
 the Gaussian(R) 09 system (copyright 2009, Gaussian, Inc.),
 the Gaussian(R) 03 system (copyright 2003, Gaussian, Inc.),
 the Gaussian(R) 98 system (copyright 1998, Gaussian, Inc.),
 the Gaussian(R) 94 system (copyright 1995, Gaussian, Inc.),
 the Gaussian 92(TM) system (copyright 1992, Gaussian, Inc.),
 the Gaussian 90(TM) system (copyright 1990, Gaussian, Inc.),
 the Gaussian 88(TM) system (copyright 1988, Gaussian, Inc.),
 the Gaussian 86(TM) system (copyright 1986, Carnegie Mellon
 University), and the Gaussian 82(TM) system (copyright 1983,
 Carnegie Mellon University). Gaussian is a federally registered
 trademark of Gaussian, Inc.
  
 This software contains proprietary and confidential information,
 including trade secrets, belonging to Gaussian, Inc.
  
 This software is provided under written license and may be
 used, copied, transmitted, or stored only in accord with that
 written license.
  
 The following legend is applicable only to US Government
 contracts under FAR:
  
                    RESTRICTED RIGHTS LEGEND
  
 Use, reproduction and disclosure by the US Government is
 subject to restrictions as set forth in subparagraphs (a)
 and (c) of the Commercial Computer Software - Restricted
 Rights clause in FAR 52.227-19.
  
 Gaussian, Inc.
 340 Quinnipiac St., Bldg. 40, Wallingford CT 06492
  
  
 ---------------------------------------------------------------
 Warning -- This program may not be used in any manner that
 competes with the business of Gaussian, Inc. or will provide
 assistance to any competitor of Gaussian, Inc.  The licensee
 of this program is prohibited from giving any competitor of
 Gaussian, Inc. access to this program.  By using this program,
 the user acknowledges that Gaussian, Inc. is engaged in the
 business of creating and licensing software in the field of
 computational chemistry and represents and warrants to the
 licensee that it is not a competitor of Gaussian, Inc. and that
 it will not use this program in any manner prohibited above.
 ---------------------------------------------------------------
  

 Cite this work as:
 Gaussian 16, Revision C.01,
 M. J. Frisch, G. W. Trucks, H. B. Schlegel, G. E. Scuseria, 
 M. A. Robb, J. R. Cheeseman, G. Scalmani, V. Barone, 
 G. A. Petersson, H. Nakatsuji, X. Li, M. Caricato, A. V. Marenich, 
 J. Bloino, B. G. Janesko, R. Gomperts, B. Mennucci, H. P. Hratchian, 
 J. V. Ortiz, A. F. Izmaylov, J. L. Sonnenberg, D. Williams-Young, 
 F. Ding, F. Lipparini, F. Egidi, J. Goings, B. Peng, A. Petrone, 
 T. Henderson, D. Ranasinghe, V. G. Zakrzewski, J. Gao, N. Rega, 
 G. Zheng, W. Liang, M. Hada, M. Ehara, K. Toyota, R. Fukuda, 
 J. Hasegawa, M. Ishida, T. Nakajima, Y. Honda, O. Kitao, H. Nakai, 
 T. Vreven, K. Throssell, J. A. Montgomery, Jr., J. E. Peralta, 
 F. Ogliaro, M. J. Bearpark, J. J. Heyd, E. N. Brothers, K. N. Kudin, 
 V. N. Staroverov, T. A. Keith, R. Kobayashi, J. Normand, 
 K. Raghavachari, A. P. Rendell, J. C. Burant, S. S. Iyengar, 
 J. Tomasi, M. Cossi, J. M. Millam, M. Klene, C. Adamo, R. Cammi, 
 J. W. Ochterski, R. L. Martin, K. Morokuma, O. Farkas, 
 J. B. Foresman, and D. J. Fox, Gaussian, Inc., Wallingford CT, 2019.
 
 ******************************************
 Gaussian 16:  ES64L-G16RevC.01  3-Jul-2019
                24-May-2025 
 ******************************************
 %mem=28GB
 %nprocshared=8
 Will use up to    8 processors via shared memory.
 -----------------------------------------------------------------
 #P M062X/Def2TZVPP Symm(None) scf(xqc) pop(None) freq opt(CalcFC)
 -----------------------------------------------------------------
 1/10=4,18=20,19=15,26=3,38=1/1,3;
 2/9=110,12=2,15=3,17=6,18=5,40=1/2;
 3/5=44,7=202,11=2,25=1,30=1,71=2,74=-55,140=1/1,2,3;
 4//1;
 5/5=2,8=3,13=1,38=5/2,8;
 8/6=4,10=90,11=11/1;
 11/6=1,8=1,9=11,15=111,16=1,31=1/1,2,10;
 10/6=1,13=1,31=1/2;
 7/10=1,25=1,30=1/1,2,3,16;
 1/10=4,18=20,19=15,26=3/3(2);
 2/9=110,15=3/2;
 99//99;
 2/9=110,15=3/2;
 3/5=44,7=202,11=2,25=1,30=1,71=1,74=-55/1,2,3;
 4/5=5,16=3,69=1/1;
 5/5=2,8=3,13=1,38=5/2,8;
 7/30=1/1,2,3,16;
 1/18=20,19=15,26=3/3(-5);
 2/9=110,15=3/2;
 99/9=1/99;
 Leave Link    1 at Sat May 24 00:20:44 2025, MaxMem=  3758096384 cpu:               0.0 elap:               0.0
 (Enter /apps/easybuild-2022/easybuild/software/Compiler/NVHPC/22.11-CUDA-11.7.0/Gaussian/g16c01-CUDA-11.7.0/g16/l101.exe)
 ------------------------------
 Gaussian input prepared by ASE
 ------------------------------
 Symbolic Z-matrix:
 Charge =  0 Multiplicity = 1
 C                     1.5413    0.        0. 
 C                     0.        0.        0. 
 C                    -0.52944   1.44445  -0.08466 
 F                    -1.85177   1.45263  -0.15877 
 F                    -0.15732   2.14707   0.97334 
 F                    -0.03608   2.02412  -1.17959 
 F                    -0.57272  -0.69693  -0.99909 
 F                    -0.40463  -0.5365    1.16557 
 O                     1.90184   1.2344    0. 
 H                     1.54799   1.67039  -0.78746 
 
 ITRead=  0  0  0  0  0  0  0  0  0  0
 MicOpt= -1 -1 -1 -1 -1 -1 -1 -1 -1 -1
 NAtoms=     10 NQM=       10 NQMF=       0 NMMI=      0 NMMIF=      0
                NMic=       0 NMicF=      0.
                    Isotopes and Nuclear Properties:
 (Nuclear quadrupole moments (NQMom) in fm**2, nuclear magnetic moments (NMagM)
  in nuclear magnetons)

  Atom         1           2           3           4           5           6           7           8           9          10
 IAtWgt=          12          12          12          19          19          19          19          19          16           1
 AtmWgt=  12.0000000  12.0000000  12.0000000  18.9984032  18.9984032  18.9984032  18.9984032  18.9984032  15.9949146   1.0078250
 NucSpn=           0           0           0           1           1           1           1           1           0           1
 AtZEff=  -0.0000000  -0.0000000  -0.0000000  -0.0000000  -0.0000000  -0.0000000  -0.0000000  -0.0000000  -0.0000000  -0.0000000
 NQMom=    0.0000000   0.0000000   0.0000000   0.0000000   0.0000000   0.0000000   0.0000000   0.0000000   0.0000000   0.0000000
 NMagM=    0.0000000   0.0000000   0.0000000   2.6288670   2.6288670   2.6288670   2.6288670   2.6288670   0.0000000   2.7928460
 AtZNuc=   6.0000000   6.0000000   6.0000000   9.0000000   9.0000000   9.0000000   9.0000000   9.0000000   8.0000000   1.0000000
 Leave Link  101 at Sat May 24 00:20:44 2025, MaxMem=  3758096384 cpu:               0.2 elap:               0.2
 (Enter /apps/easybuild-2022/easybuild/software/Compiler/NVHPC/22.11-CUDA-11.7.0/Gaussian/g16c01-CUDA-11.7.0/g16/l103.exe)

 GradGradGradGradGradGradGradGradGradGradGradGradGradGradGradGradGradGrad
 Berny optimization.
 Initialization pass.
                           ----------------------------
                           !    Initial Parameters    !
                           ! (Angstroms and Degrees)  !
 --------------------------                            --------------------------
 ! Name  Definition              Value          Derivative Info.                !
 --------------------------------------------------------------------------------
 ! R1    R(1,2)                  1.5413         calculate D2E/DX2 analytically  !
 ! R2    R(1,9)                  1.286          calculate D2E/DX2 analytically  !
 ! R3    R(2,3)                  1.5408         calculate D2E/DX2 analytically  !
 ! R4    R(2,7)                  1.3461         calculate D2E/DX2 analytically  !
 ! R5    R(2,8)                  1.3454         calculate D2E/DX2 analytically  !
 ! R6    R(3,4)                  1.3244         calculate D2E/DX2 analytically  !
 ! R7    R(3,5)                  1.3235         calculate D2E/DX2 analytically  !
 ! R8    R(3,6)                  1.3335         calculate D2E/DX2 analytically  !
 ! R9    R(9,10)                 0.9672         calculate D2E/DX2 analytically  !
 ! A1    A(2,1,9)              106.2816         calculate D2E/DX2 analytically  !
 ! A2    A(1,2,3)              110.098          calculate D2E/DX2 analytically  !
 ! A3    A(1,2,7)              115.1808         calculate D2E/DX2 analytically  !
 ! A4    A(1,2,8)              107.5026         calculate D2E/DX2 analytically  !
 ! A5    A(3,2,7)              107.3617         calculate D2E/DX2 analytically  !
 ! A6    A(3,2,8)              108.5479         calculate D2E/DX2 analytically  !
 ! A7    A(7,2,8)              107.9747         calculate D2E/DX2 analytically  !
 ! A8    A(2,3,4)              110.6061         calculate D2E/DX2 analytically  !
 ! A9    A(2,3,5)              110.9263         calculate D2E/DX2 analytically  !
 ! A10   A(2,3,6)              108.9959         calculate D2E/DX2 analytically  !
 ! A11   A(4,3,5)              108.795          calculate D2E/DX2 analytically  !
 ! A12   A(4,3,6)              108.7091         calculate D2E/DX2 analytically  !
 ! A13   A(5,3,6)              108.7594         calculate D2E/DX2 analytically  !
 ! A14   A(1,9,10)             109.2777         calculate D2E/DX2 analytically  !
 ! D1    D(9,1,2,3)              3.3544         calculate D2E/DX2 analytically  !
 ! D2    D(9,1,2,7)            124.8983         calculate D2E/DX2 analytically  !
 ! D3    D(9,1,2,8)           -114.7159         calculate D2E/DX2 analytically  !
 ! D4    D(2,1,9,10)           -59.6062         calculate D2E/DX2 analytically  !
 ! D5    D(1,2,3,4)            176.6012         calculate D2E/DX2 analytically  !
 ! D6    D(1,2,3,5)            -62.5825         calculate D2E/DX2 analytically  !
 ! D7    D(1,2,3,6)             57.1381         calculate D2E/DX2 analytically  !
 ! D8    D(7,2,3,4)             50.5086         calculate D2E/DX2 analytically  !
 ! D9    D(7,2,3,5)            171.3249         calculate D2E/DX2 analytically  !
 ! D10   D(7,2,3,6)            -68.9544         calculate D2E/DX2 analytically  !
 ! D11   D(8,2,3,4)            -65.9751         calculate D2E/DX2 analytically  !
 ! D12   D(8,2,3,5)             54.8412         calculate D2E/DX2 analytically  !
 ! D13   D(8,2,3,6)            174.5619         calculate D2E/DX2 analytically  !
 --------------------------------------------------------------------------------
 Trust Radius=3.00D-01 FncErr=1.00D-07 GrdErr=1.00D-06 EigMax=2.50D+02 EigMin=1.00D-04
 Number of steps in this run=     46 maximum allowed number of steps=    100.
 GradGradGradGradGradGradGradGradGradGradGradGradGradGradGradGradGradGrad

 Leave Link  103 at Sat May 24 00:20:44 2025, MaxMem=  3758096384 cpu:               0.0 elap:               0.0
 (Enter /apps/easybuild-2022/easybuild/software/Compiler/NVHPC/22.11-CUDA-11.7.0/Gaussian/g16c01-CUDA-11.7.0/g16/l202.exe)
                          Input orientation:                          
 ---------------------------------------------------------------------
 Center     Atomic      Atomic             Coordinates (Angstroms)
 Number     Number       Type             X           Y           Z
 ---------------------------------------------------------------------
      1          6           0        1.541301    0.000000    0.000000
      2          6           0        0.000000    0.000000    0.000000
      3          6           0       -0.529444    1.444452   -0.084664
      4          9           0       -1.851774    1.452625   -0.158766
      5          9           0       -0.157321    2.147068    0.973344
      6          9           0       -0.036077    2.024115   -1.179593
      7          9           0       -0.572717   -0.696928   -0.999086
      8          9           0       -0.404631   -0.536497    1.165574
      9          8           0        1.901836    1.234403    0.000000
     10          1           0        1.547993    1.670394   -0.787461
 ---------------------------------------------------------------------
                    Distance matrix (angstroms):
                    1          2          3          4          5
     1  C    0.000000
     2  C    1.541301   0.000000
     3  C    2.526183   1.540754   0.000000
     4  F    3.694359   2.358897   1.324429   0.000000
     5  F    2.905619   2.362637   1.323452   2.152927   0.000000
     6  F    2.824288   2.343029   1.333525   2.159964   2.159851
     7  F    2.439868   1.346063   2.328852   2.638694   3.485879
     8  F    2.330889   1.345406   2.345812   2.793690   2.701784
     9  O    1.285976   2.267318   2.441805   3.763299   2.453668
    10  H    1.846715   2.409687   2.204704   3.464260   2.497149
                    6          7          8          9         10
     6  F    0.000000
     7  F    2.779324   0.000000
     8  F    3.491758   2.177095   0.000000
     9  O    2.402206   3.294181   3.132800   0.000000
    10  H    1.669780   3.185343   3.535174   0.967155   0.000000
 Symmetry turned off by external request.
 Stoichiometry    C3HF5O
 Rotational constants (GHZ):           2.0037087           1.9078785           1.4940537
 Leave Link  202 at Sat May 24 00:20:44 2025, MaxMem=  3758096384 cpu:               0.0 elap:               0.0
 (Enter /apps/easybuild-2022/easybuild/software/Compiler/NVHPC/22.11-CUDA-11.7.0/Gaussian/g16c01-CUDA-11.7.0/g16/l301.exe)
 Standard basis: def2TZVPP (5D, 7F)
 Ernie: Thresh=  0.10000D-02 Tol=  0.10000D-05 Strict=F.
   293 basis functions,   476 primitive gaussians,   339 cartesian basis functions
    36 alpha electrons       36 beta electrons
       nuclear repulsion energy       543.0077876432 Hartrees.
 IExCor= 4336 DFT=T Ex+Corr=M062X ExCW=0 ScaHFX=  0.540000
 ScaDFX=  1.000000  1.000000  1.000000  1.000000 ScalE2=  1.000000  1.000000
 IRadAn=      5 IRanWt=     -1 IRanGd=            0 ICorTp=0 IEmpDi=  4
 NAtoms=   10 NActive=   10 NUniq=   10 SFac= 1.00D+00 NAtFMM=   60 NAOKFM=F Big=F
 Integral buffers will be    131072 words long.
 Raffenetti 2 integral format.
 Two-electron integral symmetry is turned off.
 Leave Link  301 at Sat May 24 00:20:44 2025, MaxMem=  3758096384 cpu:               0.0 elap:               0.0
 (Enter /apps/easybuild-2022/easybuild/software/Compiler/NVHPC/22.11-CUDA-11.7.0/Gaussian/g16c01-CUDA-11.7.0/g16/l302.exe)
 NPDir=0 NMtPBC=     1 NCelOv=     1 NCel=       1 NClECP=     1 NCelD=      1
         NCelK=      1 NCelE2=     1 NClLst=     1 CellRange=     0.0.
 One-electron integrals computed using PRISM.
   1 Symmetry operations used in ECPInt.
 ECPInt:  NShTT=    5565 NPrTT=   17967 LenC2=    5403 LenP2D=   13639.
 LDataN:  DoStor=T MaxTD1= 6 Len=  172
 NBasis=   293 RedAO= T EigKep=  2.43D-04  NBF=   293
 NBsUse=   293 1.00D-06 EigRej= -1.00D+00 NBFU=   293
 Precomputing XC quadrature grid using
 IXCGrd= 4 IRadAn=           5 IRanWt=          -1 IRanGd=           0 AccXCQ= 0.00D+00.
 Generated NRdTot=       0 NPtTot=           0 NUsed=           0 NTot=          32
 NSgBfM=   338   338   338   338   338 MxSgAt=    10 MxSgA2=    10.
 Leave Link  302 at Sat May 24 00:20:44 2025, MaxMem=  3758096384 cpu:               0.6 elap:               0.1
 (Enter /apps/easybuild-2022/easybuild/software/Compiler/NVHPC/22.11-CUDA-11.7.0/Gaussian/g16c01-CUDA-11.7.0/g16/l303.exe)
 DipDrv:  MaxL=1.
 Leave Link  303 at Sat May 24 00:20:44 2025, MaxMem=  3758096384 cpu:               0.1 elap:               0.0
 (Enter /apps/easybuild-2022/easybuild/software/Compiler/NVHPC/22.11-CUDA-11.7.0/Gaussian/g16c01-CUDA-11.7.0/g16/l401.exe)
 ExpMin= 9.52D-02 ExpMax= 3.55D+04 ExpMxC= 1.21D+03 IAcc=3 IRadAn=         5 AccDes= 0.00D+00
 Harris functional with IExCor= 1009 and IRadAn=       5 diagonalized for initial guess.
 HarFok:  IExCor= 1009 AccDes= 0.00D+00 IRadAn=         5 IDoV= 1 UseB2=F ITyADJ=14
 ICtDFT=  3500011 ScaDFX=  1.000000  1.000000  1.000000  1.000000
 FoFCou: FMM=F IPFlag=           0 FMFlag=      100000 FMFlg1=           0
         NFxFlg=           0 DoJE=T BraDBF=F KetDBF=T FulRan=T
         wScrn=  0.000000 ICntrl=       500 IOpCl=  0 I1Cent=   200000004 NGrid=           0
         NMat0=    1 NMatS0=      1 NMatT0=    0 NMatD0=    1 NMtDS0=    0 NMtDT0=    0
 Symmetry not used in FoFCou.
 Harris En= -688.835677735199    
 JPrj=0 DoOrth=F DoCkMO=F.
 Leave Link  401 at Sat May 24 00:20:45 2025, MaxMem=  3758096384 cpu:               3.0 elap:               0.4
 (Enter /apps/easybuild-2022/easybuild/software/Compiler/NVHPC/22.11-CUDA-11.7.0/Gaussian/g16c01-CUDA-11.7.0/g16/l502.exe)
 Keep R1 ints in memory in canonical form, NReq=947229853.
 FoFCou: FMM=F IPFlag=           0 FMFlag=           0 FMFlg1=           0
         NFxFlg=           0 DoJE=F BraDBF=F KetDBF=F FulRan=T
         wScrn=  0.000000 ICntrl=       600 IOpCl=  0 I1Cent=           0 NGrid=           0
         NMat0=    1 NMatS0=  43071 NMatT0=    0 NMatD0=    1 NMtDS0=    0 NMtDT0=    0
 Symmetry not used in FoFCou.
 Two-electron integral symmetry not used.
 Closed shell SCF:
 Using DIIS extrapolation, IDIIS=  1040.
 NGot=  3758096384 LenX=  2830284373 LenY=  2830169011
 Requested convergence on RMS density matrix=1.00D-08 within  32 cycles.
 Requested convergence on MAX density matrix=1.00D-06.
 Requested convergence on             energy=1.00D-06.
 No special actions if energy rises.
 Integral accuracy reduced to 1.0D-05 until final iterations.

 Cycle   1  Pass 0  IDiag  1:
 E= -689.167583579090    
 DIIS: error= 1.66D-02 at cycle   1 NSaved=   1.
 NSaved= 1 IEnMin= 1 EnMin= -689.167583579090     IErMin= 1 ErrMin= 1.66D-02
 ErrMax= 1.66D-02  0.00D+00 EMaxC= 1.00D-01 BMatC= 2.44D-01 BMatP= 2.44D-01
 IDIUse=3 WtCom= 8.34D-01 WtEn= 1.66D-01
 Coeff-Com:  0.100D+01
 Coeff-En:   0.100D+01
 Coeff:      0.100D+01
 Gap=     0.241 Goal=   None    Shift=    0.000
 GapD=    0.241 DampG=1.000 DampE=0.500 DampFc=0.5000 IDamp=-1.
 Damping current iteration by 5.00D-01
 RMSDP=2.06D-03 MaxDP=8.98D-02              OVMax= 9.60D-02

 Cycle   2  Pass 0  IDiag  1:
 E= -689.217218502532     Delta-E=       -0.049634923442 Rises=F Damp=T
 DIIS: error= 8.05D-03 at cycle   2 NSaved=   2.
 NSaved= 2 IEnMin= 2 EnMin= -689.217218502532     IErMin= 2 ErrMin= 8.05D-03
 ErrMax= 8.05D-03  0.00D+00 EMaxC= 1.00D-01 BMatC= 2.81D-02 BMatP= 2.44D-01
 IDIUse=3 WtCom= 9.19D-01 WtEn= 8.05D-02
 Coeff-Com: -0.639D-01 0.106D+01
 Coeff-En:   0.276D-01 0.972D+00
 Coeff:     -0.565D-01 0.106D+01
 Gap=     0.238 Goal=   None    Shift=    0.000
 RMSDP=8.20D-04 MaxDP=3.90D-02 DE=-4.96D-02 OVMax= 5.29D-02

 Cycle   3  Pass 0  IDiag  1:
 E= -689.273295101314     Delta-E=       -0.056076598783 Rises=F Damp=F
 DIIS: error= 3.13D-03 at cycle   3 NSaved=   3.
 NSaved= 3 IEnMin= 3 EnMin= -689.273295101314     IErMin= 3 ErrMin= 3.13D-03
 ErrMax= 3.13D-03  0.00D+00 EMaxC= 1.00D-01 BMatC= 7.47D-03 BMatP= 2.81D-02
 IDIUse=3 WtCom= 9.69D-01 WtEn= 3.13D-02
 Coeff-Com: -0.147D+00 0.334D+00 0.813D+00
 Coeff-En:   0.000D+00 0.000D+00 0.100D+01
 Coeff:     -0.142D+00 0.324D+00 0.819D+00
 Gap=     0.238 Goal=   None    Shift=    0.000
 RMSDP=2.24D-04 MaxDP=1.22D-02 DE=-5.61D-02 OVMax= 1.59D-02

 Cycle   4  Pass 0  IDiag  1:
 E= -689.277676416875     Delta-E=       -0.004381315561 Rises=F Damp=F
 DIIS: error= 9.97D-04 at cycle   4 NSaved=   4.
 NSaved= 4 IEnMin= 4 EnMin= -689.277676416875     IErMin= 4 ErrMin= 9.97D-04
 ErrMax= 9.97D-04  0.00D+00 EMaxC= 1.00D-01 BMatC= 5.66D-04 BMatP= 7.47D-03
 IDIUse=3 WtCom= 9.90D-01 WtEn= 9.97D-03
 Coeff-Com: -0.604D-01 0.116D+00 0.374D+00 0.570D+00
 Coeff-En:   0.000D+00 0.000D+00 0.000D+00 0.100D+01
 Coeff:     -0.598D-01 0.115D+00 0.371D+00 0.574D+00
 Gap=     0.238 Goal=   None    Shift=    0.000
 RMSDP=8.37D-05 MaxDP=7.41D-03 DE=-4.38D-03 OVMax= 5.20D-03

 Cycle   5  Pass 0  IDiag  1:
 E= -689.278114785353     Delta-E=       -0.000438368478 Rises=F Damp=F
 DIIS: error= 1.69D-04 at cycle   5 NSaved=   5.
 NSaved= 5 IEnMin= 5 EnMin= -689.278114785353     IErMin= 5 ErrMin= 1.69D-04
 ErrMax= 1.69D-04  0.00D+00 EMaxC= 1.00D-01 BMatC= 2.62D-05 BMatP= 5.66D-04
 IDIUse=3 WtCom= 9.98D-01 WtEn= 1.69D-03
 Coeff-Com: -0.155D-01 0.266D-01 0.976D-01 0.225D+00 0.666D+00
 Coeff-En:   0.000D+00 0.000D+00 0.000D+00 0.000D+00 0.100D+01
 Coeff:     -0.155D-01 0.266D-01 0.974D-01 0.225D+00 0.667D+00
 Gap=     0.238 Goal=   None    Shift=    0.000
 RMSDP=1.31D-05 MaxDP=7.71D-04 DE=-4.38D-04 OVMax= 7.76D-04

 Cycle   6  Pass 0  IDiag  1:
 E= -689.278130879343     Delta-E=       -0.000016093990 Rises=F Damp=F
 DIIS: error= 4.91D-05 at cycle   6 NSaved=   6.
 NSaved= 6 IEnMin= 6 EnMin= -689.278130879343     IErMin= 6 ErrMin= 4.91D-05
 ErrMax= 4.91D-05  0.00D+00 EMaxC= 1.00D-01 BMatC= 2.93D-06 BMatP= 2.62D-05
 IDIUse=1 WtCom= 1.00D+00 WtEn= 0.00D+00
 Coeff-Com:  0.429D-04-0.134D-02-0.389D-02 0.247D-01 0.252D+00 0.729D+00
 Coeff:      0.429D-04-0.134D-02-0.389D-02 0.247D-01 0.252D+00 0.729D+00
 Gap=     0.238 Goal=   None    Shift=    0.000
 RMSDP=5.99D-06 MaxDP=2.11D-04 DE=-1.61D-05 OVMax= 6.74D-04

 Initial convergence to 1.0D-05 achieved.  Increase integral accuracy.
 Cycle   7  Pass 1  IDiag  1:
 E= -689.278139230691     Delta-E=       -0.000008351348 Rises=F Damp=F
 DIIS: error= 2.27D-05 at cycle   1 NSaved=   1.
 NSaved= 1 IEnMin= 1 EnMin= -689.278139230691     IErMin= 1 ErrMin= 2.27D-05
 ErrMax= 2.27D-05  0.00D+00 EMaxC= 1.00D-01 BMatC= 6.32D-07 BMatP= 6.32D-07
 IDIUse=1 WtCom= 1.00D+00 WtEn= 0.00D+00
 Coeff-Com:  0.100D+01
 Coeff:      0.100D+01
 Gap=     0.238 Goal=   None    Shift=    0.000
 RMSDP=5.99D-06 MaxDP=2.11D-04 DE=-8.35D-06 OVMax= 5.08D-04

 Cycle   8  Pass 1  IDiag  1:
 E= -689.278139781351     Delta-E=       -0.000000550660 Rises=F Damp=F
 DIIS: error= 1.57D-05 at cycle   2 NSaved=   2.
 NSaved= 2 IEnMin= 2 EnMin= -689.278139781351     IErMin= 2 ErrMin= 1.57D-05
 ErrMax= 1.57D-05  0.00D+00 EMaxC= 1.00D-01 BMatC= 2.12D-07 BMatP= 6.32D-07
 IDIUse=1 WtCom= 1.00D+00 WtEn= 0.00D+00
 Coeff-Com:  0.309D+00 0.691D+00
 Coeff:      0.309D+00 0.691D+00
 Gap=     0.238 Goal=   None    Shift=    0.000
 RMSDP=1.71D-06 MaxDP=7.34D-05 DE=-5.51D-07 OVMax= 2.67D-04

 Cycle   9  Pass 1  IDiag  1:
 E= -689.278139948236     Delta-E=       -0.000000166884 Rises=F Damp=F
 DIIS: error= 1.04D-05 at cycle   3 NSaved=   3.
 NSaved= 3 IEnMin= 3 EnMin= -689.278139948236     IErMin= 3 ErrMin= 1.04D-05
 ErrMax= 1.04D-05  0.00D+00 EMaxC= 1.00D-01 BMatC= 8.12D-08 BMatP= 2.12D-07
 IDIUse=1 WtCom= 1.00D+00 WtEn= 0.00D+00
 Coeff-Com: -0.464D-01 0.363D+00 0.683D+00
 Coeff:     -0.464D-01 0.363D+00 0.683D+00
 Gap=     0.238 Goal=   None    Shift=    0.000
 RMSDP=1.01D-06 MaxDP=2.87D-05 DE=-1.67D-07 OVMax= 2.01D-04

 Cycle  10  Pass 1  IDiag  1:
 E= -689.278140039922     Delta-E=       -0.000000091686 Rises=F Damp=F
 DIIS: error= 4.31D-06 at cycle   4 NSaved=   4.
 NSaved= 4 IEnMin= 4 EnMin= -689.278140039922     IErMin= 4 ErrMin= 4.31D-06
 ErrMax= 4.31D-06  0.00D+00 EMaxC= 1.00D-01 BMatC= 4.18D-09 BMatP= 8.12D-08
 IDIUse=1 WtCom= 1.00D+00 WtEn= 0.00D+00
 Coeff-Com: -0.234D-01 0.283D-02 0.119D-01 0.101D+01
 Coeff:     -0.234D-01 0.283D-02 0.119D-01 0.101D+01
 Gap=     0.238 Goal=   None    Shift=    0.000
 RMSDP=8.37D-07 MaxDP=4.84D-05 DE=-9.17D-08 OVMax= 1.78D-04

 Cycle  11  Pass 1  IDiag  1:
 E= -689.278140066190     Delta-E=       -0.000000026268 Rises=F Damp=F
 DIIS: error= 2.93D-06 at cycle   5 NSaved=   5.
 NSaved= 5 IEnMin= 5 EnMin= -689.278140066190     IErMin= 5 ErrMin= 2.93D-06
 ErrMax= 2.93D-06  0.00D+00 EMaxC= 1.00D-01 BMatC= 2.57D-09 BMatP= 4.18D-09
 IDIUse=1 WtCom= 1.00D+00 WtEn= 0.00D+00
 Coeff-Com:  0.148D-01-0.166D+00-0.368D+00 0.409D+00 0.111D+01
 Coeff:      0.148D-01-0.166D+00-0.368D+00 0.409D+00 0.111D+01
 Gap=     0.238 Goal=   None    Shift=    0.000
 RMSDP=8.71D-07 MaxDP=3.87D-05 DE=-2.63D-08 OVMax= 1.97D-04

 Cycle  12  Pass 1  IDiag  1:
 E= -689.278140080947     Delta-E=       -0.000000014757 Rises=F Damp=F
 DIIS: error= 8.16D-07 at cycle   6 NSaved=   6.
 NSaved= 6 IEnMin= 6 EnMin= -689.278140080947     IErMin= 6 ErrMin= 8.16D-07
 ErrMax= 8.16D-07  0.00D+00 EMaxC= 1.00D-01 BMatC= 2.72D-10 BMatP= 2.57D-09
 IDIUse=1 WtCom= 1.00D+00 WtEn= 0.00D+00
 Coeff-Com:  0.927D-02-0.576D-01-0.133D+00-0.749D-02 0.375D+00 0.814D+00
 Coeff:      0.927D-02-0.576D-01-0.133D+00-0.749D-02 0.375D+00 0.814D+00
 Gap=     0.238 Goal=   None    Shift=    0.000
 RMSDP=2.60D-07 MaxDP=1.63D-05 DE=-1.48D-08 OVMax= 5.29D-05

 Cycle  13  Pass 1  IDiag  1:
 E= -689.278140082134     Delta-E=       -0.000000001187 Rises=F Damp=F
 DIIS: error= 2.76D-07 at cycle   7 NSaved=   7.
 NSaved= 7 IEnMin= 7 EnMin= -689.278140082134     IErMin= 7 ErrMin= 2.76D-07
 ErrMax= 2.76D-07  0.00D+00 EMaxC= 1.00D-01 BMatC= 4.40D-11 BMatP= 2.72D-10
 IDIUse=1 WtCom= 1.00D+00 WtEn= 0.00D+00
 Coeff-Com: -0.277D-03 0.171D-01 0.366D-01-0.963D-01-0.116D+00 0.273D+00
 Coeff-Com:  0.885D+00
 Coeff:     -0.277D-03 0.171D-01 0.366D-01-0.963D-01-0.116D+00 0.273D+00
 Coeff:      0.885D+00
 Gap=     0.238 Goal=   None    Shift=    0.000
 RMSDP=1.13D-07 MaxDP=8.31D-06 DE=-1.19D-09 OVMax= 1.94D-05

 Cycle  14  Pass 1  IDiag  1:
 E= -689.278140082287     Delta-E=       -0.000000000153 Rises=F Damp=F
 DIIS: error= 5.82D-08 at cycle   8 NSaved=   8.
 NSaved= 8 IEnMin= 8 EnMin= -689.278140082287     IErMin= 8 ErrMin= 5.82D-08
 ErrMax= 5.82D-08  0.00D+00 EMaxC= 1.00D-01 BMatC= 2.33D-12 BMatP= 4.40D-11
 IDIUse=1 WtCom= 1.00D+00 WtEn= 0.00D+00
 Coeff-Com: -0.722D-03 0.861D-02 0.192D-01-0.252D-01-0.563D-01 0.132D-01
 Coeff-Com:  0.235D+00 0.806D+00
 Coeff:     -0.722D-03 0.861D-02 0.192D-01-0.252D-01-0.563D-01 0.132D-01
 Coeff:      0.235D+00 0.806D+00
 Gap=     0.238 Goal=   None    Shift=    0.000
 RMSDP=1.05D-08 MaxDP=3.87D-07 DE=-1.53D-10 OVMax= 1.95D-06

 Cycle  15  Pass 1  IDiag  1:
 E= -689.278140082225     Delta-E=        0.000000000061 Rises=F Damp=F
 DIIS: error= 2.14D-08 at cycle   9 NSaved=   9.
 NSaved= 9 IEnMin= 8 EnMin= -689.278140082287     IErMin= 9 ErrMin= 2.14D-08
 ErrMax= 2.14D-08  0.00D+00 EMaxC= 1.00D-01 BMatC= 4.67D-13 BMatP= 2.33D-12
 IDIUse=1 WtCom= 1.00D+00 WtEn= 0.00D+00
 Coeff-Com: -0.293D-03 0.208D-02 0.500D-02-0.188D-02-0.130D-01-0.207D-01
 Coeff-Com:  0.200D-01 0.342D+00 0.667D+00
 Coeff:     -0.293D-03 0.208D-02 0.500D-02-0.188D-02-0.130D-01-0.207D-01
 Coeff:      0.200D-01 0.342D+00 0.667D+00
 Gap=     0.238 Goal=   None    Shift=    0.000
 RMSDP=1.86D-09 MaxDP=5.78D-08 DE= 6.12D-11 OVMax= 2.09D-07

 SCF Done:  E(RM062X) =  -689.278140082     A.U. after   15 cycles
            NFock= 15  Conv=0.19D-08     -V/T= 2.0032
 KE= 6.870690173892D+02 PE=-2.720070683439D+03 EE= 8.007157383243D+02
 Leave Link  502 at Sat May 24 00:21:04 2025, MaxMem=  3758096384 cpu:              93.6 elap:              19.5
 (Enter /apps/easybuild-2022/easybuild/software/Compiler/NVHPC/22.11-CUDA-11.7.0/Gaussian/g16c01-CUDA-11.7.0/g16/l508.exe)
 QCSCF skips out because SCF is already converged.
 Leave Link  508 at Sat May 24 00:21:04 2025, MaxMem=  3758096384 cpu:               0.0 elap:               0.0
 (Enter /apps/easybuild-2022/easybuild/software/Compiler/NVHPC/22.11-CUDA-11.7.0/Gaussian/g16c01-CUDA-11.7.0/g16/l801.exe)
 DoSCS=F DFT=T ScalE2(SS,OS)=  1.000000  1.000000
 Range of M.O.s used for correlation:     1   293
 NBasis=   293 NAE=    36 NBE=    36 NFC=     0 NFV=     0
 NROrb=    293 NOA=    36 NOB=    36 NVA=   257 NVB=   257

 **** Warning!!: The largest alpha MO coefficient is  0.17084000D+02

 Leave Link  801 at Sat May 24 00:21:04 2025, MaxMem=  3758096384 cpu:               0.0 elap:               0.0
 (Enter /apps/easybuild-2022/easybuild/software/Compiler/NVHPC/22.11-CUDA-11.7.0/Gaussian/g16c01-CUDA-11.7.0/g16/l1101.exe)
 Using compressed storage, NAtomX=    10.
 Will process     11 centers per pass.
   1 Symmetry operations used in ECPInt.
 ECPInt:  NShTT=    5565 NPrTT=   17967 LenC2=    5403 LenP2D=   13639.
 LDataN:  DoStor=T MaxTD1= 7 Len=  274
 Leave Link 1101 at Sat May 24 00:21:04 2025, MaxMem=  3758096384 cpu:               0.7 elap:               0.1
 (Enter /apps/easybuild-2022/easybuild/software/Compiler/NVHPC/22.11-CUDA-11.7.0/Gaussian/g16c01-CUDA-11.7.0/g16/l1102.exe)
 Symmetrizing basis deriv contribution to polar:
 IMax=3 JMax=2 DiffMx= 0.00D+00
 Leave Link 1102 at Sat May 24 00:21:04 2025, MaxMem=  3758096384 cpu:               0.0 elap:               0.0
 (Enter /apps/easybuild-2022/easybuild/software/Compiler/NVHPC/22.11-CUDA-11.7.0/Gaussian/g16c01-CUDA-11.7.0/g16/l1110.exe)
 Forming Gx(P) for the SCF density, NAtomX=    10.
 Integral derivatives from FoFJK, PRISM(SPDF).
 Do as many integral derivatives as possible in FoFJK.
 G2DrvN: MDV=    3758095218.
 G2DrvN: will do    11 centers at a time, making    1 passes.
 Calling FoFCou, ICntrl=  3107 FMM=F I1Cent=   0 AccDes= 0.00D+00.
 FoFJK:  IHMeth= 1 ICntrl=    3107 DoSepK=F KAlg= 0 I1Cent=           0 FoldK=F
 IRaf=         0 NMat=       1 IRICut=       1 DoRegI=T DoRafI=F ISym2E= 0 IDoP0=0 IntGTp=1.
 FoFCou: FMM=F IPFlag=           0 FMFlag=      100000 FMFlg1=           0
         NFxFlg=           0 DoJE=F BraDBF=F KetDBF=F FulRan=T
         wScrn=  0.000000 ICntrl=      3107 IOpCl=  0 I1Cent=           0 NGrid=           0
         NMat0=    1 NMatS0=      1 NMatT0=    0 NMatD0=    1 NMtDS0=    0 NMtDT0=    0
 Symmetry not used in FoFCou.
 End of G2Drv F.D. properties file   721 does not exist.
 End of G2Drv F.D. properties file   722 does not exist.
 End of G2Drv F.D. properties file   788 does not exist.
 Leave Link 1110 at Sat May 24 00:21:35 2025, MaxMem=  3758096384 cpu:             245.6 elap:              30.9
 (Enter /apps/easybuild-2022/easybuild/software/Compiler/NVHPC/22.11-CUDA-11.7.0/Gaussian/g16c01-CUDA-11.7.0/g16/l1002.exe)
 Minotr:  Closed shell wavefunction.
          IDoAtm=1111111111
          Direct CPHF calculation.
          Differentiating once with respect to nuclear coordinates.
          Requested convergence is 1.0D-08 RMS, and 1.0D-07 maximum.
          Secondary convergence is 1.0D-12 RMS, and 1.0D-12 maximum.
          NewPWx=T KeepS1=F KeepF1=F KeepIn=T MapXYZ=F SortEE=F KeepMc=T.
         2995 words used for storage of precomputed grid.
 Keep R1 ints in memory in canonical form, NReq=947234771.
 FoFCou: FMM=F IPFlag=           0 FMFlag=           0 FMFlg1=           0
         NFxFlg=           0 DoJE=F BraDBF=F KetDBF=F FulRan=T
         wScrn=  0.000000 ICntrl=       600 IOpCl=  0 I1Cent=           0 NGrid=           0
         NMat0=    1 NMatS0=  43071 NMatT0=    0 NMatD0=    1 NMtDS0=    0 NMtDT0=    0
 Symmetry not used in FoFCou.
 Two-electron integral symmetry not used.
          MDV=    3758096384 using IRadAn=       1.
          Solving linear equations simultaneously, MaxMat=       0.
          There are    33 degrees of freedom in the 1st order CPHF.  IDoFFX=6 NUNeed=     0.
     27 vectors produced by pass  0 Test12= 2.80D-14 3.03D-09 XBig12= 1.11D-01 1.72D-01.
 AX will form    27 AO Fock derivatives at one time.
     27 vectors produced by pass  1 Test12= 2.80D-14 3.03D-09 XBig12= 1.44D-02 2.65D-02.
     27 vectors produced by pass  2 Test12= 2.80D-14 3.03D-09 XBig12= 1.05D-03 6.83D-03.
     27 vectors produced by pass  3 Test12= 2.80D-14 3.03D-09 XBig12= 2.47D-05 1.06D-03.
     27 vectors produced by pass  4 Test12= 2.80D-14 3.03D-09 XBig12= 3.32D-07 8.79D-05.
     27 vectors produced by pass  5 Test12= 2.80D-14 3.03D-09 XBig12= 3.30D-09 6.97D-06.
     27 vectors produced by pass  6 Test12= 2.80D-14 3.03D-09 XBig12= 2.50D-11 5.94D-07.
     11 vectors produced by pass  7 Test12= 2.80D-14 3.03D-09 XBig12= 1.36D-13 3.83D-08.
 InvSVY:  IOpt=1 It=  1 EMax= 2.44D-15
 Solved reduced A of dimension   200 with    27 vectors.
 End of Minotr F.D. properties file   721 does not exist.
 End of Minotr F.D. properties file   722 does not exist.
 End of Minotr F.D. properties file   788 does not exist.
 Leave Link 1002 at Sat May 24 00:22:15 2025, MaxMem=  3758096384 cpu:             312.0 elap:              39.6
 (Enter /apps/easybuild-2022/easybuild/software/Compiler/NVHPC/22.11-CUDA-11.7.0/Gaussian/g16c01-CUDA-11.7.0/g16/l701.exe)
 ... and contract with generalized density number  0.
 Compute integral second derivatives.
   1 Symmetry operations used in ECPInt.
 ECPInt:  NShTT=    5565 NPrTT=   17967 LenC2=    5403 LenP2D=   13639.
 LDataN:  DoStor=T MaxTD1= 8 Len=  415
 Leave Link  701 at Sat May 24 00:22:15 2025, MaxMem=  3758096384 cpu:               0.6 elap:               0.1
 (Enter /apps/easybuild-2022/easybuild/software/Compiler/NVHPC/22.11-CUDA-11.7.0/Gaussian/g16c01-CUDA-11.7.0/g16/l702.exe)
 L702 exits ... SP integral derivatives will be done elsewhere.
 Leave Link  702 at Sat May 24 00:22:15 2025, MaxMem=  3758096384 cpu:               0.0 elap:               0.0
 (Enter /apps/easybuild-2022/easybuild/software/Compiler/NVHPC/22.11-CUDA-11.7.0/Gaussian/g16c01-CUDA-11.7.0/g16/l703.exe)
 Integral derivatives from FoFJK, PRISM(SPDF).
 Compute integral second derivatives, UseDBF=F ICtDFT=           0.
 Calling FoFJK, ICntrl=    100127 FMM=F ISym2X=0 I1Cent= 0 IOpClX= 0 NMat=1 NMatS=1 NMatT=0.
 FoFJK:  IHMeth= 1 ICntrl=  100127 DoSepK=F KAlg= 0 I1Cent=           0 FoldK=F
 IRaf=         0 NMat=       1 IRICut=       1 DoRegI=T DoRafI=F ISym2E= 0 IDoP0=0 IntGTp=1.
 FoFCou: FMM=F IPFlag=           0 FMFlag=      100000 FMFlg1=         800
         NFxFlg=           0 DoJE=F BraDBF=F KetDBF=F FulRan=T
         wScrn=  0.000000 ICntrl=    100127 IOpCl=  0 I1Cent=           0 NGrid=           0
         NMat0=    1 NMatS0=      1 NMatT0=    0 NMatD0=    1 NMtDS0=    0 NMtDT0=    0
 Symmetry not used in FoFCou.
 Leave Link  703 at Sat May 24 00:23:24 2025, MaxMem=  3758096384 cpu:             548.3 elap:              68.9
 (Enter /apps/easybuild-2022/easybuild/software/Compiler/NVHPC/22.11-CUDA-11.7.0/Gaussian/g16c01-CUDA-11.7.0/g16/l716.exe)
 Dipole        =-2.52016508D-02 8.05716532D-01-5.92849151D-01
 Polarizability= 0.00000000D+00 0.00000000D+00 0.00000000D+00
                 0.00000000D+00 0.00000000D+00 0.00000000D+00
 -------------------------------------------------------------------
 Center     Atomic                   Forces (Hartrees/Bohr)
 Number     Number              X              Y              Z
 -------------------------------------------------------------------
      1        6           0.001597975   -0.030825158    0.027119219
      2        6          -0.019005063    0.004265608   -0.012421486
      3        6          -0.026304294   -0.015286806    0.019967004
      4        9           0.000592540    0.005169830   -0.002644619
      5        9          -0.007190242    0.004798945    0.000598202
      6        9          -0.011857203    0.011345149   -0.018703448
      7        9           0.008379885    0.000998714    0.000439901
      8        9           0.007116549    0.005109587   -0.004077168
      9        8           0.055033588   -0.005193389   -0.018568972
     10        1          -0.008363734    0.019617521    0.008291366
 -------------------------------------------------------------------
 Cartesian Forces:  Max     0.055033588 RMS     0.016696561
 Force constants in Cartesian coordinates: 
                1             2             3             4             5 
      1  0.289958D+00
      2  0.728561D-01  0.577390D+00
      3  0.744777D-02 -0.677277D-01  0.368438D-01
      4 -0.181488D+00  0.212874D-01 -0.102924D-01  0.553596D+00
      5  0.594617D-01 -0.784081D-01  0.174618D-01  0.526649D-01  0.580035D+00
      6 -0.395870D-02  0.179503D-01 -0.233122D-01  0.138959D-01 -0.124356D-01
      7 -0.234328D-01  0.434827D-01 -0.143100D-02 -0.808258D-01  0.652420D-01
      8  0.128447D-01  0.222204D-01  0.433543D-03  0.336033D-01 -0.177595D+00
      9  0.948180D-04 -0.583786D-02  0.600076D-02 -0.618051D-03  0.102363D-01
     10 -0.308792D-02  0.843533D-02 -0.118179D-02 -0.501919D-01 -0.546467D-02
     11  0.205341D-02 -0.115456D-01  0.934663D-03  0.398152D-01  0.243680D-02
     12 -0.205856D-03  0.155837D-02 -0.435744D-03 -0.596210D-02 -0.101771D-02
     13 -0.172215D-02 -0.773096D-02 -0.104906D-02  0.760180D-02 -0.730634D-03
     14 -0.142301D-02 -0.467200D-02 -0.286485D-03 -0.151176D-01 -0.840579D-02
     15 -0.213019D-03 -0.182809D-02  0.494721D-03 -0.783235D-02 -0.404871D-02
     16 -0.480535D-02 -0.112183D-01  0.121755D-02  0.348931D-02 -0.411148D-03
     17 -0.327797D-02  0.376688D-04  0.647475D-03 -0.182990D-01 -0.498752D-02
     18  0.133716D-02  0.282254D-02 -0.602341D-03  0.134812D-01  0.175261D-02
     19  0.108594D-01 -0.170031D-01 -0.146580D-01 -0.133848D+00 -0.637231D-01
     20 -0.239752D-04  0.929338D-03 -0.171788D-02 -0.622666D-01 -0.158699D+00
     21 -0.276858D-02 -0.555742D-02 -0.127895D-02 -0.787045D-01 -0.968936D-01
     22 -0.151873D-02 -0.205663D-01  0.295826D-01 -0.103082D+00 -0.339369D-01
     23  0.162890D-03  0.101778D-02  0.191097D-03 -0.370592D-01 -0.128812D+00
     24  0.564868D-02  0.122571D-01 -0.784596D-02  0.722787D-01  0.944358D-01
     25 -0.996845D-01 -0.106603D+00 -0.157037D-01 -0.222515D-01 -0.674594D-01
     26 -0.153600D+00 -0.452614D+00  0.264829D-01 -0.856778D-02 -0.277390D-01
     27 -0.913008D-02  0.401032D-01 -0.442818D-02  0.409166D-02 -0.839942D-02
     28  0.149221D-01  0.170598D-01  0.606814D-02  0.699952D-02 -0.564269D-02
     29  0.109457D-01 -0.543553D-01  0.235806D-01 -0.606057D-02  0.217513D-02
     30  0.174780D-02  0.625958D-02 -0.543592D-02 -0.337947D-03 -0.109141D-02
                6             7             8             9            10 
      6  0.488498D+00
      7 -0.178288D-02  0.616901D+00
      8  0.961001D-02 -0.251963D-01  0.623246D+00
      9 -0.393632D-01  0.965425D-03  0.600835D-02  0.582359D+00
     10 -0.111832D-02 -0.316008D+00  0.397712D-01 -0.169451D-01  0.447763D+00
     11 -0.328795D-03  0.297358D-01 -0.876779D-01  0.110674D-02 -0.145752D-02
     12  0.342211D-02 -0.163189D-01  0.284419D-02 -0.751239D-01  0.225036D-01
     13  0.155007D-02 -0.881009D-01 -0.314576D-01 -0.432116D-01 -0.434469D-01
     14 -0.370657D-01 -0.255397D-01 -0.185374D+00 -0.109795D+00 -0.244297D-01
     15 -0.178768D-01 -0.401070D-01 -0.122512D+00 -0.213559D+00 -0.392617D-01
     16  0.166090D-02 -0.886739D-01 -0.300808D-01  0.451618D-01 -0.531294D-01
     17  0.363400D-01 -0.285477D-01 -0.151687D+00  0.976660D-01 -0.197933D-01
     18 -0.213764D-01  0.505332D-01  0.107897D+00 -0.213853D+00  0.365624D-01
     19 -0.869701D-01 -0.316759D-02  0.286598D-02 -0.853832D-03  0.675717D-02
     20 -0.939341D-01 -0.259868D-01 -0.200252D-01 -0.400418D-01  0.868334D-03
     21 -0.170469D+00 -0.113211D-01 -0.125109D-01 -0.194111D-01  0.187824D-02
     22  0.786982D-01  0.504975D-04  0.389237D-02 -0.297607D-02  0.527954D-02
     23  0.931345D-01 -0.198111D-01 -0.108187D-01  0.397247D-01  0.240423D-02
     24 -0.228496D+00  0.114284D-01  0.883407D-02 -0.280333D-01 -0.290045D-02
     25 -0.257334D-02  0.338798D-02  0.481894D-02 -0.419572D-02  0.271020D-02
     26 -0.131718D-01 -0.140823D-01 -0.220907D-01  0.692545D-02  0.362090D-03
     27  0.573839D-02  0.918995D-03  0.310967D-02 -0.132061D-01  0.274293D-03
     28  0.598253D-03 -0.201300D-01 -0.110618D-01  0.225784D-01  0.335430D-02
     29 -0.987146D-04  0.703610D-03  0.980203D-02 -0.599229D-02 -0.695966D-03
     30  0.323551D-02  0.711484D-02 -0.371361D-02  0.141902D-01  0.188881D-03
               11            12            13            14            15 
     11  0.739575D-01
     12  0.295796D-02  0.823056D-01
     13 -0.364911D-01 -0.512844D-01  0.128314D+00
     14  0.745891D-02 -0.117424D-01  0.521133D-01  0.179412D+00
     15 -0.142501D-01 -0.117310D-01  0.761982D-01  0.163304D+00  0.321165D+00
     16 -0.323632D-01  0.506832D-01  0.129724D-01  0.440075D-02  0.660317D-02
     17  0.931942D-02  0.615447D-02  0.548125D-02  0.228856D-01 -0.140215D-01
     18  0.810154D-02 -0.426062D-02  0.679820D-02  0.227438D-02 -0.824639D-01
     19  0.849652D-03  0.268998D-02  0.114928D-02  0.245688D-02  0.170361D-02
     20  0.144823D-02  0.157841D-02  0.221205D-02 -0.132590D-01 -0.458230D-02
     21  0.141928D-02  0.271575D-02  0.115167D-02 -0.474427D-02 -0.435234D-04
     22 -0.130663D-02 -0.389685D-03  0.483864D-03 -0.453425D-03 -0.867735D-04
     23  0.837421D-03 -0.234659D-02  0.114067D-02 -0.419332D-03 -0.534500D-03
     24 -0.466529D-04  0.312791D-02 -0.571935D-03  0.206798D-02  0.673979D-02
     25 -0.305684D-02  0.583544D-03 -0.171624D-01  0.778703D-02  0.725751D-02
     26  0.553172D-02 -0.921771D-03  0.154226D-01  0.390272D-02 -0.249547D-02
     27 -0.141395D-02  0.180192D-02  0.132852D-01 -0.292080D-02  0.420814D-03
     28  0.222121D-02 -0.229935D-02 -0.894077D-04  0.205511D-03 -0.426169D-02
     29 -0.176648D-02  0.935092D-03  0.404277D-04 -0.152902D-02  0.968313D-03
     30  0.151927D-02 -0.182206D-02 -0.286636D-02 -0.109152D-02 -0.314595D-02
               16            17            18            19            20 
     16  0.156530D+00
     17  0.423910D-01  0.138794D+00
     18 -0.788958D-01 -0.138622D+00  0.326634D+00
     19  0.158873D-02 -0.731502D-03  0.264278D-03  0.113015D+00
     20  0.796208D-03 -0.933651D-03  0.295827D-02  0.782127D-01  0.171136D+00
     21  0.591121D-03 -0.237103D-02  0.644804D-02  0.105809D+00  0.138910D+00
     22  0.197862D-02  0.320554D-02 -0.283316D-02  0.201663D-01  0.852337D-02
     23  0.215588D-03 -0.127561D-01  0.656923D-02  0.821331D-02  0.199542D-01
     24 -0.785625D-03  0.595093D-02 -0.118544D-02 -0.584494D-02 -0.141478D-02
     25 -0.256454D-01  0.971702D-02 -0.118871D-01 -0.143180D-01 -0.341258D-02
     26  0.224502D-01  0.529490D-02 -0.817253D-03 -0.129719D-01 -0.681389D-03
     27 -0.206331D-01  0.194661D-02  0.286715D-02 -0.530000D-03 -0.757262D-03
     28 -0.430479D-02  0.985461D-02 -0.153603D-01 -0.220264D-02  0.107736D-02
     29  0.381958D-02 -0.596732D-02  0.706377D-02  0.183112D-02  0.130659D-03
     30 -0.560324D-02  0.630894D-02 -0.122074D-01 -0.160990D-02 -0.998358D-03
               21            22            23            24            25 
     21  0.263678D+00
     22 -0.115070D-01  0.877250D-01
     23 -0.148412D-01  0.432344D-01  0.128298D+00
     24 -0.782037D-01 -0.846716D-01 -0.122403D+00  0.334359D+00
     25 -0.475032D-02 -0.997995D-02 -0.908153D-03  0.708912D-02  0.268278D+00
     26 -0.409376D-02 -0.603790D-02  0.260338D-02  0.108816D-02  0.100616D+00
     27 -0.133376D-02 -0.411548D-02  0.430071D-03 -0.962042D-03  0.169004D+00
     28 -0.378455D-03 -0.110280D-02  0.240736D-02 -0.167030D-02 -0.853344D-01
     29  0.683127D-03  0.344549D-02  0.953319D-04 -0.769102D-03  0.585006D-01
     30 -0.210207D-02 -0.170099D-02  0.762021D-04  0.499309D-03 -0.144824D+00
               26            27            28            29            30 
     26  0.582169D+00
     27 -0.197602D+00  0.317230D+00
     28  0.564087D-01 -0.153166D+00  0.878882D-01
     29 -0.963772D-01  0.165504D+00 -0.725300D-01  0.147792D+00
     30  0.184606D+00 -0.308128D+00  0.147891D+00 -0.191875D+00  0.314916D+00
 FormGI is forming the generalized inverse of G from B-inverse, IUseBI=4.
 Force constants in internal coordinates: 
                1             2             3             4             5 
      1  0.305954D+00
      2  0.285572D-01  0.586494D+00
      3  0.603912D-01 -0.461964D-02  0.293330D+00
      4  0.948903D-02  0.106390D-01  0.199719D-01  0.419646D+00
      5  0.127285D-01  0.205906D-02  0.190410D-01  0.555373D-01  0.418349D+00
      6 -0.286211D-02 -0.133541D-02  0.179206D-01  0.491528D-02  0.484551D-02
      7  0.365612D-03  0.469727D-02  0.140384D-01  0.560711D-02  0.565429D-02
      8  0.155268D-01  0.967049D-02  0.207606D-01  0.582273D-02  0.583707D-02
      9 -0.117417D-01  0.308581D-01 -0.631237D-02 -0.310223D-02 -0.790024D-03
     10  0.247198D+00  0.402435D-01  0.109697D+00  0.225837D-01  0.145275D-01
     11  0.205910D+00 -0.546294D-01  0.110807D+00 -0.242375D-01 -0.244017D-01
     12 -0.570238D-01  0.270654D-01 -0.423024D-01  0.281402D-02  0.322870D-02
     13 -0.556223D-01  0.205429D-01 -0.471658D-01  0.392645D-03  0.556607D-02
     14 -0.638891D-01  0.641742D-02 -0.178568D-01  0.265576D-01 -0.145368D-01
     15 -0.548772D-01  0.486976D-02 -0.682103D-02 -0.148980D-01  0.237061D-01
     16  0.210839D-01 -0.427564D-02  0.304441D-02  0.840842D-02  0.895952D-02
     17 -0.181210D-01  0.120198D-01  0.119085D-01 -0.757224D-02 -0.316227D-02
     18  0.227347D-01 -0.368753D-02  0.224693D-01  0.163783D-01 -0.314159D-02
     19  0.440462D-01 -0.109168D-01  0.367661D-01  0.262181D-03  0.158184D-01
     20 -0.130074D-01  0.151735D-02 -0.246402D-01 -0.273064D-02 -0.197017D-02
     21 -0.293855D-01  0.538710D-02 -0.346909D-01 -0.197387D-02 -0.347516D-02
     22 -0.735954D-02 -0.435474D-02 -0.135432D-01 -0.466892D-02 -0.418228D-02
     23  0.112512D-01  0.566728D-01  0.674208D-02 -0.159718D-03 -0.386784D-02
     24  0.239404D-02 -0.407957D-03  0.344076D-02 -0.129184D-01  0.183014D-01
     25  0.371075D-01 -0.149274D-01  0.355558D-01  0.528340D-02 -0.174793D-01
     26 -0.131224D-01  0.119604D-01 -0.221085D-01  0.181170D-01  0.100502D-03
     27 -0.220976D-01  0.347052D-01 -0.945761D-02  0.908736D-03  0.302241D-02
     28  0.364345D-02  0.575949D-03  0.500535D-02  0.610924D-02 -0.596956D-02
     29 -0.974995D-02  0.808117D-02 -0.312574D-02  0.850296D-02 -0.126628D-01
     30  0.231891D-01 -0.651368D-02  0.173801D-01  0.129735D-01 -0.968346D-02
     31 -0.162104D-01 -0.190094D-02 -0.241311D-02  0.357412D-03  0.158425D-01
     32 -0.296038D-01  0.560427D-02 -0.105442D-01  0.275113D-02  0.914922D-02
     33  0.333529D-02 -0.899057D-02  0.996163D-02  0.722169D-02  0.121286D-01
     34  0.212717D-01 -0.279981D-02  0.700963D-02 -0.159157D-01  0.790267D-03
     35  0.787829D-02  0.470541D-02 -0.112146D-02 -0.135220D-01 -0.590302D-02
     36  0.408174D-01 -0.988944D-02  0.193844D-01 -0.905142D-02 -0.292363D-02
                6             7             8             9            10 
      6  0.449136D+00
      7  0.580506D-01  0.454410D+00
      8  0.567015D-01  0.568037D-01  0.428406D+00
      9  0.153788D-02  0.437320D-02 -0.174843D-01  0.503488D+00
     10 -0.164126D-01 -0.157393D-02  0.513198D-01 -0.360704D-01  0.875208D+00
     11  0.845865D-02 -0.220309D-02  0.368429D-01 -0.268297D-01  0.433747D+00
     12  0.110044D-02 -0.769838D-02 -0.102149D-01  0.374175D-02 -0.980646D-01
     13  0.650706D-03  0.161333D-02 -0.212308D-01  0.802680D-02 -0.126462D+00
     14 -0.695499D-02  0.146298D-01 -0.125794D-01  0.112981D-01 -0.148307D+00
     15 -0.313034D-02 -0.497444D-02  0.656687D-02  0.712079D-02 -0.109254D+00
     16 -0.524017D-03 -0.159511D-02  0.117200D-02 -0.266325D-02  0.386988D-01
     17  0.136357D-01 -0.292732D-01 -0.320965D-01  0.265066D-03 -0.614496D-01
     18 -0.282319D-01  0.148436D-01 -0.297576D-01 -0.374474D-02  0.619123D-01
     19 -0.289766D-01 -0.310154D-01  0.297811D-01 -0.149574D-01  0.123503D+00
     20  0.208625D-01  0.206089D-01  0.397643D-02  0.252697D-02 -0.294869D-01
     21  0.206597D-01  0.471640D-02  0.116898D-01  0.128702D-01 -0.752065D-01
     22  0.294925D-02  0.208816D-01  0.179058D-01  0.351958D-02 -0.220155D-01
     23 -0.155862D-02 -0.465754D-02  0.650030D-02  0.254042D-01  0.180479D-01
     24  0.934578D-03 -0.823601D-02  0.443033D-02 -0.341013D-02  0.935409D-02
     25 -0.874096D-03  0.380534D-02  0.912031D-02 -0.666293D-02  0.802251D-01
     26 -0.362958D-03 -0.199149D-02 -0.114296D-01 -0.180712D-02 -0.255249D-01
     27  0.476960D-02  0.137152D-02 -0.155041D-01  0.728535D-02 -0.901828D-01
     28 -0.136510D-02 -0.169260D-01  0.205742D-01 -0.194330D-02  0.176284D-01
     29  0.152683D-01 -0.657049D-03 -0.157178D-01 -0.107343D-02 -0.194640D-01
     30 -0.168977D-01  0.144945D-01  0.706133D-02 -0.855557D-02  0.700640D-01
     31 -0.353456D-02 -0.158262D-01  0.178181D-01  0.322787D-02 -0.424071D-01
     32  0.130989D-01  0.442723D-03 -0.184739D-01  0.409774D-02 -0.794995D-01
     33 -0.190671D-01  0.155942D-01  0.430519D-02 -0.338441D-02  0.100285D-01
     34  0.238813D-02 -0.191467D-01  0.197250D-01 -0.331707D-02  0.472660D-01
     35  0.190216D-01 -0.287781D-02 -0.165669D-01 -0.244720D-02  0.101736D-01
     36 -0.131445D-01  0.122737D-01  0.621218D-02 -0.992935D-02  0.997016D-01
               11            12            13            14            15 
     11  0.632640D+00
     12 -0.173775D+00  0.102059D+00
     13 -0.205268D+00  0.488349D-01  0.117724D+00
     14 -0.194603D+00 -0.516406D-02  0.680814D-01  0.160187D+00
     15 -0.134188D+00  0.430213D-01 -0.119008D-01  0.246730D-01  0.134711D+00
     16  0.645219D-01 -0.130880D-01 -0.184726D-01 -0.504502D-01 -0.459156D-01
     17 -0.255094D-01  0.805731D-02  0.129036D-01  0.694014D-02 -0.258591D-02
     18  0.496798D-01 -0.351896D-01 -0.355765D-02  0.105005D-01 -0.228128D-01
     19  0.104758D+00 -0.103082D-01 -0.594727D-01 -0.490732D-01  0.848152D-02
     20 -0.386761D-01  0.204586D-01  0.564707D-02  0.113431D-02  0.141162D-01
     21 -0.849665D-01  0.137708D-01  0.383148D-01  0.327909D-01  0.764172D-02
     22 -0.823089D-02  0.410822D-02  0.727602D-02 -0.166832D-02 -0.436370D-02
     23  0.221897D-01 -0.588393D-02 -0.910876D-02 -0.491187D-02 -0.578853D-02
     24  0.258924D-02  0.194075D-01 -0.176199D-01 -0.372369D-01  0.353680D-01
     25  0.112493D+00 -0.490223D-01 -0.521894D-01  0.190765D-01 -0.539924D-02
     26 -0.663373D-01  0.353476D-01  0.414555D-01  0.100488D-02 -0.451602D-01
     27 -0.614493D-01  0.135552D-01  0.179419D-01  0.192084D-01  0.187781D-01
     28  0.174519D-01  0.109486D-01 -0.225901D-01 -0.101867D-01  0.215065D-02
     29 -0.153087D-01  0.187048D-01 -0.919980D-02  0.288248D-02  0.302597D-02
     30  0.717803D-01 -0.441856D-02 -0.402782D-01 -0.239739D-01 -0.109825D-01
     31 -0.464781D-01  0.534287D-03  0.422160D-02  0.144238D-01  0.193141D-01
     32 -0.792388D-01  0.829046D-02  0.176119D-01  0.274930D-01  0.201895D-01
     33  0.785018D-02 -0.148329D-01 -0.134665D-01  0.636677D-03  0.618096D-02
     34  0.503110D-01 -0.357362D-02 -0.406315D-02 -0.240681D-01 -0.942684D-02
     35  0.175503D-01  0.418255D-02  0.932714D-02 -0.109989D-01 -0.855152D-02
     36  0.104639D+00 -0.189408D-01 -0.217512D-01 -0.378553D-01 -0.225600D-01
               16            17            18            19            20 
     16  0.609482D-01
     17 -0.293473D-04  0.193944D+00
     18  0.121010D-04 -0.559442D-02  0.204342D+00
     19  0.577283D-02 -0.848079D-02  0.193551D-02  0.242000D+00
     20 -0.176657D-02 -0.931670D-01 -0.106660D+00 -0.120761D-01  0.138274D+00
     21 -0.664570D-02 -0.797380D-01 -0.105071D-01 -0.132802D+00  0.386397D-01
     22  0.253202D-02 -0.116466D-01 -0.887664D-01 -0.962884D-01  0.397036D-01
     23  0.304201D-02 -0.854347D-03  0.391955D-03 -0.288144D-03  0.610212D-03
     24 -0.375644D-04 -0.612682D-02 -0.213380D-01  0.323601D-01  0.106746D-01
     25 -0.258283D-01 -0.109991D-01  0.580030D-02  0.416139D-01 -0.316591D-02
     26  0.301624D-01  0.354888D-02 -0.193462D-01 -0.103156D-02  0.118181D-01
     27 -0.638950D-02 -0.187538D-02 -0.166044D-02 -0.112440D-01  0.618477D-03
     28  0.190045D-02  0.324501D-03 -0.156113D-01  0.254890D-01 -0.132338D-01
     29 -0.338451D-03  0.898550D-02 -0.177625D-01  0.587395D-02  0.276994D-01
     30  0.647114D-02 -0.142322D-01 -0.508600D-03  0.423059D-01  0.346204D-02
     31  0.104217D-01  0.220715D-02 -0.112649D-01  0.329917D-02 -0.142873D-01
     32  0.818278D-02  0.108682D-01 -0.134162D-01 -0.163158D-01  0.266459D-01
     33  0.149924D-01 -0.123496D-01  0.383771D-02  0.201161D-01  0.240855D-02
     34 -0.106741D-01 -0.105491D-03 -0.506899D-02  0.181787D-01 -0.201051D-01
     35 -0.129131D-01  0.855551D-02 -0.722021D-02 -0.143635D-02  0.208282D-01
     36 -0.610346D-02 -0.146622D-01  0.100337D-01  0.349956D-01 -0.340917D-02
               21            22            23            24            25 
     21  0.147664D+00
     22  0.427998D-01  0.119488D+00
     23 -0.142742D-02  0.157019D-02  0.141271D+00
     24 -0.150627D-01 -0.541848D-03 -0.423303D-02  0.233589D-01
     25 -0.279233D-01 -0.618029D-02  0.229535D-02 -0.976683D-02  0.675022D-01
     26  0.383689D-03  0.499994D-02 -0.423997D-02 -0.102311D-01 -0.350256D-01
     27  0.933641D-02  0.524014D-02 -0.232418D-01  0.457919D-02 -0.807881D-02
     28  0.498756D-02 -0.167206D-02  0.133434D-02  0.730782D-02  0.152924D-01
     29 -0.667906D-02 -0.185211D-01  0.179269D-02  0.245525D-02  0.779898D-02
     30 -0.448721D-01  0.131070D-01  0.378857D-02  0.927802D-02  0.302356D-01
     31  0.209984D-01 -0.289243D-03 -0.247465D-02  0.671512D-02 -0.997427D-02
     32  0.933177D-02 -0.171383D-01 -0.201630D-02  0.186255D-02 -0.174677D-01
     33 -0.288613D-01  0.144898D-01 -0.204199D-04  0.868532D-02  0.496891D-02
     34  0.745682D-02 -0.123975D-03 -0.451333D-03  0.825180D-02  0.130256D-01
     35 -0.420980D-02 -0.169731D-01  0.701940D-05  0.339923D-02  0.553217D-02
     36 -0.424028D-01  0.146551D-01  0.200290D-02  0.102220D-01  0.279688D-01
               26            27            28            29            30 
     26  0.564356D-01
     27  0.554652D-02  0.224020D-01
     28  0.825203D-02 -0.311313D-02  0.335767D-01
     29  0.126457D-01 -0.469468D-02  0.671295D-02  0.358247D-01
     30  0.626954D-02 -0.640672D-02  0.112849D-01  0.578218D-02  0.485921D-01
     31  0.676445D-02  0.704109D-02  0.154237D-01 -0.861355D-02 -0.137940D-01
     32  0.111582D-01  0.545955D-02 -0.114400D-01  0.204982D-01 -0.192967D-01
     33  0.478196D-02  0.374750D-02 -0.686812D-02 -0.954432D-02  0.235132D-01
     34 -0.586897D-02 -0.534565D-02  0.174864D-01 -0.113084D-01 -0.300059D-02
     35 -0.147526D-02 -0.692719D-02 -0.937736D-02  0.178033D-01 -0.850327D-02
     36 -0.785146D-02 -0.863923D-02 -0.480545D-02 -0.122392D-01  0.343067D-01
               31            32            33            34            35 
     31  0.353181D-01
     32  0.112808D-01  0.432190D-01
     33  0.610030D-02  0.342410D-02  0.364817D-01
     34  0.544951D-02 -0.233453D-01 -0.150375D-01  0.356256D-01
     35 -0.185878D-01  0.859289D-02 -0.177137D-01  0.683080D-02  0.340115D-01
     36 -0.237683D-01 -0.312020D-01  0.153439D-01  0.151386D-01  0.770489D-02
               36 
     36  0.542507D-01
 Leave Link  716 at Sat May 24 00:23:24 2025, MaxMem=  3758096384 cpu:               0.0 elap:               0.0
 (Enter /apps/easybuild-2022/easybuild/software/Compiler/NVHPC/22.11-CUDA-11.7.0/Gaussian/g16c01-CUDA-11.7.0/g16/l103.exe)

 GradGradGradGradGradGradGradGradGradGradGradGradGradGradGradGradGradGrad
 Berny optimization.
 Red2BG is reusing G-inverse.
 Internal  Forces:  Max     0.106346520 RMS     0.030550692
 Search for a local minimum.
 Step number   1 out of a maximum of   46
 All quantities printed in internal units (Hartrees-Bohrs-Radians)
 RMS Force = .30551D-01 SwitMx=.10000D-02 MixMth= 1
 Mixed Optimization -- RFO/linear search
 Second derivative matrix not updated -- analytic derivatives used.
 ITU=  0
     Eigenvalues ---   -0.01453   0.00318   0.02628   0.06695   0.09717
     Eigenvalues ---    0.10726   0.11875   0.13647   0.15603   0.17669
     Eigenvalues ---    0.20319   0.23196   0.26279   0.31191   0.33120
     Eigenvalues ---    0.37526   0.40070   0.40905   0.42189   0.48430
     Eigenvalues ---    0.50774   0.58080   0.63344   1.62779
 Eigenvalue     1 is  -1.45D-02 should be greater than     0.000000 Eigenvector:
                          D1        D2        D3        D4        D5
   1                   -0.53558  -0.46570  -0.45658   0.23703   0.19906
                          D7        D6        D11       D13       D12
   1                    0.19818   0.18154   0.14844   0.14756   0.13093
 RFO step:  Lambda=-5.39162465D-02 EMin=-1.45337887D-02
 Linear search not attempted -- first point.
 Maximum step size (   0.300) exceeded in Quadratic search.
    -- Step size scaled by   0.948
 Iteration  1 RMS(Cart)=  0.12869655 RMS(Int)=  0.09538487
 Iteration  2 RMS(Cart)=  0.03060645 RMS(Int)=  0.05919899
 Iteration  3 RMS(Cart)=  0.04637231 RMS(Int)=  0.02654073
 Iteration  4 RMS(Cart)=  0.03623173 RMS(Int)=  0.00315417
 Iteration  5 RMS(Cart)=  0.00314923 RMS(Int)=  0.00084022
 Iteration  6 RMS(Cart)=  0.00001805 RMS(Int)=  0.00084013
 Iteration  7 RMS(Cart)=  0.00000000 RMS(Int)=  0.00084013
 ITry= 1 IFail=0 DXMaxC= 4.06D-01 DCOld= 1.00D+10 DXMaxT= 3.00D-01 DXLimC= 3.00D+00 Rises=F
 Variable       Old X    -DE/DX   Delta X   Delta X   Delta X     New X
                                 (Linear)    (Quad)   (Total)
    R1        2.91264   0.04827   0.00000   0.02328   0.02328   2.93592
    R2        2.43014   0.02694   0.00000  -0.02127  -0.02127   2.40887
    R3        2.91160   0.02107   0.00000  -0.01100  -0.01100   2.90060
    R4        2.54369  -0.00441   0.00000  -0.00920  -0.00920   2.53449
    R5        2.54245  -0.00771   0.00000  -0.00814  -0.00814   2.53431
    R6        2.50281  -0.00041   0.00000  -0.01455  -0.01455   2.48826
    R7        2.50096   0.00100   0.00000   0.00227   0.00227   2.50324
    R8        2.52000   0.01590   0.00000   0.03501   0.03501   2.55501
    R9        1.82766   0.00515   0.00000   0.00408   0.00408   1.83174
    A1        1.85496   0.10526   0.00000   0.13051   0.13051   1.98547
    A2        1.92157   0.10635   0.00000   0.09602   0.09588   2.01745
    A3        2.01028  -0.03594   0.00000  -0.04088  -0.04366   1.96662
    A4        1.87628  -0.03601   0.00000  -0.04748  -0.04607   1.83021
    A5        1.87381  -0.02614   0.00000   0.02179   0.02123   1.89505
    A6        1.89452  -0.02223   0.00000  -0.05535  -0.05366   1.84086
    A7        1.88451   0.01246   0.00000   0.02191   0.02149   1.90600
    A8        1.93044   0.00057   0.00000   0.04541   0.04532   1.97576
    A9        1.93603   0.01081   0.00000  -0.03286  -0.03293   1.90310
   A10        1.90234   0.01742   0.00000   0.00667   0.00626   1.90860
   A11        1.89883  -0.00849   0.00000   0.02064   0.02084   1.91967
   A12        1.89733  -0.01639   0.00000  -0.01612  -0.01651   1.88082
   A13        1.89821  -0.00464   0.00000  -0.02476  -0.02515   1.87306
   A14        1.90726   0.02863   0.00000   0.19862   0.19862   2.10588
    D1        0.05855   0.00029   0.00000  -0.30416  -0.30378  -0.24524
    D2        2.17989   0.02260   0.00000  -0.23026  -0.23192   1.94797
    D3       -2.00217  -0.01082   0.00000  -0.26314  -0.26185  -2.26402
    D4       -1.04032   0.02737   0.00000   0.79008   0.79008  -0.25024
    D5        3.08227   0.00124   0.00000   0.10098   0.10233  -3.09858
    D6       -1.09227  -0.00189   0.00000   0.13553   0.13656  -0.95571
    D7        0.99725   0.01012   0.00000   0.08901   0.09021   1.08746
    D8        0.88154  -0.00558   0.00000   0.07446   0.07370   0.95524
    D9        2.99018  -0.00871   0.00000   0.10900   0.10792   3.09811
   D10       -1.20348   0.00330   0.00000   0.06249   0.06157  -1.14191
   D11       -1.15148   0.00514   0.00000   0.06575   0.06563  -1.08585
   D12        0.95716   0.00201   0.00000   0.10030   0.09986   1.05702
   D13        3.04668   0.01403   0.00000   0.05378   0.05351   3.10019
         Item               Value     Threshold  Converged?
 Maximum Force            0.106347     0.000450     NO 
 RMS     Force            0.030551     0.000300     NO 
 Maximum Displacement     0.406447     0.001800     NO 
 RMS     Displacement     0.145458     0.001200     NO 
 Predicted change in Energy=-4.802516D-02
 Lowest energy point so far.  Saving SCF results.
 GradGradGradGradGradGradGradGradGradGradGradGradGradGradGradGradGradGrad

 Leave Link  103 at Sat May 24 00:23:24 2025, MaxMem=  3758096384 cpu:               0.0 elap:               0.0
 (Enter /apps/easybuild-2022/easybuild/software/Compiler/NVHPC/22.11-CUDA-11.7.0/Gaussian/g16c01-CUDA-11.7.0/g16/l202.exe)
                          Input orientation:                          
 ---------------------------------------------------------------------
 Center     Atomic      Atomic             Coordinates (Angstroms)
 Number     Number       Type             X           Y           Z
 ---------------------------------------------------------------------
      1          6           0        1.539949   -0.033107    0.092002
      2          6           0       -0.009468    0.029417   -0.003558
      3          6           0       -0.612309    1.438582   -0.086333
      4          9           0       -1.928754    1.438872   -0.113625
      5          9           0       -0.180532    2.154350    0.941264
      6          9           0       -0.176263    2.047073   -1.212230
      7          9           0       -0.495083   -0.703274   -1.016545
      8          9           0       -0.446559   -0.479073    1.157881
      9          8           0        2.116919    1.067167   -0.193330
     10          1           0        1.631265    1.779626   -0.636177
 ---------------------------------------------------------------------
                    Distance matrix (angstroms):
                    1          2          3          4          5
     1  C    0.000000
     2  C    1.553620   0.000000
     3  C    2.613406   1.534932   0.000000
     4  F    3.773713   2.383766   1.316728   0.000000
     5  F    2.909686   2.331801   1.324655   2.163558   0.000000
     6  F    2.995589   2.357890   1.352051   2.155938   2.156169
     7  F    2.412334   1.341194   2.338073   2.731203   3.478214
     8  F    2.298086   1.341100   2.291930   2.737178   2.655675
     9  O    1.274720   2.373701   2.756461   4.063494   2.783442
    10  H    1.955654   2.481016   2.335008   3.614264   2.431326
                    6          7          8          9         10
     6  F    0.000000
     7  F    2.775671   0.000000
     8  F    3.474464   2.186492   0.000000
     9  O    2.693892   3.261088   3.284516   0.000000
    10  H    1.915861   3.291022   3.554956   0.969314   0.000000
 Symmetry turned off by external request.
 Stoichiometry    C3HF5O
 Rotational constants (GHZ):           2.0250577           1.7672875           1.4210672
 Leave Link  202 at Sat May 24 00:23:24 2025, MaxMem=  3758096384 cpu:               0.0 elap:               0.0
 (Enter /apps/easybuild-2022/easybuild/software/Compiler/NVHPC/22.11-CUDA-11.7.0/Gaussian/g16c01-CUDA-11.7.0/g16/l301.exe)
 Standard basis: def2TZVPP (5D, 7F)
 Ernie: Thresh=  0.10000D-02 Tol=  0.10000D-05 Strict=F.
   293 basis functions,   476 primitive gaussians,   339 cartesian basis functions
    36 alpha electrons       36 beta electrons
       nuclear repulsion energy       535.5350345214 Hartrees.
 IExCor= 4336 DFT=T Ex+Corr=M062X ExCW=0 ScaHFX=  0.540000
 ScaDFX=  1.000000  1.000000  1.000000  1.000000 ScalE2=  1.000000  1.000000
 IRadAn=      5 IRanWt=     -1 IRanGd=            0 ICorTp=0 IEmpDi=  4
 NAtoms=   10 NActive=   10 NUniq=   10 SFac= 1.00D+00 NAtFMM=   60 NAOKFM=F Big=F
 Integral buffers will be    131072 words long.
 Raffenetti 2 integral format.
 Two-electron integral symmetry is turned off.
 Leave Link  301 at Sat May 24 00:23:24 2025, MaxMem=  3758096384 cpu:               0.0 elap:               0.0
 (Enter /apps/easybuild-2022/easybuild/software/Compiler/NVHPC/22.11-CUDA-11.7.0/Gaussian/g16c01-CUDA-11.7.0/g16/l302.exe)
 NPDir=0 NMtPBC=     1 NCelOv=     1 NCel=       1 NClECP=     1 NCelD=      1
         NCelK=      1 NCelE2=     1 NClLst=     1 CellRange=     0.0.
 One-electron integrals computed using PRISM.
   1 Symmetry operations used in ECPInt.
 ECPInt:  NShTT=    5565 NPrTT=   17967 LenC2=    5393 LenP2D=   13549.
 LDataN:  DoStor=T MaxTD1= 6 Len=  172
 NBasis=   293 RedAO= T EigKep=  2.65D-04  NBF=   293
 NBsUse=   293 1.00D-06 EigRej= -1.00D+00 NBFU=   293
 Precomputing XC quadrature grid using
 IXCGrd= 4 IRadAn=           5 IRanWt=          -1 IRanGd=           0 AccXCQ= 0.00D+00.
 Generated NRdTot=       0 NPtTot=           0 NUsed=           0 NTot=          32
 NSgBfM=   338   338   338   338   338 MxSgAt=    10 MxSgA2=    10.
 Leave Link  302 at Sat May 24 00:23:24 2025, MaxMem=  3758096384 cpu:               0.5 elap:               0.1
 (Enter /apps/easybuild-2022/easybuild/software/Compiler/NVHPC/22.11-CUDA-11.7.0/Gaussian/g16c01-CUDA-11.7.0/g16/l303.exe)
 DipDrv:  MaxL=1.
 Leave Link  303 at Sat May 24 00:23:24 2025, MaxMem=  3758096384 cpu:               0.1 elap:               0.0
 (Enter /apps/easybuild-2022/easybuild/software/Compiler/NVHPC/22.11-CUDA-11.7.0/Gaussian/g16c01-CUDA-11.7.0/g16/l401.exe)
 Initial guess from the checkpoint file:  "/tmp/Gau-45437.chk"
 B after Tr=    -0.018544   -0.017002   -0.016147
         Rot=    0.999922    0.006316   -0.010685    0.001501 Ang=   1.43 deg.
 Guess basis will be translated and rotated to current coordinates.
 JPrj=2 DoOrth=T DoCkMO=T.
 Generating alternative initial guess.
 ExpMin= 9.52D-02 ExpMax= 3.55D+04 ExpMxC= 1.21D+03 IAcc=3 IRadAn=         5 AccDes= 0.00D+00
 Harris functional with IExCor= 1009 and IRadAn=       5 diagonalized for initial guess.
 HarFok:  IExCor= 1009 AccDes= 0.00D+00 IRadAn=         5 IDoV= 1 UseB2=F ITyADJ=14
 ICtDFT=  3500011 ScaDFX=  1.000000  1.000000  1.000000  1.000000
 FoFCou: FMM=F IPFlag=           0 FMFlag=      100000 FMFlg1=           0
         NFxFlg=           0 DoJE=T BraDBF=F KetDBF=T FulRan=T
         wScrn=  0.000000 ICntrl=       500 IOpCl=  0 I1Cent=   200000004 NGrid=           0
         NMat0=    1 NMatS0=      1 NMatT0=    0 NMatD0=    1 NMtDS0=    0 NMtDT0=    0
 Symmetry not used in FoFCou.
 Harris En= -688.868877375433    
 Leave Link  401 at Sat May 24 00:23:25 2025, MaxMem=  3758096384 cpu:               2.8 elap:               0.4
 (Enter /apps/easybuild-2022/easybuild/software/Compiler/NVHPC/22.11-CUDA-11.7.0/Gaussian/g16c01-CUDA-11.7.0/g16/l502.exe)
 Keep R1 ints in memory in canonical form, NReq=947229853.
 FoFCou: FMM=F IPFlag=           0 FMFlag=           0 FMFlg1=           0
         NFxFlg=           0 DoJE=F BraDBF=F KetDBF=F FulRan=T
         wScrn=  0.000000 ICntrl=       600 IOpCl=  0 I1Cent=           0 NGrid=           0
         NMat0=    1 NMatS0=  43071 NMatT0=    0 NMatD0=    1 NMtDS0=    0 NMtDT0=    0
 Symmetry not used in FoFCou.
 Two-electron integral symmetry not used.
 Closed shell SCF:
 Using DIIS extrapolation, IDIIS=  1040.
 NGot=  3758096384 LenX=  2830284373 LenY=  2830169011
 Requested convergence on RMS density matrix=1.00D-08 within  32 cycles.
 Requested convergence on MAX density matrix=1.00D-06.
 Requested convergence on             energy=1.00D-06.
 No special actions if energy rises.
 Integral accuracy reduced to 1.0D-05 until final iterations.

 Cycle   1  Pass 0  IDiag  1:
 E= -689.230840043216    
 DIIS: error= 9.46D-03 at cycle   1 NSaved=   1.
 NSaved= 1 IEnMin= 1 EnMin= -689.230840043216     IErMin= 1 ErrMin= 9.46D-03
 ErrMax= 9.46D-03  0.00D+00 EMaxC= 1.00D-01 BMatC= 6.63D-02 BMatP= 6.63D-02
 IDIUse=3 WtCom= 9.05D-01 WtEn= 9.46D-02
 Coeff-Com:  0.100D+01
 Coeff-En:   0.100D+01
 Coeff:      0.100D+01
 Gap=     0.833 Goal=   None    Shift=    0.000
 GapD=    0.833 DampG=2.000 DampE=1.000 DampFc=2.0000 IDamp=-1.
 RMSDP=1.13D-03 MaxDP=4.33D-02              OVMax= 1.09D-01

 Cycle   2  Pass 0  IDiag  1:
 E= -689.308333524913     Delta-E=       -0.077493481697 Rises=F Damp=F
 DIIS: error= 3.02D-03 at cycle   2 NSaved=   2.
 NSaved= 2 IEnMin= 2 EnMin= -689.308333524913     IErMin= 2 ErrMin= 3.02D-03
 ErrMax= 3.02D-03  0.00D+00 EMaxC= 1.00D-01 BMatC= 5.68D-03 BMatP= 6.63D-02
 IDIUse=3 WtCom= 9.70D-01 WtEn= 3.02D-02
 Coeff-Com:  0.397D-02 0.996D+00
 Coeff-En:   0.000D+00 0.100D+01
 Coeff:      0.385D-02 0.996D+00
 Gap=     0.263 Goal=   None    Shift=    0.000
 RMSDP=2.94D-04 MaxDP=1.45D-02 DE=-7.75D-02 OVMax= 2.25D-02

 Cycle   3  Pass 0  IDiag  1:
 E= -689.310598773731     Delta-E=       -0.002265248818 Rises=F Damp=F
 DIIS: error= 3.40D-03 at cycle   3 NSaved=   3.
 NSaved= 3 IEnMin= 3 EnMin= -689.310598773731     IErMin= 2 ErrMin= 3.02D-03
 ErrMax= 3.40D-03  0.00D+00 EMaxC= 1.00D-01 BMatC= 5.57D-03 BMatP= 5.68D-03
 IDIUse=3 WtCom= 9.66D-01 WtEn= 3.40D-02
 Coeff-Com: -0.787D-01 0.538D+00 0.541D+00
 Coeff-En:   0.000D+00 0.293D+00 0.707D+00
 Coeff:     -0.760D-01 0.529D+00 0.547D+00
 Gap=     0.267 Goal=   None    Shift=    0.000
 RMSDP=1.39D-04 MaxDP=9.49D-03 DE=-2.27D-03 OVMax= 2.02D-02

 Cycle   4  Pass 0  IDiag  1:
 E= -689.314311720626     Delta-E=       -0.003712946896 Rises=F Damp=F
 DIIS: error= 4.56D-04 at cycle   4 NSaved=   4.
 NSaved= 4 IEnMin= 4 EnMin= -689.314311720626     IErMin= 4 ErrMin= 4.56D-04
 ErrMax= 4.56D-04  0.00D+00 EMaxC= 1.00D-01 BMatC= 1.55D-04 BMatP= 5.57D-03
 IDIUse=3 WtCom= 9.95D-01 WtEn= 4.56D-03
 Coeff-Com: -0.914D-02-0.382D-02 0.130D+00 0.883D+00
 Coeff-En:   0.000D+00 0.000D+00 0.000D+00 0.100D+01
 Coeff:     -0.910D-02-0.380D-02 0.129D+00 0.884D+00
 Gap=     0.266 Goal=   None    Shift=    0.000
 RMSDP=4.33D-05 MaxDP=1.72D-03 DE=-3.71D-03 OVMax= 6.21D-03

 Cycle   5  Pass 0  IDiag  1:
 E= -689.314473076388     Delta-E=       -0.000161355761 Rises=F Damp=F
 DIIS: error= 2.49D-04 at cycle   5 NSaved=   5.
 NSaved= 5 IEnMin= 5 EnMin= -689.314473076388     IErMin= 5 ErrMin= 2.49D-04
 ErrMax= 2.49D-04  0.00D+00 EMaxC= 1.00D-01 BMatC= 1.06D-05 BMatP= 1.55D-04
 IDIUse=3 WtCom= 9.98D-01 WtEn= 2.49D-03
 Coeff-Com:  0.341D-02-0.446D-01-0.542D-02 0.247D+00 0.800D+00
 Coeff-En:   0.000D+00 0.000D+00 0.000D+00 0.000D+00 0.100D+01
 Coeff:      0.340D-02-0.445D-01-0.540D-02 0.246D+00 0.800D+00
 Gap=     0.266 Goal=   None    Shift=    0.000
 RMSDP=2.30D-05 MaxDP=1.87D-03 DE=-1.61D-04 OVMax= 3.54D-03

 Cycle   6  Pass 0  IDiag  1:
 E= -689.314493670484     Delta-E=       -0.000020594096 Rises=F Damp=F
 DIIS: error= 5.76D-05 at cycle   6 NSaved=   6.
 NSaved= 6 IEnMin= 6 EnMin= -689.314493670484     IErMin= 6 ErrMin= 5.76D-05
 ErrMax= 5.76D-05  0.00D+00 EMaxC= 1.00D-01 BMatC= 2.20D-06 BMatP= 1.06D-05
 IDIUse=1 WtCom= 1.00D+00 WtEn= 0.00D+00
 Coeff-Com:  0.243D-02-0.148D-01-0.192D-01-0.455D-01 0.270D+00 0.807D+00
 Coeff:      0.243D-02-0.148D-01-0.192D-01-0.455D-01 0.270D+00 0.807D+00
 Gap=     0.266 Goal=   None    Shift=    0.000
 RMSDP=9.15D-06 MaxDP=3.10D-04 DE=-2.06D-05 OVMax= 2.09D-03

 Initial convergence to 1.0D-05 achieved.  Increase integral accuracy.
 Cycle   7  Pass 1  IDiag  1:
 E= -689.314473341852     Delta-E=        0.000020328632 Rises=F Damp=F
 DIIS: error= 3.19D-05 at cycle   1 NSaved=   1.
 NSaved= 1 IEnMin= 1 EnMin= -689.314473341852     IErMin= 1 ErrMin= 3.19D-05
 ErrMax= 3.19D-05  0.00D+00 EMaxC= 1.00D-01 BMatC= 8.45D-07 BMatP= 8.45D-07
 IDIUse=1 WtCom= 1.00D+00 WtEn= 0.00D+00
 Coeff-Com:  0.100D+01
 Coeff:      0.100D+01
 Gap=     0.266 Goal=   None    Shift=    0.000
 RMSDP=9.15D-06 MaxDP=3.10D-04 DE= 2.03D-05 OVMax= 1.01D-03

 Cycle   8  Pass 1  IDiag  1:
 E= -689.314474696121     Delta-E=       -0.000001354269 Rises=F Damp=F
 DIIS: error= 2.01D-05 at cycle   2 NSaved=   2.
 NSaved= 2 IEnMin= 2 EnMin= -689.314474696121     IErMin= 2 ErrMin= 2.01D-05
 ErrMax= 2.01D-05  0.00D+00 EMaxC= 1.00D-01 BMatC= 3.79D-07 BMatP= 8.45D-07
 IDIUse=1 WtCom= 1.00D+00 WtEn= 0.00D+00
 Coeff-Com:  0.349D+00 0.651D+00
 Coeff:      0.349D+00 0.651D+00
 Gap=     0.266 Goal=   None    Shift=    0.000
 RMSDP=2.19D-06 MaxDP=7.70D-05 DE=-1.35D-06 OVMax= 3.97D-04

 Cycle   9  Pass 1  IDiag  1:
 E= -689.314475093717     Delta-E=       -0.000000397596 Rises=F Damp=F
 DIIS: error= 1.16D-05 at cycle   3 NSaved=   3.
 NSaved= 3 IEnMin= 3 EnMin= -689.314475093717     IErMin= 3 ErrMin= 1.16D-05
 ErrMax= 1.16D-05  0.00D+00 EMaxC= 1.00D-01 BMatC= 8.98D-08 BMatP= 3.79D-07
 IDIUse=1 WtCom= 1.00D+00 WtEn= 0.00D+00
 Coeff-Com: -0.122D+00 0.259D+00 0.863D+00
 Coeff:     -0.122D+00 0.259D+00 0.863D+00
 Gap=     0.266 Goal=   None    Shift=    0.000
 RMSDP=2.00D-06 MaxDP=7.09D-05 DE=-3.98D-07 OVMax= 4.62D-04

 Cycle  10  Pass 1  IDiag  1:
 E= -689.314475309798     Delta-E=       -0.000000216081 Rises=F Damp=F
 DIIS: error= 6.08D-06 at cycle   4 NSaved=   4.
 NSaved= 4 IEnMin= 4 EnMin= -689.314475309798     IErMin= 4 ErrMin= 6.08D-06
 ErrMax= 6.08D-06  0.00D+00 EMaxC= 1.00D-01 BMatC= 8.73D-09 BMatP= 8.98D-08
 IDIUse=1 WtCom= 1.00D+00 WtEn= 0.00D+00
 Coeff-Com: -0.411D-01-0.115D+00-0.148D+00 0.130D+01
 Coeff:     -0.411D-01-0.115D+00-0.148D+00 0.130D+01
 Gap=     0.266 Goal=   None    Shift=    0.000
 RMSDP=1.40D-06 MaxDP=4.73D-05 DE=-2.16D-07 OVMax= 3.45D-04

 Cycle  11  Pass 1  IDiag  1:
 E= -689.314475370331     Delta-E=       -0.000000060533 Rises=F Damp=F
 DIIS: error= 1.44D-06 at cycle   5 NSaved=   5.
 NSaved= 5 IEnMin= 5 EnMin= -689.314475370331     IErMin= 5 ErrMin= 1.44D-06
 ErrMax= 1.44D-06  0.00D+00 EMaxC= 1.00D-01 BMatC= 1.55D-09 BMatP= 8.73D-09
 IDIUse=1 WtCom= 1.00D+00 WtEn= 0.00D+00
 Coeff-Com:  0.113D-01-0.910D-01-0.225D+00 0.425D+00 0.880D+00
 Coeff:      0.113D-01-0.910D-01-0.225D+00 0.425D+00 0.880D+00
 Gap=     0.266 Goal=   None    Shift=    0.000
 RMSDP=5.51D-07 MaxDP=2.02D-05 DE=-6.05D-08 OVMax= 1.28D-04

 Cycle  12  Pass 1  IDiag  1:
 E= -689.314475376279     Delta-E=       -0.000000005947 Rises=F Damp=F
 DIIS: error= 4.15D-07 at cycle   6 NSaved=   6.
 NSaved= 6 IEnMin= 6 EnMin= -689.314475376279     IErMin= 6 ErrMin= 4.15D-07
 ErrMax= 4.15D-07  0.00D+00 EMaxC= 1.00D-01 BMatC= 1.75D-10 BMatP= 1.55D-09
 IDIUse=1 WtCom= 1.00D+00 WtEn= 0.00D+00
 Coeff-Com:  0.633D-02-0.254D-01-0.684D-01 0.791D-01 0.338D+00 0.671D+00
 Coeff:      0.633D-02-0.254D-01-0.684D-01 0.791D-01 0.338D+00 0.671D+00
 Gap=     0.266 Goal=   None    Shift=    0.000
 RMSDP=5.50D-08 MaxDP=2.70D-06 DE=-5.95D-09 OVMax= 7.61D-06

 Cycle  13  Pass 1  IDiag  1:
 E= -689.314475376487     Delta-E=       -0.000000000209 Rises=F Damp=F
 DIIS: error= 2.50D-07 at cycle   7 NSaved=   7.
 NSaved= 7 IEnMin= 7 EnMin= -689.314475376487     IErMin= 7 ErrMin= 2.50D-07
 ErrMax= 2.50D-07  0.00D+00 EMaxC= 1.00D-01 BMatC= 2.63D-11 BMatP= 1.75D-10
 IDIUse=1 WtCom= 1.00D+00 WtEn= 0.00D+00
 Coeff-Com: -0.514D-04 0.641D-02 0.151D-01-0.484D-01-0.357D-01 0.260D+00
 Coeff-Com:  0.803D+00
 Coeff:     -0.514D-04 0.641D-02 0.151D-01-0.484D-01-0.357D-01 0.260D+00
 Coeff:      0.803D+00
 Gap=     0.266 Goal=   None    Shift=    0.000
 RMSDP=2.87D-08 MaxDP=9.03D-07 DE=-2.09D-10 OVMax= 4.63D-06

 Cycle  14  Pass 1  IDiag  1:
 E= -689.314475376461     Delta-E=        0.000000000026 Rises=F Damp=F
 DIIS: error= 5.65D-08 at cycle   8 NSaved=   8.
 NSaved= 8 IEnMin= 7 EnMin= -689.314475376487     IErMin= 8 ErrMin= 5.65D-08
 ErrMax= 5.65D-08  0.00D+00 EMaxC= 1.00D-01 BMatC= 2.57D-12 BMatP= 2.63D-11
 IDIUse=1 WtCom= 1.00D+00 WtEn= 0.00D+00
 Coeff-Com: -0.635D-03 0.520D-02 0.128D-01-0.281D-01-0.469D-01 0.200D-01
 Coeff-Com:  0.296D+00 0.742D+00
 Coeff:     -0.635D-03 0.520D-02 0.128D-01-0.281D-01-0.469D-01 0.200D-01
 Coeff:      0.296D+00 0.742D+00
 Gap=     0.266 Goal=   None    Shift=    0.000
 RMSDP=8.81D-09 MaxDP=3.46D-07 DE= 2.59D-11 OVMax= 1.21D-06

 SCF Done:  E(RM062X) =  -689.314475376     A.U. after   14 cycles
            NFock= 14  Conv=0.88D-08     -V/T= 2.0035
 KE= 6.869067909705D+02 PE=-2.704983289522D+03 EE= 7.932269886533D+02
 Leave Link  502 at Sat May 24 00:23:41 2025, MaxMem=  3758096384 cpu:              77.3 elap:              16.8
 (Enter /apps/easybuild-2022/easybuild/software/Compiler/NVHPC/22.11-CUDA-11.7.0/Gaussian/g16c01-CUDA-11.7.0/g16/l508.exe)
 QCSCF skips out because SCF is already converged.
 Leave Link  508 at Sat May 24 00:23:41 2025, MaxMem=  3758096384 cpu:               0.0 elap:               0.0
 (Enter /apps/easybuild-2022/easybuild/software/Compiler/NVHPC/22.11-CUDA-11.7.0/Gaussian/g16c01-CUDA-11.7.0/g16/l701.exe)
 ... and contract with generalized density number  0.
 Compute integral first derivatives.
   1 Symmetry operations used in ECPInt.
 ECPInt:  NShTT=    5565 NPrTT=   17967 LenC2=    5393 LenP2D=   13549.
 LDataN:  DoStor=T MaxTD1= 7 Len=  274
 Leave Link  701 at Sat May 24 00:23:42 2025, MaxMem=  3758096384 cpu:               0.4 elap:               0.1
 (Enter /apps/easybuild-2022/easybuild/software/Compiler/NVHPC/22.11-CUDA-11.7.0/Gaussian/g16c01-CUDA-11.7.0/g16/l702.exe)
 L702 exits ... SP integral derivatives will be done elsewhere.
 Leave Link  702 at Sat May 24 00:23:42 2025, MaxMem=  3758096384 cpu:               0.0 elap:               0.0
 (Enter /apps/easybuild-2022/easybuild/software/Compiler/NVHPC/22.11-CUDA-11.7.0/Gaussian/g16c01-CUDA-11.7.0/g16/l703.exe)
 Integral derivatives from FoFJK, PRISM(SPDF).
 Compute integral first derivatives, UseDBF=F ICtDFT=           0.
 Calling FoFJK, ICntrl=      2127 FMM=F ISym2X=0 I1Cent= 0 IOpClX= 0 NMat=1 NMatS=1 NMatT=0.
 FoFJK:  IHMeth= 1 ICntrl=    2127 DoSepK=F KAlg= 0 I1Cent=           0 FoldK=F
 IRaf=         0 NMat=       1 IRICut=       1 DoRegI=T DoRafI=F ISym2E= 0 IDoP0=0 IntGTp=1.
 FoFCou: FMM=F IPFlag=           0 FMFlag=      100000 FMFlg1=         800
         NFxFlg=           0 DoJE=F BraDBF=F KetDBF=F FulRan=T
         wScrn=  0.000000 ICntrl=      2127 IOpCl=  0 I1Cent=           0 NGrid=           0
         NMat0=    1 NMatS0=      1 NMatT0=    0 NMatD0=    1 NMtDS0=    0 NMtDT0=    0
 Symmetry not used in FoFCou.
 Leave Link  703 at Sat May 24 00:23:48 2025, MaxMem=  3758096384 cpu:              48.1 elap:               6.1
 (Enter /apps/easybuild-2022/easybuild/software/Compiler/NVHPC/22.11-CUDA-11.7.0/Gaussian/g16c01-CUDA-11.7.0/g16/l716.exe)
 Dipole        =-3.72609770D-02 9.31022315D-01-4.53785344D-01
 -------------------------------------------------------------------
 Center     Atomic                   Forces (Hartrees/Bohr)
 Number     Number              X              Y              Z
 -------------------------------------------------------------------
      1        6          -0.001908156   -0.011380038    0.002835095
      2        6          -0.004470563    0.008263975    0.001792730
      3        6          -0.004157100   -0.001981633   -0.006856445
      4        9          -0.000589407    0.000812089    0.001769079
      5        9          -0.002373145    0.004056143    0.003354215
      6        9          -0.001492556   -0.000478770   -0.000116507
      7        9           0.006752740    0.001041666    0.000285709
      8        9          -0.001627949   -0.003438793    0.001674421
      9        8           0.017141527   -0.002384226   -0.007160174
     10        1          -0.007275391    0.005489587    0.002421876
 -------------------------------------------------------------------
 Cartesian Forces:  Max     0.017141527 RMS     0.005305973
 Leave Link  716 at Sat May 24 00:23:48 2025, MaxMem=  3758096384 cpu:               0.0 elap:               0.0
 (Enter /apps/easybuild-2022/easybuild/software/Compiler/NVHPC/22.11-CUDA-11.7.0/Gaussian/g16c01-CUDA-11.7.0/g16/l103.exe)

 GradGradGradGradGradGradGradGradGradGradGradGradGradGradGradGradGradGrad
 Berny optimization.
 Using GEDIIS/GDIIS optimizer.
 FormGI is forming the generalized inverse of G from B-inverse, IUseBI=4.
 Internal  Forces:  Max     0.022693245 RMS     0.006116358
 Search for a local minimum.
 Step number   2 out of a maximum of   46
 All quantities printed in internal units (Hartrees-Bohrs-Radians)
 RMS Force = .61164D-02 SwitMx=.10000D-02 MixMth= 1
 Mixed Optimization -- RFO/linear search
 Update second derivatives using D2CorX and points    1    2
 DE= -3.63D-02 DEPred=-4.80D-02 R= 7.57D-01
 TightC=F SS=  1.41D+00  RLast= 9.97D-01 DXNew= 5.0454D-01 2.9923D+00
 Trust test= 7.57D-01 RLast= 9.97D-01 DXMaxT set to 5.05D-01
 ITU=  1  0
 Use linear search instead of GDIIS.
     Eigenvalues ---   -0.17313   0.00712   0.02619   0.06153   0.09225
     Eigenvalues ---    0.09763   0.11827   0.13569   0.14385   0.16082
     Eigenvalues ---    0.18736   0.20348   0.23583   0.26301   0.31683
     Eigenvalues ---    0.36923   0.37679   0.40330   0.42076   0.43377
     Eigenvalues ---    0.48687   0.55152   0.58078   0.74813
 Eigenvalue     1 is  -1.73D-01 should be greater than     0.000000 Eigenvector:
                          A2        D4        D2        A3        D1
   1                   -0.45698   0.41915  -0.32954   0.31145  -0.29065
[...]
     31  0.361190D-01
     32  0.909331D-02  0.348297D-01
     33  0.929178D-02  0.890702D-02  0.362762D-01
     34  0.871923D-02 -0.172139D-01 -0.181773D-01  0.317521D-01
     35 -0.183065D-01  0.852249D-02 -0.185620D-01  0.581898D-02  0.326480D-01
     36 -0.181080D-01 -0.174002D-01  0.880712D-02  0.485560D-02  0.556343D-02
               36 
     36  0.317707D-01
 Leave Link  716 at Sat May 24 00:35:49 2025, MaxMem=  3758096384 cpu:               0.0 elap:               0.0
 (Enter /apps/easybuild-2022/easybuild/software/Compiler/NVHPC/22.11-CUDA-11.7.0/Gaussian/g16c01-CUDA-11.7.0/g16/l103.exe)

 GradGradGradGradGradGradGradGradGradGradGradGradGradGradGradGradGradGrad
 Berny optimization.
 Red2BG is reusing G-inverse.
 Internal  Forces:  Max     0.000100215 RMS     0.000039386
 Search for a local minimum.
 Step number   1 out of a maximum of    2
 All quantities printed in internal units (Hartrees-Bohrs-Radians)
 Second derivative matrix not updated -- analytic derivatives used.
 ITU=  0
     Eigenvalues ---    0.00335   0.00518   0.06751   0.06933   0.09694
     Eigenvalues ---    0.10246   0.10825   0.15073   0.16812   0.19495
     Eigenvalues ---    0.20172   0.22435   0.24474   0.25212   0.27539
     Eigenvalues ---    0.35998   0.39237   0.40875   0.42047   0.42718
     Eigenvalues ---    0.48192   0.52243   0.58399   0.67061
 Angle between quadratic step and forces=  60.67 degrees.
 Linear search not attempted -- first point.
 Iteration  1 RMS(Cart)=  0.00044123 RMS(Int)=  0.00000013
 Iteration  2 RMS(Cart)=  0.00000014 RMS(Int)=  0.00000002
 ITry= 1 IFail=0 DXMaxC= 1.20D-03 DCOld= 1.00D+10 DXMaxT= 3.00D-01 DXLimC= 3.00D+00 Rises=F
 Variable       Old X    -DE/DX   Delta X   Delta X   Delta X     New X
                                 (Linear)    (Quad)   (Total)
    R1        2.92922   0.00003   0.00000  -0.00013  -0.00013   2.92909
    R2        2.41782  -0.00009   0.00000  -0.00015  -0.00015   2.41768
    R3        2.90468  -0.00002   0.00000   0.00001   0.00001   2.90469
    R4        2.58031   0.00003   0.00000   0.00013   0.00013   2.58044
    R5        2.52803  -0.00002   0.00000  -0.00005  -0.00005   2.52798
    R6        2.50402  -0.00004   0.00000  -0.00003  -0.00003   2.50399
    R7        2.49563  -0.00006   0.00000  -0.00014  -0.00014   2.49549
    R8        2.51927   0.00003   0.00000   0.00004   0.00004   2.51931
    R9        1.85475  -0.00003   0.00000  -0.00005  -0.00005   1.85470
    A1        1.91175   0.00010   0.00000   0.00021   0.00021   1.91196
    A2        1.94089  -0.00004   0.00000  -0.00010  -0.00010   1.94079
    A3        1.97535   0.00007   0.00000   0.00029   0.00029   1.97564
    A4        1.89157   0.00006   0.00000   0.00043   0.00043   1.89201
    A5        1.86542  -0.00003   0.00000  -0.00010  -0.00010   1.86532
    A6        1.91085  -0.00004   0.00000  -0.00029  -0.00029   1.91056
    A7        1.87821  -0.00003   0.00000  -0.00027  -0.00027   1.87794
    A8        1.93116  -0.00004   0.00000  -0.00025  -0.00025   1.93091
    A9        1.93234  -0.00001   0.00000  -0.00002  -0.00002   1.93232
   A10        1.89721   0.00005   0.00000   0.00026   0.00026   1.89747
   A11        1.90166   0.00001   0.00000  -0.00003  -0.00003   1.90162
   A12        1.89738  -0.00001   0.00000  -0.00006  -0.00006   1.89732
   A13        1.90359   0.00000   0.00000   0.00010   0.00010   1.90369
   A14        2.00614  -0.00003   0.00000  -0.00011  -0.00011   2.00603
    D1       -2.07073  -0.00001   0.00000  -0.00072  -0.00072  -2.07145
    D2        0.02937  -0.00003   0.00000  -0.00073  -0.00073   0.02865
    D3        2.11124   0.00002   0.00000  -0.00059  -0.00059   2.11065
    D4        0.00724   0.00001   0.00000   0.00018   0.00018   0.00742
    D5        3.06971   0.00001   0.00000  -0.00036  -0.00036   3.06936
    D6       -1.10324  -0.00001   0.00000  -0.00057  -0.00057  -1.10382
    D7        0.98740   0.00002   0.00000  -0.00030  -0.00030   0.98710
    D8        0.90582  -0.00003   0.00000  -0.00059  -0.00059   0.90523
    D9        3.01605  -0.00006   0.00000  -0.00080  -0.00080   3.01524
   D10       -1.17650  -0.00003   0.00000  -0.00053  -0.00053  -1.17703
   D11       -1.12368   0.00004   0.00000  -0.00007  -0.00007  -1.12375
   D12        0.98655   0.00001   0.00000  -0.00028  -0.00028   0.98626
   D13        3.07719   0.00004   0.00000  -0.00001  -0.00001   3.07718
         Item               Value     Threshold  Converged?
 Maximum Force            0.000100     0.000450     YES
 RMS     Force            0.000039     0.000300     YES
 Maximum Displacement     0.001205     0.001800     YES
 RMS     Displacement     0.000441     0.001200     YES
 Predicted change in Energy=-1.166401D-07
 Optimization completed.
    -- Stationary point found.
                           ----------------------------
                           !   Optimized Parameters   !
                           ! (Angstroms and Degrees)  !
 --------------------------                            --------------------------
 ! Name  Definition              Value          Derivative Info.                !
 --------------------------------------------------------------------------------
 ! R1    R(1,2)                  1.5501         -DE/DX =    0.0                 !
 ! R2    R(1,9)                  1.2795         -DE/DX =   -0.0001              !
 ! R3    R(2,3)                  1.5371         -DE/DX =    0.0                 !
 ! R4    R(2,7)                  1.3654         -DE/DX =    0.0                 !
 ! R5    R(2,8)                  1.3378         -DE/DX =    0.0                 !
 ! R6    R(3,4)                  1.3251         -DE/DX =    0.0                 !
 ! R7    R(3,5)                  1.3206         -DE/DX =   -0.0001              !
 ! R8    R(3,6)                  1.3331         -DE/DX =    0.0                 !
 ! R9    R(9,10)                 0.9815         -DE/DX =    0.0                 !
 ! A1    A(2,1,9)              109.5351         -DE/DX =    0.0001              !
 ! A2    A(1,2,3)              111.2048         -DE/DX =    0.0                 !
 ! A3    A(1,2,7)              113.179          -DE/DX =    0.0001              !
 ! A4    A(1,2,8)              108.3792         -DE/DX =    0.0001              !
 ! A5    A(3,2,7)              106.8807         -DE/DX =    0.0                 !
 ! A6    A(3,2,8)              109.4836         -DE/DX =    0.0                 !
 ! A7    A(7,2,8)              107.6133         -DE/DX =    0.0                 !
 ! A8    A(2,3,4)              110.6473         -DE/DX =    0.0                 !
 ! A9    A(2,3,5)              110.715          -DE/DX =    0.0                 !
 ! A10   A(2,3,6)              108.7019         -DE/DX =    0.0                 !
 ! A11   A(4,3,5)              108.9569         -DE/DX =    0.0                 !
 ! A12   A(4,3,6)              108.7119         -DE/DX =    0.0                 !
 ! A13   A(5,3,6)              109.0676         -DE/DX =    0.0                 !
 ! A14   A(1,9,10)             114.9435         -DE/DX =    0.0                 !
 ! D1    D(9,1,2,3)           -118.644          -DE/DX =    0.0                 !
 ! D2    D(9,1,2,7)              1.683          -DE/DX =    0.0                 !
 ! D3    D(9,1,2,8)            120.9653         -DE/DX =    0.0                 !
 ! D4    D(2,1,9,10)             0.4147         -DE/DX =    0.0                 !
 ! D5    D(1,2,3,4)            175.8816         -DE/DX =    0.0                 !
 ! D6    D(1,2,3,5)            -63.2113         -DE/DX =    0.0                 !
 ! D7    D(1,2,3,6)             56.5738         -DE/DX =    0.0                 !
 ! D8    D(7,2,3,4)             51.8995         -DE/DX =    0.0                 !
 ! D9    D(7,2,3,5)            172.8067         -DE/DX =   -0.0001              !
 ! D10   D(7,2,3,6)            -67.4082         -DE/DX =    0.0                 !
 ! D11   D(8,2,3,4)            -64.3822         -DE/DX =    0.0                 !
 ! D12   D(8,2,3,5)             56.525          -DE/DX =    0.0                 !
 ! D13   D(8,2,3,6)            176.3101         -DE/DX =    0.0                 !
 --------------------------------------------------------------------------------
 GradGradGradGradGradGradGradGradGradGradGradGradGradGradGradGradGradGrad

 Leave Link  103 at Sat May 24 00:35:49 2025, MaxMem=  3758096384 cpu:               0.1 elap:               0.0
 (Enter /apps/easybuild-2022/easybuild/software/Compiler/NVHPC/22.11-CUDA-11.7.0/Gaussian/g16c01-CUDA-11.7.0/g16/l9999.exe)

 ----------------------------------------------------------------------

 Electric dipole moment (input orientation):
 (Debye = 10**-18 statcoulomb cm , SI units = C m)
                  (au)            (Debye)         (10**-30 SI)
   Tot        0.938136D+00      0.238450D+01      0.795384D+01
   x          0.145221D+00      0.369116D+00      0.123124D+01
   y         -0.323099D+00     -0.821236D+00     -0.273935D+01
   z         -0.868686D+00     -0.220798D+01     -0.736503D+01

 Dipole polarizability, Alpha (input orientation).
 (esu units = cm**3 , SI units = C**2 m**2 J**-1)
 Alpha(0;0):
               (au)            (10**-24 esu)      (10**-40 SI)
   iso        0.421913D+02      0.625210D+01      0.695640D+01
   aniso      0.834529D+01      0.123664D+01      0.137595D+01
   xx         0.458402D+02      0.679281D+01      0.755802D+01
   yx        -0.399785D+00     -0.592420D-01     -0.659156D-01
   yy         0.380026D+02      0.563141D+01      0.626578D+01
   zx        -0.230015D+01     -0.340847D+00     -0.379244D+00
   zy         0.147947D+01      0.219235D+00      0.243932D+00
   zz         0.427310D+02      0.633208D+01      0.704539D+01

 ----------------------------------------------------------------------

 Dipole orientation:
     6          3.08734104         -1.20022548         -0.81819820
     6          0.25045929         -0.64649034         -0.34300939
     6         -1.43300853         -2.69369264         -1.53130512
     9         -3.84038276         -2.29152181         -0.97191594
     9         -1.17098741         -2.72116549         -4.01298872
     9         -0.75220285         -4.93619467         -0.60697193
     9         -0.35735053         -0.53779379          2.16233643
     9         -0.30517243          1.59888095         -1.36307368
     8          4.21832284         -1.49871596          1.29785006
     1          3.13275192         -1.34354714          2.79369563

 Electric dipole moment (dipole orientation):
 (Debye = 10**-18 statcoulomb cm , SI units = C m)
                  (au)            (Debye)         (10**-30 SI)
   Tot        0.938136D+00      0.238450D+01      0.795384D+01
   x          0.000000D+00      0.000000D+00      0.000000D+00
   y          0.000000D+00      0.000000D+00      0.000000D+00
   z          0.938136D+00      0.238450D+01      0.795384D+01

 Dipole polarizability, Alpha (dipole orientation).
 (esu units = cm**3 , SI units = C**2 m**2 J**-1)
 Alpha(0;0):
               (au)            (10**-24 esu)      (10**-40 SI)
   iso        0.421913D+02      0.625210D+01      0.695640D+01
   aniso      0.834529D+01      0.123664D+01      0.137595D+01
   xx         0.450472D+02      0.667531D+01      0.742728D+01
   yx        -0.564647D+00     -0.836721D-01     -0.930977D-01
   yy         0.376363D+02      0.557712D+01      0.620538D+01
   zx         0.258610D+01      0.383221D+00      0.426390D+00
   zy        -0.558754D+00     -0.827987D-01     -0.921260D-01
   zz         0.438903D+02      0.650387D+01      0.723654D+01

 ----------------------------------------------------------------------
 Unable to Open any file for archive entry.
 1\1\GINC-SPARTAN-BM209\Freq\RM062X\def2TZVPP\C3H1F5O1\AKHALILOV\24-May
 -2025\0\\#P Geom=AllCheck Guess=TCheck SCRF=Check GenChk RM062X/def2TZ
 VPP Freq\\Gaussian input prepared by ASE\\0,1\C,1.5639820219,0.7903580
 391,0.4350774761\C,0.1122605447,0.3872212697,0.0707682097\C,-0.8348603
 705,1.5957434859,0.1420286806\F,-2.0530066087,1.2588174287,-0.25597852
 78\F,-0.9008157126,2.0655149077,1.3745172474\F,-0.3705099095,2.5508516
 191,-0.6638280776\F,-0.0017424724,-0.1322624351,-1.1868372134\F,-0.294
 5587243,-0.5500309803,0.9343100847\O,2.3327350285,0.5694983421,-0.5635
 475726\H,1.8856828185,0.2039217127,-1.3571614075\\Version=ES64L-G16Rev
 C.01\HF=-689.3257655\RMSD=1.463e-09\RMSF=4.369e-05\ZeroPoint=0.0466412
 \Thermal=0.0546486\ETot=-689.271117\HTot=-689.2701728\GTot=-689.312682
 6\Dipole=0.1452213,-0.323099,-0.8686864\DipoleDeriv=0.5334103,-0.01704
 4,-0.2771022,0.0877317,-0.2647479,0.2138351,-0.3230828,0.1868685,0.381
 6582,0.5132495,0.0727731,-0.0486303,0.1215751,1.0688175,-0.1180901,-0.
 19834,-0.0874016,1.1898014,1.6643935,0.1257323,0.0017731,-0.0359457,1.
 3797748,0.0312062,-0.0003169,-0.0068217,1.5935302,-0.942301,-0.1159996
 ,-0.1520056,-0.0285387,-0.3366285,-0.0410602,-0.1836108,-0.0478209,-0.
 3191237,-0.3287383,0.0696986,0.0858269,0.07666,-0.3907434,-0.2601073,0
 .0393147,-0.1803142,-0.7834098,-0.3966342,-0.0571358,0.1006204,-0.1108
 758,-0.6486079,0.2873999,0.1283835,0.2487962,-0.4912545,-0.4745023,-0.
 0360453,-0.0940151,-0.0969006,-0.4122666,-0.2667337,-0.1540246,-0.1979
 619,-0.7694602,-0.3263482,-0.0810466,0.1417918,-0.1365835,-0.561976,0.
 3023782,0.100296,0.2008319,-0.4677318,-0.6163836,0.0723422,0.3013,0.12
 11485,-0.2019418,-0.0830501,0.5893474,-0.0640174,-0.5688868,0.3738544,
 -0.0332747,-0.059559,0.0017292,0.3683198,-0.065778,0.0020335,-0.052158
 9,0.2348769\Polar=45.8401511,-0.3997847,38.0026128,-2.3001528,1.479469
 5,42.7310206\PG=Unknown\NImag=0\\0.37808893,-0.00747933,0.11319450,-0.
 17541574,0.11420360,0.47929670,-0.11342266,0.00099649,-0.00297645,0.50
 246289,-0.03550796,-0.06327750,-0.01448875,0.01799151,0.55371195,-0.05
 401106,-0.01401691,-0.06698521,-0.04212097,-0.00586117,0.51073783,-0.0
 2093302,0.01513320,0.00523179,-0.12733307,0.09566029,0.00580643,0.6149
 1061,0.01910351,0.01423075,0.00356437,0.04580016,-0.14200479,-0.017616
 39,-0.03066974,0.60848636,0.00044769,0.00345457,0.01015002,-0.00387453
 ,-0.00353091,-0.03793897,-0.00109288,0.01419989,0.60157387,0.00709588,
 0.00759939,0.00179558,-0.05717623,-0.01717520,-0.01944930,-0.29696107,
 -0.02468459,-0.06308668,0.39119088,-0.00295139,-0.00349098,-0.00126480
 ,0.02478749,0.00601919,0.00621499,-0.03267640,-0.08709050,-0.01212468,
 0.09038510,0.09867654,0.00123128,0.00140901,-0.00042978,-0.01038163,-0
 .00432173,-0.00123189,-0.06562398,-0.00930530,-0.09493877,0.10130641,0
 .02970959,0.11631692,-0.00241746,0.00043384,-0.00122703,0.00817769,0.0
 0310695,0.02046230,-0.08517299,0.01980863,0.02459235,-0.00652817,-0.02
 682071,-0.05286367,0.08117547,-0.00213633,-0.00078918,-0.00028225,0.00
 275196,-0.00436462,-0.03273494,0.02101478,-0.13050706,-0.09355145,-0.0
 1832936,-0.00009729,-0.02694446,-0.00182192,0.12330132,-0.00323107,-0.
 00090530,-0.00200489,0.00197872,-0.00472940,-0.02667155,0.03125259,-0.
 10310638,-0.27848765,-0.03712523,-0.02709390,-0.04153623,-0.01785445,0
 .12732118,0.41459814,0.00045693,-0.00116582,-0.00009007,0.01025798,0.0
 0549315,-0.00497164,-0.09297960,-0.03844002,0.03229825,-0.04263621,-0.
 05592123,0.02384450,0.00690647,-0.00695914,0.02217309,0.11791377,-0.00
 303704,-0.00066967,-0.00031376,-0.01944474,-0.02493424,0.03501274,-0.0
 3255475,-0.22356450,0.09818195,-0.04212660,-0.01840736,0.00938120,-0.0
 0300613,0.01951288,0.01496374,0.09067961,0.26203633,0.00112676,0.00069
 151,-0.00171615,0.00960575,0.01015471,-0.01097155,0.02915596,0.1035569
 6,-0.14757908,0.01357285,0.00455420,0.01427073,0.02361808,0.03164164,-
 0.07279777,-0.07141284,-0.15572076,0.21008364,-0.02034752,-0.01734318,
 -0.02924865,-0.07276263,-0.00806596,-0.01406320,0.00244773,0.00672001,
 0.01762902,0.00381603,0.00150589,0.00288049,-0.00307620,0.00583390,0.0
 0452161,0.00057848,0.00179419,-0.00164374,0.08352199,-0.01104346,-0.00
 345768,-0.02074315,-0.00252095,-0.11391285,-0.07334697,-0.01074667,-0.
 01009495,-0.03765707,0.00132015,0.00130987,0.00191903,0.00580740,-0.00
 745698,-0.00476126,0.00106675,-0.00012695,0.00090186,0.01368197,0.1153
 6615,-0.01310603,-0.01715401,-0.03360962,-0.01302798,-0.08971086,-0.20
 043019,-0.00728058,-0.00727760,-0.03327515,0.00200746,0.00149719,0.004
 53436,0.00362259,-0.00544704,-0.00103340,-0.00000600,-0.00322078,0.006
 14732,0.01834617,0.10421559,0.31908921,-0.00639401,-0.02596789,0.02426
 303,-0.09334909,-0.07968970,0.04903912,0.00663737,0.01381320,-0.005220
 68,0.00688802,-0.00085482,0.00078502,0.00017127,-0.00077249,-0.0017310
 6,-0.00054724,0.00531339,-0.00251154,0.00687236,0.00179351,0.00729301,
 0.08842012,-0.00798951,-0.01075918,0.01756084,-0.05701984,-0.22420231,
 0.10427450,-0.02454369,-0.02780193,0.03396392,0.00444747,0.00268490,-0
 .00191569,0.00194859,0.00069512,-0.00236106,0.00518398,-0.01307101,0.0
 0348141,0.00156307,0.01917096,0.01213872,0.08398156,0.25406076,0.00335
 551,0.00156026,-0.00144118,0.04963612,0.12381341,-0.15170775,0.0066656
 6,0.01032346,-0.01435916,-0.00179042,-0.00081747,0.00171921,-0.0017394
 3,0.00034037,0.00607659,-0.00110685,0.00345911,0.00056997,0.01709256,0
 .02715105,-0.07174297,-0.07169772,-0.16800991,0.22916970,-0.24459896,0
 .02239639,0.16023474,-0.05103344,0.01192228,0.04308205,0.00003862,-0.0
 1259058,-0.00259748,-0.00541369,0.00273983,-0.00086362,0.00039600,0.00
 138276,0.00124223,-0.00003011,0.00292137,-0.00125547,-0.00114567,0.002
 37235,0.00720736,-0.00984879,-0.00846665,0.00270231,0.46566729,0.04923
 608,-0.06303243,-0.07418625,-0.01656383,0.02322363,-0.00745309,-0.0036
 5985,-0.00587025,-0.00109805,-0.00154408,0.00125635,-0.00009928,0.0006
 1431,0.00059034,0.00075979,0.00130499,0.00039843,-0.00029021,-0.004889
 71,0.00176565,0.00391315,0.00651510,0.00159647,0.00103853,0.04848054,0
 .12741336,0.23128288,-0.06319382,-0.33441784,0.01573929,-0.01552169,-0
 .01184748,-0.00397204,0.00878193,-0.00380669,0.00407757,-0.00141481,0.
 00140887,0.00105004,-0.00066805,0.00143655,-0.00066804,-0.00226099,0.0
 0214328,-0.01363221,0.00000029,0.00620909,-0.00107007,0.00101646,0.002
 38526,-0.07026321,0.18560084,0.60353250,0.02247191,0.00539693,0.017432
 80,-0.00582143,0.00626464,0.01622627,-0.00065457,0.00113940,0.00090494
 ,-0.00027544,-0.00019376,-0.00031479,0.00036792,-0.00096416,-0.0012264
 2,0.00007953,-0.00053931,-0.00025579,0.00009544,-0.00173104,-0.0050559
 9,0.00115000,0.00089501,-0.00311774,-0.15403124,-0.07949355,-0.1625442
 2,0.13661789,0.00180543,0.01805139,-0.02404986,0.00322175,-0.01025847,
 0.00552724,0.00304282,0.00421686,-0.00183819,0.00010771,-0.00086073,0.
 00016763,-0.00007095,-0.00088453,-0.00008741,-0.00124226,-0.00117392,0
 .00102868,-0.00080019,-0.00256322,0.00104564,-0.00413186,-0.00237378,0
 .00114120,-0.07115829,-0.08734155,-0.11234016,0.06922584,0.08318795,0.
 00831978,-0.02604890,-0.04884204,-0.00457832,0.00419639,-0.00295325,-0
 .00014295,-0.00312095,-0.00133842,-0.00130825,0.00073969,-0.00011342,0
 .00033923,0.00032500,0.00042021,-0.00006039,0.00051754,-0.00015039,-0.
 00188204,0.00232061,0.00411136,0.00085089,-0.00014920,-0.00066968,-0.1
 3948890,-0.10818542,-0.26704354,0.13795095,0.12940523,0.31657918\\-0.0
 0003442,-0.00002165,0.00010950,-0.00008209,0.00001021,-0.00008268,-0.0
 0000975,-0.00001195,-0.00005592,-0.00003865,0.00000465,-0.00000938,0.0
 0001271,0.00004084,0.00005147,0.00001515,-0.00002353,0.00002287,0.0000
 7718,0.00003361,0.00001288,0.00005176,-0.00000781,0.00005319,0.0000116
 7,-0.00000405,-0.00006806,-0.00000356,-0.00002033,-0.00003387\\\@
 The archive entry for this job was punched.


 MARY HAD A LITTLE LAMB
      HIS FEET WERE BLACK AS SOOT,
           AND EVERYWHERE THAT MARY WENT
                HIS SOOTY FOOT HE PUT.

                    -- NONAME
 Job cpu time:       0 days  0 hours 19 minutes 13.0 seconds.
 Elapsed time:       0 days  0 hours  2 minutes 26.5 seconds.
 File lengths (MBytes):  RWF=     89 Int=      0 D2E=      0 Chk=      7 Scr=      1
 Normal termination of Gaussian 16 at Sat May 24 00:35:49 2025.
done
