1
energy = -75.0661577121
O 2.18879100 -0.99733500 0.01028400
