11
energy = -764.4672300880001
C 1.52759200 0.01102900 0.03623600
O 1.93810500 -0.81049500 0.83701900
C 0.00343800 -0.00846000 -0.01425200
C -0.94553400 1.21059400 0.07157200
F -2.20835400 0.82817700 0.03462000
F -0.70142100 1.82888500 1.20932100
F -0.69789400 2.00739800 -0.94971400
F 1.49937300 -0.37926800 -1.47925900
F -0.58844000 -1.10745000 -0.02729700
O 2.01615500 1.29335800 -0.00356400
H 2.12726400 1.55335600 -0.92386900
11
energy = -764.4715577520001
C 1.43272800 0.12300900 0.03137300
O 1.92965300 -0.64465100 0.85530900
C -0.09688700 0.01592900 -0.01295700
C -1.12986100 1.16910200 -0.02338900
F -2.35855100 0.69062600 -0.11471800
F -0.99572000 1.82006000 1.11819200
F -0.88739000 1.96068600 -1.04137400
F 1.46667100 -0.30040000 -1.40293000
F -0.61184600 -1.11866700 0.05100100
O 1.75978900 1.45948200 -0.00497100
H 2.50751700 1.55590200 0.59557300
11
energy = -764.4715142379999
C 1.53391000 0.00013100 0.00063100
O 1.99913100 -0.82993300 0.78143100
C -0.00001100 -0.00001000 -0.00076200
C -0.95009500 1.22088900 0.06081600
F -2.21110000 0.83128800 -0.00995100
F -0.73925300 1.81833600 1.21990400
F -0.68154300 2.03124300 -0.93563500
F 1.49837400 -0.37118700 -1.44801200
F -0.59068800 -1.09823700 0.03867800
O 1.95171800 1.31162500 0.00154400
H 2.72271100 1.33367700 0.57957700
