11
energy = -764.4761972610002
C 1.90559000 0.05144700 0.04261600
O 2.35286000 -0.86361100 0.64244600
C -0.02107400 0.01987200 -0.02712700
C -0.94171800 0.88714100 -0.91143100
F -1.36705900 0.25054700 -1.99242500
F -1.99545300 1.18410300 -0.14670200
F -0.34256300 2.00364900 -1.27023100
F 1.41282200 -0.16029300 -1.31702300
F -0.51895100 -1.15586400 0.03162200
O 2.25036900 1.33770200 0.08422100
H 2.85302900 1.44065900 0.83041600
11
energy = -764.4761621230001
C 2.00729900 -0.03117200 -0.19740300
O 2.47147100 -0.92410100 0.42267300
C 0.08780600 0.05764300 -0.04133000
C -0.88439100 0.90950400 -0.88451700
F -1.47259000 0.21715100 -1.84856500
F -1.81917800 1.33480700 -0.03092000
F -0.27297300 1.95228100 -1.40716800
F 1.34399100 -0.31545600 -1.46837200
F -0.46261800 -1.07523600 0.17602000
O 2.42617900 1.22898200 -0.30514800
H 3.11915700 1.34942500 0.35505000
11
energy = -764.4759946700001
C 2.01733800 -0.00008200 -0.00018900
O 2.45745000 -0.92445000 0.55665500
C 0.00002700 -0.00022100 -0.00009700
C -0.89825400 0.89049900 -0.87856900
F -1.35183700 0.30368500 -1.97202600
F -1.93029600 1.25903300 -0.12579900
F -0.22357800 1.98906300 -1.23435700
F 1.30223100 -0.24433900 -1.32840900
F -0.53640000 -1.16707700 0.06207700
O 2.39924500 1.25471900 -0.00049100
H 1.83927300 1.79080300 -0.57625300
