 Entering Gaussian System, Link 0=g16
 Initial command:
 /apps/easybuild-2022/easybuild/software/Compiler/NVHPC/22.11-CUDA-11.7.0/Gaussian/g16c01-CUDA-11.7.0/g16/l1.exe "/tmp/Gau-11190.inp" -scrdir="/tmp/"
 Entering Link 1 = /apps/easybuild-2022/easybuild/software/Compiler/NVHPC/22.11-CUDA-11.7.0/Gaussian/g16c01-CUDA-11.7.0/g16/l1.exe PID=     11191.
  
 Copyright (c) 1988-2019, Gaussian, Inc.  All Rights Reserved.
  
 This is part of the Gaussian(R) 16 program.  It is based on
 the Gaussian(R) 09 system (copyright 2009, Gaussian, Inc.),
 the Gaussian(R) 03 system (copyright 2003, Gaussian, Inc.),
 the Gaussian(R) 98 system (copyright 1998, Gaussian, Inc.),
 the Gaussian(R) 94 system (copyright 1995, Gaussian, Inc.),
 the Gaussian 92(TM) system (copyright 1992, Gaussian, Inc.),
 the Gaussian 90(TM) system (copyright 1990, Gaussian, Inc.),
 the Gaussian 88(TM) system (copyright 1988, Gaussian, Inc.),
 the Gaussian 86(TM) system (copyright 1986, Carnegie Mellon
 University), and the Gaussian 82(TM) system (copyright 1983,
 Carnegie Mellon University). Gaussian is a federally registered
 trademark of Gaussian, Inc.
  
 This software contains proprietary and confidential information,
 including trade secrets, belonging to Gaussian, Inc.
  
 This software is provided under written license and may be
 used, copied, transmitted, or stored only in accord with that
 written license.
  
 The following legend is applicable only to US Government
 contracts under FAR:
  
                    RESTRICTED RIGHTS LEGEND
  
 Use, reproduction and disclosure by the US Government is
 subject to restrictions as set forth in subparagraphs (a)
 and (c) of the Commercial Computer Software - Restricted
 Rights clause in FAR 52.227-19.
  
 Gaussian, Inc.
 340 Quinnipiac St., Bldg. 40, Wallingford CT 06492
  
  
 ---------------------------------------------------------------
 Warning -- This program may not be used in any manner that
 competes with the business of Gaussian, Inc. or will provide
 assistance to any competitor of Gaussian, Inc.  The licensee
 of this program is prohibited from giving any competitor of
 Gaussian, Inc. access to this program.  By using this program,
 the user acknowledges that Gaussian, Inc. is engaged in the
 business of creating and licensing software in the field of
 computational chemistry and represents and warrants to the
 licensee that it is not a competitor of Gaussian, Inc. and that
 it will not use this program in any manner prohibited above.
 ---------------------------------------------------------------
  

 Cite this work as:
 Gaussian 16, Revision C.01,
 M. J. Frisch, G. W. Trucks, H. B. Schlegel, G. E. Scuseria, 
 M. A. Robb, J. R. Cheeseman, G. Scalmani, V. Barone, 
 G. A. Petersson, H. Nakatsuji, X. Li, M. Caricato, A. V. Marenich, 
 J. Bloino, B. G. Janesko, R. Gomperts, B. Mennucci, H. P. Hratchian, 
 J. V. Ortiz, A. F. Izmaylov, J. L. Sonnenberg, D. Williams-Young, 
 F. Ding, F. Lipparini, F. Egidi, J. Goings, B. Peng, A. Petrone, 
 T. Henderson, D. Ranasinghe, V. G. Zakrzewski, J. Gao, N. Rega, 
 G. Zheng, W. Liang, M. Hada, M. Ehara, K. Toyota, R. Fukuda, 
 J. Hasegawa, M. Ishida, T. Nakajima, Y. Honda, O. Kitao, H. Nakai, 
 T. Vreven, K. Throssell, J. A. Montgomery, Jr., J. E. Peralta, 
 F. Ogliaro, M. J. Bearpark, J. J. Heyd, E. N. Brothers, K. N. Kudin, 
 V. N. Staroverov, T. A. Keith, R. Kobayashi, J. Normand, 
 K. Raghavachari, A. P. Rendell, J. C. Burant, S. S. Iyengar, 
 J. Tomasi, M. Cossi, J. M. Millam, M. Klene, C. Adamo, R. Cammi, 
 J. W. Ochterski, R. L. Martin, K. Morokuma, O. Farkas, 
 J. B. Foresman, and D. J. Fox, Gaussian, Inc., Wallingford CT, 2019.
 
 ******************************************
 Gaussian 16:  ES64L-G16RevC.01  3-Jul-2019
                24-May-2025 
 ******************************************
 %mem=28GB
 %nprocshared=8
 Will use up to    8 processors via shared memory.
 -----------------------------------------------------------------
 #P M062X/Def2TZVPP Symm(None) scf(xqc) pop(None) freq opt(CalcFC)
 -----------------------------------------------------------------
 1/10=4,18=20,19=15,26=3,38=1/1,3;
 2/9=110,12=2,15=3,17=6,18=5,40=1/2;
 3/5=44,7=202,11=2,25=1,30=1,71=2,74=-55,140=1/1,2,3;
 4//1;
 5/5=2,8=3,13=1,38=5/2,8;
 8/6=4,10=90,11=11/1;
 11/6=1,8=1,9=11,15=111,16=1,31=1/1,2,10;
 10/6=1,13=1,31=1/2;
 7/10=1,25=1,30=1/1,2,3,16;
 1/10=4,18=20,19=15,26=3/3(2);
 2/9=110,15=3/2;
 99//99;
 2/9=110,15=3/2;
 3/5=44,7=202,11=2,25=1,30=1,71=1,74=-55/1,2,3;
 4/5=5,16=3,69=1/1;
 5/5=2,8=3,13=1,38=5/2,8;
 7/30=1/1,2,3,16;
 1/18=20,19=15,26=3/3(-5);
 2/9=110,15=3/2;
 99/9=1/99;
 Leave Link    1 at Sat May 24 05:00:48 2025, MaxMem=  3758096384 cpu:               0.0 elap:               0.0
 (Enter /apps/easybuild-2022/easybuild/software/Compiler/NVHPC/22.11-CUDA-11.7.0/Gaussian/g16c01-CUDA-11.7.0/g16/l101.exe)
 ------------------------------
 Gaussian input prepared by ASE
 ------------------------------
 Symbolic Z-matrix:
 Charge =  0 Multiplicity = 1
 C                     0.        0.        0. 
 O                     1.35895   0.        0. 
 C                     2.05099   1.85548   1.41243 
 C                     1.99775   1.22559   0. 
 F                     2.75747   2.97509   1.36911 
 F                     3.24602   0.99517  -0.39556 
 F                     1.43064   2.08069  -0.83856 
 F                     0.83485   2.12755   1.85098 
 F                     2.63406   1.00898   2.25155 
 O                    -0.35683  -1.24212   0.00904 
 H                    -0.89424  -1.49217  -0.76773 
 
 ITRead=  0  0  0  0  0  0  0  0  0  0  0
 MicOpt= -1 -1 -1 -1 -1 -1 -1 -1 -1 -1 -1
 NAtoms=     11 NQM=       11 NQMF=       0 NMMI=      0 NMMIF=      0
                NMic=       0 NMicF=      0.
                    Isotopes and Nuclear Properties:
 (Nuclear quadrupole moments (NQMom) in fm**2, nuclear magnetic moments (NMagM)
  in nuclear magnetons)

  Atom         1           2           3           4           5           6           7           8           9          10
 IAtWgt=          12          16          12          12          19          19          19          19          19          16
 AtmWgt=  12.0000000  15.9949146  12.0000000  12.0000000  18.9984032  18.9984032  18.9984032  18.9984032  18.9984032  15.9949146
 NucSpn=           0           0           0           0           1           1           1           1           1           0
 AtZEff=  -0.0000000  -0.0000000  -0.0000000  -0.0000000  -0.0000000  -0.0000000  -0.0000000  -0.0000000  -0.0000000  -0.0000000
 NQMom=    0.0000000   0.0000000   0.0000000   0.0000000   0.0000000   0.0000000   0.0000000   0.0000000   0.0000000   0.0000000
 NMagM=    0.0000000   0.0000000   0.0000000   0.0000000   2.6288670   2.6288670   2.6288670   2.6288670   2.6288670   0.0000000
 AtZNuc=   6.0000000   8.0000000   6.0000000   6.0000000   9.0000000   9.0000000   9.0000000   9.0000000   9.0000000   8.0000000

  Atom        11
 IAtWgt=           1
 AtmWgt=   1.0078250
 NucSpn=           1
 AtZEff=  -0.0000000
 NQMom=    0.0000000
 NMagM=    2.7928460
 AtZNuc=   1.0000000
 Leave Link  101 at Sat May 24 05:00:48 2025, MaxMem=  3758096384 cpu:               0.2 elap:               0.2
 (Enter /apps/easybuild-2022/easybuild/software/Compiler/NVHPC/22.11-CUDA-11.7.0/Gaussian/g16c01-CUDA-11.7.0/g16/l103.exe)

 GradGradGradGradGradGradGradGradGradGradGradGradGradGradGradGradGradGrad
 Berny optimization.
 Initialization pass.
                           ----------------------------
                           !    Initial Parameters    !
                           ! (Angstroms and Degrees)  !
 --------------------------                            --------------------------
 ! Name  Definition              Value          Derivative Info.                !
 --------------------------------------------------------------------------------
 ! R1    R(1,2)                  1.359          calculate D2E/DX2 analytically  !
 ! R2    R(1,10)                 1.2924         calculate D2E/DX2 analytically  !
 ! R3    R(2,4)                  1.3821         calculate D2E/DX2 analytically  !
 ! R4    R(3,4)                  1.5474         calculate D2E/DX2 analytically  !
 ! R5    R(3,5)                  1.3246         calculate D2E/DX2 analytically  !
 ! R6    R(3,8)                  1.3211         calculate D2E/DX2 analytically  !
 ! R7    R(3,9)                  1.3269         calculate D2E/DX2 analytically  !
 ! R8    R(4,6)                  1.3296         calculate D2E/DX2 analytically  !
 ! R9    R(4,7)                  1.3251         calculate D2E/DX2 analytically  !
 ! R10   R(10,11)                0.9771         calculate D2E/DX2 analytically  !
 ! A1    A(2,1,10)             106.0278         calculate D2E/DX2 analytically  !
 ! A2    A(1,2,4)              117.5295         calculate D2E/DX2 analytically  !
 ! A3    A(4,3,5)              109.4245         calculate D2E/DX2 analytically  !
 ! A4    A(4,3,8)              110.8028         calculate D2E/DX2 analytically  !
 ! A5    A(4,3,9)              109.4297         calculate D2E/DX2 analytically  !
 ! A6    A(5,3,8)              109.1336         calculate D2E/DX2 analytically  !
 ! A7    A(5,3,9)              108.9987         calculate D2E/DX2 analytically  !
 ! A8    A(8,3,9)              109.0235         calculate D2E/DX2 analytically  !
 ! A9    A(2,4,3)              112.1398         calculate D2E/DX2 analytically  !
 ! A10   A(2,4,6)              106.276          calculate D2E/DX2 analytically  !
 ! A11   A(2,4,7)              111.9882         calculate D2E/DX2 analytically  !
 ! A12   A(3,4,6)              108.0472         calculate D2E/DX2 analytically  !
 ! A13   A(3,4,7)              109.2477         calculate D2E/DX2 analytically  !
 ! A14   A(6,4,7)              108.9876         calculate D2E/DX2 analytically  !
 ! A15   A(1,10,11)            113.0952         calculate D2E/DX2 analytically  !
 ! D1    D(10,1,2,4)          -179.583          calculate D2E/DX2 analytically  !
 ! D2    D(2,1,10,11)         -119.9742         calculate D2E/DX2 analytically  !
 ! D3    D(1,2,4,3)             80.2014         calculate D2E/DX2 analytically  !
 ! D4    D(1,2,4,6)           -161.9449         calculate D2E/DX2 analytically  !
 ! D5    D(1,2,4,7)            -43.0353         calculate D2E/DX2 analytically  !
 ! D6    D(5,3,4,2)            175.4067         calculate D2E/DX2 analytically  !
 ! D7    D(5,3,4,6)             58.6116         calculate D2E/DX2 analytically  !
 ! D8    D(5,3,4,7)            -59.8279         calculate D2E/DX2 analytically  !
 ! D9    D(8,3,4,2)            -64.2111         calculate D2E/DX2 analytically  !
 ! D10   D(8,3,4,6)            178.9938         calculate D2E/DX2 analytically  !
 ! D11   D(8,3,4,7)             60.5544         calculate D2E/DX2 analytically  !
 ! D12   D(9,3,4,2)             56.0379         calculate D2E/DX2 analytically  !
 ! D13   D(9,3,4,6)            -60.7572         calculate D2E/DX2 analytically  !
 ! D14   D(9,3,4,7)           -179.1967         calculate D2E/DX2 analytically  !
 --------------------------------------------------------------------------------
 Trust Radius=3.00D-01 FncErr=1.00D-07 GrdErr=1.00D-06 EigMax=2.50D+02 EigMin=1.00D-04
 Number of steps in this run=     49 maximum allowed number of steps=    100.
 GradGradGradGradGradGradGradGradGradGradGradGradGradGradGradGradGradGrad

 Leave Link  103 at Sat May 24 05:00:48 2025, MaxMem=  3758096384 cpu:               0.0 elap:               0.0
 (Enter /apps/easybuild-2022/easybuild/software/Compiler/NVHPC/22.11-CUDA-11.7.0/Gaussian/g16c01-CUDA-11.7.0/g16/l202.exe)
                          Input orientation:                          
 ---------------------------------------------------------------------
 Center     Atomic      Atomic             Coordinates (Angstroms)
 Number     Number       Type             X           Y           Z
 ---------------------------------------------------------------------
      1          6           0        0.000000    0.000000    0.000000
      2          8           0        1.358950    0.000000    0.000000
      3          6           0        2.050989    1.855485    1.412432
      4          6           0        1.997754    1.225588    0.000000
      5          9           0        2.757473    2.975092    1.369111
      6          9           0        3.246022    0.995170   -0.395559
      7          9           0        1.430635    2.080688   -0.838563
      8          9           0        0.834853    2.127548    1.850982
      9          9           0        2.634056    1.008982    2.251552
     10          8           0       -0.356834   -1.242119    0.009041
     11          1           0       -0.894243   -1.492172   -0.767731
 ---------------------------------------------------------------------
                    Distance matrix (angstroms):
                    1          2          3          4          5
     1  C    0.000000
     2  O    1.358950   0.000000
     3  C    3.105534   2.432428   0.000000
     4  C    2.343734   1.382076   1.547439   0.000000
     5  F    4.281272   3.561109   1.324581   2.347850   0.000000
     6  F    3.418112   2.169763   2.331754   1.329561   2.696819
     7  F    2.660671   2.244458   2.345748   1.325145   2.726588
     8  F    2.941016   2.868322   1.321111   2.364743   2.155690
     9  F    3.609125   2.777305   1.326897   2.349741   2.158592
    10  O    1.292390   2.118220   4.166805   3.410827   5.416046
    11  H    1.901489   2.809425   4.963296   4.042187   6.152850
                    6          7          8          9         10
     6  F    0.000000
     7  F    2.161072   0.000000
     8  F    3.484676   2.755142   0.000000
     9  F    2.716963   3.485052   2.156103   0.000000
    10  O    4.260250   3.867108   4.020885   4.363683   0.000000
    11  H    4.844293   4.263263   4.790596   5.274536   0.977093
                   11
    11  H    0.000000
 Symmetry turned off by external request.
 Stoichiometry    C3HF5O2
 Rotational constants (GHZ):           2.0661424           1.0512586           0.9346411
 Leave Link  202 at Sat May 24 05:00:48 2025, MaxMem=  3758096384 cpu:               0.0 elap:               0.0
 (Enter /apps/easybuild-2022/easybuild/software/Compiler/NVHPC/22.11-CUDA-11.7.0/Gaussian/g16c01-CUDA-11.7.0/g16/l301.exe)
 Standard basis: def2TZVPP (5D, 7F)
 Ernie: Thresh=  0.10000D-02 Tol=  0.10000D-05 Strict=F.
   324 basis functions,   527 primitive gaussians,   375 cartesian basis functions
    40 alpha electrons       40 beta electrons
       nuclear repulsion energy       632.3111823945 Hartrees.
 IExCor= 4336 DFT=T Ex+Corr=M062X ExCW=0 ScaHFX=  0.540000
 ScaDFX=  1.000000  1.000000  1.000000  1.000000 ScalE2=  1.000000  1.000000
 IRadAn=      5 IRanWt=     -1 IRanGd=            0 ICorTp=0 IEmpDi=  4
 NAtoms=   11 NActive=   11 NUniq=   11 SFac= 1.00D+00 NAtFMM=   60 NAOKFM=F Big=F
 Integral buffers will be    131072 words long.
 Raffenetti 2 integral format.
 Two-electron integral symmetry is turned off.
 Leave Link  301 at Sat May 24 05:00:48 2025, MaxMem=  3758096384 cpu:               0.0 elap:               0.0
 (Enter /apps/easybuild-2022/easybuild/software/Compiler/NVHPC/22.11-CUDA-11.7.0/Gaussian/g16c01-CUDA-11.7.0/g16/l302.exe)
 NPDir=0 NMtPBC=     1 NCelOv=     1 NCel=       1 NClECP=     1 NCelD=      1
         NCelK=      1 NCelE2=     1 NClLst=     1 CellRange=     0.0.
 One-electron integrals computed using PRISM.
   1 Symmetry operations used in ECPInt.
 ECPInt:  NShTT=    6786 NPrTT=   21959 LenC2=    6386 LenP2D=   15646.
 LDataN:  DoStor=T MaxTD1= 6 Len=  172
 NBasis=   324 RedAO= T EigKep=  4.87D-04  NBF=   324
 NBsUse=   324 1.00D-06 EigRej= -1.00D+00 NBFU=   324
 Precomputing XC quadrature grid using
 IXCGrd= 4 IRadAn=           5 IRanWt=          -1 IRanGd=           0 AccXCQ= 0.00D+00.
 Generated NRdTot=       0 NPtTot=           0 NUsed=           0 NTot=          32
 NSgBfM=   373   373   373   373   373 MxSgAt=    11 MxSgA2=    11.
 Leave Link  302 at Sat May 24 05:00:48 2025, MaxMem=  3758096384 cpu:               0.6 elap:               0.1
 (Enter /apps/easybuild-2022/easybuild/software/Compiler/NVHPC/22.11-CUDA-11.7.0/Gaussian/g16c01-CUDA-11.7.0/g16/l303.exe)
 DipDrv:  MaxL=1.
 Leave Link  303 at Sat May 24 05:00:48 2025, MaxMem=  3758096384 cpu:               0.1 elap:               0.0
 (Enter /apps/easybuild-2022/easybuild/software/Compiler/NVHPC/22.11-CUDA-11.7.0/Gaussian/g16c01-CUDA-11.7.0/g16/l401.exe)
 ExpMin= 9.52D-02 ExpMax= 3.55D+04 ExpMxC= 1.21D+03 IAcc=3 IRadAn=         5 AccDes= 0.00D+00
 Harris functional with IExCor= 1009 and IRadAn=       5 diagonalized for initial guess.
 HarFok:  IExCor= 1009 AccDes= 0.00D+00 IRadAn=         5 IDoV= 1 UseB2=F ITyADJ=14
 ICtDFT=  3500011 ScaDFX=  1.000000  1.000000  1.000000  1.000000
 FoFCou: FMM=F IPFlag=           0 FMFlag=      100000 FMFlg1=           0
         NFxFlg=           0 DoJE=T BraDBF=F KetDBF=T FulRan=T
         wScrn=  0.000000 ICntrl=       500 IOpCl=  0 I1Cent=   200000004 NGrid=           0
         NMat0=    1 NMatS0=      1 NMatT0=    0 NMatD0=    1 NMtDS0=    0 NMtDT0=    0
 Symmetry not used in FoFCou.
 Harris En= -764.092341428078    
 JPrj=0 DoOrth=F DoCkMO=F.
 Leave Link  401 at Sat May 24 05:00:49 2025, MaxMem=  3758096384 cpu:               3.0 elap:               0.4
 (Enter /apps/easybuild-2022/easybuild/software/Compiler/NVHPC/22.11-CUDA-11.7.0/Gaussian/g16c01-CUDA-11.7.0/g16/l502.exe)
 Keep R1 ints in memory in canonical form, NReq=1412617130.
 FoFCou: FMM=F IPFlag=           0 FMFlag=           0 FMFlg1=           0
         NFxFlg=           0 DoJE=F BraDBF=F KetDBF=F FulRan=T
         wScrn=  0.000000 ICntrl=       600 IOpCl=  0 I1Cent=           0 NGrid=           0
         NMat0=    1 NMatS0=  52650 NMatT0=    0 NMatD0=    1 NMtDS0=    0 NMtDT0=    0
 Symmetry not used in FoFCou.
 Two-electron integral symmetry not used.
 Closed shell SCF:
 Using DIIS extrapolation, IDIIS=  1040.
 NGot=  3758096384 LenX=  2371771924 LenY=  2371630858
 Requested convergence on RMS density matrix=1.00D-08 within  32 cycles.
 Requested convergence on MAX density matrix=1.00D-06.
 Requested convergence on             energy=1.00D-06.
 No special actions if energy rises.
 Integral accuracy reduced to 1.0D-05 until final iterations.

 Cycle   1  Pass 0  IDiag  1:
 E= -764.439314454116    
 DIIS: error= 1.72D-02 at cycle   1 NSaved=   1.
 NSaved= 1 IEnMin= 1 EnMin= -764.439314454116     IErMin= 1 ErrMin= 1.72D-02
 ErrMax= 1.72D-02  0.00D+00 EMaxC= 1.00D-01 BMatC= 3.03D-01 BMatP= 3.03D-01
 IDIUse=3 WtCom= 8.28D-01 WtEn= 1.72D-01
 Coeff-Com:  0.100D+01
 Coeff-En:   0.100D+01
 Coeff:      0.100D+01
 Gap=     0.290 Goal=   None    Shift=    0.000
 GapD=    0.290 DampG=1.000 DampE=0.500 DampFc=0.5000 IDamp=-1.
 Damping current iteration by 5.00D-01
 RMSDP=1.75D-03 MaxDP=8.87D-02              OVMax= 1.13D-01

 Cycle   2  Pass 0  IDiag  1:
 E= -764.499899805516     Delta-E=       -0.060585351400 Rises=F Damp=T
 DIIS: error= 6.99D-03 at cycle   2 NSaved=   2.
 NSaved= 2 IEnMin= 2 EnMin= -764.499899805516     IErMin= 2 ErrMin= 6.99D-03
 ErrMax= 6.99D-03  0.00D+00 EMaxC= 1.00D-01 BMatC= 3.20D-02 BMatP= 3.03D-01
 IDIUse=3 WtCom= 9.30D-01 WtEn= 6.99D-02
 Coeff-Com: -0.343D-01 0.103D+01
 Coeff-En:   0.793D-01 0.921D+00
 Coeff:     -0.263D-01 0.103D+01
 Gap=     0.306 Goal=   None    Shift=    0.000
 RMSDP=5.44D-04 MaxDP=2.41D-02 DE=-6.06D-02 OVMax= 6.19D-02

 Cycle   3  Pass 0  IDiag  1:
 E= -764.572622113845     Delta-E=       -0.072722308329 Rises=F Damp=F
 DIIS: error= 2.66D-03 at cycle   3 NSaved=   3.
 NSaved= 3 IEnMin= 3 EnMin= -764.572622113845     IErMin= 3 ErrMin= 2.66D-03
 ErrMax= 2.66D-03  0.00D+00 EMaxC= 1.00D-01 BMatC= 6.53D-03 BMatP= 3.20D-02
 IDIUse=3 WtCom= 9.73D-01 WtEn= 2.66D-02
 Coeff-Com: -0.124D+00 0.273D+00 0.851D+00
 Coeff-En:   0.000D+00 0.000D+00 0.100D+01
 Coeff:     -0.121D+00 0.266D+00 0.855D+00
 Gap=     0.299 Goal=   None    Shift=    0.000
 RMSDP=1.86D-04 MaxDP=1.18D-02 DE=-7.27D-02 OVMax= 1.36D-02

 Cycle   4  Pass 0  IDiag  1:
 E= -764.576501396806     Delta-E=       -0.003879282961 Rises=F Damp=F
 DIIS: error= 6.40D-04 at cycle   4 NSaved=   4.
 NSaved= 4 IEnMin= 4 EnMin= -764.576501396806     IErMin= 4 ErrMin= 6.40D-04
 ErrMax= 6.40D-04  0.00D+00 EMaxC= 1.00D-01 BMatC= 3.90D-04 BMatP= 6.53D-03
 IDIUse=3 WtCom= 9.94D-01 WtEn= 6.40D-03
 Coeff-Com: -0.511D-01 0.976D-01 0.375D+00 0.578D+00
 Coeff-En:   0.000D+00 0.000D+00 0.000D+00 0.100D+01
 Coeff:     -0.508D-01 0.970D-01 0.373D+00 0.581D+00
 Gap=     0.298 Goal=   None    Shift=    0.000
 RMSDP=4.80D-05 MaxDP=4.13D-03 DE=-3.88D-03 OVMax= 4.30D-03

 Cycle   5  Pass 0  IDiag  1:
 E= -764.576771478435     Delta-E=       -0.000270081630 Rises=F Damp=F
 DIIS: error= 1.90D-04 at cycle   5 NSaved=   5.
 NSaved= 5 IEnMin= 5 EnMin= -764.576771478435     IErMin= 5 ErrMin= 1.90D-04
 ErrMax= 1.90D-04  0.00D+00 EMaxC= 1.00D-01 BMatC= 3.08D-05 BMatP= 3.90D-04
 IDIUse=3 WtCom= 9.98D-01 WtEn= 1.90D-03
 Coeff-Com: -0.124D-01 0.212D-01 0.925D-01 0.257D+00 0.642D+00
 Coeff-En:   0.000D+00 0.000D+00 0.000D+00 0.000D+00 0.100D+01
 Coeff:     -0.123D-01 0.212D-01 0.923D-01 0.256D+00 0.643D+00
 Gap=     0.298 Goal=   None    Shift=    0.000
 RMSDP=1.09D-05 MaxDP=6.16D-04 DE=-2.70D-04 OVMax= 1.26D-03

 Cycle   6  Pass 0  IDiag  1:
 E= -764.576791112573     Delta-E=       -0.000019634138 Rises=F Damp=F
 DIIS: error= 7.90D-05 at cycle   6 NSaved=   6.
 NSaved= 6 IEnMin= 6 EnMin= -764.576791112573     IErMin= 6 ErrMin= 7.90D-05
 ErrMax= 7.90D-05  0.00D+00 EMaxC= 1.00D-01 BMatC= 2.78D-06 BMatP= 3.08D-05
 IDIUse=1 WtCom= 1.00D+00 WtEn= 0.00D+00
 Coeff-Com: -0.556D-03-0.737D-04 0.593D-03 0.428D-01 0.254D+00 0.703D+00
 Coeff:     -0.556D-03-0.737D-04 0.593D-03 0.428D-01 0.254D+00 0.703D+00
 Gap=     0.298 Goal=   None    Shift=    0.000
 RMSDP=5.04D-06 MaxDP=4.52D-04 DE=-1.96D-05 OVMax= 4.28D-04

 Initial convergence to 1.0D-05 achieved.  Increase integral accuracy.
 Cycle   7  Pass 1  IDiag  1:
 E= -764.576828389077     Delta-E=       -0.000037276504 Rises=F Damp=F
 DIIS: error= 2.29D-05 at cycle   1 NSaved=   1.
 NSaved= 1 IEnMin= 1 EnMin= -764.576828389077     IErMin= 1 ErrMin= 2.29D-05
 ErrMax= 2.29D-05  0.00D+00 EMaxC= 1.00D-01 BMatC= 7.31D-07 BMatP= 7.31D-07
 IDIUse=1 WtCom= 1.00D+00 WtEn= 0.00D+00
 Coeff-Com:  0.100D+01
 Coeff:      0.100D+01
 Gap=     0.298 Goal=   None    Shift=    0.000
 RMSDP=5.04D-06 MaxDP=4.52D-04 DE=-3.73D-05 OVMax= 2.16D-04

 Cycle   8  Pass 1  IDiag  1:
 E= -764.576828915773     Delta-E=       -0.000000526697 Rises=F Damp=F
 DIIS: error= 2.09D-05 at cycle   2 NSaved=   2.
 NSaved= 2 IEnMin= 2 EnMin= -764.576828915773     IErMin= 2 ErrMin= 2.09D-05
 ErrMax= 2.09D-05  0.00D+00 EMaxC= 1.00D-01 BMatC= 1.72D-07 BMatP= 7.31D-07
 IDIUse=1 WtCom= 1.00D+00 WtEn= 0.00D+00
 Coeff-Com:  0.242D+00 0.758D+00
 Coeff:      0.242D+00 0.758D+00
 Gap=     0.298 Goal=   None    Shift=    0.000
 RMSDP=1.53D-06 MaxDP=1.10D-04 DE=-5.27D-07 OVMax= 1.15D-04

 Cycle   9  Pass 1  IDiag  1:
 E= -764.576828987043     Delta-E=       -0.000000071270 Rises=F Damp=F
 DIIS: error= 9.71D-06 at cycle   3 NSaved=   3.
 NSaved= 3 IEnMin= 3 EnMin= -764.576828987043     IErMin= 3 ErrMin= 9.71D-06
 ErrMax= 9.71D-06  0.00D+00 EMaxC= 1.00D-01 BMatC= 8.21D-08 BMatP= 1.72D-07
 IDIUse=1 WtCom= 1.00D+00 WtEn= 0.00D+00
 Coeff-Com: -0.312D-01 0.404D+00 0.627D+00
 Coeff:     -0.312D-01 0.404D+00 0.627D+00
 Gap=     0.298 Goal=   None    Shift=    0.000
 RMSDP=6.35D-07 MaxDP=3.36D-05 DE=-7.13D-08 OVMax= 5.12D-05

 Cycle  10  Pass 1  IDiag  1:
 E= -764.576829042472     Delta-E=       -0.000000055429 Rises=F Damp=F
 DIIS: error= 1.82D-06 at cycle   4 NSaved=   4.
 NSaved= 4 IEnMin= 4 EnMin= -764.576829042472     IErMin= 4 ErrMin= 1.82D-06
 ErrMax= 1.82D-06  0.00D+00 EMaxC= 1.00D-01 BMatC= 2.97D-09 BMatP= 8.21D-08
 IDIUse=1 WtCom= 1.00D+00 WtEn= 0.00D+00
 Coeff-Com: -0.226D-01 0.136D+00 0.271D+00 0.616D+00
 Coeff:     -0.226D-01 0.136D+00 0.271D+00 0.616D+00
 Gap=     0.298 Goal=   None    Shift=    0.000
 RMSDP=1.40D-07 MaxDP=6.18D-06 DE=-5.54D-08 OVMax= 1.04D-05

 Cycle  11  Pass 1  IDiag  1:
 E= -764.576829044634     Delta-E=       -0.000000002162 Rises=F Damp=F
 DIIS: error= 5.06D-07 at cycle   5 NSaved=   5.
 NSaved= 5 IEnMin= 5 EnMin= -764.576829044634     IErMin= 5 ErrMin= 5.06D-07
 ErrMax= 5.06D-07  0.00D+00 EMaxC= 1.00D-01 BMatC= 1.88D-10 BMatP= 2.97D-09
 IDIUse=1 WtCom= 1.00D+00 WtEn= 0.00D+00
 Coeff-Com:  0.138D-03-0.340D-01-0.266D-01 0.136D+00 0.924D+00
 Coeff:      0.138D-03-0.340D-01-0.266D-01 0.136D+00 0.924D+00
 Gap=     0.298 Goal=   None    Shift=    0.000
 RMSDP=5.45D-08 MaxDP=4.00D-06 DE=-2.16D-09 OVMax= 5.71D-06

 Cycle  12  Pass 1  IDiag  1:
 E= -764.576829044816     Delta-E=       -0.000000000181 Rises=F Damp=F
 DIIS: error= 2.21D-07 at cycle   6 NSaved=   6.
 NSaved= 6 IEnMin= 6 EnMin= -764.576829044816     IErMin= 6 ErrMin= 2.21D-07
 ErrMax= 2.21D-07  0.00D+00 EMaxC= 1.00D-01 BMatC= 4.49D-11 BMatP= 1.88D-10
 IDIUse=1 WtCom= 1.00D+00 WtEn= 0.00D+00
 Coeff-Com:  0.212D-02-0.304D-01-0.377D-01 0.126D-01 0.450D+00 0.603D+00
 Coeff:      0.212D-02-0.304D-01-0.377D-01 0.126D-01 0.450D+00 0.603D+00
 Gap=     0.298 Goal=   None    Shift=    0.000
 RMSDP=1.56D-08 MaxDP=1.06D-06 DE=-1.81D-10 OVMax= 1.79D-06

 Cycle  13  Pass 1  IDiag  1:
 E= -764.576829044845     Delta-E=       -0.000000000029 Rises=F Damp=F
 DIIS: error= 4.65D-08 at cycle   7 NSaved=   7.
 NSaved= 7 IEnMin= 7 EnMin= -764.576829044845     IErMin= 7 ErrMin= 4.65D-08
 ErrMax= 4.65D-08  0.00D+00 EMaxC= 1.00D-01 BMatC= 1.70D-12 BMatP= 4.49D-11
 IDIUse=1 WtCom= 1.00D+00 WtEn= 0.00D+00
 Coeff-Com:  0.519D-03-0.411D-02-0.620D-02-0.988D-02 0.880D-02 0.126D+00
 Coeff-Com:  0.885D+00
 Coeff:      0.519D-03-0.411D-02-0.620D-02-0.988D-02 0.880D-02 0.126D+00
 Coeff:      0.885D+00
 Gap=     0.298 Goal=   None    Shift=    0.000
 RMSDP=6.03D-09 MaxDP=2.45D-07 DE=-2.93D-11 OVMax= 7.71D-07

 SCF Done:  E(RM062X) =  -764.576829045     A.U. after   13 cycles
            NFock= 13  Conv=0.60D-08     -V/T= 2.0036
 KE= 7.618096600668D+02 PE=-3.076841094589D+03 EE= 9.181434230832D+02
 Leave Link  502 at Sat May 24 05:01:13 2025, MaxMem=  3758096384 cpu:             104.8 elap:              24.1
 (Enter /apps/easybuild-2022/easybuild/software/Compiler/NVHPC/22.11-CUDA-11.7.0/Gaussian/g16c01-CUDA-11.7.0/g16/l508.exe)
 QCSCF skips out because SCF is already converged.
 Leave Link  508 at Sat May 24 05:01:13 2025, MaxMem=  3758096384 cpu:               0.0 elap:               0.0
 (Enter /apps/easybuild-2022/easybuild/software/Compiler/NVHPC/22.11-CUDA-11.7.0/Gaussian/g16c01-CUDA-11.7.0/g16/l801.exe)
 DoSCS=F DFT=T ScalE2(SS,OS)=  1.000000  1.000000
 Range of M.O.s used for correlation:     1   324
 NBasis=   324 NAE=    40 NBE=    40 NFC=     0 NFV=     0
 NROrb=    324 NOA=    40 NOB=    40 NVA=   284 NVB=   284

 **** Warning!!: The largest alpha MO coefficient is  0.15542665D+02

 Leave Link  801 at Sat May 24 05:01:13 2025, MaxMem=  3758096384 cpu:               0.0 elap:               0.0
 (Enter /apps/easybuild-2022/easybuild/software/Compiler/NVHPC/22.11-CUDA-11.7.0/Gaussian/g16c01-CUDA-11.7.0/g16/l1101.exe)
 Using compressed storage, NAtomX=    11.
 Will process     12 centers per pass.
   1 Symmetry operations used in ECPInt.
 ECPInt:  NShTT=    6786 NPrTT=   21959 LenC2=    6386 LenP2D=   15646.
 LDataN:  DoStor=T MaxTD1= 7 Len=  274
 Leave Link 1101 at Sat May 24 05:01:13 2025, MaxMem=  3758096384 cpu:               0.8 elap:               0.2
 (Enter /apps/easybuild-2022/easybuild/software/Compiler/NVHPC/22.11-CUDA-11.7.0/Gaussian/g16c01-CUDA-11.7.0/g16/l1102.exe)
 Symmetrizing basis deriv contribution to polar:
 IMax=3 JMax=2 DiffMx= 0.00D+00
 Leave Link 1102 at Sat May 24 05:01:13 2025, MaxMem=  3758096384 cpu:               0.1 elap:               0.0
 (Enter /apps/easybuild-2022/easybuild/software/Compiler/NVHPC/22.11-CUDA-11.7.0/Gaussian/g16c01-CUDA-11.7.0/g16/l1110.exe)
 Forming Gx(P) for the SCF density, NAtomX=    11.
 Integral derivatives from FoFJK, PRISM(SPDF).
 Do as many integral derivatives as possible in FoFJK.
 G2DrvN: MDV=    3758095115.
 G2DrvN: will do    12 centers at a time, making    1 passes.
 Calling FoFCou, ICntrl=  3107 FMM=F I1Cent=   0 AccDes= 0.00D+00.
 FoFJK:  IHMeth= 1 ICntrl=    3107 DoSepK=F KAlg= 0 I1Cent=           0 FoldK=F
 IRaf=         0 NMat=       1 IRICut=       1 DoRegI=T DoRafI=F ISym2E= 0 IDoP0=0 IntGTp=1.
 FoFCou: FMM=F IPFlag=           0 FMFlag=      100000 FMFlg1=           0
         NFxFlg=           0 DoJE=F BraDBF=F KetDBF=F FulRan=T
         wScrn=  0.000000 ICntrl=      3107 IOpCl=  0 I1Cent=           0 NGrid=           0
         NMat0=    1 NMatS0=      1 NMatT0=    0 NMatD0=    1 NMtDS0=    0 NMtDT0=    0
 Symmetry not used in FoFCou.
 End of G2Drv F.D. properties file   721 does not exist.
 End of G2Drv F.D. properties file   722 does not exist.
 End of G2Drv F.D. properties file   788 does not exist.
 Leave Link 1110 at Sat May 24 05:01:51 2025, MaxMem=  3758096384 cpu:             298.3 elap:              37.6
 (Enter /apps/easybuild-2022/easybuild/software/Compiler/NVHPC/22.11-CUDA-11.7.0/Gaussian/g16c01-CUDA-11.7.0/g16/l1002.exe)
 Minotr:  Closed shell wavefunction.
          IDoAtm=11111111111
          Direct CPHF calculation.
          Differentiating once with respect to nuclear coordinates.
          Requested convergence is 1.0D-08 RMS, and 1.0D-07 maximum.
          Secondary convergence is 1.0D-12 RMS, and 1.0D-12 maximum.
          NewPWx=T KeepS1=F KeepF1=F KeepIn=T MapXYZ=F SortEE=F KeepMc=T.
         3321 words used for storage of precomputed grid.
 Keep R1 ints in memory in canonical form, NReq=1412622551.
 FoFCou: FMM=F IPFlag=           0 FMFlag=           0 FMFlg1=           0
         NFxFlg=           0 DoJE=F BraDBF=F KetDBF=F FulRan=T
         wScrn=  0.000000 ICntrl=       600 IOpCl=  0 I1Cent=           0 NGrid=           0
         NMat0=    1 NMatS0=  52650 NMatT0=    0 NMatD0=    1 NMtDS0=    0 NMtDT0=    0
 Symmetry not used in FoFCou.
 Two-electron integral symmetry not used.
          MDV=    3758096384 using IRadAn=       1.
          Solving linear equations simultaneously, MaxMat=       0.
          There are    36 degrees of freedom in the 1st order CPHF.  IDoFFX=6 NUNeed=     0.
     30 vectors produced by pass  0 Test12= 3.16D-14 2.78D-09 XBig12= 1.15D-01 2.20D-01.
 AX will form    30 AO Fock derivatives at one time.
     30 vectors produced by pass  1 Test12= 3.16D-14 2.78D-09 XBig12= 1.77D-02 3.90D-02.
     30 vectors produced by pass  2 Test12= 3.16D-14 2.78D-09 XBig12= 1.04D-03 5.42D-03.
     30 vectors produced by pass  3 Test12= 3.16D-14 2.78D-09 XBig12= 1.59D-05 8.26D-04.
     30 vectors produced by pass  4 Test12= 3.16D-14 2.78D-09 XBig12= 3.38D-07 1.28D-04.
     30 vectors produced by pass  5 Test12= 3.16D-14 2.78D-09 XBig12= 3.98D-09 9.31D-06.
     30 vectors produced by pass  6 Test12= 3.16D-14 2.78D-09 XBig12= 2.86D-11 5.78D-07.
     14 vectors produced by pass  7 Test12= 3.16D-14 2.78D-09 XBig12= 1.36D-13 3.81D-08.
      1 vectors produced by pass  8 Test12= 3.16D-14 2.78D-09 XBig12= 8.74D-16 4.74D-09.
 InvSVY:  IOpt=1 It=  1 EMax= 1.22D-15
 Solved reduced A of dimension   225 with    30 vectors.
 End of Minotr F.D. properties file   721 does not exist.
 End of Minotr F.D. properties file   722 does not exist.
 End of Minotr F.D. properties file   788 does not exist.
 Leave Link 1002 at Sat May 24 05:02:40 2025, MaxMem=  3758096384 cpu:             385.6 elap:              49.8
 (Enter /apps/easybuild-2022/easybuild/software/Compiler/NVHPC/22.11-CUDA-11.7.0/Gaussian/g16c01-CUDA-11.7.0/g16/l701.exe)
 ... and contract with generalized density number  0.
 Compute integral second derivatives.
   1 Symmetry operations used in ECPInt.
 ECPInt:  NShTT=    6786 NPrTT=   21959 LenC2=    6386 LenP2D=   15646.
 LDataN:  DoStor=T MaxTD1= 8 Len=  415
 Leave Link  701 at Sat May 24 05:02:41 2025, MaxMem=  3758096384 cpu:               0.7 elap:               0.1
 (Enter /apps/easybuild-2022/easybuild/software/Compiler/NVHPC/22.11-CUDA-11.7.0/Gaussian/g16c01-CUDA-11.7.0/g16/l702.exe)
 L702 exits ... SP integral derivatives will be done elsewhere.
 Leave Link  702 at Sat May 24 05:02:41 2025, MaxMem=  3758096384 cpu:               0.0 elap:               0.0
 (Enter /apps/easybuild-2022/easybuild/software/Compiler/NVHPC/22.11-CUDA-11.7.0/Gaussian/g16c01-CUDA-11.7.0/g16/l703.exe)
 Integral derivatives from FoFJK, PRISM(SPDF).
 Compute integral second derivatives, UseDBF=F ICtDFT=           0.
 Calling FoFJK, ICntrl=    100127 FMM=F ISym2X=0 I1Cent= 0 IOpClX= 0 NMat=1 NMatS=1 NMatT=0.
 FoFJK:  IHMeth= 1 ICntrl=  100127 DoSepK=F KAlg= 0 I1Cent=           0 FoldK=F
 IRaf=         0 NMat=       1 IRICut=       1 DoRegI=T DoRafI=F ISym2E= 0 IDoP0=0 IntGTp=1.
 FoFCou: FMM=F IPFlag=           0 FMFlag=      100000 FMFlg1=         800
         NFxFlg=           0 DoJE=F BraDBF=F KetDBF=F FulRan=T
         wScrn=  0.000000 ICntrl=    100127 IOpCl=  0 I1Cent=           0 NGrid=           0
         NMat0=    1 NMatS0=      1 NMatT0=    0 NMatD0=    1 NMtDS0=    0 NMtDT0=    0
 Symmetry not used in FoFCou.
 Leave Link  703 at Sat May 24 05:04:04 2025, MaxMem=  3758096384 cpu:             664.1 elap:              83.6
 (Enter /apps/easybuild-2022/easybuild/software/Compiler/NVHPC/22.11-CUDA-11.7.0/Gaussian/g16c01-CUDA-11.7.0/g16/l716.exe)
 Dipole        =-4.89655926D-01-6.72392154D-01-5.29103128D-01
 Polarizability= 0.00000000D+00 0.00000000D+00 0.00000000D+00
                 0.00000000D+00 0.00000000D+00 0.00000000D+00
 -------------------------------------------------------------------
 Center     Atomic                   Forces (Hartrees/Bohr)
 Number     Number              X              Y              Z
 -------------------------------------------------------------------
      1        6           0.006160303    0.031668272   -0.015853551
      2        8          -0.008880814   -0.007642054    0.009025339
      3        6           0.000947598   -0.001352074   -0.000122290
      4        6          -0.001816024   -0.001311784    0.003651265
      5        9           0.000094504    0.000596327    0.000102303
      6        9          -0.000631845    0.000175134   -0.000418879
      7        9          -0.000007340    0.001208448   -0.001037267
      8        9          -0.000437624    0.000368295    0.000254660
      9        9          -0.000234675    0.000698381   -0.000217067
     10        8           0.010523222   -0.034573545   -0.013833348
     11        1          -0.005717306    0.010164601    0.018448834
 -------------------------------------------------------------------
 Cartesian Forces:  Max     0.034573545 RMS     0.010313681
 Force constants in Cartesian coordinates: 
                1             2             3             4             5 
      1  0.337998D+00
      2  0.292543D-01  0.589575D+00
      3  0.165132D-01 -0.105630D-01 -0.123092D-02
      4 -0.234326D+00  0.844316D-01 -0.865358D-02  0.452160D+00
      5  0.851143D-01 -0.914369D-01  0.977707D-02  0.100647D+00  0.414662D+00
      6  0.331085D-02  0.131950D-01  0.213592D-01  0.191214D-02 -0.408348D-02
      7  0.113982D-01 -0.405685D-02  0.526050D-02 -0.120882D-01 -0.194139D-01
      8 -0.478063D-02 -0.367600D-02 -0.321250D-02 -0.757019D-02 -0.255232D-01
      9 -0.165715D-01 -0.492838D-02 -0.190478D-04  0.174968D-01  0.773463D-02
     10 -0.357174D-01 -0.493481D-01 -0.254297D-02 -0.102984D+00 -0.379907D-01
     11 -0.674486D-01 -0.207367D-01 -0.405790D-04 -0.191827D-01 -0.211340D+00
     12  0.162576D-01  0.471940D-03 -0.193022D-01 -0.200218D-01 -0.259811D-01
     13  0.152522D-02  0.130697D-02 -0.139322D-02 -0.135089D-02 -0.170521D-02
     14  0.657539D-02  0.195520D-02 -0.979166D-03 -0.676865D-02 -0.475017D-02
     15  0.550666D-02  0.113222D-02 -0.127076D-03 -0.655890D-02 -0.606716D-02
     16  0.151009D-01  0.340125D-03  0.227054D-02 -0.748649D-01 -0.250545D-01
     17  0.646361D-02 -0.585261D-03  0.697866D-03 -0.558078D-01  0.101884D-02
     18 -0.333533D-02 -0.100834D-02  0.138132D-02  0.126395D-01  0.705283D-02
     19 -0.789437D-02 -0.257818D-02  0.384550D-02  0.180536D-01 -0.335582D-02
     20  0.180000D-01  0.103281D-02  0.316136D-02 -0.784494D-02 -0.599050D-01
     21 -0.105598D-01  0.111444D-03  0.257871D-02  0.991182D-02  0.246674D-01
     22 -0.821187D-02  0.174836D-03 -0.489669D-02  0.954993D-02  0.264958D-02
     23  0.253132D-03 -0.316554D-03 -0.263626D-02 -0.831102D-03  0.292470D-02
     24  0.271229D-02 -0.622839D-03 -0.207845D-02 -0.635356D-02 -0.211762D-03
     25 -0.541363D-03  0.107405D-02 -0.820951D-03  0.119029D-02  0.289785D-03
     26  0.174683D-02 -0.906952D-05  0.948964D-03 -0.146065D-02  0.337428D-02
     27  0.313544D-02  0.221821D-02 -0.106236D-03 -0.290049D-02 -0.412718D-02
     28 -0.602755D-01 -0.500160D-01  0.245977D-02 -0.588120D-01 -0.979354D-01
     29 -0.473540D-01 -0.464628D+00  0.149044D-01 -0.895255D-01 -0.246559D-01
     30 -0.180487D-01 -0.100754D-01 -0.360464D-02 -0.560346D-02 -0.121770D-01
     31 -0.190551D-01 -0.105828D-01 -0.120421D-01  0.347252D-02 -0.324457D-02
     32 -0.278243D-01 -0.111752D-01 -0.120581D-01  0.391328D-02 -0.436888D-02
     33  0.107927D-02  0.100691D-01  0.114926D-02  0.813155D-02  0.341576D-02
                6             7             8             9            10 
      6  0.719400D-01
      7 -0.176639D-01  0.606741D+00
      8 -0.193533D-01  0.449370D-03  0.606496D+00
      9  0.103397D-01 -0.483173D-02  0.189644D-01  0.634324D+00
     10 -0.429191D-02 -0.387941D-01 -0.508878D-02 -0.542669D-02  0.602976D+00
     11 -0.220476D-01 -0.460435D-02 -0.709952D-01 -0.674834D-01 -0.204537D-01
     12 -0.877758D-01 -0.725705D-02 -0.705322D-01 -0.189463D+00 -0.548687D-03
     13 -0.306015D-02 -0.139923D+00 -0.108484D+00 -0.139611D-01 -0.935835D-02
     14 -0.812213D-02 -0.106349D+00 -0.256277D+00 -0.265196D-01 -0.240009D-01
     15 -0.628289D-02 -0.768198D-02 -0.168688D-01 -0.876664D-01 -0.156639D-01
     16  0.158422D-01 -0.330299D-01  0.273277D-02  0.323829D-02 -0.266100D+00
     17  0.150242D-01  0.194087D-01 -0.661907D-03 -0.311832D-02  0.440095D-01
     18  0.991085D-02  0.416781D-01 -0.378065D-02 -0.386666D-02  0.797767D-01
     19  0.695218D-02 -0.486667D-02  0.124484D-01 -0.713665D-02 -0.113811D+00
     20  0.385576D-01  0.412640D-02 -0.658031D-02  0.418024D-02  0.550455D-01
     21  0.195259D-02 -0.236744D-01  0.417732D-01 -0.215468D-01 -0.664990D-01
     22  0.328171D-02 -0.267297D+00  0.561264D-01  0.979881D-01 -0.271293D-01
     23  0.117650D-02  0.518065D-01 -0.934108D-01 -0.314806D-01  0.200360D-01
     24 -0.190363D-03  0.869552D-01 -0.311774D-01 -0.132191D+00  0.398880D-01
     25  0.291449D-03 -0.118710D+00  0.539637D-01 -0.753161D-01 -0.567702D-02
     26 -0.153895D-02  0.567458D-01 -0.150888D+00  0.948385D-01  0.474605D-02
     27 -0.663974D-03 -0.703942D-01  0.833803D-01 -0.209037D+00 -0.236953D-01
     28 -0.908617D-02 -0.357112D-02  0.665714D-03  0.586229D-02 -0.562195D-03
     29 -0.509168D-02  0.326118D-02  0.183638D-02  0.821332D-02  0.152519D-01
     30 -0.175207D-01 -0.170883D-02  0.115299D-02 -0.584485D-03 -0.807386D-03
     31  0.251163D-02  0.141036D-03 -0.462854D-03 -0.134168D-02 -0.284239D-02
     32 -0.771617D-02 -0.137391D-02 -0.320518D-03 -0.400778D-03 -0.220664D-02
     33 -0.306870D-02 -0.681596D-03 -0.345937D-03 -0.288851D-03 -0.188927D-03
               11            12            13            14            15 
     11  0.560448D+00
     12  0.908821D-02  0.627043D+00
     13 -0.162236D-01  0.613335D-02  0.187995D+00
     14 -0.321897D-01  0.113669D-01  0.167399D+00  0.347847D+00
     15 -0.232153D-01  0.746771D-02 -0.659015D-02 -0.121506D-01  0.743249D-01
     16  0.463496D-01  0.906576D-01  0.594498D-02  0.235066D-02 -0.343186D-04
     17 -0.831469D-01 -0.245668D-01  0.138623D-02  0.188624D-02 -0.516263D-03
     18 -0.229637D-01 -0.122515D+00 -0.256461D-02 -0.177441D-02 -0.451322D-03
     19  0.547754D-01 -0.738545D-01  0.133253D-02  0.293784D-03  0.350999D-03
     20 -0.158125D+00  0.101898D+00  0.619623D-03  0.537412D-02 -0.110762D-02
     21  0.902448D-01 -0.209458D+00 -0.329011D-04 -0.487694D-02  0.493707D-03
     22  0.165244D-02  0.472105D-03 -0.646325D-01 -0.295343D-01  0.215003D-01
     23  0.288785D-03 -0.183918D-02 -0.452761D-01  0.655891D-02  0.162206D-01
     24 -0.396612D-02 -0.694996D-03  0.156445D-01  0.984137D-02  0.102113D-01
     25  0.134744D-01 -0.658591D-02  0.187796D-01 -0.843227D-02  0.106226D-01
     26 -0.496069D-02  0.254211D-02  0.255125D-02 -0.675496D-01  0.446557D-01
     27  0.398558D-01 -0.196468D-01  0.498250D-02  0.322596D-01  0.157199D-02
     28  0.149040D-01 -0.663824D-02 -0.605348D-03 -0.219113D-02 -0.189014D-02
     29  0.215525D-01 -0.397802D-02 -0.197946D-02 -0.331023D-02 -0.223348D-02
     30  0.194468D-02  0.131436D-01  0.581592D-03  0.589600D-03  0.354102D-03
     31 -0.324288D-02  0.138550D-02  0.293393D-03  0.657554D-03  0.438840D-03
     32 -0.795541D-03  0.153002D-02  0.405411D-03  0.454954D-03  0.150721D-03
     33 -0.141690D-02  0.120230D-02  0.260233D-03  0.365385D-03  0.104011D-03
               16            17            18            19            20 
     16  0.405397D+00
     17 -0.585822D-01  0.951324D-01
     18 -0.105812D+00  0.167597D-01  0.108721D+00
     19 -0.531355D-01  0.453504D-01 -0.278329D-01  0.153506D+00
     20  0.376540D-01 -0.118264D-01  0.104283D-01 -0.101578D+00  0.230039D+00
     21 -0.139519D-01  0.417581D-02  0.186918D-01  0.103176D+00 -0.154759D+00
     22 -0.277877D-03  0.265998D-02  0.552463D-02  0.460195D-02 -0.159727D-02
     23  0.293535D-02 -0.176850D-02 -0.562797D-02 -0.297971D-02  0.218807D-02
     24  0.628619D-02 -0.521550D-02 -0.109254D-01 -0.160578D-02 -0.353000D-03
     25  0.542995D-02 -0.288961D-02 -0.861410D-03  0.112251D-03 -0.728505D-03
     26 -0.195879D-02  0.204982D-02 -0.463079D-03 -0.483278D-03  0.207729D-02
     27  0.243758D-02 -0.252450D-02 -0.463046D-03 -0.331609D-02 -0.678472D-03
     28 -0.452552D-02 -0.194463D-02  0.743238D-03  0.198647D-02 -0.424724D-02
     29 -0.731514D-02 -0.205455D-02  0.155776D-02 -0.217709D-02 -0.451908D-02
     30 -0.210763D-02 -0.120377D-02 -0.729939D-04 -0.652628D-03 -0.185762D-02
     31  0.615101D-04 -0.541399D-04  0.442761D-04  0.115228D-03  0.550359D-03
     32  0.548245D-03 -0.438223D-04 -0.180468D-03  0.284011D-03  0.244393D-03
     33  0.117361D-02  0.487600D-03 -0.409923D-03  0.736019D-04  0.529892D-03
               21            22            23            24            25 
     21  0.223176D+00
     22  0.272895D-02  0.405599D+00
     23 -0.273011D-02 -0.724752D-01  0.975565D-01
     24  0.118491D-03 -0.116602D+00  0.229346D-01  0.115541D+00
     25 -0.368238D-02 -0.544741D-01  0.466672D-01 -0.260618D-01  0.153708D+00
     26 -0.347430D-03  0.406839D-01 -0.128303D-01  0.110807D-01 -0.102418D+00
     27 -0.150938D-01 -0.115211D-01  0.335957D-02  0.198581D-01  0.101997D+00
     28  0.282056D-02  0.247303D-02 -0.318392D-03 -0.119580D-02  0.104818D-03
     29  0.191616D-02 -0.104318D-02 -0.145156D-02 -0.244731D-02 -0.128352D-02
     30 -0.394815D-03  0.119354D-02  0.464103D-03  0.283636D-03  0.284428D-03
     31 -0.237221D-03 -0.200406D-03  0.182365D-03  0.332688D-03  0.768731D-04
     32 -0.175576D-03  0.702883D-03  0.260641D-03  0.137307D-03  0.282939D-03
     33 -0.518368D-03  0.330236D-03  0.158756D-03  0.685539D-04  0.132910D-03
               26            27            28            29            30 
     26  0.228310D+00
     27 -0.151295D+00  0.223502D+00
     28 -0.228953D-03 -0.104108D-02  0.264898D+00
     29  0.513684D-03 -0.265918D-02  0.198579D+00  0.530851D+00
     30 -0.444018D-03 -0.391195D-05  0.234002D+00  0.945194D-01  0.305190D+00
     31  0.759880D-04  0.315516D-03 -0.141111D+00 -0.664144D-01 -0.207133D+00
     32 -0.874968D-04  0.210688D-03 -0.572672D-01 -0.541350D-01 -0.729130D-01
     33  0.223315D-04  0.824694D-04 -0.226037D+00 -0.104701D+00 -0.296790D+00
               31            32            33 
     31  0.159048D+00
     32  0.825353D-01  0.699666D-01
     33  0.215726D+00  0.914154D-01  0.298469D+00
 FormGI is forming the generalized inverse of G from B-inverse, IUseBI=4.
 Force constants in internal coordinates: 
                1             2             3             4             5 
      1  0.321055D+00
      2  0.963019D-01  0.549149D+00
      3  0.453871D-01 -0.121230D-01  0.390771D+00
      4  0.248771D-02 -0.199728D-03  0.175235D-01  0.283875D+00
      5 -0.473360D-02  0.344634D-02  0.562369D-02  0.170218D-01  0.453925D+00
      6 -0.609365D-02  0.131800D-02  0.499269D-02  0.156638D-01  0.568403D-01
      7 -0.339164D-03  0.224783D-02  0.446113D-02  0.168705D-01  0.564957D-01
      8 -0.994966D-02  0.727187D-02  0.530595D-01  0.186167D-01  0.529791D-02
      9 -0.167759D-01  0.430448D-02  0.491311D-01  0.176247D-01  0.538513D-02
     10 -0.859274D-02  0.442654D-02  0.167831D-02 -0.752852D-04 -0.889552D-03
     11  0.930235D-01  0.966291D-01  0.748789D-02 -0.113417D-02  0.157463D-02
     12  0.448643D-01  0.129442D-01  0.744216D-01  0.849151D-02  0.551775D-03
     13 -0.780582D-02  0.342740D-02  0.143519D-01  0.159390D-01  0.164299D-01
     14  0.388209D-02  0.317129D-02  0.104211D-02  0.157847D-01 -0.291823D-01
     15 -0.423133D-02  0.137213D-02 -0.190156D-02  0.167428D-01 -0.281351D-01
     16  0.226262D-02 -0.307823D-02 -0.550557D-02 -0.168133D-01  0.196521D-01
     17  0.429011D-02 -0.261204D-02 -0.437163D-02 -0.161276D-01  0.195884D-01
     18  0.169346D-02 -0.240747D-02 -0.379635D-02 -0.162604D-01  0.248877D-02
     19  0.304135D-02  0.139629D-02  0.161748D-01  0.151418D-01  0.162065D-01
     20 -0.704858D-02  0.248467D-02  0.230573D-01 -0.140563D-01 -0.289150D-02
     21 -0.346556D-02  0.233294D-02  0.179006D-01 -0.141990D-01 -0.378262D-02
     22  0.262691D-02 -0.322233D-02 -0.292439D-01  0.108751D-01 -0.462934D-02
     23  0.450879D-02 -0.237914D-02 -0.249225D-01  0.945530D-02 -0.450094D-02
     24  0.173354D-03 -0.747888D-03 -0.390981D-02 -0.760448D-02 -0.778008D-03
     25  0.131343D-02  0.506112D-01  0.213117D-02 -0.360233D-03 -0.842798D-03
     26  0.899173D-04 -0.259127D-02  0.281242D-03  0.165363D-02  0.222018D-02
     27 -0.727725D-02 -0.329597D-01 -0.430349D-02 -0.238503D-03  0.334036D-03
     28  0.131196D-02 -0.125169D-03  0.168906D-02  0.298177D-02  0.114183D-02
     29  0.181623D-02 -0.173442D-02 -0.106936D-01  0.157535D-01  0.260230D-02
     30 -0.428981D-02  0.203000D-03  0.887685D-02 -0.101272D-01 -0.224694D-02
     31 -0.324967D-02 -0.398179D-03  0.761350D-03 -0.162391D-03  0.111379D-04
     32  0.199241D-02 -0.222971D-02 -0.184792D-01  0.161635D-02 -0.283213D-02
     33 -0.224532D-02  0.184592D-02  0.169257D-01 -0.802928D-03  0.327406D-02
     34 -0.303887D-02 -0.133206D-05  0.386802D-02 -0.765340D-03  0.166271D-01
     35  0.220320D-02 -0.183287D-02 -0.153725D-01  0.101340D-02  0.137839D-01
     36 -0.203452D-02  0.224277D-02  0.200323D-01 -0.140588D-02  0.198901D-01
     37 -0.122265D-02 -0.106711D-03 -0.141586D-02 -0.200901D-03 -0.168263D-01
     38  0.401943D-02 -0.193824D-02 -0.206564D-01  0.157784D-02 -0.196696D-01
     39 -0.218297D-03  0.213739D-02  0.147485D-01 -0.841437D-03 -0.135634D-01
                6             7             8             9            10 
      6  0.462471D+00
      7  0.569850D-01  0.448168D+00
      8  0.650328D-02  0.569117D-02  0.449733D+00
      9  0.536770D-02  0.632164D-02  0.555574D-01  0.451664D+00
     10  0.152879D-03 -0.253000D-03 -0.108776D-02 -0.805970D-03  0.490414D+00
     11  0.449309D-02 -0.593840D-03  0.586235D-02  0.936481D-02  0.472662D-02
     12 -0.159621D-02  0.154725D-02  0.867830D-02 -0.581329D-02 -0.456452D-03
     13 -0.298622D-01 -0.287365D-01 -0.442209D-02 -0.379947D-02 -0.449479D-03
     14  0.131654D-01 -0.290789D-01  0.186602D-01 -0.316764D-02 -0.699986D-03
     15 -0.290725D-01  0.171877D-01 -0.327185D-02  0.176247D-01 -0.188178D-03
     16  0.216471D-01  0.266398D-02 -0.438621D-02 -0.202800D-02  0.583461D-03
     17  0.261688D-02  0.193544D-01 -0.216524D-02 -0.411939D-02  0.449434D-03
     18  0.217088D-01  0.195176D-01 -0.469893D-02 -0.460460D-02  0.327747D-03
     19 -0.412830D-02 -0.444323D-02 -0.257711D-01 -0.274329D-01 -0.710718D-03
     20 -0.403287D-02 -0.117003D-02  0.160900D-01 -0.234411D-02 -0.105547D-03
     21 -0.127819D-02 -0.473015D-02 -0.849213D-03  0.130528D-01 -0.133517D-03
     22  0.149639D-01 -0.213170D-02  0.161012D-01 -0.144356D-01  0.465015D-03
     23 -0.202947D-02  0.144434D-01 -0.133025D-01  0.176586D-01  0.324100D-03
     24 -0.282381D-02 -0.248744D-02  0.103654D-01  0.128544D-01  0.195200D-03
     25  0.754294D-03 -0.520419D-03 -0.268782D-03  0.129487D-03  0.288227D-01
     26 -0.202974D-02  0.699170D-03 -0.179355D-02  0.390625D-04 -0.169433D-02
     27  0.921675D-03  0.307366D-04 -0.113661D-02  0.354541D-04 -0.417345D-02
     28 -0.814144D-02  0.639627D-02 -0.188073D-01  0.164059D-01  0.201803D-04
     29  0.522801D-02  0.676523D-03 -0.349769D-02 -0.174512D-01  0.130242D-03
     30 -0.142070D-02 -0.570293D-02  0.186249D-01  0.395346D-02  0.227123D-03
     31 -0.134766D-01  0.147192D-01  0.110566D-01 -0.915443D-02  0.145979D-03
     32 -0.154800D-01  0.200052D-01 -0.387653D-02  0.183139D-01  0.391849D-03
     33 -0.195441D-01  0.161244D-01 -0.180841D-01  0.131160D-02 -0.290092D-03
     34  0.240316D-02 -0.189318D-01  0.145303D-01 -0.161329D-01  0.137847D-03
     35  0.399712D-03 -0.136458D-01 -0.402839D-03  0.113354D-01  0.383717D-03
     36 -0.366430D-02 -0.175266D-01 -0.146104D-01 -0.566686D-02 -0.298224D-03
     37  0.188790D-01 -0.192422D-02  0.183388D-01 -0.124675D-01 -0.176681D-04
     38  0.168756D-01  0.336179D-02  0.340573D-02  0.150008D-01  0.228202D-03
     39  0.128116D-01 -0.518982D-03 -0.108019D-01 -0.200147D-02 -0.453739D-03
               11            12            13            14            15 
     11  0.520702D+00
     12  0.282292D-01  0.255475D+00
     13  0.459160D-02 -0.214005D-02  0.193404D+00
     14 -0.358495D-02  0.171662D-01 -0.223645D-02  0.192384D+00
     15  0.691725D-03 -0.423340D-02  0.818127D-03 -0.107279D-03  0.194521D+00
     16 -0.593336D-03 -0.621775D-02 -0.943260D-01 -0.917080D-01 -0.109074D-01
     17 -0.130743D-02  0.274276D-03 -0.904437D-01 -0.101942D-01 -0.916677D-01
     18  0.200796D-03 -0.507678D-02 -0.100804D-01 -0.913353D-01 -0.953751D-01
     19  0.125479D-02  0.102518D-01  0.193698D-01  0.207683D-02 -0.672201D-02
     20  0.479753D-02 -0.214073D-02 -0.527766D-02 -0.884065D-02  0.304306D-02
     21 -0.240710D-02  0.777347D-02 -0.518405D-02  0.627662D-03 -0.761843D-02
     22 -0.280944D-02 -0.111327D-01 -0.479577D-02  0.150292D-01 -0.376866D-02
     23 -0.147122D-02 -0.210829D-02 -0.717097D-02 -0.493533D-02  0.193517D-01
     24  0.758047D-03 -0.375175D-02  0.284687D-02 -0.351446D-02 -0.492269D-02
     25  0.239066D-01  0.371047D-02 -0.103142D-03 -0.133597D-02  0.150603D-03
     26  0.482833D-02 -0.399525D-02  0.975645D-03  0.380512D-02 -0.197581D-02
     27 -0.184884D-01 -0.377930D-02  0.890299D-03 -0.513401D-03  0.485996D-03
     28 -0.843539D-03  0.450005D-02 -0.129219D-02 -0.921945D-03  0.585314D-02
     29 -0.609382D-03 -0.469038D-02  0.225509D-03  0.129554D-01 -0.500109D-03
     30  0.195745D-02 -0.624994D-02 -0.248999D-02  0.353631D-02 -0.881962D-02
     31  0.343351D-02 -0.865296D-02  0.120528D-03 -0.672616D-02  0.592618D-02
     32 -0.139761D-02 -0.498138D-02 -0.151052D-02 -0.643948D-02  0.838327D-02
     33  0.129021D-03  0.707824D-02  0.184293D-02 -0.808725D-02  0.561179D-02
     34  0.340393D-02 -0.692110D-02  0.669341D-02 -0.603343D-03 -0.716164D-02
     35 -0.142719D-02 -0.324952D-02  0.506236D-02 -0.316668D-03 -0.470456D-02
     36  0.994437D-04  0.881009D-02  0.841581D-02 -0.196444D-02 -0.747604D-02
     37  0.184159D-02 -0.514331D-02 -0.670116D-02  0.712377D-02 -0.644487D-04
     38 -0.298953D-02 -0.147173D-02 -0.833221D-02  0.741045D-02  0.239264D-02
     39 -0.146290D-02  0.105879D-01 -0.497876D-02  0.576268D-02 -0.378839D-03
               16            17            18            19            20 
     16  0.125238D+00
     17  0.371265D-01  0.121255D+00
     18  0.373560D-01  0.373487D-01  0.124807D+00
     19 -0.871149D-02 -0.599083D-02 -0.253942D-03  0.181526D+00
     20  0.584048D-02  0.212071D-02  0.330952D-02 -0.669970D-01  0.100064D+00
     21  0.323168D-02  0.546903D-02  0.363828D-02 -0.751135D-01  0.123437D-01
     22 -0.389481D-02  0.192701D-02 -0.464650D-02 -0.331848D-01 -0.594552D-01
     23  0.248312D-02 -0.452952D-02 -0.526075D-02 -0.341931D-01  0.168728D-01
     24  0.105077D-02  0.132125D-02  0.330524D-02  0.256730D-01 -0.284007D-02
     25  0.652087D-03  0.325374D-03  0.337630D-03 -0.111637D-02  0.873895D-03
     26 -0.205883D-02 -0.361219D-03 -0.446571D-03  0.122663D-01 -0.557724D-02
     27 -0.196578D-03 -0.440078D-03 -0.234702D-03  0.623972D-03 -0.740956D-03
     28 -0.189286D-03 -0.207501D-02 -0.142049D-02  0.164529D-01  0.584223D-02
     29 -0.606091D-02 -0.170761D-02 -0.514515D-02  0.341228D-01 -0.411095D-01
     30  0.648479D-03  0.425959D-02  0.295095D-02 -0.182291D-01  0.246035D-01
     31 -0.182676D-01  0.191491D-01  0.214441D-03 -0.262732D-02  0.228936D-01
     32 -0.180131D-01  0.187819D-01 -0.799317D-03 -0.379416D-02 -0.241856D-01
     33 -0.184276D-01  0.186288D-01  0.850336D-03  0.362001D-02  0.387467D-02
     34  0.183504D-01  0.301042D-03 -0.175835D-01  0.397566D-03  0.211505D-01
     35  0.186049D-01 -0.661509D-04 -0.185973D-01 -0.769275D-03 -0.259288D-01
     36  0.181903D-01 -0.219253D-03 -0.169476D-01  0.664489D-02  0.213153D-02
     37 -0.822849D-04 -0.189271D-01  0.182575D-01 -0.294860D-02  0.216546D-01
     38  0.172226D-03 -0.192943D-01  0.172438D-01 -0.411544D-02 -0.254246D-01
     39 -0.242353D-03 -0.194474D-01  0.188934D-01  0.329873D-02  0.263567D-02
               21            22            23            24            25 
     21  0.107733D+00
     22  0.178559D-01  0.123585D+00
     23 -0.590446D-01 -0.445974D-02  0.116040D+00
     24 -0.238431D-02 -0.415741D-01 -0.383213D-01  0.610087D-01
     25 -0.189447D-03  0.252132D-03  0.272485D-03 -0.420645D-04  0.106377D+00
     26 -0.772078D-02 -0.439613D-03  0.116564D-02  0.940120D-04 -0.433739D-02
     27  0.131703D-03  0.278291D-03 -0.583146D-03  0.301850D-03 -0.215337D-01
     28 -0.201361D-01 -0.397736D-01  0.326290D-01  0.249398D-02 -0.401746D-03
     29 -0.319093D-01  0.550719D-01  0.189598D-01 -0.355361D-01 -0.168499D-03
     30  0.328364D-01 -0.224552D-01 -0.499018D-01  0.354075D-01  0.219025D-03
     31 -0.203113D-01 -0.493401D-02  0.638016D-02 -0.639809D-03  0.720201D-03
     32 -0.360829D-02  0.992945D-02  0.805121D-02  0.139726D-01  0.133596D-03
     33  0.220513D-01 -0.865312D-02 -0.842554D-02 -0.138222D-01 -0.113122D-03
     34 -0.192552D-01 -0.338474D-02  0.170740D-02  0.288398D-03  0.619815D-03
     35 -0.255223D-02  0.114787D-01  0.337846D-02  0.149008D-01  0.332098D-04
     36  0.231073D-01 -0.710385D-02 -0.130983D-01 -0.128940D-01 -0.213508D-03
     37 -0.192610D-01 -0.211893D-02  0.455953D-02 -0.999782D-03  0.294650D-03
     38 -0.255801D-02  0.127445D-01  0.623058D-02  0.136127D-01 -0.291955D-03
     39  0.231015D-01 -0.583804D-02 -0.102462D-01 -0.141822D-01 -0.538672D-03
               26            27            28            29            30 
     26  0.478443D-01
     27  0.382563D-03 -0.252676D-01
     28  0.951802D-03 -0.398691D-03  0.286503D-01
     29  0.368100D-02 -0.177193D-03 -0.689421D-02  0.530578D-01
     30 -0.397352D-02 -0.198829D-03 -0.114369D-01 -0.334167D-01  0.431426D-01
     31 -0.725317D-03 -0.459720D-04 -0.576555D-02  0.901853D-03  0.307317D-02
     32 -0.640356D-03  0.330167D-03  0.238835D-02 -0.253233D-02 -0.263928D-02
     33 -0.115319D-02  0.135304D-03  0.395212D-02 -0.215896D-02 -0.424929D-02
     34 -0.248507D-03 -0.382358D-04 -0.741914D-02  0.170020D-02  0.450057D-02
     35 -0.163546D-03  0.337903D-03  0.734756D-03 -0.173398D-02 -0.121188D-02
     36 -0.676384D-03  0.143040D-03  0.229853D-02 -0.136061D-02 -0.282189D-02
     37  0.318527D-03 -0.339271D-03 -0.598504D-02  0.315061D-02  0.469830D-02
     38  0.403488D-03  0.368678D-04  0.216885D-02 -0.283567D-03 -0.101415D-02
     39 -0.109349D-03 -0.157995D-03  0.373262D-02  0.897979D-04 -0.262417D-02
               31            32            33            34            35 
     31  0.339529D-01
     32  0.105580D-01  0.360951D-01
     33  0.105837D-01  0.915532D-02  0.353924D-01
     34  0.709069D-02 -0.168626D-01 -0.162223D-01  0.338367D-01
     35 -0.163043D-01  0.867455D-02 -0.176507D-01  0.988344D-02  0.348622D-01
     36 -0.162785D-01 -0.182653D-01  0.858638D-02  0.105237D-01  0.853702D-02
     37  0.694554D-02 -0.164996D-01 -0.166383D-01  0.700545D-02 -0.164397D-01
     38 -0.164494D-01  0.903754D-02 -0.180667D-01 -0.169478D-01  0.853913D-02
     39 -0.164237D-01 -0.179023D-01  0.817036D-02 -0.163075D-01 -0.177861D-01
               36            37            38            39 
     36  0.353887D-01
     37 -0.165784D-01  0.341161D-01
     38 -0.185651D-01  0.106710D-01  0.361580D-01
     39  0.828652D-02  0.105323D-01  0.905371D-02  0.351263D-01
 Leave Link  716 at Sat May 24 05:04:04 2025, MaxMem=  3758096384 cpu:               0.0 elap:               0.0
 (Enter /apps/easybuild-2022/easybuild/software/Compiler/NVHPC/22.11-CUDA-11.7.0/Gaussian/g16c01-CUDA-11.7.0/g16/l103.exe)

 GradGradGradGradGradGradGradGradGradGradGradGradGradGradGradGradGradGrad
 Berny optimization.
 Red2BG is reusing G-inverse.
 Internal  Forces:  Max     0.027882250 RMS     0.006936688
 Search for a local minimum.
 Step number   1 out of a maximum of   49
 All quantities printed in internal units (Hartrees-Bohrs-Radians)
 RMS Force = .69367D-02 SwitMx=.10000D-02 MixMth= 1
 Mixed Optimization -- RFO/linear search
 Second derivative matrix not updated -- analytic derivatives used.
 ITU=  0
     Eigenvalues ---   -0.03009   0.00178   0.00514   0.04602   0.08685
     Eigenvalues ---    0.09749   0.10312   0.10559   0.11104   0.19857
     Eigenvalues ---    0.20741   0.21075   0.23064   0.24433   0.25131
     Eigenvalues ---    0.26974   0.29483   0.39957   0.40209   0.41065
     Eigenvalues ---    0.42705   0.42890   0.45011   0.49312   0.55416
     Eigenvalues ---    0.59196   0.69559
 Eigenvalue     1 is  -3.01D-02 should be greater than     0.000000 Eigenvector:
                          D2        A15       R2        A1        R3
   1                   -0.98923  -0.13728  -0.04111  -0.01959  -0.01061
                          D3        D4        D5        A2        A9
   1                   -0.00913  -0.00807  -0.00774  -0.00488   0.00443
 RFO step:  Lambda=-4.72653539D-02 EMin=-3.00873429D-02
 Linear search not attempted -- first point.
 Iteration  1 RMS(Cart)=  0.05070657 RMS(Int)=  0.11576836
 Iteration  2 RMS(Cart)=  0.04613117 RMS(Int)=  0.08374697
 Iteration  3 RMS(Cart)=  0.04578849 RMS(Int)=  0.05180864
 Iteration  4 RMS(Cart)=  0.04576898 RMS(Int)=  0.02016095
 Iteration  5 RMS(Cart)=  0.02837502 RMS(Int)=  0.00187465
 Iteration  6 RMS(Cart)=  0.00167471 RMS(Int)=  0.00000379
 Iteration  7 RMS(Cart)=  0.00000394 RMS(Int)=  0.00000279
 Iteration  8 RMS(Cart)=  0.00000000 RMS(Int)=  0.00000279
 ITry= 1 IFail=0 DXMaxC= 8.28D-01 DCOld= 1.00D+10 DXMaxT= 3.00D-01 DXLimC= 3.00D+00 Rises=F
 Variable       Old X    -DE/DX   Delta X   Delta X   Delta X     New X
                                 (Linear)    (Quad)   (Total)
    R1        2.56804  -0.01095   0.00000  -0.03781  -0.03781   2.53023
    R2        2.44226   0.02216   0.00000   0.01357   0.01357   2.45584
    R3        2.61175  -0.00063   0.00000  -0.00282  -0.00282   2.60893
    R4        2.92424   0.00016   0.00000  -0.00060  -0.00060   2.92364
    R5        2.50310   0.00055   0.00000   0.00056   0.00056   2.50366
    R6        2.49654   0.00056   0.00000   0.00399   0.00399   2.50052
    R7        2.50747  -0.00069   0.00000  -0.00242  -0.00242   2.50506
    R8        2.51251  -0.00050   0.00000  -0.00264  -0.00264   2.50987
    R9        2.50416   0.00144   0.00000   0.00308   0.00308   2.50724
   R10        1.84644  -0.01412   0.00000  -0.02596  -0.02596   1.82047
    A1        1.85053  -0.01490   0.00000  -0.04524  -0.04524   1.80529
    A2        2.05128  -0.00400   0.00000  -0.01219  -0.01219   2.03909
    A3        1.90982   0.00010   0.00000   0.00169   0.00169   1.91150
    A4        1.93387   0.00016   0.00000  -0.00320  -0.00320   1.93067
    A5        1.90991   0.00057   0.00000   0.00403   0.00402   1.91393
    A6        1.90474  -0.00035   0.00000  -0.00140  -0.00140   1.90334
    A7        1.90239  -0.00027   0.00000  -0.00022  -0.00023   1.90216
    A8        1.90282  -0.00022   0.00000  -0.00089  -0.00088   1.90194
    A9        1.95721   0.00111   0.00000   0.00460   0.00460   1.96181
   A10        1.85487  -0.00059   0.00000  -0.00282  -0.00282   1.85205
   A11        1.95456   0.00002   0.00000   0.00189   0.00189   1.95645
   A12        1.88578   0.00020   0.00000   0.00141   0.00141   1.88719
   A13        1.90673  -0.00037   0.00000  -0.00385  -0.00385   1.90288
   A14        1.90219  -0.00040   0.00000  -0.00132  -0.00132   1.90088
   A15        1.97388  -0.00507   0.00000  -0.14068  -0.14068   1.83320
    D1       -3.13431   0.00419   0.00000   0.04317   0.04317  -3.09114
    D2       -2.09394  -0.02788   0.00000  -0.91042  -0.91042  -3.00436
    D3        1.39978   0.00017   0.00000  -0.00052  -0.00052   1.39926
    D4       -2.82647   0.00066   0.00000   0.00196   0.00196  -2.82451
    D5       -0.75111  -0.00018   0.00000  -0.00034  -0.00034  -0.75145
    D6        3.06142  -0.00002   0.00000   0.00226   0.00226   3.06369
    D7        1.02297  -0.00006   0.00000   0.00219   0.00220   1.02516
    D8       -1.04419   0.00051   0.00000   0.00511   0.00511  -1.03908
    D9       -1.12069  -0.00029   0.00000  -0.00040  -0.00040  -1.12109
   D10        3.12403  -0.00033   0.00000  -0.00047  -0.00047   3.12356
   D11        1.05687   0.00024   0.00000   0.00245   0.00245   1.05932
   D12        0.97805  -0.00009   0.00000  -0.00092  -0.00092   0.97712
   D13       -1.06041  -0.00013   0.00000  -0.00099  -0.00099  -1.06141
   D14       -3.12757   0.00044   0.00000   0.00193   0.00192  -3.12565
         Item               Value     Threshold  Converged?
 Maximum Force            0.027882     0.000450     NO 
 RMS     Force            0.006937     0.000300     NO 
 Maximum Displacement     0.828146     0.001800     NO 
 RMS     Displacement     0.198773     0.001200     NO 
 Predicted change in Energy=-3.973414D-02
 Lowest energy point so far.  Saving SCF results.
 GradGradGradGradGradGradGradGradGradGradGradGradGradGradGradGradGradGrad

 Leave Link  103 at Sat May 24 05:04:04 2025, MaxMem=  3758096384 cpu:               0.1 elap:               0.0
 (Enter /apps/easybuild-2022/easybuild/software/Compiler/NVHPC/22.11-CUDA-11.7.0/Gaussian/g16c01-CUDA-11.7.0/g16/l202.exe)
                          Input orientation:                          
 ---------------------------------------------------------------------
 Center     Atomic      Atomic             Coordinates (Angstroms)
 Number     Number       Type             X           Y           Z
 ---------------------------------------------------------------------
      1          6           0        0.098046   -0.024959   -0.162610
      2          8           0        1.435013   -0.007397   -0.092093
      3          6           0        2.004335    1.825397    1.406064
      4          6           0        2.039119    1.232040   -0.022329
      5          9           0        2.680233    2.964674    1.428779
      6          9           0        3.309514    1.042488   -0.360252
      7          9           0        1.495006    2.100591   -0.864882
      8          9           0        0.757522    2.055197    1.784960
      9          9           0        2.563303    0.975309    2.255870
     10          8           0       -0.188227   -1.292571   -0.152747
     11          1           0       -1.134206   -1.336510   -0.329496
 ---------------------------------------------------------------------
                    Distance matrix (angstroms):
                    1          2          3          4          5
     1  C    0.000000
     2  O    1.338940   0.000000
     3  C    3.085206   2.434695   0.000000
     4  C    2.316784   1.380585   1.547123   0.000000
     5  F    4.258887   3.563262   1.324879   2.349205   0.000000
     6  F    3.389990   2.165161   2.331590   1.328166   2.700264
     7  F    2.638683   2.245978   2.343575   1.326776   2.722551
     8  F    2.924891   2.869951   1.323220   2.363551   2.156578
     9  F    3.595424   2.784184   1.325619   2.351781   2.157620
    10  O    1.299573   2.071294   4.118124   3.369234   5.371538
    11  H    1.807335   2.902376   4.781241   4.094117   6.011793
                    6          7          8          9         10
     6  F    0.000000
     7  F    2.160248   0.000000
     8  F    3.484276   2.750928   0.000000
     9  F    2.721293   3.485199   2.156098   0.000000
    10  O    4.210671   3.854084   3.982047   4.302979   0.000000
    11  H    5.040558   4.360397   4.421904   5.069536   0.963353
                   11
    11  H    0.000000
 Symmetry turned off by external request.
 Stoichiometry    C3HF5O2
 Rotational constants (GHZ):           2.0539533           1.0672213           0.9464773
 Leave Link  202 at Sat May 24 05:04:04 2025, MaxMem=  3758096384 cpu:               0.0 elap:               0.0
 (Enter /apps/easybuild-2022/easybuild/software/Compiler/NVHPC/22.11-CUDA-11.7.0/Gaussian/g16c01-CUDA-11.7.0/g16/l301.exe)
 Standard basis: def2TZVPP (5D, 7F)
 Ernie: Thresh=  0.10000D-02 Tol=  0.10000D-05 Strict=F.
   324 basis functions,   527 primitive gaussians,   375 cartesian basis functions
    40 alpha electrons       40 beta electrons
       nuclear repulsion energy       634.0022961564 Hartrees.
 IExCor= 4336 DFT=T Ex+Corr=M062X ExCW=0 ScaHFX=  0.540000
 ScaDFX=  1.000000  1.000000  1.000000  1.000000 ScalE2=  1.000000  1.000000
 IRadAn=      5 IRanWt=     -1 IRanGd=            0 ICorTp=0 IEmpDi=  4
 NAtoms=   11 NActive=   11 NUniq=   11 SFac= 1.00D+00 NAtFMM=   60 NAOKFM=F Big=F
 Integral buffers will be    131072 words long.
 Raffenetti 2 integral format.
 Two-electron integral symmetry is turned off.
 Leave Link  301 at Sat May 24 05:04:04 2025, MaxMem=  3758096384 cpu:               0.0 elap:               0.0
 (Enter /apps/easybuild-2022/easybuild/software/Compiler/NVHPC/22.11-CUDA-11.7.0/Gaussian/g16c01-CUDA-11.7.0/g16/l302.exe)
 NPDir=0 NMtPBC=     1 NCelOv=     1 NCel=       1 NClECP=     1 NCelD=      1
         NCelK=      1 NCelE2=     1 NClLst=     1 CellRange=     0.0.
 One-electron integrals computed using PRISM.
   1 Symmetry operations used in ECPInt.
 ECPInt:  NShTT=    6786 NPrTT=   21959 LenC2=    6392 LenP2D=   15677.
 LDataN:  DoStor=T MaxTD1= 6 Len=  172
 NBasis=   324 RedAO= T EigKep=  4.64D-04  NBF=   324
 NBsUse=   324 1.00D-06 EigRej= -1.00D+00 NBFU=   324
 Precomputing XC quadrature grid using
 IXCGrd= 4 IRadAn=           5 IRanWt=          -1 IRanGd=           0 AccXCQ= 0.00D+00.
 Generated NRdTot=       0 NPtTot=           0 NUsed=           0 NTot=          32
 NSgBfM=   373   373   373   373   373 MxSgAt=    11 MxSgA2=    11.
 Leave Link  302 at Sat May 24 05:04:04 2025, MaxMem=  3758096384 cpu:               0.6 elap:               0.1
 (Enter /apps/easybuild-2022/easybuild/software/Compiler/NVHPC/22.11-CUDA-11.7.0/Gaussian/g16c01-CUDA-11.7.0/g16/l303.exe)
 DipDrv:  MaxL=1.
 Leave Link  303 at Sat May 24 05:04:04 2025, MaxMem=  3758096384 cpu:               0.1 elap:               0.0
 (Enter /apps/easybuild-2022/easybuild/software/Compiler/NVHPC/22.11-CUDA-11.7.0/Gaussian/g16c01-CUDA-11.7.0/g16/l401.exe)
 Initial guess from the checkpoint file:  "/tmp/Gau-11191.chk"
 B after Tr=     0.135885   -0.078478   -0.229316
         Rot=    0.999658   -0.009272    0.020971   -0.012549 Ang=  -3.00 deg.
 Guess basis will be translated and rotated to current coordinates.
 JPrj=2 DoOrth=T DoCkMO=T.
 Generating alternative initial guess.
 ExpMin= 9.52D-02 ExpMax= 3.55D+04 ExpMxC= 1.21D+03 IAcc=3 IRadAn=         5 AccDes= 0.00D+00
 Harris functional with IExCor= 1009 and IRadAn=       5 diagonalized for initial guess.
 HarFok:  IExCor= 1009 AccDes= 0.00D+00 IRadAn=         5 IDoV= 1 UseB2=F ITyADJ=14
 ICtDFT=  3500011 ScaDFX=  1.000000  1.000000  1.000000  1.000000
 FoFCou: FMM=F IPFlag=           0 FMFlag=      100000 FMFlg1=           0
         NFxFlg=           0 DoJE=T BraDBF=F KetDBF=T FulRan=T
         wScrn=  0.000000 ICntrl=       500 IOpCl=  0 I1Cent=   200000004 NGrid=           0
         NMat0=    1 NMatS0=      1 NMatT0=    0 NMatD0=    1 NMtDS0=    0 NMtDT0=    0
 Symmetry not used in FoFCou.
 Harris En= -764.108086713898    
 Leave Link  401 at Sat May 24 05:04:05 2025, MaxMem=  3758096384 cpu:               3.0 elap:               0.5
 (Enter /apps/easybuild-2022/easybuild/software/Compiler/NVHPC/22.11-CUDA-11.7.0/Gaussian/g16c01-CUDA-11.7.0/g16/l502.exe)
 Keep R1 ints in memory in canonical form, NReq=1412617130.
 FoFCou: FMM=F IPFlag=           0 FMFlag=           0 FMFlg1=           0
         NFxFlg=           0 DoJE=F BraDBF=F KetDBF=F FulRan=T
         wScrn=  0.000000 ICntrl=       600 IOpCl=  0 I1Cent=           0 NGrid=           0
         NMat0=    1 NMatS0=  52650 NMatT0=    0 NMatD0=    1 NMtDS0=    0 NMtDT0=    0
 Symmetry not used in FoFCou.
 Two-electron integral symmetry not used.
 Closed shell SCF:
 Using DIIS extrapolation, IDIIS=  1040.
 NGot=  3758096384 LenX=  2371771924 LenY=  2371630858
 Requested convergence on RMS density matrix=1.00D-08 within  32 cycles.
 Requested convergence on MAX density matrix=1.00D-06.
 Requested convergence on             energy=1.00D-06.
 No special actions if energy rises.
 Integral accuracy reduced to 1.0D-05 until final iterations.

 Cycle   1  Pass 0  IDiag  1:
 E= -764.503330143681    
 DIIS: error= 1.68D-02 at cycle   1 NSaved=   1.
 NSaved= 1 IEnMin= 1 EnMin= -764.503330143681     IErMin= 1 ErrMin= 1.68D-02
 ErrMax= 1.68D-02  0.00D+00 EMaxC= 1.00D-01 BMatC= 8.57D-02 BMatP= 8.57D-02
 IDIUse=3 WtCom= 8.32D-01 WtEn= 1.68D-01
 Coeff-Com:  0.100D+01
 Coeff-En:   0.100D+01
 Coeff:      0.100D+01
 Recover alternate guess density for next cycle.
 RMSDP=1.62D-03 MaxDP=7.95D-02              OVMax= 0.00D+00

 Cycle   2  Pass 0  IDiag  1:
 E= -764.469008646876     Delta-E=        0.034321496805 Rises=F Damp=F
 Switch densities from cycles 1 and 2 for lowest energy.
 DIIS: error= 1.74D-02 at cycle   2 NSaved=   2.
 NSaved= 2 IEnMin= 1 EnMin= -764.503330143681     IErMin= 1 ErrMin= 1.68D-02
 ErrMax= 1.74D-02  0.00D+00 EMaxC= 1.00D+00 BMatC= 2.93D-01 BMatP= 8.57D-02
 IDIUse=1 WtCom= 1.00D+00 WtEn= 0.00D+00
 Coeff-Com:  0.796D+00 0.204D+00
 Coeff:      0.796D+00 0.204D+00
 Gap=     0.338 Goal=   None    Shift=    0.000
 RMSDP=9.55D-04 MaxDP=6.25D-02 DE= 3.43D-02 OVMax= 7.10D-02

 Cycle   3  Pass 0  IDiag  1:
 E= -764.586832446678     Delta-E=       -0.117823799801 Rises=F Damp=F
 DIIS: error= 6.60D-03 at cycle   3 NSaved=   3.
 NSaved= 3 IEnMin= 3 EnMin= -764.586832446678     IErMin= 3 ErrMin= 6.60D-03
 ErrMax= 6.60D-03  0.00D+00 EMaxC= 1.00D+00 BMatC= 1.90D-02 BMatP= 8.57D-02
 IDIUse=1 WtCom= 1.00D+00 WtEn= 0.00D+00
 Coeff-Com:  0.584D-01 0.158D+00 0.783D+00
 Coeff:      0.584D-01 0.158D+00 0.783D+00
 Gap=     0.331 Goal=   None    Shift=    0.000
 RMSDP=2.79D-04 MaxDP=1.62D-02 DE=-1.18D-01 OVMax= 2.27D-02

 Cycle   4  Pass 0  IDiag  1:
 E= -764.597674291260     Delta-E=       -0.010841844582 Rises=F Damp=F
 DIIS: error= 2.86D-03 at cycle   4 NSaved=   4.
 NSaved= 4 IEnMin= 4 EnMin= -764.597674291260     IErMin= 4 ErrMin= 2.86D-03
 ErrMax= 2.86D-03  0.00D+00 EMaxC= 1.00D+00 BMatC= 2.99D-03 BMatP= 1.90D-02
 IDIUse=1 WtCom= 1.00D+00 WtEn= 0.00D+00
 Coeff-Com: -0.335D-01 0.182D-01 0.300D+00 0.715D+00
 Coeff:     -0.335D-01 0.182D-01 0.300D+00 0.715D+00
 Gap=     0.334 Goal=   None    Shift=    0.000
 RMSDP=1.05D-04 MaxDP=8.13D-03 DE=-1.08D-02 OVMax= 1.28D-02

 Cycle   5  Pass 0  IDiag  1:
 E= -764.599487441950     Delta-E=       -0.001813150690 Rises=F Damp=F
 DIIS: error= 7.60D-04 at cycle   5 NSaved=   5.
 NSaved= 5 IEnMin= 5 EnMin= -764.599487441950     IErMin= 5 ErrMin= 7.60D-04
 ErrMax= 7.60D-04  0.00D+00 EMaxC= 1.00D+00 BMatC= 4.05D-04 BMatP= 2.99D-03
 IDIUse=1 WtCom= 1.00D+00 WtEn= 0.00D+00
 Coeff-Com: -0.168D-01-0.473D-02 0.920D-01 0.367D+00 0.563D+00
 Coeff:     -0.168D-01-0.473D-02 0.920D-01 0.367D+00 0.563D+00
 Gap=     0.334 Goal=   None    Shift=    0.000
 RMSDP=3.18D-05 MaxDP=1.74D-03 DE=-1.81D-03 OVMax= 2.86D-03

 Cycle   6  Pass 0  IDiag  1:
 E= -764.599753788297     Delta-E=       -0.000266346347 Rises=F Damp=F
 DIIS: error= 1.15D-04 at cycle   6 NSaved=   6.
 NSaved= 6 IEnMin= 6 EnMin= -764.599753788297     IErMin= 6 ErrMin= 1.15D-04
 ErrMax= 1.15D-04  0.00D+00 EMaxC= 1.00D+00 BMatC= 7.68D-06 BMatP= 4.05D-04
 IDIUse=1 WtCom= 1.00D+00 WtEn= 0.00D+00
 Coeff-Com: -0.123D-02-0.549D-03-0.168D-01-0.768D-02 0.611D-01 0.965D+00
 Coeff:     -0.123D-02-0.549D-03-0.168D-01-0.768D-02 0.611D-01 0.965D+00
 Gap=     0.333 Goal=   None    Shift=    0.000
 RMSDP=1.05D-05 MaxDP=6.73D-04 DE=-2.66D-04 OVMax= 1.44D-03

 Cycle   7  Pass 0  IDiag  1:
 E= -764.599763264579     Delta-E=       -0.000009476282 Rises=F Damp=F
 DIIS: error= 4.67D-05 at cycle   7 NSaved=   7.
 NSaved= 7 IEnMin= 7 EnMin= -764.599763264579     IErMin= 7 ErrMin= 4.67D-05
 ErrMax= 4.67D-05  0.00D+00 EMaxC= 1.00D+00 BMatC= 1.74D-06 BMatP= 7.68D-06
 IDIUse=1 WtCom= 1.00D+00 WtEn= 0.00D+00
 Coeff-Com:  0.500D-03-0.121D-03-0.130D-01-0.249D-01-0.841D-02 0.419D+00
 Coeff-Com:  0.626D+00
 Coeff:      0.500D-03-0.121D-03-0.130D-01-0.249D-01-0.841D-02 0.419D+00
 Coeff:      0.626D+00
 Gap=     0.333 Goal=   None    Shift=    0.000
 RMSDP=3.10D-06 MaxDP=1.64D-04 DE=-9.48D-06 OVMax= 3.08D-04

 Initial convergence to 1.0D-05 achieved.  Increase integral accuracy.
 Cycle   8  Pass 1  IDiag  1:
 E= -764.599806209959     Delta-E=       -0.000042945381 Rises=F Damp=F
 DIIS: error= 2.39D-05 at cycle   1 NSaved=   1.
 NSaved= 1 IEnMin= 1 EnMin= -764.599806209959     IErMin= 1 ErrMin= 2.39D-05
 ErrMax= 2.39D-05  0.00D+00 EMaxC= 1.00D+00 BMatC= 8.05D-07 BMatP= 8.05D-07
 IDIUse=1 WtCom= 1.00D+00 WtEn= 0.00D+00
 Coeff-Com:  0.100D+01
 Coeff:      0.100D+01
 Gap=     0.333 Goal=   None    Shift=    0.000
 RMSDP=3.10D-06 MaxDP=1.64D-04 DE=-4.29D-05 OVMax= 2.44D-04

 Cycle   9  Pass 1  IDiag  1:
 E= -764.599806663187     Delta-E=       -0.000000453227 Rises=F Damp=F
 DIIS: error= 1.65D-05 at cycle   2 NSaved=   2.
 NSaved= 2 IEnMin= 2 EnMin= -764.599806663187     IErMin= 2 ErrMin= 1.65D-05
 ErrMax= 1.65D-05  0.00D+00 EMaxC= 1.00D+00 BMatC= 2.94D-07 BMatP= 8.05D-07
 IDIUse=1 WtCom= 1.00D+00 WtEn= 0.00D+00
 Coeff-Com:  0.324D+00 0.676D+00
 Coeff:      0.324D+00 0.676D+00
 Gap=     0.333 Goal=   None    Shift=    0.000
 RMSDP=1.46D-06 MaxDP=7.94D-05 DE=-4.53D-07 OVMax= 1.28D-04

 Cycle  10  Pass 1  IDiag  1:
 E= -764.599806792305     Delta-E=       -0.000000129118 Rises=F Damp=F
 DIIS: error= 9.54D-06 at cycle   3 NSaved=   3.
 NSaved= 3 IEnMin= 3 EnMin= -764.599806792305     IErMin= 3 ErrMin= 9.54D-06
 ErrMax= 9.54D-06  0.00D+00 EMaxC= 1.00D+00 BMatC= 9.82D-08 BMatP= 2.94D-07
 IDIUse=1 WtCom= 1.00D+00 WtEn= 0.00D+00
 Coeff-Com: -0.357D-01 0.361D+00 0.675D+00
 Coeff:     -0.357D-01 0.361D+00 0.675D+00
 Gap=     0.333 Goal=   None    Shift=    0.000
 RMSDP=6.64D-07 MaxDP=3.57D-05 DE=-1.29D-07 OVMax= 6.56D-05

 Cycle  11  Pass 1  IDiag  1:
 E= -764.599806856355     Delta-E=       -0.000000064050 Rises=F Damp=F
 DIIS: error= 1.05D-06 at cycle   4 NSaved=   4.
 NSaved= 4 IEnMin= 4 EnMin= -764.599806856355     IErMin= 4 ErrMin= 1.05D-06
 ErrMax= 1.05D-06  0.00D+00 EMaxC= 1.00D+00 BMatC= 8.92D-10 BMatP= 9.82D-08
 IDIUse=1 WtCom= 1.00D+00 WtEn= 0.00D+00
 Coeff-Com: -0.146D-01 0.902D-01 0.195D+00 0.730D+00
 Coeff:     -0.146D-01 0.902D-01 0.195D+00 0.730D+00
 Gap=     0.333 Goal=   None    Shift=    0.000
 RMSDP=9.82D-08 MaxDP=4.92D-06 DE=-6.40D-08 OVMax= 6.97D-06

 Cycle  12  Pass 1  IDiag  1:
 E= -764.599806857025     Delta-E=       -0.000000000670 Rises=F Damp=F
 DIIS: error= 7.98D-07 at cycle   5 NSaved=   5.
 NSaved= 5 IEnMin= 5 EnMin= -764.599806857025     IErMin= 5 ErrMin= 7.98D-07
 ErrMax= 7.98D-07  0.00D+00 EMaxC= 1.00D+00 BMatC= 2.40D-10 BMatP= 8.92D-10
 IDIUse=1 WtCom= 1.00D+00 WtEn= 0.00D+00
 Coeff-Com:  0.928D-03-0.351D-01-0.489D-01 0.325D+00 0.758D+00
 Coeff:      0.928D-03-0.351D-01-0.489D-01 0.325D+00 0.758D+00
 Gap=     0.333 Goal=   None    Shift=    0.000
 RMSDP=4.52D-08 MaxDP=2.12D-06 DE=-6.70D-10 OVMax= 5.55D-06

 Cycle  13  Pass 1  IDiag  1:
 E= -764.599806857258     Delta-E=       -0.000000000234 Rises=F Damp=F
 DIIS: error= 2.19D-07 at cycle   6 NSaved=   6.
 NSaved= 6 IEnMin= 6 EnMin= -764.599806857258     IErMin= 6 ErrMin= 2.19D-07
 ErrMax= 2.19D-07  0.00D+00 EMaxC= 1.00D+00 BMatC= 2.03D-11 BMatP= 2.40D-10
 IDIUse=1 WtCom= 1.00D+00 WtEn= 0.00D+00
 Coeff-Com:  0.140D-02-0.197D-01-0.319D-01 0.426D-01 0.280D+00 0.728D+00
 Coeff:      0.140D-02-0.197D-01-0.319D-01 0.426D-01 0.280D+00 0.728D+00
 Gap=     0.333 Goal=   None    Shift=    0.000
 RMSDP=1.39D-08 MaxDP=5.16D-07 DE=-2.34D-10 OVMax= 2.22D-06

 Cycle  14  Pass 1  IDiag  1:
 E= -764.599806857264     Delta-E=       -0.000000000005 Rises=F Damp=F
 DIIS: error= 4.61D-08 at cycle   7 NSaved=   7.
 NSaved= 7 IEnMin= 7 EnMin= -764.599806857264     IErMin= 7 ErrMin= 4.61D-08
 ErrMax= 4.61D-08  0.00D+00 EMaxC= 1.00D+00 BMatC= 1.55D-12 BMatP= 2.03D-11
 IDIUse=1 WtCom= 1.00D+00 WtEn= 0.00D+00
 Coeff-Com:  0.315D-03-0.201D-02-0.393D-02-0.257D-01 0.873D-02 0.203D+00
 Coeff-Com:  0.820D+00
 Coeff:      0.315D-03-0.201D-02-0.393D-02-0.257D-01 0.873D-02 0.203D+00
 Coeff:      0.820D+00
 Gap=     0.333 Goal=   None    Shift=    0.000
 RMSDP=4.97D-09 MaxDP=2.83D-07 DE=-5.46D-12 OVMax= 9.30D-07

 SCF Done:  E(RM062X) =  -764.599806857     A.U. after   14 cycles
            NFock= 14  Conv=0.50D-08     -V/T= 2.0036
 KE= 7.618594737756D+02 PE=-3.080182289088D+03 EE= 9.197207122987D+02
 Leave Link  502 at Sat May 24 05:04:28 2025, MaxMem=  3758096384 cpu:              95.8 elap:              23.1
 (Enter /apps/easybuild-2022/easybuild/software/Compiler/NVHPC/22.11-CUDA-11.7.0/Gaussian/g16c01-CUDA-11.7.0/g16/l508.exe)
 QCSCF skips out because SCF is already converged.
 Leave Link  508 at Sat May 24 05:04:28 2025, MaxMem=  3758096384 cpu:               0.0 elap:               0.0
 (Enter /apps/easybuild-2022/easybuild/software/Compiler/NVHPC/22.11-CUDA-11.7.0/Gaussian/g16c01-CUDA-11.7.0/g16/l701.exe)
 ... and contract with generalized density number  0.
 Compute integral first derivatives.
   1 Symmetry operations used in ECPInt.
 ECPInt:  NShTT=    6786 NPrTT=   21959 LenC2=    6392 LenP2D=   15677.
 LDataN:  DoStor=T MaxTD1= 7 Len=  274
 Leave Link  701 at Sat May 24 05:04:28 2025, MaxMem=  3758096384 cpu:               0.5 elap:               0.1
 (Enter /apps/easybuild-2022/easybuild/software/Compiler/NVHPC/22.11-CUDA-11.7.0/Gaussian/g16c01-CUDA-11.7.0/g16/l702.exe)
 L702 exits ... SP integral derivatives will be done elsewhere.
 Leave Link  702 at Sat May 24 05:04:28 2025, MaxMem=  3758096384 cpu:               0.0 elap:               0.0
 (Enter /apps/easybuild-2022/easybuild/software/Compiler/NVHPC/22.11-CUDA-11.7.0/Gaussian/g16c01-CUDA-11.7.0/g16/l703.exe)
 Integral derivatives from FoFJK, PRISM(SPDF).
 Compute integral first derivatives, UseDBF=F ICtDFT=           0.
 Calling FoFJK, ICntrl=      2127 FMM=F ISym2X=0 I1Cent= 0 IOpClX= 0 NMat=1 NMatS=1 NMatT=0.
 FoFJK:  IHMeth= 1 ICntrl=    2127 DoSepK=F KAlg= 0 I1Cent=           0 FoldK=F
 IRaf=         0 NMat=       1 IRICut=       1 DoRegI=T DoRafI=F ISym2E= 0 IDoP0=0 IntGTp=1.
 FoFCou: FMM=F IPFlag=           0 FMFlag=      100000 FMFlg1=         800
         NFxFlg=           0 DoJE=F BraDBF=F KetDBF=F FulRan=T
[...]
    R1        2.53735   0.00001   0.00000   0.00004   0.00004   2.53740
    R2        2.46123  -0.00000   0.00000  -0.00000  -0.00000   2.46123
    R3        2.60744  -0.00000   0.00000  -0.00001  -0.00001   2.60743
    R4        2.92415  -0.00000   0.00000  -0.00000  -0.00000   2.92415
    R5        2.50402  -0.00000   0.00000   0.00000   0.00000   2.50402
    R6        2.50034  -0.00000   0.00000  -0.00000  -0.00000   2.50034
    R7        2.50478  -0.00000   0.00000  -0.00000  -0.00000   2.50477
    R8        2.51134   0.00000   0.00000   0.00000   0.00000   2.51135
    R9        2.50770   0.00000   0.00000   0.00001   0.00001   2.50771
   R10        1.81946   0.00002   0.00000   0.00003   0.00003   1.81949
    A1        1.80956   0.00000   0.00000   0.00000   0.00000   1.80957
    A2        2.04121  -0.00000   0.00000  -0.00001  -0.00001   2.04120
    A3        1.91086  -0.00000   0.00000  -0.00000  -0.00000   1.91085
    A4        1.93161   0.00000   0.00000   0.00000   0.00000   1.93161
    A5        1.91407   0.00000   0.00000   0.00000   0.00000   1.91407
    A6        1.90247  -0.00000   0.00000  -0.00000  -0.00000   1.90247
    A7        1.90252   0.00000   0.00000  -0.00000  -0.00000   1.90252
    A8        1.90203  -0.00000   0.00000   0.00000   0.00000   1.90203
    A9        1.95532  -0.00000   0.00000  -0.00000  -0.00000   1.95531
   A10        1.85759   0.00000   0.00000   0.00002   0.00002   1.85761
   A11        1.96000   0.00000   0.00000  -0.00000  -0.00000   1.96000
   A12        1.88542  -0.00000   0.00000  -0.00001  -0.00001   1.88541
   A13        1.90291   0.00000   0.00000  -0.00001  -0.00001   1.90290
   A14        1.90007  -0.00000   0.00000  -0.00001  -0.00001   1.90006
   A15        1.87382  -0.00001   0.00000  -0.00009  -0.00009   1.87374
    D1       -3.12724  -0.00001   0.00000  -0.00016  -0.00016  -3.12741
    D2       -3.13796   0.00000   0.00000   0.00002   0.00002  -3.13794
    D3        1.43433   0.00000   0.00000   0.00007   0.00007   1.43440
    D4       -2.79172  -0.00000   0.00000   0.00008   0.00008  -2.79164
    D5       -0.71419   0.00000   0.00000   0.00008   0.00008  -0.71411
    D6        3.08191   0.00000   0.00000   0.00001   0.00001   3.08192
    D7        1.04143  -0.00000   0.00000  -0.00001  -0.00001   1.04142
    D8       -1.02085   0.00000   0.00000   0.00000   0.00000  -1.02085
    D9       -1.10379   0.00000   0.00000   0.00000   0.00000  -1.10379
   D10        3.13892  -0.00000   0.00000  -0.00002  -0.00002   3.13890
   D11        1.07664  -0.00000   0.00000  -0.00000  -0.00000   1.07663
   D12        0.99522   0.00000   0.00000   0.00001   0.00001   0.99523
   D13       -1.04526  -0.00000   0.00000  -0.00001  -0.00001  -1.04527
   D14       -3.10754   0.00000   0.00000   0.00000   0.00000  -3.10754
         Item               Value     Threshold  Converged?
 Maximum Force            0.000015     0.000450     YES
 RMS     Force            0.000004     0.000300     YES
 Maximum Displacement     0.000251     0.001800     YES
 RMS     Displacement     0.000080     0.001200     YES
 Predicted change in Energy=-1.957247D-09
 Optimization completed.
    -- Stationary point found.
                           ----------------------------
                           !   Optimized Parameters   !
                           ! (Angstroms and Degrees)  !
 --------------------------                            --------------------------
 ! Name  Definition              Value          Derivative Info.                !
 --------------------------------------------------------------------------------
 ! R1    R(1,2)                  1.3427         -DE/DX =    0.0                 !
 ! R2    R(1,10)                 1.3024         -DE/DX =    0.0                 !
 ! R3    R(2,4)                  1.3798         -DE/DX =    0.0                 !
 ! R4    R(3,4)                  1.5474         -DE/DX =    0.0                 !
 ! R5    R(3,5)                  1.3251         -DE/DX =    0.0                 !
 ! R6    R(3,8)                  1.3231         -DE/DX =    0.0                 !
 ! R7    R(3,9)                  1.3255         -DE/DX =    0.0                 !
 ! R8    R(4,6)                  1.3289         -DE/DX =    0.0                 !
 ! R9    R(4,7)                  1.327          -DE/DX =    0.0                 !
 ! R10   R(10,11)                0.9628         -DE/DX =    0.0                 !
 ! A1    A(2,1,10)             103.6803         -DE/DX =    0.0                 !
 ! A2    A(1,2,4)              116.9527         -DE/DX =    0.0                 !
 ! A3    A(4,3,5)              109.4841         -DE/DX =    0.0                 !
 ! A4    A(4,3,8)              110.6729         -DE/DX =    0.0                 !
 ! A5    A(4,3,9)              109.6681         -DE/DX =    0.0                 !
 ! A6    A(5,3,8)              109.0034         -DE/DX =    0.0                 !
 ! A7    A(5,3,9)              109.0061         -DE/DX =    0.0                 !
 ! A8    A(8,3,9)              108.9782         -DE/DX =    0.0                 !
 ! A9    A(2,4,3)              112.0313         -DE/DX =    0.0                 !
 ! A10   A(2,4,6)              106.4319         -DE/DX =    0.0                 !
 ! A11   A(2,4,7)              112.2997         -DE/DX =    0.0                 !
 ! A12   A(3,4,6)              108.0265         -DE/DX =    0.0                 !
 ! A13   A(3,4,7)              109.0286         -DE/DX =    0.0                 !
 ! A14   A(6,4,7)              108.8658         -DE/DX =    0.0                 !
 ! A15   A(1,10,11)            107.3621         -DE/DX =    0.0                 !
 ! D1    D(10,1,2,4)          -179.1779         -DE/DX =    0.0                 !
 ! D2    D(2,1,10,11)         -179.792          -DE/DX =    0.0                 !
 ! D3    D(1,2,4,3)             82.1809         -DE/DX =    0.0                 !
 ! D4    D(1,2,4,6)           -159.9539         -DE/DX =    0.0                 !
 ! D5    D(1,2,4,7)            -40.92           -DE/DX =    0.0                 !
 ! D6    D(5,3,4,2)            176.5804         -DE/DX =    0.0                 !
 ! D7    D(5,3,4,6)             59.6697         -DE/DX =    0.0                 !
 ! D8    D(5,3,4,7)            -58.4904         -DE/DX =    0.0                 !
 ! D9    D(8,3,4,2)            -63.2425         -DE/DX =    0.0                 !
 ! D10   D(8,3,4,6)            179.8468         -DE/DX =    0.0                 !
 ! D11   D(8,3,4,7)             61.6867         -DE/DX =    0.0                 !
 ! D12   D(9,3,4,2)             57.0218         -DE/DX =    0.0                 !
 ! D13   D(9,3,4,6)            -59.8889         -DE/DX =    0.0                 !
 ! D14   D(9,3,4,7)           -178.049          -DE/DX =    0.0                 !
 --------------------------------------------------------------------------------
 GradGradGradGradGradGradGradGradGradGradGradGradGradGradGradGradGradGrad

 Leave Link  103 at Sat May 24 05:09:32 2025, MaxMem=  3758096384 cpu:               0.0 elap:               0.0
 (Enter /apps/easybuild-2022/easybuild/software/Compiler/NVHPC/22.11-CUDA-11.7.0/Gaussian/g16c01-CUDA-11.7.0/g16/l9999.exe)

 ----------------------------------------------------------------------

 Electric dipole moment (input orientation):
 (Debye = 10**-18 statcoulomb cm , SI units = C m)
                  (au)            (Debye)         (10**-30 SI)
   Tot        0.935858D+00      0.237871D+01      0.793453D+01
   x         -0.730779D+00     -0.185745D+01     -0.619580D+01
   y         -0.577711D+00     -0.146840D+01     -0.489804D+01
   z         -0.896733D-01     -0.227927D+00     -0.760282D+00

 Dipole polarizability, Alpha (input orientation).
 (esu units = cm**3 , SI units = C**2 m**2 J**-1)
 Alpha(0;0):
               (au)            (10**-24 esu)      (10**-40 SI)
   iso        0.465088D+02      0.689189D+01      0.766826D+01
   aniso      0.176968D+02      0.262239D+01      0.291780D+01
   xx         0.509617D+02      0.755174D+01      0.840244D+01
   yx         0.811289D+01      0.120221D+01      0.133763D+01
   yy         0.483819D+02      0.716946D+01      0.797711D+01
   zx         0.208152D+01      0.308449D+00      0.343196D+00
   zy         0.160079D+01      0.237213D+00      0.263935D+00
   zz         0.401828D+02      0.595447D+01      0.662524D+01

 ----------------------------------------------------------------------

 Dipole orientation:
     6         -0.20187870         -0.33932422         -0.08531216
     8          0.77362657         -1.54108875         -2.09586076
     6          1.47262899          1.61972728         -5.35012172
     6         -0.00872440         -0.73484349         -4.44887041
     9          0.74584445          2.22696064         -7.66812788
     9          0.47648508         -2.61489917         -6.04160231
     9         -2.46427949         -0.23027287         -4.51397789
     9          1.05394829          3.56089859         -3.83082943
     9          3.92603368          1.11544710         -5.37027415
     8          0.87254945         -1.44646073          1.83236982
     1          0.23321152         -0.65824558          3.34247092

 Electric dipole moment (dipole orientation):
 (Debye = 10**-18 statcoulomb cm , SI units = C m)
                  (au)            (Debye)         (10**-30 SI)
   Tot        0.935858D+00      0.237871D+01      0.793453D+01
   x          0.000000D+00      0.000000D+00      0.000000D+00
   y          0.000000D+00      0.000000D+00      0.000000D+00
   z          0.935858D+00      0.237871D+01      0.793453D+01

 Dipole polarizability, Alpha (dipole orientation).
 (esu units = cm**3 , SI units = C**2 m**2 J**-1)
 Alpha(0;0):
               (au)            (10**-24 esu)      (10**-40 SI)
   iso        0.465088D+02      0.689189D+01      0.766826D+01
   aniso      0.176968D+02      0.262239D+01      0.291780D+01
   xx         0.405650D+02      0.601111D+01      0.668827D+01
   yx        -0.817646D+00     -0.121163D+00     -0.134812D+00
   yy         0.407595D+02      0.603993D+01      0.672033D+01
   zx        -0.319971D+00     -0.474149D-01     -0.527561D-01
   zy        -0.103211D+01     -0.152943D+00     -0.170172D+00
   zz         0.582019D+02      0.862463D+01      0.959619D+01

 ----------------------------------------------------------------------
 Unable to Open any file for archive entry.
 1\1\GINC-SPARTAN-BM199\Freq\RM062X\def2TZVPP\C3H1F5O2\AKHALILOV\24-May
 -2025\0\\#P Geom=AllCheck Guess=TCheck SCRF=Check GenChk RM062X/def2TZ
 VPP Freq\\Gaussian input prepared by ASE\\0,1\C,0.0961930977,-0.019064
 7445,-0.1899390045\O,1.4341138364,-0.0054186689,-0.0774726689\C,2.0075
 696556,1.8281355404,1.4089020491\C,2.0441512045,1.2307739551,-0.018070
 65\F,2.6688618925,2.9762892382,1.4244799988\F,3.3162919245,1.038590654
 6,-0.3509618252\F,1.5055754984,2.0992633269,-0.8646192545\F,0.75999787
 22,2.0442511855,1.7929721035\F,2.5809236506,0.9881931436,2.258980089\O
 ,-0.1987446594,-1.2875693763,-0.2048670539\H,-1.1552774096,-1.35918437
 94,-0.2881401476\\Version=ES64L-G16RevC.01\HF=-764.6005309\RMSD=3.583e
 -09\RMSF=7.850e-06\ZeroPoint=0.0518647\Thermal=0.0608041\ETot=-764.539
 7268\HTot=-764.5387826\GTot=-764.5836939\Dipole=-0.7307789,-0.5777112,
 -0.0896733\DipoleDeriv=1.2952546,0.773203,0.188978,0.5600937,1.1112346
 ,0.0744274,0.09318,0.033182,-0.1684849,-1.675004,-0.9227894,-0.1875202
 ,-0.2569928,-0.7528681,-0.0104487,-0.1674825,-0.1518345,-0.2282797,1.5
 924508,0.0399622,0.059383,0.0542477,1.6020015,-0.1021972,0.154844,-0.0
 02332,1.345549,1.7352232,0.1876833,0.0503977,0.3769633,1.6152495,-0.07
 35455,-0.0330182,-0.153231,1.1552153,-0.4470434,-0.2896265,-0.0128282,
 -0.3436561,-0.8204533,-0.0416387,-0.0850802,-0.1275083,-0.3405381,-0.9
 015357,0.0132488,0.1111017,0.0555155,-0.3009645,-0.0499452,0.2122767,-
 0.0456496,-0.3608365,-0.3541333,0.109142,-0.1165782,0.0401576,-0.60973
 11,0.1968465,-0.1403495,0.2961027,-0.5605359,-0.7797639,0.066709,0.112
 4907,0.1015587,-0.3250415,-0.0803127,0.2001604,-0.0963509,-0.4013026,-
 0.3938579,0.1547764,-0.1715177,0.1467975,-0.5099335,0.1927869,-0.23256
 2,0.2391198,-0.6187251,-0.47516,-0.2594832,-0.0495221,-0.8272506,-1.36
 38098,-0.1170499,-0.0099648,-0.0046973,-0.1309617,0.4035697,0.1271743,
 0.0156153,0.0925654,0.3543161,0.011077,0.007996,0.013199,0.3089002\Pol
 ar=50.9616726,8.1128862,48.3819469,2.0815188,1.6007905,40.1827626\PG=U
 nknown\NImag=0\\0.42536876,0.02768524,0.55758731,0.03416930,-0.0020476
 4,0.02131645,-0.28839431,0.06382448,-0.02771219,0.50853366,0.07477717,
 -0.09058626,0.00982330,0.11883149,0.42919475,-0.02286418,0.00742810,0.
 00227617,0.03797891,0.00726207,0.08018789,0.01152065,-0.00370022,0.004
 38142,-0.01137445,-0.01913541,-0.01786227,0.60357123,-0.00300733,-0.00
 347710,-0.00376490,-0.00771537,-0.02620029,-0.02065715,-0.00089064,0.6
 0617635,-0.01483294,-0.00525621,-0.00051221,0.01570739,0.00616984,0.00
 954404,-0.00458275,0.01635038,0.63755055,-0.03623231,-0.05120981,-0.00
 359860,-0.10158232,-0.03493926,-0.00957690,-0.03829406,-0.00045840,0.0
 0403999,0.60833658,-0.06426823,-0.02028288,-0.00564043,-0.02300480,-0.
 21847377,-0.02577328,0.00003072,-0.06756176,-0.06530166,-0.01563024,0.
 56426053,0.01339391,-0.00298427,-0.01696354,-0.02333116,-0.03011723,-0
 .08873235,0.00264562,-0.06809640,-0.19349701,-0.00231777,0.00865507,0.
 62443001,0.00106591,0.00121788,-0.00100553,-0.00070295,-0.00124872,-0.
 00247400,-0.13011531,-0.10167293,-0.01720463,-0.00719586,-0.01394925,0
 .00457561,0.17498037,0.00631503,0.00203215,-0.00045330,-0.00626567,-0.
 00479275,-0.00838919,-0.09920287,-0.26254079,-0.03592165,-0.02305517,-
 0.03296888,0.00982046,0.16041352,0.36012638,0.00546858,0.00129546,0.00
 003779,-0.00632225,-0.00633102,-0.00687699,-0.01135451,-0.02591203,-0.
 09033305,-0.01594002,-0.02500346,0.00674104,0.00259043,0.00145738,0.07
 416830,0.01303042,-0.00071383,0.00465206,-0.07290028,-0.02621235,0.008
 00857,-0.03592973,0.00223853,0.00173063,-0.27755597,0.04015651,0.08455
 452,0.00585615,0.00264022,0.00050469,0.42015347,0.00563191,-0.00134345
 ,0.00221420,-0.05739621,-0.00029824,0.01031141,0.01785177,0.00014136,-
 0.00195609,0.03942032,-0.08096245,-0.01931631,0.00142654,0.00203093,-0
 .00031147,-0.04970001,0.09228284,-0.00188598,-0.00069421,0.00117397,0.
 00585164,0.00549394,0.01199131,0.04056828,-0.00264432,-0.00163327,0.07
 330638,-0.01783920,-0.11485968,-0.00223732,-0.00181402,-0.00064736,-0.
 09101673,0.01161694,0.09868375,-0.00798361,-0.00344975,0.00290400,0.01
 669133,-0.00334765,0.00688051,-0.00355297,0.01035463,-0.00605848,-0.10
 793647,0.05161403,-0.06751222,0.00126290,0.00048635,0.00038194,-0.0525
 6880,0.04498893,-0.03076086,0.14626587,0.01675754,0.00059024,0.0042178
 2,-0.00693418,-0.06073498,0.03660486,0.00464698,-0.00772204,0.00473559
 ,0.05016871,-0.15987517,0.10233771,0.00045260,0.00564071,-0.00117786,0
 .03662562,-0.01053028,0.01090884,-0.09596997,0.23243168,-0.01032916,0.
 00000661,0.00183112,0.00981500,0.02257432,0.00446780,-0.02371305,0.042
 19279,-0.02219578,-0.06022351,0.09131674,-0.20967791,0.00017405,-0.004
 58669,0.00030175,-0.01707279,0.00547299,0.01677374,0.09851268,-0.15549
 719,0.22439286,-0.00734671,0.00045071,-0.00426896,0.00922329,0.0024683
 3,0.00320805,-0.27590430,0.04773324,0.09186132,-0.03007590,0.00060376,
 -0.00110870,-0.06324555,-0.03315966,0.01650550,-0.00113500,0.00280629,
 0.00637241,0.00467689,-0.00154826,0.00312607,0.41751740,0.00020952,-0.
 00001921,-0.00210270,-0.00046802,0.00281648,0.00100293,0.04355899,-0.0
 8839420,-0.02445069,0.01799892,0.00089446,-0.00103805,-0.04899122,0.00
 290700,0.01457872,0.00305216,-0.00137557,-0.00504061,-0.00267552,0.002
 15309,-0.00279091,-0.05797028,0.09194154,0.00216032,-0.00039386,-0.002
 15306,-0.00570564,-0.00007694,-0.00024078,0.08073375,-0.02433223,-0.12
 443012,0.03906840,-0.00264166,0.00119864,0.01050475,0.00874082,0.01242
 667,0.00704321,-0.00473739,-0.01059654,-0.00153518,-0.00039045,-0.0000
 0290,-0.10242501,0.01498106,0.10539169,-0.00065463,0.00096808,-0.00068
 647,0.00130540,0.00035025,0.00043998,-0.11638107,0.05362147,-0.0745377
 6,-0.00488703,0.01175312,-0.00547413,0.01823195,-0.00680023,0.00955261
 ,0.00550730,-0.00269892,-0.00055102,0.00046240,-0.00068242,-0.00295202
 ,-0.05593204,0.04532667,-0.02921390,0.15208953,0.00134833,-0.00012452,
 0.00092247,-0.00106440,0.00357098,-0.00123926,0.05567153,-0.15162903,0
 .09751065,0.00508271,-0.00517371,0.00277056,0.00371041,-0.06950095,0.0
 4374893,-0.00188643,0.00196469,-0.00056533,-0.00048624,0.00208177,-0.0
 0016705,0.03869792,-0.00977796,0.01127664,-0.10098845,0.22804794,0.002
 89328,0.00221334,0.00006533,-0.00259739,-0.00417586,-0.00082157,-0.068
 85048,0.08599218,-0.21412575,-0.02417887,0.03998298,-0.01978616,0.0045
 5453,0.03064805,0.00394007,0.00267566,-0.00251641,-0.00043447,-0.00245
 597,-0.00027912,-0.01536318,-0.01456593,0.00446162,0.01815749,0.103088
 50,-0.15387332,0.22836709,-0.09211937,-0.03604535,-0.00854582,-0.06938
 060,-0.10876761,-0.00361792,-0.00307467,0.00045977,0.00487485,-0.00268
 172,0.01513241,-0.00530736,-0.00040566,-0.00192263,-0.00170033,-0.0053
 1156,-0.00270666,0.00042833,0.00231840,-0.00418394,0.00283521,0.002088
 18,-0.00032714,-0.00099468,0.00012628,-0.00014067,-0.00086995,0.688585
 12,-0.01555010,-0.43705875,0.00113334,-0.07698706,-0.02379964,-0.00633
 582,0.00216863,0.00137469,0.00824613,0.01511154,0.01906999,-0.00151574
 ,-0.00156229,-0.00308677,-0.00236500,-0.00594701,-0.00149441,0.0005722
 5,-0.00216048,-0.00400443,0.00123840,-0.00063352,-0.00122940,-0.002483
 22,-0.00105197,0.00062923,-0.00265005,0.13020117,0.49068528,-0.0078996
 1,0.00047235,0.00606271,-0.00386207,-0.01055958,-0.02199612,-0.0022500
 8,0.00065678,-0.00022092,-0.00034289,0.00211518,0.00818626,0.00044458,
 0.00028055,0.00012149,-0.00069087,-0.00046679,-0.00016401,-0.00042003,
 -0.00122434,-0.00034294,0.00139513,0.00048795,0.00036071,0.00034642,-0
 .00043438,0.00006250,0.05687589,0.00784656,0.02939480,-0.01825481,0.00
 097258,-0.00028921,0.00858122,-0.00277624,-0.00012075,-0.00046532,-0.0
 0066298,-0.00099763,-0.00189492,-0.00243804,-0.00011832,0.00026805,0.0
 0055111,0.00031336,0.00085400,0.00037603,-0.00007514,0.00036406,0.0006
 6732,-0.00017247,0.00013374,0.00028593,0.00036398,0.00013190,0.0000552
 8,0.00030662,-0.52014439,-0.04358891,-0.04359646,0.53042648,-0.0498990
 9,-0.00731752,-0.00430215,-0.00282026,-0.01069627,-0.00021467,-0.00099
 949,-0.00016720,-0.00012628,-0.00248932,0.00107365,-0.00051580,0.00020
 345,0.00015297,0.00002035,-0.00025342,-0.00041541,0.00000570,0.0006456
 7,-0.00003059,0.00024000,0.00055148,0.00008376,0.00005724,0.00020240,-
 0.00008843,0.00019658,0.00830065,-0.04108579,0.00082573,0.04655792,0.0
 5849081,-0.00027354,-0.00003968,-0.01313472,0.00017778,-0.00006282,0.0
 1020059,0.00028407,0.00021488,-0.00014648,-0.00023623,0.00012975,0.002
 96069,0.00007752,0.00021760,0.00012028,-0.00038894,-0.00031109,-0.0002
 8744,0.00006362,-0.00023587,-0.00018454,-0.00009987,-0.00008931,-0.000
 11179,-0.00001220,0.00005009,-0.00006136,-0.04397822,-0.00368685,-0.02
 146447,0.04438602,0.00381330,0.02210923\\0.00001879,0.00000445,-0.0000
 0457,-0.00001396,-0.00000588,-0.00000369,-0.00000021,0.00000215,-0.000
 00058,0.00000347,0.00000244,0.00000639,0.00000310,-0.00000194,0.000001
 49,0.00000165,-0.00001137,0.00000822,0.00001074,-0.00000434,-0.0000020
 6,-0.00000252,0.00000462,-0.00000539,-0.00000761,-0.00000035,0.0000053
 7,-0.00002447,0.00001005,-0.00000193,0.00001102,0.00000018,-0.00000323
 \\\@
 The archive entry for this job was punched.


 THE ... SCIENTISTS WERE WRONG ... THE MOST PERSISTENT PRINCIPLES 
 OF THE UNIVERSE WERE ACCIDENT AND ERROR.

                          -- FRANK HERBERT IN DUNE
 Job cpu time:       0 days  0 hours 24 minutes 16.6 seconds.
 Elapsed time:       0 days  0 hours  3 minutes  5.4 seconds.
 File lengths (MBytes):  RWF=    116 Int=      0 D2E=      0 Chk=      9 Scr=      1
 Normal termination of Gaussian 16 at Sat May 24 05:09:32 2025.
done
