11
energy = -764.5001972960001
C 2.11672300 -0.07231800 -0.02188300
O 2.29700500 -1.18233300 -0.21387700
C -0.04966200 0.32296200 0.07369900
C -0.62091900 0.10756200 1.47187700
F -1.92948900 -0.10535300 1.47220800
F -0.02253900 -0.94135900 2.03945000
F -0.36888600 1.18345100 2.22226500
F -0.69821600 1.39644300 -0.46611900
F -0.37597500 -0.75305400 -0.67204400
O 2.43893000 1.11296300 0.16544000
H 1.28389700 1.17404200 0.20148700
