11
energy = -764.406163117
C 2.46087100 1.15611400 -0.07153200
O 2.47074300 1.82399900 0.96282100
C 1.94593900 -0.14771500 0.01467400
C 1.62198000 -0.94033000 1.28095200
F 2.32054900 -2.07939900 1.20365100
F 1.94177600 -0.32427100 2.38793600
F 0.33642500 -1.24718900 1.27991200
F 0.56566700 1.82362100 0.95771900
F 1.70724100 -0.81767000 -1.05459400
O 2.69383600 1.62197300 -1.30155400
H 2.82390800 2.57715000 -1.24206500
11
energy = -764.403196169
C 2.13283400 0.99366000 -0.44348200
O 1.54677700 1.68646900 -1.26746400
C 1.42805300 -0.09713600 0.10860100
C 1.90958800 -0.94893100 1.28494800
F 3.04343400 -1.55345400 0.95019000
F 2.11965600 -0.18985300 2.34282700
F 1.00282600 -1.86533300 1.57449000
F 0.54517900 2.40382700 0.23550200
F 0.31411900 -0.44310600 -0.40117700
O 3.31176900 1.27144300 0.11993600
H 3.53469900 2.18869700 -0.08645200
11
energy = -764.406159609
C 2.45855900 1.15388400 -0.07812800
O 2.46288500 1.83178100 0.94973400
C 1.94884200 -0.15121600 0.01927300
C 1.62481300 -0.93298400 1.29224300
F 2.32848600 -2.06970400 1.22782400
F 1.93894000 -0.30487000 2.39407100
F 0.34059800 -1.24540300 1.29071800
F 0.55782900 1.82336500 0.93952000
F 1.71594300 -0.83246100 -1.04413100
O 2.69294300 1.60884100 -1.31195300
H 2.81909700 2.56505100 -1.26125000
11
energy = -764.405216131
C 2.34886400 1.18398200 0.01035300
O 2.08565000 1.80722300 1.03176900
C 2.09459900 -0.20300500 0.03934900
C 1.69432000 -0.96592300 1.31214000
F 1.42560800 -2.22000800 0.97394300
F 2.73066600 -0.96607800 2.14620800
F 0.65445100 -0.44085000 1.90437200
F 0.26124500 1.83283200 0.25982200
F 2.29918700 -0.93332300 -0.98937000
O 2.73947300 1.70111500 -1.14826800
H 2.55487200 2.65031800 -1.12239900
