 Entering Gaussian System, Link 0=g16
 Initial command:
 /apps/easybuild-2022/easybuild/software/Compiler/NVHPC/22.11-CUDA-11.7.0/Gaussian/g16c01-CUDA-11.7.0/g16/l1.exe "/tmp/Gau-96037.inp" -scrdir="/tmp/"
 Entering Link 1 = /apps/easybuild-2022/easybuild/software/Compiler/NVHPC/22.11-CUDA-11.7.0/Gaussian/g16c01-CUDA-11.7.0/g16/l1.exe PID=     96038.
  
 Copyright (c) 1988-2019, Gaussian, Inc.  All Rights Reserved.
  
 This is part of the Gaussian(R) 16 program.  It is based on
 the Gaussian(R) 09 system (copyright 2009, Gaussian, Inc.),
 the Gaussian(R) 03 system (copyright 2003, Gaussian, Inc.),
 the Gaussian(R) 98 system (copyright 1998, Gaussian, Inc.),
 the Gaussian(R) 94 system (copyright 1995, Gaussian, Inc.),
 the Gaussian 92(TM) system (copyright 1992, Gaussian, Inc.),
 the Gaussian 90(TM) system (copyright 1990, Gaussian, Inc.),
 the Gaussian 88(TM) system (copyright 1988, Gaussian, Inc.),
 the Gaussian 86(TM) system (copyright 1986, Carnegie Mellon
 University), and the Gaussian 82(TM) system (copyright 1983,
 Carnegie Mellon University). Gaussian is a federally registered
 trademark of Gaussian, Inc.
  
 This software contains proprietary and confidential information,
 including trade secrets, belonging to Gaussian, Inc.
  
 This software is provided under written license and may be
 used, copied, transmitted, or stored only in accord with that
 written license.
  
 The following legend is applicable only to US Government
 contracts under FAR:
  
                    RESTRICTED RIGHTS LEGEND
  
 Use, reproduction and disclosure by the US Government is
 subject to restrictions as set forth in subparagraphs (a)
 and (c) of the Commercial Computer Software - Restricted
 Rights clause in FAR 52.227-19.
  
 Gaussian, Inc.
 340 Quinnipiac St., Bldg. 40, Wallingford CT 06492
  
  
 ---------------------------------------------------------------
 Warning -- This program may not be used in any manner that
 competes with the business of Gaussian, Inc. or will provide
 assistance to any competitor of Gaussian, Inc.  The licensee
 of this program is prohibited from giving any competitor of
 Gaussian, Inc. access to this program.  By using this program,
 the user acknowledges that Gaussian, Inc. is engaged in the
 business of creating and licensing software in the field of
 computational chemistry and represents and warrants to the
 licensee that it is not a competitor of Gaussian, Inc. and that
 it will not use this program in any manner prohibited above.
 ---------------------------------------------------------------
  

 Cite this work as:
 Gaussian 16, Revision C.01,
 M. J. Frisch, G. W. Trucks, H. B. Schlegel, G. E. Scuseria, 
 M. A. Robb, J. R. Cheeseman, G. Scalmani, V. Barone, 
 G. A. Petersson, H. Nakatsuji, X. Li, M. Caricato, A. V. Marenich, 
 J. Bloino, B. G. Janesko, R. Gomperts, B. Mennucci, H. P. Hratchian, 
 J. V. Ortiz, A. F. Izmaylov, J. L. Sonnenberg, D. Williams-Young, 
 F. Ding, F. Lipparini, F. Egidi, J. Goings, B. Peng, A. Petrone, 
 T. Henderson, D. Ranasinghe, V. G. Zakrzewski, J. Gao, N. Rega, 
 G. Zheng, W. Liang, M. Hada, M. Ehara, K. Toyota, R. Fukuda, 
 J. Hasegawa, M. Ishida, T. Nakajima, Y. Honda, O. Kitao, H. Nakai, 
 T. Vreven, K. Throssell, J. A. Montgomery, Jr., J. E. Peralta, 
 F. Ogliaro, M. J. Bearpark, J. J. Heyd, E. N. Brothers, K. N. Kudin, 
 V. N. Staroverov, T. A. Keith, R. Kobayashi, J. Normand, 
 K. Raghavachari, A. P. Rendell, J. C. Burant, S. S. Iyengar, 
 J. Tomasi, M. Cossi, J. M. Millam, M. Klene, C. Adamo, R. Cammi, 
 J. W. Ochterski, R. L. Martin, K. Morokuma, O. Farkas, 
 J. B. Foresman, and D. J. Fox, Gaussian, Inc., Wallingford CT, 2019.
 
 ******************************************
 Gaussian 16:  ES64L-G16RevC.01  3-Jul-2019
                24-May-2025 
 ******************************************
 %mem=28GB
 %nprocshared=8
 Will use up to    8 processors via shared memory.
 -----------------------------------------------------------------
 #P M062X/Def2TZVPP Symm(None) scf(xqc) pop(None) freq opt(CalcFC)
 -----------------------------------------------------------------
 1/10=4,18=20,19=15,26=3,38=1/1,3;
 2/9=110,12=2,15=3,17=6,18=5,40=1/2;
 3/5=44,7=202,11=2,25=1,30=1,71=2,74=-55,140=1/1,2,3;
 4//1;
 5/5=2,8=3,13=1,38=5/2,8;
 8/6=4,10=90,11=11/1;
 11/6=1,8=1,9=11,15=111,16=1,31=1/1,2,10;
 10/6=1,13=1,31=1/2;
 7/10=1,25=1,30=1/1,2,3,16;
 1/10=4,18=20,19=15,26=3/3(2);
 2/9=110,15=3/2;
 99//99;
 2/9=110,15=3/2;
 3/5=44,7=202,11=2,25=1,30=1,71=1,74=-55/1,2,3;
 4/5=5,16=3,69=1/1;
 5/5=2,8=3,13=1,38=5/2,8;
 7/30=1/1,2,3,16;
 1/18=20,19=15,26=3/3(-5);
 2/9=110,15=3/2;
 99/9=1/99;
 Leave Link    1 at Sat May 24 08:42:03 2025, MaxMem=  3758096384 cpu:               0.0 elap:               0.0
 (Enter /apps/easybuild-2022/easybuild/software/Compiler/NVHPC/22.11-CUDA-11.7.0/Gaussian/g16c01-CUDA-11.7.0/g16/l101.exe)
 ------------------------------
 Gaussian input prepared by ASE
 ------------------------------
 Symbolic Z-matrix:
 Charge =  0 Multiplicity = 1
 C                     0.70867   1.97278   1.00732 
 O                     0.96845   0.        0. 
 C                    -0.81042   1.6976    0.95635 
 C                    -1.49867   0.9334    2.10668 
 F                    -2.79561   0.80791   1.8648 
 F                    -0.97376  -0.28133   2.23363 
 F                    -1.34489   1.58822   3.25331 
 F                    -1.41136   2.89369   0.8643 
 F                    -1.03309   0.99978  -0.16784 
 O                     1.20869   1.42288   0. 
 H                     0.        0.        0. 
 
 ITRead=  0  0  0  0  0  0  0  0  0  0  0
 MicOpt= -1 -1 -1 -1 -1 -1 -1 -1 -1 -1 -1
 NAtoms=     11 NQM=       11 NQMF=       0 NMMI=      0 NMMIF=      0
                NMic=       0 NMicF=      0.
                    Isotopes and Nuclear Properties:
 (Nuclear quadrupole moments (NQMom) in fm**2, nuclear magnetic moments (NMagM)
  in nuclear magnetons)

  Atom         1           2           3           4           5           6           7           8           9          10
 IAtWgt=          12          16          12          12          19          19          19          19          19          16
 AtmWgt=  12.0000000  15.9949146  12.0000000  12.0000000  18.9984032  18.9984032  18.9984032  18.9984032  18.9984032  15.9949146
 NucSpn=           0           0           0           0           1           1           1           1           1           0
 AtZEff=  -0.0000000  -0.0000000  -0.0000000  -0.0000000  -0.0000000  -0.0000000  -0.0000000  -0.0000000  -0.0000000  -0.0000000
 NQMom=    0.0000000   0.0000000   0.0000000   0.0000000   0.0000000   0.0000000   0.0000000   0.0000000   0.0000000   0.0000000
 NMagM=    0.0000000   0.0000000   0.0000000   0.0000000   2.6288670   2.6288670   2.6288670   2.6288670   2.6288670   0.0000000
 AtZNuc=   6.0000000   8.0000000   6.0000000   6.0000000   9.0000000   9.0000000   9.0000000   9.0000000   9.0000000   8.0000000

  Atom        11
 IAtWgt=           1
 AtmWgt=   1.0078250
 NucSpn=           1
 AtZEff=  -0.0000000
 NQMom=    0.0000000
 NMagM=    2.7928460
 AtZNuc=   1.0000000
 Leave Link  101 at Sat May 24 08:42:04 2025, MaxMem=  3758096384 cpu:               0.2 elap:               0.2
 (Enter /apps/easybuild-2022/easybuild/software/Compiler/NVHPC/22.11-CUDA-11.7.0/Gaussian/g16c01-CUDA-11.7.0/g16/l103.exe)

 GradGradGradGradGradGradGradGradGradGradGradGradGradGradGradGradGradGrad
 Berny optimization.
 Initialization pass.
                           ----------------------------
                           !    Initial Parameters    !
                           ! (Angstroms and Degrees)  !
 --------------------------                            --------------------------
 ! Name  Definition              Value          Derivative Info.                !
 --------------------------------------------------------------------------------
 ! R1    R(1,3)                  1.5447         calculate D2E/DX2 analytically  !
 ! R2    R(1,10)                 1.2518         calculate D2E/DX2 analytically  !
 ! R3    R(2,10)                 1.443          calculate D2E/DX2 analytically  !
 ! R4    R(2,11)                 0.9685         calculate D2E/DX2 analytically  !
 ! R5    R(3,4)                  1.543          calculate D2E/DX2 analytically  !
 ! R6    R(3,8)                  1.3417         calculate D2E/DX2 analytically  !
 ! R7    R(3,9)                  1.3418         calculate D2E/DX2 analytically  !
 ! R8    R(4,5)                  1.3253         calculate D2E/DX2 analytically  !
 ! R9    R(4,6)                  1.3294         calculate D2E/DX2 analytically  !
 ! R10   R(4,7)                  1.3294         calculate D2E/DX2 analytically  !
 ! A1    A(3,1,10)             106.739          calculate D2E/DX2 analytically  !
 ! A2    A(10,2,11)             99.5833         calculate D2E/DX2 analytically  !
 ! A3    A(1,3,4)              120.1511         calculate D2E/DX2 analytically  !
 ! A4    A(1,3,8)              106.4943         calculate D2E/DX2 analytically  !
 ! A5    A(1,3,9)              106.4695         calculate D2E/DX2 analytically  !
 ! A6    A(4,3,8)              107.0302         calculate D2E/DX2 analytically  !
 ! A7    A(4,3,9)              107.0389         calculate D2E/DX2 analytically  !
 ! A8    A(8,3,9)              109.3793         calculate D2E/DX2 analytically  !
 ! A9    A(3,4,5)              110.3244         calculate D2E/DX2 analytically  !
 ! A10   A(3,4,6)              110.3418         calculate D2E/DX2 analytically  !
 ! A11   A(3,4,7)              110.3328         calculate D2E/DX2 analytically  !
 ! A12   A(5,4,6)              108.5013         calculate D2E/DX2 analytically  !
 ! A13   A(5,4,7)              108.4983         calculate D2E/DX2 analytically  !
 ! A14   A(6,4,7)              108.7877         calculate D2E/DX2 analytically  !
 ! A15   A(1,10,2)             111.5088         calculate D2E/DX2 analytically  !
 ! D1    D(10,1,3,4)           120.1435         calculate D2E/DX2 analytically  !
 ! D2    D(10,1,3,8)          -118.1724         calculate D2E/DX2 analytically  !
 ! D3    D(10,1,3,9)            -1.531          calculate D2E/DX2 analytically  !
 ! D4    D(3,1,10,2)           -60.0356         calculate D2E/DX2 analytically  !
 ! D5    D(11,2,10,1)           59.8714         calculate D2E/DX2 analytically  !
 ! D6    D(1,3,4,5)            179.9465         calculate D2E/DX2 analytically  !
 ! D7    D(1,3,4,6)            -60.1711         calculate D2E/DX2 analytically  !
 ! D8    D(1,3,4,7)             60.0734         calculate D2E/DX2 analytically  !
 ! D9    D(8,3,4,5)             58.5252         calculate D2E/DX2 analytically  !
 ! D10   D(8,3,4,6)            178.4077         calculate D2E/DX2 analytically  !
 ! D11   D(8,3,4,7)            -61.3478         calculate D2E/DX2 analytically  !
 ! D12   D(9,3,4,5)            -58.6584         calculate D2E/DX2 analytically  !
 ! D13   D(9,3,4,6)             61.224          calculate D2E/DX2 analytically  !
 ! D14   D(9,3,4,7)           -178.5315         calculate D2E/DX2 analytically  !
 --------------------------------------------------------------------------------
 Trust Radius=3.00D-01 FncErr=1.00D-07 GrdErr=1.00D-06 EigMax=2.50D+02 EigMin=1.00D-04
 Number of steps in this run=     49 maximum allowed number of steps=    100.
 GradGradGradGradGradGradGradGradGradGradGradGradGradGradGradGradGradGrad

 Leave Link  103 at Sat May 24 08:42:04 2025, MaxMem=  3758096384 cpu:               0.1 elap:               0.0
 (Enter /apps/easybuild-2022/easybuild/software/Compiler/NVHPC/22.11-CUDA-11.7.0/Gaussian/g16c01-CUDA-11.7.0/g16/l202.exe)
                          Input orientation:                          
 ---------------------------------------------------------------------
 Center     Atomic      Atomic             Coordinates (Angstroms)
 Number     Number       Type             X           Y           Z
 ---------------------------------------------------------------------
      1          6           0        0.708666    1.972782    1.007316
      2          8           0        0.968454    0.000000    0.000000
      3          6           0       -0.810422    1.697600    0.956347
      4          6           0       -1.498666    0.933401    2.106681
      5          9           0       -2.795609    0.807912    1.864804
      6          9           0       -0.973756   -0.281327    2.233626
      7          9           0       -1.344885    1.588222    3.253308
      8          9           0       -1.411356    2.893689    0.864299
      9          9           0       -1.033090    0.999782   -0.167837
     10          8           0        1.208690    1.422883    0.000000
     11          1           0        0.000000    0.000000    0.000000
 ---------------------------------------------------------------------
                    Distance matrix (angstroms):
                    1          2          3          4          5
     1  C    0.000000
     2  O    2.230256   0.000000
     3  C    1.544653   2.638341   0.000000
     4  C    2.676048   3.375799   1.543033   0.000000
     5  F    3.791062   4.277661   2.357500   1.325259   0.000000
     6  F    3.068450   2.973282   2.360990   1.329364   2.154442
     7  F    3.067481   4.296277   2.360857   1.329358   2.154397
     8  F    2.315819   3.844989   1.341724   2.322469   2.695855
     9  F    2.315476   2.243638   1.341760   2.322628   2.697205
    10  O    1.251838   1.443021   2.250974   3.465181   4.459831
    11  H    2.325674   0.968454   2.110268   2.748698   3.456247
                    6          7          8          9         10
     6  F    0.000000
     7  F    2.161643   0.000000
     8  F    3.485294   2.723238   0.000000
     9  F    2.722460   3.485357   2.189811   0.000000
    10  O    3.557595   4.139093   3.126488   2.287523   0.000000
    11  H    2.452841   3.862017   3.333523   1.447415   1.866957
                   11
    11  H    0.000000
 Symmetry turned off by external request.
 Stoichiometry    C3HF5O2
 Rotational constants (GHZ):           2.1530664           1.1560795           1.0266759
 Leave Link  202 at Sat May 24 08:42:04 2025, MaxMem=  3758096384 cpu:               0.1 elap:               0.0
 (Enter /apps/easybuild-2022/easybuild/software/Compiler/NVHPC/22.11-CUDA-11.7.0/Gaussian/g16c01-CUDA-11.7.0/g16/l301.exe)
 Standard basis: def2TZVPP (5D, 7F)
 Ernie: Thresh=  0.10000D-02 Tol=  0.10000D-05 Strict=F.
   324 basis functions,   527 primitive gaussians,   375 cartesian basis functions
    40 alpha electrons       40 beta electrons
       nuclear repulsion energy       643.4264877110 Hartrees.
 IExCor= 4336 DFT=T Ex+Corr=M062X ExCW=0 ScaHFX=  0.540000
 ScaDFX=  1.000000  1.000000  1.000000  1.000000 ScalE2=  1.000000  1.000000
 IRadAn=      5 IRanWt=     -1 IRanGd=            0 ICorTp=0 IEmpDi=  4
 NAtoms=   11 NActive=   11 NUniq=   11 SFac= 1.00D+00 NAtFMM=   60 NAOKFM=F Big=F
 Integral buffers will be    131072 words long.
 Raffenetti 2 integral format.
 Two-electron integral symmetry is turned off.
 Leave Link  301 at Sat May 24 08:42:04 2025, MaxMem=  3758096384 cpu:               0.1 elap:               0.0
 (Enter /apps/easybuild-2022/easybuild/software/Compiler/NVHPC/22.11-CUDA-11.7.0/Gaussian/g16c01-CUDA-11.7.0/g16/l302.exe)
 NPDir=0 NMtPBC=     1 NCelOv=     1 NCel=       1 NClECP=     1 NCelD=      1
         NCelK=      1 NCelE2=     1 NClLst=     1 CellRange=     0.0.
 One-electron integrals computed using PRISM.
   1 Symmetry operations used in ECPInt.
 ECPInt:  NShTT=    6786 NPrTT=   21959 LenC2=    6495 LenP2D=   16089.
 LDataN:  DoStor=T MaxTD1= 6 Len=  172
 NBasis=   324 RedAO= T EigKep=  4.13D-04  NBF=   324
 NBsUse=   324 1.00D-06 EigRej= -1.00D+00 NBFU=   324
 Precomputing XC quadrature grid using
 IXCGrd= 4 IRadAn=           5 IRanWt=          -1 IRanGd=           0 AccXCQ= 0.00D+00.
 Generated NRdTot=       0 NPtTot=           0 NUsed=           0 NTot=          32
 NSgBfM=   373   372   373   373   373 MxSgAt=    11 MxSgA2=    11.
 Leave Link  302 at Sat May 24 08:42:04 2025, MaxMem=  3758096384 cpu:               1.1 elap:               0.2
 (Enter /apps/easybuild-2022/easybuild/software/Compiler/NVHPC/22.11-CUDA-11.7.0/Gaussian/g16c01-CUDA-11.7.0/g16/l303.exe)
 DipDrv:  MaxL=1.
 Leave Link  303 at Sat May 24 08:42:04 2025, MaxMem=  3758096384 cpu:               0.1 elap:               0.1
 (Enter /apps/easybuild-2022/easybuild/software/Compiler/NVHPC/22.11-CUDA-11.7.0/Gaussian/g16c01-CUDA-11.7.0/g16/l401.exe)
 ExpMin= 9.52D-02 ExpMax= 3.55D+04 ExpMxC= 1.21D+03 IAcc=3 IRadAn=         5 AccDes= 0.00D+00
 Harris functional with IExCor= 1009 and IRadAn=       5 diagonalized for initial guess.
 HarFok:  IExCor= 1009 AccDes= 0.00D+00 IRadAn=         5 IDoV= 1 UseB2=F ITyADJ=14
 ICtDFT=  3500011 ScaDFX=  1.000000  1.000000  1.000000  1.000000
 FoFCou: FMM=F IPFlag=           0 FMFlag=      100000 FMFlg1=           0
         NFxFlg=           0 DoJE=T BraDBF=F KetDBF=T FulRan=T
         wScrn=  0.000000 ICntrl=       500 IOpCl=  0 I1Cent=   200000004 NGrid=           0
         NMat0=    1 NMatS0=      1 NMatT0=    0 NMatD0=    1 NMtDS0=    0 NMtDT0=    0
 Symmetry not used in FoFCou.
 Harris En= -763.925366871772    
 JPrj=0 DoOrth=F DoCkMO=F.
 Leave Link  401 at Sat May 24 08:42:04 2025, MaxMem=  3758096384 cpu:               3.8 elap:               0.6
 (Enter /apps/easybuild-2022/easybuild/software/Compiler/NVHPC/22.11-CUDA-11.7.0/Gaussian/g16c01-CUDA-11.7.0/g16/l502.exe)
 Keep R1 ints in memory in canonical form, NReq=1412617130.
 FoFCou: FMM=F IPFlag=           0 FMFlag=           0 FMFlg1=           0
         NFxFlg=           0 DoJE=F BraDBF=F KetDBF=F FulRan=T
         wScrn=  0.000000 ICntrl=       600 IOpCl=  0 I1Cent=           0 NGrid=           0
         NMat0=    1 NMatS0=  52650 NMatT0=    0 NMatD0=    1 NMtDS0=    0 NMtDT0=    0
 Symmetry not used in FoFCou.
 Two-electron integral symmetry not used.
 Closed shell SCF:
 Using DIIS extrapolation, IDIIS=  1040.
 NGot=  3758096384 LenX=  2371771924 LenY=  2371630858
 Requested convergence on RMS density matrix=1.00D-08 within  32 cycles.
 Requested convergence on MAX density matrix=1.00D-06.
 Requested convergence on             energy=1.00D-06.
 No special actions if energy rises.
 Integral accuracy reduced to 1.0D-05 until final iterations.

 Cycle   1  Pass 0  IDiag  1:
 E= -764.271832294764    
 DIIS: error= 1.62D-02 at cycle   1 NSaved=   1.
 NSaved= 1 IEnMin= 1 EnMin= -764.271832294764     IErMin= 1 ErrMin= 1.62D-02
 ErrMax= 1.62D-02  0.00D+00 EMaxC= 1.00D-01 BMatC= 2.69D-01 BMatP= 2.69D-01
 IDIUse=3 WtCom= 8.38D-01 WtEn= 1.62D-01
 Coeff-Com:  0.100D+01
 Coeff-En:   0.100D+01
 Coeff:      0.100D+01
 Gap=     0.224 Goal=   None    Shift=    0.000
 GapD=    0.224 DampG=1.000 DampE=0.500 DampFc=0.5000 IDamp=-1.
 Damping current iteration by 5.00D-01
 RMSDP=1.91D-03 MaxDP=6.23D-02              OVMax= 1.52D-01

 Cycle   2  Pass 0  IDiag  1:
 E= -764.326338589444     Delta-E=       -0.054506294680 Rises=F Damp=T
 DIIS: error= 6.65D-03 at cycle   2 NSaved=   2.
 NSaved= 2 IEnMin= 2 EnMin= -764.326338589444     IErMin= 2 ErrMin= 6.65D-03
 ErrMax= 6.65D-03  0.00D+00 EMaxC= 1.00D-01 BMatC= 3.50D-02 BMatP= 2.69D-01
 IDIUse=3 WtCom= 9.33D-01 WtEn= 6.65D-02
 Coeff-Com: -0.464D-01 0.105D+01
 Coeff-En:   0.595D-01 0.940D+00
 Coeff:     -0.393D-01 0.104D+01
 Gap=     0.245 Goal=   None    Shift=    0.000
 RMSDP=6.51D-04 MaxDP=2.02D-02 DE=-5.45D-02 OVMax= 7.76D-02

 Cycle   3  Pass 0  IDiag  1:
 E= -764.389831280852     Delta-E=       -0.063492691408 Rises=F Damp=F
 DIIS: error= 3.03D-03 at cycle   3 NSaved=   3.
 NSaved= 3 IEnMin= 3 EnMin= -764.389831280852     IErMin= 3 ErrMin= 3.03D-03
 ErrMax= 3.03D-03  0.00D+00 EMaxC= 1.00D-01 BMatC= 1.12D-02 BMatP= 3.50D-02
 IDIUse=3 WtCom= 9.70D-01 WtEn= 3.03D-02
 Coeff-Com: -0.147D+00 0.378D+00 0.769D+00
 Coeff-En:   0.000D+00 0.000D+00 0.100D+01
 Coeff:     -0.142D+00 0.366D+00 0.776D+00
 Gap=     0.231 Goal=   None    Shift=    0.000
 RMSDP=2.68D-04 MaxDP=1.42D-02 DE=-6.35D-02 OVMax= 4.67D-02

 Cycle   4  Pass 0  IDiag  1:
 E= -764.396620211625     Delta-E=       -0.006788930773 Rises=F Damp=F
 DIIS: error= 1.51D-03 at cycle   4 NSaved=   4.
 NSaved= 4 IEnMin= 4 EnMin= -764.396620211625     IErMin= 4 ErrMin= 1.51D-03
 ErrMax= 1.51D-03  0.00D+00 EMaxC= 1.00D-01 BMatC= 1.85D-03 BMatP= 1.12D-02
 IDIUse=3 WtCom= 9.85D-01 WtEn= 1.51D-02
 Coeff-Com: -0.707D-01 0.141D+00 0.420D+00 0.510D+00
 Coeff-En:   0.000D+00 0.000D+00 0.324D-01 0.968D+00
 Coeff:     -0.696D-01 0.139D+00 0.414D+00 0.517D+00
 Gap=     0.231 Goal=   None    Shift=    0.000
 RMSDP=8.55D-05 MaxDP=4.64D-03 DE=-6.79D-03 OVMax= 7.22D-03

 Cycle   5  Pass 0  IDiag  1:
 E= -764.397907697888     Delta-E=       -0.001287486263 Rises=F Damp=F
 DIIS: error= 2.72D-04 at cycle   5 NSaved=   5.
 NSaved= 5 IEnMin= 5 EnMin= -764.397907697888     IErMin= 5 ErrMin= 2.72D-04
 ErrMax= 2.72D-04  0.00D+00 EMaxC= 1.00D-01 BMatC= 7.67D-05 BMatP= 1.85D-03
 IDIUse=3 WtCom= 9.97D-01 WtEn= 2.72D-03
 Coeff-Com: -0.163D-01 0.251D-01 0.115D+00 0.195D+00 0.681D+00
 Coeff-En:   0.000D+00 0.000D+00 0.000D+00 0.000D+00 0.100D+01
 Coeff:     -0.163D-01 0.250D-01 0.115D+00 0.195D+00 0.682D+00
 Gap=     0.231 Goal=   None    Shift=    0.000
 RMSDP=4.05D-05 MaxDP=3.19D-03 DE=-1.29D-03 OVMax= 8.34D-03

 Cycle   6  Pass 0  IDiag  1:
 E= -764.398023912446     Delta-E=       -0.000116214559 Rises=F Damp=F
 DIIS: error= 2.06D-04 at cycle   6 NSaved=   6.
 NSaved= 6 IEnMin= 6 EnMin= -764.398023912446     IErMin= 6 ErrMin= 2.06D-04
 ErrMax= 2.06D-04  0.00D+00 EMaxC= 1.00D-01 BMatC= 2.18D-05 BMatP= 7.67D-05
 IDIUse=3 WtCom= 9.98D-01 WtEn= 2.06D-03
 Coeff-Com:  0.537D-02-0.129D-01-0.209D-01-0.501D-01 0.207D+00 0.872D+00
 Coeff-En:   0.000D+00 0.000D+00 0.000D+00 0.000D+00 0.000D+00 0.100D+01
 Coeff:      0.536D-02-0.129D-01-0.209D-01-0.500D-01 0.206D+00 0.872D+00
 Gap=     0.232 Goal=   None    Shift=    0.000
 RMSDP=3.19D-05 MaxDP=2.02D-03 DE=-1.16D-04 OVMax= 7.30D-03

 Cycle   7  Pass 0  IDiag  1:
 E= -764.398078749308     Delta-E=       -0.000054836862 Rises=F Damp=F
 DIIS: error= 8.96D-05 at cycle   7 NSaved=   7.
 NSaved= 7 IEnMin= 7 EnMin= -764.398078749308     IErMin= 7 ErrMin= 8.96D-05
 ErrMax= 8.96D-05  0.00D+00 EMaxC= 1.00D-01 BMatC= 5.94D-06 BMatP= 2.18D-05
 IDIUse=1 WtCom= 1.00D+00 WtEn= 0.00D+00
 Coeff-Com:  0.854D-02-0.157D-01-0.462D-01-0.999D-01-0.861D-01 0.356D+00
 Coeff-Com:  0.883D+00
 Coeff:      0.854D-02-0.157D-01-0.462D-01-0.999D-01-0.861D-01 0.356D+00
 Coeff:      0.883D+00
 Gap=     0.232 Goal=   None    Shift=    0.000
 RMSDP=2.70D-05 MaxDP=2.23D-03 DE=-5.48D-05 OVMax= 6.14D-03

 Cycle   8  Pass 0  IDiag  1:
 E= -764.398103421407     Delta-E=       -0.000024672099 Rises=F Damp=F
 DIIS: error= 5.77D-05 at cycle   8 NSaved=   8.
 NSaved= 8 IEnMin= 8 EnMin= -764.398103421407     IErMin= 8 ErrMin= 5.77D-05
 ErrMax= 5.77D-05  0.00D+00 EMaxC= 1.00D-01 BMatC= 1.77D-06 BMatP= 5.94D-06
 IDIUse=1 WtCom= 1.00D+00 WtEn= 0.00D+00
 Coeff-Com:  0.170D-02-0.246D-02-0.785D-02-0.221D-01-0.566D-01-0.131D+00
 Coeff-Com:  0.369D+00 0.850D+00
 Coeff:      0.170D-02-0.246D-02-0.785D-02-0.221D-01-0.566D-01-0.131D+00
 Coeff:      0.369D+00 0.850D+00
 Gap=     0.232 Goal=   None    Shift=    0.000
 RMSDP=1.29D-05 MaxDP=1.01D-03 DE=-2.47D-05 OVMax= 3.03D-03

 Cycle   9  Pass 0  IDiag  1:
 E= -764.398109010291     Delta-E=       -0.000005588884 Rises=F Damp=F
 DIIS: error= 1.79D-05 at cycle   9 NSaved=   9.
 NSaved= 9 IEnMin= 9 EnMin= -764.398109010291     IErMin= 9 ErrMin= 1.79D-05
 ErrMax= 1.79D-05  0.00D+00 EMaxC= 1.00D-01 BMatC= 2.20D-07 BMatP= 1.77D-06
 IDIUse=1 WtCom= 1.00D+00 WtEn= 0.00D+00
 Coeff-Com: -0.140D-02 0.272D-02 0.929D-02 0.207D-01 0.960D-02-0.159D+00
 Coeff-Com: -0.112D+00 0.187D+00 0.104D+01
 Coeff:     -0.140D-02 0.272D-02 0.929D-02 0.207D-01 0.960D-02-0.159D+00
 Coeff:     -0.112D+00 0.187D+00 0.104D+01
 Gap=     0.232 Goal=   None    Shift=    0.000
 RMSDP=7.73D-06 MaxDP=5.93D-04 DE=-5.59D-06 OVMax= 1.91D-03

 Initial convergence to 1.0D-05 achieved.  Increase integral accuracy.
 Cycle  10  Pass 1  IDiag  1:
 E= -764.398156748549     Delta-E=       -0.000047738258 Rises=F Damp=F
 DIIS: error= 2.16D-05 at cycle   1 NSaved=   1.
 NSaved= 1 IEnMin= 1 EnMin= -764.398156748549     IErMin= 1 ErrMin= 2.16D-05
 ErrMax= 2.16D-05  0.00D+00 EMaxC= 1.00D-01 BMatC= 6.88D-07 BMatP= 6.88D-07
 IDIUse=1 WtCom= 1.00D+00 WtEn= 0.00D+00
 Coeff-Com:  0.100D+01
 Coeff:      0.100D+01
 Gap=     0.232 Goal=   None    Shift=    0.000
 RMSDP=7.73D-06 MaxDP=5.93D-04 DE=-4.77D-05 OVMax= 2.17D-04

 Cycle  11  Pass 1  IDiag  1:
 E= -764.398157251700     Delta-E=       -0.000000503151 Rises=F Damp=F
 DIIS: error= 4.39D-06 at cycle   2 NSaved=   2.
 NSaved= 2 IEnMin= 2 EnMin= -764.398157251700     IErMin= 2 ErrMin= 4.39D-06
 ErrMax= 4.39D-06  0.00D+00 EMaxC= 1.00D-01 BMatC= 3.28D-08 BMatP= 6.88D-07
 IDIUse=1 WtCom= 1.00D+00 WtEn= 0.00D+00
 Coeff-Com:  0.216D-01 0.978D+00
 Coeff:      0.216D-01 0.978D+00
 Gap=     0.232 Goal=   None    Shift=    0.000
 RMSDP=1.46D-06 MaxDP=1.30D-04 DE=-5.03D-07 OVMax= 1.24D-04

 Cycle  12  Pass 1  IDiag  1:
 E= -764.398157264830     Delta-E=       -0.000000013129 Rises=F Damp=F
 DIIS: error= 5.35D-06 at cycle   3 NSaved=   3.
 NSaved= 3 IEnMin= 3 EnMin= -764.398157264830     IErMin= 2 ErrMin= 4.39D-06
 ErrMax= 5.35D-06  0.00D+00 EMaxC= 1.00D-01 BMatC= 3.73D-08 BMatP= 3.28D-08
 IDIUse=1 WtCom= 1.00D+00 WtEn= 0.00D+00
 Coeff-Com: -0.376D-01 0.532D+00 0.506D+00
 Coeff:     -0.376D-01 0.532D+00 0.506D+00
 Gap=     0.232 Goal=   None    Shift=    0.000
 RMSDP=4.27D-07 MaxDP=2.61D-05 DE=-1.31D-08 OVMax= 5.06D-05

 Cycle  13  Pass 1  IDiag  1:
 E= -764.398157290351     Delta-E=       -0.000000025521 Rises=F Damp=F
 DIIS: error= 1.03D-06 at cycle   4 NSaved=   4.
 NSaved= 4 IEnMin= 4 EnMin= -764.398157290351     IErMin= 4 ErrMin= 1.03D-06
 ErrMax= 1.03D-06  0.00D+00 EMaxC= 1.00D-01 BMatC= 6.42D-10 BMatP= 3.28D-08
 IDIUse=1 WtCom= 1.00D+00 WtEn= 0.00D+00
 Coeff-Com: -0.693D-02 0.180D-01 0.632D-01 0.926D+00
 Coeff:     -0.693D-02 0.180D-01 0.632D-01 0.926D+00
 Gap=     0.232 Goal=   None    Shift=    0.000
 RMSDP=2.53D-07 MaxDP=2.72D-05 DE=-2.55D-08 OVMax= 4.56D-05

 Cycle  14  Pass 1  IDiag  1:
 E= -764.398157292671     Delta-E=       -0.000000002320 Rises=F Damp=F
 DIIS: error= 7.09D-07 at cycle   5 NSaved=   5.
 NSaved= 5 IEnMin= 5 EnMin= -764.398157292671     IErMin= 5 ErrMin= 7.09D-07
 ErrMax= 7.09D-07  0.00D+00 EMaxC= 1.00D-01 BMatC= 3.12D-10 BMatP= 6.42D-10
 IDIUse=1 WtCom= 1.00D+00 WtEn= 0.00D+00
 Coeff-Com:  0.414D-02-0.917D-01-0.735D-01 0.373D+00 0.788D+00
 Coeff:      0.414D-02-0.917D-01-0.735D-01 0.373D+00 0.788D+00
 Gap=     0.232 Goal=   None    Shift=    0.000
 RMSDP=1.43D-07 MaxDP=1.15D-05 DE=-2.32D-09 OVMax= 3.27D-05

 Cycle  15  Pass 1  IDiag  1:
 E= -764.398157293691     Delta-E=       -0.000000001020 Rises=F Damp=F
 DIIS: error= 3.11D-07 at cycle   6 NSaved=   6.
 NSaved= 6 IEnMin= 6 EnMin= -764.398157293691     IErMin= 6 ErrMin= 3.11D-07
 ErrMax= 3.11D-07  0.00D+00 EMaxC= 1.00D-01 BMatC= 6.50D-11 BMatP= 3.12D-10
 IDIUse=1 WtCom= 1.00D+00 WtEn= 0.00D+00
 Coeff-Com:  0.281D-02-0.275D-01-0.368D-01-0.159D+00 0.205D+00 0.102D+01
 Coeff:      0.281D-02-0.275D-01-0.368D-01-0.159D+00 0.205D+00 0.102D+01
 Gap=     0.232 Goal=   None    Shift=    0.000
 RMSDP=1.12D-07 MaxDP=9.35D-06 DE=-1.02D-09 OVMax= 2.70D-05

 Cycle  16  Pass 1  IDiag  1:
 E= -764.398157294092     Delta-E=       -0.000000000401 Rises=F Damp=F
 DIIS: error= 2.39D-07 at cycle   7 NSaved=   7.
 NSaved= 7 IEnMin= 7 EnMin= -764.398157294092     IErMin= 7 ErrMin= 2.39D-07
 ErrMax= 2.39D-07  0.00D+00 EMaxC= 1.00D-01 BMatC= 2.06D-11 BMatP= 6.50D-11
 IDIUse=1 WtCom= 1.00D+00 WtEn= 0.00D+00
 Coeff-Com: -0.387D-03 0.201D-01 0.104D-01-0.179D+00-0.176D+00 0.397D+00
 Coeff-Com:  0.928D+00
 Coeff:     -0.387D-03 0.201D-01 0.104D-01-0.179D+00-0.176D+00 0.397D+00
 Coeff:      0.928D+00
 Gap=     0.232 Goal=   None    Shift=    0.000
 RMSDP=6.23D-08 MaxDP=4.79D-06 DE=-4.01D-10 OVMax= 1.52D-05

 Cycle  17  Pass 1  IDiag  1:
 E= -764.398157294215     Delta-E=       -0.000000000123 Rises=F Damp=F
 DIIS: error= 5.75D-08 at cycle   8 NSaved=   8.
 NSaved= 8 IEnMin= 8 EnMin= -764.398157294215     IErMin= 8 ErrMin= 5.75D-08
 ErrMax= 5.75D-08  0.00D+00 EMaxC= 1.00D-01 BMatC= 2.40D-12 BMatP= 2.06D-11
 IDIUse=1 WtCom= 1.00D+00 WtEn= 0.00D+00
 Coeff-Com: -0.397D-03 0.100D-01 0.789D-02-0.461D-01-0.920D-01 0.252D-01
 Coeff-Com:  0.358D+00 0.738D+00
 Coeff:     -0.397D-03 0.100D-01 0.789D-02-0.461D-01-0.920D-01 0.252D-01
 Coeff:      0.358D+00 0.738D+00
 Gap=     0.232 Goal=   None    Shift=    0.000
 RMSDP=1.36D-08 MaxDP=8.36D-07 DE=-1.23D-10 OVMax= 3.40D-06

 Cycle  18  Pass 1  IDiag  1:
 E= -764.398157294209     Delta-E=        0.000000000006 Rises=F Damp=F
 DIIS: error= 3.59D-08 at cycle   9 NSaved=   9.
 NSaved= 9 IEnMin= 8 EnMin= -764.398157294215     IErMin= 9 ErrMin= 3.59D-08
 ErrMax= 3.59D-08  0.00D+00 EMaxC= 1.00D-01 BMatC= 7.14D-13 BMatP= 2.40D-12
 IDIUse=1 WtCom= 1.00D+00 WtEn= 0.00D+00
 Coeff-Com: -0.211D-03 0.233D-02 0.320D-02 0.743D-02-0.204D-01-0.656D-01
 Coeff-Com:  0.727D-02 0.363D+00 0.703D+00
 Coeff:     -0.211D-03 0.233D-02 0.320D-02 0.743D-02-0.204D-01-0.656D-01
 Coeff:      0.727D-02 0.363D+00 0.703D+00
 Gap=     0.232 Goal=   None    Shift=    0.000
 RMSDP=6.08D-09 MaxDP=4.09D-07 DE= 6.37D-12 OVMax= 1.36D-06

 SCF Done:  E(RM062X) =  -764.398157294     A.U. after   18 cycles
            NFock= 18  Conv=0.61D-08     -V/T= 2.0031
 KE= 7.620428384807D+02 PE=-3.097923251633D+03 EE= 9.280557681469D+02
 Leave Link  502 at Sat May 24 08:42:39 2025, MaxMem=  3758096384 cpu:             138.2 elap:              34.2
 (Enter /apps/easybuild-2022/easybuild/software/Compiler/NVHPC/22.11-CUDA-11.7.0/Gaussian/g16c01-CUDA-11.7.0/g16/l508.exe)
 QCSCF skips out because SCF is already converged.
 Leave Link  508 at Sat May 24 08:42:39 2025, MaxMem=  3758096384 cpu:               0.1 elap:               0.0
 (Enter /apps/easybuild-2022/easybuild/software/Compiler/NVHPC/22.11-CUDA-11.7.0/Gaussian/g16c01-CUDA-11.7.0/g16/l801.exe)
 DoSCS=F DFT=T ScalE2(SS,OS)=  1.000000  1.000000
 Range of M.O.s used for correlation:     1   324
 NBasis=   324 NAE=    40 NBE=    40 NFC=     0 NFV=     0
 NROrb=    324 NOA=    40 NOB=    40 NVA=   284 NVB=   284

 **** Warning!!: The largest alpha MO coefficient is  0.15045453D+02

 Leave Link  801 at Sat May 24 08:42:39 2025, MaxMem=  3758096384 cpu:               0.1 elap:               0.0
 (Enter /apps/easybuild-2022/easybuild/software/Compiler/NVHPC/22.11-CUDA-11.7.0/Gaussian/g16c01-CUDA-11.7.0/g16/l1101.exe)
 Using compressed storage, NAtomX=    11.
 Will process     12 centers per pass.
   1 Symmetry operations used in ECPInt.
 ECPInt:  NShTT=    6786 NPrTT=   21959 LenC2=    6495 LenP2D=   16089.
 LDataN:  DoStor=T MaxTD1= 7 Len=  274
 Leave Link 1101 at Sat May 24 08:42:39 2025, MaxMem=  3758096384 cpu:               1.5 elap:               0.3
 (Enter /apps/easybuild-2022/easybuild/software/Compiler/NVHPC/22.11-CUDA-11.7.0/Gaussian/g16c01-CUDA-11.7.0/g16/l1102.exe)
 Symmetrizing basis deriv contribution to polar:
 IMax=3 JMax=2 DiffMx= 0.00D+00
 Leave Link 1102 at Sat May 24 08:42:39 2025, MaxMem=  3758096384 cpu:               0.1 elap:               0.0
 (Enter /apps/easybuild-2022/easybuild/software/Compiler/NVHPC/22.11-CUDA-11.7.0/Gaussian/g16c01-CUDA-11.7.0/g16/l1110.exe)
 Forming Gx(P) for the SCF density, NAtomX=    11.
 Integral derivatives from FoFJK, PRISM(SPDF).
 Do as many integral derivatives as possible in FoFJK.
 G2DrvN: MDV=    3758095115.
 G2DrvN: will do    12 centers at a time, making    1 passes.
 Calling FoFCou, ICntrl=  3107 FMM=F I1Cent=   0 AccDes= 0.00D+00.
 FoFJK:  IHMeth= 1 ICntrl=    3107 DoSepK=F KAlg= 0 I1Cent=           0 FoldK=F
 IRaf=         0 NMat=       1 IRICut=       1 DoRegI=T DoRafI=F ISym2E= 0 IDoP0=0 IntGTp=1.
 FoFCou: FMM=F IPFlag=           0 FMFlag=      100000 FMFlg1=           0
         NFxFlg=           0 DoJE=F BraDBF=F KetDBF=F FulRan=T
         wScrn=  0.000000 ICntrl=      3107 IOpCl=  0 I1Cent=           0 NGrid=           0
         NMat0=    1 NMatS0=      1 NMatT0=    0 NMatD0=    1 NMtDS0=    0 NMtDT0=    0
 Symmetry not used in FoFCou.
 End of G2Drv F.D. properties file   721 does not exist.
 End of G2Drv F.D. properties file   722 does not exist.
 End of G2Drv F.D. properties file   788 does not exist.
 Leave Link 1110 at Sat May 24 08:43:22 2025, MaxMem=  3758096384 cpu:             335.4 elap:              42.4
 (Enter /apps/easybuild-2022/easybuild/software/Compiler/NVHPC/22.11-CUDA-11.7.0/Gaussian/g16c01-CUDA-11.7.0/g16/l1002.exe)
 Minotr:  Closed shell wavefunction.
          IDoAtm=11111111111
          Direct CPHF calculation.
          Differentiating once with respect to nuclear coordinates.
          Requested convergence is 1.0D-08 RMS, and 1.0D-07 maximum.
          Secondary convergence is 1.0D-12 RMS, and 1.0D-12 maximum.
          NewPWx=T KeepS1=F KeepF1=F KeepIn=T MapXYZ=F SortEE=F KeepMc=T.
         3307 words used for storage of precomputed grid.
 Keep R1 ints in memory in canonical form, NReq=1412622537.
 FoFCou: FMM=F IPFlag=           0 FMFlag=           0 FMFlg1=           0
         NFxFlg=           0 DoJE=F BraDBF=F KetDBF=F FulRan=T
         wScrn=  0.000000 ICntrl=       600 IOpCl=  0 I1Cent=           0 NGrid=           0
         NMat0=    1 NMatS0=  52650 NMatT0=    0 NMatD0=    1 NMtDS0=    0 NMtDT0=    0
 Symmetry not used in FoFCou.
 Two-electron integral symmetry not used.
          MDV=    3758096384 using IRadAn=       1.
          Solving linear equations simultaneously, MaxMat=       0.
          There are    36 degrees of freedom in the 1st order CPHF.  IDoFFX=6 NUNeed=     0.
     30 vectors produced by pass  0 Test12= 3.16D-14 2.78D-09 XBig12= 1.16D-01 2.17D-01.
 AX will form    30 AO Fock derivatives at one time.
     30 vectors produced by pass  1 Test12= 3.16D-14 2.78D-09 XBig12= 1.68D-02 4.69D-02.
     30 vectors produced by pass  2 Test12= 3.16D-14 2.78D-09 XBig12= 9.88D-04 7.27D-03.
     30 vectors produced by pass  3 Test12= 3.16D-14 2.78D-09 XBig12= 2.18D-05 1.02D-03.
     30 vectors produced by pass  4 Test12= 3.16D-14 2.78D-09 XBig12= 3.18D-07 7.54D-05.
     30 vectors produced by pass  5 Test12= 3.16D-14 2.78D-09 XBig12= 3.36D-09 7.78D-06.
     30 vectors produced by pass  6 Test12= 3.16D-14 2.78D-09 XBig12= 2.33D-11 5.43D-07.
     13 vectors produced by pass  7 Test12= 3.16D-14 2.78D-09 XBig12= 1.24D-13 4.12D-08.
 InvSVY:  IOpt=1 It=  1 EMax= 1.11D-15
 Solved reduced A of dimension   223 with    30 vectors.
 End of Minotr F.D. properties file   721 does not exist.
 End of Minotr F.D. properties file   722 does not exist.
 End of Minotr F.D. properties file   788 does not exist.
 Leave Link 1002 at Sat May 24 08:44:23 2025, MaxMem=  3758096384 cpu:             481.2 elap:              61.5
 (Enter /apps/easybuild-2022/easybuild/software/Compiler/NVHPC/22.11-CUDA-11.7.0/Gaussian/g16c01-CUDA-11.7.0/g16/l701.exe)
 ... and contract with generalized density number  0.
 Compute integral second derivatives.
   1 Symmetry operations used in ECPInt.
 ECPInt:  NShTT=    6786 NPrTT=   21959 LenC2=    6495 LenP2D=   16089.
 LDataN:  DoStor=T MaxTD1= 8 Len=  415
 Leave Link  701 at Sat May 24 08:44:23 2025, MaxMem=  3758096384 cpu:               1.1 elap:               0.3
 (Enter /apps/easybuild-2022/easybuild/software/Compiler/NVHPC/22.11-CUDA-11.7.0/Gaussian/g16c01-CUDA-11.7.0/g16/l702.exe)
 L702 exits ... SP integral derivatives will be done elsewhere.
 Leave Link  702 at Sat May 24 08:44:23 2025, MaxMem=  3758096384 cpu:               0.1 elap:               0.0
 (Enter /apps/easybuild-2022/easybuild/software/Compiler/NVHPC/22.11-CUDA-11.7.0/Gaussian/g16c01-CUDA-11.7.0/g16/l703.exe)
 Integral derivatives from FoFJK, PRISM(SPDF).
 Compute integral second derivatives, UseDBF=F ICtDFT=           0.
 Calling FoFJK, ICntrl=    100127 FMM=F ISym2X=0 I1Cent= 0 IOpClX= 0 NMat=1 NMatS=1 NMatT=0.
 FoFJK:  IHMeth= 1 ICntrl=  100127 DoSepK=F KAlg= 0 I1Cent=           0 FoldK=F
 IRaf=         0 NMat=       1 IRICut=       1 DoRegI=T DoRafI=F ISym2E= 0 IDoP0=0 IntGTp=1.
 FoFCou: FMM=F IPFlag=           0 FMFlag=      100000 FMFlg1=         800
         NFxFlg=           0 DoJE=F BraDBF=F KetDBF=F FulRan=T
         wScrn=  0.000000 ICntrl=    100127 IOpCl=  0 I1Cent=           0 NGrid=           0
         NMat0=    1 NMatS0=      1 NMatT0=    0 NMatD0=    1 NMtDS0=    0 NMtDT0=    0
 Symmetry not used in FoFCou.
 Leave Link  703 at Sat May 24 08:46:00 2025, MaxMem=  3758096384 cpu:             766.6 elap:              96.6
 (Enter /apps/easybuild-2022/easybuild/software/Compiler/NVHPC/22.11-CUDA-11.7.0/Gaussian/g16c01-CUDA-11.7.0/g16/l716.exe)
 Dipole        =-5.26635378D-01-3.70324920D-01-1.39984479D-01
 Polarizability= 0.00000000D+00 0.00000000D+00 0.00000000D+00
                 0.00000000D+00 0.00000000D+00 0.00000000D+00
 -------------------------------------------------------------------
 Center     Atomic                   Forces (Hartrees/Bohr)
 Number     Number              X              Y              Z
 -------------------------------------------------------------------
      1        6          -0.014150779    0.052048856   -0.002161489
      2        8           0.004578586   -0.026806613   -0.013235799
      3        6          -0.009489044   -0.007065941    0.038705043
      4        6          -0.000380039    0.005020950    0.009103083
      5        9           0.000896892    0.000012352   -0.001734186
      6        9           0.001222243   -0.000057396   -0.001943538
      7        9           0.001477589   -0.001941188   -0.005717875
      8        9           0.008342237   -0.007446504   -0.005296205
      9        9          -0.059674429    0.012909382   -0.022691107
     10        8           0.056910353   -0.004262919    0.013489515
     11        1           0.010266392   -0.022410979   -0.008517443
 -------------------------------------------------------------------
 Cartesian Forces:  Max     0.059674429 RMS     0.020698076
 Force constants in Cartesian coordinates: 
                1             2             3             4             5 
      1  0.315413D+00
      2 -0.504180D-01  0.266879D+00
      3 -0.143400D+00  0.241624D+00  0.311230D+00
      4  0.199879D-01 -0.103926D-01 -0.191432D-01  0.580517D+00
      5  0.207381D-01 -0.840291D-01 -0.104811D+00 -0.228940D-01  0.265838D+00
      6 -0.416431D-02 -0.306570D-01 -0.317914D-01 -0.361796D-02  0.197483D-01
      7 -0.113811D+00 -0.210051D-01  0.139053D-01 -0.598232D-02 -0.109452D-01
      8 -0.309617D-01 -0.725756D-01  0.630843D-03  0.331220D-02  0.189990D-02
      9 -0.433297D-01 -0.105350D-01 -0.193995D-01 -0.251774D-01  0.494438D-02
     10 -0.726705D-02 -0.741940D-02  0.132046D-01  0.264371D-02 -0.783595D-03
     11 -0.103257D-01  0.531727D-02 -0.739899D-03 -0.427554D-02 -0.706444D-02
     12  0.184082D-01  0.108801D-02  0.382645D-02  0.153175D-02  0.144360D-03
     13  0.970057D-02 -0.135502D-02  0.262097D-02  0.230302D-02  0.927302D-03
     14  0.403933D-02 -0.101157D-02  0.129994D-02  0.143800D-02  0.107790D-02
     15 -0.374250D-02  0.447948D-03 -0.159049D-02 -0.693783D-03 -0.186669D-03
     16  0.352204D-03  0.134593D-02 -0.262546D-02 -0.149392D-02 -0.143490D-02
     17  0.263431D-02 -0.829023D-04  0.120006D-02  0.127232D-02  0.330065D-02
     18 -0.141397D-02 -0.640025D-03  0.177045D-03  0.141202D-02  0.704589D-03
     19 -0.937204D-03 -0.424668D-03  0.249165D-03 -0.177518D-03  0.735572D-03
     20 -0.934634D-03 -0.952013D-03  0.598744D-03  0.670958D-03  0.148278D-02
     21 -0.243205D-02  0.229582D-03  0.795921D-03  0.864439D-03  0.293832D-03
     22 -0.292324D-01  0.405216D-01 -0.362665D-02 -0.562380D-03 -0.511244D-04
     23  0.105400D-01 -0.742578D-02 -0.831736D-02  0.380816D-02 -0.176213D-03
     24 -0.267529D-02  0.523163D-02  0.366225D-02  0.294709D-02  0.581985D-04
     25 -0.361286D-01 -0.258372D-01 -0.245535D-01 -0.510609D-01  0.327672D-01
     26 -0.168477D-01 -0.825793D-02 -0.113393D-01  0.538872D-01 -0.736476D-02
     27 -0.190716D-01 -0.247282D-01 -0.154130D-01  0.118320D-01  0.149148D-01
     28 -0.163994D+00  0.794627D-01  0.159552D+00 -0.831489D-01 -0.408214D-02
     29  0.722839D-01 -0.942045D-01 -0.116031D+00 -0.483746D-01 -0.131197D+00
     30  0.205803D+00 -0.176921D+00 -0.255598D+00  0.308794D-01  0.658093D-01
     31  0.591745D-02 -0.447818D-02  0.381608D-02 -0.463026D+00 -0.149773D-01
     32 -0.748036D-03 -0.365726D-02 -0.411592D-02  0.215479D-01 -0.437673D-01
     33 -0.398186D-02 -0.514018D-02  0.410100D-02 -0.834424D-03 -0.162010D-02
                6             7             8             9            10 
      6 -0.118652D-02
      7 -0.856186D-03  0.488264D+00
      8  0.167330D-02 -0.257225D-01  0.537573D+00
      9 -0.706756D-03 -0.167859D-01  0.160405D-01  0.559975D+00
     10 -0.344565D-02 -0.957338D-01 -0.454168D-01  0.673162D-01  0.596736D+00
     11  0.352045D-02 -0.255006D-01 -0.753597D-01  0.643433D-01  0.769029D-02
     12 -0.420168D-04  0.229758D-01  0.497384D-01 -0.129122D+00 -0.173850D-01
     13  0.108044D-02 -0.564132D-01 -0.680954D-02 -0.110936D-01 -0.311503D+00
     14 -0.318323D-03 -0.256511D-01 -0.140678D-02 -0.310762D-02 -0.348855D-01
     15  0.289562D-03  0.251952D-01  0.412636D-02  0.451999D-02 -0.201748D-01
     16  0.367544D-02  0.785547D-02 -0.252415D-02  0.124788D-02 -0.100740D+00
     17 -0.140427D-02  0.197430D-01 -0.353462D-01 -0.635989D-02  0.627962D-01
     18 -0.204271D-02 -0.988802D-02  0.231219D-01  0.456525D-02 -0.819089D-02
     19  0.277931D-03  0.925849D-02  0.787995D-02  0.654375D-02 -0.803878D-01
     20 -0.565108D-03  0.732325D-03  0.175171D-02 -0.474027D-03 -0.699422D-02
     21 -0.346726D-04 -0.589754D-02 -0.309178D-01 -0.330109D-01 -0.389733D-02
     22 -0.136696D-02 -0.115024D+00  0.106241D+00 -0.297820D-01 -0.554009D-03
     23 -0.211267D-03  0.937044D-01 -0.258857D+00  0.493923D-01  0.258052D-01
     24  0.817251D-03 -0.127850D-01  0.315678D-01 -0.785122D-01 -0.175040D-01
     25 -0.515076D-02 -0.719509D-01 -0.220947D-01 -0.460116D-01  0.264393D-02
     26  0.548634D-02 -0.218870D-01 -0.953213D-01 -0.886668D-01  0.163967D-02
     27  0.106152D-01 -0.448579D-01 -0.818356D-01 -0.262156D+00 -0.182605D-01
     28  0.120981D-01 -0.567245D-01 -0.601418D-02  0.731074D-01 -0.674431D-02
     29  0.588926D-02  0.144136D-01  0.126707D-01 -0.310676D-02 -0.310081D-02
     30  0.253998D-01  0.222951D-01 -0.884399D-02 -0.510350D-01  0.322189D-02
     31  0.146987D-02  0.102615D-01  0.221107D-01  0.239649D-01  0.906684D-03
     32 -0.316169D-02  0.211809D-02 -0.150291D-01 -0.224704D-01  0.668870D-03
     33 -0.131779D-02  0.669918D-02 -0.530163D-02  0.488219D-02  0.511548D-02
               11            12            13            14            15 
     11  0.596943D+00
     12 -0.139468D-01  0.611375D+00
     13 -0.392653D-01 -0.144478D-01  0.432754D+00
     14 -0.829020D-01  0.106957D-02  0.309596D-01  0.837602D-01
     15 -0.541644D-04 -0.830721D-01  0.698689D-01  0.100788D-01  0.899930D-01
     16  0.674956D-01 -0.106439D-01 -0.546530D-01  0.566035D-01 -0.169525D-01
     17 -0.281255D+00  0.487167D-01  0.384555D-01 -0.439593D-02  0.686017D-02
     18  0.429753D-01 -0.904222D-01 -0.126161D-01  0.828924D-02  0.105369D-01
     19 -0.869555D-02 -0.702252D-02 -0.256106D-01 -0.289479D-01 -0.573880D-01
     20 -0.117014D+00 -0.854494D-01 -0.221939D-01  0.578400D-03 -0.231054D-01
     21 -0.761716D-01 -0.276539D+00 -0.406175D-01 -0.210459D-01 -0.230145D-01
     22 -0.565968D-03  0.564615D-02  0.715418D-02 -0.110655D-02 -0.386940D-03
     23 -0.436989D-01 -0.162518D-02 -0.277162D-02  0.333676D-02  0.293702D-03
     24  0.251027D-01  0.920052D-03  0.100070D-02 -0.938532D-03  0.521876D-03
     25  0.617409D-02  0.100043D-01  0.440786D-02  0.138638D-02  0.122791D-02
     26 -0.232970D-02  0.193045D-02  0.134520D-02  0.189796D-02  0.762046D-03
     27 -0.350496D-01 -0.423854D-01  0.206725D-02  0.217440D-02  0.384922D-02
     28  0.686537D-02 -0.133414D-01 -0.656197D-02 -0.337596D-02  0.375241D-02
     29  0.265797D-02  0.416721D-03  0.885304D-04 -0.507491D-03  0.332822D-03
     30 -0.332687D-02  0.689299D-02  0.343442D-02  0.190007D-02 -0.158818D-02
     31  0.403316D-03  0.427457D-02 -0.157827D-02 -0.459786D-03 -0.705911D-03
     32  0.470539D-02 -0.208284D-02  0.619169D-03 -0.427423D-03  0.444327D-03
     33 -0.665289D-02 -0.143115D-02 -0.129773D-02  0.598341D-03 -0.445290D-03
               16            17            18            19            20 
     16  0.136362D+00
     17 -0.132498D+00  0.383445D+00
     18  0.162899D-01 -0.304017D-01  0.808420D-01
     19  0.108189D-01  0.143933D-01  0.127590D-01  0.861883D-01
     20  0.122122D-01 -0.577598D-01 -0.526082D-01  0.181170D-01  0.167336D+00
     21  0.830797D-02 -0.355876D-01 -0.160616D-03  0.397615D-01  0.156594D+00
     22  0.139004D-02 -0.240486D-02  0.298407D-03  0.555599D-03 -0.113403D-02
     23 -0.262942D-02 -0.883955D-02  0.816925D-02 -0.210479D-02  0.458551D-02
     24  0.202054D-02  0.828354D-02 -0.502143D-02  0.659764D-03  0.116632D-02
     25  0.725105D-03 -0.182049D-02  0.676734D-03 -0.594845D-03 -0.198323D-03
     26 -0.585282D-03  0.511191D-02  0.669972D-03 -0.704298D-03  0.114779D-02
     27  0.623686D-03  0.456861D-02  0.202964D-02  0.515335D-02  0.289004D-02
     28  0.101907D-02 -0.271454D-02  0.123895D-02  0.906070D-03  0.178822D-03
     29  0.129643D-02 -0.152532D-02 -0.468223D-03  0.164005D-04 -0.504192D-03
     30 -0.616733D-04  0.898115D-03 -0.106009D-02 -0.757838D-03 -0.124662D-03
     31 -0.163561D-02  0.143023D-03 -0.566080D-03 -0.193110D-04 -0.456073D-03
     32  0.718072D-03 -0.265275D-02  0.187927D-03 -0.264956D-03 -0.651870D-03
     33 -0.188194D-02  0.322636D-02  0.556172D-03 -0.236073D-03  0.107775D-02
               21            22            23            24            25 
     21  0.344056D+00
     22 -0.840823D-03  0.130157D+00
     23  0.410206D-02 -0.138039D+00  0.360213D+00
     24  0.148633D-02  0.165855D-01 -0.258326D-01  0.741847D-01
     25  0.597186D-02  0.802192D-02  0.155512D-01  0.165064D-01  0.175998D+00
     26  0.124393D-02  0.409633D-02 -0.544512D-01 -0.466695D-01 -0.160095D-01
     27 -0.126868D-01  0.964914D-02 -0.300772D-01  0.138785D-02  0.658569D-01
     28  0.164776D-02 -0.472208D-03  0.188799D-02 -0.307224D-02 -0.722315D-02
     29 -0.165876D-03 -0.665882D-02  0.197048D-02 -0.752832D-04 -0.624608D-02
     30 -0.126543D-02  0.469469D-02  0.441791D-02  0.239213D-02 -0.188555D-01
     31 -0.286825D-02 -0.143448D-02 -0.575189D-02 -0.368352D-02 -0.248382D-01
     32  0.142547D-02 -0.897989D-03  0.334321D-02  0.210566D-02  0.163276D-01
     33  0.373712D-03 -0.870578D-03 -0.311629D-03 -0.183884D-02 -0.567285D-02
               26            27            28            29            30 
     26  0.166991D+00
     27  0.142557D+00  0.317738D+00
     28 -0.469849D-02  0.918354D-02  0.338783D+00
     29 -0.690199D-02 -0.896925D-02 -0.169172D-01  0.235323D+00
     30 -0.806868D-02  0.687379D-03 -0.247952D+00  0.119134D+00  0.280463D+00
     31 -0.236085D-03 -0.221759D-01 -0.158386D-01 -0.680138D-02 -0.270167D-02
     32 -0.521304D-03  0.135553D-01 -0.505924D-01 -0.177817D-01  0.512627D-02
     33  0.209470D-02 -0.366660D-02  0.378485D-02  0.304345D-02 -0.528827D-02
               31            32            33 
     31  0.491285D+00
     32  0.105037D-01  0.764401D-01
     33 -0.824060D-03  0.898584D-02  0.407487D-02
 FormGI is forming the generalized inverse of G from B-inverse, IUseBI=4.
 Force constants in internal coordinates: 
                1             2             3             4             5 
      1  0.308858D+00
      2  0.748520D-01  0.628132D+00
      3  0.268501D-01  0.140538D+00  0.249839D+00
      4 -0.152945D-01 -0.116163D-01  0.285546D-03  0.491280D+00
      5  0.119404D-01  0.314135D-02 -0.689388D-03 -0.131376D-02  0.277010D+00
      6  0.204007D-01 -0.475567D-02 -0.295803D-02  0.422365D-02  0.195146D-01
      7  0.228329D-01  0.364249D-02  0.286095D-01 -0.228190D-01  0.151852D-01
      8 -0.384671D-02  0.541596D-02  0.169294D-02 -0.171852D-02  0.193141D-01
      9 -0.166291D-02  0.140681D-02  0.117281D-02  0.827674D-03  0.193557D-01
     10 -0.236870D-02 -0.206951D-03 -0.167960D-02  0.267081D-02  0.164757D-01
     11  0.356281D+00  0.273362D+00  0.560244D-01 -0.674653D-01  0.115766D-01
     12  0.306952D-01  0.415698D-01  0.687233D-01 -0.322550D-02  0.235669D-02
     13 -0.488207D-01  0.123427D-01 -0.111513D-01  0.515038D-02  0.341581D-02
     14  0.548173D-02 -0.125144D-01 -0.498376D-02  0.122123D-02 -0.148088D-01
     15  0.115256D+00  0.136929D-01  0.305928D-01 -0.182861D-01 -0.140316D-01
     16  0.455239D-02  0.214820D-03  0.696506D-02 -0.202364D-02  0.150568D-01
     17 -0.440626D-01  0.115531D-02 -0.110730D-01  0.498452D-02  0.167448D-01
     18 -0.347282D-01 -0.181831D-01 -0.114306D-01  0.101585D-01 -0.795994D-02
     19 -0.459379D-02  0.574114D-02  0.135977D-02  0.515244D-03  0.221014D-01
     20  0.291313D-02  0.609860D-02 -0.280936D-02 -0.138932D-02  0.164590D-01
     21 -0.627793D-03 -0.246758D-02  0.678292D-03  0.171015D-02  0.107992D-01
     22  0.795068D-03 -0.546847D-02  0.330189D-03  0.874001D-03 -0.187303D-01
     23  0.179569D-02 -0.183778D-02 -0.438306D-03 -0.871208D-03 -0.160271D-01
     24 -0.222589D-03 -0.235147D-02  0.908517D-03 -0.862920D-03 -0.161285D-01
     25  0.954224D-01  0.151046D+00  0.921883D-01 -0.407298D-01  0.125155D-01
     26 -0.255041D-01 -0.132375D-01 -0.109748D-01  0.537749D-02  0.557114D-02
     27 -0.490828D-01 -0.150560D-01 -0.137270D-01  0.733063D-02  0.155742D-01
     28 -0.310408D-01 -0.353574D-01 -0.145636D-01  0.108059D-01 -0.738922D-02
     29 -0.167673D+00 -0.108820D+00 -0.636090D-01  0.617730D-01 -0.280707D-02
     30  0.139634D-02  0.308113D-02  0.126070D-01 -0.987058D-02  0.107773D-02
     31 -0.359605D-01 -0.127197D-01 -0.103580D-01  0.691800D-02 -0.103468D-02
     32 -0.360485D-01 -0.119408D-01 -0.108750D-01  0.744568D-02  0.358111D-03
     33 -0.348517D-01 -0.125296D-01 -0.111173D-01  0.657725D-02 -0.215945D-02
     34 -0.125125D-01 -0.470900D-02 -0.166946D-02  0.333811D-02  0.358595D-02
     35 -0.126004D-01 -0.393008D-02 -0.218653D-02  0.386579D-02  0.497874D-02
     36 -0.114036D-01 -0.451890D-02 -0.242882D-02  0.299736D-02  0.246118D-02
     37  0.475965D-01  0.156965D-01  0.136507D-01 -0.993137D-02 -0.313782D-02
     38  0.475085D-01  0.164754D-01  0.131337D-01 -0.940368D-02 -0.174503D-02
     39  0.487053D-01  0.158866D-01  0.128914D-01 -0.102721D-01 -0.426259D-02
                6             7             8             9            10 
      6  0.427129D+00
      7  0.491840D-01  0.412833D+00
      8  0.520909D-02  0.408454D-02  0.449253D+00
      9  0.623809D-02  0.531758D-02  0.562968D-01  0.444311D+00
     10  0.536197D-02  0.583954D-02  0.568190D-01  0.558801D-01  0.440759D+00
     11  0.451349D-02 -0.236229D-01  0.665355D-02  0.121652D-02 -0.443035D-02
     12 -0.594256D-02  0.252514D-01  0.119192D-02 -0.499427D-02 -0.162293D-02
     13 -0.199034D-01 -0.209668D-01  0.118627D-01 -0.303716D-02 -0.374710D-02
     14  0.350820D-02  0.261022D-03  0.344936D-03 -0.575588D-02  0.994020D-03
     15 -0.252968D-02 -0.348491D-02 -0.367136D-03 -0.120219D-02 -0.676297D-02
     16  0.223806D-01 -0.965621D-02 -0.650429D-02  0.128042D-01 -0.245540D-02
     17 -0.108876D-01  0.260113D-01 -0.578370D-02 -0.107936D-02  0.131737D-01
     18  0.976976D-02  0.102728D-01 -0.637480D-04 -0.195538D-02 -0.128256D-02
     19 -0.468178D-02 -0.591519D-02  0.127046D-01 -0.308353D-01 -0.291738D-01
     20  0.182283D-01 -0.333515D-02 -0.300117D-01  0.194467D-01 -0.295125D-01
     21 -0.373565D-02  0.173702D-01 -0.283158D-01 -0.296411D-01  0.145374D-01
     22 -0.391971D-02 -0.117250D-02  0.221933D-01  0.199805D-01  0.340354D-02
     23 -0.161628D-02 -0.326702D-02  0.212977D-01  0.356295D-02  0.210962D-01
     24 -0.461093D-02 -0.396433D-02  0.369276D-02  0.186927D-01  0.209681D-01
     25 -0.619811D-02  0.281454D-01 -0.626052D-03 -0.206480D-02 -0.500604D-02
     26 -0.133707D-01  0.139858D-01 -0.369043D-03 -0.308114D-02  0.559305D-02
     27  0.593352D-02 -0.136874D-01 -0.504132D-03  0.714425D-02  0.478380D-03
     28  0.176153D-01 -0.344268D-02 -0.588048D-03  0.156458D-02 -0.376071D-02
     29  0.664841D-02 -0.826749D-02 -0.173679D-02  0.133532D-01  0.407042D-02
     30 -0.420525D-03 -0.523955D-02 -0.239077D-02  0.657588D-02 -0.146565D-02
     31  0.844178D-02 -0.501335D-02 -0.163516D-03 -0.154028D-01  0.160539D-01
     32  0.122379D-01 -0.123953D-01  0.163653D-01  0.215393D-02 -0.172907D-01
     33  0.158397D-01 -0.828066D-02 -0.166626D-01  0.188737D-01 -0.814282D-03
     34 -0.154104D-02  0.179779D-01 -0.345542D-02 -0.165242D-01  0.195086D-01
     35  0.225509D-02  0.105959D-01  0.130734D-01  0.103254D-02 -0.138360D-01
     36  0.585684D-02  0.147106D-01 -0.199545D-01  0.177524D-01  0.264036D-02
     37 -0.186430D-01 -0.214372D-02  0.278451D-02 -0.201399D-01  0.156189D-01
     38 -0.148468D-01 -0.952571D-02  0.193133D-01 -0.258322D-02 -0.177257D-01
     39 -0.112451D-01 -0.541103D-02 -0.137146D-01  0.141366D-01 -0.124933D-02
               11            12            13            14            15 
     11  0.144815D+01
     12  0.126559D+00  0.237268D+00
     13 -0.858893D-01 -0.558995D-02  0.134150D+00
     14 -0.483246D-01 -0.463003D-02 -0.324796D-01  0.799068D-01
     15  0.272210D+00  0.223278D-01 -0.983675D-01 -0.112264D-02  0.200394D+00
     16  0.390626D-01  0.471698D-02 -0.498670D-01 -0.606297D-01  0.397515D-01
     17 -0.782049D-01 -0.639832D-02  0.116199D-01  0.990341D-02 -0.105960D+00
     18 -0.110386D+00 -0.118698D-01  0.333805D-01  0.756147D-02 -0.342569D-01
     19  0.683466D-02 -0.904538D-03  0.162747D-01 -0.719803D-03 -0.147676D-02
     20  0.138806D-01  0.556934D-03 -0.267629D-02 -0.940092D-02  0.179352D-02
     21 -0.992877D-02 -0.414156D-02 -0.810816D-02  0.388400D-02 -0.101374D-01
     22 -0.908830D-02  0.113662D-02 -0.407351D-02  0.386769D-02  0.101975D-02
     23 -0.272218D-03  0.174871D-02 -0.261374D-02 -0.172302D-03  0.476700D-02
     24 -0.175608D-02  0.174610D-02  0.107383D-02  0.274101D-02  0.434599D-02
     25  0.374439D+00  0.696371D-01 -0.160854D-01 -0.274145D-01  0.812289D-01
     26 -0.986934D-01 -0.677021D-02  0.405065D-01  0.148284D-01 -0.662384D-01
     27 -0.148255D+00 -0.833379D-02  0.395963D-01 -0.211340D-01 -0.828354D-01
     28 -0.167568D+00 -0.134688D-01  0.151670D-01  0.253054D-01 -0.265866D-01
     29 -0.840745D+00 -0.655637D-01  0.945001D-01  0.265163D-01 -0.210432D+00
     30  0.816374D-02  0.322450D-01  0.436794D-02  0.215483D-03 -0.770281D-02
     31 -0.113393D+00 -0.950796D-02  0.119993D-01  0.171270D-01 -0.502014D-01
     32 -0.111435D+00 -0.831682D-02  0.156415D-01  0.154584D-01 -0.487304D-01
     33 -0.111075D+00 -0.845332D-02  0.100219D-01  0.153162D-01 -0.486972D-01
     34 -0.203102D-01 -0.331901D-02  0.365853D-02 -0.156682D-01 -0.129576D-01
     35 -0.183516D-01 -0.212787D-02  0.730072D-02 -0.173368D-01 -0.114866D-01
     36 -0.179921D-01 -0.226437D-02  0.168119D-02 -0.174789D-01 -0.114533D-01
     37  0.127376D+00  0.112934D-01 -0.158688D-01  0.101762D-02  0.599966D-01
     38  0.129334D+00  0.124845D-01 -0.122266D-01 -0.650976D-03  0.614676D-01
     39  0.129694D+00  0.123480D-01 -0.178461D-01 -0.793098D-03  0.615009D-01
               16            17            18            19            20 
     16  0.125265D+00
     17 -0.170536D-01  0.120983D+00
     18 -0.419486D-01 -0.244464D-01  0.685830D-01
     19 -0.940693D-02 -0.943680D-02  0.479402D-02  0.186865D+00
     20  0.163906D-01 -0.216230D-02 -0.459455D-02 -0.105007D-02  0.193774D+00
     21 -0.269130D-02  0.212864D-01 -0.464700D-02  0.218164D-02 -0.102371D-02
     22 -0.306231D-02  0.176783D-02  0.815476D-03 -0.914526D-01 -0.940388D-01
     23  0.271185D-02 -0.527820D-02  0.862125D-03 -0.926221D-01 -0.946525D-02
     24 -0.411275D-02 -0.652145D-02  0.293029D-02 -0.945188D-02 -0.943932D-01
     25  0.112124D-01 -0.834158D-02 -0.466361D-01 -0.661024D-02  0.171464D-01
     26 -0.520767D-01  0.497110D-01  0.131897D-01  0.366729D-03  0.771459D-03
     27  0.299829D-01  0.433796D-01 -0.135320D-01 -0.150634D-02  0.129577D-01
     28 -0.281602D-01 -0.307499D-01  0.523813D-01  0.294291D-02  0.403854D-02
     29 -0.423114D-01  0.412890D-01  0.100383D+00  0.945202D-02 -0.715384D-02
     30 -0.356156D-02  0.123195D-02  0.614727D-02  0.240195D-02 -0.421874D-02
     31 -0.604487D-02  0.145464D-01  0.139446D-01  0.735625D-03 -0.624460D-02
     32 -0.538492D-02  0.931751D-02  0.150876D-01  0.597700D-02  0.165388D-03
     33 -0.167394D-02  0.135283D-01  0.127778D-01 -0.507401D-02  0.685514D-02
     34  0.324046D-02  0.759258D-02  0.162449D-01 -0.173961D-02 -0.578225D-02
     35  0.390041D-02  0.236369D-02  0.173880D-01  0.350176D-02  0.627741D-03
     36  0.761139D-02  0.657447D-02  0.150781D-01 -0.754925D-02  0.731750D-02
     37 -0.240411D-02 -0.161922D-01 -0.299962D-01  0.215471D-02 -0.759294D-02
     38 -0.174416D-02 -0.214211D-01 -0.288532D-01  0.739608D-02 -0.118295D-02
     39  0.196682D-02 -0.172103D-01 -0.311631D-01 -0.365493D-02  0.550681D-02
               21            22            23            24            25 
     21  0.179420D+00
     22 -0.910113D-02  0.125232D+00
     23 -0.889306D-01  0.371137D-01  0.123575D+00
     24 -0.883652D-01  0.382985D-01  0.362656D-01  0.123755D+00
     25 -0.486786D-02 -0.550745D-02  0.272521D-02 -0.309417D-02  0.486528D+00
     26  0.644785D-02 -0.187669D-02 -0.271930D-02 -0.323439D-02 -0.363396D-01
     27  0.433327D-03 -0.555764D-02 -0.103992D-02 -0.567730D-02 -0.562328D-01
     28 -0.790058D-02 -0.227883D-02  0.215321D-02  0.108406D-02 -0.839443D-01
     29  0.776732D-02 -0.225617D-02 -0.525780D-02 -0.284429D-02 -0.481447D+00
     30  0.191840D-02  0.637496D-04 -0.516957D-03  0.356905D-03  0.674325D-01
     31  0.472795D-02 -0.185593D-01  0.189535D-01  0.417886D-03 -0.454216D-01
     32 -0.585136D-02  0.184447D-01 -0.257429D-03 -0.184281D-01 -0.455283D-01
     33 -0.889775D-03 -0.356181D-03 -0.185400D-01  0.179166D-01 -0.414645D-01
     34  0.757272D-02 -0.182503D-01  0.187000D-01 -0.504594D-03 -0.641330D-02
     35 -0.300658D-02  0.187536D-01 -0.510958D-03 -0.193505D-01 -0.651996D-02
     36  0.195500D-02 -0.472251D-04 -0.187935D-01  0.169941D-01 -0.245615D-02
     37  0.363381D-02 -0.185465D-01  0.189872D-01  0.143216D-02  0.462443D-01
     38 -0.694549D-02  0.184574D-01 -0.223695D-03 -0.174138D-01  0.461377D-01
     39 -0.198391D-02 -0.343402D-03 -0.185063D-01  0.189309D-01  0.502015D-01
               26            27            28            29            30 
     26  0.427652D-01
     27  0.136411D-01  0.639596D-01
     28  0.412011D-02 -0.142831D-02  0.580722D-01
     29  0.962756D-01  0.128646D+00  0.155653D+00  0.711842D+00
     30  0.492681D-02  0.337263D-02  0.683747D-02 -0.148354D-01 -0.117552D-01
     31  0.789095D-02  0.229977D-01  0.231360D-01  0.847503D-01  0.308799D-02
     32  0.628526D-02  0.234156D-01  0.247716D-01  0.834171D-01  0.200461D-02
     33  0.691170D-02  0.249780D-01  0.236306D-01  0.802684D-01  0.965692D-03
     34  0.401820D-02 -0.256450D-02  0.235716D-02  0.179781D-01  0.276807D-02
     35  0.241251D-02 -0.214658D-02  0.399277D-02  0.166449D-01  0.168469D-02
     36  0.303895D-02 -0.584217D-03  0.285173D-02  0.134962D-01  0.645770D-03
     37 -0.100899D-01 -0.236786D-01 -0.288465D-01 -0.979522D-01 -0.319373D-02
     38 -0.116956D-01 -0.232607D-01 -0.272108D-01 -0.992854D-01 -0.427711D-02
     39 -0.110691D-01 -0.216983D-01 -0.283519D-01 -0.102434D+00 -0.531603D-02
               31            32            33            34            35 
     31  0.425965D-01
     32  0.159834D-01  0.428608D-01
     33  0.155263D-01  0.162226D-01  0.424028D-01
     34  0.160014D-01 -0.115166D-01 -0.109897D-01  0.318712D-01
     35 -0.106117D-01  0.153608D-01 -0.102935D-01  0.435317D-02  0.303257D-01
     36 -0.110688D-01 -0.112774D-01  0.158868D-01  0.488006D-02  0.467143D-02
     37 -0.443959D-02 -0.309913D-01 -0.317599D-01  0.759098D-02 -0.189607D-01
     38 -0.310527D-01 -0.411385D-02 -0.310636D-01 -0.199270D-01  0.701183D-02
     39 -0.315098D-01 -0.307521D-01 -0.488336D-02 -0.194002D-01 -0.186424D-01
               36            37            38            39 
     36  0.318356D-01
     37 -0.197293D-01  0.517181D-01
     38 -0.199379D-01  0.251665D-01  0.521053D-01
     39  0.722626D-02  0.243979D-01  0.251556D-01  0.510243D-01
 Leave Link  716 at Sat May 24 08:46:00 2025, MaxMem=  3758096384 cpu:               0.1 elap:               0.0
 (Enter /apps/easybuild-2022/easybuild/software/Compiler/NVHPC/22.11-CUDA-11.7.0/Gaussian/g16c01-CUDA-11.7.0/g16/l103.exe)

 GradGradGradGradGradGradGradGradGradGradGradGradGradGradGradGradGradGrad
 Berny optimization.
 Red2BG is reusing G-inverse.
 Internal  Forces:  Max     0.191817660 RMS     0.042773744
 Search for a local minimum.
 Step number   1 out of a maximum of   49
 All quantities printed in internal units (Hartrees-Bohrs-Radians)
 RMS Force = .42774D-01 SwitMx=.10000D-02 MixMth= 1
 Mixed Optimization -- RFO/linear search
 Second derivative matrix not updated -- analytic derivatives used.
 ITU=  0
     Eigenvalues ---   -0.03864  -0.02588   0.00187   0.01931   0.06877
     Eigenvalues ---    0.09924   0.10453   0.10925   0.14798   0.15516
     Eigenvalues ---    0.17155   0.21890   0.23075   0.24034   0.25285
     Eigenvalues ---    0.26165   0.32105   0.37278   0.39504   0.40761
     Eigenvalues ---    0.41368   0.46435   0.48152   0.51455   0.58016
     Eigenvalues ---    0.64666   2.58982
 Eigenvalue     1 is  -3.86D-02 should be greater than     0.000000 Eigenvector:
                          D5        D4        A15       A1        D2
   1                    0.78469  -0.41750  -0.38569  -0.14958   0.08293
                          D1        R2        R1        D3        A3
   1                    0.08291   0.07576   0.06837   0.06714   0.06003
 Eigenvalue     2 is  -2.59D-02 should be greater than     0.000000 Eigenvector:
                          D3        D5        D1        D4        D2
   1                    0.47105  -0.44012   0.42487  -0.41588   0.40517
                          A15       A1        A2        R1        A8
   1                   -0.13287  -0.11734   0.07530   0.06204   0.05439
 RFO step:  Lambda=-9.77971662D-02 EMin=-3.86398782D-02
 Linear search not attempted -- first point.
 Maximum step size (   0.300) exceeded in Quadratic search.
    -- Step size scaled by   0.403
 Iteration  1 RMS(Cart)=  0.13512293 RMS(Int)=  0.02601545
 Iteration  2 RMS(Cart)=  0.07903189 RMS(Int)=  0.00429975
 Iteration  3 RMS(Cart)=  0.00592310 RMS(Int)=  0.00013952
 Iteration  4 RMS(Cart)=  0.00003275 RMS(Int)=  0.00013758
 Iteration  5 RMS(Cart)=  0.00000000 RMS(Int)=  0.00013758
 ITry= 1 IFail=0 DXMaxC= 8.46D-01 DCOld= 1.00D+10 DXMaxT= 3.00D-01 DXLimC= 3.00D+00 Rises=F
 Variable       Old X    -DE/DX   Delta X   Delta X   Delta X     New X
                                 (Linear)    (Quad)   (Total)
    R1        2.91897   0.05606   0.00000  -0.04003  -0.04003   2.87894
    R2        2.36563   0.05880   0.00000  -0.03307  -0.03307   2.33256
    R3        2.72691   0.04605   0.00000   0.02720   0.02720   2.75411
    R4        1.83011  -0.01027   0.00000  -0.00472  -0.00472   1.82540
    R5        2.91591  -0.00315   0.00000  -0.00705  -0.00705   2.90886
    R6        2.53549  -0.01001   0.00000  -0.00742  -0.00742   2.52807
    R7        2.53556   0.02220   0.00000   0.01432   0.01432   2.54988
    R8        2.50438  -0.00056   0.00000  -0.00098  -0.00098   2.50340
    R9        2.51213   0.00035   0.00000  -0.00445  -0.00445   2.50769
   R10        2.51212  -0.00572   0.00000  -0.00380  -0.00380   2.50833
    A1        1.86295   0.19182   0.00000   0.14707   0.14707   2.01001
    A2        1.73806   0.04101   0.00000   0.00767   0.00767   1.74573
    A3        2.09703  -0.02794   0.00000  -0.05591  -0.05564   2.04140
    A4        1.85868  -0.01182   0.00000   0.00917   0.00918   1.86785
    A5        1.85824   0.05866   0.00000   0.04684   0.04707   1.90531
    A6        1.86803   0.01760   0.00000   0.02041   0.02040   1.88843
    A7        1.86818  -0.01644   0.00000   0.00802   0.00847   1.87665
    A8        1.90903  -0.02187   0.00000  -0.03038  -0.03055   1.87848
    A9        1.92552  -0.00146   0.00000  -0.00124  -0.00124   1.92428
   A10        1.92583  -0.00332   0.00000  -0.01221  -0.01223   1.91359
   A11        1.92567  -0.00243   0.00000  -0.00180  -0.00181   1.92386
   A12        1.89370   0.00193   0.00000   0.00734   0.00733   1.90103
   A13        1.89365   0.00303   0.00000   0.00408   0.00408   1.89774
   A14        1.89870   0.00248   0.00000   0.00432   0.00428   1.90299
   A15        1.94620   0.10539   0.00000   0.23702   0.23702   2.18321
    D1        2.09690  -0.01418   0.00000  -0.04897  -0.04937   2.04753
    D2       -2.06250  -0.02029   0.00000  -0.05288  -0.05295  -2.11545
    D3       -0.02672  -0.02293   0.00000  -0.06089  -0.06043  -0.08715
    D4       -1.04782  -0.04855   0.00000   0.32147   0.32147  -0.72635
    D5        1.04495   0.01537   0.00000  -0.11948  -0.11948   0.92547
    D6        3.14066  -0.02162   0.00000  -0.00995  -0.00998   3.13068
    D7       -1.05018  -0.02229   0.00000  -0.00943  -0.00946  -1.05964
    D8        1.04848  -0.02290   0.00000  -0.01309  -0.01310   1.03538
    D9        1.02146  -0.00089   0.00000  -0.00022  -0.00019   1.02127
   D10        3.11380  -0.00156   0.00000   0.00031   0.00034   3.11414
   D11       -1.07072  -0.00217   0.00000  -0.00335  -0.00331  -1.07403
   D12       -1.02378   0.02389   0.00000   0.02076   0.02075  -1.00303
   D13        1.06856   0.02323   0.00000   0.02129   0.02127   1.08983
   D14       -3.11596   0.02261   0.00000   0.01763   0.01763  -3.09834
         Item               Value     Threshold  Converged?
 Maximum Force            0.191818     0.000450     NO 
 RMS     Force            0.042774     0.000300     NO 
 Maximum Displacement     0.846157     0.001800     NO 
 RMS     Displacement     0.205681     0.001200     NO 
 Predicted change in Energy=-4.437864D-02
 Lowest energy point so far.  Saving SCF results.
 GradGradGradGradGradGradGradGradGradGradGradGradGradGradGradGradGradGrad

 Leave Link  103 at Sat May 24 08:46:00 2025, MaxMem=  3758096384 cpu:               0.1 elap:               0.0
 (Enter /apps/easybuild-2022/easybuild/software/Compiler/NVHPC/22.11-CUDA-11.7.0/Gaussian/g16c01-CUDA-11.7.0/g16/l202.exe)
                          Input orientation:                          
 ---------------------------------------------------------------------
 Center     Atomic      Atomic             Coordinates (Angstroms)
 Number     Number       Type             X           Y           Z
 ---------------------------------------------------------------------
      1          6           0        0.629476    1.925129    1.075180
      2          8           0        1.106922   -0.032175   -0.212017
      3          6           0       -0.870920    1.677726    0.982674
      4          6           0       -1.539170    0.983631    2.183142
      5          9           0       -2.839350    0.847582    1.968750
      6          9           0       -1.003891   -0.217931    2.358316
      7          9           0       -1.361718    1.701452    3.285458
      8          9           0       -1.454416    2.869271    0.811059
      9          9           0       -1.130558    0.933993   -0.112844
     10          8           0        1.310792    1.342639    0.226592
     11          1           0        0.170858    0.003624   -0.447767
 ---------------------------------------------------------------------
                    Distance matrix (angstroms):
                    1          2          3          4          5
     1  C    0.000000
     2  O    2.390789   0.000000
     3  C    1.523468   2.874528   0.000000
     4  C    2.610943   3.710856   1.539302   0.000000
     5  F    3.740632   4.593776   2.352913   1.324742   0.000000
     6  F    2.984465   3.331164   2.345973   1.327011   2.157773
     7  F    2.983323   4.618656   2.354625   1.327349   2.155506
     8  F    2.302991   4.003189   1.337795   2.333546   2.710261
     9  F    2.343389   2.439187   1.349338   2.332591   2.694526
    10  O    1.234338   1.457413   2.333198   3.475523   4.528120
    11  H    2.494370   0.965958   2.435997   3.287293   3.951351
                    6          7          8          9         10
     6  F    0.000000
     7  F    2.161403   0.000000
     8  F    3.482498   2.737708   0.000000
     9  F    2.729397   3.491545   2.168820   0.000000
    10  O    3.512461   4.077710   3.212255   2.498479   0.000000
    11  H    3.050119   4.378171   3.526767   1.634455   1.883392
                   11
    11  H    0.000000
 Symmetry turned off by external request.
 Stoichiometry    C3HF5O2
 Rotational constants (GHZ):           2.1316605           1.0783085           0.9868223
 Leave Link  202 at Sat May 24 08:46:00 2025, MaxMem=  3758096384 cpu:               0.1 elap:               0.0
 (Enter /apps/easybuild-2022/easybuild/software/Compiler/NVHPC/22.11-CUDA-11.7.0/Gaussian/g16c01-CUDA-11.7.0/g16/l301.exe)
 Standard basis: def2TZVPP (5D, 7F)
 Ernie: Thresh=  0.10000D-02 Tol=  0.10000D-05 Strict=F.
   324 basis functions,   527 primitive gaussians,   375 cartesian basis functions
    40 alpha electrons       40 beta electrons
       nuclear repulsion energy       634.1555938374 Hartrees.
 IExCor= 4336 DFT=T Ex+Corr=M062X ExCW=0 ScaHFX=  0.540000
 ScaDFX=  1.000000  1.000000  1.000000  1.000000 ScalE2=  1.000000  1.000000
 IRadAn=      5 IRanWt=     -1 IRanGd=            0 ICorTp=0 IEmpDi=  4
 NAtoms=   11 NActive=   11 NUniq=   11 SFac= 1.00D+00 NAtFMM=   60 NAOKFM=F Big=F
 Integral buffers will be    131072 words long.
 Raffenetti 2 integral format.
 Two-electron integral symmetry is turned off.
 Leave Link  301 at Sat May 24 08:46:00 2025, MaxMem=  3758096384 cpu:               0.1 elap:               0.0
 (Enter /apps/easybuild-2022/easybuild/software/Compiler/NVHPC/22.11-CUDA-11.7.0/Gaussian/g16c01-CUDA-11.7.0/g16/l302.exe)
 NPDir=0 NMtPBC=     1 NCelOv=     1 NCel=       1 NClECP=     1 NCelD=      1
         NCelK=      1 NCelE2=     1 NClLst=     1 CellRange=     0.0.
 One-electron integrals computed using PRISM.
   1 Symmetry operations used in ECPInt.
 ECPInt:  NShTT=    6786 NPrTT=   21959 LenC2=    6462 LenP2D=   15945.
 LDataN:  DoStor=T MaxTD1= 6 Len=  172
 NBasis=   324 RedAO= T EigKep=  4.14D-04  NBF=   324
 NBsUse=   324 1.00D-06 EigRej= -1.00D+00 NBFU=   324
 Precomputing XC quadrature grid using
 IXCGrd= 4 IRadAn=           5 IRanWt=          -1 IRanGd=           0 AccXCQ= 0.00D+00.
 Generated NRdTot=       0 NPtTot=           0 NUsed=           0 NTot=          32
 NSgBfM=   372   372   372   372   372 MxSgAt=    11 MxSgA2=    11.
 Leave Link  302 at Sat May 24 08:46:00 2025, MaxMem=  3758096384 cpu:               0.8 elap:               0.2
 (Enter /apps/easybuild-2022/easybuild/software/Compiler/NVHPC/22.11-CUDA-11.7.0/Gaussian/g16c01-CUDA-11.7.0/g16/l303.exe)
 DipDrv:  MaxL=1.
 Leave Link  303 at Sat May 24 08:46:00 2025, MaxMem=  3758096384 cpu:               0.1 elap:               0.0
 (Enter /apps/easybuild-2022/easybuild/software/Compiler/NVHPC/22.11-CUDA-11.7.0/Gaussian/g16c01-CUDA-11.7.0/g16/l401.exe)
 Initial guess from the checkpoint file:  "/tmp/Gau-96038.chk"
 B after Tr=    -0.021513   -0.059215    0.136199
         Rot=    0.999900    0.014115    0.000374   -0.000449 Ang=   1.62 deg.
 Guess basis will be translated and rotated to current coordinates.
 JPrj=2 DoOrth=T DoCkMO=T.
 Generating alternative initial guess.
 ExpMin= 9.52D-02 ExpMax= 3.55D+04 ExpMxC= 1.21D+03 IAcc=3 IRadAn=         5 AccDes= 0.00D+00
 Harris functional with IExCor= 1009 and IRadAn=       5 diagonalized for initial guess.
 HarFok:  IExCor= 1009 AccDes= 0.00D+00 IRadAn=         5 IDoV= 1 UseB2=F ITyADJ=14
 ICtDFT=  3500011 ScaDFX=  1.000000  1.000000  1.000000  1.000000
 FoFCou: FMM=F IPFlag=           0 FMFlag=      100000 FMFlg1=           0
         NFxFlg=           0 DoJE=T BraDBF=F KetDBF=T FulRan=T
         wScrn=  0.000000 ICntrl=       500 IOpCl=  0 I1Cent=   200000004 NGrid=           0
         NMat0=    1 NMatS0=      1 NMatT0=    0 NMatD0=    1 NMtDS0=    0 NMtDT0=    0
 Symmetry not used in FoFCou.
 Harris En= -763.967516868994    
 Leave Link  401 at Sat May 24 08:46:01 2025, MaxMem=  3758096384 cpu:               3.9 elap:               0.7
 (Enter /apps/easybuild-2022/easybuild/software/Compiler/NVHPC/22.11-CUDA-11.7.0/Gaussian/g16c01-CUDA-11.7.0/g16/l502.exe)
 Keep R1 ints in memory in canonical form, NReq=1412617130.
 FoFCou: FMM=F IPFlag=           0 FMFlag=           0 FMFlg1=           0
         NFxFlg=           0 DoJE=F BraDBF=F KetDBF=F FulRan=T
         wScrn=  0.000000 ICntrl=       600 IOpCl=  0 I1Cent=           0 NGrid=           0
         NMat0=    1 NMatS0=  52650 NMatT0=    0 NMatD0=    1 NMtDS0=    0 NMtDT0=    0
 Symmetry not used in FoFCou.
 Two-electron integral symmetry not used.
 Closed shell SCF:
 Using DIIS extrapolation, IDIIS=  1040.
 NGot=  3758096384 LenX=  2371771924 LenY=  2371630858
 Requested convergence on RMS density matrix=1.00D-08 within  32 cycles.
 Requested convergence on MAX density matrix=1.00D-06.
 Requested convergence on             energy=1.00D-06.
 No special actions if energy rises.
 Integral accuracy reduced to 1.0D-05 until final iterations.

 Cycle   1  Pass 0  IDiag  1:
 E= -764.345938154678    
 DIIS: error= 7.46D-03 at cycle   1 NSaved=   1.
 NSaved= 1 IEnMin= 1 EnMin= -764.345938154678     IErMin= 1 ErrMin= 7.46D-03
 ErrMax= 7.46D-03  0.00D+00 EMaxC= 1.00D-01 BMatC= 5.23D-02 BMatP= 5.23D-02
 IDIUse=3 WtCom= 9.25D-01 WtEn= 7.46D-02
 Coeff-Com:  0.100D+01
 Coeff-En:   0.100D+01
 Coeff:      0.100D+01
 Gap=     0.880 Goal=   None    Shift=    0.000
 GapD=    0.880 DampG=2.000 DampE=1.000 DampFc=2.0000 IDamp=-1.
 RMSDP=8.21D-04 MaxDP=2.84D-02              OVMax= 1.07D-01

 Cycle   2  Pass 0  IDiag  1:
 E= -764.426899214288     Delta-E=       -0.080961059610 Rises=F Damp=F
 DIIS: error= 3.14D-03 at cycle   2 NSaved=   2.
 NSaved= 2 IEnMin= 2 EnMin= -764.426899214288     IErMin= 2 ErrMin= 3.14D-03
 ErrMax= 3.14D-03  0.00D+00 EMaxC= 1.00D-01 BMatC= 4.20D-03 BMatP= 5.23D-02
 IDIUse=3 WtCom= 9.69D-01 WtEn= 3.14D-02
 Coeff-Com: -0.710D-01 0.107D+01
 Coeff-En:   0.000D+00 0.100D+01
 Coeff:     -0.688D-01 0.107D+01
 Gap=     0.250 Goal=   None    Shift=    0.000
 RMSDP=2.86D-04 MaxDP=1.16D-02 DE=-8.10D-02 OVMax= 3.61D-02

 Cycle   3  Pass 0  IDiag  1:
 E= -764.431852741444     Delta-E=       -0.004953527156 Rises=F Damp=F
 DIIS: error= 2.15D-03 at cycle   3 NSaved=   3.
 NSaved= 3 IEnMin= 3 EnMin= -764.431852741444     IErMin= 3 ErrMin= 2.15D-03
 ErrMax= 2.15D-03  0.00D+00 EMaxC= 1.00D-01 BMatC= 4.63D-03 BMatP= 4.20D-03
 IDIUse=3 WtCom= 1.77D-01 WtEn= 8.23D-01
 Coeff-Com: -0.995D-01 0.598D+00 0.502D+00
 Coeff-En:   0.000D+00 0.000D+00 0.100D+01
 Coeff:     -0.176D-01 0.106D+00 0.912D+00
 Gap=     0.257 Goal=   None    Shift=    0.000
 RMSDP=2.22D-04 MaxDP=1.68D-02 DE=-4.95D-03 OVMax= 3.08D-02

 Cycle   4  Pass 0  IDiag  1:
 E= -764.430158790436     Delta-E=        0.001693951008 Rises=F Damp=F
 DIIS: error= 3.23D-03 at cycle   4 NSaved=   4.
 NSaved= 4 IEnMin= 3 EnMin= -764.431852741444     IErMin= 3 ErrMin= 2.15D-03
 ErrMax= 3.23D-03  0.00D+00 EMaxC= 1.00D-01 BMatC= 7.92D-03 BMatP= 4.20D-03
 IDIUse=3 WtCom= 1.50D-01 WtEn= 8.50D-01
 Coeff-Com: -0.277D-02-0.149D+00 0.615D+00 0.536D+00
 Coeff-En:   0.000D+00 0.000D+00 0.586D+00 0.414D+00
 Coeff:     -0.414D-03-0.223D-01 0.591D+00 0.432D+00
 Gap=     0.252 Goal=   None    Shift=    0.000
 RMSDP=1.25D-04 MaxDP=8.09D-03 DE= 1.69D-03 OVMax= 1.27D-02

 Cycle   5  Pass 0  IDiag  1:
 E= -764.435568415067     Delta-E=       -0.005409624631 Rises=F Damp=F
 DIIS: error= 2.26D-04 at cycle   5 NSaved=   5.
 NSaved= 5 IEnMin= 5 EnMin= -764.435568415067     IErMin= 5 ErrMin= 2.26D-04
 ErrMax= 2.26D-04  0.00D+00 EMaxC= 1.00D-01 BMatC= 3.18D-05 BMatP= 4.20D-03
 IDIUse=3 WtCom= 9.98D-01 WtEn= 2.26D-03
 Coeff-Com:  0.844D-02-0.120D+00 0.906D-01 0.101D+00 0.920D+00
 Coeff-En:   0.000D+00 0.000D+00 0.000D+00 0.000D+00 0.100D+01
 Coeff:      0.843D-02-0.119D+00 0.904D-01 0.101D+00 0.920D+00
 Gap=     0.251 Goal=   None    Shift=    0.000
 RMSDP=3.24D-05 MaxDP=1.51D-03 DE=-5.41D-03 OVMax= 6.38D-03

 Cycle   6  Pass 0  IDiag  1:
 E= -764.435641604800     Delta-E=       -0.000073189733 Rises=F Damp=F
 DIIS: error= 6.77D-05 at cycle   6 NSaved=   6.
 NSaved= 6 IEnMin= 6 EnMin= -764.435641604800     IErMin= 6 ErrMin= 6.77D-05
 ErrMax= 6.77D-05  0.00D+00 EMaxC= 1.00D-01 BMatC= 5.20D-06 BMatP= 3.18D-05
 IDIUse=1 WtCom= 1.00D+00 WtEn= 0.00D+00
 Coeff-Com:  0.359D-02-0.251D-01-0.563D-01-0.378D-01 0.368D+00 0.747D+00
 Coeff:      0.359D-02-0.251D-01-0.563D-01-0.378D-01 0.368D+00 0.747D+00
 Gap=     0.251 Goal=   None    Shift=    0.000
 RMSDP=8.09D-06 MaxDP=3.67D-04 DE=-7.32D-05 OVMax= 1.74D-03

 Initial convergence to 1.0D-05 achieved.  Increase integral accuracy.
 Cycle   7  Pass 1  IDiag  1:
 E= -764.435718005215     Delta-E=       -0.000076400415 Rises=F Damp=F
 DIIS: error= 3.57D-05 at cycle   1 NSaved=   1.
 NSaved= 1 IEnMin= 1 EnMin= -764.435718005215     IErMin= 1 ErrMin= 3.57D-05
 ErrMax= 3.57D-05  0.00D+00 EMaxC= 1.00D-01 BMatC= 1.09D-06 BMatP= 1.09D-06
 IDIUse=1 WtCom= 1.00D+00 WtEn= 0.00D+00
 Coeff-Com:  0.100D+01
 Coeff:      0.100D+01
 Gap=     0.251 Goal=   None    Shift=    0.000
 RMSDP=8.09D-06 MaxDP=3.67D-04 DE=-7.64D-05 OVMax= 7.84D-04

 Cycle   8  Pass 1  IDiag  1:
 E= -764.435719251829     Delta-E=       -0.000001246614 Rises=F Damp=F
 DIIS: error= 1.92D-05 at cycle   2 NSaved=   2.
 NSaved= 2 IEnMin= 2 EnMin= -764.435719251829     IErMin= 2 ErrMin= 1.92D-05
 ErrMax= 1.92D-05  0.00D+00 EMaxC= 1.00D-01 BMatC= 4.85D-07 BMatP= 1.09D-06
 IDIUse=1 WtCom= 1.00D+00 WtEn= 0.00D+00
 Coeff-Com:  0.352D+00 0.648D+00
 Coeff:      0.352D+00 0.648D+00
 Gap=     0.251 Goal=   None    Shift=    0.000
 RMSDP=1.93D-06 MaxDP=7.30D-05 DE=-1.25D-06 OVMax= 2.22D-04

 Cycle   9  Pass 1  IDiag  1:
 E= -764.435719608549     Delta-E=       -0.000000356719 Rises=F Damp=F
 DIIS: error= 1.39D-05 at cycle   3 NSaved=   3.
 NSaved= 3 IEnMin= 3 EnMin= -764.435719608549     IErMin= 3 ErrMin= 1.39D-05
 ErrMax= 1.39D-05  0.00D+00 EMaxC= 1.00D-01 BMatC= 1.06D-07 BMatP= 4.85D-07
 IDIUse=1 WtCom= 1.00D+00 WtEn= 0.00D+00
 Coeff-Com: -0.791D-01 0.268D+00 0.811D+00
 Coeff:     -0.791D-01 0.268D+00 0.811D+00
 Gap=     0.251 Goal=   None    Shift=    0.000
 RMSDP=1.30D-06 MaxDP=7.15D-05 DE=-3.57D-07 OVMax= 2.75D-04

 Cycle  10  Pass 1  IDiag  1:
 E= -764.435719753947     Delta-E=       -0.000000145398 Rises=F Damp=F
 DIIS: error= 3.73D-06 at cycle   4 NSaved=   4.
 NSaved= 4 IEnMin= 4 EnMin= -764.435719753947     IErMin= 4 ErrMin= 3.73D-06
 ErrMax= 3.73D-06  0.00D+00 EMaxC= 1.00D-01 BMatC= 1.14D-08 BMatP= 1.06D-07
 IDIUse=1 WtCom= 1.00D+00 WtEn= 0.00D+00
 Coeff-Com: -0.617D-01-0.422D-02 0.210D+00 0.856D+00
 Coeff:     -0.617D-01-0.422D-02 0.210D+00 0.856D+00
 Gap=     0.251 Goal=   None    Shift=    0.000
 RMSDP=5.47D-07 MaxDP=2.53D-05 DE=-1.45D-07 OVMax= 1.29D-04

 Cycle  11  Pass 1  IDiag  1:
 E= -764.435719780190     Delta-E=       -0.000000026243 Rises=F Damp=F
 DIIS: error= 3.32D-06 at cycle   5 NSaved=   5.
 NSaved= 5 IEnMin= 5 EnMin= -764.435719780190     IErMin= 5 ErrMin= 3.32D-06
 ErrMax= 3.32D-06  0.00D+00 EMaxC= 1.00D-01 BMatC= 3.67D-09 BMatP= 1.14D-08
 IDIUse=1 WtCom= 1.00D+00 WtEn= 0.00D+00
 Coeff-Com: -0.324D-02-0.790D-01-0.134D+00 0.373D+00 0.843D+00
 Coeff:     -0.324D-02-0.790D-01-0.134D+00 0.373D+00 0.843D+00
 Gap=     0.251 Goal=   None    Shift=    0.000
 RMSDP=3.49D-07 MaxDP=1.58D-05 DE=-2.62D-08 OVMax= 9.17D-05

 Cycle  12  Pass 1  IDiag  1:
 E= -764.435719787222     Delta-E=       -0.000000007033 Rises=F Damp=F
[...]
    R1        2.89339   0.00000   0.00000   0.00001   0.00001   2.89340
    R2        2.26987  -0.00000   0.00000  -0.00003  -0.00003   2.26984
    R3        3.05882   0.00001   0.00000   0.00013   0.00013   3.05896
    R4        1.82502   0.00000   0.00000   0.00000   0.00000   1.82502
    R5        2.92798   0.00000   0.00000   0.00001   0.00001   2.92800
    R6        2.53518  -0.00000   0.00000  -0.00001  -0.00001   2.53517
    R7        2.52196  -0.00000   0.00000  -0.00001  -0.00001   2.52195
    R8        2.49935  -0.00000   0.00000  -0.00000  -0.00000   2.49935
    R9        2.49868   0.00000   0.00000  -0.00000  -0.00000   2.49868
   R10        2.50865  -0.00000   0.00000   0.00000   0.00000   2.50865
    A1        2.15117  -0.00000   0.00000   0.00001   0.00001   2.15118
    A2        1.68239  -0.00001   0.00000  -0.00006  -0.00006   1.68233
    A3        1.93445  -0.00000   0.00000  -0.00003  -0.00003   1.93442
    A4        1.87900   0.00000   0.00000   0.00001   0.00001   1.87901
    A5        1.98445   0.00001   0.00000   0.00002   0.00002   1.98447
    A6        1.87109   0.00000   0.00000   0.00001   0.00001   1.87110
    A7        1.90962  -0.00000   0.00000  -0.00002  -0.00002   1.90960
    A8        1.88082  -0.00000   0.00000   0.00000   0.00000   1.88082
    A9        1.90673  -0.00000   0.00000  -0.00001  -0.00001   1.90673
   A10        1.93776   0.00000   0.00000   0.00001   0.00001   1.93777
   A11        1.91089   0.00000   0.00000   0.00000   0.00000   1.91089
   A12        1.90571  -0.00000   0.00000  -0.00000  -0.00000   1.90571
   A13        1.90329  -0.00000   0.00000  -0.00000  -0.00000   1.90329
   A14        1.89914  -0.00000   0.00000   0.00000   0.00000   1.89914
   A15        2.07327   0.00000   0.00000   0.00000   0.00000   2.07327
    D1        1.49805  -0.00000   0.00000   0.00001   0.00001   1.49806
    D2       -2.74386  -0.00000   0.00000   0.00001   0.00001  -2.74385
    D3       -0.66167   0.00000   0.00000   0.00004   0.00004  -0.66163
    D4        0.01261  -0.00000   0.00000   0.00001   0.00001   0.01262
    D5       -2.95766   0.00000   0.00000   0.00014   0.00014  -2.95752
    D6        3.11881  -0.00000   0.00000  -0.00000  -0.00000   3.11881
    D7       -1.06165  -0.00000   0.00000  -0.00000  -0.00000  -1.06166
    D8        1.03560  -0.00000   0.00000   0.00000   0.00000   1.03560
    D9        1.07269  -0.00000   0.00000  -0.00000  -0.00000   1.07269
   D10       -3.10777  -0.00000   0.00000  -0.00001  -0.00001  -3.10778
   D11       -1.01052  -0.00000   0.00000  -0.00000  -0.00000  -1.01052
   D12       -0.96235   0.00000   0.00000  -0.00001  -0.00001  -0.96236
   D13        1.14037   0.00000   0.00000  -0.00001  -0.00001   1.14036
   D14       -3.04557   0.00000   0.00000  -0.00000  -0.00000  -3.04557
         Item               Value     Threshold  Converged?
 Maximum Force            0.000006     0.000450     YES
 RMS     Force            0.000002     0.000300     YES
 Maximum Displacement     0.000157     0.001800     YES
 RMS     Displacement     0.000039     0.001200     YES
 Predicted change in Energy=-8.844398D-10
 Optimization completed.
    -- Stationary point found.
                           ----------------------------
                           !   Optimized Parameters   !
                           ! (Angstroms and Degrees)  !
 --------------------------                            --------------------------
 ! Name  Definition              Value          Derivative Info.                !
 --------------------------------------------------------------------------------
 ! R1    R(1,3)                  1.5311         -DE/DX =    0.0                 !
 ! R2    R(1,10)                 1.2012         -DE/DX =    0.0                 !
 ! R3    R(2,10)                 1.6187         -DE/DX =    0.0                 !
 ! R4    R(2,11)                 0.9658         -DE/DX =    0.0                 !
 ! R5    R(3,4)                  1.5494         -DE/DX =    0.0                 !
 ! R6    R(3,8)                  1.3416         -DE/DX =    0.0                 !
 ! R7    R(3,9)                  1.3346         -DE/DX =    0.0                 !
 ! R8    R(4,5)                  1.3226         -DE/DX =    0.0                 !
 ! R9    R(4,6)                  1.3222         -DE/DX =    0.0                 !
 ! R10   R(4,7)                  1.3275         -DE/DX =    0.0                 !
 ! A1    A(3,1,10)             123.2529         -DE/DX =    0.0                 !
 ! A2    A(10,2,11)             96.394          -DE/DX =    0.0                 !
 ! A3    A(1,3,4)              110.8359         -DE/DX =    0.0                 !
 ! A4    A(1,3,8)              107.6585         -DE/DX =    0.0                 !
 ! A5    A(1,3,9)              113.7005         -DE/DX =    0.0                 !
 ! A6    A(4,3,8)              107.2057         -DE/DX =    0.0                 !
 ! A7    A(4,3,9)              109.4133         -DE/DX =    0.0                 !
 ! A8    A(8,3,9)              107.7629         -DE/DX =    0.0                 !
 ! A9    A(3,4,5)              109.2478         -DE/DX =    0.0                 !
 ! A10   A(3,4,6)              111.0255         -DE/DX =    0.0                 !
 ! A11   A(3,4,7)              109.4857         -DE/DX =    0.0                 !
 ! A12   A(5,4,6)              109.189          -DE/DX =    0.0                 !
 ! A13   A(5,4,7)              109.0508         -DE/DX =    0.0                 !
 ! A14   A(6,4,7)              108.8126         -DE/DX =    0.0                 !
 ! A15   A(1,10,2)             118.7897         -DE/DX =    0.0                 !
 ! D1    D(10,1,3,4)            85.832          -DE/DX =    0.0                 !
 ! D2    D(10,1,3,8)          -157.2119         -DE/DX =    0.0                 !
 ! D3    D(10,1,3,9)           -37.9106         -DE/DX =    0.0                 !
 ! D4    D(3,1,10,2)             0.7223         -DE/DX =    0.0                 !
 ! D5    D(11,2,10,1)         -169.4615         -DE/DX =    0.0                 !
 ! D6    D(1,3,4,5)            178.6948         -DE/DX =    0.0                 !
 ! D7    D(1,3,4,6)            -60.8282         -DE/DX =    0.0                 !
 ! D8    D(1,3,4,7)             59.3354         -DE/DX =    0.0                 !
 ! D9    D(8,3,4,5)             61.4608         -DE/DX =    0.0                 !
 ! D10   D(8,3,4,6)           -178.0622         -DE/DX =    0.0                 !
 ! D11   D(8,3,4,7)            -57.8986         -DE/DX =    0.0                 !
 ! D12   D(9,3,4,5)            -55.1388         -DE/DX =    0.0                 !
 ! D13   D(9,3,4,6)             65.3381         -DE/DX =    0.0                 !
 ! D14   D(9,3,4,7)           -174.4983         -DE/DX =    0.0                 !
 --------------------------------------------------------------------------------
 GradGradGradGradGradGradGradGradGradGradGradGradGradGradGradGradGradGrad

 Leave Link  103 at Sat May 24 09:06:25 2025, MaxMem=  3758096384 cpu:               0.1 elap:               0.0
 (Enter /apps/easybuild-2022/easybuild/software/Compiler/NVHPC/22.11-CUDA-11.7.0/Gaussian/g16c01-CUDA-11.7.0/g16/l9999.exe)

 ----------------------------------------------------------------------

 Electric dipole moment (input orientation):
 (Debye = 10**-18 statcoulomb cm , SI units = C m)
                  (au)            (Debye)         (10**-30 SI)
   Tot        0.710395D+00      0.180564D+01      0.602298D+01
   x          0.618999D+00      0.157334D+01      0.524809D+01
   y         -0.324587D+00     -0.825017D+00     -0.275196D+01
   z         -0.127059D+00     -0.322953D+00     -0.107725D+01

 Dipole polarizability, Alpha (input orientation).
 (esu units = cm**3 , SI units = C**2 m**2 J**-1)
 Alpha(0;0):
               (au)            (10**-24 esu)      (10**-40 SI)
   iso        0.539917D+02      0.800074D+01      0.890203D+01
   aniso      0.332724D+02      0.493047D+01      0.548588D+01
   xx         0.497048D+02      0.736550D+01      0.819522D+01
   yx        -0.692540D+01     -0.102624D+01     -0.114184D+01
   yy         0.640476D+02      0.949088D+01      0.105600D+02
   zx        -0.617093D+01     -0.914437D+00     -0.101745D+01
   zy         0.143731D+02      0.212988D+01      0.236981D+01
   zz         0.482226D+02      0.714585D+01      0.795083D+01

 ----------------------------------------------------------------------

 Dipole orientation:
     6          3.01310460         -2.70080621         -1.35020474
     8         -0.16256723         -0.47685923          1.13282395
     6          1.96331955         -1.34903484         -3.68309038
     6          3.21771153          1.27527914         -4.01860871
     9          2.30874056          2.36604815         -6.07549077
     9          2.77045566          2.74155362         -2.04544019
     9          5.69753882          0.99144993         -4.27001865
     9          2.57273677         -2.73683414         -5.71527221
     9         -0.54436548         -1.08235162         -3.65739006
     8          2.19157326         -2.39059923          0.74291629
     1         -0.08947916         -0.43352696          2.95586531

 Electric dipole moment (dipole orientation):
 (Debye = 10**-18 statcoulomb cm , SI units = C m)
                  (au)            (Debye)         (10**-30 SI)
   Tot        0.710395D+00      0.180564D+01      0.602298D+01
   x          0.000000D+00      0.000000D+00      0.000000D+00
   y          0.000000D+00      0.000000D+00      0.000000D+00
   z          0.710395D+00      0.180564D+01      0.602298D+01

 Dipole polarizability, Alpha (dipole orientation).
 (esu units = cm**3 , SI units = C**2 m**2 J**-1)
 Alpha(0;0):
               (au)            (10**-24 esu)      (10**-40 SI)
   iso        0.539917D+02      0.800074D+01      0.890203D+01
   aniso      0.332724D+02      0.493047D+01      0.548588D+01
   xx         0.531817D+02      0.788071D+01      0.876847D+01
   yx        -0.903358D+01     -0.133864D+01     -0.148944D+01
   yy         0.463547D+02      0.686906D+01      0.764286D+01
   zx        -0.137767D+02     -0.204150D+01     -0.227148D+01
   zy         0.569635D+01      0.844111D+00      0.939201D+00
   zz         0.624387D+02      0.925247D+01      0.102948D+02

 ----------------------------------------------------------------------
 Unable to Open any file for archive entry.
 1\1\GINC-SPARTAN-BM171\Freq\RM062X\def2TZVPP\C3H1F5O2\AKHALILOV\24-May
 -2025\0\\#P Geom=AllCheck Guess=TCheck SCRF=Check GenChk RM062X/def2TZ
 VPP Freq\\Gaussian input prepared by ASE\\0,1\C,0.4276508107,2.0410517
 637,0.8641060241\O,0.5769414619,-0.095299734,-0.2974760048\C,-1.087353
 9951,1.8288519797,0.9276955341\C,-1.4747864191,0.9913605705,2.17237040
 79\F,-2.7893581426,0.8512495393,2.2116589179\F,-0.9112565984,-0.204165
 7344,2.1339125922\F,-1.0728840758,1.6189278406,3.2709785887\F,-1.66157
 44994,3.0334544714,1.0654850223\F,-1.5955132499,1.258346104,-0.1665406
 004\O,1.1825981221,1.2530595306,0.3621965608\H,1.4235617077,-0.5418941
 419,-0.4258442173\\Version=ES64L-G16RevC.01\HF=-764.4632894\RMSD=4.020
 e-09\RMSF=3.740e-06\ZeroPoint=0.0484091\Thermal=0.0581786\ETot=-764.40
 51108\HTot=-764.4041666\GTot=-764.4505505\Dipole=0.6189992,-0.3245865,
 -0.1270594\DipoleDeriv=0.1521092,0.5022938,0.1284656,0.0206945,-0.8993
 088,-0.4487285,0.0375012,-0.475369,-0.3584348,-0.1018432,-0.2235603,-0
 .0929558,0.3302738,-1.3670084,-0.6378103,0.2178959,-0.5306533,-0.64078
 14,1.0170269,-0.4480959,-0.0031407,-0.3962892,1.2855855,0.3172156,0.21
 90904,0.100478,0.9991376,1.6213785,-0.0089846,0.0355772,0.1414698,1.28
 49467,-0.0452294,-0.1690942,0.2112811,1.530055,-0.9781262,-0.0198988,0
 .096098,-0.1624582,-0.2427158,0.0766278,0.1495658,-0.0025156,-0.354910
 1,-0.3762739,0.1528064,0.0212306,0.1889112,-0.6901232,0.0602042,0.0260
 251,0.0754803,-0.3210963,-0.3339116,-0.0743258,-0.0880651,-0.1006332,-
 0.3648511,-0.1363453,-0.0971161,-0.2551843,-0.7959582,-0.3969497,0.280
 8616,0.0536588,0.2499681,-0.7425415,-0.0607337,-0.0108389,0.0137593,-0
 .2772573,-0.506777,0.0711718,-0.0541619,-0.0838906,-0.2441302,-0.07684
 33,-0.2531267,-0.0502249,-0.5569244,-0.3181629,-0.0977611,0.0011806,-0
 .169129,1.681057,0.9688579,-0.0934007,0.9374828,0.4458892,0.2215299,-0
 .1345071,-0.0978872,-0.0189171,0.2990897,-0.0172148,-0.0265018,-0.0245
 344,0.3302807\Polar=49.7048489,-6.9254013,64.0476245,-6.1709282,14.373
 1113,48.222609\PG=Unknown\NImag=0\\0.56708852,-0.24006480,0.39479520,-
 0.17319469,0.18050668,0.21345915,0.05071468,-0.00445811,-0.00276183,0.
 50960328,0.05447653,-0.09751690,-0.07181038,-0.18980132,0.18470350,0.0
 2508094,-0.06046035,-0.01166893,-0.05111176,0.06232362,0.03664603,-0.1
 2852062,-0.01685889,0.00936222,-0.00637891,-0.02777878,-0.01156414,0.5
 0473916,-0.04137142,-0.05868401,0.01766539,0.00577735,0.00840312,0.012
 74679,-0.02692319,0.53157593,-0.00889510,0.00693280,-0.06481496,-0.003
 49193,0.00456907,-0.01438155,0.03608718,0.01726722,0.53523523,-0.01050
 382,-0.01380780,0.02313347,0.00276757,0.00115566,0.00210568,-0.0745986
 9,-0.03732688,0.05261050,0.60330207,-0.00550337,-0.00239646,-0.0046000
 5,-0.00516865,-0.01507272,-0.00386939,-0.01478218,-0.07703012,0.063311
 08,0.00351690,0.60569714,0.01617953,0.00501772,0.00445043,0.00117449,0
 .00356042,0.00421444,0.01313957,0.06058096,-0.13002740,-0.01060873,-0.
 01218328,0.60044474,0.00405150,-0.00015611,0.00472233,0.00072554,0.002
 19235,0.00279673,-0.04969592,-0.00642091,0.00220111,-0.31321308,-0.041
 37999,0.03360946,0.45084591,0.00130454,-0.00000803,0.00371021,0.001075
 00,0.00286373,0.00151444,-0.02688110,-0.00235356,0.00363796,-0.0389290
 4,-0.08409128,0.00846606,0.03814487,0.08414020,-0.00237770,0.00039440,
 -0.00430797,-0.00083498,-0.00171663,-0.00170698,0.03516003,0.00635962,
 -0.00263183,0.02821120,0.00823042,-0.08475191,-0.00886747,0.00287318,0
 .07602703,-0.00001756,0.00040586,-0.00271747,-0.00290042,-0.00249376,0
 .00270287,0.00465270,0.00549499,-0.00020703,-0.11098307,0.08382189,-0.
 00419574,-0.05910601,0.05622098,0.00044306,0.15012483,0.00019792,0.002
 96974,0.00371115,0.00202332,0.00688198,0.00067789,0.02025819,-0.035783
 94,-0.01088347,0.08163085,-0.29236045,0.02397917,0.03726836,-0.0022511
 6,-0.00233790,-0.14595112,0.39057671,-0.00148859,-0.00029880,-0.000094
 41,0.00368588,-0.00044897,-0.00461527,-0.00989489,0.02098487,0.0086343
 4,-0.00119289,0.01658161,-0.08438506,0.00325913,-0.00450112,0.01350970
 ,-0.00531663,0.01633330,0.07794268,-0.00208278,0.00033456,0.00077322,-
 0.00000364,0.00134191,-0.00027381,0.00794371,0.00135165,-0.00364063,-0
 .09082077,-0.02439446,-0.04905535,-0.04502912,-0.03102949,-0.05240361,
 0.01526462,0.00710653,0.01039521,0.11271058,-0.00171972,0.00032405,0.0
 0159812,0.00074959,0.00296218,0.00014405,0.00155215,0.00185437,0.00130
 714,-0.02455578,-0.11303890,-0.08013830,-0.02602903,0.00076464,-0.0177
 3751,0.00116165,-0.05588445,-0.05620489,0.04886149,0.16146300,0.000352
 83,0.00045284,-0.00141581,-0.00018933,-0.00116592,-0.00127431,-0.01641
 696,-0.03136062,-0.03479680,-0.04766692,-0.07120063,-0.27111403,-0.035
 18372,-0.01376188,-0.00275244,0.00540705,-0.04003181,-0.00723963,0.092
 42316,0.14724773,0.32904445,-0.03283084,0.04447806,0.00315307,-0.00022
 483,0.00125839,-0.00112780,-0.11708793,0.10083131,-0.00602856,-0.00210
 382,0.00445410,0.00609562,0.00672517,-0.00107073,-0.00196024,0.0011193
 3,-0.00023266,-0.00094933,0.00062319,-0.00064892,-0.00040606,0.1379601
 6,0.01801489,-0.01012693,-0.00581733,-0.00015622,-0.00003561,0.0003153
 9,0.09381755,-0.26025399,0.00635088,0.02567979,-0.04386936,-0.01058889
 ,-0.00274008,0.00322329,0.00120419,-0.00062220,-0.00945406,0.00856286,
 -0.00124706,0.00445387,0.00437044,-0.13991356,0.36421667,0.00337623,-0
 .00570047,0.00692763,0.00019273,-0.00004080,0.00128176,0.00570712,-0.0
 0680260,-0.06918781,-0.01470187,0.02053406,0.00332061,-0.00049421,-0.0
 0041965,0.00080467,0.00038726,0.00753978,-0.00430830,0.00071407,0.0024
 0641,0.00189130,-0.00752740,0.03549240,0.07524491,-0.03379065,-0.01230
 767,-0.02589716,-0.00030661,0.02231810,0.00563368,-0.10884051,-0.03361
 007,-0.09613426,-0.00029830,-0.00281446,-0.00020407,0.00604980,0.00218
 656,0.00101384,0.00091062,-0.00077087,0.00052534,0.00042959,0.00017660
 ,0.00132805,0.01529124,0.00362145,0.01077168,0.11153487,-0.01539470,0.
 00390701,-0.00697590,0.00726748,0.00250176,0.00034173,-0.03808260,-0.0
 9799016,-0.08008850,0.00478957,0.00452001,0.00345041,0.00190803,0.0012
 7482,0.00058074,-0.00059042,0.00343094,-0.00051774,-0.00073624,0.00043
 459,0.00422444,-0.00705041,-0.04952790,-0.05435029,0.04582149,0.142368
 42,-0.02180638,-0.00437895,-0.00306440,0.00526958,0.01121098,0.0062479
 2,-0.07997245,-0.06622843,-0.25149972,-0.02570363,-0.02753620,-0.03705
 148,0.00136684,0.00137788,0.00306425,0.00104503,0.00470981,0.00151449,
 0.00120503,0.00272104,-0.01331432,0.00334128,-0.04103285,-0.01407016,0
 .11143744,0.13597279,0.31652590,-0.41469968,0.25373628,0.17083091,-0.1
 1997108,-0.07120818,-0.03214172,-0.02922091,0.03255558,0.02919117,-0.0
 0346725,0.00389905,-0.00668401,-0.00191906,-0.00139992,0.00191101,0.00
 116080,-0.00214582,0.00080182,0.00077983,0.00015568,0.00044957,-0.0098
 7272,0.00339496,0.00131936,0.00823637,-0.00002124,0.00173300,0.5543440
 4,0.23481665,-0.22509236,-0.11177552,0.00948033,0.02597898,0.02404874,
 0.03555535,-0.00806576,-0.01335130,-0.00226070,0.01732408,-0.00117606,
 -0.00244737,-0.00338303,0.00191782,0.00281285,-0.00794950,-0.00104682,
 -0.00165457,-0.00337410,0.00087671,-0.00173376,0.00103181,0.00118048,-
 0.02266603,-0.01191970,-0.01604996,-0.24907467,0.22733254,0.16450323,-
 0.11613429,-0.13770829,0.00595425,0.02999467,-0.00248935,0.01861706,-0
 .03092885,0.02337762,-0.00674289,0.01147818,-0.00526993,-0.00308850,-0
 .00300210,0.00274838,0.00256547,-0.00428058,-0.00037345,-0.00006311,-0
 .00151999,0.00089970,0.00557510,0.00082074,-0.00192102,-0.00717644,-0.
 00326921,-0.00847701,-0.18121538,0.11981344,0.13264105,0.00059124,-0.0
 1130138,-0.00740408,-0.43402557,0.20853910,0.05789932,-0.00299208,-0.0
 0035839,-0.00169245,-0.00008083,-0.00164882,0.00054925,0.00056528,0.00
 037831,-0.00029514,-0.00022582,0.00061530,0.00017495,0.00018480,0.0002
 9630,-0.00009767,0.00040106,0.00015048,0.00025503,0.00078359,0.0020890
 4,0.00208427,0.01462968,-0.00282807,0.00107121,0.42016866,-0.00475650,
 -0.00817131,-0.00621237,0.17321124,-0.12167002,-0.03778292,0.00012350,
 -0.00167189,0.00094712,0.00010742,0.00031807,-0.00096821,-0.00034011,-
 0.00017962,0.00023169,-0.00026072,-0.00017581,0.00055571,0.00006569,0.
 00004076,0.00034870,-0.00037181,0.00034220,0.00016068,-0.00195511,0.00
 100020,-0.00076611,0.03010829,-0.01188296,-0.00297201,-0.19593188,0.14
 205038,-0.00173030,-0.00633158,-0.00176245,0.04211291,-0.03647605,-0.0
 1225378,-0.00022473,-0.00028435,0.00009288,0.00055609,-0.00074579,0.00
 016959,-0.00032170,0.00010501,-0.00000290,-0.00011387,0.00058265,-0.00
 058509,-0.00007418,0.00017619,0.00007189,-0.00016569,0.00032216,0.0000
 1641,-0.00129811,0.00063155,0.00012453,0.01380427,-0.00443752,-0.00342
 769,-0.05254468,0.04645773,0.01755660\\-0.00000489,-0.00000218,-0.0000
 0304,0.00000339,0.00000777,-0.00000026,0.00000075,-0.00000196,0.000009
 00,0.00000023,0.00000168,0.00000095,0.00000037,0.00000109,0.00000211,0
 .00000001,-0.00000097,-0.00000253,0.00000357,-0.00000340,0.00000153,0.
 00000311,0.00000205,0.00000534,0.00000183,0.00000426,-0.00000209,-0.00
 000167,-0.00000611,-0.00000407,-0.00000669,-0.00000222,-0.00000694\\\@
 The archive entry for this job was punched.


 ACCORDING TO HEN3RY, LIFE IS MUCH LIKE A SEWER........
 YOU GET OUT OF IT JUST WHAT YOU PUT INTO IT...........
                         TOM LEHRER - (THE 3 IS SILENT)
 Job cpu time:       0 days  0 hours 26 minutes  8.2 seconds.
 Elapsed time:       0 days  0 hours  3 minutes 33.4 seconds.
 File lengths (MBytes):  RWF=    116 Int=      0 D2E=      0 Chk=      9 Scr=      1
 Normal termination of Gaussian 16 at Sat May 24 09:06:25 2025.
done
