11
energy = 0
C 1.51489763 0.22194842 0.16741013
O 1.68686446 -0.65725810 -0.67734278
C 1.08767265 1.52307727 -0.14379280
C 1.23675005 2.09992894 -1.55148841
F 1.69089751 3.35818557 -1.50634682
F 2.10199586 1.44392533 -2.30509712
F 0.11219796 2.15618549 -2.21433533
F 0.07529368 -0.32704859 -1.63763467
F 0.59023490 2.30550569 0.74481052
O 1.54418287 -0.11720796 1.45905853
H 1.67630843 -1.06975607 1.54843176
11
energy = 0
C 1.03449062 0.19296057 0.21053162
O 0.87233554 -0.83956511 -0.44045274
C 1.55504162 1.41780710 -0.23789046
C 1.09104538 2.11549694 -1.51637599
F 0.97561968 3.43468032 -1.32162094
F 1.93458700 1.98995494 -2.52612541
F -0.07906829 1.71750501 -1.94015031
F 1.50626336 -0.31200406 -2.15747751
F 2.38665845 2.06995380 0.49174819
O 1.08069406 0.03804641 1.53646793
H 0.95962858 -0.88734991 1.78501861
11
energy = 0
C 0.99860909 0.26601612 0.24565264
O 0.42027423 -0.53787974 -0.48610170
C 1.54209079 1.47769628 -0.21125385
C 1.08405709 2.11747331 -1.52178022
F 0.87183435 3.42960064 -1.36436106
F 1.98709109 2.02574674 -2.48252627
F -0.03347902 1.63272918 -1.99431003
F 1.69609023 -0.47345074 -1.89907786
F 2.41992568 2.12668101 0.46511820
O 1.30061815 -0.10585611 1.49254551
H 1.03018433 -1.02127068 1.63976762
