 Entering Gaussian System, Link 0=g16
 Initial command:
 /apps/easybuild-2022/easybuild/software/Compiler/NVHPC/22.11-CUDA-11.7.0/Gaussian/g16c01-CUDA-11.7.0/g16/l1.exe "/tmp/Gau-71941.inp" -scrdir="/tmp/"
 Entering Link 1 = /apps/easybuild-2022/easybuild/software/Compiler/NVHPC/22.11-CUDA-11.7.0/Gaussian/g16c01-CUDA-11.7.0/g16/l1.exe PID=     71944.
  
 Copyright (c) 1988-2019, Gaussian, Inc.  All Rights Reserved.
  
 This is part of the Gaussian(R) 16 program.  It is based on
 the Gaussian(R) 09 system (copyright 2009, Gaussian, Inc.),
 the Gaussian(R) 03 system (copyright 2003, Gaussian, Inc.),
 the Gaussian(R) 98 system (copyright 1998, Gaussian, Inc.),
 the Gaussian(R) 94 system (copyright 1995, Gaussian, Inc.),
 the Gaussian 92(TM) system (copyright 1992, Gaussian, Inc.),
 the Gaussian 90(TM) system (copyright 1990, Gaussian, Inc.),
 the Gaussian 88(TM) system (copyright 1988, Gaussian, Inc.),
 the Gaussian 86(TM) system (copyright 1986, Carnegie Mellon
 University), and the Gaussian 82(TM) system (copyright 1983,
 Carnegie Mellon University). Gaussian is a federally registered
 trademark of Gaussian, Inc.
  
 This software contains proprietary and confidential information,
 including trade secrets, belonging to Gaussian, Inc.
  
 This software is provided under written license and may be
 used, copied, transmitted, or stored only in accord with that
 written license.
  
 The following legend is applicable only to US Government
 contracts under FAR:
  
                    RESTRICTED RIGHTS LEGEND
  
 Use, reproduction and disclosure by the US Government is
 subject to restrictions as set forth in subparagraphs (a)
 and (c) of the Commercial Computer Software - Restricted
 Rights clause in FAR 52.227-19.
  
 Gaussian, Inc.
 340 Quinnipiac St., Bldg. 40, Wallingford CT 06492
  
  
 ---------------------------------------------------------------
 Warning -- This program may not be used in any manner that
 competes with the business of Gaussian, Inc. or will provide
 assistance to any competitor of Gaussian, Inc.  The licensee
 of this program is prohibited from giving any competitor of
 Gaussian, Inc. access to this program.  By using this program,
 the user acknowledges that Gaussian, Inc. is engaged in the
 business of creating and licensing software in the field of
 computational chemistry and represents and warrants to the
 licensee that it is not a competitor of Gaussian, Inc. and that
 it will not use this program in any manner prohibited above.
 ---------------------------------------------------------------
  

 Cite this work as:
 Gaussian 16, Revision C.01,
 M. J. Frisch, G. W. Trucks, H. B. Schlegel, G. E. Scuseria, 
 M. A. Robb, J. R. Cheeseman, G. Scalmani, V. Barone, 
 G. A. Petersson, H. Nakatsuji, X. Li, M. Caricato, A. V. Marenich, 
 J. Bloino, B. G. Janesko, R. Gomperts, B. Mennucci, H. P. Hratchian, 
 J. V. Ortiz, A. F. Izmaylov, J. L. Sonnenberg, D. Williams-Young, 
 F. Ding, F. Lipparini, F. Egidi, J. Goings, B. Peng, A. Petrone, 
 T. Henderson, D. Ranasinghe, V. G. Zakrzewski, J. Gao, N. Rega, 
 G. Zheng, W. Liang, M. Hada, M. Ehara, K. Toyota, R. Fukuda, 
 J. Hasegawa, M. Ishida, T. Nakajima, Y. Honda, O. Kitao, H. Nakai, 
 T. Vreven, K. Throssell, J. A. Montgomery, Jr., J. E. Peralta, 
 F. Ogliaro, M. J. Bearpark, J. J. Heyd, E. N. Brothers, K. N. Kudin, 
 V. N. Staroverov, T. A. Keith, R. Kobayashi, J. Normand, 
 K. Raghavachari, A. P. Rendell, J. C. Burant, S. S. Iyengar, 
 J. Tomasi, M. Cossi, J. M. Millam, M. Klene, C. Adamo, R. Cammi, 
 J. W. Ochterski, R. L. Martin, K. Morokuma, O. Farkas, 
 J. B. Foresman, and D. J. Fox, Gaussian, Inc., Wallingford CT, 2019.
 
 ******************************************
 Gaussian 16:  ES64L-G16RevC.01  3-Jul-2019
                24-May-2025 
 ******************************************
 %mem=28GB
 %nprocshared=8
 Will use up to    8 processors via shared memory.
 -----------------------------------------------------------------
 #P M062X/Def2TZVPP Symm(None) scf(xqc) pop(None) freq opt(CalcFC)
 -----------------------------------------------------------------
 1/10=4,18=20,19=15,26=3,38=1/1,3;
 2/9=110,12=2,15=3,17=6,18=5,40=1/2;
 3/5=44,7=202,11=2,25=1,30=1,71=2,74=-55,140=1/1,2,3;
 4//1;
 5/5=2,8=3,13=1,38=5/2,8;
 8/6=4,10=90,11=11/1;
 11/6=1,8=1,9=11,15=111,16=1,31=1/1,2,10;
 10/6=1,13=1,31=1/2;
 7/10=1,25=1,30=1/1,2,3,16;
 1/10=4,18=20,19=15,26=3/3(2);
 2/9=110,15=3/2;
 99//99;
 2/9=110,15=3/2;
 3/5=44,7=202,11=2,25=1,30=1,71=1,74=-55/1,2,3;
 4/5=5,16=3,69=1/1;
 5/5=2,8=3,13=1,38=5/2,8;
 7/30=1/1,2,3,16;
 1/18=20,19=15,26=3/3(-5);
 2/9=110,15=3/2;
 99/9=1/99;
 Leave Link    1 at Sat May 24 04:45:09 2025, MaxMem=  3758096384 cpu:               0.1 elap:               0.0
 (Enter /apps/easybuild-2022/easybuild/software/Compiler/NVHPC/22.11-CUDA-11.7.0/Gaussian/g16c01-CUDA-11.7.0/g16/l101.exe)
 ------------------------------
 Gaussian input prepared by ASE
 ------------------------------
 Symbolic Z-matrix:
 Charge =  0 Multiplicity = 1
 C                     0.        0.        0. 
 O                     1.35895   0.        0. 
 C                     2.05099   1.85548   1.41243 
 C                     1.99775   1.22559   0. 
 F                     2.75747   2.97509   1.36911 
 F                     3.24602   0.99517  -0.39556 
 F                     1.43064   2.08069  -0.83856 
 F                     0.83485   2.12755   1.85098 
 F                     2.63406   1.00898   2.25155 
 O                    -0.35683   0.62889   1.07119 
 H                    -0.89492   1.42359   0.8878 
 
 ITRead=  0  0  0  0  0  0  0  0  0  0  0
 MicOpt= -1 -1 -1 -1 -1 -1 -1 -1 -1 -1 -1
 NAtoms=     11 NQM=       11 NQMF=       0 NMMI=      0 NMMIF=      0
                NMic=       0 NMicF=      0.
                    Isotopes and Nuclear Properties:
 (Nuclear quadrupole moments (NQMom) in fm**2, nuclear magnetic moments (NMagM)
  in nuclear magnetons)

  Atom         1           2           3           4           5           6           7           8           9          10
 IAtWgt=          12          16          12          12          19          19          19          19          19          16
 AtmWgt=  12.0000000  15.9949146  12.0000000  12.0000000  18.9984032  18.9984032  18.9984032  18.9984032  18.9984032  15.9949146
 NucSpn=           0           0           0           0           1           1           1           1           1           0
 AtZEff=  -0.0000000  -0.0000000  -0.0000000  -0.0000000  -0.0000000  -0.0000000  -0.0000000  -0.0000000  -0.0000000  -0.0000000
 NQMom=    0.0000000   0.0000000   0.0000000   0.0000000   0.0000000   0.0000000   0.0000000   0.0000000   0.0000000   0.0000000
 NMagM=    0.0000000   0.0000000   0.0000000   0.0000000   2.6288670   2.6288670   2.6288670   2.6288670   2.6288670   0.0000000
 AtZNuc=   6.0000000   8.0000000   6.0000000   6.0000000   9.0000000   9.0000000   9.0000000   9.0000000   9.0000000   8.0000000

  Atom        11
 IAtWgt=           1
 AtmWgt=   1.0078250
 NucSpn=           1
 AtZEff=  -0.0000000
 NQMom=    0.0000000
 NMagM=    2.7928460
 AtZNuc=   1.0000000
 Leave Link  101 at Sat May 24 04:45:10 2025, MaxMem=  3758096384 cpu:               0.2 elap:               0.2
 (Enter /apps/easybuild-2022/easybuild/software/Compiler/NVHPC/22.11-CUDA-11.7.0/Gaussian/g16c01-CUDA-11.7.0/g16/l103.exe)

 GradGradGradGradGradGradGradGradGradGradGradGradGradGradGradGradGradGrad
 Berny optimization.
 Initialization pass.
                           ----------------------------
                           !    Initial Parameters    !
                           ! (Angstroms and Degrees)  !
 --------------------------                            --------------------------
 ! Name  Definition              Value          Derivative Info.                !
 --------------------------------------------------------------------------------
 ! R1    R(1,2)                  1.359          calculate D2E/DX2 analytically  !
 ! R2    R(1,10)                 1.2924         calculate D2E/DX2 analytically  !
 ! R3    R(2,4)                  1.3821         calculate D2E/DX2 analytically  !
 ! R4    R(3,4)                  1.5474         calculate D2E/DX2 analytically  !
 ! R5    R(3,5)                  1.3246         calculate D2E/DX2 analytically  !
 ! R6    R(3,8)                  1.3211         calculate D2E/DX2 analytically  !
 ! R7    R(3,9)                  1.3269         calculate D2E/DX2 analytically  !
 ! R8    R(4,6)                  1.3296         calculate D2E/DX2 analytically  !
 ! R9    R(4,7)                  1.3251         calculate D2E/DX2 analytically  !
 ! R10   R(10,11)                0.9771         calculate D2E/DX2 analytically  !
 ! A1    A(2,1,10)             106.0278         calculate D2E/DX2 analytically  !
 ! A2    A(1,2,4)              117.5295         calculate D2E/DX2 analytically  !
 ! A3    A(4,3,5)              109.4245         calculate D2E/DX2 analytically  !
 ! A4    A(4,3,8)              110.8028         calculate D2E/DX2 analytically  !
 ! A5    A(4,3,9)              109.4297         calculate D2E/DX2 analytically  !
 ! A6    A(5,3,8)              109.1336         calculate D2E/DX2 analytically  !
 ! A7    A(5,3,9)              108.9987         calculate D2E/DX2 analytically  !
 ! A8    A(8,3,9)              109.0235         calculate D2E/DX2 analytically  !
 ! A9    A(2,4,3)              112.1398         calculate D2E/DX2 analytically  !
 ! A10   A(2,4,6)              106.276          calculate D2E/DX2 analytically  !
 ! A11   A(2,4,7)              111.9882         calculate D2E/DX2 analytically  !
 ! A12   A(3,4,6)              108.0472         calculate D2E/DX2 analytically  !
 ! A13   A(3,4,7)              109.2477         calculate D2E/DX2 analytically  !
 ! A14   A(6,4,7)              108.9876         calculate D2E/DX2 analytically  !
 ! A15   A(1,10,11)            113.0952         calculate D2E/DX2 analytically  !
 ! D1    D(10,1,2,4)           -59.583          calculate D2E/DX2 analytically  !
 ! D2    D(2,1,10,11)          120.0258         calculate D2E/DX2 analytically  !
 ! D3    D(1,2,4,3)             80.2014         calculate D2E/DX2 analytically  !
 ! D4    D(1,2,4,6)           -161.9449         calculate D2E/DX2 analytically  !
 ! D5    D(1,2,4,7)            -43.0353         calculate D2E/DX2 analytically  !
 ! D6    D(5,3,4,2)            175.4067         calculate D2E/DX2 analytically  !
 ! D7    D(5,3,4,6)             58.6116         calculate D2E/DX2 analytically  !
 ! D8    D(5,3,4,7)            -59.8279         calculate D2E/DX2 analytically  !
 ! D9    D(8,3,4,2)            -64.2111         calculate D2E/DX2 analytically  !
 ! D10   D(8,3,4,6)            178.9938         calculate D2E/DX2 analytically  !
 ! D11   D(8,3,4,7)             60.5544         calculate D2E/DX2 analytically  !
 ! D12   D(9,3,4,2)             56.0379         calculate D2E/DX2 analytically  !
 ! D13   D(9,3,4,6)            -60.7572         calculate D2E/DX2 analytically  !
 ! D14   D(9,3,4,7)           -179.1967         calculate D2E/DX2 analytically  !
 --------------------------------------------------------------------------------
 Trust Radius=3.00D-01 FncErr=1.00D-07 GrdErr=1.00D-06 EigMax=2.50D+02 EigMin=1.00D-04
 Number of steps in this run=     49 maximum allowed number of steps=    100.
 GradGradGradGradGradGradGradGradGradGradGradGradGradGradGradGradGradGrad

 Leave Link  103 at Sat May 24 04:45:10 2025, MaxMem=  3758096384 cpu:               0.1 elap:               0.0
 (Enter /apps/easybuild-2022/easybuild/software/Compiler/NVHPC/22.11-CUDA-11.7.0/Gaussian/g16c01-CUDA-11.7.0/g16/l202.exe)
                          Input orientation:                          
 ---------------------------------------------------------------------
 Center     Atomic      Atomic             Coordinates (Angstroms)
 Number     Number       Type             X           Y           Z
 ---------------------------------------------------------------------
      1          6           0        0.000000    0.000000    0.000000
      2          8           0        1.358950    0.000000    0.000000
      3          6           0        2.050989    1.855485    1.412432
      4          6           0        1.997754    1.225588    0.000000
      5          9           0        2.757473    2.975092    1.369111
      6          9           0        3.246022    0.995170   -0.395559
      7          9           0        1.430635    2.080688   -0.838563
      8          9           0        0.834853    2.127548    1.850982
      9          9           0        2.634056    1.008982    2.251552
     10          8           0       -0.356834    0.628889    1.071186
     11          1           0       -0.894917    1.423587    0.887798
 ---------------------------------------------------------------------
                    Distance matrix (angstroms):
                    1          2          3          4          5
     1  C    0.000000
     2  O    1.358950   0.000000
     3  C    3.105534   2.432428   0.000000
     4  C    2.343734   1.382076   1.547439   0.000000
     5  F    4.281272   3.561109   1.324581   2.347850   0.000000
     6  F    3.418112   2.169763   2.331754   1.329561   2.696819
     7  F    2.660671   2.244458   2.345748   1.325145   2.726588
     8  F    2.941016   2.868322   1.321111   2.364743   2.155690
     9  F    3.609125   2.777305   1.326897   2.349741   2.158592
    10  O    1.292390   2.118220   2.723710   2.654727   3.910541
    11  H    1.901489   2.809751   3.023266   3.032315   3.997346
                    6          7          8          9         10
     6  F    0.000000
     7  F    2.161072   0.000000
     8  F    3.484676   2.755142   0.000000
     9  F    2.716963   3.485052   2.156103   0.000000
    10  O    3.907182   2.991640   2.067408   3.237770   0.000000
    11  H    4.356366   2.969898   2.101282   3.805965   0.977093
                   11
    11  H    0.000000
 Symmetry turned off by external request.
 Stoichiometry    C3HF5O2
 Rotational constants (GHZ):           1.8530743           1.4678531           1.1614564
 Leave Link  202 at Sat May 24 04:45:10 2025, MaxMem=  3758096384 cpu:               0.1 elap:               0.0
 (Enter /apps/easybuild-2022/easybuild/software/Compiler/NVHPC/22.11-CUDA-11.7.0/Gaussian/g16c01-CUDA-11.7.0/g16/l301.exe)
 Standard basis: def2TZVPP (5D, 7F)
 Ernie: Thresh=  0.10000D-02 Tol=  0.10000D-05 Strict=F.
   324 basis functions,   527 primitive gaussians,   375 cartesian basis functions
    40 alpha electrons       40 beta electrons
       nuclear repulsion energy       659.3581303676 Hartrees.
 IExCor= 4336 DFT=T Ex+Corr=M062X ExCW=0 ScaHFX=  0.540000
 ScaDFX=  1.000000  1.000000  1.000000  1.000000 ScalE2=  1.000000  1.000000
 IRadAn=      5 IRanWt=     -1 IRanGd=            0 ICorTp=0 IEmpDi=  4
 NAtoms=   11 NActive=   11 NUniq=   11 SFac= 1.00D+00 NAtFMM=   60 NAOKFM=F Big=F
 Integral buffers will be    131072 words long.
 Raffenetti 2 integral format.
 Two-electron integral symmetry is turned off.
 Leave Link  301 at Sat May 24 04:45:10 2025, MaxMem=  3758096384 cpu:               0.1 elap:               0.0
 (Enter /apps/easybuild-2022/easybuild/software/Compiler/NVHPC/22.11-CUDA-11.7.0/Gaussian/g16c01-CUDA-11.7.0/g16/l302.exe)
 NPDir=0 NMtPBC=     1 NCelOv=     1 NCel=       1 NClECP=     1 NCelD=      1
         NCelK=      1 NCelE2=     1 NClLst=     1 CellRange=     0.0.
 One-electron integrals computed using PRISM.
   1 Symmetry operations used in ECPInt.
 ECPInt:  NShTT=    6786 NPrTT=   21959 LenC2=    6537 LenP2D=   16225.
 LDataN:  DoStor=T MaxTD1= 6 Len=  172
 NBasis=   324 RedAO= T EigKep=  4.03D-04  NBF=   324
 NBsUse=   324 1.00D-06 EigRej= -1.00D+00 NBFU=   324
 Precomputing XC quadrature grid using
 IXCGrd= 4 IRadAn=           5 IRanWt=          -1 IRanGd=           0 AccXCQ= 0.00D+00.
 Generated NRdTot=       0 NPtTot=           0 NUsed=           0 NTot=          32
 NSgBfM=   373   373   373   373   373 MxSgAt=    11 MxSgA2=    11.
 Leave Link  302 at Sat May 24 04:45:10 2025, MaxMem=  3758096384 cpu:               0.9 elap:               0.2
 (Enter /apps/easybuild-2022/easybuild/software/Compiler/NVHPC/22.11-CUDA-11.7.0/Gaussian/g16c01-CUDA-11.7.0/g16/l303.exe)
 DipDrv:  MaxL=1.
 Leave Link  303 at Sat May 24 04:45:10 2025, MaxMem=  3758096384 cpu:               0.1 elap:               0.0
 (Enter /apps/easybuild-2022/easybuild/software/Compiler/NVHPC/22.11-CUDA-11.7.0/Gaussian/g16c01-CUDA-11.7.0/g16/l401.exe)
 ExpMin= 9.52D-02 ExpMax= 3.55D+04 ExpMxC= 1.21D+03 IAcc=3 IRadAn=         5 AccDes= 0.00D+00
 Harris functional with IExCor= 1009 and IRadAn=       5 diagonalized for initial guess.
 HarFok:  IExCor= 1009 AccDes= 0.00D+00 IRadAn=         5 IDoV= 1 UseB2=F ITyADJ=14
 ICtDFT=  3500011 ScaDFX=  1.000000  1.000000  1.000000  1.000000
 FoFCou: FMM=F IPFlag=           0 FMFlag=      100000 FMFlg1=           0
         NFxFlg=           0 DoJE=T BraDBF=F KetDBF=T FulRan=T
         wScrn=  0.000000 ICntrl=       500 IOpCl=  0 I1Cent=   200000004 NGrid=           0
         NMat0=    1 NMatS0=      1 NMatT0=    0 NMatD0=    1 NMtDS0=    0 NMtDT0=    0
 Symmetry not used in FoFCou.
 Harris En= -764.048338473405    
 JPrj=0 DoOrth=F DoCkMO=F.
 Leave Link  401 at Sat May 24 04:45:10 2025, MaxMem=  3758096384 cpu:               3.8 elap:               0.5
 (Enter /apps/easybuild-2022/easybuild/software/Compiler/NVHPC/22.11-CUDA-11.7.0/Gaussian/g16c01-CUDA-11.7.0/g16/l502.exe)
 Keep R1 ints in memory in canonical form, NReq=1412617130.
 FoFCou: FMM=F IPFlag=           0 FMFlag=           0 FMFlg1=           0
         NFxFlg=           0 DoJE=F BraDBF=F KetDBF=F FulRan=T
         wScrn=  0.000000 ICntrl=       600 IOpCl=  0 I1Cent=           0 NGrid=           0
         NMat0=    1 NMatS0=  52650 NMatT0=    0 NMatD0=    1 NMtDS0=    0 NMtDT0=    0
 Symmetry not used in FoFCou.
 Two-electron integral symmetry not used.
 Closed shell SCF:
 Using DIIS extrapolation, IDIIS=  1040.
 NGot=  3758096384 LenX=  2371771924 LenY=  2371630858
 Requested convergence on RMS density matrix=1.00D-08 within  32 cycles.
 Requested convergence on MAX density matrix=1.00D-06.
 Requested convergence on             energy=1.00D-06.
 No special actions if energy rises.
 Integral accuracy reduced to 1.0D-05 until final iterations.

 Cycle   1  Pass 0  IDiag  1:
 E= -764.382361686733    
 DIIS: error= 1.67D-02 at cycle   1 NSaved=   1.
 NSaved= 1 IEnMin= 1 EnMin= -764.382361686733     IErMin= 1 ErrMin= 1.67D-02
 ErrMax= 1.67D-02  0.00D+00 EMaxC= 1.00D-01 BMatC= 3.20D-01 BMatP= 3.20D-01
 IDIUse=3 WtCom= 8.33D-01 WtEn= 1.67D-01
 Coeff-Com:  0.100D+01
 Coeff-En:   0.100D+01
 Coeff:      0.100D+01
 Gap=     0.264 Goal=   None    Shift=    0.000
 GapD=    0.264 DampG=1.000 DampE=0.500 DampFc=0.5000 IDamp=-1.
 Damping current iteration by 5.00D-01
 RMSDP=1.87D-03 MaxDP=7.75D-02              OVMax= 9.44D-02

 Cycle   2  Pass 0  IDiag  1:
 E= -764.448007823542     Delta-E=       -0.065646136808 Rises=F Damp=T
 DIIS: error= 7.66D-03 at cycle   2 NSaved=   2.
 NSaved= 2 IEnMin= 2 EnMin= -764.448007823542     IErMin= 2 ErrMin= 7.66D-03
 ErrMax= 7.66D-03  0.00D+00 EMaxC= 1.00D-01 BMatC= 3.18D-02 BMatP= 3.20D-01
 IDIUse=3 WtCom= 9.23D-01 WtEn= 7.66D-02
 Coeff-Com: -0.366D-01 0.104D+01
 Coeff-En:   0.678D-01 0.932D+00
 Coeff:     -0.286D-01 0.103D+01
 Gap=     0.284 Goal=   None    Shift=    0.000
 RMSDP=5.88D-04 MaxDP=3.14D-02 DE=-6.56D-02 OVMax= 5.72D-02

 Cycle   3  Pass 0  IDiag  1:
 E= -764.525678738421     Delta-E=       -0.077670914879 Rises=F Damp=F
 DIIS: error= 2.46D-03 at cycle   3 NSaved=   3.
 NSaved= 3 IEnMin= 3 EnMin= -764.525678738421     IErMin= 3 ErrMin= 2.46D-03
 ErrMax= 2.46D-03  0.00D+00 EMaxC= 1.00D-01 BMatC= 5.86D-03 BMatP= 3.18D-02
 IDIUse=3 WtCom= 9.75D-01 WtEn= 2.46D-02
 Coeff-Com: -0.118D+00 0.254D+00 0.864D+00
 Coeff-En:   0.000D+00 0.000D+00 0.100D+01
 Coeff:     -0.115D+00 0.248D+00 0.868D+00
 Gap=     0.279 Goal=   None    Shift=    0.000
 RMSDP=1.64D-04 MaxDP=1.04D-02 DE=-7.77D-02 OVMax= 1.20D-02

 Cycle   4  Pass 0  IDiag  1:
 E= -764.529237629108     Delta-E=       -0.003558890686 Rises=F Damp=F
 DIIS: error= 5.40D-04 at cycle   4 NSaved=   4.
 NSaved= 4 IEnMin= 4 EnMin= -764.529237629108     IErMin= 4 ErrMin= 5.40D-04
 ErrMax= 5.40D-04  0.00D+00 EMaxC= 1.00D-01 BMatC= 2.39D-04 BMatP= 5.86D-03
 IDIUse=3 WtCom= 9.95D-01 WtEn= 5.40D-03
 Coeff-Com: -0.429D-01 0.808D-01 0.341D+00 0.621D+00
 Coeff-En:   0.000D+00 0.000D+00 0.000D+00 0.100D+01
 Coeff:     -0.426D-01 0.804D-01 0.339D+00 0.623D+00
 Gap=     0.279 Goal=   None    Shift=    0.000
 RMSDP=4.21D-05 MaxDP=4.19D-03 DE=-3.56D-03 OVMax= 3.70D-03

 Cycle   5  Pass 0  IDiag  1:
 E= -764.529410844535     Delta-E=       -0.000173215427 Rises=F Damp=F
 DIIS: error= 1.64D-04 at cycle   5 NSaved=   5.
 NSaved= 5 IEnMin= 5 EnMin= -764.529410844535     IErMin= 5 ErrMin= 1.64D-04
 ErrMax= 1.64D-04  0.00D+00 EMaxC= 1.00D-01 BMatC= 2.42D-05 BMatP= 2.39D-04
 IDIUse=3 WtCom= 9.98D-01 WtEn= 1.64D-03
 Coeff-Com: -0.101D-01 0.168D-01 0.819D-01 0.271D+00 0.641D+00
 Coeff-En:   0.000D+00 0.000D+00 0.000D+00 0.000D+00 0.100D+01
 Coeff:     -0.101D-01 0.168D-01 0.818D-01 0.270D+00 0.641D+00
 Gap=     0.279 Goal=   None    Shift=    0.000
 RMSDP=9.23D-06 MaxDP=4.23D-04 DE=-1.73D-04 OVMax= 9.75D-04

 Initial convergence to 1.0D-05 achieved.  Increase integral accuracy.
 Cycle   6  Pass 1  IDiag  1:
 E= -764.529376535625     Delta-E=        0.000034308910 Rises=F Damp=F
 DIIS: error= 5.79D-05 at cycle   1 NSaved=   1.
 NSaved= 1 IEnMin= 1 EnMin= -764.529376535625     IErMin= 1 ErrMin= 5.79D-05
 ErrMax= 5.79D-05  0.00D+00 EMaxC= 1.00D-01 BMatC= 2.74D-06 BMatP= 2.74D-06
 IDIUse=1 WtCom= 1.00D+00 WtEn= 0.00D+00
 Coeff-Com:  0.100D+01
 Coeff:      0.100D+01
 Gap=     0.279 Goal=   None    Shift=    0.000
 RMSDP=9.23D-06 MaxDP=4.23D-04 DE= 3.43D-05 OVMax= 5.12D-04

 Cycle   7  Pass 1  IDiag  1:
 E= -764.529376642739     Delta-E=       -0.000000107115 Rises=F Damp=F
 DIIS: error= 5.82D-05 at cycle   2 NSaved=   2.
 NSaved= 2 IEnMin= 2 EnMin= -764.529376642739     IErMin= 1 ErrMin= 5.79D-05
 ErrMax= 5.82D-05  0.00D+00 EMaxC= 1.00D-01 BMatC= 2.95D-06 BMatP= 2.74D-06
 IDIUse=1 WtCom= 1.00D+00 WtEn= 0.00D+00
 Coeff-Com:  0.510D+00 0.490D+00
 Coeff:      0.510D+00 0.490D+00
 Gap=     0.279 Goal=   None    Shift=    0.000
 RMSDP=2.85D-06 MaxDP=1.62D-04 DE=-1.07D-07 OVMax= 3.20D-04

 Cycle   8  Pass 1  IDiag  1:
 E= -764.529378482771     Delta-E=       -0.000001840031 Rises=F Damp=F
 DIIS: error= 7.04D-06 at cycle   3 NSaved=   3.
 NSaved= 3 IEnMin= 3 EnMin= -764.529378482771     IErMin= 3 ErrMin= 7.04D-06
 ErrMax= 7.04D-06  0.00D+00 EMaxC= 1.00D-01 BMatC= 7.37D-08 BMatP= 2.74D-06
 IDIUse=1 WtCom= 1.00D+00 WtEn= 0.00D+00
 Coeff-Com:  0.297D-01 0.135D+00 0.835D+00
 Coeff:      0.297D-01 0.135D+00 0.835D+00
 Gap=     0.279 Goal=   None    Shift=    0.000
 RMSDP=8.77D-07 MaxDP=5.15D-05 DE=-1.84D-06 OVMax= 7.26D-05

 Cycle   9  Pass 1  IDiag  1:
 E= -764.529378534886     Delta-E=       -0.000000052115 Rises=F Damp=F
 DIIS: error= 3.71D-06 at cycle   4 NSaved=   4.
 NSaved= 4 IEnMin= 4 EnMin= -764.529378534886     IErMin= 4 ErrMin= 3.71D-06
 ErrMax= 3.71D-06  0.00D+00 EMaxC= 1.00D-01 BMatC= 1.23D-08 BMatP= 7.37D-08
 IDIUse=1 WtCom= 1.00D+00 WtEn= 0.00D+00
 Coeff-Com: -0.364D-01 0.151D-01 0.373D+00 0.648D+00
 Coeff:     -0.364D-01 0.151D-01 0.373D+00 0.648D+00
 Gap=     0.279 Goal=   None    Shift=    0.000
 RMSDP=3.08D-07 MaxDP=2.35D-05 DE=-5.21D-08 OVMax= 2.58D-05

 Cycle  10  Pass 1  IDiag  1:
 E= -764.529378544824     Delta-E=       -0.000000009938 Rises=F Damp=F
 DIIS: error= 8.25D-07 at cycle   5 NSaved=   5.
 NSaved= 5 IEnMin= 5 EnMin= -764.529378544824     IErMin= 5 ErrMin= 8.25D-07
 ErrMax= 8.25D-07  0.00D+00 EMaxC= 1.00D-01 BMatC= 6.27D-10 BMatP= 1.23D-08
 IDIUse=1 WtCom= 1.00D+00 WtEn= 0.00D+00
 Coeff-Com: -0.144D-01-0.360D-02 0.661D-01 0.201D+00 0.750D+00
 Coeff:     -0.144D-01-0.360D-02 0.661D-01 0.201D+00 0.750D+00
 Gap=     0.279 Goal=   None    Shift=    0.000
 RMSDP=7.50D-08 MaxDP=3.23D-06 DE=-9.94D-09 OVMax= 8.86D-06

 Cycle  11  Pass 1  IDiag  1:
 E= -764.529378545422     Delta-E=       -0.000000000598 Rises=F Damp=F
 DIIS: error= 3.59D-07 at cycle   6 NSaved=   6.
 NSaved= 6 IEnMin= 6 EnMin= -764.529378545422     IErMin= 6 ErrMin= 3.59D-07
 ErrMax= 3.59D-07  0.00D+00 EMaxC= 1.00D-01 BMatC= 1.19D-10 BMatP= 6.27D-10
 IDIUse=1 WtCom= 1.00D+00 WtEn= 0.00D+00
 Coeff-Com:  0.167D-02-0.383D-02-0.485D-01-0.558D-01 0.277D+00 0.830D+00
 Coeff:      0.167D-02-0.383D-02-0.485D-01-0.558D-01 0.277D+00 0.830D+00
 Gap=     0.279 Goal=   None    Shift=    0.000
 RMSDP=3.44D-08 MaxDP=1.15D-06 DE=-5.98D-10 OVMax= 5.93D-06

 Cycle  12  Pass 1  IDiag  1:
 E= -764.529378545551     Delta-E=       -0.000000000130 Rises=F Damp=F
 DIIS: error= 9.48D-08 at cycle   7 NSaved=   7.
 NSaved= 7 IEnMin= 7 EnMin= -764.529378545551     IErMin= 7 ErrMin= 9.48D-08
 ErrMax= 9.48D-08  0.00D+00 EMaxC= 1.00D-01 BMatC= 5.28D-12 BMatP= 1.19D-10
 IDIUse=1 WtCom= 1.00D+00 WtEn= 0.00D+00
 Coeff-Com:  0.122D-02-0.641D-03-0.158D-01-0.252D-01 0.256D-01 0.209D+00
 Coeff-Com:  0.805D+00
 Coeff:      0.122D-02-0.641D-03-0.158D-01-0.252D-01 0.256D-01 0.209D+00
 Coeff:      0.805D+00
 Gap=     0.279 Goal=   None    Shift=    0.000
 RMSDP=1.04D-08 MaxDP=5.26D-07 DE=-1.30D-10 OVMax= 1.72D-06

 Cycle  13  Pass 1  IDiag  1:
 E= -764.529378545524     Delta-E=        0.000000000027 Rises=F Damp=F
 DIIS: error= 3.18D-08 at cycle   8 NSaved=   8.
 NSaved= 8 IEnMin= 7 EnMin= -764.529378545551     IErMin= 8 ErrMin= 3.18D-08
 ErrMax= 3.18D-08  0.00D+00 EMaxC= 1.00D-01 BMatC= 6.30D-13 BMatP= 5.28D-12
 IDIUse=1 WtCom= 1.00D+00 WtEn= 0.00D+00
 Coeff-Com: -0.654D-04 0.516D-03 0.494D-02 0.377D-02-0.362D-01-0.860D-01
 Coeff-Com:  0.148D+00 0.965D+00
 Coeff:     -0.654D-04 0.516D-03 0.494D-02 0.377D-02-0.362D-01-0.860D-01
 Coeff:      0.148D+00 0.965D+00
 Gap=     0.279 Goal=   None    Shift=    0.000
 RMSDP=4.62D-09 MaxDP=1.69D-07 DE= 2.68D-11 OVMax= 1.08D-06

 SCF Done:  E(RM062X) =  -764.529378546     A.U. after   13 cycles
            NFock= 13  Conv=0.46D-08     -V/T= 2.0032
 KE= 7.621088720519D+02 PE=-3.130694279456D+03 EE= 9.446978984912D+02
 Leave Link  502 at Sat May 24 04:45:39 2025, MaxMem=  3758096384 cpu:             120.2 elap:              28.4
 (Enter /apps/easybuild-2022/easybuild/software/Compiler/NVHPC/22.11-CUDA-11.7.0/Gaussian/g16c01-CUDA-11.7.0/g16/l508.exe)
 QCSCF skips out because SCF is already converged.
 Leave Link  508 at Sat May 24 04:45:39 2025, MaxMem=  3758096384 cpu:               0.0 elap:               0.0
 (Enter /apps/easybuild-2022/easybuild/software/Compiler/NVHPC/22.11-CUDA-11.7.0/Gaussian/g16c01-CUDA-11.7.0/g16/l801.exe)
 DoSCS=F DFT=T ScalE2(SS,OS)=  1.000000  1.000000
 Range of M.O.s used for correlation:     1   324
 NBasis=   324 NAE=    40 NBE=    40 NFC=     0 NFV=     0
 NROrb=    324 NOA=    40 NOB=    40 NVA=   284 NVB=   284

 **** Warning!!: The largest alpha MO coefficient is  0.10920982D+02

 Leave Link  801 at Sat May 24 04:45:39 2025, MaxMem=  3758096384 cpu:               0.0 elap:               0.0
 (Enter /apps/easybuild-2022/easybuild/software/Compiler/NVHPC/22.11-CUDA-11.7.0/Gaussian/g16c01-CUDA-11.7.0/g16/l1101.exe)
 Using compressed storage, NAtomX=    11.
 Will process     12 centers per pass.
   1 Symmetry operations used in ECPInt.
 ECPInt:  NShTT=    6786 NPrTT=   21959 LenC2=    6537 LenP2D=   16225.
 LDataN:  DoStor=T MaxTD1= 7 Len=  274
 Leave Link 1101 at Sat May 24 04:45:39 2025, MaxMem=  3758096384 cpu:               1.4 elap:               0.4
 (Enter /apps/easybuild-2022/easybuild/software/Compiler/NVHPC/22.11-CUDA-11.7.0/Gaussian/g16c01-CUDA-11.7.0/g16/l1102.exe)
 Symmetrizing basis deriv contribution to polar:
 IMax=3 JMax=2 DiffMx= 0.00D+00
 Leave Link 1102 at Sat May 24 04:45:39 2025, MaxMem=  3758096384 cpu:               0.1 elap:               0.0
 (Enter /apps/easybuild-2022/easybuild/software/Compiler/NVHPC/22.11-CUDA-11.7.0/Gaussian/g16c01-CUDA-11.7.0/g16/l1110.exe)
 Forming Gx(P) for the SCF density, NAtomX=    11.
 Integral derivatives from FoFJK, PRISM(SPDF).
 Do as many integral derivatives as possible in FoFJK.
 G2DrvN: MDV=    3758095115.
 G2DrvN: will do    12 centers at a time, making    1 passes.
 Calling FoFCou, ICntrl=  3107 FMM=F I1Cent=   0 AccDes= 0.00D+00.
 FoFJK:  IHMeth= 1 ICntrl=    3107 DoSepK=F KAlg= 0 I1Cent=           0 FoldK=F
 IRaf=         0 NMat=       1 IRICut=       1 DoRegI=T DoRafI=F ISym2E= 0 IDoP0=0 IntGTp=1.
 FoFCou: FMM=F IPFlag=           0 FMFlag=      100000 FMFlg1=           0
         NFxFlg=           0 DoJE=F BraDBF=F KetDBF=F FulRan=T
         wScrn=  0.000000 ICntrl=      3107 IOpCl=  0 I1Cent=           0 NGrid=           0
         NMat0=    1 NMatS0=      1 NMatT0=    0 NMatD0=    1 NMtDS0=    0 NMtDT0=    0
 Symmetry not used in FoFCou.
 End of G2Drv F.D. properties file   721 does not exist.
 End of G2Drv F.D. properties file   722 does not exist.
 End of G2Drv F.D. properties file   788 does not exist.
 Leave Link 1110 at Sat May 24 04:46:26 2025, MaxMem=  3758096384 cpu:             364.8 elap:              46.5
 (Enter /apps/easybuild-2022/easybuild/software/Compiler/NVHPC/22.11-CUDA-11.7.0/Gaussian/g16c01-CUDA-11.7.0/g16/l1002.exe)
 Minotr:  Closed shell wavefunction.
          IDoAtm=11111111111
          Direct CPHF calculation.
          Differentiating once with respect to nuclear coordinates.
          Requested convergence is 1.0D-08 RMS, and 1.0D-07 maximum.
          Secondary convergence is 1.0D-12 RMS, and 1.0D-12 maximum.
          NewPWx=T KeepS1=F KeepF1=F KeepIn=T MapXYZ=F SortEE=F KeepMc=T.
         3293 words used for storage of precomputed grid.
 Keep R1 ints in memory in canonical form, NReq=1412622523.
 FoFCou: FMM=F IPFlag=           0 FMFlag=           0 FMFlg1=           0
         NFxFlg=           0 DoJE=F BraDBF=F KetDBF=F FulRan=T
         wScrn=  0.000000 ICntrl=       600 IOpCl=  0 I1Cent=           0 NGrid=           0
         NMat0=    1 NMatS0=  52650 NMatT0=    0 NMatD0=    1 NMtDS0=    0 NMtDT0=    0
 Symmetry not used in FoFCou.
 Two-electron integral symmetry not used.
          MDV=    3758096384 using IRadAn=       1.
          Solving linear equations simultaneously, MaxMat=       0.
          There are    36 degrees of freedom in the 1st order CPHF.  IDoFFX=6 NUNeed=     0.
     30 vectors produced by pass  0 Test12= 3.16D-14 2.78D-09 XBig12= 1.14D-01 2.22D-01.
 AX will form    30 AO Fock derivatives at one time.
     30 vectors produced by pass  1 Test12= 3.16D-14 2.78D-09 XBig12= 1.61D-02 3.24D-02.
     30 vectors produced by pass  2 Test12= 3.16D-14 2.78D-09 XBig12= 8.75D-04 4.75D-03.
     30 vectors produced by pass  3 Test12= 3.16D-14 2.78D-09 XBig12= 1.41D-05 4.85D-04.
     30 vectors produced by pass  4 Test12= 3.16D-14 2.78D-09 XBig12= 1.72D-07 6.04D-05.
     30 vectors produced by pass  5 Test12= 3.16D-14 2.78D-09 XBig12= 1.66D-09 6.72D-06.
     30 vectors produced by pass  6 Test12= 3.16D-14 2.78D-09 XBig12= 1.24D-11 5.12D-07.
     16 vectors produced by pass  7 Test12= 3.16D-14 2.78D-09 XBig12= 6.94D-14 3.28D-08.
 InvSVY:  IOpt=1 It=  1 EMax= 1.11D-15
 Solved reduced A of dimension   226 with    30 vectors.
 End of Minotr F.D. properties file   721 does not exist.
 End of Minotr F.D. properties file   722 does not exist.
 End of Minotr F.D. properties file   788 does not exist.
 Leave Link 1002 at Sat May 24 04:47:31 2025, MaxMem=  3758096384 cpu:             502.1 elap:              65.5
 (Enter /apps/easybuild-2022/easybuild/software/Compiler/NVHPC/22.11-CUDA-11.7.0/Gaussian/g16c01-CUDA-11.7.0/g16/l701.exe)
 ... and contract with generalized density number  0.
 Compute integral second derivatives.
   1 Symmetry operations used in ECPInt.
 ECPInt:  NShTT=    6786 NPrTT=   21959 LenC2=    6537 LenP2D=   16225.
 LDataN:  DoStor=T MaxTD1= 8 Len=  415
 Leave Link  701 at Sat May 24 04:47:32 2025, MaxMem=  3758096384 cpu:               1.5 elap:               0.4
 (Enter /apps/easybuild-2022/easybuild/software/Compiler/NVHPC/22.11-CUDA-11.7.0/Gaussian/g16c01-CUDA-11.7.0/g16/l702.exe)
 L702 exits ... SP integral derivatives will be done elsewhere.
 Leave Link  702 at Sat May 24 04:47:32 2025, MaxMem=  3758096384 cpu:               0.0 elap:               0.0
 (Enter /apps/easybuild-2022/easybuild/software/Compiler/NVHPC/22.11-CUDA-11.7.0/Gaussian/g16c01-CUDA-11.7.0/g16/l703.exe)
 Integral derivatives from FoFJK, PRISM(SPDF).
 Compute integral second derivatives, UseDBF=F ICtDFT=           0.
 Calling FoFJK, ICntrl=    100127 FMM=F ISym2X=0 I1Cent= 0 IOpClX= 0 NMat=1 NMatS=1 NMatT=0.
 FoFJK:  IHMeth= 1 ICntrl=  100127 DoSepK=F KAlg= 0 I1Cent=           0 FoldK=F
 IRaf=         0 NMat=       1 IRICut=       1 DoRegI=T DoRafI=F ISym2E= 0 IDoP0=0 IntGTp=1.
 FoFCou: FMM=F IPFlag=           0 FMFlag=      100000 FMFlg1=         800
         NFxFlg=           0 DoJE=F BraDBF=F KetDBF=F FulRan=T
         wScrn=  0.000000 ICntrl=    100127 IOpCl=  0 I1Cent=           0 NGrid=           0
         NMat0=    1 NMatS0=      1 NMatT0=    0 NMatD0=    1 NMtDS0=    0 NMtDT0=    0
 Symmetry not used in FoFCou.
 Leave Link  703 at Sat May 24 04:49:15 2025, MaxMem=  3758096384 cpu:             798.8 elap:             102.9
 (Enter /apps/easybuild-2022/easybuild/software/Compiler/NVHPC/22.11-CUDA-11.7.0/Gaussian/g16c01-CUDA-11.7.0/g16/l716.exe)
 Dipole        =-5.17445006D-01 7.23698878D-01 3.25936228D-01
 Polarizability= 0.00000000D+00 0.00000000D+00 0.00000000D+00
                 0.00000000D+00 0.00000000D+00 0.00000000D+00
 -------------------------------------------------------------------
 Center     Atomic                   Forces (Hartrees/Bohr)
 Number     Number              X              Y              Z
 -------------------------------------------------------------------
      1        6          -0.012057899   -0.016769207   -0.019912953
      2        8           0.013041186   -0.001948910   -0.017573012
      3        6           0.006970412   -0.000756710    0.000267838
      4        6           0.011890029   -0.018310299    0.020393563
      5        9           0.000510505    0.002426414    0.000661398
      6        9          -0.002033351    0.002943001    0.000098135
      7        9          -0.005780109    0.004824311   -0.004875961
      8        9           0.030137470    0.044174407    0.023088517
      9        9          -0.001920830    0.002005362   -0.001581109
     10        8          -0.028939242    0.001971343   -0.003874832
     11        1          -0.011818172   -0.020559713    0.003308416
 -------------------------------------------------------------------
 Cartesian Forces:  Max     0.044174407 RMS     0.014750508
 Force constants in Cartesian coordinates: 
                1             2             3             4             5 
      1  0.372019D+00
      2  0.343398D-01  0.136765D+00
      3 -0.166634D-01  0.243925D+00  0.387462D+00
      4 -0.238642D+00 -0.334864D-01 -0.308443D-01  0.456728D+00
      5 -0.248668D-01 -0.376169D-01 -0.380728D-01  0.611305D-01  0.317968D+00
      6 -0.156665D-01 -0.533595D-01 -0.453728D-01 -0.729352D-01  0.418980D-01
      7  0.177176D-01 -0.125178D-01 -0.159140D-01 -0.173393D-01 -0.220499D-01
      8 -0.961759D-02  0.736817D-03 -0.222034D-02 -0.527719D-02 -0.277578D-01
      9 -0.185332D-01  0.431155D-02  0.998917D-02  0.176964D-01  0.142958D-01
     10 -0.589253D-01 -0.182830D-01 -0.313966D-02 -0.900657D-01 -0.403240D-01
     11 -0.697600D-01  0.236093D-01  0.143884D-01 -0.733510D-02 -0.189106D+00
     12 -0.140762D-01  0.911072D-02 -0.731802D-02  0.278353D-02 -0.279597D-01
     13 -0.657976D-03  0.128600D-02  0.118765D-02  0.533826D-03 -0.252053D-02
     14  0.421644D-02 -0.297858D-03 -0.107189D-02 -0.453023D-02 -0.697287D-02
     15  0.532085D-02 -0.155537D-02 -0.295922D-02 -0.614968D-02 -0.858357D-02
     16  0.138623D-01 -0.400425D-02 -0.361116D-02 -0.762985D-01 -0.334787D-01
     17  0.595639D-02 -0.382739D-02 -0.281882D-02 -0.567700D-01 -0.148008D-02
     18 -0.768773D-03 -0.836922D-03  0.186034D-02  0.110283D-01  0.592562D-02
     19 -0.451717D-02 -0.256511D-02  0.273418D-02  0.207915D-01 -0.341784D-03
     20  0.202172D-01 -0.946548D-02 -0.292749D-02 -0.149971D-01 -0.595479D-01
     21 -0.691596D-02  0.270720D-02  0.149938D-02  0.108912D-01  0.245637D-01
     22 -0.190542D-01  0.861222D-02  0.784161D-02  0.167175D-01  0.463915D-02
     23 -0.619321D-02  0.901352D-03 -0.358479D-03  0.219152D-02  0.245432D-02
     24  0.213364D-03  0.165222D-03 -0.224091D-02 -0.536423D-02 -0.236846D-02
     25 -0.196819D-02  0.138265D-02  0.162509D-02  0.253510D-02  0.537304D-03
     26  0.282103D-02 -0.188900D-02 -0.102207D-02 -0.247351D-02  0.479934D-02
     27  0.365694D-02 -0.330872D-03 -0.157481D-02 -0.292782D-02 -0.504457D-02
     28 -0.607513D-01  0.582384D-02  0.566204D-01 -0.754414D-01  0.583194D-01
     29  0.283735D-01 -0.107223D+00 -0.212728D+00  0.699017D-01  0.363940D-02
     30  0.408893D-01 -0.191137D+00 -0.334847D+00  0.725017D-01  0.882127D-03
     31 -0.190822D-01  0.194121D-01  0.163547D-03  0.481122D-03 -0.104456D-02
     32  0.145134D-01 -0.169339D-02  0.290617D-02 -0.835408D-02 -0.637981D-02
     33  0.225436D-01 -0.130004D-01 -0.649765D-02  0.332011D-02 -0.553623D-02
                6             7             8             9            10 
      6  0.999477D-01
      7 -0.171953D-01  0.603560D+00
      8 -0.166138D-01  0.675397D-03  0.604583D+00
      9  0.974674D-02  0.283793D-03  0.171864D-01  0.632048D+00
     10  0.783921D-02 -0.408833D-01 -0.394783D-02 -0.545353D-02  0.599583D+00
     11 -0.112042D-01 -0.302225D-02 -0.688580D-01 -0.681842D-01 -0.318941D-01
     12 -0.678772D-01 -0.688140D-02 -0.706351D-01 -0.187936D+00 -0.366495D-02
     13 -0.332962D-02 -0.139370D+00 -0.110267D+00 -0.152293D-01 -0.960082D-02
     14 -0.851779D-02 -0.106799D+00 -0.257009D+00 -0.275795D-01 -0.247888D-01
     15 -0.628472D-02 -0.885664D-02 -0.168133D-01 -0.865986D-01 -0.161530D-01
     16  0.159330D-01 -0.331041D-01  0.286361D-02  0.405269D-02 -0.264519D+00
     17  0.139008D-01  0.196983D-01 -0.107265D-02 -0.316829D-02  0.427649D-01
     18  0.817696D-02  0.415027D-01 -0.375972D-02 -0.404689D-02  0.811127D-01
     19  0.750383D-02 -0.521488D-02  0.130241D-01 -0.727003D-02 -0.111704D+00
     20  0.334176D-01  0.385057D-02 -0.656105D-02  0.410798D-02  0.602455D-01
     21  0.390054D-02 -0.242582D-01  0.419235D-01 -0.220414D-01 -0.701278D-01
     22  0.506114D-02 -0.261293D+00  0.575260D-01  0.969394D-01 -0.280410D-01
     23  0.349993D-02  0.489522D-01 -0.861580D-01 -0.275389D-01  0.210740D-01
     24  0.193312D-02  0.879986D-01 -0.295577D-01 -0.132311D+00  0.408965D-01
     25  0.241469D-03 -0.118149D+00  0.540457D-01 -0.743312D-01 -0.589318D-02
     26 -0.231069D-02  0.566051D-01 -0.151741D+00  0.956841D-01  0.433793D-02
     27 -0.515068D-03 -0.703963D-01  0.829759D-01 -0.208175D+00 -0.235175D-01
     28  0.610391D-01 -0.117066D-03  0.280290D-03  0.203181D-02  0.144548D-01
     29 -0.433562D-02  0.187097D-01 -0.879589D-02 -0.106697D-01 -0.941238D-02
     30 -0.204094D-02  0.176875D-01 -0.416886D-02 -0.133060D-01 -0.963910D-02
     31  0.115088D-01 -0.580684D-02  0.694550D-03 -0.186744D-03 -0.440636D-02
     32  0.362518D-02 -0.410255D-02  0.263396D-02  0.155483D-02  0.227681D-03
     33 -0.161428D-02 -0.397085D-02  0.168296D-02  0.263187D-02  0.184716D-02
               11            12            13            14            15 
     11  0.531158D+00
     12  0.728002D-03  0.607573D+00
     13 -0.164951D-01  0.631954D-02  0.187999D+00
     14 -0.318971D-01  0.115227D-01  0.168299D+00  0.348185D+00
     15 -0.226831D-01  0.762791D-02 -0.630291D-02 -0.114705D-01  0.735014D-01
     16  0.491778D-01  0.902320D-01  0.596708D-02  0.232249D-02 -0.172144D-03
     17 -0.826393D-01 -0.235196D-01  0.142040D-02  0.199020D-02 -0.472270D-03
     18 -0.219708D-01 -0.122000D+00 -0.248231D-02 -0.159637D-02 -0.307200D-03
     19  0.496796D-01 -0.717811D-01  0.138602D-02  0.353555D-03  0.460508D-03
     20 -0.156543D+00  0.107551D+00  0.834331D-03  0.556297D-02 -0.979244D-03
     21  0.931964D-01 -0.211187D+00 -0.986083D-04 -0.521718D-02  0.545545D-03
     22 -0.180894D-02 -0.148082D-02 -0.656494D-01 -0.301411D-01  0.221877D-01
     23  0.924202D-03 -0.231207D-02 -0.425457D-01  0.782651D-02  0.149764D-01
     24 -0.232851D-02 -0.671835D-03  0.164051D-01  0.100059D-01  0.971678D-02
     25  0.125478D-01 -0.726813D-02  0.186743D-01 -0.852322D-02  0.104224D-01
     26 -0.558779D-02  0.210043D-02  0.272056D-02 -0.675602D-01  0.445673D-01
     27  0.396909D-01 -0.198776D-01  0.506331D-02  0.321502D-01  0.126834D-02
     28  0.178284D-01  0.668669D-02 -0.511126D-03 -0.126690D-02 -0.684631D-03
     29 -0.258640D-01 -0.532453D-02 -0.323493D-02  0.697080D-03  0.349370D-02
     30 -0.205379D-01  0.903229D-05 -0.250028D-02  0.151599D-02  0.410944D-02
     31  0.108188D-02 -0.869149D-03  0.122879D-02  0.857090D-03 -0.724892D-04
     32  0.480390D-02 -0.126225D-02  0.502508D-03 -0.524279D-03 -0.479998D-03
     33 -0.109483D-02  0.165893D-02  0.967468D-03  0.258470D-03 -0.619629D-03
               16            17            18            19            20 
     16  0.402371D+00
     17 -0.571358D-01  0.954891D-01
     18 -0.105484D+00  0.169786D-01  0.109378D+00
     19 -0.531099D-01  0.451801D-01 -0.282439D-01  0.146737D+00
     20  0.370762D-01 -0.109719D-01  0.103351D-01 -0.101309D+00  0.228931D+00
     21 -0.130963D-01  0.371866D-02  0.182968D-01  0.103594D+00 -0.157690D+00
     22  0.921952D-04  0.319959D-02  0.586029D-02  0.488955D-02 -0.119405D-02
     23  0.281991D-02 -0.179662D-02 -0.591008D-02 -0.312884D-02  0.221921D-02
     24  0.595274D-02 -0.548537D-02 -0.109253D-01 -0.174297D-02 -0.609437D-03
     25  0.540303D-02 -0.272921D-02 -0.745078D-03  0.148427D-03 -0.590933D-03
     26 -0.192867D-02  0.199335D-02 -0.447228D-03 -0.408483D-03  0.202165D-02
     27  0.226148D-02 -0.232796D-02 -0.515800D-03 -0.353131D-02 -0.587230D-03
     28 -0.136488D-02 -0.923871D-03 -0.123672D-02 -0.572980D-03 -0.407187D-02
     29  0.310840D-02  0.336272D-02  0.127953D-02 -0.122633D-02  0.623915D-02
     30  0.444492D-02  0.318821D-02  0.461752D-03 -0.954762D-03  0.696414D-02
     31  0.701044D-03 -0.660776D-03 -0.542921D-03  0.116575D-02 -0.608409D-04
     32 -0.820897D-03 -0.104737D-02  0.221990D-05  0.742094D-03 -0.188544D-02
     33 -0.513064D-03  0.607466D-05 -0.378144D-03 -0.768507D-03  0.416722D-03
               21            22            23            24            25 
     21  0.226255D+00
     22  0.297110D-02  0.432227D+00
     23 -0.281797D-02 -0.134886D-01  0.142620D+00
     24  0.353510D-03 -0.871542D-01  0.555596D-01  0.119251D+00
     25 -0.361259D-02 -0.551456D-01  0.465756D-01 -0.262776D-01  0.153145D+00
     26 -0.181340D-03  0.409126D-01 -0.139639D-01  0.110402D-01 -0.101603D+00
     27 -0.150394D-01 -0.115841D-01  0.341649D-02  0.197585D-01  0.101221D+00
     28  0.740569D-03 -0.251881D-01 -0.537486D-01 -0.285338D-01  0.128789D-03
     29 -0.891231D-03 -0.664405D-01 -0.510127D-01 -0.322804D-01 -0.267433D-02
     30 -0.175025D-02 -0.409579D-01 -0.360257D-01 -0.198937D-02 -0.203108D-02
     31 -0.874718D-04  0.444462D-03 -0.250838D-02 -0.239339D-02  0.112162D-02
     32  0.687886D-03 -0.181634D-02 -0.401422D-02 -0.414110D-02  0.103131D-02
     33 -0.832662D-03  0.315796D-03 -0.248931D-02 -0.287419D-02  0.755652D-03
               26            27            28            29            30 
     26  0.229491D+00
     27 -0.150622D+00  0.223163D+00
     28 -0.172009D-03 -0.110483D-02  0.286518D+00
     29  0.354448D-02  0.271858D-03 -0.245462D+00  0.484479D+00
     30  0.185680D-02  0.165477D-02 -0.320410D-01  0.187265D+00  0.385245D+00
     31 -0.811817D-03  0.858975D-03 -0.137155D+00  0.208357D+00 -0.473993D-01
     32 -0.110801D-02  0.407179D-03  0.223394D+00 -0.309067D+00  0.501974D-01
     33 -0.665559D-03 -0.146171D-03 -0.635175D-01  0.739196D-01 -0.375459D-01
               31            32            33 
     31  0.161308D+00
     32 -0.225317D+00  0.318281D+00
     33  0.390201D-01 -0.534975D-01  0.462178D-01
 FormGI is forming the generalized inverse of G from B-inverse, IUseBI=4.
 Force constants in internal coordinates: 
                1             2             3             4             5 
      1  0.385938D+00
      2  0.575897D-01  0.567838D+00
      3  0.118317D+00 -0.828470D-01  0.465719D+00
      4  0.637170D-01 -0.386428D-01  0.968393D-01  0.325583D+00
      5 -0.307725D-02 -0.200172D-03  0.705341D-02  0.174281D-01  0.454930D+00
      6 -0.172823D-01  0.420194D-01 -0.242889D-01 -0.148020D-01  0.585561D-01
      7 -0.657467D-03 -0.148354D-02  0.484855D-02  0.163895D-01  0.563618D-01
      8 -0.123782D-01  0.321065D-02  0.548687D-01  0.188380D-01  0.520997D-02
      9 -0.160494D-01  0.836894D-02  0.552961D-01  0.177999D-01  0.573625D-02
     10 -0.778504D-02  0.940050D-02  0.127027D-03 -0.147367D-02 -0.100412D-02
     11  0.204835D+00 -0.634671D-01  0.183345D+00  0.162479D+00 -0.123700D-02
     12  0.261617D+00 -0.243409D+00  0.381449D+00  0.271314D+00  0.106508D-02
     13 -0.369396D-01  0.310251D-01 -0.239587D-01 -0.112506D-01  0.165670D-01
     14  0.124187D+00 -0.957060D-01  0.169973D+00  0.118101D+00 -0.274422D-01
     15 -0.185826D-01  0.141158D-01 -0.231366D-01  0.874072D-02 -0.282521D-01
     16 -0.532230D-01  0.397799D-01 -0.799194D-01 -0.662492D-01  0.182903D-01
     17  0.657454D-02 -0.515112D-02 -0.143061D-02 -0.150221D-01  0.191405D-01
     18 -0.234929D-01  0.170563D-01 -0.439286D-01 -0.364074D-01  0.250320D-02
     19  0.203854D+00 -0.177872D+00  0.279044D+00  0.194146D+00  0.199391D-01
     20 -0.803852D-01  0.687781D-01 -0.671218D-01 -0.812661D-01 -0.481696D-02
     21 -0.594271D-01  0.521321D-01 -0.552371D-01 -0.599464D-01 -0.400932D-02
     22 -0.648290D-01  0.644724D-01 -0.138245D+00 -0.563732D-01 -0.485134D-02
     23 -0.226589D-01  0.128896D-01 -0.499758D-01 -0.109846D-01 -0.621401D-02
     24  0.176461D-01 -0.147370D-01  0.221519D-01  0.839079D-02 -0.476641D-03
     25 -0.972288D-04  0.466729D-01 -0.476867D-02 -0.369753D-02  0.115091D-02
     26 -0.543494D-01  0.805241D-01 -0.116449D+00 -0.950699D-01 -0.448026D-02
     27  0.190805D-01  0.306526D-01  0.803419D-02  0.697628D-02 -0.177711D-02
     28  0.638601D-01 -0.756560D-01  0.121397D+00  0.735939D-01 -0.652650D-03
     29  0.472043D-01 -0.523979D-01  0.650920D-01  0.613307D-01  0.139131D-02
     30 -0.144932D-01  0.154484D-02  0.194509D-01 -0.124362D-01 -0.441697D-02
     31 -0.411815D-01  0.377418D-01 -0.541827D-01 -0.387320D-01 -0.118069D-02
     32 -0.191075D-01  0.152395D-01 -0.456556D-01 -0.152894D-01 -0.366459D-02
     33  0.961726D-02 -0.112982D-01  0.350678D-01  0.131395D-01  0.316664D-02
     34 -0.527765D-01  0.467960D-01 -0.616265D-01 -0.537279D-01  0.149313D-01
     35 -0.307025D-01  0.242937D-01 -0.530994D-01 -0.302853D-01  0.124474D-01
     36 -0.197774D-02 -0.224405D-02  0.276240D-01 -0.185633D-02  0.192786D-01
     37 -0.157117D-01  0.167974D-01 -0.240307D-01 -0.188918D-01 -0.174837D-01
     38  0.636231D-02 -0.570491D-02 -0.155036D-01  0.455085D-02 -0.199676D-01
     39  0.350870D-01 -0.322427D-01  0.652198D-01  0.329798D-01 -0.131364D-01
                6             7             8             9            10 
      6  0.451441D+00
      7  0.575246D-01  0.446976D+00
      8  0.625619D-02  0.551664D-02  0.446494D+00
      9  0.533838D-02  0.651198D-02  0.544237D-01  0.453657D+00
     10  0.842463D-03  0.175892D-03 -0.913317D-03 -0.155806D-02  0.487312D+00
     11 -0.292104D-01 -0.356657D-02 -0.248934D-02  0.278370D-02  0.369177D-02
     12 -0.105876D+00 -0.315439D-02  0.179421D-02  0.138261D-01 -0.597602D-02
     13 -0.105003D-01 -0.289639D-01 -0.470816D-02 -0.374791D-02  0.498290D-03
     14 -0.755470D-01 -0.290157D-01  0.184456D-01 -0.351732D-02 -0.439734D-02
     15 -0.203604D-01  0.163048D-01 -0.334490D-02  0.176899D-01  0.145574D-03
     16  0.651289D-01  0.256809D-02 -0.418584D-02 -0.200895D-02  0.200783D-02
     17  0.202888D-02  0.200961D-01 -0.197702D-02 -0.408250D-02  0.306288D-03
     18  0.406528D-01  0.199375D-01 -0.450474D-02 -0.442209D-02  0.150971D-02
     19 -0.106715D+00 -0.397960D-02 -0.252232D-01 -0.278864D-01 -0.429322D-02
     20  0.370153D-01 -0.153172D-02  0.153995D-01 -0.300352D-02  0.105532D-02
     21  0.210957D-01 -0.448035D-02 -0.104842D-02  0.147430D-01  0.591915D-03
     22  0.487065D-01 -0.117469D-02  0.168439D-01 -0.142233D-01  0.265129D-02
     23  0.156666D-01  0.131497D-01 -0.135564D-01  0.192567D-01  0.381728D-03
     24 -0.121255D-01 -0.243533D-02  0.102341D-01  0.102469D-01 -0.189238D-03
     25 -0.316472D-02  0.148337D-02 -0.982101D-03  0.144256D-02  0.321531D-01
     26  0.494555D-01 -0.476398D-02 -0.128236D-03 -0.318954D-02 -0.824496D-03
     27  0.280711D-02 -0.348415D-02 -0.808483D-03  0.263384D-02  0.560798D-03
     28 -0.355534D-01  0.384919D-02 -0.181471D-01  0.138466D-01 -0.345419D-02
     29 -0.120836D-01 -0.682557D-03 -0.206483D-02 -0.204061D-01 -0.193986D-02
     30  0.798352D-02 -0.708491D-02  0.193578D-01 -0.163567D-02 -0.118316D-02
     31  0.121392D-01  0.147893D-01  0.110475D-01 -0.104535D-01  0.124052D-02
     32 -0.239369D-02  0.196588D-01 -0.381582D-02  0.179469D-01  0.756439D-03
     33 -0.245715D-01  0.158907D-01 -0.181500D-01  0.305218D-02 -0.751163D-03
     34  0.385405D-01 -0.190881D-01  0.144494D-01 -0.175958D-01  0.128020D-02
     35  0.240077D-01 -0.142186D-01 -0.413877D-03  0.108047D-01  0.796122D-03
     36  0.182984D-02 -0.179867D-01 -0.147481D-01 -0.409008D-02 -0.711480D-03
     37  0.282782D-01 -0.208937D-02  0.183167D-01 -0.138820D-01  0.478500D-03
     38  0.137454D-01  0.278010D-02  0.345344D-02  0.145184D-01 -0.558221D-05
     39 -0.843246D-02 -0.987985D-03 -0.108808D-01 -0.376313D-03 -0.151318D-02
               11            12            13            14            15 
     11  0.857095D+00
     12  0.602355D+00  0.137146D+01
     13 -0.813347D-01 -0.138154D+00  0.210565D+00
     14  0.340548D+00  0.587974D+00 -0.445855D-01  0.412734D+00
     15 -0.338023D-01 -0.719836D-01 -0.189751D-02 -0.159176D-01  0.198370D+00
     16 -0.159487D+00 -0.254259D+00 -0.709655D-01 -0.205664D+00  0.109006D-02
     17  0.493405D-02  0.115078D-01 -0.921754D-01 -0.176531D-01 -0.904748D-01
     18 -0.753688D-01 -0.142771D+00 -0.327701D-02 -0.135316D+00 -0.936233D-01
     19  0.553206D+00  0.893860D+00 -0.824135D-01  0.411221D+00 -0.502965D-01
     20 -0.201358D+00 -0.313548D+00  0.314099D-01 -0.163905D+00  0.220571D-01
     21 -0.140866D+00 -0.235265D+00  0.224572D-01 -0.102011D+00  0.847741D-03
     22 -0.199683D+00 -0.376175D+00  0.339275D-01 -0.137818D+00  0.997401D-02
     23 -0.792598D-01 -0.765650D-01  0.379453D-02 -0.532120D-01  0.269249D-01
     24  0.517104D-01  0.773508D-01 -0.621737D-02  0.332733D-01 -0.883840D-02
     25  0.614809D-02 -0.193759D-01  0.266679D-03 -0.125307D-01 -0.233436D-03
     26 -0.260507D+00 -0.376891D+00  0.463237D-01 -0.204966D+00  0.342489D-01
     27  0.590049D-01  0.413271D-01 -0.210609D-02  0.157871D-01 -0.125794D-02
     28  0.188225D+00  0.430984D+00 -0.429501D-01  0.158364D+00 -0.502928D-02
     29  0.124611D+00  0.270705D+00 -0.275498D-01  0.115172D+00 -0.683578D-02
     30 -0.163759D-01  0.384611D-01 -0.304437D-02 -0.325091D-02 -0.335938D-02
     31 -0.111728D+00 -0.198546D+00  0.165706D-01 -0.976091D-01  0.175032D-01
     32 -0.575861D-01 -0.922663D-01  0.418677D-02 -0.465753D-01  0.130768D-01
     33  0.393538D-01  0.736775D-01 -0.994798D-02  0.223910D-01  0.287563D-02
     34 -0.147423D+00 -0.232488D+00  0.365246D-01 -0.121299D+00  0.757718D-02
     35 -0.932808D-01 -0.126209D+00  0.241408D-01 -0.702651D-01  0.315078D-02
     36  0.365909D-02  0.397352D-01  0.100060D-01 -0.129872D-02 -0.705037D-02
     37 -0.482981D-01 -0.858321D-01  0.314759D-02 -0.395789D-01  0.937437D-02
     38  0.584407D-02  0.204471D-01 -0.923620D-02  0.114549D-01  0.494798D-02
     39  0.102784D+00  0.186391D+00 -0.233709D-01  0.804213D-01 -0.525318D-02
               16            17            18            19            20 
     16  0.176046D+00
     17  0.388110D-01  0.123853D+00
     18  0.650539D-01  0.412330D-01  0.129348D+00
     19 -0.197592D+00  0.672776D-03 -0.871852D-01  0.926760D+00
     20  0.734236D-01 -0.663747D-03  0.399030D-01 -0.332231D+00  0.191059D+00
     21  0.544961D-01  0.378969D-02  0.219257D-01 -0.281217D+00  0.866540D-01
     22  0.703044D-01 -0.191432D-03  0.256704D-01 -0.325320D+00  0.507708D-01
     23  0.212486D-01 -0.533334D-02  0.714350D-02 -0.946385D-01  0.367644D-01
     24 -0.158478D-01  0.184199D-02 -0.460885D-02  0.796957D-01 -0.241046D-01
     25  0.682691D-02  0.920432D-03  0.496272D-02 -0.122829D-01  0.375656D-02
     26  0.772893D-01 -0.570776D-02  0.554290D-01 -0.256046D+00  0.877852D-01
     27 -0.775097D-02  0.231359D-03 -0.512609D-02  0.200694D-01 -0.459593D-02
     28 -0.818519D-01 -0.120116D-03 -0.305717D-01  0.352164D+00 -0.119849D+00
     29 -0.594371D-01 -0.392682D-03 -0.225408D-01  0.259851D+00 -0.122185D+00
     30 -0.263490D-02  0.353855D-02  0.890787D-02 -0.675026D-02  0.157218D-01
     31  0.224530D-01  0.197864D-01  0.229741D-01 -0.156188D+00  0.777650D-01
     32  0.191012D-02  0.203318D-01  0.806420D-02 -0.774144D-01  0.251125D-02
     33 -0.313202D-01  0.212198D-01 -0.513586D-02  0.666668D-01 -0.183075D-01
     34  0.653396D-01 -0.280021D-02  0.162122D-01 -0.195286D+00  0.857928D-01
     35  0.447967D-01 -0.225479D-02  0.130225D-02 -0.116512D+00  0.105391D-01
     36  0.115663D-01 -0.136681D-02 -0.118978D-01  0.275694D-01 -0.102796D-01
     37  0.172560D-01 -0.211346D-01  0.311182D-01 -0.769605D-01  0.463244D-01
     38 -0.328689D-02 -0.205891D-01  0.162083D-01  0.181331D-02 -0.289293D-01
     39 -0.365172D-01 -0.197012D-01  0.300823D-02  0.145894D+00 -0.497480D-01
               21            22            23            24            25 
     21  0.160014D+00
     22  0.962782D-01  0.230553D+00
     23 -0.376014D-01  0.255396D-01  0.110690D+00
     24 -0.159709D-01 -0.658733D-01 -0.413225D-01  0.671593D-01
     25  0.242107D-02  0.758207D-02  0.546520D-03 -0.148278D-02  0.106066D+00
     26  0.787642D-01  0.125145D+00 -0.456640D-02 -0.209769D-01  0.517302D-03
     27 -0.636848D-02 -0.122259D-01 -0.222431D-03  0.256218D-02  0.200158D-01
     28 -0.104022D+00 -0.149819D+00 -0.233819D-01  0.331910D-01 -0.890777D-02
     29 -0.876574D-01 -0.171483D-01 -0.215017D-01 -0.178399D-01 -0.412619D-02
     30  0.359540D-01 -0.119046D-01 -0.696893D-01  0.397694D-01 -0.223980D-02
     31  0.223822D-01  0.549958D-01  0.217396D-01 -0.151148D-01  0.319696D-02
     32  0.172794D-01  0.355704D-01  0.149956D-01  0.971736D-02  0.913736D-03
     33  0.223477D-02 -0.320442D-01 -0.120977D-01 -0.982912D-02 -0.196455D-02
     34  0.401911D-01  0.772527D-01  0.169870D-01 -0.178125D-01  0.393690D-02
     35  0.350883D-01  0.578273D-01  0.102429D-01  0.701965D-02  0.165368D-02
     36  0.200437D-01 -0.978730D-02 -0.168503D-01 -0.125268D-01 -0.122461D-02
     37  0.370144D-02  0.287483D-01  0.971741D-02 -0.828066D-02  0.205404D-02
     38 -0.140140D-02  0.932287D-02  0.297333D-02  0.165515D-01 -0.229185D-03
     39 -0.164460D-01 -0.582917D-01 -0.241199D-01 -0.299501D-02 -0.310747D-02
               26            27            28            29            30 
     26 -0.585106D-01
     27  0.108138D-01 -0.127316D-01
     28 -0.176282D+00  0.154947D-01  0.114475D+00
     29 -0.110585D+00  0.882625D-02  0.516402D-01  0.974992D-01
     30 -0.375613D-01  0.553049D-02 -0.405763D-01 -0.489944D-01  0.290645D-01
     31  0.650763D-01 -0.363001D-02 -0.671102D-01 -0.379686D-01  0.455365D-02
     32  0.263238D-01 -0.188323D-02 -0.287355D-01 -0.263798D-01 -0.340750D-02
     33 -0.177690D-01  0.218409D-02  0.305181D-01  0.168609D-01 -0.522018D-02
     34  0.616276D-01 -0.465170D-02 -0.965758D-01 -0.568994D-01 -0.274265D-02
     35  0.228750D-01 -0.290492D-02 -0.582012D-01 -0.453105D-01 -0.107038D-01
     36 -0.212177D-01  0.116240D-02  0.105245D-02 -0.206985D-02 -0.125165D-01
     37  0.234396D-01 -0.188312D-02 -0.380225D-01 -0.167484D-01  0.409947D-02
     38 -0.153130D-01 -0.136339D-03  0.352185D-03 -0.515958D-02 -0.386169D-02
     39 -0.594057D-01  0.393098D-02  0.596058D-01  0.380811D-01 -0.567436D-02
               31            32            33            34            35 
     31  0.656407D-01
     32  0.256728D-01  0.447051D-01
     33  0.698965D-04  0.426999D-02  0.411947D-01
     34  0.426149D-01  0.134216D-02 -0.311347D-01  0.708169D-01
     35  0.264690D-02  0.203744D-01 -0.269346D-01  0.295442D-01  0.472717D-01
     36 -0.229560D-01 -0.200606D-01  0.999008D-02 -0.293270D-02 -0.373450D-04
     37  0.209505D-01 -0.954308D-02 -0.215503D-01  0.194289D-01 -0.110647D-01
     38 -0.190174D-01  0.948921D-02 -0.173502D-01 -0.218438D-01  0.666288D-02
     39 -0.446203D-01 -0.309459D-01  0.195745D-01 -0.543206D-01 -0.406462D-01
               36            37            38            39 
     36  0.300134D-01
     37 -0.230719D-01  0.391803D-01
     38 -0.201765D-01  0.868668D-02  0.371933D-01
     39  0.987419D-02 -0.332053D-02  0.103539D-01  0.608743D-01
 Leave Link  716 at Sat May 24 04:49:15 2025, MaxMem=  3758096384 cpu:               0.1 elap:               0.0
 (Enter /apps/easybuild-2022/easybuild/software/Compiler/NVHPC/22.11-CUDA-11.7.0/Gaussian/g16c01-CUDA-11.7.0/g16/l103.exe)

 GradGradGradGradGradGradGradGradGradGradGradGradGradGradGradGradGradGrad
 Berny optimization.
 Red2BG is reusing G-inverse.
 Internal  Forces:  Max     0.190359444 RMS     0.053115981
 Search for a local minimum.
 Step number   1 out of a maximum of   49
 All quantities printed in internal units (Hartrees-Bohrs-Radians)
 RMS Force = .53116D-01 SwitMx=.10000D-02 MixMth= 1
 Mixed Optimization -- RFO/linear search
 Second derivative matrix not updated -- analytic derivatives used.
 ITU=  0
     Eigenvalues ---   -0.24890  -0.05978  -0.01845  -0.00902   0.08409
     Eigenvalues ---    0.08788   0.10045   0.10829   0.11675   0.14684
     Eigenvalues ---    0.19114   0.20938   0.24589   0.25411   0.28999
     Eigenvalues ---    0.30574   0.35141   0.37137   0.40586   0.41354
     Eigenvalues ---    0.42300   0.44648   0.48979   0.55639   0.59165
     Eigenvalues ---    0.64412   3.86636
 Eigenvalue     1 is  -2.49D-01 should be greater than     0.000000 Eigenvector:
                          D1        D3        D5        D4        A13
   1                    0.79288   0.35711   0.25757   0.24914   0.12737
                          A1        A4        D2        D10       D11
   1                    0.12039   0.11823  -0.10566   0.10378   0.08946
 Eigenvalue     2 is  -5.98D-02 should be greater than     0.000000 Eigenvector:
                          D1        D3        D5        D4        A2
   1                    0.52289  -0.44534  -0.39928  -0.36859   0.27667
                          D2        D11       D10       D9        R1
   1                   -0.17685  -0.14284  -0.13529  -0.11957  -0.09951
 Eigenvalue     3 is  -1.85D-02 should be greater than     0.000000 Eigenvector:
                          D2        D1        A15       D5        D4
   1                   -0.95868  -0.19009   0.13153   0.07107   0.05683
                          A4        A1        D3        R2        A9
   1                   -0.05659   0.05425   0.05140   0.04824  -0.03886
 Eigenvalue     4 is  -9.02D-03 should be greater than     0.000000 Eigenvector:
                          D9        D12       D11       D10       D14
   1                   -0.37839  -0.34355  -0.34204  -0.30804  -0.30720
                          D6        D13       D8        D7        D3
   1                   -0.30476  -0.27320  -0.26841  -0.23441   0.19928
 RFO step:  Lambda=-2.49213274D-01 EMin=-2.48899120D-01
 I=     1 Eig=   -2.49D-01 Dot1=  4.94D-03
 I=     1 Stepn=  6.00D-01 RXN=   6.00D-01 EDone=F
 I=     2 Eig=   -5.98D-02 Dot1=  3.12D-03
 I=     2 Stepn=  3.00D-01 RXN=   6.71D-01 EDone=F
 I=     3 Eig=   -1.85D-02 Dot1= -4.54D-03
 I=     3 Stepn= -1.50D-01 RXN=   6.87D-01 EDone=F
 Mixed    3 eigenvectors in step.  Raw Step.Grad=  1.26D-02.
 RFO eigenvector is Hessian eigenvector with negative curvature.
 Taking step of  6.00D-01 in eigenvector direction(s).  Step.Grad=  2.97D-02.
 Linear search not attempted -- first point.
 Iteration  1 RMS(Cart)=  0.13909662 RMS(Int)=  0.06388443
 Iteration  2 RMS(Cart)=  0.09415038 RMS(Int)=  0.03102945
 Iteration  3 RMS(Cart)=  0.08316239 RMS(Int)=  0.00608310
 Iteration  4 RMS(Cart)=  0.00772267 RMS(Int)=  0.00020019
 Iteration  5 RMS(Cart)=  0.00007066 RMS(Int)=  0.00019792
 Iteration  6 RMS(Cart)=  0.00000000 RMS(Int)=  0.00019792
 ITry= 1 IFail=0 DXMaxC= 1.13D+00 DCOld= 1.00D+10 DXMaxT= 3.00D-01 DXLimC= 3.00D+00 Rises=F
 Variable       Old X    -DE/DX   Delta X   Delta X   Delta X     New X
                                 (Linear)    (Quad)   (Total)
    R1        2.56804   0.05282   0.00000  -0.03418  -0.03418   2.53386
    R2        2.44226   0.00174   0.00000  -0.01154  -0.01154   2.43072
    R3        2.61175   0.05145   0.00000   0.01748   0.01748   2.62922
    R4        2.92424   0.04119   0.00000   0.02265   0.02265   2.94689
    R5        2.50310   0.00230   0.00000   0.00618   0.00618   2.50927
    R6        2.49654  -0.01098   0.00000  -0.02088  -0.02088   2.47566
    R7        2.50747  -0.00312   0.00000   0.00864   0.00864   2.51611
    R8        2.51251  -0.00245   0.00000  -0.00183  -0.00183   2.51068
    R9        2.50416   0.00867   0.00000  -0.00415  -0.00415   2.50001
   R10        1.84644  -0.01083   0.00000   0.00177   0.00177   1.84820
    A1        1.85053   0.11549   0.00000   0.06660   0.06660   1.91714
    A2        2.05128   0.19036   0.00000   0.06266   0.06266   2.11394
    A3        1.90982  -0.01886   0.00000  -0.01796  -0.01832   1.89150
    A4        1.93387   0.08659   0.00000   0.05896   0.05910   1.99298
    A5        1.90991  -0.00886   0.00000  -0.02934  -0.02936   1.88055
    A6        1.90474  -0.04124   0.00000   0.00179   0.00163   1.90637
    A7        1.90239   0.00079   0.00000   0.00426   0.00367   1.90606
    A8        1.90282  -0.01958   0.00000  -0.01830  -0.01785   1.88497
    A9        1.95721   0.15270   0.00000  -0.01139  -0.01155   1.94566
   A10        1.85487  -0.05203   0.00000   0.00555   0.00518   1.86004
   A11        1.95456  -0.04333   0.00000  -0.01378  -0.01383   1.94074
   A12        1.88578  -0.05689   0.00000  -0.02841  -0.02841   1.85737
   A13        1.90673  -0.01868   0.00000   0.04682   0.04697   1.95370
   A14        1.90219   0.01375   0.00000  -0.00105  -0.00076   1.90143
   A15        1.97388   0.00049   0.00000  -0.00288  -0.00288   1.97101
    D1       -1.03992  -0.03475   0.00000   0.57706   0.57706  -0.46286
    D2        2.09485   0.03625   0.00000   0.02387   0.02387   2.11872
    D3        1.39978   0.05746   0.00000   0.06368   0.06367   1.46345
    D4       -2.82647   0.03993   0.00000   0.02652   0.02648  -2.79999
    D5       -0.75111   0.00012   0.00000   0.02103   0.02108  -0.73003
    D6        3.06142  -0.02742   0.00000  -0.02652  -0.02631   3.03511
    D7        1.02297  -0.01570   0.00000  -0.00918  -0.00924   1.01372
    D8       -1.04419   0.01091   0.00000  -0.01782  -0.01760  -1.06179
    D9       -1.12069  -0.03617   0.00000   0.00132   0.00156  -1.11913
   D10        3.12403  -0.02446   0.00000   0.01866   0.01863  -3.14052
   D11        1.05687   0.00215   0.00000   0.01002   0.01028   1.06715
   D12        0.97805  -0.01166   0.00000  -0.00320  -0.00339   0.97465
   D13       -1.06041   0.00006   0.00000   0.01415   0.01368  -1.04674
   D14       -3.12757   0.02667   0.00000   0.00550   0.00532  -3.12225
         Item               Value     Threshold  Converged?
 Maximum Force            0.190359     0.000450     NO 
 RMS     Force            0.053116     0.000300     NO 
 Maximum Displacement     1.130542     0.001800     NO 
 RMS     Displacement     0.305562     0.001200     NO 
 Predicted change in Energy=-4.733454D-02
 Lowest energy point so far.  Saving SCF results.
 GradGradGradGradGradGradGradGradGradGradGradGradGradGradGradGradGradGrad

 Leave Link  103 at Sat May 24 04:49:15 2025, MaxMem=  3758096384 cpu:               0.1 elap:               0.0
 (Enter /apps/easybuild-2022/easybuild/software/Compiler/NVHPC/22.11-CUDA-11.7.0/Gaussian/g16c01-CUDA-11.7.0/g16/l202.exe)
                          Input orientation:                          
 ---------------------------------------------------------------------
 Center     Atomic      Atomic             Coordinates (Angstroms)
 Number     Number       Type             X           Y           Z
 ---------------------------------------------------------------------
      1          6           0        0.030873   -0.157934    0.254825
      2          8           0        1.358039   -0.010949    0.132599
      3          6           0        2.167358    1.848363    1.490683
      4          6           0        1.938760    1.251745    0.068149
      5          9           0        2.840164    2.986138    1.364235
      6          9           0        3.143108    1.088033   -0.468415
      7          9           0        1.232741    2.064239   -0.700996
      8          9           0        1.065145    2.071335    2.162750
      9          9           0        2.902135    0.979426    2.181963
     10          8           0       -0.471385    0.875157    0.833604
     11          1           0       -1.147954    1.325475    0.289541
 ---------------------------------------------------------------------
                    Distance matrix (angstroms):
                    1          2          3          4          5
     1  C    0.000000
     2  O    1.340863   0.000000
     3  C    3.180746   2.440580   0.000000
     4  C    2.379511   1.391325   1.559428   0.000000
     5  F    4.359827   3.563166   1.327851   2.345312   0.000000
     6  F    3.429506   2.180699   2.316950   1.328592   2.655783
     7  F    2.701135   2.239863   2.392398   1.322948   2.774687
     8  F    3.111195   2.922877   1.310063   2.412941   2.150624
     9  F    3.640273   2.750448   1.331471   2.338901   2.167812
    10  O    1.286284   2.150206   2.888226   2.556665   3.962849
    11  H    1.895084   2.844410   3.564752   3.095522   4.451726
                    6          7          8          9         10
     6  F    0.000000
     7  F    2.157909   0.000000
     8  F    3.493972   2.868655   0.000000
     9  F    2.663525   3.503590   2.137093   0.000000
    10  O    3.847743   2.583207   2.357625   3.634499   0.000000
    11  H    4.363953   2.682283   2.993832   4.483774   0.978027
                   11
    11  H    0.000000
 Symmetry turned off by external request.
 Stoichiometry    C3HF5O2
 Rotational constants (GHZ):           1.9146291           1.3696057           1.1443646
 Leave Link  202 at Sat May 24 04:49:15 2025, MaxMem=  3758096384 cpu:               0.0 elap:               0.0
 (Enter /apps/easybuild-2022/easybuild/software/Compiler/NVHPC/22.11-CUDA-11.7.0/Gaussian/g16c01-CUDA-11.7.0/g16/l301.exe)
 Standard basis: def2TZVPP (5D, 7F)
 Ernie: Thresh=  0.10000D-02 Tol=  0.10000D-05 Strict=F.
   324 basis functions,   527 primitive gaussians,   375 cartesian basis functions
    40 alpha electrons       40 beta electrons
       nuclear repulsion energy       654.6895701480 Hartrees.
 IExCor= 4336 DFT=T Ex+Corr=M062X ExCW=0 ScaHFX=  0.540000
 ScaDFX=  1.000000  1.000000  1.000000  1.000000 ScalE2=  1.000000  1.000000
 IRadAn=      5 IRanWt=     -1 IRanGd=            0 ICorTp=0 IEmpDi=  4
 NAtoms=   11 NActive=   11 NUniq=   11 SFac= 1.00D+00 NAtFMM=   60 NAOKFM=F Big=F
 Integral buffers will be    131072 words long.
 Raffenetti 2 integral format.
 Two-electron integral symmetry is turned off.
 Leave Link  301 at Sat May 24 04:49:15 2025, MaxMem=  3758096384 cpu:               0.1 elap:               0.0
 (Enter /apps/easybuild-2022/easybuild/software/Compiler/NVHPC/22.11-CUDA-11.7.0/Gaussian/g16c01-CUDA-11.7.0/g16/l302.exe)
 NPDir=0 NMtPBC=     1 NCelOv=     1 NCel=       1 NClECP=     1 NCelD=      1
         NCelK=      1 NCelE2=     1 NClLst=     1 CellRange=     0.0.
 One-electron integrals computed using PRISM.
   1 Symmetry operations used in ECPInt.
 ECPInt:  NShTT=    6786 NPrTT=   21959 LenC2=    6523 LenP2D=   16138.
 LDataN:  DoStor=T MaxTD1= 6 Len=  172
 NBasis=   324 RedAO= T EigKep=  3.95D-04  NBF=   324
 NBsUse=   324 1.00D-06 EigRej= -1.00D+00 NBFU=   324
 Precomputing XC quadrature grid using
 IXCGrd= 4 IRadAn=           5 IRanWt=          -1 IRanGd=           0 AccXCQ= 0.00D+00.
 Generated NRdTot=       0 NPtTot=           0 NUsed=           0 NTot=          32
 NSgBfM=   374   374   374   374   374 MxSgAt=    11 MxSgA2=    11.
 Leave Link  302 at Sat May 24 04:49:15 2025, MaxMem=  3758096384 cpu:               0.9 elap:               0.2
 (Enter /apps/easybuild-2022/easybuild/software/Compiler/NVHPC/22.11-CUDA-11.7.0/Gaussian/g16c01-CUDA-11.7.0/g16/l303.exe)
 DipDrv:  MaxL=1.
 Leave Link  303 at Sat May 24 04:49:15 2025, MaxMem=  3758096384 cpu:               0.1 elap:               0.0
 (Enter /apps/easybuild-2022/easybuild/software/Compiler/NVHPC/22.11-CUDA-11.7.0/Gaussian/g16c01-CUDA-11.7.0/g16/l401.exe)
 Initial guess from the checkpoint file:  "/tmp/Gau-71944.chk"
 B after Tr=    -0.048653    0.067443    0.227661
         Rot=    0.999375   -0.012715   -0.032925    0.002043 Ang=  -4.05 deg.
 Guess basis will be translated and rotated to current coordinates.
 JPrj=2 DoOrth=T DoCkMO=T.
 Generating alternative initial guess.
 ExpMin= 9.52D-02 ExpMax= 3.55D+04 ExpMxC= 1.21D+03 IAcc=3 IRadAn=         5 AccDes= 0.00D+00
 Harris functional with IExCor= 1009 and IRadAn=       5 diagonalized for initial guess.
 HarFok:  IExCor= 1009 AccDes= 0.00D+00 IRadAn=         5 IDoV= 1 UseB2=F ITyADJ=14
 ICtDFT=  3500011 ScaDFX=  1.000000  1.000000  1.000000  1.000000
 FoFCou: FMM=F IPFlag=           0 FMFlag=      100000 FMFlg1=           0
         NFxFlg=           0 DoJE=T BraDBF=F KetDBF=T FulRan=T
         wScrn=  0.000000 ICntrl=       500 IOpCl=  0 I1Cent=   200000004 NGrid=           0
         NMat0=    1 NMatS0=      1 NMatT0=    0 NMatD0=    1 NMtDS0=    0 NMtDT0=    0
 Symmetry not used in FoFCou.
 Harris En= -764.077378931855    
 Leave Link  401 at Sat May 24 04:49:16 2025, MaxMem=  3758096384 cpu:               4.0 elap:               0.6
 (Enter /apps/easybuild-2022/easybuild/software/Compiler/NVHPC/22.11-CUDA-11.7.0/Gaussian/g16c01-CUDA-11.7.0/g16/l502.exe)
 Keep R1 ints in memory in canonical form, NReq=1412617130.
 FoFCou: FMM=F IPFlag=           0 FMFlag=           0 FMFlg1=           0
         NFxFlg=           0 DoJE=F BraDBF=F KetDBF=F FulRan=T
         wScrn=  0.000000 ICntrl=       600 IOpCl=  0 I1Cent=           0 NGrid=           0
         NMat0=    1 NMatS0=  52650 NMatT0=    0 NMatD0=    1 NMtDS0=    0 NMtDT0=    0
 Symmetry not used in FoFCou.
 Two-electron integral symmetry not used.
 Closed shell SCF:
 Using DIIS extrapolation, IDIIS=  1040.
 NGot=  3758096384 LenX=  2371771924 LenY=  2371630858
 Requested convergence on RMS density matrix=1.00D-08 within  32 cycles.
 Requested convergence on MAX density matrix=1.00D-06.
 Requested convergence on             energy=1.00D-06.
 No special actions if energy rises.
 Integral accuracy reduced to 1.0D-05 until final iterations.

 Cycle   1  Pass 0  IDiag  1:
 E= -764.312164385654    
 DIIS: error= 1.71D-02 at cycle   1 NSaved=   1.
 NSaved= 1 IEnMin= 1 EnMin= -764.312164385654     IErMin= 1 ErrMin= 1.71D-02
 ErrMax= 1.71D-02  0.00D+00 EMaxC= 1.00D-01 BMatC= 1.65D-01 BMatP= 1.65D-01
 IDIUse=3 WtCom= 8.29D-01 WtEn= 1.71D-01
 Coeff-Com:  0.100D+01
 Coeff-En:   0.100D+01
 Coeff:      0.100D+01
 Recover alternate guess density for next cycle.
 RMSDP=2.37D-03 MaxDP=9.70D-02              OVMax= 0.00D+00

 Cycle   2  Pass 0  IDiag  1:
 E= -764.418026583671     Delta-E=       -0.105862198017 Rises=F Damp=F
 DIIS: error= 1.49D-02 at cycle   2 NSaved=   2.
 NSaved= 2 IEnMin= 2 EnMin= -764.418026583671     IErMin= 2 ErrMin= 1.49D-02
 ErrMax= 1.49D-02  0.00D+00 EMaxC= 1.00D-01 BMatC= 3.10D-01 BMatP= 1.65D-01
 IDIUse=2 WtCom= 0.00D+00 WtEn= 1.00D+00
 Coeff-En:   0.000D+00 0.100D+01
 Coeff:      0.000D+00 0.100D+01
 Gap=     0.286 Goal=   None    Shift=    0.000
 RMSDP=1.80D-03 MaxDP=6.64D-02 DE=-1.06D-01 OVMax= 9.53D-02

 Cycle   3  Pass 0  IDiag  1:
 E= -764.404383911757     Delta-E=        0.013642671914 Rises=F Damp=F
 DIIS: error= 1.69D-02 at cycle   3 NSaved=   3.
 NSaved= 3 IEnMin= 2 EnMin= -764.418026583671     IErMin= 2 ErrMin= 1.49D-02
 ErrMax= 1.69D-02  0.00D+00 EMaxC= 1.00D-01 BMatC= 2.66D-01 BMatP= 1.65D-01
 IDIUse=2 WtCom= 0.00D+00 WtEn= 1.00D+00
 Coeff-En:   0.000D+00 0.524D+00 0.476D+00
 Coeff:      0.000D+00 0.524D+00 0.476D+00
 Gap=     0.294 Goal=   None    Shift=    0.000
 RMSDP=7.74D-04 MaxDP=2.84D-02 DE= 1.36D-02 OVMax= 5.34D-02

 Cycle   4  Pass 0  IDiag  1:
 E= -764.559641187165     Delta-E=       -0.155257275407 Rises=F Damp=F
 DIIS: error= 1.34D-03 at cycle   4 NSaved=   4.
 NSaved= 4 IEnMin= 4 EnMin= -764.559641187165     IErMin= 4 ErrMin= 1.34D-03
 ErrMax= 1.34D-03  0.00D+00 EMaxC= 1.00D-01 BMatC= 1.23D-03 BMatP= 1.65D-01
 IDIUse=3 WtCom= 9.87D-01 WtEn= 1.34D-02
 Coeff-Com:  0.111D-02 0.821D-02 0.543D-01 0.936D+00
 Coeff-En:   0.000D+00 0.000D+00 0.000D+00 0.100D+01
 Coeff:      0.109D-02 0.810D-02 0.535D-01 0.937D+00
 Gap=     0.295 Goal=   None    Shift=    0.000
 RMSDP=1.21D-04 MaxDP=8.12D-03 DE=-1.55D-01 OVMax= 9.77D-03

 Cycle   5  Pass 0  IDiag  1:
 E= -764.560334620445     Delta-E=       -0.000693433281 Rises=F Damp=F
 DIIS: error= 4.79D-04 at cycle   5 NSaved=   5.
 NSaved= 5 IEnMin= 5 EnMin= -764.560334620445     IErMin= 5 ErrMin= 4.79D-04
 ErrMax= 4.79D-04  0.00D+00 EMaxC= 1.00D-01 BMatC= 2.81D-04 BMatP= 1.23D-03
 IDIUse=3 WtCom= 9.95D-01 WtEn= 4.79D-03
 Coeff-Com:  0.144D-02-0.412D-02 0.126D-01 0.383D+00 0.607D+00
 Coeff-En:   0.000D+00 0.000D+00 0.000D+00 0.884D-02 0.991D+00
 Coeff:      0.144D-02-0.410D-02 0.126D-01 0.381D+00 0.609D+00
 Gap=     0.294 Goal=   None    Shift=    0.000
 RMSDP=4.06D-05 MaxDP=3.33D-03 DE=-6.93D-04 OVMax= 3.34D-03

 Cycle   6  Pass 0  IDiag  1:
 E= -764.560519277662     Delta-E=       -0.000184657216 Rises=F Damp=F
 DIIS: error= 1.39D-04 at cycle   6 NSaved=   6.
 NSaved= 6 IEnMin= 6 EnMin= -764.560519277662     IErMin= 6 ErrMin= 1.39D-04
 ErrMax= 1.39D-04  0.00D+00 EMaxC= 1.00D-01 BMatC= 2.73D-05 BMatP= 2.81D-04
 IDIUse=3 WtCom= 9.99D-01 WtEn= 1.39D-03
 Coeff-Com:  0.381D-04-0.245D-02 0.163D-02 0.101D+00 0.274D+00 0.625D+00
 Coeff-En:   0.000D+00 0.000D+00 0.000D+00 0.000D+00 0.000D+00 0.100D+01
 Coeff:      0.380D-04-0.244D-02 0.163D-02 0.101D+00 0.274D+00 0.626D+00
 Gap=     0.294 Goal=   None    Shift=    0.000
 RMSDP=9.93D-06 MaxDP=6.66D-04 DE=-1.85D-04 OVMax= 1.23D-03

 Initial convergence to 1.0D-05 achieved.  Increase integral accuracy.
 Cycle   7  Pass 1  IDiag  1:
 E= -764.560523003434     Delta-E=       -0.000003725773 Rises=F Damp=F
 DIIS: error= 6.68D-05 at cycle   1 NSaved=   1.
 NSaved= 1 IEnMin= 1 EnMin= -764.560523003434     IErMin= 1 ErrMin= 6.68D-05
 ErrMax= 6.68D-05  0.00D+00 EMaxC= 1.00D-01 BMatC= 2.86D-06 BMatP= 2.86D-06
 IDIUse=1 WtCom= 1.00D+00 WtEn= 0.00D+00
 Coeff-Com:  0.100D+01
 Coeff:      0.100D+01
 Gap=     0.294 Goal=   None    Shift=    0.000
 RMSDP=9.93D-06 MaxDP=6.66D-04 DE=-3.73D-06 OVMax= 6.67D-04

 Cycle   8  Pass 1  IDiag  1:
 E= -764.560522996268     Delta-E=        0.000000007167 Rises=F Damp=F
 DIIS: error= 6.28D-05 at cycle   2 NSaved=   2.
 NSaved= 2 IEnMin= 1 EnMin= -764.560523003434     IErMin= 2 ErrMin= 6.28D-05
 ErrMax= 6.28D-05  0.00D+00 EMaxC= 1.00D-01 BMatC= 3.33D-06 BMatP= 2.86D-06
 IDIUse=1 WtCom= 1.00D+00 WtEn= 0.00D+00
 Coeff-Com:  0.521D+00 0.479D+00
 Coeff:      0.521D+00 0.479D+00
 Gap=     0.294 Goal=   None    Shift=    0.000
 RMSDP=3.10D-06 MaxDP=2.12D-04 DE= 7.17D-09 OVMax= 3.93D-04

 Cycle   9  Pass 1  IDiag  1:
 E= -764.560525194262     Delta-E=       -0.000002197995 Rises=F Damp=F
 DIIS: error= 7.23D-06 at cycle   3 NSaved=   3.
 NSaved= 3 IEnMin= 3 EnMin= -764.560525194262     IErMin= 3 ErrMin= 7.23D-06
 ErrMax= 7.23D-06  0.00D+00 EMaxC= 1.00D-01 BMatC= 8.68D-08 BMatP= 2.86D-06
 IDIUse=1 WtCom= 1.00D+00 WtEn= 0.00D+00
 Coeff-Com:  0.353D-01 0.139D+00 0.826D+00
 Coeff:      0.353D-01 0.139D+00 0.826D+00
 Gap=     0.294 Goal=   None    Shift=    0.000
 RMSDP=9.54D-07 MaxDP=4.66D-05 DE=-2.20D-06 OVMax= 6.31D-05

 Cycle  10  Pass 1  IDiag  1:
 E= -764.560525255075     Delta-E=       -0.000000060812 Rises=F Damp=F
 DIIS: error= 4.33D-06 at cycle   4 NSaved=   4.
 NSaved= 4 IEnMin= 4 EnMin= -764.560525255075     IErMin= 4 ErrMin= 4.33D-06
 ErrMax= 4.33D-06  0.00D+00 EMaxC= 1.00D-01 BMatC= 1.26D-08 BMatP= 8.68D-08
 IDIUse=1 WtCom= 1.00D+00 WtEn= 0.00D+00
 Coeff-Com: -0.385D-01 0.167D-01 0.346D+00 0.675D+00
 Coeff:     -0.385D-01 0.167D-01 0.346D+00 0.675D+00
 Gap=     0.294 Goal=   None    Shift=    0.000
 RMSDP=3.27D-07 MaxDP=2.38D-05 DE=-6.08D-08 OVMax= 3.45D-05

 Cycle  11  Pass 1  IDiag  1:
 E= -764.560525266289     Delta-E=       -0.000000011214 Rises=F Damp=F
 DIIS: error= 6.54D-07 at cycle   5 NSaved=   5.
 NSaved= 5 IEnMin= 5 EnMin= -764.560525266289     IErMin= 5 ErrMin= 6.54D-07
 ErrMax= 6.54D-07  0.00D+00 EMaxC= 1.00D-01 BMatC= 6.69D-10 BMatP= 1.26D-08
 IDIUse=1 WtCom= 1.00D+00 WtEn= 0.00D+00
 Coeff-Com: -0.122D-01-0.103D-02 0.326D-01 0.168D+00 0.813D+00
 Coeff:     -0.122D-01-0.103D-02 0.326D-01 0.168D+00 0.813D+00
 Gap=     0.294 Goal=   None    Shift=    0.000
 RMSDP=8.09D-08 MaxDP=3.12D-06 DE=-1.12D-08 OVMax= 8.99D-06

 Cycle  12  Pass 1  IDiag  1:
 E= -764.560525266936     Delta-E=       -0.000000000647 Rises=F Damp=F
 DIIS: error= 3.51D-07 at cycle   6 NSaved=   6.
 NSaved= 6 IEnMin= 6 EnMin= -764.560525266936     IErMin= 6 ErrMin= 3.51D-07
 ErrMax= 3.51D-07  0.00D+00 EMaxC= 1.00D-01 BMatC= 1.73D-10 BMatP= 6.69D-10
 IDIUse=1 WtCom= 1.00D+00 WtEn= 0.00D+00
 Coeff-Com:  0.202D-02-0.264D-02-0.560D-01-0.608D-01 0.341D+00 0.777D+00
 Coeff:      0.202D-02-0.264D-02-0.560D-01-0.608D-01 0.341D+00 0.777D+00
 Gap=     0.294 Goal=   None    Shift=    0.000
 RMSDP=3.90D-08 MaxDP=1.31D-06 DE=-6.47D-10 OVMax= 5.35D-06

 Cycle  13  Pass 1  IDiag  1:
 E= -764.560525267092     Delta-E=       -0.000000000156 Rises=F Damp=F
 DIIS: error= 8.99D-08 at cycle   7 NSaved=   7.
 NSaved= 7 IEnMin= 7 EnMin= -764.560525267092     IErMin= 7 ErrMin= 8.99D-08
 ErrMax= 8.99D-08  0.00D+00 EMaxC= 1.00D-01 BMatC= 7.69D-12 BMatP= 1.73D-10
 IDIUse=1 WtCom= 1.00D+00 WtEn= 0.00D+00
 Coeff-Com:  0.123D-02-0.399D-03-0.180D-01-0.259D-01 0.531D-01 0.230D+00
 Coeff-Com:  0.760D+00
 Coeff:      0.123D-02-0.399D-03-0.180D-01-0.259D-01 0.531D-01 0.230D+00
 Coeff:      0.760D+00
 Gap=     0.294 Goal=   None    Shift=    0.000
 RMSDP=1.10D-08 MaxDP=3.08D-07 DE=-1.56D-10 OVMax= 1.69D-06

 Cycle  14  Pass 1  IDiag  1:
 E= -764.560525267138     Delta-E=       -0.000000000046 Rises=F Damp=F
 DIIS: error= 3.38D-08 at cycle   8 NSaved=   8.
 NSaved= 8 IEnMin= 8 EnMin= -764.560525267138     IErMin= 8 ErrMin= 3.38D-08
 ErrMax= 3.38D-08  0.00D+00 EMaxC= 1.00D-01 BMatC= 9.23D-13 BMatP= 7.69D-12
 IDIUse=1 WtCom= 1.00D+00 WtEn= 0.00D+00
 Coeff-Com: -0.252D-05 0.435D-03 0.423D-02 0.308D-02-0.404D-01-0.640D-01
 Coeff-Com:  0.160D+00 0.937D+00
 Coeff:     -0.252D-05 0.435D-03 0.423D-02 0.308D-02-0.404D-01-0.640D-01
 Coeff:      0.160D+00 0.937D+00
 Gap=     0.294 Goal=   None    Shift=    0.000
 RMSDP=5.90D-09 MaxDP=1.65D-07 DE=-4.57D-11 OVMax= 1.21D-06

 SCF Done:  E(RM062X) =  -764.560525267     A.U. after   14 cycles
            NFock= 14  Conv=0.59D-08     -V/T= 2.0034
 KE= 7.619797746385D+02 PE=-3.121349680265D+03 EE= 9.401198102112D+02
 Leave Link  502 at Sat May 24 04:49:44 2025, MaxMem=  3758096384 cpu:             123.8 elap:              28.5
 (Enter /apps/easybuild-2022/easybuild/software/Compiler/NVHPC/22.11-CUDA-11.7.0/Gaussian/g16c01-CUDA-11.7.0/g16/l508.exe)
[...]
                                 (Linear)    (Quad)   (Total)
    R1        2.53223   0.00001   0.00000   0.00001   0.00001   2.53224
    R2        2.46941  -0.00011   0.00000  -0.00026  -0.00026   2.46915
    R3        2.62925   0.00003   0.00000   0.00009   0.00009   2.62934
    R4        2.92658   0.00003   0.00000   0.00008   0.00008   2.92666
    R5        2.50421  -0.00000   0.00000   0.00001   0.00001   2.50422
    R6        2.50234  -0.00003   0.00000  -0.00005  -0.00005   2.50229
    R7        2.50251  -0.00000   0.00000  -0.00001  -0.00001   2.50251
    R8        2.51298  -0.00000   0.00000   0.00005   0.00005   2.51303
    R9        2.51167  -0.00002   0.00000  -0.00008  -0.00008   2.51158
   R10        1.81979   0.00002   0.00000   0.00004   0.00004   1.81984
    A1        1.91319   0.00013   0.00000   0.00026   0.00026   1.91345
    A2        2.24250   0.00000   0.00000  -0.00020  -0.00020   2.24230
    A3        1.90594  -0.00001   0.00000  -0.00007  -0.00007   1.90587
    A4        1.94441   0.00004   0.00000   0.00014   0.00014   1.94456
    A5        1.91055   0.00001   0.00000  -0.00000  -0.00000   1.91054
    A6        1.89905  -0.00002   0.00000  -0.00002  -0.00002   1.89903
    A7        1.90367  -0.00000   0.00000  -0.00001  -0.00001   1.90367
    A8        1.89979  -0.00002   0.00000  -0.00004  -0.00004   1.89975
    A9        1.96417   0.00005   0.00000   0.00011   0.00011   1.96427
   A10        1.84482  -0.00002   0.00000  -0.00008  -0.00008   1.84474
   A11        1.97452  -0.00003   0.00000  -0.00004  -0.00004   1.97448
   A12        1.87152  -0.00003   0.00000  -0.00018  -0.00018   1.87134
   A13        1.91481   0.00003   0.00000   0.00021   0.00021   1.91502
   A14        1.88833  -0.00001   0.00000  -0.00004  -0.00004   1.88829
   A15        1.87407   0.00000   0.00000   0.00003   0.00003   1.87410
    D1       -0.02248   0.00003   0.00000   0.00059   0.00059  -0.02189
    D2       -3.13736   0.00000   0.00000   0.00009   0.00009  -3.13727
    D3        1.44056   0.00004   0.00000   0.00003   0.00003   1.44058
    D4       -2.80530   0.00002   0.00000  -0.00018  -0.00018  -2.80548
    D5       -0.74208  -0.00002   0.00000  -0.00031  -0.00031  -0.74238
    D6        3.08049  -0.00001   0.00000   0.00019   0.00019   3.08068
    D7        1.05915  -0.00000   0.00000   0.00034   0.00034   1.05949
    D8       -0.98779   0.00001   0.00000   0.00038   0.00038  -0.98741
    D9       -1.10458  -0.00001   0.00000   0.00021   0.00021  -1.10438
   D10       -3.12593   0.00000   0.00000   0.00035   0.00035  -3.12557
   D11        1.11032   0.00001   0.00000   0.00040   0.00040   1.11072
   D12        0.99749  -0.00001   0.00000   0.00024   0.00024   0.99774
   D13       -1.02385   0.00001   0.00000   0.00039   0.00039  -1.02346
   D14       -3.07079   0.00001   0.00000   0.00044   0.00044  -3.07035
         Item               Value     Threshold  Converged?
 Maximum Force            0.000125     0.000450     YES
 RMS     Force            0.000033     0.000300     YES
 Maximum Displacement     0.000951     0.001800     YES
 RMS     Displacement     0.000343     0.001200     YES
 Predicted change in Energy=-6.381024D-08
 Optimization completed.
    -- Stationary point found.
                           ----------------------------
                           !   Optimized Parameters   !
                           ! (Angstroms and Degrees)  !
 --------------------------                            --------------------------
 ! Name  Definition              Value          Derivative Info.                !
 --------------------------------------------------------------------------------
 ! R1    R(1,2)                  1.34           -DE/DX =    0.0                 !
 ! R2    R(1,10)                 1.3068         -DE/DX =   -0.0001              !
 ! R3    R(2,4)                  1.3913         -DE/DX =    0.0                 !
 ! R4    R(3,4)                  1.5487         -DE/DX =    0.0                 !
 ! R5    R(3,5)                  1.3252         -DE/DX =    0.0                 !
 ! R6    R(3,8)                  1.3242         -DE/DX =    0.0                 !
 ! R7    R(3,9)                  1.3243         -DE/DX =    0.0                 !
 ! R8    R(4,6)                  1.3298         -DE/DX =    0.0                 !
 ! R9    R(4,7)                  1.3291         -DE/DX =    0.0                 !
 ! R10   R(10,11)                0.963          -DE/DX =    0.0                 !
 ! A1    A(2,1,10)             109.6178         -DE/DX =    0.0001              !
 ! A2    A(1,2,4)              128.4856         -DE/DX =    0.0                 !
 ! A3    A(4,3,5)              109.2025         -DE/DX =    0.0                 !
 ! A4    A(4,3,8)              111.4067         -DE/DX =    0.0                 !
 ! A5    A(4,3,9)              109.4662         -DE/DX =    0.0                 !
 ! A6    A(5,3,8)              108.8073         -DE/DX =    0.0                 !
 ! A7    A(5,3,9)              109.0724         -DE/DX =    0.0                 !
 ! A8    A(8,3,9)              108.8501         -DE/DX =    0.0                 !
 ! A9    A(2,4,3)              112.5384         -DE/DX =    0.0                 !
 ! A10   A(2,4,6)              105.7004         -DE/DX =    0.0                 !
 ! A11   A(2,4,7)              113.1319         -DE/DX =    0.0                 !
 ! A12   A(3,4,6)              107.2303         -DE/DX =    0.0                 !
 ! A13   A(3,4,7)              109.7107         -DE/DX =    0.0                 !
 ! A14   A(6,4,7)              108.1936         -DE/DX =    0.0                 !
 ! A15   A(1,10,11)            107.3763         -DE/DX =    0.0                 !
 ! D1    D(10,1,2,4)            -1.2879         -DE/DX =    0.0                 !
 ! D2    D(2,1,10,11)         -179.7575         -DE/DX =    0.0                 !
 ! D3    D(1,2,4,3)             82.5378         -DE/DX =    0.0                 !
 ! D4    D(1,2,4,6)           -160.7319         -DE/DX =    0.0                 !
 ! D5    D(1,2,4,7)            -42.5179         -DE/DX =    0.0                 !
 ! D6    D(5,3,4,2)            176.4991         -DE/DX =    0.0                 !
 ! D7    D(5,3,4,6)             60.6848         -DE/DX =    0.0                 !
 ! D8    D(5,3,4,7)            -56.5961         -DE/DX =    0.0                 !
 ! D9    D(8,3,4,2)            -63.288          -DE/DX =    0.0                 !
 ! D10   D(8,3,4,6)           -179.1024         -DE/DX =    0.0                 !
 ! D11   D(8,3,4,7)             63.6168         -DE/DX =    0.0                 !
 ! D12   D(9,3,4,2)             57.1522         -DE/DX =    0.0                 !
 ! D13   D(9,3,4,6)            -58.6621         -DE/DX =    0.0                 !
 ! D14   D(9,3,4,7)           -175.943          -DE/DX =    0.0                 !
 --------------------------------------------------------------------------------
 GradGradGradGradGradGradGradGradGradGradGradGradGradGradGradGradGradGrad

 Leave Link  103 at Sat May 24 05:03:58 2025, MaxMem=  3758096384 cpu:               0.1 elap:               0.0
 (Enter /apps/easybuild-2022/easybuild/software/Compiler/NVHPC/22.11-CUDA-11.7.0/Gaussian/g16c01-CUDA-11.7.0/g16/l9999.exe)

 ----------------------------------------------------------------------

 Electric dipole moment (input orientation):
 (Debye = 10**-18 statcoulomb cm , SI units = C m)
                  (au)            (Debye)         (10**-30 SI)
   Tot        0.953975D+00      0.242476D+01      0.808814D+01
   x         -0.873661D+00     -0.222062D+01     -0.740720D+01
   y          0.372145D+00      0.945899D+00      0.315518D+01
   z          0.910724D-01      0.231483D+00      0.772144D+00

 Dipole polarizability, Alpha (input orientation).
 (esu units = cm**3 , SI units = C**2 m**2 J**-1)
 Alpha(0;0):
               (au)            (10**-24 esu)      (10**-40 SI)
   iso        0.463565D+02      0.686932D+01      0.764315D+01
   aniso      0.140617D+02      0.208373D+01      0.231846D+01
   xx         0.546211D+02      0.809401D+01      0.900580D+01
   yx         0.303241D+01      0.449357D+00      0.499977D+00
   yy         0.444918D+02      0.659301D+01      0.733571D+01
   zx        -0.400341D+00     -0.593244D-01     -0.660073D-01
   zy         0.430003D+00      0.637198D-01      0.708979D-01
   zz         0.399566D+02      0.592095D+01      0.658795D+01

 ----------------------------------------------------------------------

 Dipole orientation:
     6          0.42096971         -0.42122929         -0.02033488
     8          0.88799066          0.82795139         -2.17292274
     6          4.76979542          3.33647024         -2.29776481
     6          1.85003028          3.25549595         -2.48026107
     9          5.55884033          5.66995666         -2.74866272
     9          1.23095572          3.94150733         -4.81718350
     9          0.85502844          4.92052672         -0.88460495
     9          5.56269224          2.64110408         -0.02851843
     9          5.75520134          1.79566205         -4.00582391
     8          1.06268398          0.98133642          1.90813654
     1          0.70977931          0.02602694          3.41627765

 Electric dipole moment (dipole orientation):
 (Debye = 10**-18 statcoulomb cm , SI units = C m)
                  (au)            (Debye)         (10**-30 SI)
   Tot        0.953975D+00      0.242476D+01      0.808814D+01
   x          0.000000D+00      0.000000D+00      0.000000D+00
   y          0.000000D+00      0.000000D+00      0.000000D+00
   z          0.953975D+00      0.242476D+01      0.808814D+01

 Dipole polarizability, Alpha (dipole orientation).
 (esu units = cm**3 , SI units = C**2 m**2 J**-1)
 Alpha(0;0):
               (au)            (10**-24 esu)      (10**-40 SI)
   iso        0.463565D+02      0.686932D+01      0.764315D+01
   aniso      0.140617D+02      0.208373D+01      0.231846D+01
   xx         0.417931D+02      0.619310D+01      0.689075D+01
   yx         0.353047D+01      0.523161D+00      0.582095D+00
   yy         0.463951D+02      0.687504D+01      0.764952D+01
   zx        -0.270535D+01     -0.400891D+00     -0.446051D+00
   zy        -0.504749D+01     -0.747960D+00     -0.832218D+00
   zz         0.508813D+02      0.753983D+01      0.838919D+01

 ----------------------------------------------------------------------
 Unable to Open any file for archive entry.
 1\1\GINC-SPARTAN-BM160\Freq\RM062X\def2TZVPP\C3H1F5O2\AKHALILOV\24-May
 -2025\0\\#P Geom=AllCheck Guess=TCheck SCRF=Check GenChk RM062X/def2TZ
 VPP Freq\\Gaussian input prepared by ASE\\0,1\C,-0.0106269967,-0.12348
 8004,0.2899406508\O,1.3060773308,0.0819561264,0.1496551352\C,2.2809502
 832,1.8691422199,1.506734062\C,1.9932812283,1.2906876102,0.0992361706\
 F,3.0000381556,2.9755244372,1.3846415297\F,3.1674208566,1.0140269281,-
 0.4604557952\F,1.3839211846,2.2070653245,-0.6460725094\F,1.1595529116,
 2.1575674949,2.1491770459\F,2.9650315188,0.9845089659,2.2160704015\O,-
 0.6235722428,1.0244564663,0.4088215926\H,-1.56309171,0.8395791233,0.51
 11900069\\Version=ES64L-G16RevC.01\HF=-764.5920262\RMSD=1.423e-09\RMSF
 =4.232e-05\ZeroPoint=0.0515859\Thermal=0.0604197\ETot=-764.5316065\HTo
 t=-764.5306623\GTot=-764.5751349\Dipole=-0.8736607,0.3721452,0.0910724
 \DipoleDeriv=1.6134761,0.0209729,-0.1520691,-0.4109521,0.7394118,0.078
 4597,-0.1998937,0.0465346,-0.1727499,-1.645204,-0.3281017,0.104708,-0.
 7084023,-0.6767968,0.0626523,0.0639686,-0.0479162,-0.319648,1.6062713,
 0.0250397,-0.0239182,0.0336934,1.5789641,-0.097266,0.137886,-0.0310681
 ,1.3215764,1.6495257,0.0020943,-0.0386144,0.2684467,1.3720535,-0.15113
 86,-0.1715636,-0.1829087,1.2657245,-0.5067334,-0.3203842,0.0182529,-0.
 3760673,-0.7660941,0.0312884,-0.074137,-0.0534615,-0.3245653,-0.848402
 2,0.0586598,0.1873671,0.0707462,-0.2947243,-0.0734154,0.3034364,-0.067
 0026,-0.4396488,-0.3890087,0.1458004,-0.1459498,0.0221808,-0.6008766,0
 .1921878,-0.1309735,0.2794526,-0.5197206,-0.6809918,0.0675592,0.184059
 3,0.1020371,-0.3252417,-0.1024409,0.2488568,-0.1131349,-0.4825042,-0.4
 577524,0.1993689,-0.1877359,0.1801787,-0.5257347,0.1669414,-0.251003,0
 .2206064,-0.5262684,-0.7993692,0.1833476,0.0657953,0.8793287,-0.807290
 2,-0.1112555,0.0881876,-0.0568375,-0.1114019,0.4581887,-0.054357,-0.01
 18952,-0.0611898,0.306329,0.0039868,-0.0147647,0.0057358,0.309206\Pola
 r=54.6210696,3.0324121,44.4918489,-0.400341,0.4300028,39.9565616\PG=Un
 known\NImag=0\\0.45813967,-0.02031004,0.49506604,-0.05008476,0.0218348
 8,0.03435988,-0.25933956,-0.03949270,0.02121822,0.51253764,-0.05203235
 ,-0.11473246,0.00160216,0.05898117,0.32938887,0.02601194,0.00322258,-0
 .03345615,-0.04606557,-0.00495564,0.09227397,0.00902252,-0.00900548,-0
 .00340239,-0.01302335,-0.01879925,-0.01221720,0.59949858,-0.00693356,-
 0.00000081,0.00126608,-0.01054307,-0.01987053,-0.01700266,-0.00005197,
 0.60366318,-0.01633059,0.00705529,0.00134966,0.01769474,0.01220185,0.0
 0928007,0.00319901,0.01351260,0.63451687,-0.04045367,-0.03624895,0.006
 78587,-0.10628464,-0.02654885,-0.00862168,-0.04584794,-0.01486076,-0.0
 2715452,0.57803463,-0.07836846,0.00607069,0.01153845,-0.00716403,-0.15
 783167,-0.02227911,-0.01463998,-0.06608287,-0.05830482,-0.03109125,0.5
 3418881,0.01493237,-0.00494462,0.01121983,-0.01746935,-0.02313231,-0.0
 8575663,-0.03432806,-0.06479940,-0.18491564,0.00321999,0.00737310,0.61
 453679,0.00212520,-0.00018266,0.00062492,-0.00252639,-0.00278862,-0.00
 444067,-0.14738671,-0.11119196,-0.00856088,-0.01204541,-0.02099761,0.0
 0827931,0.19158894,0.00600547,-0.00210999,0.00036612,-0.00660407,-0.00
 489743,-0.00741518,-0.11097937,-0.24784995,-0.01318180,-0.02310718,-0.
 03191628,0.01266884,0.16698356,0.33913623,0.00486895,-0.00215733,-0.00
 009538,-0.00652961,-0.00609093,-0.00483312,-0.00254896,-0.00407116,-0.
 08567721,-0.01493495,-0.02164999,0.00721411,-0.02029065,-0.03058445,0.
 07792915,0.01106702,-0.00584403,-0.00083608,-0.07207709,-0.02578990,0.
 02425599,-0.02605476,0.00413840,0.00685191,-0.23620486,0.04914246,0.10
 621024,0.00557061,0.00183081,-0.00083511,0.36500074,0.00629919,-0.0032
 5208,-0.00059857,-0.05088969,-0.00079110,0.01898849,0.01927730,-0.0015
 2787,-0.00639966,0.04578832,-0.08459825,-0.03275057,0.00120406,0.00182
 992,-0.00064458,-0.06785132,0.10163344,-0.00340560,0.00069204,0.000036
 89,0.02095310,0.01040296,0.00720347,0.04534210,-0.00669498,-0.01224596
 ,0.09424896,-0.03205885,-0.14728932,-0.00334568,-0.00196483,-0.0000000
 1,-0.13852520,0.03023909,0.14296980,-0.00621402,0.00579362,-0.00041350
 ,0.02200125,-0.00369209,0.00746158,-0.00708454,0.01694519,-0.00789002,
 -0.12047416,0.06117449,-0.07242492,0.00126523,0.00007102,0.00006136,-0
 .05355369,0.04974379,-0.01732154,0.16855645,0.01554282,-0.00548239,-0.
 00508150,-0.00011925,-0.05814389,0.03469108,0.00465811,-0.00897938,0.0
 0414134,0.06500023,-0.17101513,0.09853286,0.00051054,0.00567833,-0.001
 48255,0.04174226,-0.01711422,0.00620907,-0.11657538,0.24181803,-0.0064
 5405,0.00292503,0.00126391,0.00429740,0.02250410,0.00266847,-0.0217332
 4,0.04137328,-0.01513539,-0.06799124,0.08736061,-0.18297925,-0.0002248
 4,-0.00429276,0.00042094,-0.00400927,-0.00232883,0.02247540,0.09241312
 ,-0.14238623,0.18641052,-0.00794474,0.00495721,0.00219897,0.00913259,0
 .00409080,0.00010962,-0.22473215,0.04937024,0.11160979,-0.01843105,0.0
 0089293,0.00311970,-0.05902212,-0.02674151,0.03275159,0.00149600,0.001
 60789,0.00330790,0.00398664,-0.00158843,0.00250303,0.35260784,0.001867
 79,-0.00072862,-0.00021248,-0.00127624,0.00148142,0.00100347,0.0457623
 1,-0.09344508,-0.04012240,0.01866139,0.00088875,-0.00431640,-0.0411996
 2,0.00721677,0.02268658,0.00172988,-0.00160220,-0.00567957,-0.00307353
 ,0.00231276,-0.00284532,-0.06839398,0.09884441,0.00425180,-0.00216356,
 -0.00137722,-0.00734659,-0.00225677,0.00120927,0.10191682,-0.04013912,
 -0.16630261,0.04318383,-0.00461170,-0.00686359,0.02591266,0.01384404,0
 .00346716,0.00430104,-0.00551142,-0.01266600,-0.00283803,0.00036440,-0
 .00027605,-0.15307871,0.03653618,0.16054551,-0.00068284,0.00127407,0.0
 0049738,0.00137349,-0.00013308,-0.00034711,-0.14194084,0.07104150,-0.0
 8367428,-0.01033932,0.01983388,-0.00726099,0.02084944,-0.00597231,0.00
 861084,0.00552124,-0.00335424,-0.00138518,-0.00118413,-0.00052206,-0.0
 0595193,-0.05645540,0.04868731,-0.01172016,0.18260158,0.00256006,-0.00
 103919,-0.00102911,-0.00192645,0.00273991,-0.00051505,0.07533139,-0.16
 247078,0.08988839,0.00627952,-0.00609708,0.00250747,0.00717148,-0.0699
 7627,0.04142719,-0.00229676,0.00230049,-0.00034387,-0.00023434,0.00208
 826,0.00026165,0.04350175,-0.01543468,0.00346295,-0.12967665,0.2462191
 9,0.00256530,0.00015193,-0.00020181,-0.00213935,-0.00448503,-0.0005586
 6,-0.07843379,0.07911360,-0.18041470,-0.02440729,0.03710125,-0.0140724
 1,0.00284209,0.03110370,0.00169841,0.00097412,-0.00174936,-0.00088938,
 -0.00484567,0.00013725,-0.01333777,0.00244661,-0.00551316,0.02384392,0
 .10173165,-0.13654411,0.18395123,-0.13368184,0.10421200,0.02157062,-0.
 09885337,0.05903622,0.01289415,-0.00185405,0.00259884,0.00538903,0.012
 98865,0.02298813,-0.00541958,-0.00088977,-0.00218828,-0.00148754,-0.00
 179458,-0.00205809,0.00048085,-0.00760728,-0.00987925,0.00790001,-0.00
 074412,-0.00298496,-0.00482923,0.00002286,-0.00072639,-0.00104288,0.72
 509829,0.08025695,-0.37970330,-0.02526626,0.05101023,0.02806133,-0.004
 29945,0.00823943,-0.00378857,-0.00920318,-0.00434451,-0.02098782,0.008
 85875,0.00055266,0.00307145,0.00263875,0.00319279,0.00281536,-0.000747
 23,-0.00865818,0.00918449,-0.00309842,-0.00743539,0.00077838,0.0009868
 7,-0.00117725,0.00171996,0.00074741,-0.03742098,0.42335962,0.01987381,
 -0.02805760,0.00002863,0.01427651,-0.00469425,0.00031102,0.00230552,-0
 .00295980,-0.00104128,-0.00475919,-0.00452101,-0.01242072,-0.00092524,
 -0.00060953,-0.00002703,0.00215521,0.00100415,0.00063097,0.00536815,0.
 00473047,-0.00120304,-0.00484442,-0.00100496,-0.00066130,-0.00054667,0
 .00091522,0.00011489,-0.08544135,0.02224723,0.03672633,-0.03203774,-0.
 00515303,0.00184076,0.00705942,0.00767596,0.00095896,-0.00059677,-0.00
 051284,-0.00113418,-0.00094222,-0.00177056,0.00114128,0.00047098,0.000
 70185,0.00033408,0.00102937,0.00023279,-0.00034971,0.00030824,0.001230
 42,-0.00074901,0.00010650,0.00021964,0.00024656,0.00023391,0.00001638,
 0.00030920,-0.49268477,-0.08421574,0.05253767,0.51705308,0.04511213,0.
 00591210,-0.00441977,0.00802410,-0.00540445,-0.00143854,0.00020751,0.0
 0035267,0.00041238,0.00047205,-0.00261915,0.00000229,-0.00006182,-0.00
 018277,-0.00007154,0.00000543,0.00030651,-0.00005382,-0.00149459,-0.00
 034686,0.00052689,-0.00026151,-0.00031191,-0.00051186,-0.00000116,-0.0
 0004982,-0.00006349,-0.13357725,-0.06451090,0.01295007,0.08157512,0.06
 685459,0.00377082,0.00144136,-0.01312824,0.00111049,-0.00109615,0.0116
 5828,-0.00009980,0.00040157,0.00058619,0.00043021,0.00005208,0.0013268
 4,0.00012899,0.00006584,-0.00009701,-0.00054286,-0.00024874,-0.0002258
 6,0.00042947,0.00014380,-0.00030774,-0.00012409,-0.00053193,-0.0009190
 7,0.00004646,-0.00003074,-0.00013372,0.04998591,0.00713552,-0.02245848
 ,-0.05513560,-0.00733261,0.02369881\\0.00002114,-0.00016087,-0.0000245
 5,-0.00001851,0.00007832,0.00003188,0.00000457,0.00000065,-0.00001198,
 0.00004220,-0.00005972,-0.00001735,0.00000263,-0.00000292,0.00000496,0
 .00000028,0.00000638,-0.00000246,-0.00001451,0.00003579,0.00001422,-0.
 00003500,-0.00000767,-0.00000471,0.00000061,-0.00001227,-0.00000800,-0
 .00002733,0.00011652,0.00002452,0.00002392,0.00000579,-0.00000652\\\@
 The archive entry for this job was punched.


 THE MOST INCOMPREHENSIBLE THING ABOUT THE WORLD
 IS THAT IT IS COMPREHENSIBLE. -- A. EINSTEIN
 Job cpu time:       0 days  0 hours 27 minutes  7.5 seconds.
 Elapsed time:       0 days  0 hours  3 minutes 28.4 seconds.
 File lengths (MBytes):  RWF=    116 Int=      0 D2E=      0 Chk=      9 Scr=      1
 Normal termination of Gaussian 16 at Sat May 24 05:03:58 2025.
done
