 Entering Gaussian System, Link 0=g16
 Initial command:
 /apps/easybuild-2022/easybuild/software/Compiler/NVHPC/22.11-CUDA-11.7.0/Gaussian/g16c01-CUDA-11.7.0/g16/l1.exe "/tmp/Gau-149381.inp" -scrdir="/tmp/"
 Entering Link 1 = /apps/easybuild-2022/easybuild/software/Compiler/NVHPC/22.11-CUDA-11.7.0/Gaussian/g16c01-CUDA-11.7.0/g16/l1.exe PID=    149384.
  
 Copyright (c) 1988-2019, Gaussian, Inc.  All Rights Reserved.
  
 This is part of the Gaussian(R) 16 program.  It is based on
 the Gaussian(R) 09 system (copyright 2009, Gaussian, Inc.),
 the Gaussian(R) 03 system (copyright 2003, Gaussian, Inc.),
 the Gaussian(R) 98 system (copyright 1998, Gaussian, Inc.),
 the Gaussian(R) 94 system (copyright 1995, Gaussian, Inc.),
 the Gaussian 92(TM) system (copyright 1992, Gaussian, Inc.),
 the Gaussian 90(TM) system (copyright 1990, Gaussian, Inc.),
 the Gaussian 88(TM) system (copyright 1988, Gaussian, Inc.),
 the Gaussian 86(TM) system (copyright 1986, Carnegie Mellon
 University), and the Gaussian 82(TM) system (copyright 1983,
 Carnegie Mellon University). Gaussian is a federally registered
 trademark of Gaussian, Inc.
  
 This software contains proprietary and confidential information,
 including trade secrets, belonging to Gaussian, Inc.
  
 This software is provided under written license and may be
 used, copied, transmitted, or stored only in accord with that
 written license.
  
 The following legend is applicable only to US Government
 contracts under FAR:
  
                    RESTRICTED RIGHTS LEGEND
  
 Use, reproduction and disclosure by the US Government is
 subject to restrictions as set forth in subparagraphs (a)
 and (c) of the Commercial Computer Software - Restricted
 Rights clause in FAR 52.227-19.
  
 Gaussian, Inc.
 340 Quinnipiac St., Bldg. 40, Wallingford CT 06492
  
  
 ---------------------------------------------------------------
 Warning -- This program may not be used in any manner that
 competes with the business of Gaussian, Inc. or will provide
 assistance to any competitor of Gaussian, Inc.  The licensee
 of this program is prohibited from giving any competitor of
 Gaussian, Inc. access to this program.  By using this program,
 the user acknowledges that Gaussian, Inc. is engaged in the
 business of creating and licensing software in the field of
 computational chemistry and represents and warrants to the
 licensee that it is not a competitor of Gaussian, Inc. and that
 it will not use this program in any manner prohibited above.
 ---------------------------------------------------------------
  

 Cite this work as:
 Gaussian 16, Revision C.01,
 M. J. Frisch, G. W. Trucks, H. B. Schlegel, G. E. Scuseria, 
 M. A. Robb, J. R. Cheeseman, G. Scalmani, V. Barone, 
 G. A. Petersson, H. Nakatsuji, X. Li, M. Caricato, A. V. Marenich, 
 J. Bloino, B. G. Janesko, R. Gomperts, B. Mennucci, H. P. Hratchian, 
 J. V. Ortiz, A. F. Izmaylov, J. L. Sonnenberg, D. Williams-Young, 
 F. Ding, F. Lipparini, F. Egidi, J. Goings, B. Peng, A. Petrone, 
 T. Henderson, D. Ranasinghe, V. G. Zakrzewski, J. Gao, N. Rega, 
 G. Zheng, W. Liang, M. Hada, M. Ehara, K. Toyota, R. Fukuda, 
 J. Hasegawa, M. Ishida, T. Nakajima, Y. Honda, O. Kitao, H. Nakai, 
 T. Vreven, K. Throssell, J. A. Montgomery, Jr., J. E. Peralta, 
 F. Ogliaro, M. J. Bearpark, J. J. Heyd, E. N. Brothers, K. N. Kudin, 
 V. N. Staroverov, T. A. Keith, R. Kobayashi, J. Normand, 
 K. Raghavachari, A. P. Rendell, J. C. Burant, S. S. Iyengar, 
 J. Tomasi, M. Cossi, J. M. Millam, M. Klene, C. Adamo, R. Cammi, 
 J. W. Ochterski, R. L. Martin, K. Morokuma, O. Farkas, 
 J. B. Foresman, and D. J. Fox, Gaussian, Inc., Wallingford CT, 2019.
 
 ******************************************
 Gaussian 16:  ES64L-G16RevC.01  3-Jul-2019
                24-May-2025 
 ******************************************
 %mem=28GB
 %nprocshared=8
 Will use up to    8 processors via shared memory.
 ----------------------------------------------------------------------
 #P M062X/Def2TZVPP Symm(None) scf(xqc) pop(None) opt(NoFreeze,TS,CalcA
 ll,NoEigentest,MaxCycle=999)
 ----------------------------------------------------------------------
 1/5=1,6=999,10=4,11=1,18=20,26=3,29=2000,38=1/1,3;
 2/9=110,12=2,15=3,17=6,18=5,40=1/2;
 3/5=44,7=202,11=2,25=1,30=1,71=2,74=-55,140=1/1,2,3;
 4//1;
 5/5=2,8=3,13=1,38=5/2,8;
 8/6=4,10=90,11=11/1;
 11/6=1,8=1,9=11,15=111,16=1,31=1/1,2,10;
 10/6=1,31=1/2;
 7/10=1,25=1,30=1/1,2,3,16;
 1/5=1,6=999,10=4,11=1,18=20,26=3/3(3);
 2/9=110,15=3/2;
 7/8=1,9=1,25=1,30=1,44=-1/16;
 99//99;
 2/9=110,15=3/2;
 3/5=44,7=202,11=2,25=1,30=1,71=2,74=-55,140=1/1,2,3;
 4/5=5,16=3,69=1/1;
 5/5=2,8=3,13=1,38=5/2,8;
 8/6=4,10=90,11=11/1;
 11/6=1,8=1,9=11,15=111,16=1,31=1/1,2,10;
 10/6=1,31=1/2;
 7/10=1,25=1,30=1/1,2,3,16;
 1/5=1,6=999,10=4,11=1,18=20,26=3/3(-8);
 2/9=110,15=3/2;
 7/8=1,9=1,25=1,30=1,44=-1/16;
 99//99;
 Leave Link    1 at Sat May 24 05:26:52 2025, MaxMem=  3758096384 cpu:               0.1 elap:               0.0
 (Enter /apps/easybuild-2022/easybuild/software/Compiler/NVHPC/22.11-CUDA-11.7.0/Gaussian/g16c01-CUDA-11.7.0/g16/l101.exe)
 ------------------------------
 Gaussian input prepared by ASE
 ------------------------------
 Symbolic Z-matrix:
 Charge =  0 Multiplicity = 1
 C                     2.20652   0.        0. 
 O                     2.62957  -0.95335  -0.53346 
 C                     0.        0.        0. 
 C                     0.93265  -0.11513   1.43178 
 F                     0.44846   0.96375   2.04548 
 F                     0.4317   -1.28235   1.83603 
 F                     2.21353  -0.19612   2.12339 
 F                     0.0147    1.09721  -0.709 
 F                    -0.01325  -1.01772  -0.80429 
 O                     2.5995    1.25198   0. 
 H                     1.90965   1.80286  -0.40316 
 
 Add virtual bond connecting atoms C4         and C1         Dist= 3.63D+00.
 Add virtual bond connecting atoms F8         and H11        Dist= 3.86D+00.
 ITRead=  0  0  0  0  0  0  0  0  0  0  0
 MicOpt= -1 -1 -1 -1 -1 -1 -1 -1 -1 -1 -1
 NAtoms=     11 NQM=       11 NQMF=       0 NMMI=      0 NMMIF=      0
                NMic=       0 NMicF=      0.
                    Isotopes and Nuclear Properties:
 (Nuclear quadrupole moments (NQMom) in fm**2, nuclear magnetic moments (NMagM)
  in nuclear magnetons)

  Atom         1           2           3           4           5           6           7           8           9          10
 IAtWgt=          12          16          12          12          19          19          19          19          19          16
 AtmWgt=  12.0000000  15.9949146  12.0000000  12.0000000  18.9984032  18.9984032  18.9984032  18.9984032  18.9984032  15.9949146
 NucSpn=           0           0           0           0           1           1           1           1           1           0
 AtZEff=  -0.0000000  -0.0000000  -0.0000000  -0.0000000  -0.0000000  -0.0000000  -0.0000000  -0.0000000  -0.0000000  -0.0000000
 NQMom=    0.0000000   0.0000000   0.0000000   0.0000000   0.0000000   0.0000000   0.0000000   0.0000000   0.0000000   0.0000000
 NMagM=    0.0000000   0.0000000   0.0000000   0.0000000   2.6288670   2.6288670   2.6288670   2.6288670   2.6288670   0.0000000
 AtZNuc=   6.0000000   8.0000000   6.0000000   6.0000000   9.0000000   9.0000000   9.0000000   9.0000000   9.0000000   8.0000000

  Atom        11
 IAtWgt=           1
 AtmWgt=   1.0078250
 NucSpn=           1
 AtZEff=  -0.0000000
 NQMom=    0.0000000
 NMagM=    2.7928460
 AtZNuc=   1.0000000
 Leave Link  101 at Sat May 24 05:26:53 2025, MaxMem=  3758096384 cpu:               0.2 elap:               0.2
 (Enter /apps/easybuild-2022/easybuild/software/Compiler/NVHPC/22.11-CUDA-11.7.0/Gaussian/g16c01-CUDA-11.7.0/g16/l103.exe)

 GradGradGradGradGradGradGradGradGradGradGradGradGradGradGradGradGradGrad
 Berny optimization.
 Initialization pass.
                           ----------------------------
                           !    Initial Parameters    !
                           ! (Angstroms and Degrees)  !
 --------------------------                            --------------------------
 ! Name  Definition              Value          Derivative Info.                !
 --------------------------------------------------------------------------------
 ! R1    R(1,2)                  1.1715         calculate D2E/DX2 analytically  !
 ! R2    R(1,4)                  1.9199         calculate D2E/DX2 analytically  !
 ! R3    R(1,10)                 1.3122         calculate D2E/DX2 analytically  !
 ! R4    R(3,4)                  1.7126         calculate D2E/DX2 analytically  !
 ! R5    R(3,8)                  1.3064         calculate D2E/DX2 analytically  !
 ! R6    R(3,9)                  1.2972         calculate D2E/DX2 analytically  !
 ! R7    R(4,5)                  1.3323         calculate D2E/DX2 analytically  !
 ! R8    R(4,6)                  1.333          calculate D2E/DX2 analytically  !
 ! R9    R(4,7)                  1.4579         calculate D2E/DX2 analytically  !
 ! R10   R(8,11)                 2.0451         calculate D2E/DX2 analytically  !
 ! R11   R(10,11)                0.9705         calculate D2E/DX2 analytically  !
 ! A1    A(2,1,4)              122.0322         calculate D2E/DX2 analytically  !
 ! A2    A(2,1,10)             131.9348         calculate D2E/DX2 analytically  !
 ! A3    A(4,1,10)             104.8281         calculate D2E/DX2 analytically  !
 ! A4    A(4,3,8)              120.2671         calculate D2E/DX2 analytically  !
 ! A5    A(4,3,9)              118.1096         calculate D2E/DX2 analytically  !
 ! A6    A(8,3,9)              108.8162         calculate D2E/DX2 analytically  !
 ! A7    A(1,4,3)               74.5637         calculate D2E/DX2 analytically  !
 ! A8    A(1,4,5)              122.418          calculate D2E/DX2 analytically  !
 ! A9    A(1,4,6)              121.873          calculate D2E/DX2 analytically  !
 ! A10   A(1,4,7)               76.948          calculate D2E/DX2 analytically  !
 ! A11   A(3,4,5)               97.6285         calculate D2E/DX2 analytically  !
 ! A12   A(3,4,6)               96.1854         calculate D2E/DX2 analytically  !
 ! A13   A(3,4,7)              151.4938         calculate D2E/DX2 analytically  !
 ! A14   A(5,4,6)              115.6468         calculate D2E/DX2 analytically  !
 ! A15   A(5,4,7)               98.3812         calculate D2E/DX2 analytically  !
 ! A16   A(6,4,7)               97.9131         calculate D2E/DX2 analytically  !
 ! A17   A(3,8,11)             102.6534         calculate D2E/DX2 analytically  !
 ! A18   A(1,10,11)            109.1893         calculate D2E/DX2 analytically  !
 ! A19   A(8,11,10)            121.6618         calculate D2E/DX2 analytically  !
 ! D1    D(2,1,4,3)            -90.8306         calculate D2E/DX2 analytically  !
 ! D2    D(2,1,4,5)            179.8694         calculate D2E/DX2 analytically  !
 ! D3    D(2,1,4,6)             -3.127          calculate D2E/DX2 analytically  !
 ! D4    D(2,1,4,7)             88.1489         calculate D2E/DX2 analytically  !
 ! D5    D(10,1,4,3)           100.3285         calculate D2E/DX2 analytically  !
 ! D6    D(10,1,4,5)            11.0284         calculate D2E/DX2 analytically  !
 ! D7    D(10,1,4,6)          -171.968          calculate D2E/DX2 analytically  !
 ! D8    D(10,1,4,7)           -80.6921         calculate D2E/DX2 analytically  !
 ! D9    D(2,1,10,11)          116.163          calculate D2E/DX2 analytically  !
 ! D10   D(4,1,10,11)          -76.5783         calculate D2E/DX2 analytically  !
 ! D11   D(8,3,4,1)            -66.7684         calculate D2E/DX2 analytically  !
 ! D12   D(8,3,4,5)             54.8417         calculate D2E/DX2 analytically  !
 ! D13   D(8,3,4,6)            171.8268         calculate D2E/DX2 analytically  !
 ! D14   D(8,3,4,7)            -68.852          calculate D2E/DX2 analytically  !
 ! D15   D(9,3,4,1)             70.5477         calculate D2E/DX2 analytically  !
 ! D16   D(9,3,4,5)           -167.8422         calculate D2E/DX2 analytically  !
 ! D17   D(9,3,4,6)            -50.857          calculate D2E/DX2 analytically  !
 ! D18   D(9,3,4,7)             68.4642         calculate D2E/DX2 analytically  !
 ! D19   D(4,3,8,11)            31.7191         calculate D2E/DX2 analytically  !
 ! D20   D(9,3,8,11)          -109.1017         calculate D2E/DX2 analytically  !
 ! D21   D(3,8,11,10)           13.0203         calculate D2E/DX2 analytically  !
 ! D22   D(1,10,11,8)           14.2208         calculate D2E/DX2 analytically  !
 --------------------------------------------------------------------------------
 Trust Radius=3.00D-01 FncErr=1.00D-07 GrdErr=1.00D-06 EigMax=2.50D+02 EigMin=1.00D-04
 Number of steps in this run=    100 maximum allowed number of steps=    100.
 Search for a saddle point of order  1.
 GradGradGradGradGradGradGradGradGradGradGradGradGradGradGradGradGradGrad

 Leave Link  103 at Sat May 24 05:26:53 2025, MaxMem=  3758096384 cpu:               0.0 elap:               0.0
 (Enter /apps/easybuild-2022/easybuild/software/Compiler/NVHPC/22.11-CUDA-11.7.0/Gaussian/g16c01-CUDA-11.7.0/g16/l202.exe)
                          Input orientation:                          
 ---------------------------------------------------------------------
 Center     Atomic      Atomic             Coordinates (Angstroms)
 Number     Number       Type             X           Y           Z
 ---------------------------------------------------------------------
      1          6           0        2.206522    0.000000    0.000000
      2          8           0        2.629574   -0.953351   -0.533456
      3          6           0        0.000000    0.000000    0.000000
      4          6           0        0.932646   -0.115127    1.431780
      5          9           0        0.448461    0.963754    2.045480
      6          9           0        0.431696   -1.282349    1.836031
      7          9           0        2.213532   -0.196117    2.123391
      8          9           0        0.014698    1.097214   -0.708995
      9          9           0       -0.013252   -1.017724   -0.804295
     10          8           0        2.599501    1.251982    0.000000
     11          1           0        1.909653    1.802857   -0.403156
 ---------------------------------------------------------------------
                    Distance matrix (angstroms):
                    1          2          3          4          5
     1  C    0.000000
     2  O    1.171507   0.000000
     3  C    2.206522   2.847475   0.000000
     4  C    1.919898   2.728432   1.712623   0.000000
     5  F    2.864191   3.883743   2.305196   1.332308   0.000000
     6  F    2.857523   3.248596   2.280743   1.332958   2.255909
     7  F    2.132440   2.793803   3.073593   1.457927   2.113491
     8  F    2.551597   3.327643   1.306434   2.625894   2.791611
     9  F    2.571001   2.657447   1.297239   2.590258   3.501521
    10  O    1.312209   2.269136   2.885284   2.587931   2.982287
    11  H    1.871085   2.851657   2.656991   2.828461   2.972371
                    6          7          8          9         10
     6  F    0.000000
     7  F    2.106517   0.000000
     8  F    3.509040   3.811822   0.000000
     9  F    2.690599   3.768945   2.117269   0.000000
    10  O    3.806996   2.598990   2.684740   3.553158   0.000000
    11  H    4.088619   3.235997   2.045073   3.437172   0.970509
                   11
    11  H    0.000000
 Symmetry turned off by external request.
 Stoichiometry    C3HF5O2
 Rotational constants (GHZ):           1.5713163           1.3906656           1.2078979
 Leave Link  202 at Sat May 24 05:26:53 2025, MaxMem=  3758096384 cpu:               0.1 elap:               0.0
 (Enter /apps/easybuild-2022/easybuild/software/Compiler/NVHPC/22.11-CUDA-11.7.0/Gaussian/g16c01-CUDA-11.7.0/g16/l301.exe)
 Standard basis: def2TZVPP (5D, 7F)
 Ernie: Thresh=  0.10000D-02 Tol=  0.10000D-05 Strict=F.
   324 basis functions,   527 primitive gaussians,   375 cartesian basis functions
    40 alpha electrons       40 beta electrons
       nuclear repulsion energy       640.0760515815 Hartrees.
 IExCor= 4336 DFT=T Ex+Corr=M062X ExCW=0 ScaHFX=  0.540000
 ScaDFX=  1.000000  1.000000  1.000000  1.000000 ScalE2=  1.000000  1.000000
 IRadAn=      5 IRanWt=     -1 IRanGd=            0 ICorTp=0 IEmpDi=  4
 NAtoms=   11 NActive=   11 NUniq=   11 SFac= 1.00D+00 NAtFMM=   60 NAOKFM=F Big=F
 Integral buffers will be    131072 words long.
 Raffenetti 2 integral format.
 Two-electron integral symmetry is turned off.
 Leave Link  301 at Sat May 24 05:26:53 2025, MaxMem=  3758096384 cpu:               0.1 elap:               0.1
 (Enter /apps/easybuild-2022/easybuild/software/Compiler/NVHPC/22.11-CUDA-11.7.0/Gaussian/g16c01-CUDA-11.7.0/g16/l302.exe)
 NPDir=0 NMtPBC=     1 NCelOv=     1 NCel=       1 NClECP=     1 NCelD=      1
         NCelK=      1 NCelE2=     1 NClLst=     1 CellRange=     0.0.
 One-electron integrals computed using PRISM.
   1 Symmetry operations used in ECPInt.
 ECPInt:  NShTT=    6786 NPrTT=   21959 LenC2=    6524 LenP2D=   16111.
 LDataN:  DoStor=T MaxTD1= 6 Len=  172
 NBasis=   324 RedAO= T EigKep=  5.97D-04  NBF=   324
 NBsUse=   324 1.00D-06 EigRej= -1.00D+00 NBFU=   324
 Precomputing XC quadrature grid using
 IXCGrd= 4 IRadAn=           5 IRanWt=          -1 IRanGd=           0 AccXCQ= 0.00D+00.
 Generated NRdTot=       0 NPtTot=           0 NUsed=           0 NTot=          32
 NSgBfM=   372   372   372   372   372 MxSgAt=    11 MxSgA2=    11.
 Leave Link  302 at Sat May 24 05:26:53 2025, MaxMem=  3758096384 cpu:               1.0 elap:               0.2
 (Enter /apps/easybuild-2022/easybuild/software/Compiler/NVHPC/22.11-CUDA-11.7.0/Gaussian/g16c01-CUDA-11.7.0/g16/l303.exe)
 DipDrv:  MaxL=1.
 Leave Link  303 at Sat May 24 05:26:53 2025, MaxMem=  3758096384 cpu:               0.1 elap:               0.1
 (Enter /apps/easybuild-2022/easybuild/software/Compiler/NVHPC/22.11-CUDA-11.7.0/Gaussian/g16c01-CUDA-11.7.0/g16/l401.exe)
 ExpMin= 9.52D-02 ExpMax= 3.55D+04 ExpMxC= 1.21D+03 IAcc=3 IRadAn=         5 AccDes= 0.00D+00
 Harris functional with IExCor= 1009 and IRadAn=       5 diagonalized for initial guess.
 HarFok:  IExCor= 1009 AccDes= 0.00D+00 IRadAn=         5 IDoV= 1 UseB2=F ITyADJ=14
 ICtDFT=  3500011 ScaDFX=  1.000000  1.000000  1.000000  1.000000
 FoFCou: FMM=F IPFlag=           0 FMFlag=      100000 FMFlg1=           0
         NFxFlg=           0 DoJE=T BraDBF=F KetDBF=T FulRan=T
         wScrn=  0.000000 ICntrl=       500 IOpCl=  0 I1Cent=   200000004 NGrid=           0
         NMat0=    1 NMatS0=      1 NMatT0=    0 NMatD0=    1 NMtDS0=    0 NMtDT0=    0
 Symmetry not used in FoFCou.
 Harris En= -764.016746826848    
 JPrj=0 DoOrth=F DoCkMO=F.
 Leave Link  401 at Sat May 24 05:26:54 2025, MaxMem=  3758096384 cpu:               4.0 elap:               0.6
 (Enter /apps/easybuild-2022/easybuild/software/Compiler/NVHPC/22.11-CUDA-11.7.0/Gaussian/g16c01-CUDA-11.7.0/g16/l502.exe)
 Keep R1 ints in memory in canonical form, NReq=1412617152.
 FoFCou: FMM=F IPFlag=           0 FMFlag=           0 FMFlg1=           0
         NFxFlg=           0 DoJE=F BraDBF=F KetDBF=F FulRan=T
         wScrn=  0.000000 ICntrl=       600 IOpCl=  0 I1Cent=           0 NGrid=           0
         NMat0=    1 NMatS0=  52650 NMatT0=    0 NMatD0=    1 NMtDS0=    0 NMtDT0=    0
 Symmetry not used in FoFCou.
 Two-electron integral symmetry not used.
 Closed shell SCF:
 Using DIIS extrapolation, IDIIS=  1040.
 NGot=  3758096384 LenX=  2371771902 LenY=  2371630836
 Requested convergence on RMS density matrix=1.00D-08 within  32 cycles.
 Requested convergence on MAX density matrix=1.00D-06.
 Requested convergence on             energy=1.00D-06.
 No special actions if energy rises.
 Integral accuracy reduced to 1.0D-05 until final iterations.

 Cycle   1  Pass 0  IDiag  1:
 E= -764.247081542322    
 DIIS: error= 1.75D-02 at cycle   1 NSaved=   1.
 NSaved= 1 IEnMin= 1 EnMin= -764.247081542322     IErMin= 1 ErrMin= 1.75D-02
 ErrMax= 1.75D-02  0.00D+00 EMaxC= 1.00D-01 BMatC= 3.85D-01 BMatP= 3.85D-01
 IDIUse=3 WtCom= 8.25D-01 WtEn= 1.75D-01
 Coeff-Com:  0.100D+01
 Coeff-En:   0.100D+01
 Coeff:      0.100D+01
 Gap=     0.269 Goal=   None    Shift=    0.000
 GapD=    0.269 DampG=1.000 DampE=0.500 DampFc=0.5000 IDamp=-1.
 Damping current iteration by 5.00D-01
 RMSDP=2.25D-03 MaxDP=1.01D-01              OVMax= 2.91D-01

 Cycle   2  Pass 0  IDiag  1:
 E= -764.297919638539     Delta-E=       -0.050838096217 Rises=F Damp=T
 DIIS: error= 7.05D-03 at cycle   2 NSaved=   2.
 NSaved= 2 IEnMin= 2 EnMin= -764.297919638539     IErMin= 2 ErrMin= 7.05D-03
 ErrMax= 7.05D-03  0.00D+00 EMaxC= 1.00D-01 BMatC= 5.52D-02 BMatP= 3.85D-01
 IDIUse=3 WtCom= 9.29D-01 WtEn= 7.05D-02
 Coeff-Com:  0.145D+00 0.855D+00
 Coeff-En:   0.357D+00 0.643D+00
 Coeff:      0.160D+00 0.840D+00
 Gap=     0.315 Goal=   None    Shift=    0.000
 RMSDP=7.31D-04 MaxDP=2.17D-02 DE=-5.08D-02 OVMax= 1.50D-01

 Cycle   3  Pass 0  IDiag  1:
 E= -764.434829497779     Delta-E=       -0.136909859240 Rises=F Damp=F
 DIIS: error= 4.39D-03 at cycle   3 NSaved=   3.
 NSaved= 3 IEnMin= 3 EnMin= -764.434829497779     IErMin= 3 ErrMin= 4.39D-03
 ErrMax= 4.39D-03  0.00D+00 EMaxC= 1.00D-01 BMatC= 1.77D-02 BMatP= 5.52D-02
 IDIUse=3 WtCom= 9.56D-01 WtEn= 4.39D-02
 Coeff-Com: -0.606D-01 0.319D+00 0.742D+00
 Coeff-En:   0.000D+00 0.000D+00 0.100D+01
 Coeff:     -0.580D-01 0.305D+00 0.753D+00
 Gap=     0.254 Goal=   None    Shift=    0.000
 RMSDP=3.26D-04 MaxDP=1.81D-02 DE=-1.37D-01 OVMax= 4.35D-02

 Cycle   4  Pass 0  IDiag  1:
 E= -764.444220782457     Delta-E=       -0.009391284677 Rises=F Damp=F
 DIIS: error= 2.48D-03 at cycle   4 NSaved=   4.
 NSaved= 4 IEnMin= 4 EnMin= -764.444220782457     IErMin= 4 ErrMin= 2.48D-03
 ErrMax= 2.48D-03  0.00D+00 EMaxC= 1.00D-01 BMatC= 5.91D-03 BMatP= 1.77D-02
 IDIUse=3 WtCom= 9.75D-01 WtEn= 2.48D-02
 Coeff-Com: -0.497D-01 0.990D-01 0.438D+00 0.513D+00
 Coeff-En:   0.000D+00 0.000D+00 0.206D+00 0.794D+00
 Coeff:     -0.485D-01 0.965D-01 0.432D+00 0.520D+00
 Gap=     0.255 Goal=   None    Shift=    0.000
 RMSDP=1.21D-04 MaxDP=6.01D-03 DE=-9.39D-03 OVMax= 1.61D-02

 Cycle   5  Pass 0  IDiag  1:
 E= -764.447961854763     Delta-E=       -0.003741072306 Rises=F Damp=F
 DIIS: error= 3.20D-04 at cycle   5 NSaved=   5.
 NSaved= 5 IEnMin= 5 EnMin= -764.447961854763     IErMin= 5 ErrMin= 3.20D-04
 ErrMax= 3.20D-04  0.00D+00 EMaxC= 1.00D-01 BMatC= 1.12D-04 BMatP= 5.91D-03
 IDIUse=3 WtCom= 9.97D-01 WtEn= 3.20D-03
 Coeff-Com: -0.142D-01 0.215D-01 0.116D+00 0.194D+00 0.682D+00
 Coeff-En:   0.000D+00 0.000D+00 0.000D+00 0.000D+00 0.100D+01
 Coeff:     -0.141D-01 0.215D-01 0.115D+00 0.194D+00 0.683D+00
 Gap=     0.255 Goal=   None    Shift=    0.000
 RMSDP=3.13D-05 MaxDP=1.24D-03 DE=-3.74D-03 OVMax= 3.98D-03

 Cycle   6  Pass 0  IDiag  1:
 E= -764.448049842657     Delta-E=       -0.000087987894 Rises=F Damp=F
 DIIS: error= 1.47D-04 at cycle   6 NSaved=   6.
 NSaved= 6 IEnMin= 6 EnMin= -764.448049842657     IErMin= 6 ErrMin= 1.47D-04
 ErrMax= 1.47D-04  0.00D+00 EMaxC= 1.00D-01 BMatC= 1.48D-05 BMatP= 1.12D-04
 IDIUse=3 WtCom= 9.99D-01 WtEn= 1.47D-03
 Coeff-Com: -0.215D-02 0.139D-02 0.101D-01 0.334D-01 0.289D+00 0.668D+00
 Coeff-En:   0.000D+00 0.000D+00 0.000D+00 0.000D+00 0.000D+00 0.100D+01
 Coeff:     -0.215D-02 0.139D-02 0.101D-01 0.334D-01 0.289D+00 0.668D+00
 Gap=     0.255 Goal=   None    Shift=    0.000
 RMSDP=1.31D-05 MaxDP=4.47D-04 DE=-8.80D-05 OVMax= 2.33D-03

 Cycle   7  Pass 0  IDiag  1:
 E= -764.448063374830     Delta-E=       -0.000013532173 Rises=F Damp=F
 DIIS: error= 4.72D-05 at cycle   7 NSaved=   7.
 NSaved= 7 IEnMin= 7 EnMin= -764.448063374830     IErMin= 7 ErrMin= 4.72D-05
 ErrMax= 4.72D-05  0.00D+00 EMaxC= 1.00D-01 BMatC= 3.01D-06 BMatP= 1.48D-05
 IDIUse=1 WtCom= 1.00D+00 WtEn= 0.00D+00
 Coeff-Com:  0.189D-02-0.384D-02-0.211D-01-0.287D-01-0.803D-02 0.314D+00
 Coeff-Com:  0.746D+00
 Coeff:      0.189D-02-0.384D-02-0.211D-01-0.287D-01-0.803D-02 0.314D+00
 Coeff:      0.746D+00
 Gap=     0.255 Goal=   None    Shift=    0.000
 RMSDP=5.83D-06 MaxDP=1.64D-04 DE=-1.35D-05 OVMax= 6.14D-04

 Initial convergence to 1.0D-05 achieved.  Increase integral accuracy.
 Cycle   8  Pass 1  IDiag  1:
 E= -764.448014107707     Delta-E=        0.000049267123 Rises=F Damp=F
 DIIS: error= 2.88D-05 at cycle   1 NSaved=   1.
 NSaved= 1 IEnMin= 1 EnMin= -764.448014107707     IErMin= 1 ErrMin= 2.88D-05
 ErrMax= 2.88D-05  0.00D+00 EMaxC= 1.00D-01 BMatC= 9.65D-07 BMatP= 9.65D-07
 IDIUse=1 WtCom= 1.00D+00 WtEn= 0.00D+00
 Coeff-Com:  0.100D+01
 Coeff:      0.100D+01
 Gap=     0.255 Goal=   None    Shift=    0.000
 RMSDP=5.83D-06 MaxDP=1.64D-04 DE= 4.93D-05 OVMax= 3.45D-04

 Cycle   9  Pass 1  IDiag  1:
 E= -764.448014785343     Delta-E=       -0.000000677636 Rises=F Damp=F
 DIIS: error= 1.47D-05 at cycle   2 NSaved=   2.
 NSaved= 2 IEnMin= 2 EnMin= -764.448014785343     IErMin= 2 ErrMin= 1.47D-05
 ErrMax= 1.47D-05  0.00D+00 EMaxC= 1.00D-01 BMatC= 2.58D-07 BMatP= 9.65D-07
 IDIUse=1 WtCom= 1.00D+00 WtEn= 0.00D+00
 Coeff-Com:  0.256D+00 0.744D+00
 Coeff:      0.256D+00 0.744D+00
 Gap=     0.255 Goal=   None    Shift=    0.000
 RMSDP=2.03D-06 MaxDP=5.71D-05 DE=-6.78D-07 OVMax= 3.16D-04

 Cycle  10  Pass 1  IDiag  1:
 E= -764.448014871286     Delta-E=       -0.000000085942 Rises=F Damp=F
 DIIS: error= 1.16D-05 at cycle   3 NSaved=   3.
 NSaved= 3 IEnMin= 3 EnMin= -764.448014871286     IErMin= 3 ErrMin= 1.16D-05
 ErrMax= 1.16D-05  0.00D+00 EMaxC= 1.00D-01 BMatC= 1.79D-07 BMatP= 2.58D-07
 IDIUse=1 WtCom= 1.00D+00 WtEn= 0.00D+00
 Coeff-Com: -0.331D-01 0.457D+00 0.576D+00
 Coeff:     -0.331D-01 0.457D+00 0.576D+00
 Gap=     0.255 Goal=   None    Shift=    0.000
 RMSDP=9.79D-07 MaxDP=2.76D-05 DE=-8.59D-08 OVMax= 1.50D-04

 Cycle  11  Pass 1  IDiag  1:
 E= -764.448015004493     Delta-E=       -0.000000133207 Rises=F Damp=F
 DIIS: error= 2.50D-06 at cycle   4 NSaved=   4.
 NSaved= 4 IEnMin= 4 EnMin= -764.448015004493     IErMin= 4 ErrMin= 2.50D-06
 ErrMax= 2.50D-06  0.00D+00 EMaxC= 1.00D-01 BMatC= 4.60D-09 BMatP= 1.79D-07
 IDIUse=1 WtCom= 1.00D+00 WtEn= 0.00D+00
 Coeff-Com: -0.237D-01 0.158D+00 0.226D+00 0.640D+00
 Coeff:     -0.237D-01 0.158D+00 0.226D+00 0.640D+00
 Gap=     0.255 Goal=   None    Shift=    0.000
 RMSDP=1.83D-07 MaxDP=1.26D-05 DE=-1.33D-07 OVMax= 2.39D-05

 Cycle  12  Pass 1  IDiag  1:
 E= -764.448015008421     Delta-E=       -0.000000003928 Rises=F Damp=F
 DIIS: error= 1.32D-06 at cycle   5 NSaved=   5.
 NSaved= 5 IEnMin= 5 EnMin= -764.448015008421     IErMin= 5 ErrMin= 1.32D-06
 ErrMax= 1.32D-06  0.00D+00 EMaxC= 1.00D-01 BMatC= 1.43D-09 BMatP= 4.60D-09
 IDIUse=1 WtCom= 1.00D+00 WtEn= 0.00D+00
 Coeff-Com: -0.382D-02-0.338D-01-0.355D-01 0.332D+00 0.741D+00
 Coeff:     -0.382D-02-0.338D-01-0.355D-01 0.332D+00 0.741D+00
 Gap=     0.255 Goal=   None    Shift=    0.000
 RMSDP=1.26D-07 MaxDP=6.13D-06 DE=-3.93D-09 OVMax= 1.93D-05

 Cycle  13  Pass 1  IDiag  1:
 E= -764.448015009909     Delta-E=       -0.000000001488 Rises=F Damp=F
 DIIS: error= 4.25D-07 at cycle   6 NSaved=   6.
 NSaved= 6 IEnMin= 6 EnMin= -764.448015009909     IErMin= 6 ErrMin= 4.25D-07
 ErrMax= 4.25D-07  0.00D+00 EMaxC= 1.00D-01 BMatC= 1.40D-10 BMatP= 1.43D-09
 IDIUse=1 WtCom= 1.00D+00 WtEn= 0.00D+00
 Coeff-Com:  0.344D-02-0.466D-01-0.606D-01 0.217D-01 0.290D+00 0.792D+00
 Coeff:      0.344D-02-0.466D-01-0.606D-01 0.217D-01 0.290D+00 0.792D+00
 Gap=     0.255 Goal=   None    Shift=    0.000
 RMSDP=5.70D-08 MaxDP=2.18D-06 DE=-1.49D-09 OVMax= 7.41D-06

 Cycle  14  Pass 1  IDiag  1:
 E= -764.448015010146     Delta-E=       -0.000000000237 Rises=F Damp=F
 DIIS: error= 1.48D-07 at cycle   7 NSaved=   7.
 NSaved= 7 IEnMin= 7 EnMin= -764.448015010146     IErMin= 7 ErrMin= 1.48D-07
 ErrMax= 1.48D-07  0.00D+00 EMaxC= 1.00D-01 BMatC= 1.98D-11 BMatP= 1.40D-10
 IDIUse=1 WtCom= 1.00D+00 WtEn= 0.00D+00
 Coeff-Com:  0.180D-02-0.183D-01-0.236D-01-0.995D-02 0.707D-01 0.356D+00
 Coeff-Com:  0.623D+00
 Coeff:      0.180D-02-0.183D-01-0.236D-01-0.995D-02 0.707D-01 0.356D+00
 Coeff:      0.623D+00
 Gap=     0.255 Goal=   None    Shift=    0.000
 RMSDP=1.54D-08 MaxDP=5.67D-07 DE=-2.37D-10 OVMax= 2.00D-06

 Cycle  15  Pass 1  IDiag  1:
 E= -764.448015010207     Delta-E=       -0.000000000060 Rises=F Damp=F
 DIIS: error= 4.96D-08 at cycle   8 NSaved=   8.
 NSaved= 8 IEnMin= 8 EnMin= -764.448015010207     IErMin= 8 ErrMin= 4.96D-08
 ErrMax= 4.96D-08  0.00D+00 EMaxC= 1.00D-01 BMatC= 3.00D-12 BMatP= 1.98D-11
 IDIUse=1 WtCom= 1.00D+00 WtEn= 0.00D+00
 Coeff-Com: -0.765D-04 0.335D-02 0.490D-02-0.113D-01-0.472D-01-0.254D-01
 Coeff-Com:  0.269D+00 0.807D+00
 Coeff:     -0.765D-04 0.335D-02 0.490D-02-0.113D-01-0.472D-01-0.254D-01
 Coeff:      0.269D+00 0.807D+00
 Gap=     0.255 Goal=   None    Shift=    0.000
 RMSDP=8.29D-09 MaxDP=3.58D-07 DE=-6.05D-11 OVMax= 1.13D-06

 SCF Done:  E(RM062X) =  -764.448015010     A.U. after   15 cycles
            NFock= 15  Conv=0.83D-08     -V/T= 2.0036
 KE= 7.617118967177D+02 PE=-3.092082862956D+03 EE= 9.258468996471D+02
 Leave Link  502 at Sat May 24 05:27:24 2025, MaxMem=  3758096384 cpu:             127.4 elap:              30.4
 (Enter /apps/easybuild-2022/easybuild/software/Compiler/NVHPC/22.11-CUDA-11.7.0/Gaussian/g16c01-CUDA-11.7.0/g16/l508.exe)
 QCSCF skips out because SCF is already converged.
 Leave Link  508 at Sat May 24 05:27:24 2025, MaxMem=  3758096384 cpu:               0.1 elap:               0.0
 (Enter /apps/easybuild-2022/easybuild/software/Compiler/NVHPC/22.11-CUDA-11.7.0/Gaussian/g16c01-CUDA-11.7.0/g16/l801.exe)
 DoSCS=F DFT=T ScalE2(SS,OS)=  1.000000  1.000000
 Range of M.O.s used for correlation:     1   324
 NBasis=   324 NAE=    40 NBE=    40 NFC=     0 NFV=     0
 NROrb=    324 NOA=    40 NOB=    40 NVA=   284 NVB=   284

 **** Warning!!: The largest alpha MO coefficient is  0.13229634D+02

 Leave Link  801 at Sat May 24 05:27:24 2025, MaxMem=  3758096384 cpu:               0.1 elap:               0.0
 (Enter /apps/easybuild-2022/easybuild/software/Compiler/NVHPC/22.11-CUDA-11.7.0/Gaussian/g16c01-CUDA-11.7.0/g16/l1101.exe)
 Using compressed storage, NAtomX=    11.
 Will process     12 centers per pass.
   1 Symmetry operations used in ECPInt.
 ECPInt:  NShTT=    6786 NPrTT=   21959 LenC2=    6524 LenP2D=   16111.
 LDataN:  DoStor=T MaxTD1= 7 Len=  274
 Leave Link 1101 at Sat May 24 05:27:25 2025, MaxMem=  3758096384 cpu:               1.3 elap:               0.4
 (Enter /apps/easybuild-2022/easybuild/software/Compiler/NVHPC/22.11-CUDA-11.7.0/Gaussian/g16c01-CUDA-11.7.0/g16/l1102.exe)
 Symmetrizing basis deriv contribution to polar:
 IMax=3 JMax=2 DiffMx= 0.00D+00
 Leave Link 1102 at Sat May 24 05:27:25 2025, MaxMem=  3758096384 cpu:               0.1 elap:               0.0
 (Enter /apps/easybuild-2022/easybuild/software/Compiler/NVHPC/22.11-CUDA-11.7.0/Gaussian/g16c01-CUDA-11.7.0/g16/l1110.exe)
 Forming Gx(P) for the SCF density, NAtomX=    11.
 Integral derivatives from FoFJK, PRISM(SPDF).
 Do as many integral derivatives as possible in FoFJK.
 G2DrvN: MDV=    3758095093.
 G2DrvN: will do    12 centers at a time, making    1 passes.
 Calling FoFCou, ICntrl=  3107 FMM=F I1Cent=   0 AccDes= 0.00D+00.
 FoFJK:  IHMeth= 1 ICntrl=    3107 DoSepK=F KAlg= 0 I1Cent=           0 FoldK=F
 IRaf=         0 NMat=       1 IRICut=       1 DoRegI=T DoRafI=F ISym2E= 0 IDoP0=0 IntGTp=1.
 FoFCou: FMM=F IPFlag=           0 FMFlag=      100000 FMFlg1=           0
         NFxFlg=           0 DoJE=F BraDBF=F KetDBF=F FulRan=T
         wScrn=  0.000000 ICntrl=      3107 IOpCl=  0 I1Cent=           0 NGrid=           0
         NMat0=    1 NMatS0=      1 NMatT0=    0 NMatD0=    1 NMtDS0=    0 NMtDT0=    0
 Symmetry not used in FoFCou.
 End of G2Drv F.D. properties file   721 does not exist.
 End of G2Drv F.D. properties file   722 does not exist.
 End of G2Drv F.D. properties file   788 does not exist.
 Leave Link 1110 at Sat May 24 05:28:07 2025, MaxMem=  3758096384 cpu:             336.2 elap:              42.6
 (Enter /apps/easybuild-2022/easybuild/software/Compiler/NVHPC/22.11-CUDA-11.7.0/Gaussian/g16c01-CUDA-11.7.0/g16/l1002.exe)
 Minotr:  Closed shell wavefunction.
          IDoAtm=11111111111
          Direct CPHF calculation.
          Differentiating once with respect to electric field.
                with respect to dipole field.
          Differentiating once with respect to nuclear coordinates.
          Requested convergence is 1.0D-08 RMS, and 1.0D-07 maximum.
          Secondary convergence is 1.0D-12 RMS, and 1.0D-12 maximum.
          NewPWx=T KeepS1=F KeepF1=F KeepIn=T MapXYZ=F SortEE=F KeepMc=T.
         3293 words used for storage of precomputed grid.
 Keep R1 ints in memory in canonical form, NReq=1412622545.
 FoFCou: FMM=F IPFlag=           0 FMFlag=           0 FMFlg1=           0
         NFxFlg=           0 DoJE=F BraDBF=F KetDBF=F FulRan=T
         wScrn=  0.000000 ICntrl=       600 IOpCl=  0 I1Cent=           0 NGrid=           0
         NMat0=    1 NMatS0=  52650 NMatT0=    0 NMatD0=    1 NMtDS0=    0 NMtDT0=    0
 Symmetry not used in FoFCou.
 Two-electron integral symmetry not used.
          MDV=    3758096384 using IRadAn=       1.
          Solving linear equations simultaneously, MaxMat=       0.
          There are    36 degrees of freedom in the 1st order CPHF.  IDoFFX=6 NUNeed=     3.
     33 vectors produced by pass  0 Test12= 3.16D-14 2.78D-09 XBig12= 6.02D+01 6.46D+00.
 AX will form    33 AO Fock derivatives at one time.
     33 vectors produced by pass  1 Test12= 3.16D-14 2.78D-09 XBig12= 9.94D+00 6.89D-01.
     33 vectors produced by pass  2 Test12= 3.16D-14 2.78D-09 XBig12= 2.76D-01 8.35D-02.
     33 vectors produced by pass  3 Test12= 3.16D-14 2.78D-09 XBig12= 5.12D-03 1.09D-02.
     33 vectors produced by pass  4 Test12= 3.16D-14 2.78D-09 XBig12= 7.03D-05 1.19D-03.
     33 vectors produced by pass  5 Test12= 3.16D-14 2.78D-09 XBig12= 6.92D-07 1.06D-04.
     33 vectors produced by pass  6 Test12= 3.16D-14 2.78D-09 XBig12= 4.17D-09 7.79D-06.
     15 vectors produced by pass  7 Test12= 3.16D-14 2.78D-09 XBig12= 2.45D-11 6.76D-07.
      3 vectors produced by pass  8 Test12= 3.16D-14 2.78D-09 XBig12= 1.39D-13 4.94D-08.
      1 vectors produced by pass  9 Test12= 3.16D-14 2.78D-09 XBig12= 6.41D-16 3.06D-09.
 InvSVY:  IOpt=1 It=  1 EMax= 3.55D-15
 Solved reduced A of dimension   250 with    36 vectors.
 FullF1:  Do perturbations      1 to       3.
 Isotropic polarizability for W=    0.000000       55.24 Bohr**3.
 End of Minotr F.D. properties file   721 does not exist.
 End of Minotr F.D. properties file   722 does not exist.
 End of Minotr F.D. properties file   788 does not exist.
 Leave Link 1002 at Sat May 24 05:29:17 2025, MaxMem=  3758096384 cpu:             538.2 elap:              69.6
 (Enter /apps/easybuild-2022/easybuild/software/Compiler/NVHPC/22.11-CUDA-11.7.0/Gaussian/g16c01-CUDA-11.7.0/g16/l701.exe)
 ... and contract with generalized density number  0.
 Compute integral second derivatives.
   1 Symmetry operations used in ECPInt.
 ECPInt:  NShTT=    6786 NPrTT=   21959 LenC2=    6524 LenP2D=   16111.
 LDataN:  DoStor=T MaxTD1= 8 Len=  415
 Leave Link  701 at Sat May 24 05:29:17 2025, MaxMem=  3758096384 cpu:               0.9 elap:               0.2
 (Enter /apps/easybuild-2022/easybuild/software/Compiler/NVHPC/22.11-CUDA-11.7.0/Gaussian/g16c01-CUDA-11.7.0/g16/l702.exe)
 L702 exits ... SP integral derivatives will be done elsewhere.
 Leave Link  702 at Sat May 24 05:29:17 2025, MaxMem=  3758096384 cpu:               0.0 elap:               0.0
 (Enter /apps/easybuild-2022/easybuild/software/Compiler/NVHPC/22.11-CUDA-11.7.0/Gaussian/g16c01-CUDA-11.7.0/g16/l703.exe)
 Integral derivatives from FoFJK, PRISM(SPDF).
 Compute integral second derivatives, UseDBF=F ICtDFT=           0.
 Calling FoFJK, ICntrl=    100127 FMM=F ISym2X=0 I1Cent= 0 IOpClX= 0 NMat=1 NMatS=1 NMatT=0.
 FoFJK:  IHMeth= 1 ICntrl=  100127 DoSepK=F KAlg= 0 I1Cent=           0 FoldK=F
 IRaf=         0 NMat=       1 IRICut=       1 DoRegI=T DoRafI=F ISym2E= 0 IDoP0=0 IntGTp=1.
 FoFCou: FMM=F IPFlag=           0 FMFlag=      100000 FMFlg1=         800
         NFxFlg=           0 DoJE=F BraDBF=F KetDBF=F FulRan=T
         wScrn=  0.000000 ICntrl=    100127 IOpCl=  0 I1Cent=           0 NGrid=           0
         NMat0=    1 NMatS0=      1 NMatT0=    0 NMatD0=    1 NMtDS0=    0 NMtDT0=    0
 Symmetry not used in FoFCou.
 Leave Link  703 at Sat May 24 05:30:50 2025, MaxMem=  3758096384 cpu:             734.0 elap:              92.6
 (Enter /apps/easybuild-2022/easybuild/software/Compiler/NVHPC/22.11-CUDA-11.7.0/Gaussian/g16c01-CUDA-11.7.0/g16/l716.exe)
 Dipole        =-4.46401804D-01 9.32267059D-01-7.97272087D-01
 Polarizability= 6.74481177D+01-5.72898217D-01 4.79859222D+01
                 1.81395523D+00 8.20739456D-01 5.02976956D+01
 -------------------------------------------------------------------
 Center     Atomic                   Forces (Hartrees/Bohr)
 Number     Number              X              Y              Z
 -------------------------------------------------------------------
      1        6           0.002360679   -0.011491133   -0.014067854
      2        8          -0.004047619    0.009849037    0.013430465
      3        6          -0.006660700   -0.016586194    0.017482058
      4        6          -0.006336657   -0.008808185    0.001893794
      5        9           0.000425557    0.002066551    0.000384508
      6        9          -0.000446955    0.001066622    0.000535942
      7        9          -0.000336123    0.001659243   -0.004998623
      8        9           0.005171052    0.013811831   -0.009896861
      9        9           0.001963117   -0.000902807   -0.003189481
     10        8           0.006179012    0.006949140   -0.008288083
     11        1           0.001728637    0.002385895    0.006714136
 -------------------------------------------------------------------
 Cartesian Forces:  Max     0.017482058 RMS     0.007685083
 Force constants in Cartesian coordinates: 
                1             2             3             4             5 
      1  0.343768D+00
      2 -0.170938D+00  0.100793D+01
      3 -0.121891D+00  0.285973D+00  0.297624D+00
      4 -0.186686D+00  0.247164D+00  0.145796D+00  0.176979D+00
      5  0.232872D+00 -0.608085D+00 -0.293241D+00 -0.252025D+00  0.696540D+00
      6  0.136031D+00 -0.305551D+00 -0.226660D+00 -0.156358D+00  0.335467D+00
      7  0.498593D-02 -0.977951D-02  0.583770D-01 -0.334311D-01  0.209065D-01
      8  0.218349D-02  0.305709D-01  0.167363D-02 -0.140757D-02 -0.989387D-02
      9 -0.568226D-01 -0.432661D-04  0.636528D-01  0.286262D-01 -0.221431D-01
     10  0.272241D-02  0.413942D-02 -0.383165D-01 -0.109565D-01  0.485671D-02
     11 -0.488883D-02 -0.180104D-01  0.330592D-03  0.162458D-01 -0.889630D-02
     12  0.572131D-01 -0.142190D-03  0.154160D-01 -0.161360D-01  0.573433D-02
     13  0.207907D-02  0.425602D-02  0.565601D-03 -0.641791D-03  0.452344D-03
     14 -0.419047D-02 -0.622375D-02  0.132574D-02  0.158158D-02  0.124513D-02
     15 -0.124322D-01 -0.707030D-02  0.508400D-02  0.522851D-02 -0.155981D-02
     16  0.229090D-02 -0.665888D-02 -0.106748D-03  0.139883D-02  0.115388D-02
     17  0.524437D-02 -0.562820D-02 -0.377846D-02 -0.358414D-02  0.497275D-02
     18 -0.116222D-01  0.651013D-02  0.564477D-02  0.262633D-02 -0.302700D-02
     19 -0.252020D-01  0.483732D-02 -0.353771D-01  0.135133D-01 -0.561807D-02
     20  0.243879D-02 -0.107984D-02  0.475982D-02 -0.335165D-02  0.387208D-02
     21 -0.173134D-01  0.652938D-02 -0.685137D-01  0.684857D-02 -0.513985D-02
     22 -0.237961D-01  0.202506D-02 -0.293144D-02  0.102344D-01 -0.508342D-02
     23 -0.144552D-01 -0.255626D-01  0.379035D-01  0.932337D-02 -0.776178D-04
     24  0.154144D-01  0.929797D-02 -0.178566D-01 -0.100942D-01  0.502124D-02
     25 -0.246742D-01 -0.459789D-02 -0.295518D-02  0.727617D-02 -0.110325D-01
     26  0.100045D-01 -0.132974D-01 -0.375135D-01 -0.267035D-02  0.934091D-02
     27  0.159969D-01 -0.103932D-01 -0.238976D-01 -0.612460D-02  0.107029D-01
     28 -0.114799D+00 -0.732863D-01 -0.116307D-02  0.247785D-01  0.200571D-01
     29 -0.858164D-01 -0.314765D+00 -0.112561D-01 -0.733539D-02 -0.896322D-01
     30 -0.666911D-02  0.170776D-01 -0.500144D-01  0.235465D-02 -0.269649D-01
     31  0.193098D-01  0.283831D-02 -0.199708D-02 -0.246540D-02 -0.653979D-02
     32  0.275455D-01 -0.458524D-01  0.138226D-01 -0.394112D-02  0.614186D-03
     33  0.209511D-02 -0.218795D-02 -0.478664D-03 -0.276733D-02 -0.484981D-02
                6             7             8             9            10 
      6  0.227212D+00
      7  0.897273D-02 -0.168106D-01
      8 -0.521130D-02  0.938078D-02  0.564956D+00
      9 -0.302201D-01 -0.512004D-01  0.645691D-02  0.522014D+00
     10  0.211517D-01  0.132584D+00 -0.198731D-02  0.619839D-01  0.142745D+00
     11 -0.142922D-01 -0.660798D-02 -0.195794D-01  0.835852D-03  0.224516D-01
     12 -0.129846D-03  0.482719D-01 -0.674922D-03 -0.644276D-01 -0.140059D+00
     13  0.853092D-03 -0.927599D-02 -0.778080D-02 -0.181278D-01 -0.839633D-01
     14 -0.102691D-02 -0.144743D-01 -0.207844D-01 -0.268411D-01  0.704720D-01
     15 -0.385895D-02 -0.139205D-01 -0.436791D-01 -0.430282D-01  0.637569D-01
     16 -0.175839D-02 -0.938110D-02  0.885959D-02 -0.159858D-01 -0.854763D-01
     17  0.285862D-02  0.161347D-01 -0.367581D-01  0.299795D-01 -0.818775D-01
     18 -0.125559D-02 -0.986536D-02  0.453701D-01 -0.315820D-01  0.498267D-01
     19  0.149359D-02 -0.357691D-02  0.220562D-03  0.333517D-03 -0.537892D-01
     20 -0.109331D-02 -0.153325D-02 -0.111186D-02 -0.146788D-02  0.412508D-02
     21 -0.669674D-03  0.118940D-01  0.190045D-04  0.249518D-01 -0.662827D-01
     22 -0.522077D-02 -0.177657D-01 -0.606831D-02  0.878479D-02 -0.156858D-01
     23 -0.117117D-01 -0.132333D-01 -0.250995D+00  0.140020D+00  0.237060D-01
     24  0.911647D-02 -0.261448D-01  0.156103D+00 -0.196736D+00  0.202747D-01
     25 -0.998407D-02 -0.243062D-01  0.807950D-02  0.117656D-01 -0.124831D-01
     26  0.130401D-01  0.132164D-01 -0.238303D+00 -0.151673D+00 -0.278446D-01
     27  0.131719D-01 -0.235945D-01 -0.162819D+00 -0.233912D+00  0.104698D-01
     28  0.398265D-02 -0.206840D-01  0.147716D-02  0.206320D-01 -0.136786D-01
     29 -0.123151D-01 -0.151577D-01 -0.152250D-01  0.266196D-01 -0.158401D-01
     30  0.145414D-01 -0.246117D-02  0.385274D-02 -0.163757D-01  0.187980D-01
     31  0.836166D-03 -0.233861D-02 -0.129571D-01  0.100107D-01 -0.201908D-02
     32 -0.163955D-03  0.114767D-02 -0.287655D-02 -0.174300D-02 -0.220132D-02
     33 -0.124712D-02 -0.328986D-03 -0.109133D-02  0.566275D-02 -0.160389D-02
               11            12            13            14            15 
     11  0.579729D+00
     12  0.271255D-01  0.299798D+00
     13  0.564071D-01  0.447571D-01  0.141730D+00
     14 -0.203166D+00 -0.729107D-01 -0.108907D+00  0.284897D+00
     15 -0.946348D-01 -0.127930D+00 -0.264238D-01  0.133470D+00  0.155175D+00
     16 -0.647675D-01  0.342809D-01  0.123801D-01  0.143944D-02 -0.604946D-02
     17 -0.227944D+00  0.527234D-01 -0.127140D-02 -0.510077D-01  0.273989D-03
     18  0.718610D-01 -0.997118D-01 -0.646079D-02 -0.130921D-01  0.164980D-01
     19 -0.241204D-02  0.261219D-01 -0.672411D-01  0.468032D-01 -0.130734D-01
     20 -0.600365D-01 -0.566009D-03  0.581463D-01 -0.191571D-01  0.775659D-02
     21  0.371659D-02 -0.693331D-01  0.865830D-02 -0.441761D-02  0.176369D-01
     22  0.773423D-02 -0.221859D-01  0.543824D-03  0.325415D-02  0.159884D-02
     23 -0.126964D-01 -0.251440D-01 -0.332376D-02  0.909824D-02  0.344764D-02
     24  0.202954D-01  0.269317D-01  0.121051D-02 -0.784677D-02 -0.356031D-02
     25 -0.525653D-02 -0.216304D-01  0.294898D-02  0.180918D-02 -0.127792D-02
     26 -0.134461D-01  0.187464D-01  0.111804D-02 -0.552827D-03 -0.158184D-02
     27 -0.271911D-01  0.220868D-01 -0.428393D-02 -0.743928D-02 -0.149683D-01
     28 -0.172287D-01 -0.145004D-01  0.185278D-02  0.136097D-02  0.222727D-02
     29 -0.172983D-01 -0.972138D-02  0.587395D-03  0.689960D-02  0.440867D-02
     30  0.845721D-02 -0.272974D-02 -0.113311D-02  0.110610D-02 -0.547592D-03
     31 -0.167712D-02  0.386629D-02 -0.412745D-03  0.851372D-03  0.365801D-03
     32  0.134435D-02  0.482951D-02  0.315963D-03 -0.124790D-02 -0.830685D-03
     33  0.349580D-02  0.287832D-04  0.384868D-03 -0.232707D-02 -0.501144D-03
               16            17            18            19            20 
     16  0.147409D+00
     17  0.115257D+00  0.324725D+00
     18 -0.617623D-02 -0.995028D-01  0.113578D+00
     19 -0.713078D-01 -0.438340D-01 -0.217931D-01  0.193449D+00
     20 -0.589767D-01 -0.156244D-01 -0.134364D-01 -0.268924D-02  0.907687D-01
     21 -0.175419D-02 -0.184874D-02  0.152519D-01  0.478253D-01 -0.354199D-02
     22  0.362771D-02 -0.205292D-02 -0.109214D-02  0.267093D-02 -0.424076D-04
     23 -0.391231D-03 -0.256679D-02  0.382875D-02  0.669065D-02 -0.834790D-04
     24 -0.498042D-02  0.108804D-01 -0.139893D-01 -0.510422D-02 -0.519288D-03
     25  0.336520D-04 -0.320681D-02  0.523525D-03  0.224565D-02 -0.216195D-03
     26  0.387139D-02  0.870832D-02 -0.355871D-03 -0.535545D-02  0.239623D-02
     27  0.194445D-02  0.749742D-02 -0.226245D-02 -0.546287D-02  0.180215D-02
     28 -0.817987D-03 -0.171418D-02  0.454303D-02  0.118056D-01  0.252103D-02
     29 -0.264376D-03  0.634836D-03  0.283703D-02  0.208489D-02 -0.148532D-03
     30  0.809702D-03  0.152544D-02 -0.260496D-02  0.364654D-02  0.549613D-02
     31 -0.156914D-03  0.904830D-03 -0.509723D-03 -0.256776D-02 -0.421790D-03
     32  0.477319D-03  0.488073D-03 -0.992948D-03 -0.727877D-03  0.204730D-03
     33 -0.223818D-03 -0.608831D-03  0.433872D-03  0.138982D-02  0.810172D-03
               21            22            23            24            25 
     21  0.957384D-01
     22  0.397194D-02  0.348235D-01
     23  0.168695D-01 -0.119557D-01  0.352224D+00
     24 -0.696480D-02  0.217044D-01 -0.164378D+00  0.164160D+00
     25  0.456110D-02  0.343618D-02 -0.593850D-02  0.474873D-03  0.402525D-01
     26 -0.148364D-01 -0.472498D-03 -0.891830D-01 -0.169103D-01  0.158647D-01
     27 -0.881097D-02  0.115701D-02  0.726125D-02  0.348896D-01  0.201256D-01
     28  0.386136D-02  0.324799D-02 -0.446850D-03 -0.539589D-02  0.397118D-02
     29  0.514553D-02  0.114667D-01  0.193623D-01 -0.122874D-01  0.517035D-02
     30  0.275871D-02 -0.562090D-02 -0.101502D-01  0.732387D-02 -0.188839D-02
     31 -0.227033D-02 -0.133698D-02  0.100245D-01 -0.735938D-02  0.129923D-02
     32 -0.249539D-02  0.119511D-02  0.479627D-03  0.343818D-03 -0.675330D-03
     33 -0.204554D-02 -0.165809D-03  0.205382D-02 -0.331426D-02  0.285218D-03
               26            27            28            29            30 
     26  0.337858D+00
     27  0.185947D+00  0.210109D+00
     28 -0.835016D-02 -0.918893D-02  0.373827D+00
     29 -0.451691D-02 -0.667970D-02 -0.887905D-01  0.583793D+00
     30  0.652599D-02  0.575523D-02  0.140674D+00 -0.112424D+00  0.122196D+00
     31  0.617993D-03 -0.103898D-02 -0.269504D+00  0.193895D+00 -0.148510D+00
     32  0.995678D-03  0.131147D-02  0.164400D+00 -0.169105D+00  0.105498D+00
     33 -0.138834D-02 -0.216108D-02 -0.145672D+00  0.125673D+00 -0.803025D-01
               31            32            33 
     31  0.260192D+00
     32 -0.187536D+00  0.214955D+00
     33  0.146607D+00 -0.119579D+00  0.839249D-01
 FormGI is forming the generalized inverse of G from B-inverse, IUseBI=4.
 Leave Link  716 at Sat May 24 05:30:50 2025, MaxMem=  3758096384 cpu:               0.1 elap:               0.0
 (Enter /apps/easybuild-2022/easybuild/software/Compiler/NVHPC/22.11-CUDA-11.7.0/Gaussian/g16c01-CUDA-11.7.0/g16/l103.exe)

 GradGradGradGradGradGradGradGradGradGradGradGradGradGradGradGradGradGrad
 Berny optimization.
 Red2BG is reusing G-inverse.
 Internal  Forces:  Max     0.018756595 RMS     0.004492216
 Search for a saddle point.
 Step number   1 out of a maximum of  100
 All quantities printed in internal units (Hartrees-Bohrs-Radians)
 Swapping is turned off.
 Second derivative matrix not updated -- analytic derivatives used.
 ITU=  0
     Eigenvalues ---   -0.10433  -0.00097   0.00413   0.00648   0.00924
     Eigenvalues ---    0.01295   0.01986   0.04146   0.04996   0.06480
     Eigenvalues ---    0.07433   0.10724   0.12232   0.13061   0.15566
     Eigenvalues ---    0.18131   0.21784   0.22733   0.24816   0.34112
     Eigenvalues ---    0.37821   0.38147   0.45894   0.48665   0.49566
     Eigenvalues ---    0.54810   0.99639
 Eigenvectors required to have negative eigenvalues:
                          R4        R2        A13       D19       A11
   1                    0.62244  -0.44076   0.27462  -0.17514  -0.16086
                          A7        D7        D12       D17       D15
   1                    0.14361  -0.14185   0.13811  -0.13657  -0.13293
 Eigenvalue     2 is  -9.73D-04 should be greater than     0.000000 Eigenvector:
                          D22       D21       D9        D10       R10
   1                    0.53723  -0.49768  -0.46024  -0.40846   0.14912
                          A19       D19       D20       D3        D1
   1                   -0.11354   0.08858   0.08782   0.07448   0.06013
 RFO step:  Lambda0=4.394998191D-04 Lambda=-8.73847149D-03.
 Linear search not attempted -- option 19 set.
 Maximum step size (   0.300) exceeded in Quadratic search.
    -- Step size scaled by   0.896
 Iteration  1 RMS(Cart)=  0.05038995 RMS(Int)=  0.06150956
 Iteration  2 RMS(Cart)=  0.03265350 RMS(Int)=  0.00978806
 Iteration  3 RMS(Cart)=  0.00436573 RMS(Int)=  0.00772475
 Iteration  4 RMS(Cart)=  0.00005508 RMS(Int)=  0.00772417
 Iteration  5 RMS(Cart)=  0.00000055 RMS(Int)=  0.00772417
 ITry= 1 IFail=0 DXMaxC= 2.94D-01 DCOld= 1.00D+10 DXMaxT= 3.00D-01 DXLimC= 3.00D+00 Rises=F
 Variable       Old X    -DE/DX   Delta X   Delta X   Delta X     New X
                                 (Linear)    (Quad)   (Total)
    R1        2.21383  -0.01559   0.00000  -0.01867  -0.01867   2.19515
    R2        3.62808   0.00497   0.00000   0.12621   0.12613   3.75422
    R3        2.47971   0.00908   0.00000  -0.01246  -0.01663   2.46309
    R4        3.23639  -0.00460   0.00000   0.10937   0.11011   3.34650
    R5        2.46880   0.01876   0.00000   0.05473   0.05876   2.52757
    R6        2.45143   0.00266   0.00000   0.01044   0.01044   2.46187
    R7        2.51770   0.00169   0.00000   0.00636   0.00636   2.52405
    R8        2.51892  -0.00060   0.00000  -0.01339  -0.01339   2.50553
    R9        2.75508  -0.00276   0.00000  -0.09283  -0.09283   2.66225
   R10        3.86463   0.00193   0.00000  -0.10824  -0.10726   3.75737
   R11        1.83400  -0.00281   0.00000  -0.00168  -0.00486   1.82914
    A1        2.12986  -0.00683   0.00000  -0.09025  -0.08739   2.04247
    A2        2.30270   0.00129   0.00000   0.00995   0.01448   2.31718
    A3        1.82960   0.00503   0.00000   0.05793   0.04516   1.87475
    A4        2.09906  -0.00503   0.00000  -0.08019  -0.09001   2.00905
    A5        2.06140   0.00252   0.00000   0.02003   0.02170   2.08310
    A6        1.89920   0.00013   0.00000  -0.01831  -0.01910   1.88010
    A7        1.30138   0.00042   0.00000  -0.01377  -0.01105   1.29033
    A8        2.13660  -0.00233   0.00000   0.01699   0.01567   2.15227
    A9        2.12708   0.00222   0.00000  -0.00649  -0.00670   2.12038
   A10        1.34300  -0.00510   0.00000  -0.00006  -0.00094   1.34206
   A11        1.70394   0.00038   0.00000  -0.04099  -0.04493   1.65901
   A12        1.67875   0.00052   0.00000  -0.00773  -0.00541   1.67334
   A13        2.64406  -0.00470   0.00000  -0.01258  -0.01206   2.63201
   A14        2.01842   0.00018   0.00000  -0.01379  -0.01465   2.00377
   A15        1.71708   0.00171   0.00000   0.02652   0.02791   1.74499
   A16        1.70891   0.00222   0.00000   0.04181   0.04044   1.74935
   A17        1.79164   0.00463   0.00000   0.02900   0.01908   1.81072
   A18        1.90571   0.00101   0.00000   0.03340  -0.00327   1.90245
   A19        2.12340  -0.00148   0.00000   0.06354   0.03209   2.15549
    D1       -1.58529  -0.00057   0.00000  -0.10143  -0.10529  -1.69058
    D2        3.13931  -0.00196   0.00000  -0.03788  -0.03780   3.10151
    D3       -0.05458  -0.00034   0.00000  -0.11759  -0.11676  -0.17133
    D4        1.53849  -0.00131   0.00000  -0.06614  -0.06773   1.47076
    D5        1.75106   0.00140   0.00000  -0.00338  -0.01212   1.73894
    D6        0.19248   0.00000   0.00000   0.06017   0.05537   0.24785
    D7       -3.00141   0.00163   0.00000  -0.01954  -0.02358  -3.02499
    D8       -1.40834   0.00065   0.00000   0.03191   0.02544  -1.38290
    D9        2.02743   0.00578   0.00000   0.47872   0.47602   2.50345
   D10       -1.33654   0.00230   0.00000   0.35154   0.34662  -0.98992
   D11       -1.16533   0.00367   0.00000   0.00204   0.00205  -1.16328
   D12        0.95717   0.00115   0.00000   0.02975   0.03073   0.98790
   D13        2.99894   0.00151   0.00000   0.00622   0.00705   3.00600
   D14       -1.20169   0.00250   0.00000   0.07495   0.07785  -1.12384
   D15        1.23129   0.00040   0.00000  -0.11659  -0.11718   1.11411
   D16       -2.92940  -0.00211   0.00000  -0.08888  -0.08850  -3.01790
   D17       -0.88762  -0.00175   0.00000  -0.11241  -0.11218  -0.99980
   D18        1.19493  -0.00076   0.00000  -0.04368  -0.04138   1.15354
   D19        0.55360   0.00066   0.00000  -0.06230  -0.05430   0.49930
   D20       -1.90418   0.00248   0.00000   0.02873   0.03165  -1.87253
   D21        0.22725  -0.00001   0.00000   0.40108   0.40060   0.62784
   D22        0.24820  -0.00344   0.00000  -0.46549  -0.46693  -0.21873
         Item               Value     Threshold  Converged?
 Maximum Force            0.018757     0.000450     NO 
 RMS     Force            0.004492     0.000300     NO 
 Maximum Displacement     0.294059     0.001800     NO 
 RMS     Displacement     0.078197     0.001200     NO 
 Predicted change in Energy=-7.713608D-03
 Lowest energy point so far.  Saving SCF results.
 GradGradGradGradGradGradGradGradGradGradGradGradGradGradGradGradGradGrad

 Leave Link  103 at Sat May 24 05:30:50 2025, MaxMem=  3758096384 cpu:               0.1 elap:               0.0
 (Enter /apps/easybuild-2022/easybuild/software/Compiler/NVHPC/22.11-CUDA-11.7.0/Gaussian/g16c01-CUDA-11.7.0/g16/l202.exe)
                          Input orientation:                          
 ---------------------------------------------------------------------
 Center     Atomic      Atomic             Coordinates (Angstroms)
 Number     Number       Type             X           Y           Z
 ---------------------------------------------------------------------
      1          6           0        2.219193   -0.014725   -0.064001
      2          8           0        2.653103   -1.017451   -0.458507
      3          6           0       -0.046146   -0.020179   -0.006222
      4          6           0        0.945898   -0.118559    1.457412
      5          9           0        0.406722    0.956974    2.037532
      6          9           0        0.458074   -1.278810    1.874284
      7          9           0        2.203647   -0.133486    2.091893
      8          9           0        0.032752    1.139186   -0.668519
      9          9           0        0.011598   -0.982297   -0.882689
     10          8           0        2.628154    1.220088   -0.146857
     11          1           0        1.860036    1.800398   -0.247547
 ---------------------------------------------------------------------
                    Distance matrix (angstroms):
                    1          2          3          4          5
     1  C    0.000000
     2  O    1.161625   0.000000
     3  C    2.266082   2.912912   0.000000
     4  C    1.986645   2.719063   1.770890   0.000000
     5  F    2.940355   3.895483   2.310162   1.335672   0.000000
     6  F    2.907988   3.213779   2.318338   1.325872   2.242323
     7  F    2.159218   2.736411   3.078391   1.408802   2.102616
     8  F    2.545089   3.400210   1.337531   2.633503   2.737839
     9  F    2.545569   2.675578   1.302766   2.663649   3.527688
    10  O    1.303410   2.259276   2.951257   2.682469   3.126586
    11  H    1.859396   2.934916   2.646936   2.724872   2.836384
                    6          7          8          9         10
     6  F    0.000000
     7  F    2.099082   0.000000
     8  F    3.534607   3.735284   0.000000
     9  F    2.808586   3.791266   2.132371   0.000000
    10  O    3.877982   2.650352   2.648545   3.498330   0.000000
    11  H    3.993643   3.054661   1.988313   3.400518   0.967938
                   11
    11  H    0.000000
 Symmetry turned off by external request.
 Stoichiometry    C3HF5O2
 Rotational constants (GHZ):           1.5508906           1.3787166           1.1937594
 Leave Link  202 at Sat May 24 05:30:50 2025, MaxMem=  3758096384 cpu:               0.1 elap:               0.0
 (Enter /apps/easybuild-2022/easybuild/software/Compiler/NVHPC/22.11-CUDA-11.7.0/Gaussian/g16c01-CUDA-11.7.0/g16/l301.exe)
 Standard basis: def2TZVPP (5D, 7F)
 Ernie: Thresh=  0.10000D-02 Tol=  0.10000D-05 Strict=F.
   324 basis functions,   527 primitive gaussians,   375 cartesian basis functions
    40 alpha electrons       40 beta electrons
       nuclear repulsion energy       637.3359247877 Hartrees.
 IExCor= 4336 DFT=T Ex+Corr=M062X ExCW=0 ScaHFX=  0.540000
 ScaDFX=  1.000000  1.000000  1.000000  1.000000 ScalE2=  1.000000  1.000000
 IRadAn=      5 IRanWt=     -1 IRanGd=            0 ICorTp=0 IEmpDi=  4
 NAtoms=   11 NActive=   11 NUniq=   11 SFac= 1.00D+00 NAtFMM=   60 NAOKFM=F Big=F
 Integral buffers will be    131072 words long.
 Raffenetti 2 integral format.
 Two-electron integral symmetry is turned off.
 Leave Link  301 at Sat May 24 05:30:50 2025, MaxMem=  3758096384 cpu:               0.1 elap:               0.0
 (Enter /apps/easybuild-2022/easybuild/software/Compiler/NVHPC/22.11-CUDA-11.7.0/Gaussian/g16c01-CUDA-11.7.0/g16/l302.exe)
 NPDir=0 NMtPBC=     1 NCelOv=     1 NCel=       1 NClECP=     1 NCelD=      1
         NCelK=      1 NCelE2=     1 NClLst=     1 CellRange=     0.0.
 One-electron integrals computed using PRISM.
   1 Symmetry operations used in ECPInt.
 ECPInt:  NShTT=    6786 NPrTT=   21959 LenC2=    6520 LenP2D=   16081.
 LDataN:  DoStor=T MaxTD1= 6 Len=  172
 NBasis=   324 RedAO= T EigKep=  7.38D-04  NBF=   324
 NBsUse=   324 1.00D-06 EigRej= -1.00D+00 NBFU=   324
 Precomputing XC quadrature grid using
 IXCGrd= 4 IRadAn=           5 IRanWt=          -1 IRanGd=           0 AccXCQ= 0.00D+00.
 Generated NRdTot=       0 NPtTot=           0 NUsed=           0 NTot=          32
 NSgBfM=   371   371   371   371   371 MxSgAt=    11 MxSgA2=    11.
 Leave Link  302 at Sat May 24 05:30:50 2025, MaxMem=  3758096384 cpu:               0.7 elap:               0.2
 (Enter /apps/easybuild-2022/easybuild/software/Compiler/NVHPC/22.11-CUDA-11.7.0/Gaussian/g16c01-CUDA-11.7.0/g16/l303.exe)
 DipDrv:  MaxL=1.
 Leave Link  303 at Sat May 24 05:30:50 2025, MaxMem=  3758096384 cpu:               0.1 elap:               0.1
 (Enter /apps/easybuild-2022/easybuild/software/Compiler/NVHPC/22.11-CUDA-11.7.0/Gaussian/g16c01-CUDA-11.7.0/g16/l401.exe)
 Initial guess from the checkpoint file:  "/tmp/Gau-149384.chk"
 B after Tr=     0.008694    0.002453   -0.022770
         Rot=    0.999984    0.005245   -0.000436    0.001868 Ang=   0.64 deg.
 Guess basis will be translated and rotated to current coordinates.
 JPrj=2 DoOrth=T DoCkMO=T.
 Generating alternative initial guess.
 ExpMin= 9.52D-02 ExpMax= 3.55D+04 ExpMxC= 1.21D+03 IAcc=3 IRadAn=         5 AccDes= 0.00D+00
 Harris functional with IExCor= 1009 and IRadAn=       5 diagonalized for initial guess.
 HarFok:  IExCor= 1009 AccDes= 0.00D+00 IRadAn=         5 IDoV= 1 UseB2=F ITyADJ=14
 ICtDFT=  3500011 ScaDFX=  1.000000  1.000000  1.000000  1.000000
 FoFCou: FMM=F IPFlag=           0 FMFlag=      100000 FMFlg1=           0
         NFxFlg=           0 DoJE=T BraDBF=F KetDBF=T FulRan=T
         wScrn=  0.000000 ICntrl=       500 IOpCl=  0 I1Cent=   200000004 NGrid=           0
         NMat0=    1 NMatS0=      1 NMatT0=    0 NMatD0=    1 NMtDS0=    0 NMtDT0=    0
 Symmetry not used in FoFCou.
 Harris En= -764.016582211807    
 Leave Link  401 at Sat May 24 05:30:51 2025, MaxMem=  3758096384 cpu:               3.9 elap:               0.7
 (Enter /apps/easybuild-2022/easybuild/software/Compiler/NVHPC/22.11-CUDA-11.7.0/Gaussian/g16c01-CUDA-11.7.0/g16/l502.exe)
 Keep R1 ints in memory in canonical form, NReq=1412617152.
 FoFCou: FMM=F IPFlag=           0 FMFlag=           0 FMFlg1=           0
         NFxFlg=           0 DoJE=F BraDBF=F KetDBF=F FulRan=T
         wScrn=  0.000000 ICntrl=       600 IOpCl=  0 I1Cent=           0 NGrid=           0
         NMat0=    1 NMatS0=  52650 NMatT0=    0 NMatD0=    1 NMtDS0=    0 NMtDT0=    0
 Symmetry not used in FoFCou.
 Two-electron integral symmetry not used.
 Closed shell SCF:
 Using DIIS extrapolation, IDIIS=  1040.
 NGot=  3758096384 LenX=  2371771902 LenY=  2371630836
 Requested convergence on RMS density matrix=1.00D-08 within  32 cycles.
 Requested convergence on MAX density matrix=1.00D-06.
 Requested convergence on             energy=1.00D-06.
 No special actions if energy rises.
 Integral accuracy reduced to 1.0D-05 until final iterations.

 Cycle   1  Pass 0  IDiag  1:
 E= -764.416225258465    
 DIIS: error= 7.86D-03 at cycle   1 NSaved=   1.
 NSaved= 1 IEnMin= 1 EnMin= -764.416225258465     IErMin= 1 ErrMin= 7.86D-03
 ErrMax= 7.86D-03  0.00D+00 EMaxC= 1.00D-01 BMatC= 3.19D-02 BMatP= 3.19D-02
 IDIUse=3 WtCom= 9.21D-01 WtEn= 7.86D-02
 Coeff-Com:  0.100D+01
 Coeff-En:   0.100D+01
 Coeff:      0.100D+01
 Gap=     0.869 Goal=   None    Shift=    0.000
 GapD=    0.869 DampG=2.000 DampE=1.000 DampFc=2.0000 IDamp=-1.
 RMSDP=6.01D-04 MaxDP=3.33D-02              OVMax= 4.97D-02

 Cycle   2  Pass 0  IDiag  1:
 E= -764.452739818436     Delta-E=       -0.036514559970 Rises=F Damp=F
 DIIS: error= 1.12D-03 at cycle   2 NSaved=   2.
 NSaved= 2 IEnMin= 2 EnMin= -764.452739818436     IErMin= 2 ErrMin= 1.12D-03
 ErrMax= 1.12D-03  0.00D+00 EMaxC= 1.00D-01 BMatC= 1.29D-03 BMatP= 3.19D-02
 IDIUse=3 WtCom= 9.89D-01 WtEn= 1.12D-02
 Coeff-Com: -0.963D-01 0.110D+01
 Coeff-En:   0.000D+00 0.100D+01
 Coeff:     -0.952D-01 0.110D+01
 Gap=     0.252 Goal=   None    Shift=    0.000
 RMSDP=1.60D-04 MaxDP=7.07D-03 DE=-3.65D-02 OVMax= 1.37D-02

 Cycle   3  Pass 0  IDiag  1:
 E= -764.454239631157     Delta-E=       -0.001499812722 Rises=F Damp=F
 DIIS: error= 9.13D-04 at cycle   3 NSaved=   3.
 NSaved= 3 IEnMin= 3 EnMin= -764.454239631157     IErMin= 3 ErrMin= 9.13D-04
 ErrMax= 9.13D-04  0.00D+00 EMaxC= 1.00D-01 BMatC= 6.47D-04 BMatP= 1.29D-03
 IDIUse=3 WtCom= 9.91D-01 WtEn= 9.13D-03
 Coeff-Com: -0.638D-01 0.477D+00 0.587D+00
 Coeff-En:   0.000D+00 0.000D+00 0.100D+01
 Coeff:     -0.632D-01 0.473D+00 0.590D+00
 Gap=     0.253 Goal=   None    Shift=    0.000
 RMSDP=7.86D-05 MaxDP=2.40D-03 DE=-1.50D-03 OVMax= 1.56D-02

 Cycle   4  Pass 0  IDiag  1:
 E= -764.454735709721     Delta-E=       -0.000496078563 Rises=F Damp=F
 DIIS: error= 3.27D-04 at cycle   4 NSaved=   4.
 NSaved= 4 IEnMin= 4 EnMin= -764.454735709721     IErMin= 4 ErrMin= 3.27D-04
 ErrMax= 3.27D-04  0.00D+00 EMaxC= 1.00D-01 BMatC= 1.02D-04 BMatP= 6.47D-04
 IDIUse=3 WtCom= 9.97D-01 WtEn= 3.27D-03
 Coeff-Com: -0.970D-02 0.164D-02 0.275D+00 0.733D+00
 Coeff-En:   0.000D+00 0.000D+00 0.339D-01 0.966D+00
 Coeff:     -0.967D-02 0.163D-02 0.274D+00 0.734D+00
 Gap=     0.253 Goal=   None    Shift=    0.000
 RMSDP=2.64D-05 MaxDP=8.73D-04 DE=-4.96D-04 OVMax= 2.99D-03

 Cycle   5  Pass 0  IDiag  1:
 E= -764.454824000698     Delta-E=       -0.000088290977 Rises=F Damp=F
 DIIS: error= 1.22D-04 at cycle   5 NSaved=   5.
 NSaved= 5 IEnMin= 5 EnMin= -764.454824000698     IErMin= 5 ErrMin= 1.22D-04
 ErrMax= 1.22D-04  0.00D+00 EMaxC= 1.00D-01 BMatC= 1.09D-05 BMatP= 1.02D-04
 IDIUse=3 WtCom= 9.99D-01 WtEn= 1.22D-03
 Coeff-Com:  0.113D-02-0.443D-01 0.917D-01 0.347D+00 0.604D+00
 Coeff-En:   0.000D+00 0.000D+00 0.000D+00 0.000D+00 0.100D+01
 Coeff:      0.113D-02-0.443D-01 0.916D-01 0.347D+00 0.605D+00
 Gap=     0.253 Goal=   None    Shift=    0.000
 RMSDP=7.73D-06 MaxDP=4.33D-04 DE=-8.83D-05 OVMax= 1.37D-03

 Initial convergence to 1.0D-05 achieved.  Increase integral accuracy.
 Cycle   6  Pass 1  IDiag  1:
 E= -764.454822559102     Delta-E=        0.000001441596 Rises=F Damp=F
 DIIS: error= 6.54D-05 at cycle   1 NSaved=   1.
 NSaved= 1 IEnMin= 1 EnMin= -764.454822559102     IErMin= 1 ErrMin= 6.54D-05
 ErrMax= 6.54D-05  0.00D+00 EMaxC= 1.00D-01 BMatC= 2.65D-06 BMatP= 2.65D-06
 IDIUse=1 WtCom= 1.00D+00 WtEn= 0.00D+00
 Coeff-Com:  0.100D+01
 Coeff:      0.100D+01
 Gap=     0.253 Goal=   None    Shift=    0.000
 RMSDP=7.73D-06 MaxDP=4.33D-04 DE= 1.44D-06 OVMax= 7.70D-04

 Cycle   7  Pass 1  IDiag  1:
 E= -764.454821931883     Delta-E=        0.000000627219 Rises=F Damp=F
 DIIS: error= 8.94D-05 at cycle   2 NSaved=   2.
 NSaved= 2 IEnMin= 1 EnMin= -764.454822559102     IErMin= 1 ErrMin= 6.54D-05
 ErrMax= 8.94D-05  0.00D+00 EMaxC= 1.00D-01 BMatC= 4.31D-06 BMatP= 2.65D-06
 IDIUse=1 WtCom= 1.00D+00 WtEn= 0.00D+00
 Coeff-Com:  0.568D+00 0.432D+00
 Coeff:      0.568D+00 0.432D+00
 Gap=     0.253 Goal=   None    Shift=    0.000
 RMSDP=3.32D-06 MaxDP=2.40D-04 DE= 6.27D-07 OVMax= 5.51D-04

 Cycle   8  Pass 1  IDiag  1:
 E= -764.454824796667     Delta-E=       -0.000002864784 Rises=F Damp=F
 DIIS: error= 1.48D-05 at cycle   3 NSaved=   3.
 NSaved= 3 IEnMin= 3 EnMin= -764.454824796667     IErMin= 3 ErrMin= 1.48D-05
 ErrMax= 1.48D-05  0.00D+00 EMaxC= 1.00D-01 BMatC= 1.26D-07 BMatP= 2.65D-06
 IDIUse=1 WtCom= 1.00D+00 WtEn= 0.00D+00
 Coeff-Com: -0.124D-01 0.124D+00 0.889D+00
 Coeff:     -0.124D-01 0.124D+00 0.889D+00
 Gap=     0.253 Goal=   None    Shift=    0.000
 RMSDP=1.20D-06 MaxDP=4.51D-05 DE=-2.86D-06 OVMax= 1.27D-04

 Cycle   9  Pass 1  IDiag  1:
 E= -764.454824916282     Delta-E=       -0.000000119615 Rises=F Damp=F
 DIIS: error= 4.73D-06 at cycle   4 NSaved=   4.
 NSaved= 4 IEnMin= 4 EnMin= -764.454824916282     IErMin= 4 ErrMin= 4.73D-06
 ErrMax= 4.73D-06  0.00D+00 EMaxC= 1.00D-01 BMatC= 2.20D-08 BMatP= 1.26D-07
 IDIUse=1 WtCom= 1.00D+00 WtEn= 0.00D+00
 Coeff-Com: -0.518D-01 0.276D-01 0.414D+00 0.610D+00
 Coeff:     -0.518D-01 0.276D-01 0.414D+00 0.610D+00
 Gap=     0.253 Goal=   None    Shift=    0.000
 RMSDP=3.82D-07 MaxDP=1.30D-05 DE=-1.20D-07 OVMax= 4.88D-05

 Cycle  10  Pass 1  IDiag  1:
 E= -764.454824935341     Delta-E=       -0.000000019059 Rises=F Damp=F
 DIIS: error= 1.65D-06 at cycle   5 NSaved=   5.
 NSaved= 5 IEnMin= 5 EnMin= -764.454824935341     IErMin= 5 ErrMin= 1.65D-06
 ErrMax= 1.65D-06  0.00D+00 EMaxC= 1.00D-01 BMatC= 2.15D-09 BMatP= 2.20D-08
 IDIUse=1 WtCom= 1.00D+00 WtEn= 0.00D+00
 Coeff-Com: -0.700D-02-0.185D-01-0.120D+00 0.146D+00 0.100D+01
 Coeff:     -0.700D-02-0.185D-01-0.120D+00 0.146D+00 0.100D+01
 Gap=     0.253 Goal=   None    Shift=    0.000
 RMSDP=2.48D-07 MaxDP=6.10D-06 DE=-1.91D-08 OVMax= 3.33D-05

 Cycle  11  Pass 1  IDiag  1:
 E= -764.454824939258     Delta-E=       -0.000000003917 Rises=F Damp=F
 DIIS: error= 5.10D-07 at cycle   6 NSaved=   6.
 NSaved= 6 IEnMin= 6 EnMin= -764.454824939258     IErMin= 6 ErrMin= 5.10D-07
 ErrMax= 5.10D-07  0.00D+00 EMaxC= 1.00D-01 BMatC= 1.59D-10 BMatP= 2.15D-09
 IDIUse=1 WtCom= 1.00D+00 WtEn= 0.00D+00
 Coeff-Com:  0.273D-02-0.724D-02-0.748D-01-0.189D-01 0.264D+00 0.834D+00
 Coeff:      0.273D-02-0.724D-02-0.748D-01-0.189D-01 0.264D+00 0.834D+00
 Gap=     0.253 Goal=   None    Shift=    0.000
 RMSDP=6.13D-08 MaxDP=1.76D-06 DE=-3.92D-09 OVMax= 7.30D-06

 Cycle  12  Pass 1  IDiag  1:
 E= -764.454824939442     Delta-E=       -0.000000000185 Rises=F Damp=F
 DIIS: error= 1.91D-07 at cycle   7 NSaved=   7.
 NSaved= 7 IEnMin= 7 EnMin= -764.454824939442     IErMin= 7 ErrMin= 1.91D-07
 ErrMax= 1.91D-07  0.00D+00 EMaxC= 1.00D-01 BMatC= 3.85D-11 BMatP= 1.59D-10
 IDIUse=1 WtCom= 1.00D+00 WtEn= 0.00D+00
 Coeff-Com:  0.196D-02-0.157D-02-0.249D-01-0.167D-01 0.544D-01 0.393D+00
 Coeff-Com:  0.594D+00
 Coeff:      0.196D-02-0.157D-02-0.249D-01-0.167D-01 0.544D-01 0.393D+00
 Coeff:      0.594D+00
 Gap=     0.253 Goal=   None    Shift=    0.000
 RMSDP=2.32D-08 MaxDP=8.55D-07 DE=-1.85D-10 OVMax= 4.49D-06

 Cycle  13  Pass 1  IDiag  1:
 E= -764.454824939513     Delta-E=       -0.000000000070 Rises=F Damp=F
 DIIS: error= 8.69D-08 at cycle   8 NSaved=   8.
 NSaved= 8 IEnMin= 8 EnMin= -764.454824939513     IErMin= 8 ErrMin= 8.69D-08
 ErrMax= 8.69D-08  0.00D+00 EMaxC= 1.00D-01 BMatC= 4.40D-12 BMatP= 3.85D-11
 IDIUse=1 WtCom= 1.00D+00 WtEn= 0.00D+00
 Coeff-Com:  0.149D-03 0.664D-03 0.395D-02-0.304D-02-0.281D-01-0.400D-01
 Coeff-Com:  0.204D+00 0.863D+00
 Coeff:      0.149D-03 0.664D-03 0.395D-02-0.304D-02-0.281D-01-0.400D-01
 Coeff:      0.204D+00 0.863D+00
 Gap=     0.253 Goal=   None    Shift=    0.000
 RMSDP=9.56D-09 MaxDP=3.71D-07 DE=-7.03D-11 OVMax= 1.05D-06

 SCF Done:  E(RM062X) =  -764.454824940     A.U. after   13 cycles
            NFock= 13  Conv=0.96D-08     -V/T= 2.0036
 KE= 7.617274745729D+02 PE=-3.086584627905D+03 EE= 9.230664036048D+02
 Leave Link  502 at Sat May 24 05:31:17 2025, MaxMem=  3758096384 cpu:             113.5 elap:              26.4
 (Enter /apps/easybuild-2022/easybuild/software/Compiler/NVHPC/22.11-CUDA-11.7.0/Gaussian/g16c01-CUDA-11.7.0/g16/l508.exe)
 QCSCF skips out because SCF is already converged.
 Leave Link  508 at Sat May 24 05:31:17 2025, MaxMem=  3758096384 cpu:               0.1 elap:               0.0
 (Enter /apps/easybuild-2022/easybuild/software/Compiler/NVHPC/22.11-CUDA-11.7.0/Gaussian/g16c01-CUDA-11.7.0/g16/l801.exe)
 DoSCS=F DFT=T ScalE2(SS,OS)=  1.000000  1.000000
 Range of M.O.s used for correlation:     1   324
 NBasis=   324 NAE=    40 NBE=    40 NFC=     0 NFV=     0
 NROrb=    324 NOA=    40 NOB=    40 NVA=   284 NVB=   284
 Leave Link  801 at Sat May 24 05:31:17 2025, MaxMem=  3758096384 cpu:               0.1 elap:               0.0
 (Enter /apps/easybuild-2022/easybuild/software/Compiler/NVHPC/22.11-CUDA-11.7.0/Gaussian/g16c01-CUDA-11.7.0/g16/l1101.exe)
 Using compressed storage, NAtomX=    11.
 Will process     12 centers per pass.
   1 Symmetry operations used in ECPInt.
 ECPInt:  NShTT=    6786 NPrTT=   21959 LenC2=    6520 LenP2D=   16081.
 LDataN:  DoStor=T MaxTD1= 7 Len=  274
 Leave Link 1101 at Sat May 24 05:31:18 2025, MaxMem=  3758096384 cpu:               1.2 elap:               0.3
 (Enter /apps/easybuild-2022/easybuild/software/Compiler/NVHPC/22.11-CUDA-11.7.0/Gaussian/g16c01-CUDA-11.7.0/g16/l1102.exe)
 Symmetrizing basis deriv contribution to polar:
 IMax=3 JMax=2 DiffMx= 0.00D+00
 Leave Link 1102 at Sat May 24 05:31:18 2025, MaxMem=  3758096384 cpu:               0.1 elap:               0.0
 (Enter /apps/easybuild-2022/easybuild/software/Compiler/NVHPC/22.11-CUDA-11.7.0/Gaussian/g16c01-CUDA-11.7.0/g16/l1110.exe)
 Forming Gx(P) for the SCF density, NAtomX=    11.
 Integral derivatives from FoFJK, PRISM(SPDF).
 Do as many integral derivatives as possible in FoFJK.
 G2DrvN: MDV=    3758095093.
 G2DrvN: will do    12 centers at a time, making    1 passes.
 Calling FoFCou, ICntrl=  3107 FMM=F I1Cent=   0 AccDes= 0.00D+00.
 FoFJK:  IHMeth= 1 ICntrl=    3107 DoSepK=F KAlg= 0 I1Cent=           0 FoldK=F
 IRaf=         0 NMat=       1 IRICut=       1 DoRegI=T DoRafI=F ISym2E= 0 IDoP0=0 IntGTp=1.
 FoFCou: FMM=F IPFlag=           0 FMFlag=      100000 FMFlg1=           0
         NFxFlg=           0 DoJE=F BraDBF=F KetDBF=F FulRan=T
         wScrn=  0.000000 ICntrl=      3107 IOpCl=  0 I1Cent=           0 NGrid=           0
         NMat0=    1 NMatS0=      1 NMatT0=    0 NMatD0=    1 NMtDS0=    0 NMtDT0=    0
 Symmetry not used in FoFCou.
 End of G2Drv F.D. properties file   721 does not exist.
 End of G2Drv F.D. properties file   722 does not exist.
 End of G2Drv F.D. properties file   788 does not exist.
 Leave Link 1110 at Sat May 24 05:32:00 2025, MaxMem=  3758096384 cpu:             334.4 elap:              42.3
 (Enter /apps/easybuild-2022/easybuild/software/Compiler/NVHPC/22.11-CUDA-11.7.0/Gaussian/g16c01-CUDA-11.7.0/g16/l1002.exe)
 Minotr:  Closed shell wavefunction.
          IDoAtm=11111111111
          Direct CPHF calculation.
          Differentiating once with respect to electric field.
                with respect to dipole field.
          Differentiating once with respect to nuclear coordinates.
          Requested convergence is 1.0D-08 RMS, and 1.0D-07 maximum.
          Secondary convergence is 1.0D-12 RMS, and 1.0D-12 maximum.
          NewPWx=T KeepS1=F KeepF1=F KeepIn=T MapXYZ=F SortEE=F KeepMc=T.
         3293 words used for storage of precomputed grid.
 Keep R1 ints in memory in canonical form, NReq=1412622545.
 FoFCou: FMM=F IPFlag=           0 FMFlag=           0 FMFlg1=           0
         NFxFlg=           0 DoJE=F BraDBF=F KetDBF=F FulRan=T
         wScrn=  0.000000 ICntrl=       600 IOpCl=  0 I1Cent=           0 NGrid=           0
         NMat0=    1 NMatS0=  52650 NMatT0=    0 NMatD0=    1 NMtDS0=    0 NMtDT0=    0
 Symmetry not used in FoFCou.
 Two-electron integral symmetry not used.
          MDV=    3758096384 using IRadAn=       1.
          Solving linear equations simultaneously, MaxMat=       0.
          There are    36 degrees of freedom in the 1st order CPHF.  IDoFFX=6 NUNeed=     3.
     33 vectors produced by pass  0 Test12= 3.16D-14 2.78D-09 XBig12= 6.53D+01 7.19D+00.
 AX will form    33 AO Fock derivatives at one time.
     33 vectors produced by pass  1 Test12= 3.16D-14 2.78D-09 XBig12= 1.07D+01 7.96D-01.
     33 vectors produced by pass  2 Test12= 3.16D-14 2.78D-09 XBig12= 2.79D-01 7.89D-02.
     33 vectors produced by pass  3 Test12= 3.16D-14 2.78D-09 XBig12= 5.39D-03 1.02D-02.
     33 vectors produced by pass  4 Test12= 3.16D-14 2.78D-09 XBig12= 7.26D-05 9.41D-04.
     33 vectors produced by pass  5 Test12= 3.16D-14 2.78D-09 XBig12= 7.34D-07 1.02D-04.
     33 vectors produced by pass  6 Test12= 3.16D-14 2.78D-09 XBig12= 4.04D-09 6.18D-06.
     15 vectors produced by pass  7 Test12= 3.16D-14 2.78D-09 XBig12= 2.22D-11 6.72D-07.
      3 vectors produced by pass  8 Test12= 3.16D-14 2.78D-09 XBig12= 1.34D-13 5.32D-08.
      1 vectors produced by pass  9 Test12= 3.16D-14 2.78D-09 XBig12= 5.28D-16 2.83D-09.
 InvSVY:  IOpt=1 It=  1 EMax= 3.55D-15
 Solved reduced A of dimension   250 with    36 vectors.
 FullF1:  Do perturbations      1 to       3.
 Isotropic polarizability for W=    0.000000       56.10 Bohr**3.
 End of Minotr F.D. properties file   721 does not exist.
 End of Minotr F.D. properties file   722 does not exist.
 End of Minotr F.D. properties file   788 does not exist.
 Leave Link 1002 at Sat May 24 05:33:10 2025, MaxMem=  3758096384 cpu:             538.2 elap:              69.8
 (Enter /apps/easybuild-2022/easybuild/software/Compiler/NVHPC/22.11-CUDA-11.7.0/Gaussian/g16c01-CUDA-11.7.0/g16/l701.exe)
 ... and contract with generalized density number  0.
 Compute integral second derivatives.
   1 Symmetry operations used in ECPInt.
 ECPInt:  NShTT=    6786 NPrTT=   21959 LenC2=    6520 LenP2D=   16081.
 LDataN:  DoStor=T MaxTD1= 8 Len=  415
 Leave Link  701 at Sat May 24 05:33:10 2025, MaxMem=  3758096384 cpu:               1.2 elap:               0.3
 (Enter /apps/easybuild-2022/easybuild/software/Compiler/NVHPC/22.11-CUDA-11.7.0/Gaussian/g16c01-CUDA-11.7.0/g16/l702.exe)
 L702 exits ... SP integral derivatives will be done elsewhere.
 Leave Link  702 at Sat May 24 05:33:10 2025, MaxMem=  3758096384 cpu:               0.1 elap:               0.0
 (Enter /apps/easybuild-2022/easybuild/software/Compiler/NVHPC/22.11-CUDA-11.7.0/Gaussian/g16c01-CUDA-11.7.0/g16/l703.exe)
 Integral derivatives from FoFJK, PRISM(SPDF).
 Compute integral second derivatives, UseDBF=F ICtDFT=           0.
 Calling FoFJK, ICntrl=    100127 FMM=F ISym2X=0 I1Cent= 0 IOpClX= 0 NMat=1 NMatS=1 NMatT=0.
 FoFJK:  IHMeth= 1 ICntrl=  100127 DoSepK=F KAlg= 0 I1Cent=           0 FoldK=F
 IRaf=         0 NMat=       1 IRICut=       1 DoRegI=T DoRafI=F ISym2E= 0 IDoP0=0 IntGTp=1.
 FoFCou: FMM=F IPFlag=           0 FMFlag=      100000 FMFlg1=         800
         NFxFlg=           0 DoJE=F BraDBF=F KetDBF=F FulRan=T
         wScrn=  0.000000 ICntrl=    100127 IOpCl=  0 I1Cent=           0 NGrid=           0
         NMat0=    1 NMatS0=      1 NMatT0=    0 NMatD0=    1 NMtDS0=    0 NMtDT0=    0
 Symmetry not used in FoFCou.
 Leave Link  703 at Sat May 24 05:34:42 2025, MaxMem=  3758096384 cpu:             729.8 elap:              92.0
 (Enter /apps/easybuild-2022/easybuild/software/Compiler/NVHPC/22.11-CUDA-11.7.0/Gaussian/g16c01-CUDA-11.7.0/g16/l716.exe)
 Dipole        =-2.09393905D-01 8.95225448D-01-5.36967459D-01
 Polarizability= 7.00709301D+01-7.10144953D-01 4.88112665D+01
                -3.02775921D-02 7.11096418D-01 4.94121167D+01
 -------------------------------------------------------------------
 Center     Atomic                   Forces (Hartrees/Bohr)
 Number     Number              X              Y              Z
 -------------------------------------------------------------------
      1        6           0.001273653   -0.005116484    0.000539542
      2        8          -0.000043185    0.000418548    0.001587587
      3        6          -0.003791534   -0.002661931    0.002711569
      4        6          -0.002928558   -0.002351190    0.000681656
      5        9           0.000334590    0.000571863    0.000782358
      6        9          -0.001204152   -0.000099065   -0.000027924
      7        9           0.003507713    0.000981501    0.000841917
      8        9           0.001339535    0.001599405   -0.003652069
      9        9           0.001551734    0.000593297   -0.001530524
     10        8          -0.000372754    0.000998521   -0.006709184
     11        1           0.000332958    0.005065536    0.004775071
 -------------------------------------------------------------------
 Cartesian Forces:  Max     0.006709184 RMS     0.002511633
 Force constants in Cartesian coordinates: 
                1             2             3             4             5 
      1  0.342093D+00
      2 -0.213413D+00  0.114272D+01
      3 -0.101593D+00  0.236507D+00  0.234734D+00
      4 -0.193435D+00  0.293629D+00  0.119012D+00  0.185566D+00
      5  0.275073D+00 -0.719924D+00 -0.250965D+00 -0.298160D+00  0.814762D+00
      6  0.111582D+00 -0.262918D+00 -0.157074D+00 -0.131669D+00  0.283225D+00
      7  0.167282D-01 -0.142672D-01  0.441823D-01 -0.327765D-01  0.240620D-01
      8  0.447217D-02  0.311724D-01  0.220160D-02 -0.256387D-02 -0.934908D-02
      9 -0.569593D-01  0.822124D-02  0.593252D-01  0.290641D-01 -0.257128D-01
     10  0.116462D-01  0.150704D-03 -0.368853D-01 -0.140148D-01  0.832838D-02
     11 -0.616201D-02 -0.165977D-01  0.837156D-04  0.175717D-01 -0.109429D-01
     12  0.564641D-01 -0.328790D-02  0.735159D-02 -0.155336D-01  0.808116D-02
     13  0.280646D-02  0.463930D-02 -0.245517D-03 -0.110405D-02  0.530287D-03
     14 -0.511297D-02 -0.581346D-02  0.222142D-02  0.151022D-02  0.119572D-02
     15 -0.149384D-01 -0.713348D-02  0.607864D-02  0.641957D-02 -0.259401D-02
     16  0.243238D-02 -0.550670D-02 -0.481361D-03  0.120310D-02  0.101251D-02
     17  0.702440D-02 -0.731376D-02 -0.445913D-02 -0.357297D-02  0.562781D-02
     18 -0.139018D-01  0.823708D-02  0.641724D-02  0.313350D-02 -0.417622D-02
     19 -0.262626D-01  0.537366D-02 -0.273035D-01  0.131839D-01 -0.693474D-02
     20  0.181765D-02  0.275553D-03  0.208586D-02 -0.297021D-02  0.353570D-02
     21 -0.177116D-01  0.513595D-02 -0.669952D-01  0.575197D-02 -0.462888D-02
     22 -0.275724D-01  0.222998D-02 -0.159012D-03  0.111075D-01 -0.601677D-02
     23 -0.159999D-01 -0.247635D-01  0.364006D-01  0.110093D-01 -0.157002D-02
     24  0.135192D-01  0.718639D-02 -0.149928D-01 -0.950518D-02  0.582470D-02
     25 -0.299064D-01 -0.107424D-02 -0.178841D-02  0.949284D-02 -0.134722D-01
[...]
     32  0.188650D-01 -0.391910D-01 -0.289843D-01 -0.375821D-02 -0.138046D-02
     33 -0.101558D-01 -0.546759D-02  0.595415D-04  0.430454D-02  0.450359D-02
                6             7             8             9            10 
      6  0.293441D+00
      7  0.186546D-01  0.122079D-01
      8 -0.843959D-02 -0.838373D-02  0.532400D+00
      9 -0.347083D-01 -0.564667D-01  0.166739D-01  0.497090D+00
     10  0.207564D-01  0.110245D+00  0.124342D-01  0.618425D-01  0.146067D+00
     11 -0.110556D-01 -0.182587D-02 -0.189904D-01  0.333601D-02  0.222526D-01
     12  0.411443D-02  0.561150D-01 -0.539034D-02 -0.620089D-01 -0.131993D+00
     13  0.805609D-03 -0.106709D-01 -0.144370D-01 -0.189082D-01 -0.725124D-01
     14 -0.287186D-02 -0.103028D-01 -0.306560D-01 -0.231028D-01  0.564460D-01
     15 -0.483775D-02 -0.238964D-02 -0.387226D-01 -0.240603D-01  0.369916D-01
     16 -0.102475D-02 -0.517168D-02  0.432123D-02 -0.172074D-01 -0.956873D-01
     17  0.232307D-02  0.180824D-01 -0.222675D-01  0.287495D-01 -0.796164D-01
     18 -0.282131D-02 -0.159178D-01  0.452001D-01 -0.451138D-01  0.725304D-01
     19 -0.281718D-02 -0.552995D-02  0.831508D-03  0.637197D-03 -0.547792D-01
     20 -0.245171D-03  0.229500D-02 -0.875157D-03 -0.940080D-03  0.461294D-02
     21  0.100595D-02  0.449454D-02  0.465937D-02  0.256489D-01 -0.639188D-01
     22 -0.788017D-02 -0.225816D-01 -0.816621D-02  0.126629D-01 -0.141182D-01
     23 -0.106261D-01 -0.145951D-01 -0.195233D+00  0.120404D+00  0.236234D-01
     24  0.132587D-01 -0.206364D-01  0.138360D+00 -0.217265D+00  0.125065D-01
     25 -0.118143D-01 -0.302414D-01  0.233884D-01  0.187558D-01 -0.700641D-02
     26  0.144069D-01  0.160136D-01 -0.271270D+00 -0.143495D+00 -0.236532D-01
     27  0.130258D-01 -0.143911D-01 -0.158850D+00 -0.197280D+00  0.120447D-01
     28 -0.219083D-03 -0.186504D-01  0.334363D-02  0.201559D-01 -0.156077D-01
     29 -0.227037D-01 -0.163815D-01 -0.916366D-02  0.229926D-01 -0.133515D-01
     30  0.742322D-02  0.217445D-02  0.149636D-02 -0.146710D-01  0.124590D-01
     31  0.364096D-02 -0.254148D-02 -0.334906D-02  0.256953D-02  0.288164D-02
     32  0.252151D-03  0.589809D-03 -0.554720D-03 -0.604832D-02 -0.332652D-02
     33  0.409676D-02  0.231625D-02 -0.322959D-02 -0.455919D-03  0.418769D-02
               11            12            13            14            15 
     11  0.554497D+00
     12 -0.713324D-02  0.315888D+00
     13  0.480983D-01  0.291828D-01  0.123019D+00
     14 -0.212213D+00 -0.587602D-01 -0.885243D-01  0.314696D+00
     15 -0.778523D-01 -0.107601D+00 -0.818214D-02  0.100605D+00  0.117787D+00
     16 -0.644693D-01  0.517709D-01  0.113187D-01 -0.557667D-02 -0.548514D-02
     17 -0.189830D+00  0.672594D-01 -0.899741D-02 -0.518672D-01  0.131162D-01
     18  0.899743D-01 -0.128215D+00 -0.616388D-02 -0.233898D-03  0.172691D-01
     19 -0.727411D-03  0.188295D-01 -0.520049D-01  0.449461D-01 -0.162648D-01
     20 -0.597886D-01 -0.265048D-03  0.570548D-01 -0.246617D-01  0.139258D-01
     21  0.207562D-02 -0.737030D-01  0.375237D-02 -0.919979D-03  0.146729D-01
     22  0.831420D-02 -0.223863D-01  0.442094D-03  0.203648D-02  0.867025D-04
     23 -0.846057D-02 -0.169078D-01 -0.293109D-02  0.815970D-02  0.185435D-02
     24  0.210907D-01  0.233699D-01  0.141728D-02 -0.770326D-02 -0.180484D-02
     25 -0.620859D-02 -0.235465D-01  0.207940D-02 -0.116888D-03 -0.341820D-02
     26 -0.181506D-01  0.186978D-01  0.605652D-03 -0.115736D-02 -0.318669D-02
     27 -0.257867D-01  0.196952D-01 -0.542727D-02 -0.798100D-02 -0.106608D-01
     28 -0.174469D-01 -0.118826D-01  0.172971D-02  0.133019D-02  0.236582D-02
     29 -0.193546D-01 -0.118768D-01  0.257317D-02  0.105591D-01  0.265880D-02
     30  0.782969D-02 -0.471674D-02  0.417620D-03  0.191081D-02 -0.443745D-04
     31 -0.117286D-01  0.703271D-03 -0.107353D-02  0.631484D-02  0.967519D-03
     32 -0.207067D-02  0.264088D-02  0.116862D-02 -0.840962D-03 -0.109130D-02
     33  0.110925D-01  0.878461D-02 -0.331969D-03 -0.512494D-02 -0.298795D-02
               16            17            18            19            20 
     16  0.169575D+00
     17  0.120089D+00  0.262366D+00
     18 -0.350230D-01 -0.130838D+00  0.153923D+00
     19 -0.852415D-01 -0.419932D-01 -0.110901D-01  0.197396D+00
     20 -0.565985D-01 -0.862138D-02 -0.461378D-02 -0.572441D-02  0.863956D-01
     21  0.103014D-01  0.439235D-02  0.184832D-01  0.448694D-01 -0.190176D-01
     22  0.304046D-02 -0.276847D-02 -0.462260D-03  0.161388D-02 -0.689950D-03
     23 -0.841281D-03 -0.867202D-03  0.185889D-02  0.568199D-02  0.536983D-03
     24 -0.381019D-02  0.879708D-02 -0.160643D-01 -0.593472D-02 -0.385080D-03
     25 -0.772428D-03 -0.391319D-02  0.174011D-02  0.304848D-02 -0.497952D-03
     26  0.376022D-02  0.898324D-02 -0.302366D-02 -0.558251D-02  0.189165D-02
     27  0.168582D-02  0.709454D-02 -0.333489D-02 -0.467518D-02  0.172488D-02
     28  0.456455D-03 -0.278066D-03  0.353853D-02  0.123678D-01  0.339534D-02
     29  0.661390D-03  0.978497D-03  0.230802D-02  0.423890D-02  0.146679D-02
     30  0.630405D-03  0.602521D-03 -0.133701D-02  0.485394D-02  0.642417D-02
     31 -0.405702D-03  0.123193D-02 -0.294546D-03 -0.340168D-02 -0.391802D-03
     32  0.753368D-03  0.420241D-03 -0.103783D-02  0.127715D-02  0.746585D-03
     33 -0.578088D-03 -0.732445D-03 -0.120712D-02 -0.221973D-02 -0.154567D-02
               21            22            23            24            25 
     21  0.999370D-01
     22  0.308711D-02  0.349888D-01
     23  0.143597D-01 -0.883847D-02  0.290419D+00
     24 -0.957283D-02  0.191900D-01 -0.162134D+00  0.196904D+00
     25  0.635774D-02  0.453129D-02 -0.519206D-02  0.170524D-02  0.412386D-01
     26 -0.149765D-01  0.271828D-02 -0.900379D-01 -0.241815D-02  0.384306D-02
     27 -0.798347D-02  0.639721D-04  0.226707D-01  0.340378D-01  0.635729D-02
     28  0.550016D-02  0.527851D-02  0.131462D-02 -0.625825D-02  0.405614D-02
     29  0.705678D-02  0.912735D-02  0.121391D-01 -0.115593D-01  0.481465D-02
     30 -0.181854D-03 -0.458067D-02 -0.775394D-02  0.745036D-02 -0.324716D-02
     31 -0.671298D-03  0.954421D-03  0.271918D-02 -0.164238D-02  0.823304D-03
     32  0.762284D-03 -0.109976D-02 -0.229580D-02  0.235035D-02 -0.899025D-03
     33 -0.461795D-02 -0.428301D-03  0.188189D-02 -0.120148D-02 -0.350254D-03
               26            27            28            29            30 
     26  0.378698D+00
     27  0.163964D+00  0.170194D+00
     28 -0.961019D-02 -0.791984D-02  0.232270D+00
     29 -0.317685D-02 -0.411268D-02 -0.147204D-01  0.588736D+00
     30  0.500633D-02  0.481276D-02 -0.207115D+00  0.208599D+00  0.318665D+00
     31  0.747567D-03  0.501246D-03 -0.139060D+00  0.127351D+00  0.179376D+00
     32  0.234231D-02  0.204672D-02  0.990005D-01 -0.161556D+00 -0.156938D+00
     33  0.976328D-03 -0.145791D-04  0.169492D+00 -0.188401D+00 -0.246566D+00
               31            32            33 
     31  0.130213D+00
     32 -0.112571D+00  0.204381D+00
     33 -0.166237D+00  0.186047D+00  0.244110D+00
 Red2BG is reusing G-inverse.
 Leave Link  716 at Sat May 24 06:06:08 2025, MaxMem=  3758096384 cpu:               0.1 elap:               0.0
 (Enter /apps/easybuild-2022/easybuild/software/Compiler/NVHPC/22.11-CUDA-11.7.0/Gaussian/g16c01-CUDA-11.7.0/g16/l9999.exe)

 ----------------------------------------------------------------------

 Electric dipole moment (input orientation):
 (Debye = 10**-18 statcoulomb cm , SI units = C m)
                  (au)            (Debye)         (10**-30 SI)
   Tot        0.913453D+00      0.232177D+01      0.774458D+01
   x         -0.270396D+00     -0.687278D+00     -0.229251D+01
   y          0.860877D+00      0.218813D+01      0.729882D+01
   z         -0.142037D+00     -0.361022D+00     -0.120424D+01

 Dipole polarizability, Alpha (input orientation).
 (esu units = cm**3 , SI units = C**2 m**2 J**-1)
 Alpha(0;0):
               (au)            (10**-24 esu)      (10**-40 SI)
   iso        0.562117D+02      0.832972D+01      0.926806D+01
   aniso      0.216062D+02      0.320172D+01      0.356239D+01
   xx         0.700080D+02      0.103741D+02      0.115428D+02
   yx         0.267664D+01      0.396638D+00      0.441319D+00
   yy         0.482848D+02      0.715507D+01      0.796108D+01
   zx         0.383365D+00      0.568088D-01      0.632083D-01
   zy         0.211810D+01      0.313870D+00      0.349228D+00
   zz         0.503424D+02      0.745997D+01      0.830034D+01

 ----------------------------------------------------------------------

 Dipole orientation:
     6          3.92029355         -0.76756814         -1.09273522
     8          4.48225316          0.52847336         -2.77513923
     6         -0.15887554          0.18515535         -0.19468180
     6          0.81422830         -2.80034698         -1.05596254
     9          0.46211724         -3.95482554          1.18464611
     9         -1.01609143         -3.19833852         -2.73622109
     9          2.66998921         -4.51781442         -2.13352752
     9          0.83071687          1.23861514          1.83477459
     9         -0.20254518          1.85679929         -1.98320864
     8          5.20318649         -1.51325168          0.87811499
     1          4.26784359         -2.71761172          1.89041935

 Electric dipole moment (dipole orientation):
 (Debye = 10**-18 statcoulomb cm , SI units = C m)
                  (au)            (Debye)         (10**-30 SI)
   Tot        0.913453D+00      0.232177D+01      0.774458D+01
   x          0.000000D+00      0.000000D+00      0.000000D+00
   y          0.000000D+00      0.000000D+00      0.000000D+00
   z          0.913453D+00      0.232177D+01      0.774458D+01

 Dipole polarizability, Alpha (dipole orientation).
 (esu units = cm**3 , SI units = C**2 m**2 J**-1)
 Alpha(0;0):
               (au)            (10**-24 esu)      (10**-40 SI)
   iso        0.562117D+02      0.832972D+01      0.926806D+01
   aniso      0.216062D+02      0.320172D+01      0.356239D+01
   xx         0.677005D+02      0.100322D+02      0.111623D+02
   yx        -0.564468D+01     -0.836455D+00     -0.930682D+00
   yy         0.527756D+02      0.782054D+01      0.870152D+01
   zx        -0.440000D+01     -0.652013D+00     -0.725462D+00
   zy        -0.255454D+00     -0.378544D-01     -0.421187D-01
   zz         0.481591D+02      0.713644D+01      0.794036D+01

 ----------------------------------------------------------------------
 Unable to Open any file for archive entry.
 1\1\GINC-SPARTAN-BM177\Freq\RM062X\def2TZVPP\C3H1F5O2\AKHALILOV\24-May
 -2025\0\\#P M062X/Def2TZVPP Symm(None) scf(xqc) pop(None) opt(NoFreeze
 ,TS,CalcAll,NoEigentest,MaxCycle=999)\\Gaussian input prepared by ASE\
 \0,1\C,2.1864484911,0.0498578405,-0.1413771782\O,2.5592281036,-0.87604
 41809,-0.7373301699\C,-0.0708577456,-0.1400552088,-0.051434245\C,0.921
 3854784,-0.0798009533,1.3559299291\F,0.5457058008,1.1339696496,1.80247
 98652\F,0.3403229014,-1.1029032612,1.9793837907\F,2.2171633078,-0.1698
 660099,2.0104347376\F,-0.0393950142,0.8695474843,-0.8988204892\F,-0.02
 56240474,-1.2422378529,-0.7311064911\O,2.6003918235,1.2879443649,-0.13
 26185417\H,2.1382639082,1.8207279017,0.5312381606\\Version=ES64L-G16Re
 vC.01\HF=-764.4596218\RMSD=5.804e-09\RMSF=4.939e-06\ZeroPoint=0.046691
 \Thermal=0.0561192\ETot=-764.4035027\HTot=-764.4025585\GTot=-764.44811
 32\Dipole=-0.2703961,0.8608765,-0.1420368\DipoleDeriv=1.911287,0.23736
 1,-0.5860882,-0.0573708,1.7284698,0.369718,-1.3896794,0.1949037,0.8346
 092,-0.9541321,0.1439329,0.3388185,0.5123128,-0.77359,-0.3620873,0.768
 5366,-0.2657093,-0.5699695,-0.4557552,-0.0102848,0.2777763,0.1595481,1
 .4459365,-0.0176321,1.209383,0.0614142,0.9779744,1.0250159,-0.0664049,
 0.1199757,-0.0861118,1.458253,-0.1285102,0.594767,-0.1044605,2.0730459
 ,-0.296225,0.1408033,0.0693942,0.1299712,-0.7658094,-0.2942697,0.11278
 39,-0.2502116,-0.5215813,-0.338796,-0.1972215,0.1209923,-0.1406803,-0.
 6078361,0.3702302,0.1413166,0.3310936,-0.6164745,-0.8618138,0.0384282,
 -0.4276493,0.0525888,-0.3157106,0.0498101,-0.6822188,0.0382809,-1.0251
 659,0.2318694,-0.0262263,-0.0208237,0.4844027,-0.6371126,0.4136152,-0.
 5718849,0.4588148,-0.6608484,0.2747304,0.0590287,0.0232927,-0.5900471,
 -0.7899375,-0.3576266,-0.5065457,-0.4862555,-0.4943306,-0.8209783,-0.3
 224366,0.0812561,-0.5922622,-1.2087407,-0.072457,0.2636827,-0.026442,-
 0.316902,0.2847978,0.0030201,0.0030553,0.1276485,0.4660775,0.0292094,0
 .0598589,0.0485716,0.3196427\Polar=70.0080494,2.6766449,48.2847739,0.3
 833645,2.1181023,50.3423707\PG=Unknown\NImag=1\\0.30724353,-0.13856558
 ,1.03314475,-0.14086982,0.38295902,0.39216305,-0.16144250,0.23072340,0
 .15470489,0.15823517,0.21451526,-0.61917541,-0.35048235,-0.22959629,0.
 70632099,0.14568533,-0.36110109,-0.29399904,-0.16578747,0.40006093,0.2
 9344148,0.00604216,-0.00545188,0.02604682,-0.03310733,0.01996007,0.018
 65459,0.01220786,-0.01061814,0.02860769,0.00824250,0.00063521,-0.01199
 763,-0.00843959,-0.00838373,0.53240048,-0.05008293,0.00454998,0.072824
 81,0.02604137,-0.02311984,-0.03470829,-0.05646667,0.01667386,0.4970899
 2,0.01027037,-0.00783454,-0.03740705,-0.00975240,0.00841308,0.02075645
 ,0.11024467,0.01243417,0.06184253,0.14606707,0.01360019,-0.02230737,-0
 .01357087,0.01014141,-0.00333157,-0.01105560,-0.00182587,-0.01899037,0
 .00333601,0.02225255,0.55449725,0.04773149,0.00754505,0.00439276,-0.01
 452447,0.00419030,0.00411443,0.05611503,-0.00539034,-0.06200891,-0.131
 99303,-0.00713324,0.31588847,-0.00158193,0.00442007,0.00343774,-0.0007
 4556,0.00096919,0.00080561,-0.01067087,-0.01443697,-0.01890818,-0.0725
 1244,0.04809830,0.02918283,0.12301931,-0.01081069,-0.01339921,0.004182
 50,0.00425779,0.00138057,-0.00287186,-0.01030284,-0.03065597,-0.023102
 85,0.05644602,-0.21221281,-0.05876019,-0.08852430,0.31469589,-0.010593
 16,-0.00881694,0.00226799,0.00592150,-0.00249001,-0.00483775,-0.002389
 64,-0.03872257,-0.02406032,0.03699157,-0.07785233,-0.10760139,-0.00818
 214,0.10060465,0.11778739,0.00228697,-0.00326592,-0.00125994,0.0006009
 6,0.00116630,-0.00102475,-0.00517168,0.00432123,-0.01720744,-0.0956873
 4,-0.06446931,0.05177087,0.01131868,-0.00557667,-0.00548514,0.16957512
 ,0.00034972,-0.00178480,-0.00076398,-0.00218646,0.00248971,0.00232307,
 0.01808242,-0.02226751,0.02874953,-0.07961644,-0.18983006,0.06725937,-
 0.00899741,-0.05186723,0.01311621,0.12008912,0.26236650,-0.01222962,0.
 00403195,0.00841804,0.00337219,-0.00362583,-0.00282131,-0.01591784,0.0
 4520011,-0.04511383,0.07253041,0.08997427,-0.12821531,-0.00616388,-0.0
 0023390,0.01726912,-0.03502297,-0.13083825,0.15392335,-0.02648183,0.00
 359992,-0.02618831,0.01301253,-0.00654805,-0.00281718,-0.00552995,0.00
 083151,0.00063720,-0.05477922,-0.00072741,0.01882951,-0.05200486,0.044
 94607,-0.01626483,-0.08524149,-0.04199316,-0.01109012,0.19739630,-0.00
 126570,0.00034435,0.00493759,-0.00218981,0.00256495,-0.00024517,0.0022
 9500,-0.00087516,-0.00094008,0.00461294,-0.05978858,-0.00026505,0.0570
 5479,-0.02466173,0.01392582,-0.05659845,-0.00862138,-0.00461378,-0.005
 72441,0.08639555,-0.02127621,0.00440625,-0.06368893,0.00750355,-0.0027
 9819,0.00100595,0.00449454,0.00465937,0.02564893,-0.06391879,0.0020756
 2,-0.07370299,0.00375237,-0.00091998,0.01467291,0.01030142,0.00439235,
 0.01848322,0.04486940,-0.01901763,0.09993701,-0.02422926,0.00627039,0.
 00064698,0.01007953,-0.00690385,-0.00788017,-0.02258156,-0.00816621,0.
 01266292,-0.01411821,0.00831420,-0.02238634,0.00044209,0.00203648,0.00
 008670,0.00304046,-0.00276847,-0.00046226,0.00161388,-0.00068995,0.003
 08711,0.03498884,-0.00648246,-0.01302972,0.03439175,0.00554120,-0.0013
 3054,-0.01062605,-0.01459507,-0.19523345,0.12040444,0.02362344,-0.0084
 6057,-0.01690779,-0.00293109,0.00815970,0.00185435,-0.00084128,-0.0008
 6720,0.00185889,0.00568199,0.00053698,0.01435969,-0.00883847,0.2904194
 0,0.01269636,0.00783144,-0.02911181,-0.00923345,0.00577000,0.01325869,
 -0.02063643,0.13836018,-0.21726512,0.01250649,0.02109068,0.02336991,0.
 00141728,-0.00770326,-0.00180484,-0.00381019,0.00879708,-0.01606426,-0
 .00593472,-0.00038508,-0.00957283,0.01919005,-0.16213391,0.19690356,-0
 .02114806,-0.00273742,0.00746023,0.00339103,-0.01248095,-0.01181429,-0
 .03024138,0.02338836,0.01875580,-0.00700641,-0.00620859,-0.02354652,0.
 00207940,-0.00011689,-0.00341820,-0.00077243,-0.00391319,0.00174011,0.
 00304848,-0.00049795,0.00635774,0.00453129,-0.00519206,0.00170524,0.04
 123863,0.01349159,-0.01988886,-0.03595087,-0.00233414,0.01176652,0.014
 40689,0.01601362,-0.27126970,-0.14349531,-0.02365315,-0.01815063,0.018
 69780,0.00060565,-0.00115736,-0.00318669,0.00376022,0.00898324,-0.0030
 2366,-0.00558251,0.00189165,-0.01497654,0.00271828,-0.09003792,-0.0024
 1815,0.00384306,0.37869760,0.01545236,-0.01250713,-0.02249176,-0.00369
 202,0.01173714,0.01302585,-0.01439111,-0.15885028,-0.19728024,0.012044
 72,-0.02578673,0.01969516,-0.00542727,-0.00798100,-0.01066079,0.001685
 82,0.00709454,-0.00333489,-0.00467518,0.00172488,-0.00798347,0.0000639
 7,0.02267067,0.03403781,0.00635729,0.16396386,0.17019415,-0.10191827,-
 0.08379232,0.03234208,0.01907751,0.01746353,-0.00021908,-0.01865044,0.
 00334363,0.02015586,-0.01560772,-0.01744685,-0.01188265,0.00172971,0.0
 0133019,0.00236582,0.00045646,-0.00027807,0.00353853,0.01236783,0.0033
 9534,0.00550016,0.00527851,0.00131462,-0.00625825,0.00405614,-0.009610
 19,-0.00791984,0.23227038,-0.09307922,-0.33332046,-0.00496102,-0.01123
 411,-0.08730712,-0.02270368,-0.01638154,-0.00916366,0.02299257,-0.0133
 5155,-0.01935463,-0.01187678,0.00257317,0.01055911,0.00265880,0.000661
 39,0.00097850,0.00230802,0.00423890,0.00146679,0.00705678,0.00912735,0
 .01213912,-0.01155935,0.00481465,-0.00317685,-0.00411268,-0.01472043,0
 .58873560,0.02364198,-0.02343094,-0.07083466,-0.00861062,-0.04374574,0
 .00742322,0.00217445,0.00149636,-0.01467104,0.01245902,0.00782969,-0.0
 0471674,0.00041762,0.00191081,-0.00004437,0.00063040,0.00060252,-0.001
 33701,0.00485394,0.00642417,-0.00018185,-0.00458067,-0.00775394,0.0074
 5036,-0.00324716,0.00500633,0.00481276,-0.20711491,0.20859860,0.318664
 96,0.01095882,-0.00336613,-0.01891361,0.00065106,-0.00695829,0.0036409
 6,-0.00254148,-0.00334906,0.00256953,0.00288164,-0.01172863,0.00070327
 ,-0.00107353,0.00631484,0.00096752,-0.00040570,0.00123193,-0.00029455,
 -0.00340168,-0.00039180,-0.00067130,0.00095442,0.00271918,-0.00164238,
 0.00082330,0.00074757,0.00050125,-0.13906010,0.12735139,0.17937593,0.1
 3021326,0.01886503,-0.03919096,-0.02898427,-0.00375821,-0.00138046,0.0
 0025215,0.00058981,-0.00055472,-0.00604832,-0.00332652,-0.00207067,0.0
 0264088,0.00116862,-0.00084096,-0.00109130,0.00075337,0.00042024,-0.00
 103783,0.00127715,0.00074659,0.00076228,-0.00109976,-0.00229580,0.0023
 5035,-0.00089902,0.00234231,0.00204672,0.09900055,-0.16155639,-0.15693
 787,-0.11257101,0.20438083,-0.01015579,-0.00546759,0.00005954,0.004304
 54,0.00450359,0.00409676,0.00231625,-0.00322959,-0.00045592,0.00418769
 ,0.01109251,0.00878461,-0.00033197,-0.00512494,-0.00298795,-0.00057809
 ,-0.00073244,-0.00120712,-0.00221973,-0.00154567,-0.00461795,-0.000428
 30,0.00188189,-0.00120148,-0.00035025,0.00097633,-0.00001458,0.1694922
 8,-0.18840128,-0.24656562,-0.16623662,0.18604719,0.24410971\\-0.000002
 58,-0.00000118,-0.00000336,-0.00000642,-0.00000029,-0.00000791,-0.0000
 0326,0.00000719,0.00000093,0.00000667,-0.00000211,0.00000258,0.0000071
 7,-0.00000255,0.00000416,0.00000161,-0.00000205,-0.00000058,-0.0000027
 4,-0.00000921,-0.00000579,-0.00000076,0.00000852,0.00000658,-0.0000082
 7,0.00000901,-0.00000056,0.00000149,-0.00000392,0.00000123,0.00000709,
 -0.00000341,0.00000272\\\@
 The archive entry for this job was punched.


 IF YOU GIVE EVERYONE A PIECE OF YOUR MIND,
 PRETTY SOON IT WILL BE ALL GONE.
 Job cpu time:       0 days  4 hours 50 minutes 32.0 seconds.
 Elapsed time:       0 days  0 hours 39 minutes 14.4 seconds.
 File lengths (MBytes):  RWF=    123 Int=      0 D2E=      0 Chk=      9 Scr=      1
 Normal termination of Gaussian 16 at Sat May 24 06:06:08 2025.
done
