 Entering Gaussian System, Link 0=g16
 Initial command:
 /apps/easybuild-2022/easybuild/software/Compiler/NVHPC/22.11-CUDA-11.7.0/Gaussian/g16c01-CUDA-11.7.0/g16/l1.exe "/tmp/Gau-260425.inp" -scrdir="/tmp/"
 Entering Link 1 = /apps/easybuild-2022/easybuild/software/Compiler/NVHPC/22.11-CUDA-11.7.0/Gaussian/g16c01-CUDA-11.7.0/g16/l1.exe PID=    260426.
  
 Copyright (c) 1988-2019, Gaussian, Inc.  All Rights Reserved.
  
 This is part of the Gaussian(R) 16 program.  It is based on
 the Gaussian(R) 09 system (copyright 2009, Gaussian, Inc.),
 the Gaussian(R) 03 system (copyright 2003, Gaussian, Inc.),
 the Gaussian(R) 98 system (copyright 1998, Gaussian, Inc.),
 the Gaussian(R) 94 system (copyright 1995, Gaussian, Inc.),
 the Gaussian 92(TM) system (copyright 1992, Gaussian, Inc.),
 the Gaussian 90(TM) system (copyright 1990, Gaussian, Inc.),
 the Gaussian 88(TM) system (copyright 1988, Gaussian, Inc.),
 the Gaussian 86(TM) system (copyright 1986, Carnegie Mellon
 University), and the Gaussian 82(TM) system (copyright 1983,
 Carnegie Mellon University). Gaussian is a federally registered
 trademark of Gaussian, Inc.
  
 This software contains proprietary and confidential information,
 including trade secrets, belonging to Gaussian, Inc.
  
 This software is provided under written license and may be
 used, copied, transmitted, or stored only in accord with that
 written license.
  
 The following legend is applicable only to US Government
 contracts under FAR:
  
                    RESTRICTED RIGHTS LEGEND
  
 Use, reproduction and disclosure by the US Government is
 subject to restrictions as set forth in subparagraphs (a)
 and (c) of the Commercial Computer Software - Restricted
 Rights clause in FAR 52.227-19.
  
 Gaussian, Inc.
 340 Quinnipiac St., Bldg. 40, Wallingford CT 06492
  
  
 ---------------------------------------------------------------
 Warning -- This program may not be used in any manner that
 competes with the business of Gaussian, Inc. or will provide
 assistance to any competitor of Gaussian, Inc.  The licensee
 of this program is prohibited from giving any competitor of
 Gaussian, Inc. access to this program.  By using this program,
 the user acknowledges that Gaussian, Inc. is engaged in the
 business of creating and licensing software in the field of
 computational chemistry and represents and warrants to the
 licensee that it is not a competitor of Gaussian, Inc. and that
 it will not use this program in any manner prohibited above.
 ---------------------------------------------------------------
  

 Cite this work as:
 Gaussian 16, Revision C.01,
 M. J. Frisch, G. W. Trucks, H. B. Schlegel, G. E. Scuseria, 
 M. A. Robb, J. R. Cheeseman, G. Scalmani, V. Barone, 
 G. A. Petersson, H. Nakatsuji, X. Li, M. Caricato, A. V. Marenich, 
 J. Bloino, B. G. Janesko, R. Gomperts, B. Mennucci, H. P. Hratchian, 
 J. V. Ortiz, A. F. Izmaylov, J. L. Sonnenberg, D. Williams-Young, 
 F. Ding, F. Lipparini, F. Egidi, J. Goings, B. Peng, A. Petrone, 
 T. Henderson, D. Ranasinghe, V. G. Zakrzewski, J. Gao, N. Rega, 
 G. Zheng, W. Liang, M. Hada, M. Ehara, K. Toyota, R. Fukuda, 
 J. Hasegawa, M. Ishida, T. Nakajima, Y. Honda, O. Kitao, H. Nakai, 
 T. Vreven, K. Throssell, J. A. Montgomery, Jr., J. E. Peralta, 
 F. Ogliaro, M. J. Bearpark, J. J. Heyd, E. N. Brothers, K. N. Kudin, 
 V. N. Staroverov, T. A. Keith, R. Kobayashi, J. Normand, 
 K. Raghavachari, A. P. Rendell, J. C. Burant, S. S. Iyengar, 
 J. Tomasi, M. Cossi, J. M. Millam, M. Klene, C. Adamo, R. Cammi, 
 J. W. Ochterski, R. L. Martin, K. Morokuma, O. Farkas, 
 J. B. Foresman, and D. J. Fox, Gaussian, Inc., Wallingford CT, 2019.
 
 ******************************************
 Gaussian 16:  ES64L-G16RevC.01  3-Jul-2019
                24-May-2025 
 ******************************************
 %mem=28GB
 %nprocshared=8
 Will use up to    8 processors via shared memory.
 -----------------------------------------------------------------
 #P M062X/Def2TZVPP Symm(None) scf(xqc) pop(None) freq opt(CalcFC)
 -----------------------------------------------------------------
 1/10=4,18=20,19=15,26=3,38=1/1,3;
 2/9=110,12=2,15=3,17=6,18=5,40=1/2;
 3/5=44,7=202,11=2,25=1,30=1,71=2,74=-55,140=1/1,2,3;
 4//1;
 5/5=2,8=3,13=1,38=5/2,8;
 8/6=4,10=90,11=11/1;
 11/6=1,8=1,9=11,15=111,16=1,31=1/1,2,10;
 10/6=1,13=1,31=1/2;
 7/10=1,25=1,30=1/1,2,3,16;
 1/10=4,18=20,19=15,26=3/3(2);
 2/9=110,15=3/2;
 99//99;
 2/9=110,15=3/2;
 3/5=44,7=202,11=2,25=1,30=1,71=1,74=-55/1,2,3;
 4/5=5,16=3,69=1/1;
 5/5=2,8=3,13=1,38=5/2,8;
 7/30=1/1,2,3,16;
 1/18=20,19=15,26=3/3(-5);
 2/9=110,15=3/2;
 99/9=1/99;
 Leave Link    1 at Sat May 24 06:30:15 2025, MaxMem=  3758096384 cpu:               0.0 elap:               0.0
 (Enter /apps/easybuild-2022/easybuild/software/Compiler/NVHPC/22.11-CUDA-11.7.0/Gaussian/g16c01-CUDA-11.7.0/g16/l101.exe)
 ------------------------------
 Gaussian input prepared by ASE
 ------------------------------
 Symbolic Z-matrix:
 Charge =  0 Multiplicity = 1
 C                     1.34684   0.        0. 
 O                     0.        0.        0. 
 C                     1.9968   -1.15946  -0.08556 
 C                     1.43195  -2.55006   0.0354 
 F                     1.39628  -3.15125  -1.15679 
 F                     2.22716  -3.27692   0.82069 
 F                     0.21139  -2.57068   0.54713 
 F                    -0.39638   0.54921   1.26044 
 F                     3.29903  -1.16609  -0.33495 
 O                     1.97554   1.17671   0. 
 H                     1.34431   1.87737  -0.20039 
 
 ITRead=  0  0  0  0  0  0  0  0  0  0  0
 MicOpt= -1 -1 -1 -1 -1 -1 -1 -1 -1 -1 -1
 NAtoms=     11 NQM=       11 NQMF=       0 NMMI=      0 NMMIF=      0
                NMic=       0 NMicF=      0.
                    Isotopes and Nuclear Properties:
 (Nuclear quadrupole moments (NQMom) in fm**2, nuclear magnetic moments (NMagM)
  in nuclear magnetons)

  Atom         1           2           3           4           5           6           7           8           9          10
 IAtWgt=          12          16          12          12          19          19          19          19          19          16
 AtmWgt=  12.0000000  15.9949146  12.0000000  12.0000000  18.9984032  18.9984032  18.9984032  18.9984032  18.9984032  15.9949146
 NucSpn=           0           0           0           0           1           1           1           1           1           0
 AtZEff=  -0.0000000  -0.0000000  -0.0000000  -0.0000000  -0.0000000  -0.0000000  -0.0000000  -0.0000000  -0.0000000  -0.0000000
 NQMom=    0.0000000   0.0000000   0.0000000   0.0000000   0.0000000   0.0000000   0.0000000   0.0000000   0.0000000   0.0000000
 NMagM=    0.0000000   0.0000000   0.0000000   0.0000000   2.6288670   2.6288670   2.6288670   2.6288670   2.6288670   0.0000000
 AtZNuc=   6.0000000   8.0000000   6.0000000   6.0000000   9.0000000   9.0000000   9.0000000   9.0000000   9.0000000   8.0000000

  Atom        11
 IAtWgt=           1
 AtmWgt=   1.0078250
 NucSpn=           1
 AtZEff=  -0.0000000
 NQMom=    0.0000000
 NMagM=    2.7928460
 AtZNuc=   1.0000000
 Leave Link  101 at Sat May 24 06:30:15 2025, MaxMem=  3758096384 cpu:               0.2 elap:               0.2
 (Enter /apps/easybuild-2022/easybuild/software/Compiler/NVHPC/22.11-CUDA-11.7.0/Gaussian/g16c01-CUDA-11.7.0/g16/l103.exe)

 GradGradGradGradGradGradGradGradGradGradGradGradGradGradGradGradGradGrad
 Berny optimization.
 Initialization pass.
                           ----------------------------
                           !    Initial Parameters    !
                           ! (Angstroms and Degrees)  !
 --------------------------                            --------------------------
 ! Name  Definition              Value          Derivative Info.                !
 --------------------------------------------------------------------------------
 ! R1    R(1,2)                  1.3468         calculate D2E/DX2 analytically  !
 ! R2    R(1,3)                  1.332          calculate D2E/DX2 analytically  !
 ! R3    R(1,10)                 1.3341         calculate D2E/DX2 analytically  !
 ! R4    R(2,8)                  1.4309         calculate D2E/DX2 analytically  !
 ! R5    R(3,4)                  1.5058         calculate D2E/DX2 analytically  !
 ! R6    R(3,9)                  1.3259         calculate D2E/DX2 analytically  !
 ! R7    R(4,5)                  1.3357         calculate D2E/DX2 analytically  !
 ! R8    R(4,6)                  1.3332         calculate D2E/DX2 analytically  !
 ! R9    R(4,7)                  1.3237         calculate D2E/DX2 analytically  !
 ! R10   R(10,11)                0.9641         calculate D2E/DX2 analytically  !
 ! A1    A(2,1,3)              119.2075         calculate D2E/DX2 analytically  !
 ! A2    A(2,1,10)             118.115          calculate D2E/DX2 analytically  !
 ! A3    A(3,1,10)             122.5355         calculate D2E/DX2 analytically  !
 ! A4    A(1,2,8)              106.0823         calculate D2E/DX2 analytically  !
 ! A5    A(1,3,4)              128.0019         calculate D2E/DX2 analytically  !
 ! A6    A(1,3,9)              119.7157         calculate D2E/DX2 analytically  !
 ! A7    A(4,3,9)              112.2655         calculate D2E/DX2 analytically  !
 ! A8    A(3,4,5)              110.7316         calculate D2E/DX2 analytically  !
 ! A9    A(3,4,6)              109.0907         calculate D2E/DX2 analytically  !
 ! A10   A(3,4,7)              113.0377         calculate D2E/DX2 analytically  !
 ! A11   A(5,4,6)              107.2352         calculate D2E/DX2 analytically  !
 ! A12   A(5,4,7)              108.266          calculate D2E/DX2 analytically  !
 ! A13   A(6,4,7)              108.2885         calculate D2E/DX2 analytically  !
 ! A14   A(1,10,11)            109.4176         calculate D2E/DX2 analytically  !
 ! D1    D(3,1,2,8)            117.7646         calculate D2E/DX2 analytically  !
 ! D2    D(10,1,2,8)           -66.4557         calculate D2E/DX2 analytically  !
 ! D3    D(2,1,3,4)            -10.8306         calculate D2E/DX2 analytically  !
 ! D4    D(2,1,3,9)            167.5518         calculate D2E/DX2 analytically  !
 ! D5    D(10,1,3,4)           173.585          calculate D2E/DX2 analytically  !
 ! D6    D(10,1,3,9)            -8.0326         calculate D2E/DX2 analytically  !
 ! D7    D(2,1,10,11)          -12.7313         calculate D2E/DX2 analytically  !
 ! D8    D(3,1,10,11)          162.899          calculate D2E/DX2 analytically  !
 ! D9    D(1,3,4,5)            107.2192         calculate D2E/DX2 analytically  !
 ! D10   D(1,3,4,6)           -134.99           calculate D2E/DX2 analytically  !
 ! D11   D(1,3,4,7)            -14.4578         calculate D2E/DX2 analytically  !
 ! D12   D(9,3,4,5)            -71.2627         calculate D2E/DX2 analytically  !
 ! D13   D(9,3,4,6)             46.5281         calculate D2E/DX2 analytically  !
 ! D14   D(9,3,4,7)            167.0603         calculate D2E/DX2 analytically  !
 --------------------------------------------------------------------------------
 Trust Radius=3.00D-01 FncErr=1.00D-07 GrdErr=1.00D-06 EigMax=2.50D+02 EigMin=1.00D-04
 Number of steps in this run=     48 maximum allowed number of steps=    100.
 GradGradGradGradGradGradGradGradGradGradGradGradGradGradGradGradGradGrad

 Leave Link  103 at Sat May 24 06:30:15 2025, MaxMem=  3758096384 cpu:               0.0 elap:               0.0
 (Enter /apps/easybuild-2022/easybuild/software/Compiler/NVHPC/22.11-CUDA-11.7.0/Gaussian/g16c01-CUDA-11.7.0/g16/l202.exe)
                          Input orientation:                          
 ---------------------------------------------------------------------
 Center     Atomic      Atomic             Coordinates (Angstroms)
 Number     Number       Type             X           Y           Z
 ---------------------------------------------------------------------
      1          6           0        1.346841    0.000000    0.000000
      2          8           0        0.000000    0.000000    0.000000
      3          6           0        1.996801   -1.159457   -0.085557
      4          6           0        1.431954   -2.550061    0.035396
      5          9           0        1.396277   -3.151250   -1.156791
      6          9           0        2.227164   -3.276921    0.820691
      7          9           0        0.211387   -2.570682    0.547125
      8          9           0       -0.396384    0.549213    1.260438
      9          9           0        3.299031   -1.166093   -0.334947
     10          8           0        1.975539    1.176707    0.000000
     11          1           0        1.344307    1.877370   -0.200388
 ---------------------------------------------------------------------
                    Distance matrix (angstroms):
                    1          2          3          4          5
     1  C    0.000000
     2  O    1.346841   0.000000
     3  C    1.331957   2.310601   0.000000
     4  C    2.551726   2.924817   1.505809   0.000000
     5  F    3.357229   3.635675   2.339959   1.335669   0.000000
     6  F    3.490948   4.046234   2.314737   1.333181   2.148628
     7  F    2.863042   2.636747   2.362107   1.323661   2.155077
     8  F    2.220174   1.430894   3.233975   3.801190   4.769702
     9  F    2.298479   3.515048   1.325911   2.353400   2.869973
    10  O    1.334129   2.299434   2.337827   3.766369   4.517180
    11  H    1.888036   2.317722   3.108256   4.434571   5.119026
                    6          7          8          9         10
     6  F    0.000000
     7  F    2.153363   0.000000
     8  F    4.660009   3.257598   0.000000
     9  F    2.634386   3.504920   4.375342   0.000000
    10  O    4.535599   4.177859   2.758346   2.711555   0.000000
    11  H    5.328111   4.650532   2.632113   3.619630   0.964126
                   11
    11  H    0.000000
 Symmetry turned off by external request.
 Stoichiometry    C3HF5O2
 Rotational constants (GHZ):           1.9760929           1.0271356           0.7912597
 Leave Link  202 at Sat May 24 06:30:15 2025, MaxMem=  3758096384 cpu:               0.0 elap:               0.0
 (Enter /apps/easybuild-2022/easybuild/software/Compiler/NVHPC/22.11-CUDA-11.7.0/Gaussian/g16c01-CUDA-11.7.0/g16/l301.exe)
 Standard basis: def2TZVPP (5D, 7F)
 Ernie: Thresh=  0.10000D-02 Tol=  0.10000D-05 Strict=F.
   324 basis functions,   527 primitive gaussians,   375 cartesian basis functions
    40 alpha electrons       40 beta electrons
       nuclear repulsion energy       612.9929749815 Hartrees.
 IExCor= 4336 DFT=T Ex+Corr=M062X ExCW=0 ScaHFX=  0.540000
 ScaDFX=  1.000000  1.000000  1.000000  1.000000 ScalE2=  1.000000  1.000000
 IRadAn=      5 IRanWt=     -1 IRanGd=            0 ICorTp=0 IEmpDi=  4
 NAtoms=   11 NActive=   11 NUniq=   11 SFac= 1.00D+00 NAtFMM=   60 NAOKFM=F Big=F
 Integral buffers will be    131072 words long.
 Raffenetti 2 integral format.
 Two-electron integral symmetry is turned off.
 Leave Link  301 at Sat May 24 06:30:15 2025, MaxMem=  3758096384 cpu:               0.0 elap:               0.0
 (Enter /apps/easybuild-2022/easybuild/software/Compiler/NVHPC/22.11-CUDA-11.7.0/Gaussian/g16c01-CUDA-11.7.0/g16/l302.exe)
 NPDir=0 NMtPBC=     1 NCelOv=     1 NCel=       1 NClECP=     1 NCelD=      1
         NCelK=      1 NCelE2=     1 NClLst=     1 CellRange=     0.0.
 One-electron integrals computed using PRISM.
   1 Symmetry operations used in ECPInt.
 ECPInt:  NShTT=    6786 NPrTT=   21959 LenC2=    6350 LenP2D=   15554.
 LDataN:  DoStor=T MaxTD1= 6 Len=  172
 NBasis=   324 RedAO= T EigKep=  8.02D-05  NBF=   324
 NBsUse=   324 1.00D-06 EigRej= -1.00D+00 NBFU=   324
 Precomputing XC quadrature grid using
 IXCGrd= 4 IRadAn=           5 IRanWt=          -1 IRanGd=           0 AccXCQ= 0.00D+00.
 Generated NRdTot=       0 NPtTot=           0 NUsed=           0 NTot=          32
 NSgBfM=   373   373   373   373   373 MxSgAt=    11 MxSgA2=    11.
 Leave Link  302 at Sat May 24 06:30:15 2025, MaxMem=  3758096384 cpu:               0.6 elap:               0.1
 (Enter /apps/easybuild-2022/easybuild/software/Compiler/NVHPC/22.11-CUDA-11.7.0/Gaussian/g16c01-CUDA-11.7.0/g16/l303.exe)
 DipDrv:  MaxL=1.
 Leave Link  303 at Sat May 24 06:30:15 2025, MaxMem=  3758096384 cpu:               0.1 elap:               0.0
 (Enter /apps/easybuild-2022/easybuild/software/Compiler/NVHPC/22.11-CUDA-11.7.0/Gaussian/g16c01-CUDA-11.7.0/g16/l401.exe)
 ExpMin= 9.52D-02 ExpMax= 3.55D+04 ExpMxC= 1.21D+03 IAcc=3 IRadAn=         5 AccDes= 0.00D+00
 Harris functional with IExCor= 1009 and IRadAn=       5 diagonalized for initial guess.
 HarFok:  IExCor= 1009 AccDes= 0.00D+00 IRadAn=         5 IDoV= 1 UseB2=F ITyADJ=14
 ICtDFT=  3500011 ScaDFX=  1.000000  1.000000  1.000000  1.000000
 FoFCou: FMM=F IPFlag=           0 FMFlag=      100000 FMFlg1=           0
         NFxFlg=           0 DoJE=T BraDBF=F KetDBF=T FulRan=T
         wScrn=  0.000000 ICntrl=       500 IOpCl=  0 I1Cent=   200000004 NGrid=           0
         NMat0=    1 NMatS0=      1 NMatT0=    0 NMatD0=    1 NMtDS0=    0 NMtDT0=    0
 Symmetry not used in FoFCou.
 Harris En= -764.035053636235    
 JPrj=0 DoOrth=F DoCkMO=F.
 Leave Link  401 at Sat May 24 06:30:16 2025, MaxMem=  3758096384 cpu:               3.3 elap:               0.5
 (Enter /apps/easybuild-2022/easybuild/software/Compiler/NVHPC/22.11-CUDA-11.7.0/Gaussian/g16c01-CUDA-11.7.0/g16/l502.exe)
 Keep R1 ints in memory in canonical form, NReq=1412617130.
 FoFCou: FMM=F IPFlag=           0 FMFlag=           0 FMFlg1=           0
         NFxFlg=           0 DoJE=F BraDBF=F KetDBF=F FulRan=T
         wScrn=  0.000000 ICntrl=       600 IOpCl=  0 I1Cent=           0 NGrid=           0
         NMat0=    1 NMatS0=  52650 NMatT0=    0 NMatD0=    1 NMtDS0=    0 NMtDT0=    0
 Symmetry not used in FoFCou.
 Two-electron integral symmetry not used.
 Closed shell SCF:
 Using DIIS extrapolation, IDIIS=  1040.
 NGot=  3758096384 LenX=  2371771924 LenY=  2371630858
 Requested convergence on RMS density matrix=1.00D-08 within  32 cycles.
 Requested convergence on MAX density matrix=1.00D-06.
 Requested convergence on             energy=1.00D-06.
 No special actions if energy rises.
 Integral accuracy reduced to 1.0D-05 until final iterations.

 Cycle   1  Pass 0  IDiag  1:
 E= -764.374127745942    
 DIIS: error= 1.88D-02 at cycle   1 NSaved=   1.
 NSaved= 1 IEnMin= 1 EnMin= -764.374127745942     IErMin= 1 ErrMin= 1.88D-02
 ErrMax= 1.88D-02  0.00D+00 EMaxC= 1.00D-01 BMatC= 2.64D-01 BMatP= 2.64D-01
 IDIUse=3 WtCom= 8.12D-01 WtEn= 1.88D-01
 Coeff-Com:  0.100D+01
 Coeff-En:   0.100D+01
 Coeff:      0.100D+01
 Gap=     0.264 Goal=   None    Shift=    0.000
 GapD=    0.264 DampG=1.000 DampE=0.500 DampFc=0.5000 IDamp=-1.
 Damping current iteration by 5.00D-01
 RMSDP=2.09D-03 MaxDP=9.89D-02              OVMax= 9.44D-02

 Cycle   2  Pass 0  IDiag  1:
 E= -764.427583585755     Delta-E=       -0.053455839813 Rises=F Damp=T
 DIIS: error= 5.47D-03 at cycle   2 NSaved=   2.
 NSaved= 2 IEnMin= 2 EnMin= -764.427583585755     IErMin= 2 ErrMin= 5.47D-03
 ErrMax= 5.47D-03  0.00D+00 EMaxC= 1.00D-01 BMatC= 3.31D-02 BMatP= 2.64D-01
 IDIUse=3 WtCom= 9.45D-01 WtEn= 5.47D-02
 Coeff-Com: -0.971D-01 0.110D+01
 Coeff-En:   0.000D+00 0.100D+01
 Coeff:     -0.918D-01 0.109D+01
 Gap=     0.316 Goal=   None    Shift=    0.000
 RMSDP=8.35D-04 MaxDP=5.10D-02 DE=-5.35D-02 OVMax= 5.60D-02

 Cycle   3  Pass 0  IDiag  1:
 E= -764.483537035760     Delta-E=       -0.055953450006 Rises=F Damp=F
 DIIS: error= 3.54D-03 at cycle   3 NSaved=   3.
 NSaved= 3 IEnMin= 3 EnMin= -764.483537035760     IErMin= 3 ErrMin= 3.54D-03
 ErrMax= 3.54D-03  0.00D+00 EMaxC= 1.00D-01 BMatC= 1.18D-02 BMatP= 3.31D-02
 IDIUse=3 WtCom= 9.65D-01 WtEn= 3.54D-02
 Coeff-Com: -0.164D+00 0.419D+00 0.745D+00
 Coeff-En:   0.000D+00 0.000D+00 0.100D+01
 Coeff:     -0.158D+00 0.404D+00 0.755D+00
 Gap=     0.296 Goal=   None    Shift=    0.000
 RMSDP=2.83D-04 MaxDP=1.07D-02 DE=-5.60D-02 OVMax= 2.79D-02

 Cycle   4  Pass 0  IDiag  1:
 E= -764.490004785736     Delta-E=       -0.006467749976 Rises=F Damp=F
 DIIS: error= 1.34D-03 at cycle   4 NSaved=   4.
 NSaved= 4 IEnMin= 4 EnMin= -764.490004785736     IErMin= 4 ErrMin= 1.34D-03
 ErrMax= 1.34D-03  0.00D+00 EMaxC= 1.00D-01 BMatC= 1.76D-03 BMatP= 1.18D-02
 IDIUse=3 WtCom= 9.87D-01 WtEn= 1.34D-02
 Coeff-Com: -0.785D-01 0.163D+00 0.405D+00 0.511D+00
 Coeff-En:   0.000D+00 0.000D+00 0.550D-01 0.945D+00
 Coeff:     -0.774D-01 0.161D+00 0.400D+00 0.517D+00
 Gap=     0.294 Goal=   None    Shift=    0.000
 RMSDP=9.76D-05 MaxDP=3.91D-03 DE=-6.47D-03 OVMax= 1.01D-02

 Cycle   5  Pass 0  IDiag  1:
 E= -764.491177951425     Delta-E=       -0.001173165689 Rises=F Damp=F
 DIIS: error= 4.56D-04 at cycle   5 NSaved=   5.
 NSaved= 5 IEnMin= 5 EnMin= -764.491177951425     IErMin= 5 ErrMin= 4.56D-04
 ErrMax= 4.56D-04  0.00D+00 EMaxC= 1.00D-01 BMatC= 1.07D-04 BMatP= 1.76D-03
 IDIUse=3 WtCom= 9.95D-01 WtEn= 4.56D-03
 Coeff-Com: -0.262D-01 0.477D-01 0.138D+00 0.252D+00 0.588D+00
 Coeff-En:   0.000D+00 0.000D+00 0.000D+00 0.000D+00 0.100D+01
 Coeff:     -0.260D-01 0.475D-01 0.138D+00 0.251D+00 0.590D+00
 Gap=     0.295 Goal=   None    Shift=    0.000
 RMSDP=2.24D-05 MaxDP=1.27D-03 DE=-1.17D-03 OVMax= 2.49D-03

 Cycle   6  Pass 0  IDiag  1:
 E= -764.491240205793     Delta-E=       -0.000062254368 Rises=F Damp=F
 DIIS: error= 8.39D-05 at cycle   6 NSaved=   6.
 NSaved= 6 IEnMin= 6 EnMin= -764.491240205793     IErMin= 6 ErrMin= 8.39D-05
 ErrMax= 8.39D-05  0.00D+00 EMaxC= 1.00D-01 BMatC= 6.44D-06 BMatP= 1.07D-04
 IDIUse=1 WtCom= 1.00D+00 WtEn= 0.00D+00
 Coeff-Com: -0.430D-02 0.608D-02 0.193D-01 0.485D-01 0.222D+00 0.708D+00
 Coeff:     -0.430D-02 0.608D-02 0.193D-01 0.485D-01 0.222D+00 0.708D+00
 Gap=     0.295 Goal=   None    Shift=    0.000
 RMSDP=8.49D-06 MaxDP=4.14D-04 DE=-6.23D-05 OVMax= 1.11D-03

 Initial convergence to 1.0D-05 achieved.  Increase integral accuracy.
 Cycle   7  Pass 1  IDiag  1:
 E= -764.491238885062     Delta-E=        0.000001320731 Rises=F Damp=F
 DIIS: error= 5.58D-05 at cycle   1 NSaved=   1.
 NSaved= 1 IEnMin= 1 EnMin= -764.491238885062     IErMin= 1 ErrMin= 5.58D-05
 ErrMax= 5.58D-05  0.00D+00 EMaxC= 1.00D-01 BMatC= 1.31D-06 BMatP= 1.31D-06
 IDIUse=1 WtCom= 1.00D+00 WtEn= 0.00D+00
 Coeff-Com:  0.100D+01
 Coeff:      0.100D+01
 Gap=     0.295 Goal=   None    Shift=    0.000
 RMSDP=8.49D-06 MaxDP=4.14D-04 DE= 1.32D-06 OVMax= 8.35D-04

 Cycle   8  Pass 1  IDiag  1:
 E= -764.491239338020     Delta-E=       -0.000000452958 Rises=F Damp=F
 DIIS: error= 4.44D-05 at cycle   2 NSaved=   2.
 NSaved= 2 IEnMin= 2 EnMin= -764.491239338020     IErMin= 2 ErrMin= 4.44D-05
 ErrMax= 4.44D-05  0.00D+00 EMaxC= 1.00D-01 BMatC= 1.28D-06 BMatP= 1.31D-06
 IDIUse=1 WtCom= 1.00D+00 WtEn= 0.00D+00
 Coeff-Com:  0.497D+00 0.503D+00
 Coeff:      0.497D+00 0.503D+00
 Gap=     0.295 Goal=   None    Shift=    0.000
 RMSDP=2.78D-06 MaxDP=1.48D-04 DE=-4.53D-07 OVMax= 4.91D-04

 Cycle   9  Pass 1  IDiag  1:
 E= -764.491240314926     Delta-E=       -0.000000976906 Rises=F Damp=F
 DIIS: error= 1.03D-05 at cycle   3 NSaved=   3.
 NSaved= 3 IEnMin= 3 EnMin= -764.491240314926     IErMin= 3 ErrMin= 1.03D-05
 ErrMax= 1.03D-05  0.00D+00 EMaxC= 1.00D-01 BMatC= 5.65D-08 BMatP= 1.28D-06
 IDIUse=1 WtCom= 1.00D+00 WtEn= 0.00D+00
 Coeff-Com: -0.988D-02 0.142D+00 0.867D+00
 Coeff:     -0.988D-02 0.142D+00 0.867D+00
 Gap=     0.295 Goal=   None    Shift=    0.000
 RMSDP=1.30D-06 MaxDP=4.98D-05 DE=-9.77D-07 OVMax= 1.53D-04

 Cycle  10  Pass 1  IDiag  1:
 E= -764.491240372328     Delta-E=       -0.000000057402 Rises=F Damp=F
 DIIS: error= 4.56D-06 at cycle   4 NSaved=   4.
 NSaved= 4 IEnMin= 4 EnMin= -764.491240372328     IErMin= 4 ErrMin= 4.56D-06
 ErrMax= 4.56D-06  0.00D+00 EMaxC= 1.00D-01 BMatC= 1.92D-08 BMatP= 5.65D-08
 IDIUse=1 WtCom= 1.00D+00 WtEn= 0.00D+00
 Coeff-Com: -0.565D-01 0.315D-01 0.477D+00 0.548D+00
 Coeff:     -0.565D-01 0.315D-01 0.477D+00 0.548D+00
 Gap=     0.295 Goal=   None    Shift=    0.000
 RMSDP=3.56D-07 MaxDP=1.63D-05 DE=-5.74D-08 OVMax= 3.62D-05

 Cycle  11  Pass 1  IDiag  1:
 E= -764.491240385996     Delta-E=       -0.000000013668 Rises=F Damp=F
 DIIS: error= 1.03D-06 at cycle   5 NSaved=   5.
 NSaved= 5 IEnMin= 5 EnMin= -764.491240385996     IErMin= 5 ErrMin= 1.03D-06
 ErrMax= 1.03D-06  0.00D+00 EMaxC= 1.00D-01 BMatC= 7.10D-10 BMatP= 1.92D-08
 IDIUse=1 WtCom= 1.00D+00 WtEn= 0.00D+00
 Coeff-Com: -0.921D-02-0.953D-02-0.228D-01 0.110D+00 0.932D+00
 Coeff:     -0.921D-02-0.953D-02-0.228D-01 0.110D+00 0.932D+00
 Gap=     0.295 Goal=   None    Shift=    0.000
 RMSDP=1.93D-07 MaxDP=6.14D-06 DE=-1.37D-08 OVMax= 3.74D-05

 Cycle  12  Pass 1  IDiag  1:
 E= -764.491240387264     Delta-E=       -0.000000001268 Rises=F Damp=F
 DIIS: error= 7.47D-07 at cycle   6 NSaved=   6.
 NSaved= 6 IEnMin= 6 EnMin= -764.491240387264     IErMin= 6 ErrMin= 7.47D-07
 ErrMax= 7.47D-07  0.00D+00 EMaxC= 1.00D-01 BMatC= 4.87D-10 BMatP= 7.10D-10
 IDIUse=1 WtCom= 1.00D+00 WtEn= 0.00D+00
 Coeff-Com:  0.261D-02-0.108D-01-0.885D-01-0.244D-01 0.562D+00 0.560D+00
 Coeff:      0.261D-02-0.108D-01-0.885D-01-0.244D-01 0.562D+00 0.560D+00
 Gap=     0.295 Goal=   None    Shift=    0.000
 RMSDP=6.68D-08 MaxDP=2.62D-06 DE=-1.27D-09 OVMax= 8.88D-06

 Cycle  13  Pass 1  IDiag  1:
 E= -764.491240387664     Delta-E=       -0.000000000400 Rises=F Damp=F
 DIIS: error= 1.88D-07 at cycle   7 NSaved=   7.
 NSaved= 7 IEnMin= 7 EnMin= -764.491240387664     IErMin= 7 ErrMin= 1.88D-07
 ErrMax= 1.88D-07  0.00D+00 EMaxC= 1.00D-01 BMatC= 1.25D-11 BMatP= 4.87D-10
 IDIUse=1 WtCom= 1.00D+00 WtEn= 0.00D+00
 Coeff-Com:  0.207D-02-0.279D-02-0.321D-01-0.240D-01 0.118D+00 0.168D+00
 Coeff-Com:  0.771D+00
 Coeff:      0.207D-02-0.279D-02-0.321D-01-0.240D-01 0.118D+00 0.168D+00
 Coeff:      0.771D+00
 Gap=     0.295 Goal=   None    Shift=    0.000
 RMSDP=1.83D-08 MaxDP=5.26D-07 DE=-4.00D-10 OVMax= 3.00D-06

 Cycle  14  Pass 1  IDiag  1:
 E= -764.491240387683     Delta-E=       -0.000000000018 Rises=F Damp=F
 DIIS: error= 2.91D-08 at cycle   8 NSaved=   8.
 NSaved= 8 IEnMin= 8 EnMin= -764.491240387683     IErMin= 8 ErrMin= 2.91D-08
 ErrMax= 2.91D-08  0.00D+00 EMaxC= 1.00D-01 BMatC= 1.04D-12 BMatP= 1.25D-11
 IDIUse=1 WtCom= 1.00D+00 WtEn= 0.00D+00
 Coeff-Com: -0.173D-04 0.874D-03 0.465D-02-0.755D-04-0.359D-01-0.451D-01
 Coeff-Com:  0.742D-01 0.100D+01
 Coeff:     -0.173D-04 0.874D-03 0.465D-02-0.755D-04-0.359D-01-0.451D-01
 Coeff:      0.742D-01 0.100D+01
 Gap=     0.295 Goal=   None    Shift=    0.000
 RMSDP=7.27D-09 MaxDP=2.74D-07 DE=-1.84D-11 OVMax= 9.82D-07

 SCF Done:  E(RM062X) =  -764.491240388     A.U. after   14 cycles
            NFock= 14  Conv=0.73D-08     -V/T= 2.0036
 KE= 7.617265787497D+02 PE=-3.038596308508D+03 EE= 8.993855143895D+02
 Leave Link  502 at Sat May 24 06:30:40 2025, MaxMem=  3758096384 cpu:             105.1 elap:              24.5
 (Enter /apps/easybuild-2022/easybuild/software/Compiler/NVHPC/22.11-CUDA-11.7.0/Gaussian/g16c01-CUDA-11.7.0/g16/l508.exe)
 QCSCF skips out because SCF is already converged.
 Leave Link  508 at Sat May 24 06:30:40 2025, MaxMem=  3758096384 cpu:               0.0 elap:               0.0
 (Enter /apps/easybuild-2022/easybuild/software/Compiler/NVHPC/22.11-CUDA-11.7.0/Gaussian/g16c01-CUDA-11.7.0/g16/l801.exe)
 DoSCS=F DFT=T ScalE2(SS,OS)=  1.000000  1.000000
 Range of M.O.s used for correlation:     1   324
 NBasis=   324 NAE=    40 NBE=    40 NFC=     0 NFV=     0
 NROrb=    324 NOA=    40 NOB=    40 NVA=   284 NVB=   284

 **** Warning!!: The largest alpha MO coefficient is  0.26698531D+02

 Leave Link  801 at Sat May 24 06:30:40 2025, MaxMem=  3758096384 cpu:               0.0 elap:               0.0
 (Enter /apps/easybuild-2022/easybuild/software/Compiler/NVHPC/22.11-CUDA-11.7.0/Gaussian/g16c01-CUDA-11.7.0/g16/l1101.exe)
 Using compressed storage, NAtomX=    11.
 Will process     12 centers per pass.
   1 Symmetry operations used in ECPInt.
 ECPInt:  NShTT=    6786 NPrTT=   21959 LenC2=    6350 LenP2D=   15554.
 LDataN:  DoStor=T MaxTD1= 7 Len=  274
 Leave Link 1101 at Sat May 24 06:30:41 2025, MaxMem=  3758096384 cpu:               0.8 elap:               0.2
 (Enter /apps/easybuild-2022/easybuild/software/Compiler/NVHPC/22.11-CUDA-11.7.0/Gaussian/g16c01-CUDA-11.7.0/g16/l1102.exe)
 Symmetrizing basis deriv contribution to polar:
 IMax=3 JMax=2 DiffMx= 0.00D+00
 Leave Link 1102 at Sat May 24 06:30:41 2025, MaxMem=  3758096384 cpu:               0.1 elap:               0.0
 (Enter /apps/easybuild-2022/easybuild/software/Compiler/NVHPC/22.11-CUDA-11.7.0/Gaussian/g16c01-CUDA-11.7.0/g16/l1110.exe)
 Forming Gx(P) for the SCF density, NAtomX=    11.
 Integral derivatives from FoFJK, PRISM(SPDF).
 Do as many integral derivatives as possible in FoFJK.
 G2DrvN: MDV=    3758095115.
 G2DrvN: will do    12 centers at a time, making    1 passes.
 Calling FoFCou, ICntrl=  3107 FMM=F I1Cent=   0 AccDes= 0.00D+00.
 FoFJK:  IHMeth= 1 ICntrl=    3107 DoSepK=F KAlg= 0 I1Cent=           0 FoldK=F
 IRaf=         0 NMat=       1 IRICut=       1 DoRegI=T DoRafI=F ISym2E= 0 IDoP0=0 IntGTp=1.
 FoFCou: FMM=F IPFlag=           0 FMFlag=      100000 FMFlg1=           0
         NFxFlg=           0 DoJE=F BraDBF=F KetDBF=F FulRan=T
         wScrn=  0.000000 ICntrl=      3107 IOpCl=  0 I1Cent=           0 NGrid=           0
         NMat0=    1 NMatS0=      1 NMatT0=    0 NMatD0=    1 NMtDS0=    0 NMtDT0=    0
 Symmetry not used in FoFCou.
 End of G2Drv F.D. properties file   721 does not exist.
 End of G2Drv F.D. properties file   722 does not exist.
 End of G2Drv F.D. properties file   788 does not exist.
 Leave Link 1110 at Sat May 24 06:31:19 2025, MaxMem=  3758096384 cpu:             302.6 elap:              38.3
 (Enter /apps/easybuild-2022/easybuild/software/Compiler/NVHPC/22.11-CUDA-11.7.0/Gaussian/g16c01-CUDA-11.7.0/g16/l1002.exe)
 Minotr:  Closed shell wavefunction.
          IDoAtm=11111111111
          Direct CPHF calculation.
          Differentiating once with respect to nuclear coordinates.
          Requested convergence is 1.0D-08 RMS, and 1.0D-07 maximum.
          Secondary convergence is 1.0D-12 RMS, and 1.0D-12 maximum.
          NewPWx=T KeepS1=F KeepF1=F KeepIn=T MapXYZ=F SortEE=F KeepMc=T.
         3307 words used for storage of precomputed grid.
 Keep R1 ints in memory in canonical form, NReq=1412622537.
 FoFCou: FMM=F IPFlag=           0 FMFlag=           0 FMFlg1=           0
         NFxFlg=           0 DoJE=F BraDBF=F KetDBF=F FulRan=T
         wScrn=  0.000000 ICntrl=       600 IOpCl=  0 I1Cent=           0 NGrid=           0
         NMat0=    1 NMatS0=  52650 NMatT0=    0 NMatD0=    1 NMtDS0=    0 NMtDT0=    0
 Symmetry not used in FoFCou.
 Two-electron integral symmetry not used.
          MDV=    3758096384 using IRadAn=       1.
          Solving linear equations simultaneously, MaxMat=       0.
          There are    36 degrees of freedom in the 1st order CPHF.  IDoFFX=6 NUNeed=     0.
     30 vectors produced by pass  0 Test12= 3.16D-14 2.78D-09 XBig12= 1.43D-01 1.49D-01.
 AX will form    30 AO Fock derivatives at one time.
     30 vectors produced by pass  1 Test12= 3.16D-14 2.78D-09 XBig12= 3.88D-02 4.84D-02.
     30 vectors produced by pass  2 Test12= 3.16D-14 2.78D-09 XBig12= 2.48D-03 8.84D-03.
     30 vectors produced by pass  3 Test12= 3.16D-14 2.78D-09 XBig12= 6.46D-05 1.87D-03.
     30 vectors produced by pass  4 Test12= 3.16D-14 2.78D-09 XBig12= 9.01D-07 1.32D-04.
     30 vectors produced by pass  5 Test12= 3.16D-14 2.78D-09 XBig12= 9.37D-09 1.21D-05.
     30 vectors produced by pass  6 Test12= 3.16D-14 2.78D-09 XBig12= 7.15D-11 1.03D-06.
     14 vectors produced by pass  7 Test12= 3.16D-14 2.78D-09 XBig12= 3.46D-13 7.23D-08.
      2 vectors produced by pass  8 Test12= 3.16D-14 2.78D-09 XBig12= 1.73D-15 5.22D-09.
 InvSVY:  IOpt=1 It=  1 EMax= 1.11D-15
 Solved reduced A of dimension   226 with    30 vectors.
 End of Minotr F.D. properties file   721 does not exist.
 End of Minotr F.D. properties file   722 does not exist.
 End of Minotr F.D. properties file   788 does not exist.
 Leave Link 1002 at Sat May 24 06:32:11 2025, MaxMem=  3758096384 cpu:             406.5 elap:              51.8
 (Enter /apps/easybuild-2022/easybuild/software/Compiler/NVHPC/22.11-CUDA-11.7.0/Gaussian/g16c01-CUDA-11.7.0/g16/l701.exe)
 ... and contract with generalized density number  0.
 Compute integral second derivatives.
   1 Symmetry operations used in ECPInt.
 ECPInt:  NShTT=    6786 NPrTT=   21959 LenC2=    6350 LenP2D=   15554.
 LDataN:  DoStor=T MaxTD1= 8 Len=  415
 Leave Link  701 at Sat May 24 06:32:11 2025, MaxMem=  3758096384 cpu:               0.7 elap:               0.1
 (Enter /apps/easybuild-2022/easybuild/software/Compiler/NVHPC/22.11-CUDA-11.7.0/Gaussian/g16c01-CUDA-11.7.0/g16/l702.exe)
 L702 exits ... SP integral derivatives will be done elsewhere.
 Leave Link  702 at Sat May 24 06:32:11 2025, MaxMem=  3758096384 cpu:               0.0 elap:               0.0
 (Enter /apps/easybuild-2022/easybuild/software/Compiler/NVHPC/22.11-CUDA-11.7.0/Gaussian/g16c01-CUDA-11.7.0/g16/l703.exe)
 Integral derivatives from FoFJK, PRISM(SPDF).
 Compute integral second derivatives, UseDBF=F ICtDFT=           0.
 Calling FoFJK, ICntrl=    100127 FMM=F ISym2X=0 I1Cent= 0 IOpClX= 0 NMat=1 NMatS=1 NMatT=0.
 FoFJK:  IHMeth= 1 ICntrl=  100127 DoSepK=F KAlg= 0 I1Cent=           0 FoldK=F
 IRaf=         0 NMat=       1 IRICut=       1 DoRegI=T DoRafI=F ISym2E= 0 IDoP0=0 IntGTp=1.
 FoFCou: FMM=F IPFlag=           0 FMFlag=      100000 FMFlg1=         800
         NFxFlg=           0 DoJE=F BraDBF=F KetDBF=F FulRan=T
         wScrn=  0.000000 ICntrl=    100127 IOpCl=  0 I1Cent=           0 NGrid=           0
         NMat0=    1 NMatS0=      1 NMatT0=    0 NMatD0=    1 NMtDS0=    0 NMtDT0=    0
 Symmetry not used in FoFCou.
 Leave Link  703 at Sat May 24 06:33:39 2025, MaxMem=  3758096384 cpu:             699.2 elap:              88.3
 (Enter /apps/easybuild-2022/easybuild/software/Compiler/NVHPC/22.11-CUDA-11.7.0/Gaussian/g16c01-CUDA-11.7.0/g16/l716.exe)
 Dipole        =-1.34663216D-01 9.13387383D-01-2.77697435D-01
 Polarizability= 0.00000000D+00 0.00000000D+00 0.00000000D+00
                 0.00000000D+00 0.00000000D+00 0.00000000D+00
 -------------------------------------------------------------------
 Center     Atomic                   Forces (Hartrees/Bohr)
 Number     Number              X              Y              Z
 -------------------------------------------------------------------
      1        6          -0.000008689   -0.000028951   -0.000002561
      2        8          -0.000053408    0.000010275    0.000007438
      3        6           0.000026755   -0.000014718    0.000031344
      4        6           0.000010103   -0.000008297   -0.000002153
      5        9           0.000019425   -0.000013875   -0.000028000
      6        9           0.000012799    0.000020594   -0.000025454
      7        9          -0.000017128    0.000014910    0.000046018
      8        9           0.000025955    0.000014813   -0.000031924
      9        9          -0.000011123   -0.000003349   -0.000000073
     10        8           0.000000791    0.000011653   -0.000002747
     11        1          -0.000005480   -0.000003057    0.000008112
 -------------------------------------------------------------------
 Cartesian Forces:  Max     0.000053408 RMS     0.000020258
 Force constants in Cartesian coordinates: 
                1             2             3             4             5 
      1  0.664681D+00
      2 -0.114863D+00  0.912263D+00
      3 -0.358394D-01  0.435628D-01  0.187072D+00
      4 -0.283819D+00 -0.376257D-01 -0.412646D-01  0.417803D+00
      5 -0.974448D-02 -0.683622D-01 -0.827255D-02  0.200045D-01  0.127269D+00
      6 -0.492127D-01  0.203607D-01 -0.738476D-01  0.208460D-01  0.895324D-01
      7 -0.163730D+00  0.212896D+00  0.250224D-01 -0.560605D-01  0.317399D-01
      8  0.165463D+00 -0.440633D+00 -0.246477D-01  0.205594D-01  0.112875D-02
      9  0.296615D-01 -0.345315D-01 -0.533051D-01 -0.626601D-02  0.268375D-02
     10  0.195554D-01  0.688024D-02 -0.427245D-02  0.300996D-02 -0.535868D-02
     11 -0.656516D-02 -0.350387D-01 -0.261525D-02  0.602061D-02 -0.158272D-02
     12 -0.556120D-02 -0.256787D-02  0.170315D-02 -0.242694D-02  0.516179D-02
     13 -0.272276D-02  0.428286D-04 -0.318761D-03 -0.492204D-03  0.696784D-03
     14 -0.472483D-02  0.700679D-02 -0.837808D-03 -0.230462D-02  0.762731D-03
     15 -0.309900D-02  0.275635D-02 -0.429539D-03 -0.329904D-03 -0.849241D-03
     16 -0.412973D-03 -0.224940D-02 -0.395399D-03  0.271462D-03  0.797809D-03
     17 -0.392543D-02  0.493357D-02  0.432634D-02 -0.197229D-02  0.274735D-03
     18  0.245472D-02 -0.158547D-03 -0.122139D-02  0.901198D-03 -0.283088D-03
     19 -0.314556D-02  0.293017D-02  0.128309D-02 -0.817961D-03  0.482431D-02
     20  0.319582D-02  0.307715D-02 -0.834178D-04 -0.102662D-02 -0.118084D-01
     21  0.376156D-03 -0.627046D-03 -0.528487D-03  0.185168D-03  0.164159D-02
     22 -0.366855D-01  0.354642D-01  0.503082D-01 -0.382750D-01  0.794014D-02
     23  0.234409D-01 -0.210290D-01 -0.968025D-02  0.101894D-01 -0.413615D-01
     24  0.605399D-01 -0.395401D-01 -0.111800D-01  0.197518D-01 -0.815201D-01
     25 -0.642686D-01 -0.137395D-01  0.824572D-02  0.118945D-01  0.734459D-03
     26  0.358570D-01  0.553408D-02 -0.738351D-02  0.428602D-02 -0.415509D-02
     27  0.585737D-02  0.626904D-02  0.154762D-02  0.908202D-02 -0.466911D-02
     28 -0.144714D+00 -0.671609D-01 -0.820865D-02 -0.542685D-01 -0.505365D-01
     29 -0.112325D+00 -0.321319D+00 -0.279735D-02 -0.225271D-01 -0.822376D-02
     30 -0.706101D-02  0.577080D-02 -0.463752D-01  0.169095D-02 -0.472269D-02
     31  0.152618D-01 -0.225751D-01  0.543981D-02  0.754611D-03 -0.109815D-02
     32  0.241917D-01 -0.464326D-01  0.842871D-02  0.439633D-02  0.605867D-02
     33  0.188368D-02 -0.129460D-02 -0.343580D-02 -0.216970D-02  0.129728D-02
                6             7             8             9            10 
      6  0.257212D+00
      7  0.193641D-01  0.697701D+00
      8 -0.150051D-01 -0.140093D+00  0.839133D+00
      9 -0.313584D-02 -0.976874D-01  0.208301D-01  0.168611D+00
     10 -0.768461D-02 -0.815950D-01 -0.433641D-01  0.517014D-02  0.604341D+00
     11 -0.105045D-01 -0.666833D-01 -0.199141D+00  0.117991D-01  0.273904D-01
     12 -0.251525D-02  0.722561D-02  0.115002D-01 -0.594086D-01 -0.209913D-01
     13  0.836357D-03  0.725594D-02 -0.107509D-01 -0.104986D-01 -0.768212D-01
     14  0.214698D-02  0.244844D-02 -0.336948D-01 -0.422888D-01 -0.112501D-01
     15  0.726445D-03  0.377813D-02 -0.202810D-01 -0.129372D-01 -0.115269D-01
     16  0.170231D-04 -0.325065D-02  0.705172D-02 -0.355562D-02 -0.137736D+00
     17  0.402054D-02  0.329851D-01 -0.405849D-01  0.305340D-01  0.678544D-01
     18 -0.842493D-03 -0.145232D-01  0.181911D-01 -0.265784D-02 -0.633456D-01
     19  0.349151D-02 -0.303879D-01 -0.170992D-02  0.144609D-01 -0.280992D+00
     20  0.423212D-02 -0.280154D-01  0.750753D-02  0.113264D-01 -0.266023D-01
     21 -0.947079D-03  0.126858D-01 -0.181306D-02  0.251429D-02  0.849007D-01
     22  0.213745D-01  0.770570D-02 -0.783399D-02  0.293892D-02 -0.464456D-02
     23 -0.832825D-01 -0.508413D-02  0.988557D-02 -0.507636D-02  0.178932D-02
     24 -0.199131D+00 -0.210120D-01  0.154820D-01  0.104175D-02  0.891108D-02
     25 -0.938498D-02 -0.378770D+00  0.842959D-02  0.650985D-01 -0.440608D-01
     26  0.399296D-03  0.236133D-02 -0.763785D-01  0.728539D-04 -0.292791D-01
     27  0.136309D-01  0.645212D-01 -0.378140D-02 -0.513116D-01  0.753335D-02
     28  0.264427D-02  0.495937D-02  0.775774D-02  0.702286D-03 -0.265904D-02
     29 -0.102060D-01 -0.402152D-01 -0.660820D-01  0.380763D-02  0.115473D-01
     30  0.674071D-02  0.543202D-03 -0.178041D-02  0.105036D-01  0.977098D-03
     31 -0.229147D-02 -0.382832D-02 -0.550932D-02 -0.245766D-04  0.160225D-02
     32 -0.169379D-02 -0.233998D-02 -0.114017D-02  0.842939D-03  0.392570D-03
     33  0.210905D-02  0.822978D-04  0.130532D-02  0.854750D-04  0.328460D-03
               11            12            13            14            15 
     11  0.607541D+00
     12 -0.947400D-02  0.535998D+00
     13 -0.106191D-01 -0.109792D-01  0.791953D-01
     14 -0.141490D+00 -0.978399D-01  0.810117D-03  0.143676D+00
     15 -0.940803D-01 -0.224588D+00  0.934948D-02  0.138756D+00  0.356883D+00
     16  0.703122D-01 -0.670643D-01 -0.717400D-03  0.293945D-02 -0.330699D-01
     17 -0.167738D+00  0.807266D-01 -0.319418D-02  0.216623D-01 -0.809241D-03
     18  0.793093D-01 -0.145387D+00 -0.411523D-01  0.149572D-01 -0.734316D-01
     19 -0.301921D-01  0.856068D-01 -0.108596D-01  0.135553D-01  0.382415D-01
     20 -0.894869D-01  0.102071D-01  0.237356D-01  0.922327D-02 -0.220495D-01
     21  0.130261D-01 -0.109395D+00  0.532206D-01 -0.159030D-01 -0.478316D-01
     22 -0.567670D-02  0.243595D-02  0.822255D-03  0.229493D-02  0.549165D-03
     23  0.317463D-02 -0.250803D-02 -0.448487D-03 -0.113209D-02 -0.106982D-03
     24  0.126167D-01 -0.368646D-02 -0.145706D-02 -0.406940D-02 -0.846716D-03
     25  0.718355D-02  0.944668D-02  0.403218D-02 -0.230972D-02 -0.351302D-02
     26  0.429910D-02  0.725632D-02  0.151144D-02  0.128847D-02  0.822542D-04
     27  0.431028D-03 -0.119866D-02  0.224524D-03  0.210248D-02  0.172940D-02
     28  0.766915D-02  0.299973D-02  0.598855D-03 -0.690773D-03 -0.481596D-04
     29  0.219101D-01 -0.160967D-02 -0.172292D-02 -0.774781D-02 -0.361900D-02
     30  0.478775D-03  0.594640D-02  0.533607D-03  0.204005D-02  0.633552D-03
     31  0.116038D-02 -0.691798D-03 -0.291413D-03 -0.768271D-03 -0.331406D-03
     32 -0.244737D-02 -0.852447D-03 -0.612231D-04  0.445639D-03  0.200997D-03
     33 -0.986929D-03  0.253178D-02  0.241290D-03  0.936455D-03  0.928331D-04
               16            17            18            19            20 
     16  0.207434D+00
     17 -0.115739D+00  0.181183D+00
     18  0.123753D+00 -0.111955D+00  0.204253D+00
     19 -0.730979D-01  0.256415D-01 -0.815202D-02  0.398888D+00
     20  0.386160D-01  0.663005D-02 -0.226114D-02 -0.219207D-02  0.833399D-01
     21 -0.204614D-01  0.535071D-03  0.173679D-01 -0.131142D+00 -0.147615D-02
     22  0.320983D-03  0.134706D-02 -0.411631D-03  0.266090D-02  0.599249D-03
     23 -0.184881D-04 -0.802121D-03  0.450621D-03 -0.157063D-02 -0.169654D-03
     24 -0.257498D-03 -0.356915D-02  0.108223D-02 -0.526228D-02 -0.166467D-02
     25  0.639949D-02 -0.110468D-02  0.483433D-03 -0.149364D-02 -0.683261D-02
     26 -0.283933D-02  0.158013D-02 -0.763983D-03 -0.694604D-02 -0.635074D-02
     27  0.860032D-03 -0.137016D-02  0.634806D-03  0.157776D-02  0.186019D-02
     28  0.798915D-03 -0.138651D-02 -0.212035D-03 -0.174664D-03 -0.145595D-02
     29  0.134948D-02 -0.779978D-02  0.257257D-02 -0.449896D-02 -0.250963D-02
     30  0.150723D-03 -0.174613D-02  0.641342D-04 -0.378947D-03 -0.137382D-03
     31 -0.106036D-04 -0.506054D-03  0.204502D-03 -0.579465D-03 -0.216796D-04
     32 -0.220577D-03  0.661053D-03 -0.586433D-04  0.158434D-03  0.547493D-03
     33  0.233550D-04 -0.692357D-03  0.138320D-03  0.273872D-03  0.465545D-04
               21            22            23            24            25 
     21  0.136239D+00
     22 -0.850618D-03  0.728177D-01
     23  0.781944D-03 -0.334342D-01  0.461586D-01
     24  0.191926D-02 -0.732460D-01  0.927773D-01  0.210220D+00
     25  0.999995D-03 -0.762304D-02  0.515826D-02  0.146841D-01  0.461136D+00
     26  0.272339D-02  0.931620D-03 -0.120043D-02 -0.657897D-03 -0.763269D-02
     27  0.116433D-02 -0.378637D-02  0.356760D-02  0.125242D-03 -0.825747D-01
     28 -0.245874D-04  0.424098D-02 -0.106506D-02 -0.549469D-02  0.119280D-01
     29  0.110533D-02 -0.895615D-03  0.682793D-02  0.875495D-02  0.120020D-01
     30 -0.321338D-03  0.840223D-03  0.426481D-02  0.282068D-02 -0.267395D-02
     31  0.110301D-03 -0.134043D-02  0.104313D-02  0.284270D-02  0.825087D-03
     32  0.587824D-05 -0.736688D-03 -0.352014D-03  0.139029D-02 -0.188867D-02
     33 -0.180687D-03 -0.152359D-03 -0.118810D-02 -0.236566D-02 -0.811771D-03
               26            27            28            29            30 
     26  0.696360D-01
     27 -0.184849D-02  0.377267D-01
     28  0.988991D-03 -0.332991D-02  0.435635D+00
     29  0.490365D-02 -0.327321D-02 -0.964920D-01  0.658488D+00
     30  0.953472D-03 -0.315984D-02  0.823662D-01 -0.744135D-01  0.461702D-01
     31  0.760794D-03  0.347175D-04 -0.256345D+00  0.253778D+00 -0.769881D-01
     32  0.843394D-03  0.712037D-03  0.202372D+00 -0.278448D+00  0.692922D-01
     33 -0.833701D-03 -0.888939D-03 -0.713944D-01  0.796782D-01 -0.230229D-01
               31            32            33 
     31  0.243952D+00
     32 -0.226264D+00  0.320264D+00
     33  0.716953D-01 -0.782682D-01  0.249366D-01
 FormGI is forming the generalized inverse of G from B-inverse, IUseBI=4.
 Force constants in internal coordinates: 
                1             2             3             4             5 
      1  0.414061D+00
      2  0.361020D-01  0.639111D+00
      3  0.412975D-01  0.336600D-01  0.476099D+00
      4  0.656288D-01 -0.209110D-01  0.899010D-02  0.281089D+00
      5 -0.241053D-03  0.163938D-01 -0.650550D-02 -0.433362D-02  0.321545D+00
      6 -0.317751D-02  0.254516D-01  0.153548D-01  0.162539D-01  0.174476D-01
      7  0.170743D-03 -0.129921D-02  0.610519D-02  0.300645D-02  0.316835D-01
      8 -0.983397D-03 -0.551039D-03  0.605714D-02  0.261524D-02  0.289354D-01
      9  0.195323D-02 -0.119883D-02  0.428422D-02  0.638598D-02  0.222502D-01
     10 -0.352872D-02 -0.286331D-02  0.628028D-02 -0.675941D-03  0.432404D-03
     11  0.751990D-02  0.215179D-01 -0.407336D-01  0.143421D-01  0.181761D-01
     12  0.386749D-01 -0.326282D-01  0.752477D-02 -0.144513D-01 -0.926163D-02
     13 -0.463643D-01  0.110241D-01  0.333189D-01  0.317581D-03 -0.900363D-02
     14  0.460880D-01 -0.286087D-02 -0.676808D-02  0.553318D-01 -0.164344D-02
     15 -0.759502D-02  0.277195D-01  0.882214D-02 -0.308223D-02  0.277869D-01
     16  0.101109D-01  0.637616D-02 -0.119257D-01  0.327553D-02 -0.317194D-01
     17 -0.257916D-02 -0.340411D-01  0.310467D-02 -0.146709D-03  0.391856D-02
     18  0.223201D-03 -0.559510D-02  0.683037D-02  0.606556D-02  0.193947D-01
     19  0.112296D-03 -0.406920D-02  0.611301D-02  0.397558D-02  0.232692D-01
     20 -0.917889D-03  0.181903D-01  0.145290D-02  0.438721D-03  0.287806D-01
     21  0.241671D-03  0.204436D-02 -0.649170D-02 -0.419981D-02 -0.239311D-01
     22  0.743732D-04 -0.361124D-02 -0.477291D-02 -0.378106D-02 -0.244334D-01
     23  0.326681D-03 -0.774683D-02 -0.386334D-02 -0.299397D-02 -0.270913D-01
     24 -0.344915D-02  0.297006D-02  0.563657D-01  0.565262D-02  0.502405D-03
     25  0.217389D-02 -0.264191D-03  0.122295D-02  0.278384D-02  0.171507D-02
     26 -0.235429D-02 -0.108793D-02  0.433538D-02  0.587622D-02 -0.132420D-04
     27 -0.227763D-02 -0.311419D-02  0.299504D-03  0.383597D-02 -0.200528D-02
     28 -0.532200D-02 -0.105427D-02  0.369421D-03  0.607442D-02 -0.269727D-02
     29 -0.141866D-02 -0.362956D-03 -0.162665D-02  0.121177D-02 -0.258085D-03
     30 -0.446302D-02  0.169697D-02 -0.155674D-02  0.345022D-02 -0.950075D-03
     31  0.255573D-02 -0.299663D-03  0.455046D-03 -0.440367D-02  0.829027D-03
     32  0.447982D-03 -0.770855D-03  0.313777D-03 -0.604154D-03  0.254663D-03
     33 -0.168184D-02  0.212995D-02  0.273678D-04  0.814632D-03  0.181785D-02
     34 -0.118625D-02 -0.116107D-02 -0.137356D-03  0.169342D-02 -0.175866D-02
     35 -0.129283D-02 -0.194896D-02  0.179648D-03  0.958958D-03 -0.107797D-02
     36  0.994149D-03 -0.268947D-03  0.175833D-03 -0.133712D-02  0.298954D-02
     37  0.148974D-02 -0.355996D-02  0.111098D-04 -0.458333D-03 -0.586968D-03
     38  0.138316D-02 -0.434785D-02  0.328113D-03 -0.119280D-02  0.937214D-04
                6             7             8             9            10 
      6  0.476726D+00
      7  0.446498D-02  0.425459D+00
      8  0.432685D-02  0.569932D-01  0.432653D+00
      9  0.199663D-02  0.553330D-01  0.563665D-01  0.453015D+00
     10 -0.184469D-02 -0.596339D-03 -0.753048D-03 -0.430814D-03  0.533270D+00
     11  0.130937D-01 -0.504021D-03 -0.146827D-03 -0.508797D-02  0.359796D-02
     12  0.136022D-02 -0.207642D-02 -0.198130D-02  0.106813D-02 -0.688093D-02
     13 -0.145214D-01  0.252145D-02  0.218672D-02  0.405987D-02  0.325708D-02
     14  0.640254D-02  0.195874D-02  0.170254D-03  0.287550D-02 -0.551016D-03
     15 -0.473019D-01  0.853624D-02  0.119727D-01 -0.104505D-01  0.678129D-04
     16  0.301019D-01 -0.343657D-02 -0.220493D-02 -0.423604D-02 -0.385343D-03
     17  0.172013D-01 -0.512439D-02 -0.973132D-02  0.146839D-01  0.315904D-03
     18 -0.389345D-02  0.184122D-01 -0.306030D-01 -0.334339D-01 -0.369738D-03
     19 -0.882488D-02 -0.311862D-01  0.187403D-01 -0.317665D-01 -0.914049D-03
     20  0.158873D-01 -0.327979D-01 -0.310470D-01  0.117093D-01 -0.444277D-03
     21 -0.951467D-03  0.263892D-01  0.250090D-01 -0.901255D-03  0.743386D-03
     22 -0.185914D-02  0.245271D-01 -0.173981D-02  0.268831D-01  0.543863D-03
     23 -0.105101D-02 -0.238208D-02  0.236089D-01  0.285137D-01  0.533374D-03
     24 -0.147857D-02  0.346198D-03 -0.384047D-04  0.538470D-03  0.255706D-01
     25 -0.140712D-02 -0.272588D-03 -0.904186D-03 -0.119700D-02 -0.530630D-03
     26 -0.304868D-02 -0.103833D-02  0.598668D-04 -0.422807D-03 -0.777249D-03
     27 -0.123183D-04  0.122326D-02 -0.141183D-02  0.744899D-03  0.114045D-03
     28  0.428299D-03 -0.567283D-04  0.163717D-03  0.854516D-03  0.403761D-04
     29  0.934049D-03  0.223446D-02 -0.223122D-02  0.906658D-04  0.816462D-03
     30  0.137467D-02  0.954470D-03 -0.655665D-03  0.200283D-03  0.742792D-03
     31 -0.624030D-03 -0.912590D-04 -0.154032D-03 -0.563569D-03  0.833596D-03
     32 -0.105670D-02 -0.102867D-02  0.731423D-03 -0.177124D-03  0.573138D-03
     33  0.535989D-02 -0.234349D-03 -0.240744D-01  0.202916D-01 -0.603010D-04
     34 -0.348770D-02  0.238461D-01 -0.165583D-03 -0.199446D-01  0.715764D-04
     35 -0.609769D-03 -0.223411D-01  0.225762D-01  0.167273D-02 -0.180134D-03
     36  0.467772D-02  0.963206D-03 -0.256252D-01  0.204122D-01  0.180885D-04
     37 -0.416986D-02  0.250437D-01 -0.171636D-02 -0.198241D-01  0.149966D-03
     38 -0.129194D-02 -0.211436D-01  0.210255D-01  0.179327D-02 -0.101745D-03
               11            12            13            14            15 
     11  0.156061D+00
     12 -0.941680D-01  0.174780D+00
     13 -0.620878D-01 -0.805925D-01  0.142934D+00
     14  0.120610D-01 -0.771209D-02 -0.410106D-02  0.319841D+00
     15  0.345023D-01 -0.240903D-01 -0.106252D-01 -0.185529D-02  0.170935D+00
     16 -0.570920D-02  0.686632D-02 -0.107836D-02  0.328184D-02 -0.858077D-01
     17 -0.287547D-01  0.172159D-01  0.116763D-01 -0.134340D-02 -0.850629D-01
     18 -0.879837D-02  0.177889D-02  0.691886D-02  0.376754D-02  0.241963D-02
     19 -0.114359D-01  0.271722D-02  0.888976D-02  0.124709D-02 -0.321475D-02
     20  0.375060D-01 -0.172343D-01 -0.204427D-01 -0.572165D-03  0.371445D-01
     21  0.113962D-02  0.105277D-02 -0.219648D-02 -0.181876D-02 -0.607452D-02
     22 -0.723593D-02  0.493101D-02  0.239124D-02 -0.197225D-02 -0.137306D-01
     23 -0.129405D-01  0.776783D-02  0.520025D-02 -0.838292D-03 -0.191584D-01
     24 -0.111524D-02 -0.167211D-01  0.177565D-01  0.320899D-02  0.379820D-02
     25  0.471453D-02  0.272718D-04 -0.518031D-02 -0.626014D-04 -0.955703D-03
     26 -0.101069D-02 -0.308253D-02  0.482708D-02  0.342653D-02 -0.461064D-02
     27 -0.100388D-01  0.671490D-02  0.384791D-02  0.655142D-02 -0.930884D-02
     28 -0.870219D-02  0.663474D-02  0.273507D-02  0.105202D-01 -0.788816D-02
     29 -0.322096D-02 -0.121189D-02  0.374175D-02  0.301633D-02 -0.501359D-02
     30 -0.188437D-02 -0.129205D-02  0.262891D-02  0.698510D-02 -0.359290D-02
     31 -0.164681D-02  0.130566D-02 -0.182715D-03 -0.289291D-03  0.100331D-02
     32  0.211793D-02 -0.200880D-02  0.560324D-03  0.403904D-02 -0.789682D-03
     33  0.478351D-02 -0.142096D-02 -0.333801D-02  0.189649D-02  0.190859D-02
     34 -0.600045D-02  0.257405D-02  0.349090D-02  0.266133D-02 -0.604430D-02
     35 -0.590653D-02  0.306903D-02  0.294478D-02  0.209559D-02 -0.833098D-02
     36  0.330357D-02 -0.126279D-02 -0.215068D-02 -0.189212D-02  0.950332D-03
     37 -0.748039D-02  0.273222D-02  0.467822D-02 -0.112728D-02 -0.700255D-02
     38 -0.738647D-02  0.322719D-02  0.413210D-02 -0.169303D-02 -0.928924D-02
               16            17            18            19            20 
     16  0.152432D+00
     17 -0.666347D-01  0.151647D+00
     18  0.521410D-02 -0.769560D-02  0.188059D+00
     19  0.276583D-02  0.478109D-03  0.265175D-02  0.201756D+00
     20 -0.336653D-01 -0.345623D-02 -0.105154D-01 -0.134797D-01  0.215728D+00
     21  0.227247D-02  0.380370D-02 -0.852170D-01 -0.910814D-01 -0.136548D-01
     22  0.985026D-02  0.390192D-02 -0.901425D-01 -0.143962D-01 -0.963186D-01
     23  0.155491D-01  0.359560D-02 -0.135578D-01 -0.940150D-01 -0.948519D-01
     24 -0.429200D-02  0.491985D-03  0.946359D-03  0.329253D-03 -0.148755D-02
     25  0.238258D-02 -0.141899D-02  0.135520D-03 -0.255999D-02  0.892987D-03
     26  0.350974D-02  0.115128D-02 -0.105014D-02  0.373048D-03 -0.256162D-02
     27  0.498724D-02  0.430073D-02  0.530545D-02 -0.166090D-02 -0.642227D-02
     28  0.382193D-02  0.422366D-02  0.222861D-02 -0.247005D-03 -0.548268D-02
     29  0.347130D-02  0.147594D-02  0.681364D-02 -0.440440D-02 -0.310314D-02
     30  0.230599D-02  0.139888D-02  0.373680D-02 -0.299051D-02 -0.216355D-02
     31  0.371591D-03 -0.139382D-02 -0.643736D-03 -0.125727D-03  0.500661D-03
     32  0.134749D-02 -0.529765D-03 -0.258468D-02  0.198969D-02 -0.477980D-03
     33 -0.262411D-02  0.792955D-03  0.265634D-02 -0.129589D-01  0.146990D-01
     34  0.491970D-02  0.118531D-02  0.112654D-01  0.469312D-03 -0.164186D-01
     35  0.458862D-02  0.382104D-02 -0.109324D-01  0.132937D-01 -0.526784D-02
     36 -0.455929D-02  0.351866D-02  0.538135D-02 -0.143224D-01  0.142890D-01
     37  0.298452D-02  0.391102D-02  0.139904D-01 -0.894169D-03 -0.168286D-01
     38  0.265345D-02  0.654674D-02 -0.820737D-02  0.119302D-01 -0.567785D-02
               21            22            23            24            25 
     21  0.140312D+00
     22  0.304260D-01  0.144348D+00
     23  0.313098D-01  0.353704D-01  0.146582D+00
     24  0.344116D-04 -0.172391D-04  0.252008D-03  0.177180D+00
     25  0.982820D-03  0.176860D-03  0.414286D-03 -0.156943D-02  0.972848D-02
     26  0.826069D-03  0.156775D-02  0.106024D-02 -0.198561D-02  0.299382D-02
     27 -0.376243D-04  0.654954D-03  0.242838D-02 -0.112875D-03 -0.113448D-02
     28  0.112324D-03  0.178067D-02  0.187915D-02 -0.204096D-03 -0.773299D-03
     29 -0.252273D-04 -0.886209D-03  0.168810D-02  0.188723D-02  0.565678D-02
     30  0.124721D-03  0.239509D-03  0.113887D-02  0.179601D-02  0.601796D-02
     31  0.294065D-03  0.241982D-04 -0.431071D-04  0.788355D-03  0.246633D-02
     32  0.287499D-03  0.103885D-02 -0.180502D-03 -0.555860D-03 -0.405381D-02
     33 -0.326457D-01  0.262831D-01 -0.592239D-03 -0.417268D-03  0.564892D-03
     34  0.328325D-01  0.141701D-02 -0.277274D-01  0.384716D-03  0.283265D-03
     35  0.485879D-04 -0.266545D-01  0.305670D-01 -0.368953D-04 -0.395265D-03
     36 -0.327795D-01  0.251201D-01 -0.273008D-03 -0.261405D-03  0.174512D-03
     37  0.326987D-01  0.253953D-03 -0.274082D-01  0.540579D-03 -0.107115D-03
     38 -0.852289D-04 -0.278176D-01  0.308862D-01  0.118968D-03 -0.785644D-03
               26            27            28            29            30 
     26  0.140919D-01
     27  0.681626D-02  0.110625D-01
     28  0.925862D-02  0.101502D-01  0.177713D-01
     29 -0.443256D-02  0.265484D-02 -0.486867D-03  0.134473D-01
     30 -0.199021D-02  0.174252D-02  0.713421D-02  0.103056D-01  0.156973D-01
     31 -0.531279D-02 -0.463449D-02 -0.556288D-02  0.344321D-02  0.251483D-02
     32  0.590139D-02  0.298247D-02  0.432060D-02 -0.732481D-02 -0.598668D-02
     33  0.780314D-03 -0.582390D-03  0.313077D-02 -0.913633D-03  0.279952D-02
     34  0.139673D-02  0.149204D-02  0.443369D-02  0.392604D-03  0.333426D-02
     35  0.132922D-02 -0.780178D-03  0.306514D-02 -0.256634D-02  0.127898D-02
     36 -0.155225D-02  0.244975D-03 -0.403302D-02  0.199813D-02 -0.227987D-02
     37 -0.935832D-03  0.231941D-02 -0.273009D-02  0.330436D-02 -0.174514D-02
     38 -0.100335D-02  0.471867D-04 -0.409864D-02  0.345415D-03 -0.380042D-02
               31            32            33            34            35 
     31  0.533642D-02
     32 -0.278069D-02  0.759158D-02
     33 -0.389584D-03  0.200568D-03  0.322195D-01
     34 -0.487352D-03  0.239191D-03 -0.139981D-01  0.330496D-01
     35 -0.302985D-03  0.108693D-02 -0.141990D-01 -0.124850D-01  0.321000D-01
     36  0.460890D-03 -0.108129D-02  0.287833D-01 -0.168202D-01 -0.178355D-01
     37  0.363121D-03 -0.104267D-02 -0.174343D-01  0.302275D-01 -0.161215D-01
     38  0.547488D-03 -0.194934D-03 -0.176352D-01 -0.153070D-01  0.284635D-01
               36            37            38 
     36  0.329050D-01
     37 -0.126984D-01  0.349634D-01
     38 -0.137138D-01 -0.113856D-01  0.323850D-01
 Leave Link  716 at Sat May 24 06:33:39 2025, MaxMem=  3758096384 cpu:               0.0 elap:               0.0
 (Enter /apps/easybuild-2022/easybuild/software/Compiler/NVHPC/22.11-CUDA-11.7.0/Gaussian/g16c01-CUDA-11.7.0/g16/l103.exe)

 GradGradGradGradGradGradGradGradGradGradGradGradGradGradGradGradGradGrad
 Berny optimization.
 Red2BG is reusing G-inverse.
 Internal  Forces:  Max     0.000065956 RMS     0.000025304
 Search for a local minimum.
 Step number   1 out of a maximum of   48
 All quantities printed in internal units (Hartrees-Bohrs-Radians)
 RMS Force = .25304D-04 SwitMx=.10000D-02 MixMth= 2
 Mixed Optimization -- En-DIIS/RFO-DIIS
 Second derivative matrix not updated -- analytic derivatives used.
 ITU=  0
     Eigenvalues ---    0.00079   0.00281   0.01069   0.01495   0.03266
     Eigenvalues ---    0.03860   0.12766   0.13155   0.15821   0.16193
     Eigenvalues ---    0.19218   0.20474   0.23087   0.23902   0.25099
     Eigenvalues ---    0.26966   0.31302   0.33283   0.39901   0.41593
     Eigenvalues ---    0.44877   0.46058   0.48954   0.51423   0.53768
     Eigenvalues ---    0.58064   0.66843
 RFO step:  Lambda=-1.31265807D-06 EMin= 7.86607015D-04
 Linear search not attempted -- first point.
 Iteration  1 RMS(Cart)=  0.00846504 RMS(Int)=  0.00003876
 Iteration  2 RMS(Cart)=  0.00004194 RMS(Int)=  0.00000022
 Iteration  3 RMS(Cart)=  0.00000000 RMS(Int)=  0.00000022
 ITry= 1 IFail=0 DXMaxC= 2.38D-02 DCOld= 1.00D+10 DXMaxT= 3.00D-01 DXLimC= 3.00D+00 Rises=F
 Variable       Old X    -DE/DX   Delta X   Delta X   Delta X     New X
                                 (Linear)    (Quad)   (Total)
    R1        2.54516   0.00003   0.00000   0.00000   0.00000   2.54516
    R2        2.51703   0.00002   0.00000   0.00001   0.00001   2.51704
    R3        2.52114   0.00001   0.00000  -0.00007  -0.00007   2.52107
    R4        2.70400  -0.00003   0.00000  -0.00004  -0.00004   2.70396
    R5        2.84557  -0.00002   0.00000   0.00011   0.00011   2.84568
    R6        2.50561  -0.00001   0.00000  -0.00007  -0.00007   2.50554
    R7        2.52405   0.00003   0.00000   0.00015   0.00015   2.52420
    R8        2.51935  -0.00002   0.00000  -0.00026  -0.00026   2.51909
    R9        2.50136   0.00003   0.00000   0.00028   0.00028   2.50164
   R10        1.82193  -0.00000   0.00000  -0.00001  -0.00001   1.82192
    A1        2.08056   0.00007   0.00000  -0.00051  -0.00051   2.08005
    A2        2.06150  -0.00004   0.00000   0.00014   0.00014   2.06164
    A3        2.13865  -0.00003   0.00000   0.00033   0.00033   2.13897
    A4        1.85149  -0.00005   0.00000  -0.00001  -0.00001   1.85148
    A5        2.23405   0.00004   0.00000  -0.00118  -0.00118   2.23287
    A6        2.08943  -0.00001   0.00000   0.00016   0.00016   2.08959
    A7        1.95940  -0.00002   0.00000   0.00097   0.00097   1.96037
    A8        1.93263  -0.00001   0.00000   0.00091   0.00091   1.93354
    A9        1.90399  -0.00003   0.00000  -0.00027  -0.00027   1.90372
   A10        1.97288  -0.00002   0.00000  -0.00065  -0.00065   1.97223
   A11        1.87161  -0.00000   0.00000   0.00004   0.00004   1.87165
   A12        1.88960   0.00004   0.00000  -0.00009  -0.00009   1.88951
   A13        1.88999   0.00002   0.00000   0.00008   0.00008   1.89007
   A14        1.90970  -0.00000   0.00000   0.00007   0.00007   1.90977
    D1        2.05538   0.00004   0.00000   0.00343   0.00343   2.05881
    D2       -1.15987   0.00003   0.00000   0.00280   0.00280  -1.15707
    D3       -0.18903  -0.00001   0.00000   0.00049   0.00049  -0.18854
    D4        2.92433  -0.00001   0.00000  -0.00181  -0.00181   2.92252
    D5        3.02963   0.00000   0.00000   0.00116   0.00116   3.03079
    D6       -0.14020  -0.00001   0.00000  -0.00114  -0.00114  -0.14133
    D7       -0.22220   0.00001   0.00000   0.00358   0.00358  -0.21862
    D8        2.84312   0.00001   0.00000   0.00289   0.00289   2.84601
    D9        1.87133   0.00000   0.00000  -0.01519  -0.01519   1.85614
   D10       -2.35602  -0.00002   0.00000  -0.01477  -0.01477  -2.37079
   D11       -0.25234  -0.00003   0.00000  -0.01528  -0.01528  -0.26761
   D12       -1.24377   0.00001   0.00000  -0.01303  -0.01303  -1.25680
   D13        0.81207  -0.00001   0.00000  -0.01260  -0.01260   0.79946
   D14        2.91575  -0.00002   0.00000  -0.01312  -0.01312   2.90264
         Item               Value     Threshold  Converged?
 Maximum Force            0.000066     0.000450     YES
 RMS     Force            0.000025     0.000300     YES
 Maximum Displacement     0.023797     0.001800     NO 
 RMS     Displacement     0.008466     0.001200     NO 
 Predicted change in Energy=-6.563277D-07
 Lowest energy point so far.  Saving SCF results.
 GradGradGradGradGradGradGradGradGradGradGradGradGradGradGradGradGradGrad

 Leave Link  103 at Sat May 24 06:33:39 2025, MaxMem=  3758096384 cpu:               0.1 elap:               0.0
 (Enter /apps/easybuild-2022/easybuild/software/Compiler/NVHPC/22.11-CUDA-11.7.0/Gaussian/g16c01-CUDA-11.7.0/g16/l202.exe)
                          Input orientation:                          
 ---------------------------------------------------------------------
 Center     Atomic      Atomic             Coordinates (Angstroms)
 Number     Number       Type             X           Y           Z
 ---------------------------------------------------------------------
      1          6           0        1.347721   -0.000585    0.000122
      2          8           0        0.000892   -0.002044   -0.005429
      3          6           0        1.998690   -1.159698   -0.082433
      4          6           0        1.432410   -2.549975    0.036310
      5          9           0        1.383831   -3.145605   -1.158295
      6          9           0        2.233537   -3.282044    0.810438
      7          9           0        0.216639   -2.570336    0.559718
      8          9           0       -0.401255    0.551430    1.251288
      9          9           0        3.301509   -1.165942   -0.328527
     10          8           0        1.975294    1.176682    0.001618
     11          1           0        1.343650    1.876944   -0.198843
 ---------------------------------------------------------------------
                    Distance matrix (angstroms):
                    1          2          3          4          5
     1  C    0.000000
     2  O    1.346841   0.000000
     3  C    1.331961   2.310257   0.000000
     4  C    2.551052   2.922830   1.505869   0.000000
     5  F    3.351774   3.622650   2.340803   1.335747   0.000000
     6  F    3.494174   4.050770   2.314459   1.333043   2.148610
     7  F    2.862885   2.638572   2.361772   1.323809   2.155190
     8  F    2.220147   1.430872   3.235198   3.802263   4.760325
     9  F    2.298555   3.514701   1.325873   2.354185   2.878380
    10  O    1.334095   2.299502   2.338008   3.766151   4.514132
    11  H    1.888047   2.317543   3.108669   4.434049   5.113528
                    6          7          8          9         10
     6  F    0.000000
     7  F    2.153431   0.000000
     8  F    4.672472   3.256606   0.000000
     9  F    2.629770   3.503959   4.376716   0.000000
    10  O    4.538845   4.176660   2.756919   2.712145   0.000000
    11  H    5.331576   4.650147   2.627653   3.620661   0.964120
                   11
    11  H    0.000000
 Symmetry turned off by external request.
 Stoichiometry    C3HF5O2
 Rotational constants (GHZ):           1.9763490           1.0272141           0.7912250
 Leave Link  202 at Sat May 24 06:33:39 2025, MaxMem=  3758096384 cpu:               0.0 elap:               0.0
 (Enter /apps/easybuild-2022/easybuild/software/Compiler/NVHPC/22.11-CUDA-11.7.0/Gaussian/g16c01-CUDA-11.7.0/g16/l301.exe)
 Standard basis: def2TZVPP (5D, 7F)
 Ernie: Thresh=  0.10000D-02 Tol=  0.10000D-05 Strict=F.
   324 basis functions,   527 primitive gaussians,   375 cartesian basis functions
    40 alpha electrons       40 beta electrons
       nuclear repulsion energy       613.0058422347 Hartrees.
 IExCor= 4336 DFT=T Ex+Corr=M062X ExCW=0 ScaHFX=  0.540000
 ScaDFX=  1.000000  1.000000  1.000000  1.000000 ScalE2=  1.000000  1.000000
 IRadAn=      5 IRanWt=     -1 IRanGd=            0 ICorTp=0 IEmpDi=  4
 NAtoms=   11 NActive=   11 NUniq=   11 SFac= 1.00D+00 NAtFMM=   60 NAOKFM=F Big=F
 Integral buffers will be    131072 words long.
 Raffenetti 2 integral format.
 Two-electron integral symmetry is turned off.
 Leave Link  301 at Sat May 24 06:33:39 2025, MaxMem=  3758096384 cpu:               0.0 elap:               0.0
 (Enter /apps/easybuild-2022/easybuild/software/Compiler/NVHPC/22.11-CUDA-11.7.0/Gaussian/g16c01-CUDA-11.7.0/g16/l302.exe)
 NPDir=0 NMtPBC=     1 NCelOv=     1 NCel=       1 NClECP=     1 NCelD=      1
         NCelK=      1 NCelE2=     1 NClLst=     1 CellRange=     0.0.
 One-electron integrals computed using PRISM.
   1 Symmetry operations used in ECPInt.
 ECPInt:  NShTT=    6786 NPrTT=   21959 LenC2=    6350 LenP2D=   15557.
 LDataN:  DoStor=T MaxTD1= 6 Len=  172
 NBasis=   324 RedAO= T EigKep=  8.02D-05  NBF=   324
 NBsUse=   324 1.00D-06 EigRej= -1.00D+00 NBFU=   324
 Precomputing XC quadrature grid using
 IXCGrd= 4 IRadAn=           5 IRanWt=          -1 IRanGd=           0 AccXCQ= 0.00D+00.
 Generated NRdTot=       0 NPtTot=           0 NUsed=           0 NTot=          32
 NSgBfM=   373   373   373   373   373 MxSgAt=    11 MxSgA2=    11.
 Leave Link  302 at Sat May 24 06:33:40 2025, MaxMem=  3758096384 cpu:               0.6 elap:               0.1
 (Enter /apps/easybuild-2022/easybuild/software/Compiler/NVHPC/22.11-CUDA-11.7.0/Gaussian/g16c01-CUDA-11.7.0/g16/l303.exe)
 DipDrv:  MaxL=1.
 Leave Link  303 at Sat May 24 06:33:40 2025, MaxMem=  3758096384 cpu:               0.1 elap:               0.0
 (Enter /apps/easybuild-2022/easybuild/software/Compiler/NVHPC/22.11-CUDA-11.7.0/Gaussian/g16c01-CUDA-11.7.0/g16/l401.exe)
 Initial guess from the checkpoint file:  "/tmp/Gau-260426.chk"
 B after Tr=    -0.000075    0.000232   -0.000481
         Rot=    1.000000    0.000073   -0.000070    0.000017 Ang=   0.01 deg.
 Guess basis will be translated and rotated to current coordinates.
 JPrj=2 DoOrth=T DoCkMO=T.
 Generating alternative initial guess.
 ExpMin= 9.52D-02 ExpMax= 3.55D+04 ExpMxC= 1.21D+03 IAcc=3 IRadAn=         5 AccDes= 0.00D+00
 Harris functional with IExCor= 1009 and IRadAn=       5 diagonalized for initial guess.
 HarFok:  IExCor= 1009 AccDes= 0.00D+00 IRadAn=         5 IDoV= 1 UseB2=F ITyADJ=14
 ICtDFT=  3500011 ScaDFX=  1.000000  1.000000  1.000000  1.000000
 FoFCou: FMM=F IPFlag=           0 FMFlag=      100000 FMFlg1=           0
         NFxFlg=           0 DoJE=T BraDBF=F KetDBF=T FulRan=T
         wScrn=  0.000000 ICntrl=       500 IOpCl=  0 I1Cent=   200000004 NGrid=           0
         NMat0=    1 NMatS0=      1 NMatT0=    0 NMatD0=    1 NMtDS0=    0 NMtDT0=    0
 Symmetry not used in FoFCou.
 Harris En= -764.035062706151    
 Leave Link  401 at Sat May 24 06:33:40 2025, MaxMem=  3758096384 cpu:               3.6 elap:               0.6
 (Enter /apps/easybuild-2022/easybuild/software/Compiler/NVHPC/22.11-CUDA-11.7.0/Gaussian/g16c01-CUDA-11.7.0/g16/l502.exe)
 Keep R1 ints in memory in canonical form, NReq=1412617130.
 FoFCou: FMM=F IPFlag=           0 FMFlag=           0 FMFlg1=           0
         NFxFlg=           0 DoJE=F BraDBF=F KetDBF=F FulRan=T
         wScrn=  0.000000 ICntrl=       600 IOpCl=  0 I1Cent=           0 NGrid=           0
         NMat0=    1 NMatS0=  52650 NMatT0=    0 NMatD0=    1 NMtDS0=    0 NMtDT0=    0
 Symmetry not used in FoFCou.
 Two-electron integral symmetry not used.
 Closed shell SCF:
 Using DIIS extrapolation, IDIIS=  1040.
 NGot=  3758096384 LenX=  2371771924 LenY=  2371630858
 Requested convergence on RMS density matrix=1.00D-08 within  32 cycles.
 Requested convergence on MAX density matrix=1.00D-06.
 Requested convergence on             energy=1.00D-06.
 No special actions if energy rises.
 Integral accuracy reduced to 1.0D-05 until final iterations.

 Cycle   1  Pass 0  IDiag  1:
 E= -764.491080594584    
 DIIS: error= 4.83D-04 at cycle   1 NSaved=   1.
 NSaved= 1 IEnMin= 1 EnMin= -764.491080594584     IErMin= 1 ErrMin= 4.83D-04
 ErrMax= 4.83D-04  0.00D+00 EMaxC= 1.00D-01 BMatC= 1.20D-04 BMatP= 1.20D-04
 IDIUse=3 WtCom= 9.95D-01 WtEn= 4.83D-03
 Coeff-Com:  0.100D+01
 Coeff-En:   0.100D+01
 Coeff:      0.100D+01
 Gap=     0.976 Goal=   None    Shift=    0.000
 RMSDP=3.66D-05 MaxDP=9.91D-04              OVMax= 3.25D-03

 Cycle   2  Pass 0  IDiag  1:
 E= -764.491232928226     Delta-E=       -0.000152333641 Rises=F Damp=F
 DIIS: error= 8.99D-05 at cycle   2 NSaved=   2.
 NSaved= 2 IEnMin= 2 EnMin= -764.491232928226     IErMin= 2 ErrMin= 8.99D-05
 ErrMax= 8.99D-05  0.00D+00 EMaxC= 1.00D-01 BMatC= 3.89D-06 BMatP= 1.20D-04
 IDIUse=1 WtCom= 1.00D+00 WtEn= 0.00D+00
 Coeff-Com: -0.162D+00 0.116D+01
 Coeff:     -0.162D+00 0.116D+01
 Gap=     0.295 Goal=   None    Shift=    0.000
 RMSDP=8.36D-06 MaxDP=2.35D-04 DE=-1.52D-04 OVMax= 8.37D-04

 Initial convergence to 1.0D-05 achieved.  Increase integral accuracy.
 Cycle   3  Pass 1  IDiag  1:
 E= -764.491240363452     Delta-E=       -0.000007435226 Rises=F Damp=F
 DIIS: error= 1.68D-05 at cycle   1 NSaved=   1.
 NSaved= 1 IEnMin= 1 EnMin= -764.491240363452     IErMin= 1 ErrMin= 1.68D-05
 ErrMax= 1.68D-05  0.00D+00 EMaxC= 1.00D-01 BMatC= 5.99D-07 BMatP= 5.99D-07
 IDIUse=1 WtCom= 1.00D+00 WtEn= 0.00D+00
 Coeff-Com:  0.100D+01
 Coeff:      0.100D+01
 Gap=     0.295 Goal=   None    Shift=    0.000
 RMSDP=8.36D-06 MaxDP=2.35D-04 DE=-7.44D-06 OVMax= 2.80D-04

 Cycle   4  Pass 1  IDiag  1:
 E= -764.491240819688     Delta-E=       -0.000000456236 Rises=F Damp=F
 DIIS: error= 1.72D-05 at cycle   2 NSaved=   2.
 NSaved= 2 IEnMin= 2 EnMin= -764.491240819688     IErMin= 1 ErrMin= 1.68D-05
 ErrMax= 1.72D-05  0.00D+00 EMaxC= 1.00D-01 BMatC= 2.37D-07 BMatP= 5.99D-07
 IDIUse=1 WtCom= 1.00D+00 WtEn= 0.00D+00
 Coeff-Com:  0.336D+00 0.664D+00
 Coeff:      0.336D+00 0.664D+00
 Gap=     0.295 Goal=   None    Shift=    0.000
 RMSDP=1.99D-06 MaxDP=6.43D-05 DE=-4.56D-07 OVMax= 1.80D-04

 Cycle   5  Pass 1  IDiag  1:
 E= -764.491240950882     Delta-E=       -0.000000131194 Rises=F Damp=F
 DIIS: error= 9.15D-06 at cycle   3 NSaved=   3.
 NSaved= 3 IEnMin= 3 EnMin= -764.491240950882     IErMin= 3 ErrMin= 9.15D-06
 ErrMax= 9.15D-06  0.00D+00 EMaxC= 1.00D-01 BMatC= 5.95D-08 BMatP= 2.37D-07
 IDIUse=1 WtCom= 1.00D+00 WtEn= 0.00D+00
 Coeff-Com: -0.645D-01 0.314D+00 0.750D+00
 Coeff:     -0.645D-01 0.314D+00 0.750D+00
 Gap=     0.295 Goal=   None    Shift=    0.000
 RMSDP=9.40D-07 MaxDP=3.95D-05 DE=-1.31D-07 OVMax= 9.37D-05

 Cycle   6  Pass 1  IDiag  1:
 E= -764.491240998928     Delta-E=       -0.000000048046 Rises=F Damp=F
 DIIS: error= 9.92D-07 at cycle   4 NSaved=   4.
 NSaved= 4 IEnMin= 4 EnMin= -764.491240998928     IErMin= 4 ErrMin= 9.92D-07
 ErrMax= 9.92D-07  0.00D+00 EMaxC= 1.00D-01 BMatC= 1.25D-09 BMatP= 5.95D-08
 IDIUse=1 WtCom= 1.00D+00 WtEn= 0.00D+00
 Coeff-Com: -0.172D-01 0.717D-02 0.926D-01 0.917D+00
 Coeff:     -0.172D-01 0.717D-02 0.926D-01 0.917D+00
 Gap=     0.295 Goal=   None    Shift=    0.000
 RMSDP=1.73D-07 MaxDP=6.38D-06 DE=-4.80D-08 OVMax= 1.84D-05

 Cycle   7  Pass 1  IDiag  1:
 E= -764.491241000605     Delta-E=       -0.000000001678 Rises=F Damp=F
 DIIS: error= 9.58D-07 at cycle   5 NSaved=   5.
 NSaved= 5 IEnMin= 5 EnMin= -764.491241000605     IErMin= 5 ErrMin= 9.58D-07
 ErrMax= 9.58D-07  0.00D+00 EMaxC= 1.00D-01 BMatC= 7.28D-10 BMatP= 1.25D-09
 IDIUse=1 WtCom= 1.00D+00 WtEn= 0.00D+00
 Coeff-Com:  0.399D-02-0.652D-01-0.109D+00 0.511D+00 0.659D+00
 Coeff:      0.399D-02-0.652D-01-0.109D+00 0.511D+00 0.659D+00
 Gap=     0.295 Goal=   None    Shift=    0.000
 RMSDP=9.22D-08 MaxDP=3.48D-06 DE=-1.68D-09 OVMax= 1.23D-05

 Cycle   8  Pass 1  IDiag  1:
 E= -764.491241001386     Delta-E=       -0.000000000781 Rises=F Damp=F
 DIIS: error= 2.37D-07 at cycle   6 NSaved=   6.
 NSaved= 6 IEnMin= 6 EnMin= -764.491241001386     IErMin= 6 ErrMin= 2.37D-07
 ErrMax= 2.37D-07  0.00D+00 EMaxC= 1.00D-01 BMatC= 6.01D-11 BMatP= 7.28D-10
 IDIUse=1 WtCom= 1.00D+00 WtEn= 0.00D+00
 Coeff-Com:  0.380D-02-0.296D-01-0.586D-01 0.111D+00 0.273D+00 0.700D+00
 Coeff:      0.380D-02-0.296D-01-0.586D-01 0.111D+00 0.273D+00 0.700D+00
 Gap=     0.295 Goal=   None    Shift=    0.000
 RMSDP=2.65D-08 MaxDP=1.30D-06 DE=-7.81D-10 OVMax= 2.44D-06

 Cycle   9  Pass 1  IDiag  1:
 E= -764.491241001459     Delta-E=       -0.000000000073 Rises=F Damp=F
 DIIS: error= 8.64D-08 at cycle   7 NSaved=   7.
 NSaved= 7 IEnMin= 7 EnMin= -764.491241001459     IErMin= 7 ErrMin= 8.64D-08
 ErrMax= 8.64D-08  0.00D+00 EMaxC= 1.00D-01 BMatC= 9.59D-12 BMatP= 6.01D-11
 IDIUse=1 WtCom= 1.00D+00 WtEn= 0.00D+00
 Coeff-Com:  0.779D-03-0.768D-03-0.444D-02-0.413D-01 0.635D-02 0.274D+00
 Coeff-Com:  0.765D+00
 Coeff:      0.779D-03-0.768D-03-0.444D-02-0.413D-01 0.635D-02 0.274D+00
 Coeff:      0.765D+00
 Gap=     0.295 Goal=   None    Shift=    0.000
 RMSDP=1.24D-08 MaxDP=4.59D-07 DE=-7.32D-11 OVMax= 1.18D-06

 Cycle  10  Pass 1  IDiag  1:
 E= -764.491241001451     Delta-E=        0.000000000008 Rises=F Damp=F
 DIIS: error= 5.53D-08 at cycle   8 NSaved=   8.
 NSaved= 8 IEnMin= 7 EnMin= -764.491241001459     IErMin= 8 ErrMin= 5.53D-08
 ErrMax= 5.53D-08  0.00D+00 EMaxC= 1.00D-01 BMatC= 2.56D-12 BMatP= 9.59D-12
 IDIUse=1 WtCom= 1.00D+00 WtEn= 0.00D+00
 Coeff-Com: -0.476D-03 0.624D-02 0.112D-01-0.463D-01-0.565D-01-0.247D-01
 Coeff-Com:  0.397D+00 0.714D+00
 Coeff:     -0.476D-03 0.624D-02 0.112D-01-0.463D-01-0.565D-01-0.247D-01
 Coeff:      0.397D+00 0.714D+00
 Gap=     0.295 Goal=   None    Shift=    0.000
 RMSDP=6.38D-09 MaxDP=2.42D-07 DE= 7.73D-12 OVMax= 6.46D-07

 SCF Done:  E(RM062X) =  -764.491241001     A.U. after   10 cycles
            NFock= 10  Conv=0.64D-08     -V/T= 2.0036
 KE= 7.617264695755D+02 PE=-3.038621611469D+03 EE= 8.993980586571D+02
 Leave Link  502 at Sat May 24 06:34:01 2025, MaxMem=  3758096384 cpu:              97.2 elap:              20.9
 (Enter /apps/easybuild-2022/easybuild/software/Compiler/NVHPC/22.11-CUDA-11.7.0/Gaussian/g16c01-CUDA-11.7.0/g16/l508.exe)
 QCSCF skips out because SCF is already converged.
 Leave Link  508 at Sat May 24 06:34:01 2025, MaxMem=  3758096384 cpu:               0.0 elap:               0.0
 (Enter /apps/easybuild-2022/easybuild/software/Compiler/NVHPC/22.11-CUDA-11.7.0/Gaussian/g16c01-CUDA-11.7.0/g16/l701.exe)
 ... and contract with generalized density number  0.
 Compute integral first derivatives.
   1 Symmetry operations used in ECPInt.
 ECPInt:  NShTT=    6786 NPrTT=   21959 LenC2=    6350 LenP2D=   15557.
 LDataN:  DoStor=T MaxTD1= 7 Len=  274
 Leave Link  701 at Sat May 24 06:34:01 2025, MaxMem=  3758096384 cpu:               0.5 elap:               0.1
 (Enter /apps/easybuild-2022/easybuild/software/Compiler/NVHPC/22.11-CUDA-11.7.0/Gaussian/g16c01-CUDA-11.7.0/g16/l702.exe)
 L702 exits ... SP integral derivatives will be done elsewhere.
 Leave Link  702 at Sat May 24 06:34:01 2025, MaxMem=  3758096384 cpu:               0.0 elap:               0.0
 (Enter /apps/easybuild-2022/easybuild/software/Compiler/NVHPC/22.11-CUDA-11.7.0/Gaussian/g16c01-CUDA-11.7.0/g16/l703.exe)
 Integral derivatives from FoFJK, PRISM(SPDF).
 Compute integral first derivatives, UseDBF=F ICtDFT=           0.
 Calling FoFJK, ICntrl=      2127 FMM=F ISym2X=0 I1Cent= 0 IOpClX= 0 NMat=1 NMatS=1 NMatT=0.
 FoFJK:  IHMeth= 1 ICntrl=    2127 DoSepK=F KAlg= 0 I1Cent=           0 FoldK=F
 IRaf=         0 NMat=       1 IRICut=       1 DoRegI=T DoRafI=F ISym2E= 0 IDoP0=0 IntGTp=1.
 FoFCou: FMM=F IPFlag=           0 FMFlag=      100000 FMFlg1=         800
         NFxFlg=           0 DoJE=F BraDBF=F KetDBF=F FulRan=T
         wScrn=  0.000000 ICntrl=      2127 IOpCl=  0 I1Cent=           0 NGrid=           0
         NMat0=    1 NMatS0=      1 NMatT0=    0 NMatD0=    1 NMtDS0=    0 NMtDT0=    0
 Symmetry not used in FoFCou.
 Leave Link  703 at Sat May 24 06:34:10 2025, MaxMem=  3758096384 cpu:              71.1 elap:               9.0
 (Enter /apps/easybuild-2022/easybuild/software/Compiler/NVHPC/22.11-CUDA-11.7.0/Gaussian/g16c01-CUDA-11.7.0/g16/l716.exe)
 Dipole        =-1.33171271D-01 9.13361161D-01-2.75714038D-01
 -------------------------------------------------------------------
 Center     Atomic                   Forces (Hartrees/Bohr)
 Number     Number              X              Y              Z
 -------------------------------------------------------------------
      1        6          -0.000001461    0.000001401   -0.000002523
      2        8          -0.000002346   -0.000004493    0.000000814
      3        6           0.000001666    0.000000848   -0.000003620
      4        6           0.000003343   -0.000002081    0.000002745
      5        9          -0.000000227   -0.000000785    0.000004971
      6        9           0.000003981    0.000001893    0.000003173
      7        9           0.000001537    0.000001164    0.000003999
      8        9           0.000001497   -0.000001533    0.000003429
      9        9          -0.000000359    0.000003449   -0.000002936
     10        8          -0.000003053    0.000000697   -0.000005158
     11        1          -0.000004578   -0.000000561   -0.000004894
 -------------------------------------------------------------------
 Cartesian Forces:  Max     0.000005158 RMS     0.000002859
 Leave Link  716 at Sat May 24 06:34:10 2025, MaxMem=  3758096384 cpu:               0.0 elap:               0.0
 (Enter /apps/easybuild-2022/easybuild/software/Compiler/NVHPC/22.11-CUDA-11.7.0/Gaussian/g16c01-CUDA-11.7.0/g16/l103.exe)

 GradGradGradGradGradGradGradGradGradGradGradGradGradGradGradGradGradGrad
 Berny optimization.
 Using GEDIIS/GDIIS optimizer.
 FormGI is forming the generalized inverse of G from B-inverse, IUseBI=4.
 Internal  Forces:  Max     0.000008566 RMS     0.000002575
 Search for a local minimum.
 Step number   2 out of a maximum of   48
 All quantities printed in internal units (Hartrees-Bohrs-Radians)
 RMS Force = .25748D-05 SwitMx=.10000D-02 MixMth= 2
 Mixed Optimization -- En-DIIS/RFO-DIIS
 Swapping is turned off.
 Update second derivatives using D2CorX and points    1    2
 DE= -6.14D-07 DEPred=-6.56D-07 R= 9.35D-01
 Trust test= 9.35D-01 RLast= 3.51D-02 DXMaxT set to 3.00D-01
 ITU=  0  0
     Eigenvalues ---    0.00082   0.00280   0.01087   0.01498   0.03265
     Eigenvalues ---    0.03857   0.12767   0.13152   0.15820   0.16186
     Eigenvalues ---    0.19228   0.20470   0.23123   0.23904   0.25078
     Eigenvalues ---    0.26970   0.31362   0.33279   0.39909   0.41589
     Eigenvalues ---    0.44863   0.46061   0.48955   0.51430   0.53768
     Eigenvalues ---    0.58054   0.66857
 En-DIIS/RFO-DIIS/Sim-DIIS IScMMF=       -3 using points:     2    1
 RFO step:  Lambda=-1.03676570D-09.
[...]
 ITry= 1 IFail=0 DXMaxC= 1.66D-03 DCOld= 1.00D+10 DXMaxT= 3.00D-01 DXLimC= 3.00D+00 Rises=F
 Variable       Old X    -DE/DX   Delta X   Delta X   Delta X     New X
                                 (Linear)    (Quad)   (Total)
    R1        2.54516  -0.00000   0.00000   0.00001   0.00001   2.54517
    R2        2.51704  -0.00000   0.00000   0.00000   0.00000   2.51704
    R3        2.52107   0.00000   0.00000   0.00001   0.00001   2.52108
    R4        2.70396   0.00000   0.00000   0.00000   0.00000   2.70396
    R5        2.84568   0.00000   0.00000  -0.00001  -0.00001   2.84567
    R6        2.50554  -0.00000   0.00000   0.00000   0.00000   2.50554
    R7        2.52420  -0.00000   0.00000  -0.00001  -0.00001   2.52419
    R8        2.51909   0.00000   0.00000   0.00001   0.00001   2.51910
    R9        2.50164   0.00000   0.00000  -0.00001  -0.00001   2.50163
   R10        1.82192   0.00000   0.00000  -0.00000  -0.00000   1.82192
    A1        2.08005  -0.00001   0.00000   0.00005   0.00005   2.08010
    A2        2.06164   0.00000   0.00000  -0.00002  -0.00002   2.06162
    A3        2.13897   0.00000   0.00000  -0.00003  -0.00003   2.13895
    A4        1.85148  -0.00000   0.00000  -0.00003  -0.00003   1.85145
    A5        2.23287  -0.00001   0.00000   0.00006   0.00006   2.23294
    A6        2.08959   0.00000   0.00000  -0.00001  -0.00001   2.08958
    A7        1.96037   0.00001   0.00000  -0.00005  -0.00005   1.96033
    A8        1.93354  -0.00000   0.00000  -0.00006  -0.00006   1.93348
    A9        1.90372   0.00000   0.00000   0.00002   0.00002   1.90375
   A10        1.97223  -0.00000   0.00000   0.00003   0.00003   1.97226
   A11        1.87165   0.00000   0.00000  -0.00000  -0.00000   1.87164
   A12        1.88951   0.00000   0.00000   0.00001   0.00001   1.88952
   A13        1.89007   0.00000   0.00000  -0.00000  -0.00000   1.89007
   A14        1.90977  -0.00000   0.00000  -0.00001  -0.00001   1.90976
    D1        2.05881  -0.00000   0.00000  -0.00029  -0.00029   2.05852
    D2       -1.15707  -0.00000   0.00000  -0.00021  -0.00021  -1.15728
    D3       -0.18854   0.00000   0.00000   0.00005   0.00005  -0.18849
    D4        2.92252   0.00000   0.00000   0.00020   0.00020   2.92272
    D5        3.03079  -0.00000   0.00000  -0.00003  -0.00003   3.03076
    D6       -0.14133   0.00000   0.00000   0.00011   0.00011  -0.14122
    D7       -0.21862  -0.00000   0.00000  -0.00003  -0.00003  -0.21865
    D8        2.84601   0.00000   0.00000   0.00006   0.00006   2.84607
    D9        1.85614  -0.00000   0.00000   0.00100   0.00100   1.85714
   D10       -2.37079   0.00000   0.00000   0.00098   0.00098  -2.36981
   D11       -0.26761   0.00000   0.00000   0.00101   0.00101  -0.26660
   D12       -1.25680  -0.00000   0.00000   0.00087   0.00087  -1.25593
   D13        0.79946   0.00000   0.00000   0.00084   0.00084   0.80031
   D14        2.90264   0.00000   0.00000   0.00088   0.00088   2.90351
         Item               Value     Threshold  Converged?
 Maximum Force            0.000009     0.000450     YES
 RMS     Force            0.000003     0.000300     YES
 Maximum Displacement     0.001661     0.001800     YES
 RMS     Displacement     0.000591     0.001200     YES
 Predicted change in Energy=-3.305188D-09
 Optimization completed.
    -- Stationary point found.
                           ----------------------------
                           !   Optimized Parameters   !
                           ! (Angstroms and Degrees)  !
 --------------------------                            --------------------------
 ! Name  Definition              Value          Derivative Info.                !
 --------------------------------------------------------------------------------
 ! R1    R(1,2)                  1.3468         -DE/DX =    0.0                 !
 ! R2    R(1,3)                  1.332          -DE/DX =    0.0                 !
 ! R3    R(1,10)                 1.3341         -DE/DX =    0.0                 !
 ! R4    R(2,8)                  1.4309         -DE/DX =    0.0                 !
 ! R5    R(3,4)                  1.5059         -DE/DX =    0.0                 !
 ! R6    R(3,9)                  1.3259         -DE/DX =    0.0                 !
 ! R7    R(4,5)                  1.3357         -DE/DX =    0.0                 !
 ! R8    R(4,6)                  1.333          -DE/DX =    0.0                 !
 ! R9    R(4,7)                  1.3238         -DE/DX =    0.0                 !
 ! R10   R(10,11)                0.9641         -DE/DX =    0.0                 !
 ! A1    A(2,1,3)              119.1782         -DE/DX =    0.0                 !
 ! A2    A(2,1,10)             118.1231         -DE/DX =    0.0                 !
 ! A3    A(3,1,10)             122.5542         -DE/DX =    0.0                 !
 ! A4    A(1,2,8)              106.0818         -DE/DX =    0.0                 !
 ! A5    A(1,3,4)              127.9342         -DE/DX =    0.0                 !
 ! A6    A(1,3,9)              119.7248         -DE/DX =    0.0                 !
 ! A7    A(4,3,9)              112.3212         -DE/DX =    0.0                 !
 ! A8    A(3,4,5)              110.7837         -DE/DX =    0.0                 !
 ! A9    A(3,4,6)              109.0754         -DE/DX =    0.0                 !
 ! A10   A(3,4,7)              113.0003         -DE/DX =    0.0                 !
 ! A11   A(5,4,6)              107.2375         -DE/DX =    0.0                 !
 ! A12   A(5,4,7)              108.2609         -DE/DX =    0.0                 !
 ! A13   A(6,4,7)              108.293          -DE/DX =    0.0                 !
 ! A14   A(1,10,11)            109.4217         -DE/DX =    0.0                 !
 ! D1    D(3,1,2,8)            117.9613         -DE/DX =    0.0                 !
 ! D2    D(10,1,2,8)           -66.2951         -DE/DX =    0.0                 !
 ! D3    D(2,1,3,4)            -10.8026         -DE/DX =    0.0                 !
 ! D4    D(2,1,3,9)            167.4483         -DE/DX =    0.0                 !
 ! D5    D(10,1,3,4)           173.6514         -DE/DX =    0.0                 !
 ! D6    D(10,1,3,9)            -8.0977         -DE/DX =    0.0                 !
 ! D7    D(2,1,10,11)          -12.5262         -DE/DX =    0.0                 !
 ! D8    D(3,1,10,11)          163.0645         -DE/DX =    0.0                 !
 ! D9    D(1,3,4,5)            106.3489         -DE/DX =    0.0                 !
 ! D10   D(1,3,4,6)           -135.8361         -DE/DX =    0.0                 !
 ! D11   D(1,3,4,7)            -15.3332         -DE/DX =    0.0                 !
 ! D12   D(9,3,4,5)            -72.0091         -DE/DX =    0.0                 !
 ! D13   D(9,3,4,6)             45.8059         -DE/DX =    0.0                 !
 ! D14   D(9,3,4,7)            166.3088         -DE/DX =    0.0                 !
 --------------------------------------------------------------------------------
 GradGradGradGradGradGradGradGradGradGradGradGradGradGradGradGradGradGrad

 Leave Link  103 at Sat May 24 06:37:29 2025, MaxMem=  3758096384 cpu:               0.0 elap:               0.0
 (Enter /apps/easybuild-2022/easybuild/software/Compiler/NVHPC/22.11-CUDA-11.7.0/Gaussian/g16c01-CUDA-11.7.0/g16/l9999.exe)

 ----------------------------------------------------------------------

 Electric dipole moment (input orientation):
 (Debye = 10**-18 statcoulomb cm , SI units = C m)
                  (au)            (Debye)         (10**-30 SI)
   Tot        0.963317D+00      0.244851D+01      0.816734D+01
   x         -0.133171D+00     -0.338487D+00     -0.112907D+01
   y          0.913361D+00      0.232153D+01      0.774379D+01
   z         -0.275713D+00     -0.700794D+00     -0.233760D+01

 Dipole polarizability, Alpha (input orientation).
 (esu units = cm**3 , SI units = C**2 m**2 J**-1)
 Alpha(0;0):
               (au)            (10**-24 esu)      (10**-40 SI)
   iso        0.512302D+02      0.759153D+01      0.844672D+01
   aniso      0.293364D+02      0.434720D+01      0.483691D+01
   xx         0.520292D+02      0.770994D+01      0.857846D+01
   yx        -0.102046D+02     -0.151217D+01     -0.168251D+01
   yy         0.619761D+02      0.918392D+01      0.102185D+02
   zx        -0.618826D+01     -0.917006D+00     -0.102031D+01
   zy         0.444359D+01      0.658472D+00      0.732649D+00
   zz         0.396852D+02      0.588074D+01      0.654321D+01

 ----------------------------------------------------------------------

 Dipole orientation:
     6          2.50883684         -0.25942332         -0.35319303
     8          0.00268521          0.01071930         -0.00095962
     6          3.51906399          0.42259961         -2.55541467
     6          2.16609678          1.10988142         -4.96269960
     9          2.27303498          3.59852279         -5.37109788
     9          3.31430224         -0.01491614         -6.90235060
     9         -0.23789731          0.41778893         -4.96466606
     9         -0.96769096         -2.47842508          0.41606001
     9          6.00754198          0.61619573         -2.77384677
     8          3.90347897         -1.05275382          1.59139195
     1          2.91480091         -0.97035247          3.11950375

 Electric dipole moment (dipole orientation):
 (Debye = 10**-18 statcoulomb cm , SI units = C m)
                  (au)            (Debye)         (10**-30 SI)
   Tot        0.963317D+00      0.244851D+01      0.816734D+01
   x          0.000000D+00      0.000000D+00      0.000000D+00
   y          0.000000D+00      0.000000D+00      0.000000D+00
   z          0.963317D+00      0.244851D+01      0.816734D+01

 Dipole polarizability, Alpha (dipole orientation).
 (esu units = cm**3 , SI units = C**2 m**2 J**-1)
 Alpha(0;0):
               (au)            (10**-24 esu)      (10**-40 SI)
   iso        0.512302D+02      0.759153D+01      0.844672D+01
   aniso      0.293364D+02      0.434720D+01      0.483691D+01
   xx         0.514080D+02      0.761789D+01      0.847604D+01
   yx         0.665807D+01      0.986625D+00      0.109777D+01
   yy         0.425488D+02      0.630509D+01      0.701536D+01
   zx        -0.800068D+01     -0.118558D+01     -0.131913D+01
   zy        -0.102313D+02     -0.151612D+01     -0.168692D+01
   zz         0.597337D+02      0.885162D+01      0.984876D+01

 ----------------------------------------------------------------------
 Unable to Open any file for archive entry.
 1\1\GINC-SPARTAN-BM208\Freq\RM062X\def2TZVPP\C3H1F5O2\AKHALILOV\24-May
 -2025\0\\#P Geom=AllCheck Guess=TCheck SCRF=Check GenChk RM062X/def2TZ
 VPP Freq\\Gaussian input prepared by ASE\\0,1\C,1.3477206287,-0.000585
 3083,0.000122412\O,0.0008919874,-0.0020444673,-0.0054293371\C,1.998690
 2458,-1.1596980342,-0.0824327069\C,1.4324099629,-2.5499745942,0.036310
 3533\F,1.383831055,-3.1456051512,-1.1582954759\F,2.2335368165,-3.28204
 36267,0.8104377633\F,0.2166387688,-2.5703360385,0.559718109\F,-0.40125
 546,0.5514297253,1.2512875248\F,3.3015094139,-1.1659419484,-0.32852700
 92\O,1.9752940972,1.1766816843,0.0016181478\H,1.3436498696,1.876944299
 4,-0.1988425703\\Version=ES64L-G16RevC.01\HF=-764.491241\RMSD=2.300e-0
 9\RMSF=2.857e-06\ZeroPoint=0.0504111\Thermal=0.0599422\ETot=-764.43129
 88\HTot=-764.4303546\GTot=-764.4772972\Dipole=-0.133171,0.9133607,-0.2
 757134\DipoleDeriv=0.4330423,0.5338496,0.0219387,0.3288929,1.4999333,-
 0.1314983,-0.0915039,0.0548996,0.1178892,0.0979218,-0.4662302,-0.15216
 58,-0.2312785,-0.1132878,0.2388474,-0.6278342,0.4983794,0.380954,1.103
 7537,-0.4250253,-0.2526303,-0.0950679,-0.1934238,0.034084,-0.2142448,0
 .0963892,-0.026279,1.4256133,0.1749813,0.070253,-0.349214,2.1312961,0.
 1287249,0.0716345,0.0024643,1.6848002,-0.26171,-0.0811975,-0.0440488,0
 .0530852,-0.7103381,-0.3190664,0.0123106,-0.3148047,-0.7749496,-0.4926
 139,0.1904926,-0.1966711,0.2902137,-0.7348176,0.1999245,-0.2384857,0.2
 251314,-0.4794819,-0.7099581,-0.1233834,0.1949404,-0.060892,-0.40709,0
 .0144636,0.1969057,0.0234174,-0.3539664,-0.4080677,0.2094128,0.0912032
 ,0.2547302,-0.2445464,-0.174333,0.7107823,-0.5406346,-0.4802912,-1.090
 1385,0.4111378,0.237405,-0.0111063,-0.2390311,0.0029214,0.1840419,-0.0
 79243,-0.1125493,-0.3431516,-0.4031088,0.0530692,-0.1786656,-1.440151,
 0.0286341,0.0241674,0.0147586,-0.2932222,0.2453087,-0.020929,-0.023293
 6,-0.0006977,0.4514564,-0.0227022,-0.0277738,0.0192424,0.3370963\Polar
 =52.0292336,-10.2046107,61.9761481,-6.1882615,4.4435873,39.6852286\PG=
 Unknown\NImag=0\\0.66506241,-0.11507767,0.91246687,-0.03403701,0.04298
 979,0.18665208,-0.28337195,-0.03814246,-0.04209445,0.41752971,-0.01010
 272,-0.06840722,-0.00842055,0.01997483,0.12804323,-0.05008256,0.020094
 51,-0.07413211,0.02145936,0.09018440,0.25663144,-0.16417627,0.21306840
 ,0.02453413,-0.05613005,0.03174786,0.01914325,0.69881425,0.16569209,-0
 .44031246,-0.02388621,0.02065782,0.00107450,-0.01486502,-0.14005379,0.
 83858009,0.02928216,-0.03382596,-0.05315592,-0.00650404,0.00279609,-0.
 00312650,-0.09611067,0.02034996,0.16787854,0.01961722,0.00682886,-0.00
 417684,0.00302715,-0.00534249,-0.00768154,-0.08176490,-0.04333969,0.00
 509097,0.60394520,-0.00655434,-0.03512577,-0.00261735,0.00603930,-0.00
 159668,-0.01050655,-0.06680548,-0.19900470,0.01143493,0.02710976,0.607
 63812,-0.00550692,-0.00255142,0.00165536,-0.00242124,0.00521108,-0.002
 54220,0.00717842,0.01136333,-0.05944302,-0.02082655,-0.00960618,0.5361
 7883,-0.00275891,0.00013795,-0.00035080,-0.00051521,0.00069411,0.00085
 083,0.00724884,-0.01104455,-0.01087407,-0.07712882,-0.01161269,-0.0127
 8330,0.07937071,-0.00466140,0.00707268,-0.00085042,-0.00231510,0.00076
 525,0.00215779,0.00198541,-0.03333509,-0.04215485,-0.01222279,-0.14041
 352,-0.09723512,0.00225168,0.14218719,-0.00309820,0.00281088,-0.000437
 11,-0.00033623,-0.00085047,0.00073860,0.00347981,-0.02023376,-0.012975
 37,-0.01321360,-0.09337851,-0.22521493,0.01241907,0.13757343,0.3578596
 9,-0.00039609,-0.00224666,-0.00040989,0.00027924,0.00079559,0.00001711
 ,-0.00345094,0.00716021,-0.00355624,-0.13884652,0.07152789,-0.06675355
 ,-0.00142180,0.00326206,-0.03374872,0.20951956,-0.00402143,0.00483206,
 0.00429547,-0.00198047,0.00028013,0.00398279,0.03328660,-0.04081449,0.
 03020548,0.06889519,-0.16897711,0.08010964,-0.00298747,0.02162617,-0.0
 0027110,-0.11750653,0.18290285,0.00245564,-0.00009112,-0.00116381,0.00
 089250,-0.00029219,-0.00080324,-0.01440050,0.01794767,-0.00230928,-0.0
 6298440,0.07876094,-0.14345210,-0.04181719,0.01545531,-0.07263957,0.12
 300159,-0.11126472,0.20091155,-0.00315704,0.00295985,0.00126393,-0.000
 84620,0.00483452,0.00348769,-0.03023557,-0.00187479,0.01474530,-0.2791
 1698,-0.02998040,0.08700624,-0.00990453,0.01325260,0.03785479,-0.07321
 549,0.02585709,-0.00715112,0.39604988,0.00318261,0.00308241,-0.0000731
 7,-0.00104471,-0.01167928,0.00428628,-0.02793294,0.00741737,0.01156740
 ,-0.02648878,-0.08945138,0.01039911,0.02331036,0.00930797,-0.02210491,
 0.03884131,0.00650958,-0.00266954,-0.00219334,0.08328305,0.00036243,-0
 .00062430,-0.00050332,0.00019842,0.00168913,-0.00101761,0.01283043,-0.
 00187546,0.00237371,0.08627645,0.01328990,-0.11090187,0.05292308,-0.01
 591254,-0.04888881,-0.01936730,0.00025943,0.01762125,-0.13344201,-0.00
 150201,0.13875123,-0.03720177,0.03578947,0.05014759,-0.03847046,0.0083
 6261,0.02204233,0.00775618,-0.00791933,0.00295531,-0.00468213,-0.00572
 390,0.00244349,0.00085009,0.00231936,0.00057032,0.00032246,0.00135139,
 -0.00040702,0.00267715,0.00061058,-0.00086620,0.07354100,0.02366601,-0
 .02116061,-0.00956018,0.01061371,-0.04201566,-0.08375673,-0.00512346,0
 .00995763,-0.00510546,0.00181339,0.00320465,-0.00252783,-0.00046155,-0
 .00113764,-0.00011087,-0.00002013,-0.00081008,0.00044880,-0.00158791,-
 0.00017361,0.00079051,-0.03405130,0.04679238,0.06040517,-0.03935129,-0
 .01070812,0.02041369,-0.08204292,-0.19824316,-0.02095213,0.01540846,0.
 00102777,0.00890513,0.01259346,-0.00366650,-0.00148956,-0.00407055,-0.
 00086691,-0.00025947,-0.00353402,0.00105063,-0.00525878,-0.00167188,0.
 00193616,-0.07379046,0.09315123,0.20889788,-0.06428394,-0.01382428,0.0
 0811441,0.01190124,0.00072789,-0.00939934,-0.37927462,0.00842154,0.064
 26603,-0.04398048,0.00718520,0.00939192,0.00397502,-0.00237939,-0.0035
 3532,0.00642280,-0.00106398,0.00044861,-0.00148430,-0.00680320,0.00099
 534,-0.00767976,0.00519006,0.01465723,0.46164271,0.03585006,0.00553567
 ,-0.00728098,0.00428234,-0.00414690,0.00040984,0.00231795,-0.07633116,
 0.00007932,-0.02923384,0.00427079,0.00724915,0.00156532,0.00122249,0.0
 0000871,-0.00295400,0.00157567,-0.00075171,-0.00691024,-0.00631945,0.0
 0276549,0.00093596,-0.00120137,-0.00064090,-0.00759069,0.06963064,0.00
 559109,0.00630450,0.00158162,0.00910182,-0.00464095,0.01365688,0.06368
 882,-0.00382272,-0.05087641,0.00734624,0.00053712,-0.00109888,0.000314
 45,0.00206592,0.00168642,0.00089591,-0.00136397,0.00061380,0.00160859,
 0.00186753,0.00112506,-0.00381449,0.00358289,0.00014071,-0.08147411,-0
 .00195903,0.03723184,-0.14458419,-0.06697804,-0.00843427,-0.05416734,-
 0.05055224,0.00247648,0.00503166,0.00781713,0.00073161,-0.00267561,0.0
 0765723,0.00295924,0.00058396,-0.00072639,-0.00005727,0.00079647,-0.00
 132498,-0.00023935,-0.00018769,-0.00145791,-0.00002133,0.00424916,-0.0
 0110278,-0.00549507,0.01193818,0.00097504,-0.00329269,0.43561811,-0.11
 221631,-0.32155383,-0.00304404,-0.02248600,-0.00836765,-0.01029895,-0.
 04013775,-0.06608840,0.00383477,0.01158745,0.02190163,-0.00156232,-0.0
 0179751,-0.00774671,-0.00364685,0.00136133,-0.00777465,0.00250771,-0.0
 0451926,-0.00252527,0.00111502,-0.00093040,0.00688733,0.00875613,0.012
 02770,0.00492045,-0.00327975,-0.09669389,0.65854191,-0.00730037,0.0055
 9817,-0.04635674,0.00144475,-0.00496412,0.00674465,0.00055101,-0.00168
 302,0.01052616,0.00093697,0.00046234,0.00594584,0.00055575,0.00203717,
 0.00064050,0.00015381,-0.00171831,0.00003916,-0.00038113,-0.00014468,-
 0.00031660,0.00087653,0.00428914,0.00277823,-0.00266494,0.00094891,-0.
 00316784,0.08293145,-0.07404906,0.04619447,0.01525052,-0.02251542,0.00
 544320,0.00076386,-0.00113998,-0.00231362,-0.00381857,-0.00551664,-0.0
 0002636,0.00160586,0.00115742,-0.00068776,-0.00029934,-0.00076605,-0.0
 0033465,-0.00000969,-0.00050542,0.00020124,-0.00057922,-0.00002398,0.0
 0011070,-0.00136193,0.00106396,0.00286424,0.00082314,0.00076211,0.0000
 3437,-0.25660271,0.25380464,-0.07710384,0.24422808,0.02424310,-0.04642
 979,0.00844764,0.00440073,0.00605029,-0.00168836,-0.00235281,-0.001143
 28,0.00081832,0.00039295,-0.00244603,-0.00084943,-0.00005566,0.0004512
 1,0.00020345,-0.00022107,0.00064987,-0.00005115,0.00016187,0.00054860,
 0.00000484,-0.00074444,-0.00034302,0.00140229,-0.00189086,0.00084317,0
 .00070845,0.20238683,-0.27819480,0.06922347,-0.22632064,0.32001378,0.0
 0192856,-0.00135376,-0.00343194,-0.00215458,0.00133051,0.00209324,0.00
 005742,0.00129676,0.00008032,0.00032717,-0.00097010,0.00253948,0.00025
 174,0.00093387,0.00009748,0.00002675,-0.00070069,0.00013161,0.00026650
 ,0.00004587,-0.00017920,-0.00015741,-0.00120150,-0.00234669,-0.0007998
 3,-0.00082880,-0.00089320,-0.07155878,0.07966735,-0.02302783,0.0718124
 7,-0.07821952,0.02493673\\0.00000141,-0.00000127,0.00000256,0.00000239
 ,0.00000442,-0.00000087,-0.00000170,-0.00000075,0.00000363,-0.00000336
 ,0.00000207,-0.00000274,0.00000022,0.00000077,-0.00000502,-0.00000394,
 -0.00000192,-0.00000315,-0.00000157,-0.00000116,-0.00000398,-0.0000014
 7,0.00000155,-0.00000342,0.00000040,-0.00000347,0.00000293,0.00000302,
 -0.00000076,0.00000516,0.00000460,0.00000052,0.00000490\\\@
 The archive entry for this job was punched.


 MANHOOD BEGINS BY TRYING TO SHAVE FACE,
 AND ENDS BY TRYING TO SAVE FACE.
 Job cpu time:       0 days  0 hours 25 minutes 46.6 seconds.
 Elapsed time:       0 days  0 hours  3 minutes 18.2 seconds.
 File lengths (MBytes):  RWF=    116 Int=      0 D2E=      0 Chk=      9 Scr=      1
 Normal termination of Gaussian 16 at Sat May 24 06:37:29 2025.
done
