11
energy = -764.441142885
C 1.30143100 0.02654700 0.14909500
O -0.01924400 0.02368700 0.39498200
C 1.95760600 -1.12535400 0.02747900
C 1.42871100 -2.52756800 -0.05552500
F 1.99864900 -3.15475400 -1.08666800
F 1.74190700 -3.21694000 1.04470700
F 0.11651500 -2.56945700 -0.21476200
F -0.62294800 0.66974800 -0.71441600
F 3.29646700 -1.08209300 -0.00338300
O 1.86319300 1.23533800 0.15079000
H 2.79098200 1.17226300 -0.10393500
11
energy = -764.441185633
C 1.38024600 0.03009300 -0.07807500
O 0.11165300 0.10249900 0.35819100
C 1.98490200 -1.15212600 -0.17265700
C 1.41931400 -2.53478800 -0.02669400
F 1.80855100 -3.28360300 -1.06073400
F 1.88477200 -3.12098900 1.07939800
F 0.09770800 -2.54331200 0.02092700
F -0.63695500 0.65523600 -0.71256800
F 3.30449000 -1.16240600 -0.40516600
O 1.96291600 1.21063900 -0.28692000
H 2.84179900 1.08661500 -0.66354900
11
energy = -764.4408278669999
C 1.39381500 0.02585100 -0.11300500
O 0.13888900 0.07368200 0.37365600
C 2.01064300 -1.15127700 -0.20258100
C 1.41413800 -2.52328400 -0.03042300
F 1.87689300 -3.32327700 -0.99103100
F 1.77929000 -3.05617900 1.13870200
F 0.09169700 -2.52310300 -0.09105400
F -0.67836100 0.58059500 -0.68591600
F 3.31472200 -1.19421700 -0.43794800
O 1.99929500 1.17811900 -0.40536400
H 1.49189700 1.90966700 -0.03535800
11
energy = -764.441151027
C 1.20987500 -0.18573400 0.21540300
O -0.06470300 -0.32393400 0.61665500
C 1.97743700 -1.26187400 0.05703600
C 1.60938800 -2.71668700 0.08833800
F 2.12908600 -3.32750100 -0.97852600
F 2.12217400 -3.31075000 1.16908000
F 0.30143800 -2.91241000 0.08569200
F -0.86225900 0.19637800 -0.43491500
F 3.28984000 -1.07116900 -0.13415700
O 1.62362900 1.07679700 0.10786200
H 2.51736400 1.10516000 -0.25283700
11
energy = -764.4411576570002
C 1.27381600 -0.18341400 0.00643000
O 0.05192500 -0.24876900 0.56090000
C 2.00099000 -1.28983300 -0.13260600
C 1.61602400 -2.72490700 0.07990900
F 1.99617100 -3.44597800 -0.97698800
F 2.24325900 -3.22992200 1.14540900
F 0.31395100 -2.88417800 0.24779900
F -0.85311000 0.19133900 -0.43900800
F 3.28540500 -1.15311800 -0.48898100
O 1.69222700 1.05171100 -0.26940400
H 2.53873900 1.02178700 -0.73004100
11
energy = -764.4408865750001
C 1.29614500 -0.17245600 -0.05096800
O 0.11091700 -0.23947500 0.58516900
C 2.01979300 -1.28174400 -0.19226700
C 1.59762000 -2.70179100 0.07869800
F 2.02545200 -3.48069300 -0.91483300
F 2.15392900 -3.15546800 1.20513000
F 0.28492800 -2.84016100 0.17951400
F -0.87756000 0.14357200 -0.37611300
F 3.28327600 -1.19748300 -0.58491600
O 1.73528900 1.02626700 -0.43836300
H 1.20312900 1.71286800 -0.02010800
11
energy = -764.4411229510001
C 1.27369100 0.01409400 0.12823300
O -0.06856400 0.01389800 0.07301400
C 1.94365300 -1.13137100 0.02192400
C 1.43564200 -2.54373700 0.01582400
F 1.58990000 -3.09635100 -1.19022600
F 2.14869000 -3.27407400 0.87583900
F 0.15979700 -2.62856700 0.35351000
F -0.50952200 0.51825000 1.32351900
F 3.27304200 -1.06621700 -0.13245000
O 1.82608600 1.22576900 0.18653000
H 2.78085500 1.15197300 0.29893700
11
energy = -764.4411294360001
C 1.29804000 -0.00843400 -0.08889400
O -0.03975700 0.00335100 0.03256700
C 1.94744600 -1.16792100 -0.16695100
C 1.44072500 -2.56623500 0.03615400
F 1.41776100 -3.23424700 -1.12014400
F 2.26894100 -3.22221500 0.85159000
F 0.22680800 -2.59766400 0.56021900
F -0.31282400 0.63452100 1.27346000
F 3.24419700 -1.13765700 -0.50208900
O 1.85340500 1.19561300 -0.22578700
H 2.81465600 1.12099400 -0.23168000
11
energy = -764.440830001
C 1.34772100 -0.00058500 0.00012200
O 0.00089200 -0.00204400 -0.00542900
C 1.99869000 -1.15969800 -0.08243300
C 1.43241000 -2.54997500 0.03631000
F 1.38383100 -3.14560500 -1.15829500
F 2.23353700 -3.28204400 0.81043800
F 0.21663900 -2.57033600 0.55971800
F -0.40125500 0.55143000 1.25128800
F 3.30150900 -1.16594200 -0.32852700
O 1.97529400 1.17668200 0.00161800
H 1.34365000 1.87694400 -0.19884300
