 Entering Gaussian System, Link 0=g16
 Initial command:
 /apps/easybuild-2022/easybuild/software/Compiler/NVHPC/22.11-CUDA-11.7.0/Gaussian/g16c01-CUDA-11.7.0/g16/l1.exe "/tmp/Gau-23769.inp" -scrdir="/tmp/"
 Entering Link 1 = /apps/easybuild-2022/easybuild/software/Compiler/NVHPC/22.11-CUDA-11.7.0/Gaussian/g16c01-CUDA-11.7.0/g16/l1.exe PID=     23770.
  
 Copyright (c) 1988-2019, Gaussian, Inc.  All Rights Reserved.
  
 This is part of the Gaussian(R) 16 program.  It is based on
 the Gaussian(R) 09 system (copyright 2009, Gaussian, Inc.),
 the Gaussian(R) 03 system (copyright 2003, Gaussian, Inc.),
 the Gaussian(R) 98 system (copyright 1998, Gaussian, Inc.),
 the Gaussian(R) 94 system (copyright 1995, Gaussian, Inc.),
 the Gaussian 92(TM) system (copyright 1992, Gaussian, Inc.),
 the Gaussian 90(TM) system (copyright 1990, Gaussian, Inc.),
 the Gaussian 88(TM) system (copyright 1988, Gaussian, Inc.),
 the Gaussian 86(TM) system (copyright 1986, Carnegie Mellon
 University), and the Gaussian 82(TM) system (copyright 1983,
 Carnegie Mellon University). Gaussian is a federally registered
 trademark of Gaussian, Inc.
  
 This software contains proprietary and confidential information,
 including trade secrets, belonging to Gaussian, Inc.
  
 This software is provided under written license and may be
 used, copied, transmitted, or stored only in accord with that
 written license.
  
 The following legend is applicable only to US Government
 contracts under FAR:
  
                    RESTRICTED RIGHTS LEGEND
  
 Use, reproduction and disclosure by the US Government is
 subject to restrictions as set forth in subparagraphs (a)
 and (c) of the Commercial Computer Software - Restricted
 Rights clause in FAR 52.227-19.
  
 Gaussian, Inc.
 340 Quinnipiac St., Bldg. 40, Wallingford CT 06492
  
  
 ---------------------------------------------------------------
 Warning -- This program may not be used in any manner that
 competes with the business of Gaussian, Inc. or will provide
 assistance to any competitor of Gaussian, Inc.  The licensee
 of this program is prohibited from giving any competitor of
 Gaussian, Inc. access to this program.  By using this program,
 the user acknowledges that Gaussian, Inc. is engaged in the
 business of creating and licensing software in the field of
 computational chemistry and represents and warrants to the
 licensee that it is not a competitor of Gaussian, Inc. and that
 it will not use this program in any manner prohibited above.
 ---------------------------------------------------------------
  

 Cite this work as:
 Gaussian 16, Revision C.01,
 M. J. Frisch, G. W. Trucks, H. B. Schlegel, G. E. Scuseria, 
 M. A. Robb, J. R. Cheeseman, G. Scalmani, V. Barone, 
 G. A. Petersson, H. Nakatsuji, X. Li, M. Caricato, A. V. Marenich, 
 J. Bloino, B. G. Janesko, R. Gomperts, B. Mennucci, H. P. Hratchian, 
 J. V. Ortiz, A. F. Izmaylov, J. L. Sonnenberg, D. Williams-Young, 
 F. Ding, F. Lipparini, F. Egidi, J. Goings, B. Peng, A. Petrone, 
 T. Henderson, D. Ranasinghe, V. G. Zakrzewski, J. Gao, N. Rega, 
 G. Zheng, W. Liang, M. Hada, M. Ehara, K. Toyota, R. Fukuda, 
 J. Hasegawa, M. Ishida, T. Nakajima, Y. Honda, O. Kitao, H. Nakai, 
 T. Vreven, K. Throssell, J. A. Montgomery, Jr., J. E. Peralta, 
 F. Ogliaro, M. J. Bearpark, J. J. Heyd, E. N. Brothers, K. N. Kudin, 
 V. N. Staroverov, T. A. Keith, R. Kobayashi, J. Normand, 
 K. Raghavachari, A. P. Rendell, J. C. Burant, S. S. Iyengar, 
 J. Tomasi, M. Cossi, J. M. Millam, M. Klene, C. Adamo, R. Cammi, 
 J. W. Ochterski, R. L. Martin, K. Morokuma, O. Farkas, 
 J. B. Foresman, and D. J. Fox, Gaussian, Inc., Wallingford CT, 2019.
 
 ******************************************
 Gaussian 16:  ES64L-G16RevC.01  3-Jul-2019
                24-May-2025 
 ******************************************
 %mem=28GB
 %nprocshared=8
 Will use up to    8 processors via shared memory.
 ----------------------------------------------------------------------
 #P M062X/Def2TZVPP Symm(None) scf(xqc) pop(None) opt(NoFreeze,TS,CalcA
 ll,NoEigentest,MaxCycle=999)
 ----------------------------------------------------------------------
 1/5=1,6=999,10=4,11=1,18=20,26=3,29=2000,38=1/1,3;
 2/9=110,12=2,15=3,17=6,18=5,40=1/2;
 3/5=44,7=202,11=2,25=1,30=1,71=2,74=-55,140=1/1,2,3;
 4//1;
 5/5=2,8=3,13=1,38=5/2,8;
 8/6=4,10=90,11=11/1;
 11/6=1,8=1,9=11,15=111,16=1,31=1/1,2,10;
 10/6=1,31=1/2;
 7/10=1,25=1,30=1/1,2,3,16;
 1/5=1,6=999,10=4,11=1,18=20,26=3/3(3);
 2/9=110,15=3/2;
 7/8=1,9=1,25=1,30=1,44=-1/16;
 99//99;
 2/9=110,15=3/2;
 3/5=44,7=202,11=2,25=1,30=1,71=2,74=-55,140=1/1,2,3;
 4/5=5,16=3,69=1/1;
 5/5=2,8=3,13=1,38=5/2,8;
 8/6=4,10=90,11=11/1;
 11/6=1,8=1,9=11,15=111,16=1,31=1/1,2,10;
 10/6=1,31=1/2;
 7/10=1,25=1,30=1/1,2,3,16;
 1/5=1,6=999,10=4,11=1,18=20,26=3/3(-8);
 2/9=110,15=3/2;
 7/8=1,9=1,25=1,30=1,44=-1/16;
 99//99;
 Leave Link    1 at Sat May 24 05:05:30 2025, MaxMem=  3758096384 cpu:               0.1 elap:               0.0
 (Enter /apps/easybuild-2022/easybuild/software/Compiler/NVHPC/22.11-CUDA-11.7.0/Gaussian/g16c01-CUDA-11.7.0/g16/l101.exe)
 ------------------------------
 Gaussian input prepared by ASE
 ------------------------------
 Symbolic Z-matrix:
 Charge =  0 Multiplicity = 1
 C                     1.49882   0.        0. 
 O                     2.13135  -1.00794   0.12013 
 C                     0.        0.        0. 
 C                    -1.24817   1.53937   0.45054 
 F                    -1.76578   2.66116  -0.03305 
 F                    -2.24902   0.7295    0.63344 
 F                    -0.57056   1.88986   1.50408 
 F                    -0.40483   1.27087  -0.93178 
 F                    -0.47703  -1.0055   -0.69646 
 O                     2.01453   1.23402   0. 
 H                     1.61434   1.71594   0.73623 
 
 Add virtual bond connecting atoms F8         and C4         Dist= 3.10D+00.
 ITRead=  0  0  0  0  0  0  0  0  0  0  0
 MicOpt= -1 -1 -1 -1 -1 -1 -1 -1 -1 -1 -1
 NAtoms=     11 NQM=       11 NQMF=       0 NMMI=      0 NMMIF=      0
                NMic=       0 NMicF=      0.
                    Isotopes and Nuclear Properties:
 (Nuclear quadrupole moments (NQMom) in fm**2, nuclear magnetic moments (NMagM)
  in nuclear magnetons)

  Atom         1           2           3           4           5           6           7           8           9          10
 IAtWgt=          12          16          12          12          19          19          19          19          19          16
 AtmWgt=  12.0000000  15.9949146  12.0000000  12.0000000  18.9984032  18.9984032  18.9984032  18.9984032  18.9984032  15.9949146
 NucSpn=           0           0           0           0           1           1           1           1           1           0
 AtZEff=  -0.0000000  -0.0000000  -0.0000000  -0.0000000  -0.0000000  -0.0000000  -0.0000000  -0.0000000  -0.0000000  -0.0000000
 NQMom=    0.0000000   0.0000000   0.0000000   0.0000000   0.0000000   0.0000000   0.0000000   0.0000000   0.0000000   0.0000000
 NMagM=    0.0000000   0.0000000   0.0000000   0.0000000   2.6288670   2.6288670   2.6288670   2.6288670   2.6288670   0.0000000
 AtZNuc=   6.0000000   8.0000000   6.0000000   6.0000000   9.0000000   9.0000000   9.0000000   9.0000000   9.0000000   8.0000000

  Atom        11
 IAtWgt=           1
 AtmWgt=   1.0078250
 NucSpn=           1
 AtZEff=  -0.0000000
 NQMom=    0.0000000
 NMagM=    2.7928460
 AtZNuc=   1.0000000
 Leave Link  101 at Sat May 24 05:05:30 2025, MaxMem=  3758096384 cpu:               0.3 elap:               0.2
 (Enter /apps/easybuild-2022/easybuild/software/Compiler/NVHPC/22.11-CUDA-11.7.0/Gaussian/g16c01-CUDA-11.7.0/g16/l103.exe)

 GradGradGradGradGradGradGradGradGradGradGradGradGradGradGradGradGradGrad
 Berny optimization.
 Initialization pass.
                           ----------------------------
                           !    Initial Parameters    !
                           ! (Angstroms and Degrees)  !
 --------------------------                            --------------------------
 ! Name  Definition              Value          Derivative Info.                !
 --------------------------------------------------------------------------------
 ! R1    R(1,2)                  1.196          calculate D2E/DX2 analytically  !
 ! R2    R(1,3)                  1.4988         calculate D2E/DX2 analytically  !
 ! R3    R(1,10)                 1.3374         calculate D2E/DX2 analytically  !
 ! R4    R(3,8)                  1.627          calculate D2E/DX2 analytically  !
 ! R5    R(3,9)                  1.3129         calculate D2E/DX2 analytically  !
 ! R6    R(4,5)                  1.3267         calculate D2E/DX2 analytically  !
 ! R7    R(4,6)                  1.3004         calculate D2E/DX2 analytically  !
 ! R8    R(4,7)                  1.3008         calculate D2E/DX2 analytically  !
 ! R9    R(4,8)                  1.6414         calculate D2E/DX2 analytically  !
 ! R10   R(10,11)                0.9667         calculate D2E/DX2 analytically  !
 ! A1    A(2,1,3)              121.9286         calculate D2E/DX2 analytically  !
 ! A2    A(2,1,10)             125.0053         calculate D2E/DX2 analytically  !
 ! A3    A(3,1,10)             112.6803         calculate D2E/DX2 analytically  !
 ! A4    A(1,3,8)              104.4075         calculate D2E/DX2 analytically  !
 ! A5    A(1,3,9)              111.3059         calculate D2E/DX2 analytically  !
 ! A6    A(8,3,9)              101.772          calculate D2E/DX2 analytically  !
 ! A7    A(5,4,6)              106.1163         calculate D2E/DX2 analytically  !
 ! A8    A(5,4,7)              105.7024         calculate D2E/DX2 analytically  !
 ! A9    A(5,4,8)               91.8221         calculate D2E/DX2 analytically  !
 ! A10   A(6,4,7)              117.0542         calculate D2E/DX2 analytically  !
 ! A11   A(6,4,8)              114.3314         calculate D2E/DX2 analytically  !
 ! A12   A(7,4,8)              117.2923         calculate D2E/DX2 analytically  !
 ! A13   A(3,8,4)               76.8982         calculate D2E/DX2 analytically  !
 ! A14   A(1,10,11)            107.4792         calculate D2E/DX2 analytically  !
 ! D1    D(2,1,3,8)           -150.5483         calculate D2E/DX2 analytically  !
 ! D2    D(2,1,3,9)            -41.5049         calculate D2E/DX2 analytically  !
 ! D3    D(10,1,3,8)            36.2481         calculate D2E/DX2 analytically  !
 ! D4    D(10,1,3,9)           145.2915         calculate D2E/DX2 analytically  !
 ! D5    D(2,1,10,11)         -119.9702         calculate D2E/DX2 analytically  !
 ! D6    D(3,1,10,11)           52.9865         calculate D2E/DX2 analytically  !
 ! D7    D(1,3,8,4)           -127.1895         calculate D2E/DX2 analytically  !
 ! D8    D(9,3,8,4)            116.9143         calculate D2E/DX2 analytically  !
 ! D9    D(5,4,8,3)            179.9215         calculate D2E/DX2 analytically  !
 ! D10   D(6,4,8,3)            -71.4648         calculate D2E/DX2 analytically  !
 ! D11   D(7,4,8,3)             71.1913         calculate D2E/DX2 analytically  !
 --------------------------------------------------------------------------------
 Trust Radius=3.00D-01 FncErr=1.00D-07 GrdErr=1.00D-06 EigMax=2.50D+02 EigMin=1.00D-04
 Number of steps in this run=    100 maximum allowed number of steps=    100.
 Search for a saddle point of order  1.
 GradGradGradGradGradGradGradGradGradGradGradGradGradGradGradGradGradGrad

 Leave Link  103 at Sat May 24 05:05:30 2025, MaxMem=  3758096384 cpu:               0.1 elap:               0.0
 (Enter /apps/easybuild-2022/easybuild/software/Compiler/NVHPC/22.11-CUDA-11.7.0/Gaussian/g16c01-CUDA-11.7.0/g16/l202.exe)
                          Input orientation:                          
 ---------------------------------------------------------------------
 Center     Atomic      Atomic             Coordinates (Angstroms)
 Number     Number       Type             X           Y           Z
 ---------------------------------------------------------------------
      1          6           0        1.498824    0.000000    0.000000
      2          8           0        2.131352   -1.007937    0.120126
      3          6           0        0.000000    0.000000    0.000000
      4          6           0       -1.248172    1.539372    0.450543
      5          9           0       -1.765778    2.661160   -0.033052
      6          9           0       -2.249016    0.729498    0.633439
      7          9           0       -0.570555    1.889857    1.504084
      8          9           0       -0.404830    1.270869   -0.931775
      9          9           0       -0.477030   -1.005499   -0.696461
     10          8           0        2.014528    1.234020    0.000000
     11          1           0        1.614341    1.715941    0.736233
 ---------------------------------------------------------------------
                    Distance matrix (angstroms):
                    1          2          3          4          5
     1  C    0.000000
     2  O    1.196018   0.000000
     3  C    1.498824   2.360726   0.000000
     4  C    3.180981   4.244896   2.032385   0.000000
     5  F    4.211946   5.354750   3.193875   1.326721   0.000000
     6  F    3.870363   4.740231   2.447751   1.300398   2.099774
     7  F    3.180591   4.196767   2.481806   1.300751   2.094338
     8  F    2.471277   3.568146   1.627022   1.641379   2.143080
     9  F    2.323808   2.733217   1.312876   2.895970   3.942761
    10  O    1.337444   2.248210   2.362441   3.307785   4.040857
    11  H    1.870785   2.840141   2.468317   2.882148   3.593110
                    6          7          8          9         10
     6  F    0.000000
     7  F    2.218487   0.000000
     8  F    2.478710   2.518734   0.000000
     9  F    2.814033   3.637888   2.289637   0.000000
    10  O    4.339769   3.061869   2.592846   3.421748   0.000000
    11  H    3.988629   2.322416   2.656575   3.719231   0.966662
                   11
    11  H    0.000000
 Symmetry turned off by external request.
 Stoichiometry    C3HF5O2
 Rotational constants (GHZ):           2.3061436           1.0024880           0.8508950
 Leave Link  202 at Sat May 24 05:05:30 2025, MaxMem=  3758096384 cpu:               0.0 elap:               0.0
 (Enter /apps/easybuild-2022/easybuild/software/Compiler/NVHPC/22.11-CUDA-11.7.0/Gaussian/g16c01-CUDA-11.7.0/g16/l301.exe)
 Standard basis: def2TZVPP (5D, 7F)
 Ernie: Thresh=  0.10000D-02 Tol=  0.10000D-05 Strict=F.
   324 basis functions,   527 primitive gaussians,   375 cartesian basis functions
    40 alpha electrons       40 beta electrons
       nuclear repulsion energy       623.8223611145 Hartrees.
 IExCor= 4336 DFT=T Ex+Corr=M062X ExCW=0 ScaHFX=  0.540000
 ScaDFX=  1.000000  1.000000  1.000000  1.000000 ScalE2=  1.000000  1.000000
 IRadAn=      5 IRanWt=     -1 IRanGd=            0 ICorTp=0 IEmpDi=  4
 NAtoms=   11 NActive=   11 NUniq=   11 SFac= 1.00D+00 NAtFMM=   60 NAOKFM=F Big=F
 Integral buffers will be    131072 words long.
 Raffenetti 2 integral format.
 Two-electron integral symmetry is turned off.
 Leave Link  301 at Sat May 24 05:05:30 2025, MaxMem=  3758096384 cpu:               0.1 elap:               0.0
 (Enter /apps/easybuild-2022/easybuild/software/Compiler/NVHPC/22.11-CUDA-11.7.0/Gaussian/g16c01-CUDA-11.7.0/g16/l302.exe)
 NPDir=0 NMtPBC=     1 NCelOv=     1 NCel=       1 NClECP=     1 NCelD=      1
         NCelK=      1 NCelE2=     1 NClLst=     1 CellRange=     0.0.
 One-electron integrals computed using PRISM.
   1 Symmetry operations used in ECPInt.
 ECPInt:  NShTT=    6786 NPrTT=   21959 LenC2=    6427 LenP2D=   15755.
 LDataN:  DoStor=T MaxTD1= 6 Len=  172
 NBasis=   324 RedAO= T EigKep=  3.81D-04  NBF=   324
 NBsUse=   324 1.00D-06 EigRej= -1.00D+00 NBFU=   324
 Precomputing XC quadrature grid using
 IXCGrd= 4 IRadAn=           5 IRanWt=          -1 IRanGd=           0 AccXCQ= 0.00D+00.
 Generated NRdTot=       0 NPtTot=           0 NUsed=           0 NTot=          32
 NSgBfM=   373   373   373   373   373 MxSgAt=    11 MxSgA2=    11.
 Leave Link  302 at Sat May 24 05:05:30 2025, MaxMem=  3758096384 cpu:               0.9 elap:               0.2
 (Enter /apps/easybuild-2022/easybuild/software/Compiler/NVHPC/22.11-CUDA-11.7.0/Gaussian/g16c01-CUDA-11.7.0/g16/l303.exe)
 DipDrv:  MaxL=1.
 Leave Link  303 at Sat May 24 05:05:31 2025, MaxMem=  3758096384 cpu:               0.1 elap:               0.0
 (Enter /apps/easybuild-2022/easybuild/software/Compiler/NVHPC/22.11-CUDA-11.7.0/Gaussian/g16c01-CUDA-11.7.0/g16/l401.exe)
 ExpMin= 9.52D-02 ExpMax= 3.55D+04 ExpMxC= 1.21D+03 IAcc=3 IRadAn=         5 AccDes= 0.00D+00
 Harris functional with IExCor= 1009 and IRadAn=       5 diagonalized for initial guess.
 HarFok:  IExCor= 1009 AccDes= 0.00D+00 IRadAn=         5 IDoV= 1 UseB2=F ITyADJ=14
 ICtDFT=  3500011 ScaDFX=  1.000000  1.000000  1.000000  1.000000
 FoFCou: FMM=F IPFlag=           0 FMFlag=      100000 FMFlg1=           0
         NFxFlg=           0 DoJE=T BraDBF=F KetDBF=T FulRan=T
         wScrn=  0.000000 ICntrl=       500 IOpCl=  0 I1Cent=   200000004 NGrid=           0
         NMat0=    1 NMatS0=      1 NMatT0=    0 NMatD0=    1 NMtDS0=    0 NMtDT0=    0
 Symmetry not used in FoFCou.
 Harris En= -764.040225809907    
 JPrj=0 DoOrth=F DoCkMO=F.
 Leave Link  401 at Sat May 24 05:05:31 2025, MaxMem=  3758096384 cpu:               3.0 elap:               0.4
 (Enter /apps/easybuild-2022/easybuild/software/Compiler/NVHPC/22.11-CUDA-11.7.0/Gaussian/g16c01-CUDA-11.7.0/g16/l502.exe)
 Keep R1 ints in memory in canonical form, NReq=1412617130.
 FoFCou: FMM=F IPFlag=           0 FMFlag=           0 FMFlg1=           0
         NFxFlg=           0 DoJE=F BraDBF=F KetDBF=F FulRan=T
         wScrn=  0.000000 ICntrl=       600 IOpCl=  0 I1Cent=           0 NGrid=           0
         NMat0=    1 NMatS0=  52650 NMatT0=    0 NMatD0=    1 NMtDS0=    0 NMtDT0=    0
 Symmetry not used in FoFCou.
 Two-electron integral symmetry not used.
 Closed shell SCF:
 Using DIIS extrapolation, IDIIS=  1040.
 NGot=  3758096384 LenX=  2371771924 LenY=  2371630858
 Requested convergence on RMS density matrix=1.00D-08 within  32 cycles.
 Requested convergence on MAX density matrix=1.00D-06.
 Requested convergence on             energy=1.00D-06.
 No special actions if energy rises.
 Integral accuracy reduced to 1.0D-05 until final iterations.

 Cycle   1  Pass 0  IDiag  1:
 E= -764.215028877342    
 DIIS: error= 2.27D-02 at cycle   1 NSaved=   1.
 NSaved= 1 IEnMin= 1 EnMin= -764.215028877342     IErMin= 1 ErrMin= 2.27D-02
 ErrMax= 2.27D-02  0.00D+00 EMaxC= 1.00D-01 BMatC= 4.04D-01 BMatP= 4.04D-01
 IDIUse=3 WtCom= 7.73D-01 WtEn= 2.27D-01
 Coeff-Com:  0.100D+01
 Coeff-En:   0.100D+01
 Coeff:      0.100D+01
 Gap=     0.330 Goal=   None    Shift=    0.000
 GapD=    0.330 DampG=1.000 DampE=0.500 DampFc=0.5000 IDamp=-1.
 Damping current iteration by 5.00D-01
 RMSDP=2.95D-03 MaxDP=1.18D-01              OVMax= 3.65D-01

 Cycle   2  Pass 0  IDiag  1:
 E= -764.257072945298     Delta-E=       -0.042044067956 Rises=F Damp=T
 DIIS: error= 7.55D-03 at cycle   2 NSaved=   2.
 NSaved= 2 IEnMin= 2 EnMin= -764.257072945298     IErMin= 2 ErrMin= 7.55D-03
 ErrMax= 7.55D-03  0.00D+00 EMaxC= 1.00D-01 BMatC= 6.32D-02 BMatP= 4.04D-01
 IDIUse=3 WtCom= 9.25D-01 WtEn= 7.55D-02
 Coeff-Com:  0.156D+00 0.844D+00
 Coeff-En:   0.401D+00 0.599D+00
 Coeff:      0.175D+00 0.825D+00
 Gap=     0.321 Goal=   None    Shift=    0.000
 RMSDP=9.97D-04 MaxDP=2.67D-02 DE=-4.20D-02 OVMax= 2.61D-01

 Cycle   3  Pass 0  IDiag  1:
 E= -764.428309713066     Delta-E=       -0.171236767768 Rises=F Damp=F
 DIIS: error= 6.54D-03 at cycle   3 NSaved=   3.
 NSaved= 3 IEnMin= 3 EnMin= -764.428309713066     IErMin= 3 ErrMin= 6.54D-03
 ErrMax= 6.54D-03  0.00D+00 EMaxC= 1.00D-01 BMatC= 3.04D-02 BMatP= 6.32D-02
 IDIUse=3 WtCom= 9.35D-01 WtEn= 6.54D-02
 Coeff-Com: -0.387D-01 0.386D+00 0.653D+00
 Coeff-En:   0.000D+00 0.000D+00 0.100D+01
 Coeff:     -0.362D-01 0.361D+00 0.676D+00
 Gap=     0.267 Goal=   None    Shift=    0.000
 RMSDP=4.38D-04 MaxDP=2.33D-02 DE=-1.71D-01 OVMax= 6.04D-02

 Cycle   4  Pass 0  IDiag  1:
 E= -764.445995932314     Delta-E=       -0.017686219248 Rises=F Damp=F
 DIIS: error= 2.85D-03 at cycle   4 NSaved=   4.
 NSaved= 4 IEnMin= 4 EnMin= -764.445995932314     IErMin= 4 ErrMin= 2.85D-03
 ErrMax= 2.85D-03  0.00D+00 EMaxC= 1.00D-01 BMatC= 9.09D-03 BMatP= 3.04D-02
 IDIUse=3 WtCom= 9.72D-01 WtEn= 2.85D-02
 Coeff-Com: -0.556D-01 0.960D-01 0.396D+00 0.564D+00
 Coeff-En:   0.000D+00 0.000D+00 0.159D+00 0.841D+00
 Coeff:     -0.540D-01 0.932D-01 0.389D+00 0.572D+00
 Gap=     0.271 Goal=   None    Shift=    0.000
 RMSDP=1.63D-04 MaxDP=6.72D-03 DE=-1.77D-02 OVMax= 1.62D-02

 Cycle   5  Pass 0  IDiag  1:
 E= -764.451793090267     Delta-E=       -0.005797157953 Rises=F Damp=F
 DIIS: error= 3.22D-04 at cycle   5 NSaved=   5.
 NSaved= 5 IEnMin= 5 EnMin= -764.451793090267     IErMin= 5 ErrMin= 3.22D-04
 ErrMax= 3.22D-04  0.00D+00 EMaxC= 1.00D-01 BMatC= 1.24D-04 BMatP= 9.09D-03
 IDIUse=3 WtCom= 9.97D-01 WtEn= 3.22D-03
 Coeff-Com: -0.924D-02 0.737D-02 0.502D-01 0.129D+00 0.822D+00
 Coeff-En:   0.000D+00 0.000D+00 0.000D+00 0.000D+00 0.100D+01
 Coeff:     -0.921D-02 0.735D-02 0.500D-01 0.129D+00 0.823D+00
 Gap=     0.272 Goal=   None    Shift=    0.000
 RMSDP=5.36D-05 MaxDP=3.24D-03 DE=-5.80D-03 OVMax= 6.60D-03

 Cycle   6  Pass 0  IDiag  1:
 E= -764.451965190947     Delta-E=       -0.000172100679 Rises=F Damp=F
 DIIS: error= 1.98D-04 at cycle   6 NSaved=   6.
 NSaved= 6 IEnMin= 6 EnMin= -764.451965190947     IErMin= 6 ErrMin= 1.98D-04
 ErrMax= 1.98D-04  0.00D+00 EMaxC= 1.00D-01 BMatC= 3.20D-05 BMatP= 1.24D-04
 IDIUse=3 WtCom= 9.98D-01 WtEn= 1.98D-03
 Coeff-Com:  0.295D-02-0.880D-02-0.218D-01-0.212D-01 0.301D+00 0.748D+00
 Coeff-En:   0.000D+00 0.000D+00 0.000D+00 0.000D+00 0.000D+00 0.100D+01
 Coeff:      0.294D-02-0.878D-02-0.217D-01-0.211D-01 0.300D+00 0.748D+00
 Gap=     0.274 Goal=   None    Shift=    0.000
 RMSDP=2.42D-05 MaxDP=7.81D-04 DE=-1.72D-04 OVMax= 4.26D-03

 Cycle   7  Pass 0  IDiag  1:
 E= -764.452002288214     Delta-E=       -0.000037097267 Rises=F Damp=F
 DIIS: error= 1.08D-04 at cycle   7 NSaved=   7.
 NSaved= 7 IEnMin= 7 EnMin= -764.452002288214     IErMin= 7 ErrMin= 1.08D-04
 ErrMax= 1.08D-04  0.00D+00 EMaxC= 1.00D-01 BMatC= 1.21D-05 BMatP= 3.20D-05
 IDIUse=3 WtCom= 9.99D-01 WtEn= 1.08D-03
 Coeff-Com:  0.391D-02-0.702D-02-0.186D-01-0.371D-01-0.240D-02 0.409D+00
 Coeff-Com:  0.652D+00
 Coeff-En:   0.000D+00 0.000D+00 0.000D+00 0.000D+00 0.000D+00 0.000D+00
 Coeff-En:   0.100D+01
 Coeff:      0.390D-02-0.702D-02-0.186D-01-0.370D-01-0.239D-02 0.409D+00
 Coeff:      0.652D+00
 Gap=     0.274 Goal=   None    Shift=    0.000
 RMSDP=1.21D-05 MaxDP=5.26D-04 DE=-3.71D-05 OVMax= 2.05D-03

 Cycle   8  Pass 0  IDiag  1:
 E= -764.452014123090     Delta-E=       -0.000011834877 Rises=F Damp=F
 DIIS: error= 3.74D-05 at cycle   8 NSaved=   8.
 NSaved= 8 IEnMin= 8 EnMin= -764.452014123090     IErMin= 8 ErrMin= 3.74D-05
 ErrMax= 3.74D-05  0.00D+00 EMaxC= 1.00D-01 BMatC= 1.18D-06 BMatP= 1.21D-05
 IDIUse=1 WtCom= 1.00D+00 WtEn= 0.00D+00
 Coeff-Com:  0.776D-03-0.907D-03 0.119D-02-0.519D-02-0.569D-01-0.249D-02
 Coeff-Com:  0.199D+00 0.865D+00
 Coeff:      0.776D-03-0.907D-03 0.119D-02-0.519D-02-0.569D-01-0.249D-02
 Coeff:      0.199D+00 0.865D+00
 Gap=     0.274 Goal=   None    Shift=    0.000
 RMSDP=5.52D-06 MaxDP=2.04D-04 DE=-1.18D-05 OVMax= 8.97D-04

 Initial convergence to 1.0D-05 achieved.  Increase integral accuracy.
 Cycle   9  Pass 1  IDiag  1:
 E= -764.452057917979     Delta-E=       -0.000043794889 Rises=F Damp=F
 DIIS: error= 2.20D-05 at cycle   1 NSaved=   1.
 NSaved= 1 IEnMin= 1 EnMin= -764.452057917979     IErMin= 1 ErrMin= 2.20D-05
 ErrMax= 2.20D-05  0.00D+00 EMaxC= 1.00D-01 BMatC= 6.82D-07 BMatP= 6.82D-07
 IDIUse=1 WtCom= 1.00D+00 WtEn= 0.00D+00
 Coeff-Com:  0.100D+01
 Coeff:      0.100D+01
 Gap=     0.274 Goal=   None    Shift=    0.000
 RMSDP=5.52D-06 MaxDP=2.04D-04 DE=-4.38D-05 OVMax= 3.96D-04

 Cycle  10  Pass 1  IDiag  1:
 E= -764.452058463340     Delta-E=       -0.000000545362 Rises=F Damp=F
 DIIS: error= 1.47D-05 at cycle   2 NSaved=   2.
 NSaved= 2 IEnMin= 2 EnMin= -764.452058463340     IErMin= 2 ErrMin= 1.47D-05
 ErrMax= 1.47D-05  0.00D+00 EMaxC= 1.00D-01 BMatC= 2.23D-07 BMatP= 6.82D-07
 IDIUse=1 WtCom= 1.00D+00 WtEn= 0.00D+00
 Coeff-Com:  0.291D+00 0.709D+00
 Coeff:      0.291D+00 0.709D+00
 Gap=     0.274 Goal=   None    Shift=    0.000
 RMSDP=1.34D-06 MaxDP=7.01D-05 DE=-5.45D-07 OVMax= 1.25D-04

 Cycle  11  Pass 1  IDiag  1:
 E= -764.452058561212     Delta-E=       -0.000000097871 Rises=F Damp=F
 DIIS: error= 9.18D-06 at cycle   3 NSaved=   3.
 NSaved= 3 IEnMin= 3 EnMin= -764.452058561212     IErMin= 3 ErrMin= 9.18D-06
 ErrMax= 9.18D-06  0.00D+00 EMaxC= 1.00D-01 BMatC= 1.06D-07 BMatP= 2.23D-07
 IDIUse=1 WtCom= 1.00D+00 WtEn= 0.00D+00
 Coeff-Com: -0.439D-01 0.405D+00 0.639D+00
 Coeff:     -0.439D-01 0.405D+00 0.639D+00
 Gap=     0.274 Goal=   None    Shift=    0.000
 RMSDP=8.07D-07 MaxDP=3.06D-05 DE=-9.79D-08 OVMax= 1.11D-04

 Cycle  12  Pass 1  IDiag  1:
 E= -764.452058636871     Delta-E=       -0.000000075659 Rises=F Damp=F
 DIIS: error= 2.13D-06 at cycle   4 NSaved=   4.
 NSaved= 4 IEnMin= 4 EnMin= -764.452058636871     IErMin= 4 ErrMin= 2.13D-06
 ErrMax= 2.13D-06  0.00D+00 EMaxC= 1.00D-01 BMatC= 5.36D-09 BMatP= 1.06D-07
 IDIUse=1 WtCom= 1.00D+00 WtEn= 0.00D+00
 Coeff-Com: -0.314D-01 0.150D+00 0.283D+00 0.598D+00
 Coeff:     -0.314D-01 0.150D+00 0.283D+00 0.598D+00
 Gap=     0.274 Goal=   None    Shift=    0.000
 RMSDP=2.16D-07 MaxDP=7.95D-06 DE=-7.57D-08 OVMax= 3.71D-05

 Cycle  13  Pass 1  IDiag  1:
 E= -764.452058642524     Delta-E=       -0.000000005653 Rises=F Damp=F
 DIIS: error= 9.64D-07 at cycle   5 NSaved=   5.
 NSaved= 5 IEnMin= 5 EnMin= -764.452058642524     IErMin= 5 ErrMin= 9.64D-07
 ErrMax= 9.64D-07  0.00D+00 EMaxC= 1.00D-01 BMatC= 1.00D-09 BMatP= 5.36D-09
 IDIUse=1 WtCom= 1.00D+00 WtEn= 0.00D+00
 Coeff-Com:  0.752D-02-0.118D+00-0.170D+00 0.198D+00 0.108D+01
 Coeff:      0.752D-02-0.118D+00-0.170D+00 0.198D+00 0.108D+01
 Gap=     0.274 Goal=   None    Shift=    0.000
 RMSDP=2.59D-07 MaxDP=1.24D-05 DE=-5.65D-09 OVMax= 5.40D-05

 Cycle  14  Pass 1  IDiag  1:
 E= -764.452058645094     Delta-E=       -0.000000002570 Rises=F Damp=F
 DIIS: error= 2.44D-07 at cycle   6 NSaved=   6.
 NSaved= 6 IEnMin= 6 EnMin= -764.452058645094     IErMin= 6 ErrMin= 2.44D-07
 ErrMax= 2.44D-07  0.00D+00 EMaxC= 1.00D-01 BMatC= 7.85D-11 BMatP= 1.00D-09
 IDIUse=1 WtCom= 1.00D+00 WtEn= 0.00D+00
 Coeff-Com:  0.488D-02-0.495D-01-0.739D-01 0.149D-01 0.349D+00 0.754D+00
 Coeff:      0.488D-02-0.495D-01-0.739D-01 0.149D-01 0.349D+00 0.754D+00
 Gap=     0.274 Goal=   None    Shift=    0.000
 RMSDP=5.38D-08 MaxDP=2.09D-06 DE=-2.57D-09 OVMax= 1.17D-05

 Cycle  15  Pass 1  IDiag  1:
 E= -764.452058645186     Delta-E=       -0.000000000093 Rises=F Damp=F
 DIIS: error= 1.47D-07 at cycle   7 NSaved=   7.
 NSaved= 7 IEnMin= 7 EnMin= -764.452058645186     IErMin= 7 ErrMin= 1.47D-07
 ErrMax= 1.47D-07  0.00D+00 EMaxC= 1.00D-01 BMatC= 2.27D-11 BMatP= 7.85D-11
 IDIUse=1 WtCom= 1.00D+00 WtEn= 0.00D+00
 Coeff-Com:  0.757D-03-0.104D-02-0.146D-02-0.356D-01-0.517D-01 0.341D+00
 Coeff-Com:  0.748D+00
 Coeff:      0.757D-03-0.104D-02-0.146D-02-0.356D-01-0.517D-01 0.341D+00
 Coeff:      0.748D+00
 Gap=     0.274 Goal=   None    Shift=    0.000
 RMSDP=2.33D-08 MaxDP=7.85D-07 DE=-9.25D-11 OVMax= 4.26D-06

 Cycle  16  Pass 1  IDiag  1:
 E= -764.452058645260     Delta-E=       -0.000000000074 Rises=F Damp=F
 DIIS: error= 8.72D-08 at cycle   8 NSaved=   8.
 NSaved= 8 IEnMin= 8 EnMin= -764.452058645260     IErMin= 8 ErrMin= 8.72D-08
 ErrMax= 8.72D-08  0.00D+00 EMaxC= 1.00D-01 BMatC= 4.32D-12 BMatP= 2.27D-11
 IDIUse=1 WtCom= 1.00D+00 WtEn= 0.00D+00
 Coeff-Com: -0.298D-03 0.633D-02 0.965D-02-0.202D-01-0.723D-01 0.888D-01
 Coeff-Com:  0.405D+00 0.583D+00
 Coeff:     -0.298D-03 0.633D-02 0.965D-02-0.202D-01-0.723D-01 0.888D-01
 Coeff:      0.405D+00 0.583D+00
 Gap=     0.274 Goal=   None    Shift=    0.000
 RMSDP=6.55D-09 MaxDP=3.13D-07 DE=-7.37D-11 OVMax= 1.05D-06

 SCF Done:  E(RM062X) =  -764.452058645     A.U. after   16 cycles
            NFock= 16  Conv=0.65D-08     -V/T= 2.0036
 KE= 7.617402458581D+02 PE=-3.059261589686D+03 EE= 9.092469240677D+02
 Leave Link  502 at Sat May 24 05:06:01 2025, MaxMem=  3758096384 cpu:             116.1 elap:              29.7
 (Enter /apps/easybuild-2022/easybuild/software/Compiler/NVHPC/22.11-CUDA-11.7.0/Gaussian/g16c01-CUDA-11.7.0/g16/l508.exe)
 QCSCF skips out because SCF is already converged.
 Leave Link  508 at Sat May 24 05:06:01 2025, MaxMem=  3758096384 cpu:               0.1 elap:               0.0
 (Enter /apps/easybuild-2022/easybuild/software/Compiler/NVHPC/22.11-CUDA-11.7.0/Gaussian/g16c01-CUDA-11.7.0/g16/l801.exe)
 DoSCS=F DFT=T ScalE2(SS,OS)=  1.000000  1.000000
 Range of M.O.s used for correlation:     1   324
 NBasis=   324 NAE=    40 NBE=    40 NFC=     0 NFV=     0
 NROrb=    324 NOA=    40 NOB=    40 NVA=   284 NVB=   284

 **** Warning!!: The largest alpha MO coefficient is  0.14207922D+02

 Leave Link  801 at Sat May 24 05:06:01 2025, MaxMem=  3758096384 cpu:               0.1 elap:               0.0
 (Enter /apps/easybuild-2022/easybuild/software/Compiler/NVHPC/22.11-CUDA-11.7.0/Gaussian/g16c01-CUDA-11.7.0/g16/l1101.exe)
 Using compressed storage, NAtomX=    11.
 Will process     12 centers per pass.
   1 Symmetry operations used in ECPInt.
 ECPInt:  NShTT=    6786 NPrTT=   21959 LenC2=    6427 LenP2D=   15755.
 LDataN:  DoStor=T MaxTD1= 7 Len=  274
 Leave Link 1101 at Sat May 24 05:06:01 2025, MaxMem=  3758096384 cpu:               1.5 elap:               0.5
 (Enter /apps/easybuild-2022/easybuild/software/Compiler/NVHPC/22.11-CUDA-11.7.0/Gaussian/g16c01-CUDA-11.7.0/g16/l1102.exe)
 Symmetrizing basis deriv contribution to polar:
 IMax=3 JMax=2 DiffMx= 0.00D+00
 Leave Link 1102 at Sat May 24 05:06:01 2025, MaxMem=  3758096384 cpu:               0.2 elap:               0.1
 (Enter /apps/easybuild-2022/easybuild/software/Compiler/NVHPC/22.11-CUDA-11.7.0/Gaussian/g16c01-CUDA-11.7.0/g16/l1110.exe)
 Forming Gx(P) for the SCF density, NAtomX=    11.
 Integral derivatives from FoFJK, PRISM(SPDF).
 Do as many integral derivatives as possible in FoFJK.
 G2DrvN: MDV=    3758095115.
 G2DrvN: will do    12 centers at a time, making    1 passes.
 Calling FoFCou, ICntrl=  3107 FMM=F I1Cent=   0 AccDes= 0.00D+00.
 FoFJK:  IHMeth= 1 ICntrl=    3107 DoSepK=F KAlg= 0 I1Cent=           0 FoldK=F
 IRaf=         0 NMat=       1 IRICut=       1 DoRegI=T DoRafI=F ISym2E= 0 IDoP0=0 IntGTp=1.
 FoFCou: FMM=F IPFlag=           0 FMFlag=      100000 FMFlg1=           0
         NFxFlg=           0 DoJE=F BraDBF=F KetDBF=F FulRan=T
         wScrn=  0.000000 ICntrl=      3107 IOpCl=  0 I1Cent=           0 NGrid=           0
         NMat0=    1 NMatS0=      1 NMatT0=    0 NMatD0=    1 NMtDS0=    0 NMtDT0=    0
 Symmetry not used in FoFCou.
 End of G2Drv F.D. properties file   721 does not exist.
 End of G2Drv F.D. properties file   722 does not exist.
 End of G2Drv F.D. properties file   788 does not exist.
 Leave Link 1110 at Sat May 24 05:06:39 2025, MaxMem=  3758096384 cpu:             295.4 elap:              37.3
 (Enter /apps/easybuild-2022/easybuild/software/Compiler/NVHPC/22.11-CUDA-11.7.0/Gaussian/g16c01-CUDA-11.7.0/g16/l1002.exe)
 Minotr:  Closed shell wavefunction.
          IDoAtm=11111111111
          Direct CPHF calculation.
          Differentiating once with respect to electric field.
                with respect to dipole field.
          Differentiating once with respect to nuclear coordinates.
          Requested convergence is 1.0D-08 RMS, and 1.0D-07 maximum.
          Secondary convergence is 1.0D-12 RMS, and 1.0D-12 maximum.
          NewPWx=T KeepS1=F KeepF1=F KeepIn=T MapXYZ=F SortEE=F KeepMc=T.
         3307 words used for storage of precomputed grid.
 Keep R1 ints in memory in canonical form, NReq=1412622537.
 FoFCou: FMM=F IPFlag=           0 FMFlag=           0 FMFlg1=           0
         NFxFlg=           0 DoJE=F BraDBF=F KetDBF=F FulRan=T
         wScrn=  0.000000 ICntrl=       600 IOpCl=  0 I1Cent=           0 NGrid=           0
         NMat0=    1 NMatS0=  52650 NMatT0=    0 NMatD0=    1 NMtDS0=    0 NMtDT0=    0
 Symmetry not used in FoFCou.
 Two-electron integral symmetry not used.
          MDV=    3758096384 using IRadAn=       1.
          Solving linear equations simultaneously, MaxMat=       0.
          There are    36 degrees of freedom in the 1st order CPHF.  IDoFFX=6 NUNeed=     3.
     33 vectors produced by pass  0 Test12= 3.16D-14 2.78D-09 XBig12= 2.70D+01 2.88D+00.
 AX will form    33 AO Fock derivatives at one time.
     33 vectors produced by pass  1 Test12= 3.16D-14 2.78D-09 XBig12= 5.14D+00 2.75D-01.
     33 vectors produced by pass  2 Test12= 3.16D-14 2.78D-09 XBig12= 1.77D-01 5.93D-02.
     33 vectors produced by pass  3 Test12= 3.16D-14 2.78D-09 XBig12= 3.03D-03 7.93D-03.
     33 vectors produced by pass  4 Test12= 3.16D-14 2.78D-09 XBig12= 3.77D-05 9.67D-04.
     33 vectors produced by pass  5 Test12= 3.16D-14 2.78D-09 XBig12= 3.99D-07 1.18D-04.
     33 vectors produced by pass  6 Test12= 3.16D-14 2.78D-09 XBig12= 2.85D-09 6.73D-06.
     16 vectors produced by pass  7 Test12= 3.16D-14 2.78D-09 XBig12= 1.53D-11 5.12D-07.
      3 vectors produced by pass  8 Test12= 3.16D-14 2.78D-09 XBig12= 8.51D-14 4.17D-08.
 InvSVY:  IOpt=1 It=  1 EMax= 1.78D-15
 Solved reduced A of dimension   250 with    36 vectors.
 FullF1:  Do perturbations      1 to       3.
 Isotropic polarizability for W=    0.000000       51.57 Bohr**3.
 End of Minotr F.D. properties file   721 does not exist.
 End of Minotr F.D. properties file   722 does not exist.
 End of Minotr F.D. properties file   788 does not exist.
 Leave Link 1002 at Sat May 24 05:07:57 2025, MaxMem=  3758096384 cpu:             491.7 elap:              78.7
 (Enter /apps/easybuild-2022/easybuild/software/Compiler/NVHPC/22.11-CUDA-11.7.0/Gaussian/g16c01-CUDA-11.7.0/g16/l701.exe)
 ... and contract with generalized density number  0.
 Compute integral second derivatives.
   1 Symmetry operations used in ECPInt.
 ECPInt:  NShTT=    6786 NPrTT=   21959 LenC2=    6427 LenP2D=   15755.
 LDataN:  DoStor=T MaxTD1= 8 Len=  415
 Leave Link  701 at Sat May 24 05:07:58 2025, MaxMem=  3758096384 cpu:               0.9 elap:               0.2
 (Enter /apps/easybuild-2022/easybuild/software/Compiler/NVHPC/22.11-CUDA-11.7.0/Gaussian/g16c01-CUDA-11.7.0/g16/l702.exe)
 L702 exits ... SP integral derivatives will be done elsewhere.
 Leave Link  702 at Sat May 24 05:07:58 2025, MaxMem=  3758096384 cpu:               0.1 elap:               0.0
 (Enter /apps/easybuild-2022/easybuild/software/Compiler/NVHPC/22.11-CUDA-11.7.0/Gaussian/g16c01-CUDA-11.7.0/g16/l703.exe)
 Integral derivatives from FoFJK, PRISM(SPDF).
 Compute integral second derivatives, UseDBF=F ICtDFT=           0.
 Calling FoFJK, ICntrl=    100127 FMM=F ISym2X=0 I1Cent= 0 IOpClX= 0 NMat=1 NMatS=1 NMatT=0.
 FoFJK:  IHMeth= 1 ICntrl=  100127 DoSepK=F KAlg= 0 I1Cent=           0 FoldK=F
 IRaf=         0 NMat=       1 IRICut=       1 DoRegI=T DoRafI=F ISym2E= 0 IDoP0=0 IntGTp=1.
 FoFCou: FMM=F IPFlag=           0 FMFlag=      100000 FMFlg1=         800
         NFxFlg=           0 DoJE=F BraDBF=F KetDBF=F FulRan=T
         wScrn=  0.000000 ICntrl=    100127 IOpCl=  0 I1Cent=           0 NGrid=           0
         NMat0=    1 NMatS0=      1 NMatT0=    0 NMatD0=    1 NMtDS0=    0 NMtDT0=    0
 Symmetry not used in FoFCou.
 Leave Link  703 at Sat May 24 05:09:21 2025, MaxMem=  3758096384 cpu:             658.5 elap:              83.8
 (Enter /apps/easybuild-2022/easybuild/software/Compiler/NVHPC/22.11-CUDA-11.7.0/Gaussian/g16c01-CUDA-11.7.0/g16/l716.exe)
 Dipole        =-8.21283180D-01 1.06842586D+00 5.39285723D-01
 Polarizability= 5.86383073D+01-1.21326198D+01 5.81571233D+01
                -2.69097613D-01 1.64036322D+00 3.79047938D+01
 -------------------------------------------------------------------
 Center     Atomic                   Forces (Hartrees/Bohr)
 Number     Number              X              Y              Z
 -------------------------------------------------------------------
      1        6          -0.002510031   -0.018838276    0.006429006
      2        8          -0.005460286    0.010610991   -0.007529597
      3        6          -0.001309933   -0.007196185   -0.001055252
      4        6          -0.006144551   -0.008658594   -0.010584301
      5        9           0.001006481    0.000031777    0.001605460
      6        9           0.000222791    0.001622460    0.001388579
      7        9           0.003811369    0.004335799    0.007247125
      8        9          -0.001350337    0.002298942   -0.002674484
      9        9          -0.003011041    0.000623523    0.001694389
     10        8           0.013951030    0.009288151    0.009347993
     11        1           0.000794510    0.005881413   -0.005868918
 -------------------------------------------------------------------
 Cartesian Forces:  Max     0.018838276 RMS     0.006604802
 Force constants in Cartesian coordinates: 
                1             2             3             4             5 
      1  0.678402D+00
      2 -0.189003D+00  0.935311D+00
      3  0.407070D-01 -0.206700D-01  0.241919D+00
      4 -0.324654D+00  0.314376D+00 -0.368750D-01  0.323603D+00
      5  0.311092D+00 -0.562254D+00  0.548961D-01 -0.357154D+00  0.671233D+00
      6 -0.370296D-01  0.555402D-01 -0.847492D-01  0.456666D-01 -0.629098D-01
      7 -0.173753D+00 -0.986363D-02  0.503451D-01 -0.340341D-01  0.334885D-01
      8 -0.194615D-01 -0.440375D-01 -0.411209D-01  0.433735D-01 -0.226557D-01
      9 -0.343874D-01 -0.226199D-02 -0.805217D-01  0.246545D-02 -0.518870D-02
     10 -0.219175D-01  0.678225D-02 -0.644105D-02  0.865964D-02 -0.712462D-02
     11  0.431228D-01  0.167045D-01  0.358075D-01 -0.159634D-01  0.526125D-02
     12  0.362289D-02  0.328823D-02 -0.925945D-02 -0.301041D-02 -0.951016D-03
     13  0.254781D-02 -0.109538D-02 -0.842093D-03 -0.117727D-02  0.772854D-03
     14 -0.575838D-02 -0.873048D-03 -0.145849D-02  0.235348D-02 -0.756070D-03
     15  0.782159D-03 -0.501130D-03  0.192315D-02 -0.132374D-03  0.397413D-03
     16  0.179833D-01  0.354125D-02  0.162592D-01 -0.735520D-02  0.415780D-02
     17 -0.333544D-02 -0.294169D-02 -0.379961D-02  0.134459D-02 -0.527552D-04
     18 -0.467729D-02 -0.149411D-02 -0.380561D-02  0.193567D-02 -0.575677D-03
     19 -0.230377D-02 -0.607716D-02 -0.244999D-02  0.642161D-03  0.158954D-02
     20 -0.129621D-01 -0.538781D-02 -0.978929D-02  0.459733D-02 -0.123601D-02
     21 -0.137380D-01 -0.745230D-02 -0.110909D-01  0.506776D-02 -0.777525D-03
     22 -0.935241D-02  0.159114D-01 -0.397165D-01 -0.525755D-02  0.974309D-03
     23 -0.151206D-01 -0.198278D-01  0.171042D-01  0.804596D-02  0.131478D-02
     24  0.321201D-01  0.146271D-01  0.160471D-01 -0.899261D-02  0.234311D-02
     25 -0.231411D-01 -0.415446D-01 -0.339511D-01  0.266584D-02 -0.225967D-02
     26 -0.279509D-02 -0.199390D-01 -0.980487D-02 -0.196778D-02  0.843984D-02
     27  0.412884D-02 -0.168345D-01  0.150441D-02 -0.322203D-02  0.630928D-02
     28 -0.155340D+00 -0.887370D-01  0.240723D-01  0.367698D-01  0.174240D-01
     29 -0.122614D+00 -0.259506D+00  0.120494D-01  0.557103D-02 -0.967965D-01
     30  0.627660D-02 -0.248764D-01 -0.709984D-01 -0.255554D-02  0.145639D-02
     31  0.115290D-01 -0.429072D-02 -0.111078D-01  0.138119D-03 -0.296085D-02
     32  0.168350D-01 -0.372485D-01 -0.332139D-01 -0.457734D-02 -0.249751D-02
     33  0.219466D-02  0.634926D-03 -0.968736D-03 -0.347440D-03  0.500046D-02
                6             7             8             9            10 
      6  0.394821D-01
      7 -0.175990D-01  0.367725D+00
      8  0.138925D-01  0.121789D+00  0.288122D+00
      9  0.234802D-01  0.742958D-01  0.195576D+00  0.266104D+00
     10  0.230264D-02  0.140471D-01  0.548565D-02  0.138015D-01  0.499148D+00
     11 -0.102015D-01 -0.782738D-01  0.551643D-01 -0.423743D-01  0.176499D+00
     12  0.264227D-02  0.358614D-01 -0.970813D-01  0.471219D-01  0.142231D+00
     13  0.186800D-03  0.271400D-03 -0.817441D-02  0.490524D-02 -0.103800D+00
     14  0.475595D-03  0.443459D-02  0.423583D-02 -0.281431D-02  0.452864D-01
     15 -0.529112D-03 -0.361784D-02  0.101305D-01 -0.698110D-02 -0.249518D-01
     16 -0.440078D-02 -0.799983D-01  0.191674D-01 -0.967022D-02 -0.220749D+00
     17  0.119889D-02  0.180972D-01 -0.422726D-02 -0.148690D-02 -0.115570D+00
     18  0.935693D-03  0.157093D-01 -0.106469D-02  0.451912D-02  0.271152D-01
     19  0.403082D-03  0.778879D-02  0.843693D-02  0.115571D-02 -0.146123D+00
     20  0.297440D-02  0.187922D-01 -0.434990D-01 -0.829427D-02 -0.623170D-01
     21  0.310686D-02  0.183703D-01 -0.337567D-01 -0.746848D-03 -0.138545D+00
     22  0.704602D-02  0.126767D-01 -0.661653D-01  0.261632D-01 -0.252726D-01
     23 -0.247747D-02  0.176236D-01  0.203590D-01  0.600918D-02 -0.273676D-01
     24 -0.429597D-02 -0.890086D-01  0.104199D+00 -0.115893D+00  0.126162D-01
     25  0.622437D-02 -0.940336D-01 -0.688349D-01 -0.790764D-01 -0.557711D-02
     26  0.210840D-02 -0.103435D+00 -0.236335D+00 -0.149581D+00 -0.224889D-01
     27 -0.953234D-03 -0.769311D-01 -0.158045D+00 -0.157477D+00 -0.274393D-01
     28 -0.178985D-02 -0.147586D-01 -0.337689D-01 -0.255527D-02  0.694377D-02
     29 -0.315362D-02 -0.228112D-01 -0.171115D-01  0.106169D-01  0.277822D-02
     30  0.218578D-01 -0.672877D-02  0.797079D-02  0.192471D-01  0.153082D-02
     31 -0.101024D-02 -0.593214D-02 -0.184720D-02  0.290242D-02 -0.535857D-02
     32  0.255234D-02  0.158767D-03 -0.146790D-04 -0.200124D-03 -0.196391D-02
     33 -0.977381D-03 -0.696646D-03 -0.699696D-03  0.114742D-02 -0.221992D-02
               11            12            13            14            15 
     11  0.434487D+00
     12 -0.859925D-02  0.422518D+00
     13  0.610830D-01 -0.456716D-01  0.146954D+00
     14 -0.210357D+00  0.804718D-01 -0.105651D+00  0.336177D+00
     15  0.497269D-01 -0.101124D+00  0.481915D-01 -0.105553D+00  0.151660D+00
     16 -0.176494D+00  0.349353D-01  0.119169D-01 -0.128694D-01  0.421329D-02
     17 -0.176007D+00  0.203885D-01 -0.373757D-01 -0.881979D-01  0.379542D-01
     18  0.358457D-01 -0.869574D-01  0.138365D-01  0.366163D-01  0.712645D-02
     19 -0.277315D-01 -0.981513D-01 -0.221485D-01  0.219582D-01 -0.578702D-01
     20 -0.715076D-01 -0.729876D-01  0.339720D-01  0.236924D-03  0.451475D-01
     21 -0.273494D-01 -0.263611D+00 -0.505591D-01  0.227858D-01 -0.488578D-01
     22  0.288097D-01 -0.671319D-01 -0.357299D-01  0.494235D-01  0.333179D-01
     23 -0.435196D-01  0.724776D-01  0.527117D-01 -0.391764D-01 -0.365481D-01
     24 -0.461599D-01 -0.198934D-02  0.285125D-01 -0.295924D-01 -0.450924D-02
     25  0.566592D-02  0.564286D-02  0.141507D-02 -0.109619D-02 -0.750606D-03
     26  0.692699D-02  0.265005D-02  0.353772D-02 -0.245476D-02 -0.587503D-03
     27  0.193703D-01 -0.118135D-01  0.146870D-02 -0.155080D-02  0.182050D-02
     28 -0.979125D-02 -0.331333D-02 -0.102724D-02  0.203447D-02 -0.109136D-04
     29 -0.240828D-01 -0.102866D-02 -0.541785D-04  0.242338D-02 -0.250967D-03
     30 -0.788280D-02 -0.408927D-02 -0.102416D-03  0.724230D-03  0.402209D-03
     31 -0.692619D-02 -0.501515D-02  0.776773D-03 -0.115215D-03  0.828926D-03
     32  0.693025D-02  0.137172D-02  0.273960D-03 -0.125708D-02  0.844464D-04
     33  0.181671D-02  0.656207D-02  0.739258D-04 -0.104456D-03 -0.931097D-03
               16            17            18            19            20 
     16  0.295353D+00
     17  0.175396D+00  0.264217D+00
     18 -0.310801D-01 -0.467748D-01  0.676099D-01
     19 -0.285251D-01 -0.340724D-01 -0.322664D-01  0.183185D+00
     20 -0.154029D-01 -0.721414D-02 -0.216560D-01  0.327666D-01  0.119976D+00
     21 -0.591975D-02 -0.136579D-01  0.389959D-02  0.182493D+00  0.674264D-01
     22  0.734140D-02 -0.610424D-02  0.854982D-02  0.680993D-02 -0.701932D-02
     23 -0.146308D-02  0.799682D-02 -0.841826D-03 -0.238146D-02  0.108725D-01
     24 -0.124484D-01  0.167370D-02  0.777448D-02  0.800919D-03  0.888258D-02
     25  0.844237D-02 -0.609117D-04 -0.151557D-02 -0.552423D-03  0.111678D-02
     26  0.895216D-02  0.439851D-02 -0.144214D-02  0.207739D-02 -0.817116D-02
     27  0.109059D-01  0.396851D-02 -0.178201D-02  0.397307D-02 -0.129475D-01
     28 -0.394006D-02  0.493510D-03  0.150747D-02 -0.924928D-03  0.325516D-02
     29 -0.636887D-02  0.280087D-02  0.203529D-02  0.346521D-02  0.774424D-02
     30 -0.325507D-02  0.760134D-03  0.141774D-02  0.172449D-02  0.254648D-02
     31 -0.468913D-03  0.118671D-02  0.885410D-03  0.215192D-02  0.320115D-02
     32  0.138369D-02 -0.771751D-03 -0.648000D-03 -0.313327D-04 -0.181369D-02
     33  0.460643D-03 -0.224612D-03 -0.737938D-03  0.187363D-03 -0.130279D-02
               21            22            23            24            25 
     21  0.315599D+00
     22 -0.642146D-02  0.520983D-01
     23 -0.432172D-02 -0.217804D-01  0.107914D+00
     24  0.127718D-01  0.352910D-01 -0.513908D-01  0.513674D-01
     25  0.115254D-03  0.354908D-02 -0.126108D-01  0.127021D-01  0.119095D+00
     26 -0.923020D-02 -0.161471D-02 -0.550564D-01  0.102588D-01  0.122089D+00
     27 -0.111920D-01  0.136063D-02  0.239286D-02  0.423286D-01  0.878545D-01
     28  0.420355D-02 -0.800430D-02  0.136977D-03 -0.766062D-02 -0.131120D-01
     29  0.848489D-02  0.751224D-02  0.114477D-01 -0.176363D-01 -0.338593D-02
     30  0.368575D-02 -0.251048D-04 -0.346719D-02 -0.184479D-02  0.124120D-02
     31  0.493367D-02  0.114122D-02  0.220564D-02 -0.393262D-02  0.124901D-02
     32 -0.215139D-02  0.527352D-04 -0.232479D-02  0.279505D-02  0.920730D-03
     33 -0.356497D-02  0.156644D-02  0.106332D-02 -0.175716D-02  0.151348D-02
               26            27            28            29            30 
     26  0.301081D+00
     27  0.156227D+00  0.137187D+00
     28 -0.589989D-02 -0.332895D-02  0.257305D+00
     29  0.702212D-03  0.216719D-03  0.383954D-01  0.510859D+00
     30 -0.151366D-02 -0.561876D-03 -0.172010D+00  0.194657D+00  0.326144D+00
     31  0.154469D-02  0.122975D-02 -0.103911D+00  0.975120D-01  0.173904D+00
     32  0.407887D-03  0.893140D-03  0.764577D-01 -0.138481D+00 -0.170375D+00
     33  0.915139D-03  0.939304D-03  0.160886D+00 -0.205991D+00 -0.295261D+00
               31            32            33 
     31  0.986842D-01
     32 -0.895100D-01  0.177071D+00
     33 -0.163618D+00  0.198892D+00  0.295549D+00
 FormGI is forming the generalized inverse of G from B-inverse, IUseBI=4.
 Force constants in internal coordinates: 
                1             2             3             4             5 
      1  0.901495D+00
      2  0.461775D-01  0.287062D+00
      3  0.803530D-01  0.325955D-01  0.459345D+00
      4 -0.125514D-02  0.497562D-02  0.401241D-02  0.190038D-01
      5  0.842533D-02  0.193637D-01  0.286768D-02  0.373557D-01  0.459700D+00
      6  0.230043D-02 -0.224519D-02  0.140699D-02 -0.186582D-02  0.426915D-02
      7  0.570398D-02 -0.463116D-02  0.361420D-02  0.240685D-01  0.158506D-01
      8  0.346749D-02 -0.359639D-03  0.116232D-01  0.296473D-01  0.121152D-01
      9  0.199047D-02 -0.159143D-02  0.643692D-02  0.111204D+00  0.813730D-02
     10 -0.447117D-02 -0.374215D-02  0.723143D-02  0.249999D-03 -0.951176D-03
     11  0.198968D-01 -0.721761D-02 -0.498646D-01  0.710184D-02 -0.100803D-01
     12  0.223401D-01 -0.384734D-01  0.246707D-01 -0.562748D-02 -0.371896D-02
     13 -0.415587D-01  0.459226D-01  0.257467D-01 -0.384149D-03  0.140853D-01
     14  0.133549D-01  0.508843D-01 -0.400028D-02  0.468590D-01 -0.216101D-01
     15 -0.148504D-01  0.322797D-01  0.943267D-02  0.294885D-02  0.354253D-01
     16 -0.530534D-03 -0.209622D-01 -0.266966D-02  0.112851D-01  0.163535D-01
     17 -0.505903D-02  0.333618D-02 -0.437759D-02 -0.162819D-01 -0.868072D-02
     18 -0.380705D-02  0.105423D-02 -0.583121D-02 -0.170436D-01 -0.102233D-01
     19 -0.281339D-02  0.321978D-02 -0.388185D-02 -0.483505D-01 -0.317120D-02
     20 -0.231308D-02 -0.102381D-02 -0.185535D-02 -0.886124D-02 -0.549436D-02
     21  0.584072D-02 -0.463043D-02  0.863947D-02  0.277099D-01  0.186035D-02
     22  0.466362D-02  0.686960D-03  0.299730D-02  0.361950D-01  0.193857D-01
     23 -0.140452D-01  0.226233D-01 -0.217067D-01 -0.110611D+00 -0.330454D-01
     24  0.429389D-02  0.550671D-02  0.538415D-01  0.622767D-03 -0.313414D-02
     25  0.294988D-02 -0.566662D-02  0.570396D-02 -0.124701D-01 -0.829630D-02
     26  0.300017D-02  0.889884D-02  0.446811D-02  0.251689D-01  0.140371D-01
     27 -0.424691D-02 -0.522010D-02 -0.139765D-02 -0.215715D-01 -0.106798D-01
     28 -0.419662D-02  0.934536D-02 -0.263350D-02  0.160674D-01  0.116536D-01
     29 -0.429007D-02  0.272483D-02 -0.944576D-02 -0.368289D-02 -0.309132D-02
     30  0.276955D-02  0.503532D-02 -0.805742D-02  0.678621D-02 -0.107467D-02
     31 -0.748025D-02  0.162948D-01  0.252538D-02  0.149484D-01  0.262248D-01
     32  0.418577D-02 -0.289898D-01 -0.531931D-02 -0.933671D-02 -0.110915D-01
     33 -0.842806D-03  0.447457D-03 -0.155689D-02 -0.634874D-03  0.507880D-02
     34 -0.676099D-02  0.487113D-02 -0.671761D-02 -0.371959D-01 -0.578508D-02
     35  0.410468D-02 -0.269123D-02  0.664823D-02  0.381861D-01  0.144979D-01
                6             7             8             9            10 
      6  0.431365D+00
      7  0.623231D-01  0.461870D+00
      8  0.632076D-01  0.347189D-01  0.458104D+00
      9  0.627662D-01  0.240724D-01  0.244480D-01  0.757989D-01
     10 -0.135822D-03 -0.443594D-03 -0.600290D-02  0.218203D-03  0.523540D+00
     11  0.194901D-02  0.282061D-02  0.968289D-03 -0.947898D-04  0.285095D-02
     12 -0.152077D-02 -0.301241D-02 -0.981031D-02 -0.235885D-02  0.344915D-02
     13 -0.578309D-03 -0.149516D-03  0.879881D-02  0.202993D-02 -0.665734D-02
     14 -0.836655D-03 -0.438814D-02 -0.369980D-02 -0.113067D-01 -0.247712D-02
     15  0.482471D-03 -0.117752D-02 -0.117581D-01 -0.940481D-02  0.656745D-03
     16 -0.588546D-03 -0.334559D-02 -0.148249D-03 -0.362239D-02  0.121328D-02
     17  0.456801D-01  0.569294D-01 -0.629149D-02 -0.501991D-01  0.148138D-02
     18  0.456418D-01 -0.616247D-02  0.589811D-01 -0.539981D-01  0.311810D-02
     19  0.228114D-01 -0.296366D-01 -0.326303D-01  0.989525D-01 -0.746695D-04
     20 -0.140682D-01  0.270893D-01  0.264505D-01 -0.119965D-01  0.256813D-02
     21 -0.296277D-01 -0.463522D-02 -0.433978D-01  0.138202D-01 -0.221669D-02
     22 -0.325789D-01 -0.410723D-01 -0.227396D-02  0.837813D-02 -0.379374D-02
     23  0.161634D-01  0.128499D+00  0.147717D+00  0.293212D+00  0.410396D-02
     24 -0.257269D-02 -0.113320D-02  0.390373D-02  0.872126D-03  0.262198D-01
     25  0.436390D-03  0.182394D-02  0.209566D-02  0.459735D-02 -0.157982D-02
     26 -0.462401D-03 -0.469396D-02 -0.470738D-02 -0.904966D-02 -0.116210D-02
     27  0.187799D-02  0.505326D-02  0.314084D-02  0.847030D-02  0.135860D-02
     28  0.979197D-03 -0.146465D-02 -0.366219D-02 -0.517671D-02  0.177632D-02
     29  0.599315D-03  0.128906D-02  0.287998D-02  0.461916D-02  0.307466D-03
     30 -0.613529D-03 -0.158092D-02  0.271988D-02  0.800929D-03 -0.281773D-02
     31  0.168034D-02 -0.663268D-02 -0.139188D-01 -0.105544D-01  0.261074D-02
     32  0.167915D-02 -0.248878D-02  0.299776D-03  0.514838D-02  0.230699D-02
     33  0.135492D-02 -0.409589D-01  0.413839D-01  0.747089D-03  0.664134D-03
     34  0.578237D-01  0.708999D-02  0.103961D-01 -0.428738D-02  0.186464D-02
     35 -0.567589D-01 -0.887489D-02 -0.751175D-02  0.581806D-02 -0.207167D-02
               11            12            13            14            15 
     11  0.144020D+00
     12 -0.726757D-01  0.190228D+00
     13 -0.713345D-01 -0.117929D+00  0.190216D+00
     14 -0.574805D-02 -0.303393D-01  0.364385D-01  0.251179D+00
     15 -0.492014D-02 -0.152601D-02  0.725965D-02 -0.569033D-01  0.131462D+00
     16  0.677741D-02  0.117086D-01 -0.187481D-01 -0.695655D-01 -0.354886D-01
     17 -0.234357D-02  0.376970D-02 -0.119449D-02  0.353151D-02  0.155697D-02
     18 -0.695227D-03  0.564234D-02 -0.487912D-02  0.164832D-02  0.632281D-02
     19 -0.123519D-02  0.109556D-02  0.483029D-03  0.736529D-02  0.431977D-02
     20  0.112323D-02  0.368064D-02 -0.488012D-02 -0.178290D-03  0.481855D-02
     21  0.454074D-02 -0.643603D-02  0.138467D-02 -0.468269D-02  0.579044D-03
     22 -0.290800D-02 -0.489821D-02  0.797558D-02 -0.340508D-02 -0.142046D-01
     23 -0.137990D-01  0.889395D-02  0.630756D-02  0.324593D-01  0.832418D-02
     24 -0.974928D-02  0.130572D-01 -0.394074D-02  0.124778D-02 -0.288945D-02
     25 -0.103913D-01  0.412082D-02  0.875915D-02 -0.391444D-02  0.118234D-01
     26 -0.749349D-02  0.173108D-02  0.845690D-02  0.190243D-01 -0.400611D-02
     27 -0.387511D-02 -0.615228D-02  0.740280D-02 -0.504106D-02  0.472915D-02
     28 -0.977295D-03 -0.854202D-02  0.710055D-02  0.178977D-01 -0.111003D-01
     29 -0.629470D-02  0.104283D-02  0.269735D-02  0.100537D-02 -0.641261D-02
     30  0.432676D-02 -0.103628D-01  0.881573D-02  0.435602D-02  0.695126D-03
     31  0.220346D-02  0.122515D-02 -0.311890D-02 -0.635049D-02  0.559860D-01
     32  0.700483D-02  0.917607D-02 -0.167835D-01 -0.680964D-02 -0.535984D-01
     33 -0.116096D-02  0.123826D-02  0.294702D-04 -0.952440D-04 -0.233335D-02
     34 -0.352825D-02  0.477259D-02 -0.807124D-03  0.655852D-02  0.161475D-02
     35  0.927383D-03 -0.480622D-02  0.368167D-02 -0.536374D-02 -0.900721D-02
               16            17            18            19            20 
     16  0.894459D-01
     17  0.109646D-02  0.208227D+00
     18  0.146930D-02  0.274592D-02  0.211052D+00
     19  0.489647D-02 -0.110613D+00 -0.119588D+00  0.338112D+00
     20 -0.959908D-04  0.161747D-01  0.179208D-01 -0.597654D-01  0.128653D+00
     21 -0.364676D-02 -0.503734D-01 -0.374565D-01  0.475174D-02 -0.636780D-01
     22 -0.116324D-02 -0.409556D-01 -0.559916D-01  0.478423D-02 -0.648233D-01
     23  0.171925D-01 -0.122714D+00 -0.126215D+00 -0.131410D+00 -0.409209D-01
     24 -0.448972D-03  0.693487D-03 -0.353779D-03  0.936095D-03 -0.363110D-03
     25 -0.296140D-01 -0.431749D-03 -0.155289D-02 -0.386783D-02 -0.221871D-05
     26  0.237522D-01  0.322960D-02  0.352919D-02  0.719933D-02  0.175644D-02
     27 -0.280135D-01 -0.274364D-02 -0.253420D-02 -0.696825D-02  0.434832D-03
     28  0.253527D-01  0.917715D-03  0.254789D-02  0.409891D-02  0.219349D-02
     29  0.757513D-03 -0.124866D-02 -0.132292D-02 -0.263147D-02  0.506370D-03
     30 -0.139303D-02  0.641425D-03 -0.847364D-03  0.392811D-03 -0.178721D-03
     31 -0.140461D-01  0.865991D-02  0.563951D-02  0.474792D-02  0.751636D-02
     32  0.149152D-01  0.527669D-02 -0.242224D-02 -0.448890D-02  0.235398D-02
     33  0.138228D-04 -0.652388D-01  0.620961D-01  0.208544D-02 -0.221907D-02
     34  0.294524D-02  0.103215D+00 -0.150293D-03  0.447922D-01 -0.252069D-01
     35 -0.414561D-02  0.161686D-02 -0.101317D+00 -0.499094D-01  0.239962D-01
               21            22            23            24            25 
     21  0.147654D+00
     22 -0.190818D-01  0.155374D+00
     23  0.146319D+00  0.155800D+00  0.197453D+00
     24 -0.228288D-03 -0.192352D-03  0.773934D-02  0.158744D+00
     25  0.168995D-02  0.217435D-02 -0.150698D-01 -0.210744D-03  0.277789D-01
     26 -0.460741D-02 -0.664013D-02  0.243156D-01 -0.127481D-02 -0.336685D-02
     27  0.665373D-02  0.979856D-03 -0.281344D-01  0.435028D-02  0.554676D-02
     28  0.356372D-03 -0.783463D-02  0.112509D-01  0.328621D-02 -0.255990D-01
     29  0.417717D-02 -0.127184D-02 -0.911296D-02  0.402655D-02 -0.104000D-01
     30 -0.622321D-04  0.166428D-03  0.259903D-02 -0.258225D-02  0.114912D-01
     31 -0.157452D-01 -0.553633D-02  0.983682D-02 -0.359417D-02  0.120217D-02
     32 -0.132985D-01  0.116420D-01 -0.174723D-01 -0.709232D-03  0.113631D-02
     33 -0.494578D-01  0.515099D-01 -0.538872D-02 -0.833250D-04  0.837694D-03
     34 -0.757672D-01  0.470934D-02 -0.178895D+00  0.110285D-02 -0.121571D-02
     35 -0.525238D-02  0.805285D-01  0.179577D+00 -0.158439D-03  0.431042D-02
               26            27            28            29            30 
     26  0.318020D-01
     27 -0.272098D-01  0.289330D-01
     28  0.795901D-02 -0.382362D-02  0.297344D-01
     29 -0.116327D-01  0.118622D-01  0.106295D-01  0.905984D-02
     30  0.123584D-01 -0.121480D-01 -0.112808D-01 -0.145940D-01  0.111423D-01
     31  0.464999D-02 -0.156951D-02  0.187831D-02 -0.500699D-02 -0.206998D-02
     32 -0.694040D-02  0.589580D-02 -0.218091D-02  0.134591D-02 -0.384290D-02
     33 -0.142429D-03 -0.195627D-03 -0.117575D-02 -0.926340D-03 -0.516359D-04
     34  0.610831D-02 -0.541237D-02  0.191165D-02 -0.282361D-02  0.842405D-03
     35 -0.679660D-02  0.637184D-02 -0.473518D-02  0.231493D-02  0.665155D-03
               31            32            33            34            35 
     31  0.516291D-01
     32 -0.182594D-02  0.533752D-01
     33  0.822820D-02  0.108054D-01  0.811743D-01
     34  0.172574D-01  0.120173D-01  0.381498D-03  0.123041D+00
     35  0.290759D-03  0.136437D-01 -0.179066D-02 -0.253154D-01  0.125096D+00
 Leave Link  716 at Sat May 24 05:09:21 2025, MaxMem=  3758096384 cpu:               0.1 elap:               0.0
 (Enter /apps/easybuild-2022/easybuild/software/Compiler/NVHPC/22.11-CUDA-11.7.0/Gaussian/g16c01-CUDA-11.7.0/g16/l103.exe)

 GradGradGradGradGradGradGradGradGradGradGradGradGradGradGradGradGradGrad
 Berny optimization.
 Red2BG is reusing G-inverse.
 Internal  Forces:  Max     0.019680203 RMS     0.006233316
 Search for a saddle point.
 Step number   1 out of a maximum of  100
 All quantities printed in internal units (Hartrees-Bohrs-Radians)
 Swapping is turned off.
 Second derivative matrix not updated -- analytic derivatives used.
 ITU=  0
     Eigenvalues ---   -0.41856  -0.00662   0.00274   0.01090   0.04275
     Eigenvalues ---    0.05898   0.06618   0.08146   0.11930   0.14719
     Eigenvalues ---    0.16884   0.17772   0.20301   0.21001   0.24401
     Eigenvalues ---    0.26001   0.29818   0.32921   0.40363   0.46377
     Eigenvalues ---    0.47309   0.49182   0.49980   0.52807   0.62990
     Eigenvalues ---    0.78238   0.92412
 Eigenvectors required to have negative eigenvalues:
                          A13       R9        R4        A9        D10
   1                   -0.62873   0.46807  -0.39537  -0.20295  -0.18233
                          D11       A12       A11       R8        R7
   1                    0.17608   0.16560   0.14909   0.11709   0.09847
 Eigenvalue     2 is  -6.62D-03 should be greater than     0.000000 Eigenvector:
                          D5        D6        D7        D11       R4
   1                   -0.70125  -0.68181  -0.08181   0.07719   0.06752
                          D9        A11       A12       D10       D4
   1                    0.06187   0.06129  -0.05688   0.05613  -0.05105
 RFO step:  Lambda0=3.778258320D-05 Lambda=-1.18997885D-02.
 Linear search not attempted -- option 19 set.
 Iteration  1 RMS(Cart)=  0.08632849 RMS(Int)=  0.11368513
 Iteration  2 RMS(Cart)=  0.04942277 RMS(Int)=  0.06587635
 Iteration  3 RMS(Cart)=  0.04985995 RMS(Int)=  0.01869572
 Iteration  4 RMS(Cart)=  0.01901360 RMS(Int)=  0.00087509
 Iteration  5 RMS(Cart)=  0.00084176 RMS(Int)=  0.00024831
 Iteration  6 RMS(Cart)=  0.00000117 RMS(Int)=  0.00024831
 Iteration  7 RMS(Cart)=  0.00000000 RMS(Int)=  0.00024831
 ITry= 1 IFail=0 DXMaxC= 5.89D-01 DCOld= 1.00D+10 DXMaxT= 3.00D-01 DXLimC= 3.00D+00 Rises=F
 Variable       Old X    -DE/DX   Delta X   Delta X   Delta X     New X
                                 (Linear)    (Quad)   (Total)
    R1        2.26015  -0.01259   0.00000  -0.01389  -0.01389   2.24625
    R2        2.83237   0.00677   0.00000   0.03111   0.03111   2.86348
    R3        2.52740   0.01968   0.00000  -0.00354  -0.00354   2.52386
    R4        3.07463   0.00205   0.00000   0.10139   0.10139   3.17602
    R5        2.48098  -0.00028   0.00000  -0.01858  -0.01858   2.46240
    R6        2.50714  -0.00095   0.00000   0.01306   0.01306   2.52020
    R7        2.45740  -0.00099   0.00000   0.00396   0.00396   2.46136
    R8        2.45806   0.00902   0.00000   0.03318   0.03318   2.49125
    R9        3.10176  -0.00016   0.00000  -0.04398  -0.04398   3.05778
   R10        1.82673  -0.00186   0.00000  -0.00723  -0.00723   1.81950
    A1        2.12806  -0.00644   0.00000  -0.02923  -0.02984   2.09821
    A2        2.18175  -0.00872   0.00000  -0.03212  -0.03274   2.14901
    A3        1.96664   0.01560   0.00000   0.06832   0.06770   2.03435
    A4        1.82225   0.00536   0.00000  -0.01140  -0.01149   1.81076
    A5        1.94265   0.00324   0.00000  -0.01374  -0.01385   1.92880
    A6        1.77626  -0.00311   0.00000  -0.00847  -0.00865   1.76760
    A7        1.85208  -0.00048   0.00000  -0.02097  -0.02139   1.83068
    A8        1.84486  -0.00319   0.00000  -0.02378  -0.02425   1.82061
    A9        1.60260   0.00043   0.00000   0.00402   0.00360   1.60620
   A10        2.04298  -0.00137   0.00000   0.00036   0.00017   2.04315
   A11        1.99546   0.00348   0.00000   0.07835   0.07811   2.07357
   A12        2.04714   0.00033   0.00000  -0.05026  -0.05050   1.99664
   A13        1.34213  -0.00305   0.00000  -0.03473  -0.03473   1.30739
   A14        1.87587   0.01205   0.00000   0.07988   0.07988   1.95574
    D1       -2.62756   0.00314   0.00000   0.07475   0.07474  -2.55283
    D2       -0.72440   0.00357   0.00000   0.05373   0.05386  -0.67054
    D3        0.63265  -0.00030   0.00000   0.01545   0.01532   0.64797
    D4        2.53582   0.00014   0.00000  -0.00557  -0.00555   2.53026
    D5       -2.09387  -0.00605   0.00000  -0.71088  -0.71079  -2.80467
    D6        0.92479  -0.00223   0.00000  -0.64888  -0.64896   0.27583
    D7       -2.21988   0.00012   0.00000  -0.08089  -0.08084  -2.30071
    D8        2.04054  -0.00413   0.00000  -0.05855  -0.05860   1.98194
    D9        3.14022  -0.00113   0.00000   0.05120   0.05126  -3.09171
   D10       -1.24730  -0.00081   0.00000   0.04438   0.04465  -1.20264
   D11        1.24252   0.00221   0.00000   0.08666   0.08634   1.32886
         Item               Value     Threshold  Converged?
 Maximum Force            0.019680     0.000450     NO 
 RMS     Force            0.006233     0.000300     NO 
 Maximum Displacement     0.589045     0.001800     NO 
 RMS     Displacement     0.152267     0.001200     NO 
 Predicted change in Energy=-1.168867D-02
 Lowest energy point so far.  Saving SCF results.
 GradGradGradGradGradGradGradGradGradGradGradGradGradGradGradGradGradGrad

 Leave Link  103 at Sat May 24 05:09:22 2025, MaxMem=  3758096384 cpu:               0.2 elap:               0.1
 (Enter /apps/easybuild-2022/easybuild/software/Compiler/NVHPC/22.11-CUDA-11.7.0/Gaussian/g16c01-CUDA-11.7.0/g16/l202.exe)
                          Input orientation:                          
 ---------------------------------------------------------------------
 Center     Atomic      Atomic             Coordinates (Angstroms)
 Number     Number       Type             X           Y           Z
 ---------------------------------------------------------------------
      1          6           0        1.518372   -0.037963    0.073015
      2          8           0        2.083060   -1.083866    0.084982
      3          6           0        0.004091    0.010920    0.047450
      4          6           0       -1.266338    1.511437    0.449009
      5          9           0       -1.827535    2.633811   -0.002556
      6          9           0       -2.257344    0.680519    0.603856
      7          9           0       -0.620815    1.884387    1.536277
      8          9           0       -0.336014    1.378594   -0.868229
      9          9           0       -0.470340   -0.931835   -0.716785
     10          8           0        2.152469    1.134851    0.151594
     11          1           0        1.564058    1.846427    0.424524
 ---------------------------------------------------------------------
                    Distance matrix (angstroms):
                    1          2          3          4          5
     1  C    0.000000
     2  O    1.188667   0.000000
     3  C    1.515286   2.349910   0.000000
     4  C    3.208835   4.252832   2.006686   0.000000
     5  F    4.282427   5.396438   3.199517   1.333633   0.000000
     6  F    3.879954   4.713957   2.423229   1.302496   2.089933
     7  F    3.226869   4.269393   2.473255   1.318311   2.094234
     8  F    2.516211   3.581094   1.680675   1.618105   2.132978
     9  F    2.319001   2.680633   1.303045   2.821749   3.881486
    10  O    1.335570   2.220802   2.426849   3.452320   4.255711
    11  H    1.917438   2.995207   2.438189   2.850255   3.507887
                    6          7          8          9         10
     6  F    0.000000
     7  F    2.235383   0.000000
     8  F    2.519097   2.473577   0.000000
     9  F    2.745389   3.609714   2.319280   0.000000
    10  O    4.456166   3.189084   2.700369   3.450276   0.000000
    11  H    3.999327   2.451755   2.345282   3.627685   0.962839
                   11
    11  H    0.000000
 Symmetry turned off by external request.
 Stoichiometry    C3HF5O2
 Rotational constants (GHZ):           2.3381462           0.9819300           0.8349803
 Leave Link  202 at Sat May 24 05:09:22 2025, MaxMem=  3758096384 cpu:               0.0 elap:               0.0
 (Enter /apps/easybuild-2022/easybuild/software/Compiler/NVHPC/22.11-CUDA-11.7.0/Gaussian/g16c01-CUDA-11.7.0/g16/l301.exe)
 Standard basis: def2TZVPP (5D, 7F)
 Ernie: Thresh=  0.10000D-02 Tol=  0.10000D-05 Strict=F.
   324 basis functions,   527 primitive gaussians,   375 cartesian basis functions
    40 alpha electrons       40 beta electrons
       nuclear repulsion energy       621.6979729610 Hartrees.
 IExCor= 4336 DFT=T Ex+Corr=M062X ExCW=0 ScaHFX=  0.540000
 ScaDFX=  1.000000  1.000000  1.000000  1.000000 ScalE2=  1.000000  1.000000
 IRadAn=      5 IRanWt=     -1 IRanGd=            0 ICorTp=0 IEmpDi=  4
 NAtoms=   11 NActive=   11 NUniq=   11 SFac= 1.00D+00 NAtFMM=   60 NAOKFM=F Big=F
 Integral buffers will be    131072 words long.
 Raffenetti 2 integral format.
 Two-electron integral symmetry is turned off.
 Leave Link  301 at Sat May 24 05:09:22 2025, MaxMem=  3758096384 cpu:               0.1 elap:               0.0
 (Enter /apps/easybuild-2022/easybuild/software/Compiler/NVHPC/22.11-CUDA-11.7.0/Gaussian/g16c01-CUDA-11.7.0/g16/l302.exe)
 NPDir=0 NMtPBC=     1 NCelOv=     1 NCel=       1 NClECP=     1 NCelD=      1
         NCelK=      1 NCelE2=     1 NClLst=     1 CellRange=     0.0.
 One-electron integrals computed using PRISM.
   1 Symmetry operations used in ECPInt.
 ECPInt:  NShTT=    6786 NPrTT=   21959 LenC2=    6420 LenP2D=   15732.
 LDataN:  DoStor=T MaxTD1= 6 Len=  172
 NBasis=   324 RedAO= T EigKep=  3.51D-04  NBF=   324
 NBsUse=   324 1.00D-06 EigRej= -1.00D+00 NBFU=   324
 Precomputing XC quadrature grid using
 IXCGrd= 4 IRadAn=           5 IRanWt=          -1 IRanGd=           0 AccXCQ= 0.00D+00.
 Generated NRdTot=       0 NPtTot=           0 NUsed=           0 NTot=          32
 NSgBfM=   373   373   373   373   373 MxSgAt=    11 MxSgA2=    11.
 Leave Link  302 at Sat May 24 05:09:22 2025, MaxMem=  3758096384 cpu:               0.8 elap:               0.3
 (Enter /apps/easybuild-2022/easybuild/software/Compiler/NVHPC/22.11-CUDA-11.7.0/Gaussian/g16c01-CUDA-11.7.0/g16/l303.exe)
 DipDrv:  MaxL=1.
 Leave Link  303 at Sat May 24 05:09:22 2025, MaxMem=  3758096384 cpu:               0.2 elap:               0.1
 (Enter /apps/easybuild-2022/easybuild/software/Compiler/NVHPC/22.11-CUDA-11.7.0/Gaussian/g16c01-CUDA-11.7.0/g16/l401.exe)
 Initial guess from the checkpoint file:  "/tmp/Gau-23770.chk"
 B after Tr=    -0.001116   -0.011506    0.003671
         Rot=    0.999722   -0.017863    0.014538    0.004979 Ang=  -2.70 deg.
 Guess basis will be translated and rotated to current coordinates.
 JPrj=2 DoOrth=T DoCkMO=T.
 Generating alternative initial guess.
 ExpMin= 9.52D-02 ExpMax= 3.55D+04 ExpMxC= 1.21D+03 IAcc=3 IRadAn=         5 AccDes= 0.00D+00
 Harris functional with IExCor= 1009 and IRadAn=       5 diagonalized for initial guess.
 HarFok:  IExCor= 1009 AccDes= 0.00D+00 IRadAn=         5 IDoV= 1 UseB2=F ITyADJ=14
 ICtDFT=  3500011 ScaDFX=  1.000000  1.000000  1.000000  1.000000
 FoFCou: FMM=F IPFlag=           0 FMFlag=      100000 FMFlg1=           0
         NFxFlg=           0 DoJE=T BraDBF=F KetDBF=T FulRan=T
         wScrn=  0.000000 ICntrl=       500 IOpCl=  0 I1Cent=   200000004 NGrid=           0
         NMat0=    1 NMatS0=      1 NMatT0=    0 NMatD0=    1 NMtDS0=    0 NMtDT0=    0
 Symmetry not used in FoFCou.
 Harris En= -764.045408433661    
 Leave Link  401 at Sat May 24 05:09:23 2025, MaxMem=  3758096384 cpu:               3.4 elap:               0.7
 (Enter /apps/easybuild-2022/easybuild/software/Compiler/NVHPC/22.11-CUDA-11.7.0/Gaussian/g16c01-CUDA-11.7.0/g16/l502.exe)
 Keep R1 ints in memory in canonical form, NReq=1412617130.
 FoFCou: FMM=F IPFlag=           0 FMFlag=           0 FMFlg1=           0
         NFxFlg=           0 DoJE=F BraDBF=F KetDBF=F FulRan=T
         wScrn=  0.000000 ICntrl=       600 IOpCl=  0 I1Cent=           0 NGrid=           0
         NMat0=    1 NMatS0=  52650 NMatT0=    0 NMatD0=    1 NMtDS0=    0 NMtDT0=    0
 Symmetry not used in FoFCou.
 Two-electron integral symmetry not used.
 Closed shell SCF:
 Using DIIS extrapolation, IDIIS=  1040.
 NGot=  3758096384 LenX=  2371771924 LenY=  2371630858
 Requested convergence on RMS density matrix=1.00D-08 within  32 cycles.
 Requested convergence on MAX density matrix=1.00D-06.
 Requested convergence on             energy=1.00D-06.
 No special actions if energy rises.
 Integral accuracy reduced to 1.0D-05 until final iterations.

 Cycle   1  Pass 0  IDiag  1:
 E= -764.397251635684    
 DIIS: error= 9.66D-03 at cycle   1 NSaved=   1.
 NSaved= 1 IEnMin= 1 EnMin= -764.397251635684     IErMin= 1 ErrMin= 9.66D-03
 ErrMax= 9.66D-03  0.00D+00 EMaxC= 1.00D-01 BMatC= 5.66D-02 BMatP= 5.66D-02
 IDIUse=3 WtCom= 9.03D-01 WtEn= 9.66D-02
 Coeff-Com:  0.100D+01
 Coeff-En:   0.100D+01
 Coeff:      0.100D+01
 Gap=     0.859 Goal=   None    Shift=    0.000
 GapD=    0.859 DampG=2.000 DampE=1.000 DampFc=2.0000 IDamp=-1.
 RMSDP=8.09D-04 MaxDP=5.17D-02              OVMax= 9.33D-02

 Cycle   2  Pass 0  IDiag  1:
 E= -764.456098760111     Delta-E=       -0.058847124427 Rises=F Damp=F
 DIIS: error= 2.78D-03 at cycle   2 NSaved=   2.
 NSaved= 2 IEnMin= 2 EnMin= -764.456098760111     IErMin= 2 ErrMin= 2.78D-03
 ErrMax= 2.78D-03  0.00D+00 EMaxC= 1.00D-01 BMatC= 4.54D-03 BMatP= 5.66D-02
 IDIUse=3 WtCom= 9.72D-01 WtEn= 2.78D-02
 Coeff-Com:  0.295D-01 0.970D+00
 Coeff-En:   0.000D+00 0.100D+01
 Coeff:      0.287D-01 0.971D+00
 Gap=     0.282 Goal=   None    Shift=    0.000
 RMSDP=2.29D-04 MaxDP=1.20D-02 DE=-5.88D-02 OVMax= 2.34D-02

 Cycle   3  Pass 0  IDiag  1:
 E= -764.458077268686     Delta-E=       -0.001978508574 Rises=F Damp=F
 DIIS: error= 2.52D-03 at cycle   3 NSaved=   3.
 NSaved= 3 IEnMin= 3 EnMin= -764.458077268686     IErMin= 3 ErrMin= 2.52D-03
 ErrMax= 2.52D-03  0.00D+00 EMaxC= 1.00D-01 BMatC= 3.88D-03 BMatP= 4.54D-03
 IDIUse=3 WtCom= 9.75D-01 WtEn= 2.52D-02
 Coeff-Com: -0.631D-01 0.501D+00 0.562D+00
 Coeff-En:   0.000D+00 0.262D+00 0.738D+00
 Coeff:     -0.615D-01 0.495D+00 0.567D+00
 Gap=     0.280 Goal=   None    Shift=    0.000
 RMSDP=1.08D-04 MaxDP=7.77D-03 DE=-1.98D-03 OVMax= 1.60D-02

 Cycle   4  Pass 0  IDiag  1:
 E= -764.460620806199     Delta-E=       -0.002543537514 Rises=F Damp=F
 DIIS: error= 4.57D-04 at cycle   4 NSaved=   4.
 NSaved= 4 IEnMin= 4 EnMin= -764.460620806199     IErMin= 4 ErrMin= 4.57D-04
 ErrMax= 4.57D-04  0.00D+00 EMaxC= 1.00D-01 BMatC= 1.54D-04 BMatP= 3.88D-03
 IDIUse=3 WtCom= 9.95D-01 WtEn= 4.57D-03
 Coeff-Com: -0.200D-01 0.640D-01 0.191D+00 0.765D+00
 Coeff-En:   0.000D+00 0.000D+00 0.000D+00 0.100D+01
 Coeff:     -0.199D-01 0.637D-01 0.190D+00 0.766D+00
 Gap=     0.280 Goal=   None    Shift=    0.000
 RMSDP=3.61D-05 MaxDP=1.30D-03 DE=-2.54D-03 OVMax= 3.92D-03

 Cycle   5  Pass 0  IDiag  1:
 E= -764.460735152330     Delta-E=       -0.000114346130 Rises=F Damp=F
 DIIS: error= 2.04D-04 at cycle   5 NSaved=   5.
 NSaved= 5 IEnMin= 5 EnMin= -764.460735152330     IErMin= 5 ErrMin= 2.04D-04
 ErrMax= 2.04D-04  0.00D+00 EMaxC= 1.00D-01 BMatC= 3.10D-05 BMatP= 1.54D-04
 IDIUse=3 WtCom= 9.98D-01 WtEn= 2.04D-03
 Coeff-Com: -0.196D-02-0.305D-01 0.284D-01 0.371D+00 0.633D+00
 Coeff-En:   0.000D+00 0.000D+00 0.000D+00 0.000D+00 0.100D+01
 Coeff:     -0.196D-02-0.305D-01 0.284D-01 0.370D+00 0.634D+00
 Gap=     0.280 Goal=   None    Shift=    0.000
 RMSDP=1.41D-05 MaxDP=7.21D-04 DE=-1.14D-04 OVMax= 2.23D-03

 Cycle   6  Pass 0  IDiag  1:
 E= -764.460759286157     Delta-E=       -0.000024133828 Rises=F Damp=F
 DIIS: error= 6.40D-05 at cycle   6 NSaved=   6.
 NSaved= 6 IEnMin= 6 EnMin= -764.460759286157     IErMin= 6 ErrMin= 6.40D-05
 ErrMax= 6.40D-05  0.00D+00 EMaxC= 1.00D-01 BMatC= 4.28D-06 BMatP= 3.10D-05
 IDIUse=1 WtCom= 1.00D+00 WtEn= 0.00D+00
 Coeff-Com:  0.230D-02-0.266D-01-0.175D-01 0.510D-01 0.302D+00 0.689D+00
 Coeff:      0.230D-02-0.266D-01-0.175D-01 0.510D-01 0.302D+00 0.689D+00
 Gap=     0.280 Goal=   None    Shift=    0.000
 RMSDP=6.18D-06 MaxDP=2.44D-04 DE=-2.41D-05 OVMax= 8.91D-04

 Initial convergence to 1.0D-05 achieved.  Increase integral accuracy.
 Cycle   7  Pass 1  IDiag  1:
 E= -764.460761350271     Delta-E=       -0.000002064114 Rises=F Damp=F
 DIIS: error= 2.13D-05 at cycle   1 NSaved=   1.
 NSaved= 1 IEnMin= 1 EnMin= -764.460761350271     IErMin= 1 ErrMin= 2.13D-05
 ErrMax= 2.13D-05  0.00D+00 EMaxC= 1.00D-01 BMatC= 9.20D-07 BMatP= 9.20D-07
 IDIUse=1 WtCom= 1.00D+00 WtEn= 0.00D+00
 Coeff-Com:  0.100D+01
 Coeff:      0.100D+01
 Gap=     0.280 Goal=   None    Shift=    0.000
 RMSDP=6.18D-06 MaxDP=2.44D-04 DE=-2.06D-06 OVMax= 4.90D-04

 Cycle   8  Pass 1  IDiag  1:
 E= -764.460762081237     Delta-E=       -0.000000730966 Rises=F Damp=F
 DIIS: error= 2.04D-05 at cycle   2 NSaved=   2.
 NSaved= 2 IEnMin= 2 EnMin= -764.460762081237     IErMin= 2 ErrMin= 2.04D-05
 ErrMax= 2.04D-05  0.00D+00 EMaxC= 1.00D-01 BMatC= 3.70D-07 BMatP= 9.20D-07
 IDIUse=1 WtCom= 1.00D+00 WtEn= 0.00D+00
 Coeff-Com:  0.335D+00 0.665D+00
 Coeff:      0.335D+00 0.665D+00
 Gap=     0.280 Goal=   None    Shift=    0.000
 RMSDP=1.73D-06 MaxDP=6.93D-05 DE=-7.31D-07 OVMax= 1.99D-04

 Cycle   9  Pass 1  IDiag  1:
 E= -764.460762293795     Delta-E=       -0.000000212557 Rises=F Damp=F
 DIIS: error= 1.42D-05 at cycle   3 NSaved=   3.
 NSaved= 3 IEnMin= 3 EnMin= -764.460762293795     IErMin= 3 ErrMin= 1.42D-05
 ErrMax= 1.42D-05  0.00D+00 EMaxC= 1.00D-01 BMatC= 1.35D-07 BMatP= 3.70D-07
 IDIUse=1 WtCom= 1.00D+00 WtEn= 0.00D+00
 Coeff-Com: -0.305D-01 0.365D+00 0.665D+00
 Coeff:     -0.305D-01 0.365D+00 0.665D+00
 Gap=     0.280 Goal=   None    Shift=    0.000
 RMSDP=8.57D-07 MaxDP=4.00D-05 DE=-2.13D-07 OVMax= 1.33D-04

 Cycle  10  Pass 1  IDiag  1:
 E= -764.460762404985     Delta-E=       -0.000000111191 Rises=F Damp=F
 DIIS: error= 3.44D-06 at cycle   4 NSaved=   4.
 NSaved= 4 IEnMin= 4 EnMin= -764.460762404985     IErMin= 4 ErrMin= 3.44D-06
 ErrMax= 3.44D-06  0.00D+00 EMaxC= 1.00D-01 BMatC= 1.03D-08 BMatP= 1.35D-07
 IDIUse=1 WtCom= 1.00D+00 WtEn= 0.00D+00
 Coeff-Com: -0.377D-01 0.109D+00 0.295D+00 0.634D+00
 Coeff:     -0.377D-01 0.109D+00 0.295D+00 0.634D+00
 Gap=     0.280 Goal=   None    Shift=    0.000
 RMSDP=3.48D-07 MaxDP=1.22D-05 DE=-1.11D-07 OVMax= 6.59D-05

 Cycle  11  Pass 1  IDiag  1:
 E= -764.460762417709     Delta-E=       -0.000000012724 Rises=F Damp=F
 DIIS: error= 1.53D-06 at cycle   5 NSaved=   5.
 NSaved= 5 IEnMin= 5 EnMin= -764.460762417709     IErMin= 5 ErrMin= 1.53D-06
 ErrMax= 1.53D-06  0.00D+00 EMaxC= 1.00D-01 BMatC= 1.51D-09 BMatP= 1.03D-08
 IDIUse=1 WtCom= 1.00D+00 WtEn= 0.00D+00
 Coeff-Com:  0.541D-03-0.753D-01-0.101D+00 0.158D+00 0.102D+01
 Coeff:      0.541D-03-0.753D-01-0.101D+00 0.158D+00 0.102D+01
 Gap=     0.280 Goal=   None    Shift=    0.000
 RMSDP=2.86D-07 MaxDP=1.25D-05 DE=-1.27D-08 OVMax= 6.54D-05

 Cycle  12  Pass 1  IDiag  1:
 E= -764.460762422070     Delta-E=       -0.000000004361 Rises=F Damp=F
 DIIS: error= 8.11D-07 at cycle   6 NSaved=   6.
 NSaved= 6 IEnMin= 6 EnMin= -764.460762422070     IErMin= 6 ErrMin= 8.11D-07
 ErrMax= 8.11D-07  0.00D+00 EMaxC= 1.00D-01 BMatC= 4.86D-10 BMatP= 1.51D-09
 IDIUse=1 WtCom= 1.00D+00 WtEn= 0.00D+00
 Coeff-Com:  0.710D-02-0.632D-01-0.110D+00-0.328D-01 0.535D+00 0.664D+00
 Coeff:      0.710D-02-0.632D-01-0.110D+00-0.328D-01 0.535D+00 0.664D+00
 Gap=     0.280 Goal=   None    Shift=    0.000
 RMSDP=1.08D-07 MaxDP=4.55D-06 DE=-4.36D-09 OVMax= 2.32D-05

 Cycle  13  Pass 1  IDiag  1:
 E= -764.460762422777     Delta-E=       -0.000000000707 Rises=F Damp=F
 DIIS: error= 1.48D-07 at cycle   7 NSaved=   7.
 NSaved= 7 IEnMin= 7 EnMin= -764.460762422777     IErMin= 7 ErrMin= 1.48D-07
 ErrMax= 1.48D-07  0.00D+00 EMaxC= 1.00D-01 BMatC= 2.61D-11 BMatP= 4.86D-10
 IDIUse=1 WtCom= 1.00D+00 WtEn= 0.00D+00
 Coeff-Com:  0.116D-02-0.226D-02-0.726D-02-0.226D-01-0.233D-01 0.147D+00
 Coeff-Com:  0.908D+00
 Coeff:      0.116D-02-0.226D-02-0.726D-02-0.226D-01-0.233D-01 0.147D+00
 Coeff:      0.908D+00
 Gap=     0.280 Goal=   None    Shift=    0.000
 RMSDP=3.15D-08 MaxDP=1.20D-06 DE=-7.07D-10 OVMax= 6.78D-06

 Cycle  14  Pass 1  IDiag  1:
 E= -764.460762422871     Delta-E=       -0.000000000094 Rises=F Damp=F
 DIIS: error= 1.09D-07 at cycle   8 NSaved=   8.
 NSaved= 8 IEnMin= 8 EnMin= -764.460762422871     IErMin= 8 ErrMin= 1.09D-07
 ErrMax= 1.09D-07  0.00D+00 EMaxC= 1.00D-01 BMatC= 9.11D-12 BMatP= 2.61D-11
 IDIUse=1 WtCom= 1.00D+00 WtEn= 0.00D+00
 Coeff-Com: -0.437D-03 0.770D-02 0.118D-01-0.497D-02-0.900D-01-0.193D-01
 Coeff-Com:  0.448D+00 0.647D+00
 Coeff:     -0.437D-03 0.770D-02 0.118D-01-0.497D-02-0.900D-01-0.193D-01
 Coeff:      0.448D+00 0.647D+00
 Gap=     0.280 Goal=   None    Shift=    0.000
 RMSDP=1.18D-08 MaxDP=4.79D-07 DE=-9.37D-11 OVMax= 2.57D-06

 Cycle  15  Pass 1  IDiag  1:
 E= -764.460762422878     Delta-E=       -0.000000000007 Rises=F Damp=F
 DIIS: error= 5.07D-08 at cycle   9 NSaved=   9.
 NSaved= 9 IEnMin= 9 EnMin= -764.460762422878     IErMin= 9 ErrMin= 5.07D-08
 ErrMax= 5.07D-08  0.00D+00 EMaxC= 1.00D-01 BMatC= 1.86D-12 BMatP= 9.11D-12
 IDIUse=1 WtCom= 1.00D+00 WtEn= 0.00D+00
 Coeff-Com: -0.435D-03 0.456D-02 0.766D-02 0.176D-02-0.474D-01-0.384D-01
 Coeff-Com:  0.556D-01 0.338D+00 0.679D+00
 Coeff:     -0.435D-03 0.456D-02 0.766D-02 0.176D-02-0.474D-01-0.384D-01
 Coeff:      0.556D-01 0.338D+00 0.679D+00
 Gap=     0.280 Goal=   None    Shift=    0.000
 RMSDP=5.16D-09 MaxDP=1.76D-07 DE=-6.82D-12 OVMax= 8.43D-07

 SCF Done:  E(RM062X) =  -764.460762423     A.U. after   15 cycles
            NFock= 15  Conv=0.52D-08     -V/T= 2.0036
 KE= 7.617092012591D+02 PE=-3.054946527508D+03 EE= 9.070785908652D+02
 Leave Link  502 at Sat May 24 05:09:51 2025, MaxMem=  3758096384 cpu:             117.5 elap:              28.7
 (Enter /apps/easybuild-2022/easybuild/software/Compiler/NVHPC/22.11-CUDA-11.7.0/Gaussian/g16c01-CUDA-11.7.0/g16/l508.exe)
 QCSCF skips out because SCF is already converged.
 Leave Link  508 at Sat May 24 05:09:51 2025, MaxMem=  3758096384 cpu:               0.1 elap:               0.0
 (Enter /apps/easybuild-2022/easybuild/software/Compiler/NVHPC/22.11-CUDA-11.7.0/Gaussian/g16c01-CUDA-11.7.0/g16/l801.exe)
 DoSCS=F DFT=T ScalE2(SS,OS)=  1.000000  1.000000
 Range of M.O.s used for correlation:     1   324
 NBasis=   324 NAE=    40 NBE=    40 NFC=     0 NFV=     0
 NROrb=    324 NOA=    40 NOB=    40 NVA=   284 NVB=   284

 **** Warning!!: The largest alpha MO coefficient is  0.14611602D+02

 Leave Link  801 at Sat May 24 05:09:52 2025, MaxMem=  3758096384 cpu:               0.1 elap:               0.0
 (Enter /apps/easybuild-2022/easybuild/software/Compiler/NVHPC/22.11-CUDA-11.7.0/Gaussian/g16c01-CUDA-11.7.0/g16/l1101.exe)
[...]
     20 -0.136961D-01  0.281669D-01  0.255828D-01 -0.964594D-02  0.314606D-03
     21 -0.296215D-01 -0.818306D-02 -0.413788D-01  0.103005D-01 -0.231914D-02
     22 -0.294939D-01 -0.378224D-01 -0.647301D-03  0.893009D-02 -0.929172D-03
     23  0.164521D-01  0.139951D+00  0.133637D+00  0.292888D+00  0.825447D-02
     24 -0.343084D-02 -0.142355D-02 -0.158401D-02  0.109370D-01  0.211109D-01
     25  0.441745D-03  0.233095D-02 -0.537542D-03  0.218319D-02  0.120446D-02
     26 -0.855248D-03 -0.438759D-02 -0.508882D-02 -0.602612D-02 -0.834291D-03
     27  0.433050D-03  0.486301D-02  0.220797D-02  0.779260D-02  0.136544D-02
     28 -0.863944D-03 -0.185553D-02 -0.234331D-02 -0.416715D-03 -0.673312D-03
     29 -0.410395D-03  0.137336D-02 -0.989367D-03  0.366991D-02  0.124695D-02
     30 -0.171427D-03 -0.924203D-03 -0.340779D-02 -0.198297D-02  0.898510D-03
     31 -0.917821D-03 -0.794256D-02 -0.449303D-02 -0.778487D-02  0.114466D-03
     32  0.554498D-03 -0.307632D-02  0.514088D-02  0.637215D-02  0.207585D-02
     33  0.228871D-03 -0.408073D-01  0.420863D-01 -0.300113D-02  0.410701D-03
     34  0.593460D-01  0.675352D-02  0.940402D-02 -0.732650D-02  0.255827D-02
     35 -0.574886D-01 -0.107673D-01 -0.615401D-02  0.389029D-02 -0.182040D-02
               11            12            13            14            15 
     11  0.144393D+00
     12 -0.758872D-01  0.187294D+00
     13 -0.684947D-01 -0.111899D+00  0.181347D+00
     14 -0.158791D-01 -0.334452D-01  0.496621D-01  0.258667D+00
     15 -0.159023D-02 -0.162856D-02  0.420723D-02 -0.512434D-01  0.124911D+00
     16  0.608771D-02  0.986151D-02 -0.161824D-01 -0.610186D-01 -0.320773D-01
     17 -0.194566D-02  0.314794D-02 -0.100678D-02  0.367426D-02  0.134849D-02
     18 -0.191591D-02  0.303884D-02 -0.981207D-03  0.399824D-02  0.463245D-02
     19  0.285932D-02  0.468609D-02 -0.722246D-02 -0.716335D-03  0.631054D-02
     20 -0.957694D-03  0.173954D-02 -0.708413D-03  0.230007D-02  0.158753D-02
     21  0.189865D-02 -0.615483D-02  0.381705D-02 -0.179695D-02 -0.108957D-02
     22 -0.451654D-04 -0.270955D-02  0.269271D-02 -0.536299D-02 -0.843914D-02
     23 -0.417308D-03  0.162167D-01 -0.148706D-01  0.184476D-01  0.132312D-01
     24 -0.215726D-01  0.172071D-01  0.436870D-02  0.959617D-02 -0.262166D-02
     25 -0.635395D-02  0.707890D-02  0.145646D-02 -0.157420D-01  0.125280D-01
     26 -0.772549D-02  0.147480D-02  0.870421D-02  0.208054D-01 -0.153960D-02
     27 -0.128741D-02 -0.137480D-02  0.523900D-03 -0.165136D-01  0.351532D-02
     28 -0.265895D-02 -0.697889D-02  0.777165D-02  0.200338D-01 -0.105523D-01
     29 -0.453829D-02  0.736672D-02 -0.549312D-02 -0.490333D-02 -0.322925D-02
     30  0.561918D-02 -0.381130D-02  0.151924D-03 -0.239527D-02  0.636354D-02
     31 -0.440101D-03 -0.153216D-02  0.260244D-02 -0.314403D-03  0.486763D-01
     32  0.438438D-02  0.783326D-02 -0.126849D-01 -0.920929D-02 -0.577574D-01
     33 -0.468273D-03  0.803828D-03 -0.251617D-03 -0.148359D-02 -0.272207D-02
     34 -0.734566D-03  0.586150D-02 -0.472188D-02  0.198392D-02  0.215007D-02
     35  0.273930D-03 -0.441839D-02  0.392302D-02 -0.468804D-02 -0.955506D-02
               16            17            18            19            20 
     16  0.751059D-01
     17  0.121178D-02  0.214168D+00
     18  0.703098D-03  0.236759D-02  0.211710D+00
     19  0.517620D-02 -0.121646D+00 -0.111092D+00  0.341831D+00
     20  0.686974D-03  0.162562D-01  0.152042D-01 -0.596554D-01  0.124651D+00
     21 -0.351353D-02 -0.499831D-01 -0.390643D-01  0.405110D-02 -0.600117D-01
     22 -0.167711D-02 -0.382496D-01 -0.488083D-01  0.630755D-02 -0.622020D-01
     23  0.205642D-01 -0.128623D+00 -0.124189D+00 -0.136172D+00 -0.355816D-01
     24 -0.140037D-02  0.180035D-02  0.211383D-02 -0.422530D-02  0.157867D-02
     25 -0.240464D-01 -0.675031D-03 -0.786707D-03 -0.269635D-02 -0.684876D-03
     26  0.196557D-01  0.299195D-02  0.370032D-02  0.522666D-02  0.181027D-02
     27 -0.225862D-01 -0.269829D-02 -0.230579D-02 -0.600803D-02 -0.148355D-02
     28  0.211160D-01  0.968691D-03  0.218123D-02  0.191498D-02  0.101159D-02
     29  0.601576D-03 -0.676203D-03  0.371655D-03 -0.245948D-02 -0.140838D-03
     30 -0.135487D-02  0.108861D-02  0.161228D-02  0.859066D-03  0.503119D-03
     31 -0.130528D-01  0.696620D-02  0.109570D-02  0.419097D-02  0.149980D-02
     32  0.149691D-01  0.384768D-02 -0.549847D-02 -0.425388D-02 -0.123036D-02
     33  0.437074D-04 -0.633226D-01  0.654110D-01 -0.260284D-02  0.274781D-02
     34  0.366086D-02  0.104507D+00 -0.155624D-02  0.501774D-01 -0.234906D-01
     35 -0.299030D-02 -0.672300D-04 -0.107805D+00 -0.471572D-01  0.253971D-01
               21            22            23            24            25 
     21  0.138935D+00
     22 -0.163461D-01  0.138673D+00
     23  0.164812D+00  0.124360D+00  0.281616D+00
     24 -0.109045D-02 -0.647318D-03 -0.304584D-02  0.181209D+00
     25 -0.143106D-03  0.351418D-02 -0.148143D-01 -0.594421D-03  0.278145D-01
     26 -0.541963D-02 -0.418016D-02  0.225005D-01  0.147049D-02 -0.241107D-02
     27  0.433972D-02  0.427588D-02 -0.245217D-01 -0.180550D-02  0.718209D-02
     28 -0.936812D-03 -0.341846D-02  0.127931D-01  0.259407D-03 -0.230435D-01
     29  0.956278D-03  0.914320D-03 -0.452095D-02 -0.862342D-03 -0.103568D-01
     30 -0.317701D-02  0.323423D-03  0.443426D-02 -0.237518D-02  0.105491D-01
     31 -0.169148D-01  0.734234D-02  0.183052D-01 -0.131482D-02  0.289475D-02
     32 -0.138746D-01  0.188573D-01 -0.954306D-02 -0.117609D-02  0.324294D-02
     33 -0.508904D-01  0.493699D-01 -0.117326D-02  0.460656D-03  0.150783D-02
     34 -0.793836D-01  0.593406D-02 -0.193408D+00 -0.503321D-04 -0.803485D-03
     35 -0.664564D-02  0.774402D-01  0.182902D+00  0.281967D-03  0.311490D-02
               26            27            28            29            30 
     26  0.294293D-01
     27 -0.251641D-01  0.270251D-01
     28  0.667625D-02 -0.532108D-02  0.243986D-01
     29 -0.132686D-01  0.137400D-01  0.108282D-01  0.224075D-01
     30  0.102542D-01 -0.728757D-02 -0.758243D-02 -0.405532D-02  0.155457D-01
     31  0.630423D-02 -0.281734D-02  0.592150D-03 -0.148437D-02  0.467286D-02
     32 -0.603378D-02  0.700733D-02 -0.226939D-02  0.342540D-02 -0.921584D-03
     33 -0.190058D-03  0.677045D-03 -0.102085D-02  0.782001D-04  0.864047D-03
     34  0.513198D-02 -0.495225D-02  0.983218D-03 -0.189182D-02  0.198633D-02
     35 -0.616725D-02  0.546777D-02 -0.381438D-02  0.714437D-03 -0.140525D-02
               31            32            33            34            35 
     31  0.411679D-01
     32 -0.666184D-02  0.534723D-01
     33  0.845920D-02  0.118811D-01  0.823866D-01
     34  0.155615D-01  0.112594D-01 -0.137934D-02  0.131362D+00
     35  0.396187D-02  0.169305D-01  0.257819D-02 -0.251800D-01  0.132721D+00
 Leave Link  716 at Sat May 24 05:23:26 2025, MaxMem=  3758096384 cpu:               0.1 elap:               0.0
 (Enter /apps/easybuild-2022/easybuild/software/Compiler/NVHPC/22.11-CUDA-11.7.0/Gaussian/g16c01-CUDA-11.7.0/g16/l9999.exe)

 ----------------------------------------------------------------------

 Electric dipole moment (input orientation):
 (Debye = 10**-18 statcoulomb cm , SI units = C m)
                  (au)            (Debye)         (10**-30 SI)
   Tot        0.129739D+01      0.329762D+01      0.109997D+02
   x         -0.765092D+00     -0.194467D+01     -0.648672D+01
   y          0.103812D+01      0.263864D+01      0.880157D+01
   z         -0.141933D+00     -0.360757D+00     -0.120335D+01

 Dipole polarizability, Alpha (input orientation).
 (esu units = cm**3 , SI units = C**2 m**2 J**-1)
 Alpha(0;0):
               (au)            (10**-24 esu)      (10**-40 SI)
   iso        0.516898D+02      0.765964D+01      0.852250D+01
   aniso      0.274231D+02      0.406369D+01      0.452147D+01
   xx         0.579965D+02      0.859419D+01      0.956233D+01
   yx        -0.106560D+02     -0.157905D+01     -0.175693D+01
   yy         0.588314D+02      0.871791D+01      0.969999D+01
   zx         0.903351D+00      0.133863D+00      0.148943D+00
   zy        -0.702902D+00     -0.104159D+00     -0.115893D+00
   zz         0.382415D+02      0.566681D+01      0.630518D+01

 ----------------------------------------------------------------------

 Dipole orientation:
     6          1.73661102         -1.45575406         -1.77614502
     8          1.23267768         -1.42239223         -3.97051067
     6          0.00515407         -0.04851157          0.00905566
     6         -1.07445832         -0.92671013          3.59592054
     9         -0.41953092         -0.91219614          6.02012842
     9         -2.98330177          0.61873447          3.43142107
     9         -1.48365814         -3.29199560          3.03706996
     9          1.74383728          0.14397998          2.76478004
     9         -0.17238545          2.32463786         -0.61390932
     8          3.58012961         -2.86417801         -0.79746670
     1          3.80902415         -2.51269679          0.97524663

 Electric dipole moment (dipole orientation):
 (Debye = 10**-18 statcoulomb cm , SI units = C m)
                  (au)            (Debye)         (10**-30 SI)
   Tot        0.129739D+01      0.329762D+01      0.109997D+02
   x          0.000000D+00      0.000000D+00      0.000000D+00
   y          0.000000D+00      0.000000D+00      0.000000D+00
   z          0.129739D+01      0.329762D+01      0.109997D+02

 Dipole polarizability, Alpha (dipole orientation).
 (esu units = cm**3 , SI units = C**2 m**2 J**-1)
 Alpha(0;0):
               (au)            (10**-24 esu)      (10**-40 SI)
   iso        0.516898D+02      0.765964D+01      0.852250D+01
   aniso      0.274231D+02      0.406369D+01      0.452147D+01
   xx         0.446753D+02      0.662020D+01      0.736597D+01
   yx        -0.465630D+01     -0.689992D+00     -0.767720D+00
   yy         0.418034D+02      0.619462D+01      0.689244D+01
   zx        -0.356047D+01     -0.527607D+00     -0.587042D+00
   zy        -0.156640D+00     -0.232117D-01     -0.258265D-01
   zz         0.685908D+02      0.101641D+02      0.113091D+02

 ----------------------------------------------------------------------
 Unable to Open any file for archive entry.
 1\1\GINC-SPARTAN-BM177\Freq\RM062X\def2TZVPP\C3H1F5O2\AKHALILOV\24-May
 -2025\0\\#P M062X/Def2TZVPP Symm(None) scf(xqc) pop(None) opt(NoFreeze
 ,TS,CalcAll,NoEigentest,MaxCycle=999)\\Gaussian input prepared by ASE\
 \0,1\C,1.5128354924,-0.0354333111,0.1772956838\O,2.0070364726,-1.08548
 25831,0.4474645345\C,0.009965483,0.0158501772,0.018408555\C,-1.3039228
 141,1.488152197,0.5195244618\F,-1.8257703374,2.6587957496,0.168657653\
 F,-2.2939085484,0.6430235818,0.4703456979\F,-0.7458052099,1.6887070251
 ,1.6811049425\F,-0.2616743522,1.5309727336,-0.7652139658\F,-0.39427699
 03,-0.8189429959,-0.8949836107\O,2.1941712625,1.1090771935,0.141707570
 2\H,1.6450129232,1.8325625966,-0.1811748248\\Version=ES64L-G16RevC.01\
 HF=-764.4634323\RMSD=9.760e-09\RMSF=4.541e-06\ZeroPoint=0.0480022\Ther
 mal=0.057216\ETot=-764.4062162\HTot=-764.405272\GTot=-764.4510998\Dipo
 le=-0.765092,1.0381222,-0.1419326\DipoleDeriv=1.3384045,-0.1089123,0.0
 34621,0.1056445,1.8237861,-0.2019642,0.4253267,-0.3534807,0.3340604,-0
 .80216,0.379598,-0.0876578,0.2259471,-1.0417792,0.0922814,-0.1764838,0
 .2064867,-0.3742249,-0.167134,0.530958,0.1608791,0.2481281,0.791906,0.
 211592,0.3473232,0.2965794,0.7164862,2.6867707,-0.7167247,-0.1587502,-
 0.9872543,2.7148934,0.0961413,-0.2651984,0.1805535,1.945443,-0.5077914
 ,0.3025034,-0.0184467,0.3969546,-0.8665598,0.0685963,-0.0586143,0.1209
 102,-0.3168644,-1.1710784,0.1107595,0.0647089,-0.2392181,-0.4752447,-0
 .007275,0.0971538,-0.0853441,-0.2350581,-0.4026942,0.0569586,-0.178014
 5,0.1955734,-0.493245,-0.184417,0.1305059,-0.428797,-0.8250131,-0.4450
 73,-0.037034,0.2635422,0.4775704,-1.115627,0.1692003,-0.2437674,0.7148
 732,-0.6911384,-0.1978369,-0.1982259,-0.1082373,-0.1364759,-0.5952454,
 -0.3232383,-0.1779748,-0.6995814,-0.5277627,-0.6632811,-0.3654508,0.06
 25752,-0.3595495,-1.0881428,0.0911496,-0.0625736,0.0427504,-0.3328398,
 0.3318738,0.0455703,-0.0352199,0.0726796,0.3452584,-0.0120665,-0.01569
 73,0.0050497,0.3069117\Polar=57.9964876,-10.6559808,58.8314042,0.90335
 13,-0.7029022,38.2415438\PG=Unknown\NImag=1\\0.63218157,-0.15213906,0.
 96358020,0.10961969,-0.14224577,0.26084758,-0.25155065,0.28512620,-0.0
 8113813,0.23877375,0.27536446,-0.62463263,0.14461752,-0.30580179,0.747
 41057,-0.07988706,0.14281297,-0.11456033,0.08950105,-0.17394907,0.0770
 5762,-0.17200723,-0.02147101,0.04495202,-0.01924601,0.03397220,-0.0217
 2518,0.34513173,-0.00895260,-0.03439170,-0.04303554,0.03717589,-0.0282
 5405,0.02075494,0.09103517,0.20179876,-0.03149221,-0.00167538,-0.07730
 680,-0.00490956,0.00188891,0.01710124,0.07958302,0.20450175,0.35236829
 ,-0.01687608,0.00836751,-0.00697601,0.00736339,-0.00634160,0.00233304,
 0.00761232,0.01335615,0.01562233,0.44865965,0.03058164,0.00720481,0.03
 823343,-0.01039295,0.00435219,-0.00966206,-0.06741213,0.08240858,-0.05
 146199,0.14376630,0.43889794,0.00445866,-0.00043201,-0.00158563,-0.004
 63112,0.00215943,-0.00002200,0.01291796,-0.08007278,0.02251489,0.17296
 008,0.01615542,0.45299678,0.00214327,-0.00144676,-0.00074804,-0.001225
 31,0.00088927,0.00011572,-0.00014501,-0.00945234,0.00282917,-0.0994278
 4,0.06767117,-0.03882761,0.15023356,-0.00443821,0.00026481,-0.00211718
 ,0.00192872,-0.00084436,0.00057556,0.00417371,0.00118486,0.00084239,0.
 04435019,-0.22189188,0.06193338,-0.10730713,0.35387670,0.00036028,0.00
 004658,0.00124712,0.00025492,-0.00009656,-0.00025935,-0.00179384,0.010
 01476,-0.00463181,-0.02033422,0.03423132,-0.08929730,0.03414667,-0.082
 98741,0.12726289,0.01475184,-0.00030017,0.01811656,-0.00568571,0.00433
 739,-0.00482046,-0.08087190,0.02424245,-0.01876547,-0.21270592,-0.1781
 1167,-0.00924007,0.01226341,-0.01377082,0.00133627,0.28404220,-0.00133
 746,-0.00194450,-0.00276699,0.00053917,0.00014430,0.00080144,0.0139475
 6,-0.00332958,-0.00232710,-0.11544372,-0.18487825,-0.00762719,-0.03949
 651,-0.10190147,0.01760398,0.17325197,0.28082664,-0.00276805,-0.000490
 69,-0.00329364,0.00116693,-0.00046050,0.00088232,0.01030932,-0.0024660
 7,0.00646941,-0.00602998,0.00241246,-0.08012469,0.00696995,0.01933365,
 0.01792978,0.02329475,0.00521535,0.05639487,0.00028672,-0.00261691,-0.
 00103034,-0.00010781,0.00062908,0.00008523,0.00525509,0.01118977,0.003
 80750,-0.12063375,-0.01502035,-0.08457947,-0.01418310,0.02748801,-0.05
 185637,-0.02241319,-0.02671177,-0.03767221,0.14625153,-0.00674033,-0.0
 0151754,-0.00762638,0.00249689,-0.00100687,0.00211870,0.01256120,-0.03
 550222,-0.01240459,-0.03430007,-0.06635793,-0.04550645,0.03567486,-0.0
 0924315,0.05351647,-0.01280159,-0.00241241,-0.02434052,0.00180038,0.10
 812459,-0.00976757,-0.00252072,-0.01194082,0.00400388,-0.00154942,0.00
 320791,0.01643255,-0.03507796,-0.00559310,-0.12247292,-0.00284892,-0.2
 8898615,-0.04221247,0.03050653,-0.04638755,-0.01096940,-0.01733860,-0.
 00631301,0.16294924,0.03845802,0.36456995,-0.00835420,0.01026327,-0.03
 298548,-0.00527906,0.00386075,0.00477584,0.01899661,-0.08197255,0.0357
 2923,-0.01126138,0.04597477,-0.06588489,-0.05141252,0.04678593,0.03974
 335,0.01000818,-0.00624430,0.00378702,0.00730665,-0.00571451,-0.005345
 10,0.03640522,-0.02348996,-0.02335186,0.01039394,0.01066228,0.00238067
 ,-0.00217899,0.02402746,0.01198237,0.02563550,-0.03491061,-0.04990148,
 0.05164948,0.04961840,-0.01989612,-0.03141329,-0.00029683,0.00806746,-
 0.00054656,-0.00032012,0.01004036,-0.00627200,-0.02127583,0.09100150,0
 .02010230,0.00890805,0.01269578,-0.00547331,0.00005290,-0.00169749,-0.
 04793950,0.09444764,-0.08764740,-0.00446060,-0.04231299,-0.00903951,0.
 03495720,-0.02589280,-0.00678224,-0.00930390,0.00037120,0.00773672,0.0
 0249195,0.00602594,0.00306237,0.02378000,-0.02743512,0.04810490,-0.019
 01131,-0.03328937,-0.04389059,-0.00041988,-0.00159689,0.00630355,-0.08
 183112,-0.04549141,-0.08409601,-0.00367066,0.00169799,0.00898773,0.001
 40643,-0.00063669,-0.00108273,0.00718323,0.00021836,-0.00048738,-0.001
 43259,0.00294821,0.00210730,0.00297943,-0.01539577,0.00391580,0.103827
 61,-0.00102316,-0.01283514,-0.01048591,-0.00282806,0.00768474,0.002016
 62,-0.07639141,-0.18423011,-0.17145084,-0.01793067,0.00246302,-0.00049
 469,0.00297059,-0.00154235,-0.00039895,0.00673501,0.00406893,0.0006427
 2,0.00270210,-0.00502766,-0.00737691,-0.00289663,-0.04260969,-0.003502
 59,0.09136493,0.23075910,-0.00140485,-0.01951644,-0.00478618,-0.004451
 42,0.00643663,-0.00045710,-0.08256707,-0.17458567,-0.24182777,-0.03217
 360,0.02221013,-0.00881913,0.00259464,-0.00251649,0.00132593,0.0139539
 9,0.00565078,-0.00029606,0.00589078,-0.01150597,-0.01323634,-0.0055064
 4,-0.01930569,0.03922095,0.10608316,0.19178244,0.23048674,-0.20265013,
 -0.08215204,-0.01663448,0.03990212,0.00471233,0.00418085,-0.01874511,-
 0.02399658,0.00069881,0.00669563,-0.01425948,-0.00256640,-0.00094376,0
 .00226262,-0.00011656,-0.00609646,0.00064768,0.00142845,-0.00057157,0.
 00331737,0.00491245,-0.00017434,0.00478210,-0.00889564,-0.00955599,-0.
 00424983,-0.00422389,0.39966672,-0.13212989,-0.23659983,0.00404065,-0.
 01272804,-0.10495601,0.01609240,-0.01376311,-0.01023424,0.00774425,0.0
 0169191,-0.01838040,0.00041202,0.00023519,0.00157763,-0.00045606,-0.00
 535161,0.00178653,0.00130187,0.00080062,0.00414858,0.00571840,0.009665
 42,0.01436520,-0.01256754,-0.00088798,0.00083309,0.00033385,-0.0701359
 2,0.64182536,-0.01126226,0.01217456,-0.05575965,0.00703211,0.02280611,
 0.01245709,-0.00954750,0.00737037,0.01743438,0.00101407,-0.00697160,-0
 .00484336,-0.00025848,0.00082615,0.00051599,-0.00304973,0.00056659,0.0
 0106140,0.00107396,0.00182799,0.00343337,0.00089233,-0.00207244,0.0004
 5658,0.00284475,-0.00059065,-0.00080719,0.11884633,-0.15287014,0.09255
 111,0.02108620,-0.01034166,0.01071480,-0.00252483,-0.01002520,-0.00086
 258,-0.00414938,-0.00713395,0.00099321,-0.00575537,-0.00449530,0.00640
 515,0.00129088,-0.00083633,-0.00065777,-0.00047567,0.00062901,0.000001
 22,0.00024203,0.00075760,0.00036204,0.00078542,0.00659888,-0.00917429,
 0.00052487,0.00154714,0.00180470,-0.20752710,0.22260342,-0.10758558,0.
 19650296,0.02430456,-0.03577661,0.01099223,-0.00617833,-0.00227855,0.0
 0061749,-0.00067964,-0.00143267,-0.00129292,-0.00260540,0.00608340,0.0
 0182339,0.00064326,-0.00158467,-0.00006085,0.00206588,-0.00042764,-0.0
 0060172,0.00005920,-0.00124575,-0.00169843,0.00155369,-0.00207842,0.00
 190531,0.00106863,0.00043607,0.00101643,0.17907176,-0.29436590,0.11693
 306,-0.19930362,0.33267075,0.00204107,0.00293884,-0.00555746,-0.001355
 33,-0.00190597,0.00629011,-0.00062178,-0.00185144,0.00111867,0.0005178
 2,0.00001478,0.00720609,0.00043327,-0.00050377,-0.00092346,-0.00055254
 ,-0.00014945,-0.00044709,-0.00116027,-0.00056322,-0.00181663,0.0010141
 3,0.00154517,-0.00611066,-0.00068558,-0.00014125,-0.00080384,-0.097629
 92,0.13025029,-0.06649973,0.09799912,-0.12963397,0.06754401\\-0.000002
 63,0.00000026,-0.00000154,0.00000362,0.00000489,0.00000572,0.00000527,
 -0.00000622,0.00000197,0.00000141,-0.00000215,-0.00000293,-0.00000422,
 -0.00000310,-0.00000431,0.00000327,-0.00000171,-0.00000175,0.00000041,
 0.00000900,-0.00000432,0.00000293,-0.00000652,0.00000730,0.00000099,-0
 .00000231,0.00000782,-0.00000236,0.00000728,-0.00000122,-0.00000870,0.
 00000057,-0.00000675\\\@
 The archive entry for this job was punched.


 The earth never tires,
 The earth is rude, silent, incomprehensible at first,
 Nature is rude and incomprehensible at first,
 Be not discouraged, keep on,
 There are divine things well envelop'd,
 I swear to you there are divine things more beautiful than words can tell.
                                 -- Walt Whitman
 Job cpu time:       0 days  2 hours  9 minutes 28.2 seconds.
 Elapsed time:       0 days  0 hours 17 minutes 55.5 seconds.
 File lengths (MBytes):  RWF=    122 Int=      0 D2E=      0 Chk=      9 Scr=      1
 Normal termination of Gaussian 16 at Sat May 24 05:23:26 2025.
done
