 Entering Gaussian System, Link 0=g16
 Initial command:
 /apps/easybuild-2022/easybuild/software/Compiler/NVHPC/22.11-CUDA-11.7.0/Gaussian/g16c01-CUDA-11.7.0/g16/l1.exe "/tmp/Gau-270016.inp" -scrdir="/tmp/"
 Entering Link 1 = /apps/easybuild-2022/easybuild/software/Compiler/NVHPC/22.11-CUDA-11.7.0/Gaussian/g16c01-CUDA-11.7.0/g16/l1.exe PID=    270023.
  
 Copyright (c) 1988-2019, Gaussian, Inc.  All Rights Reserved.
  
 This is part of the Gaussian(R) 16 program.  It is based on
 the Gaussian(R) 09 system (copyright 2009, Gaussian, Inc.),
 the Gaussian(R) 03 system (copyright 2003, Gaussian, Inc.),
 the Gaussian(R) 98 system (copyright 1998, Gaussian, Inc.),
 the Gaussian(R) 94 system (copyright 1995, Gaussian, Inc.),
 the Gaussian 92(TM) system (copyright 1992, Gaussian, Inc.),
 the Gaussian 90(TM) system (copyright 1990, Gaussian, Inc.),
 the Gaussian 88(TM) system (copyright 1988, Gaussian, Inc.),
 the Gaussian 86(TM) system (copyright 1986, Carnegie Mellon
 University), and the Gaussian 82(TM) system (copyright 1983,
 Carnegie Mellon University). Gaussian is a federally registered
 trademark of Gaussian, Inc.
  
 This software contains proprietary and confidential information,
 including trade secrets, belonging to Gaussian, Inc.
  
 This software is provided under written license and may be
 used, copied, transmitted, or stored only in accord with that
 written license.
  
 The following legend is applicable only to US Government
 contracts under FAR:
  
                    RESTRICTED RIGHTS LEGEND
  
 Use, reproduction and disclosure by the US Government is
 subject to restrictions as set forth in subparagraphs (a)
 and (c) of the Commercial Computer Software - Restricted
 Rights clause in FAR 52.227-19.
  
 Gaussian, Inc.
 340 Quinnipiac St., Bldg. 40, Wallingford CT 06492
  
  
 ---------------------------------------------------------------
 Warning -- This program may not be used in any manner that
 competes with the business of Gaussian, Inc. or will provide
 assistance to any competitor of Gaussian, Inc.  The licensee
 of this program is prohibited from giving any competitor of
 Gaussian, Inc. access to this program.  By using this program,
 the user acknowledges that Gaussian, Inc. is engaged in the
 business of creating and licensing software in the field of
 computational chemistry and represents and warrants to the
 licensee that it is not a competitor of Gaussian, Inc. and that
 it will not use this program in any manner prohibited above.
 ---------------------------------------------------------------
  

 Cite this work as:
 Gaussian 16, Revision C.01,
 M. J. Frisch, G. W. Trucks, H. B. Schlegel, G. E. Scuseria, 
 M. A. Robb, J. R. Cheeseman, G. Scalmani, V. Barone, 
 G. A. Petersson, H. Nakatsuji, X. Li, M. Caricato, A. V. Marenich, 
 J. Bloino, B. G. Janesko, R. Gomperts, B. Mennucci, H. P. Hratchian, 
 J. V. Ortiz, A. F. Izmaylov, J. L. Sonnenberg, D. Williams-Young, 
 F. Ding, F. Lipparini, F. Egidi, J. Goings, B. Peng, A. Petrone, 
 T. Henderson, D. Ranasinghe, V. G. Zakrzewski, J. Gao, N. Rega, 
 G. Zheng, W. Liang, M. Hada, M. Ehara, K. Toyota, R. Fukuda, 
 J. Hasegawa, M. Ishida, T. Nakajima, Y. Honda, O. Kitao, H. Nakai, 
 T. Vreven, K. Throssell, J. A. Montgomery, Jr., J. E. Peralta, 
 F. Ogliaro, M. J. Bearpark, J. J. Heyd, E. N. Brothers, K. N. Kudin, 
 V. N. Staroverov, T. A. Keith, R. Kobayashi, J. Normand, 
 K. Raghavachari, A. P. Rendell, J. C. Burant, S. S. Iyengar, 
 J. Tomasi, M. Cossi, J. M. Millam, M. Klene, C. Adamo, R. Cammi, 
 J. W. Ochterski, R. L. Martin, K. Morokuma, O. Farkas, 
 J. B. Foresman, and D. J. Fox, Gaussian, Inc., Wallingford CT, 2019.
 
 ******************************************
 Gaussian 16:  ES64L-G16RevC.01  3-Jul-2019
                24-May-2025 
 ******************************************
 %mem=28GB
 %nprocshared=8
 Will use up to    8 processors via shared memory.
 ----------------------------------------------------------------------
 #P M062X/Def2TZVPP Symm(None) scf(xqc) pop(None) opt(NoFreeze,TS,CalcA
 ll,NoEigentest,MaxCycle=999)
 ----------------------------------------------------------------------
 1/5=1,6=999,10=4,11=1,18=20,26=3,29=2000,38=1/1,3;
 2/9=110,12=2,15=3,17=6,18=5,40=1/2;
 3/5=44,7=202,11=2,25=1,30=1,71=2,74=-55,140=1/1,2,3;
 4//1;
 5/5=2,8=3,13=1,38=5/2,8;
 8/6=4,10=90,11=11/1;
 11/6=1,8=1,9=11,15=111,16=1,31=1/1,2,10;
 10/6=1,31=1/2;
 7/10=1,25=1,30=1/1,2,3,16;
 1/5=1,6=999,10=4,11=1,18=20,26=3/3(3);
 2/9=110,15=3/2;
 7/8=1,9=1,25=1,30=1,44=-1/16;
 99//99;
 2/9=110,15=3/2;
 3/5=44,7=202,11=2,25=1,30=1,71=2,74=-55,140=1/1,2,3;
 4/5=5,16=3,69=1/1;
 5/5=2,8=3,13=1,38=5/2,8;
 8/6=4,10=90,11=11/1;
 11/6=1,8=1,9=11,15=111,16=1,31=1/1,2,10;
 10/6=1,31=1/2;
 7/10=1,25=1,30=1/1,2,3,16;
 1/5=1,6=999,10=4,11=1,18=20,26=3/3(-8);
 2/9=110,15=3/2;
 7/8=1,9=1,25=1,30=1,44=-1/16;
 99//99;
 Leave Link    1 at Sat May 24 05:01:48 2025, MaxMem=  3758096384 cpu:               0.0 elap:               0.0
 (Enter /apps/easybuild-2022/easybuild/software/Compiler/NVHPC/22.11-CUDA-11.7.0/Gaussian/g16c01-CUDA-11.7.0/g16/l101.exe)
 ------------------------------
 Gaussian input prepared by ASE
 ------------------------------
 Symbolic Z-matrix:
 Charge =  0 Multiplicity = 1
 C                     1.55499   0.        0. 
 O                     2.1477   -0.84887  -0.67278 
 C                     0.        0.        0. 
 C                     1.58899  -0.41556   1.66508 
 F                     0.94891   0.42426   2.48038 
 F                     1.1158   -1.63803   1.87101 
 F                     2.86984  -0.38915   1.95855 
 F                    -0.72848   0.90824   0.49319 
 F                    -0.62618  -1.08378  -0.14783 
 O                     1.92648   1.34666   0. 
 H                     2.75912   1.35868  -0.48623 
 
 ITRead=  0  0  0  0  0  0  0  0  0  0  0
 MicOpt= -1 -1 -1 -1 -1 -1 -1 -1 -1 -1 -1
 NAtoms=     11 NQM=       11 NQMF=       0 NMMI=      0 NMMIF=      0
                NMic=       0 NMicF=      0.
                    Isotopes and Nuclear Properties:
 (Nuclear quadrupole moments (NQMom) in fm**2, nuclear magnetic moments (NMagM)
  in nuclear magnetons)

  Atom         1           2           3           4           5           6           7           8           9          10
 IAtWgt=          12          16          12          12          19          19          19          19          19          16
 AtmWgt=  12.0000000  15.9949146  12.0000000  12.0000000  18.9984032  18.9984032  18.9984032  18.9984032  18.9984032  15.9949146
 NucSpn=           0           0           0           0           1           1           1           1           1           0
 AtZEff=  -0.0000000  -0.0000000  -0.0000000  -0.0000000  -0.0000000  -0.0000000  -0.0000000  -0.0000000  -0.0000000  -0.0000000
 NQMom=    0.0000000   0.0000000   0.0000000   0.0000000   0.0000000   0.0000000   0.0000000   0.0000000   0.0000000   0.0000000
 NMagM=    0.0000000   0.0000000   0.0000000   0.0000000   2.6288670   2.6288670   2.6288670   2.6288670   2.6288670   0.0000000
 AtZNuc=   6.0000000   8.0000000   6.0000000   6.0000000   9.0000000   9.0000000   9.0000000   9.0000000   9.0000000   8.0000000

  Atom        11
 IAtWgt=           1
 AtmWgt=   1.0078250
 NucSpn=           1
 AtZEff=  -0.0000000
 NQMom=    0.0000000
 NMagM=    2.7928460
 AtZNuc=   1.0000000
 Leave Link  101 at Sat May 24 05:01:48 2025, MaxMem=  3758096384 cpu:               0.2 elap:               0.2
 (Enter /apps/easybuild-2022/easybuild/software/Compiler/NVHPC/22.11-CUDA-11.7.0/Gaussian/g16c01-CUDA-11.7.0/g16/l103.exe)

 GradGradGradGradGradGradGradGradGradGradGradGradGradGradGradGradGradGrad
 Berny optimization.
 Initialization pass.
                           ----------------------------
                           !    Initial Parameters    !
                           ! (Angstroms and Degrees)  !
 --------------------------                            --------------------------
 ! Name  Definition              Value          Derivative Info.                !
 --------------------------------------------------------------------------------
 ! R1    R(1,2)                  1.2347         calculate D2E/DX2 analytically  !
 ! R2    R(1,3)                  1.555          calculate D2E/DX2 analytically  !
 ! R3    R(1,4)                  1.7165         calculate D2E/DX2 analytically  !
 ! R4    R(1,10)                 1.397          calculate D2E/DX2 analytically  !
 ! R5    R(3,8)                  1.2645         calculate D2E/DX2 analytically  !
 ! R6    R(3,9)                  1.2604         calculate D2E/DX2 analytically  !
 ! R7    R(4,5)                  1.3341         calculate D2E/DX2 analytically  !
 ! R8    R(4,6)                  1.3269         calculate D2E/DX2 analytically  !
 ! R9    R(4,7)                  1.3143         calculate D2E/DX2 analytically  !
 ! R10   R(10,11)                0.9643         calculate D2E/DX2 analytically  !
 ! A1    A(2,1,3)              118.6879         calculate D2E/DX2 analytically  !
 ! A2    A(2,1,4)              110.6473         calculate D2E/DX2 analytically  !
 ! A3    A(2,1,10)             122.3503         calculate D2E/DX2 analytically  !
 ! A4    A(3,1,4)               91.1349         calculate D2E/DX2 analytically  !
 ! A5    A(3,1,10)             105.422          calculate D2E/DX2 analytically  !
 ! A6    A(4,1,10)             103.1862         calculate D2E/DX2 analytically  !
 ! A7    A(1,3,8)              125.1786         calculate D2E/DX2 analytically  !
 ! A8    A(1,3,9)              119.7902         calculate D2E/DX2 analytically  !
 ! A9    A(8,3,9)              112.1582         calculate D2E/DX2 analytically  !
 ! A10   A(1,4,5)              115.5263         calculate D2E/DX2 analytically  !
 ! A11   A(1,4,6)              111.5014         calculate D2E/DX2 analytically  !
 ! A12   A(1,4,7)              103.3581         calculate D2E/DX2 analytically  !
 ! A13   A(5,4,6)              108.3017         calculate D2E/DX2 analytically  !
 ! A14   A(5,4,7)              108.5708         calculate D2E/DX2 analytically  !
 ! A15   A(6,4,7)              109.353          calculate D2E/DX2 analytically  !
 ! A16   A(1,10,11)            103.9828         calculate D2E/DX2 analytically  !
 ! D1    D(2,1,3,8)           -170.1037         calculate D2E/DX2 analytically  !
 ! D2    D(2,1,3,9)             30.6313         calculate D2E/DX2 analytically  !
 ! D3    D(4,1,3,8)             75.5107         calculate D2E/DX2 analytically  !
 ! D4    D(4,1,3,9)            -83.7543         calculate D2E/DX2 analytically  !
 ! D5    D(10,1,3,8)           -28.5026         calculate D2E/DX2 analytically  !
 ! D6    D(10,1,3,9)           172.2324         calculate D2E/DX2 analytically  !
 ! D7    D(2,1,4,5)           -178.5996         calculate D2E/DX2 analytically  !
 ! D8    D(2,1,4,6)            -54.3958         calculate D2E/DX2 analytically  !
 ! D9    D(2,1,4,7)             62.967          calculate D2E/DX2 analytically  !
 ! D10   D(3,1,4,5)            -57.2302         calculate D2E/DX2 analytically  !
 ! D11   D(3,1,4,6)             66.9736         calculate D2E/DX2 analytically  !
 ! D12   D(3,1,4,7)           -175.6636         calculate D2E/DX2 analytically  !
 ! D13   D(10,1,4,5)            48.9001         calculate D2E/DX2 analytically  !
 ! D14   D(10,1,4,6)           173.1039         calculate D2E/DX2 analytically  !
 ! D15   D(10,1,4,7)           -69.5333         calculate D2E/DX2 analytically  !
 ! D16   D(2,1,10,11)           -8.8573         calculate D2E/DX2 analytically  !
 ! D17   D(3,1,10,11)         -148.692          calculate D2E/DX2 analytically  !
 ! D18   D(4,1,10,11)          116.3898         calculate D2E/DX2 analytically  !
 --------------------------------------------------------------------------------
 Trust Radius=3.00D-01 FncErr=1.00D-07 GrdErr=1.00D-06 EigMax=2.50D+02 EigMin=1.00D-04
 Number of steps in this run=    100 maximum allowed number of steps=    100.
 Search for a saddle point of order  1.
 GradGradGradGradGradGradGradGradGradGradGradGradGradGradGradGradGradGrad

 Leave Link  103 at Sat May 24 05:01:48 2025, MaxMem=  3758096384 cpu:               0.0 elap:               0.0
 (Enter /apps/easybuild-2022/easybuild/software/Compiler/NVHPC/22.11-CUDA-11.7.0/Gaussian/g16c01-CUDA-11.7.0/g16/l202.exe)
                          Input orientation:                          
 ---------------------------------------------------------------------
 Center     Atomic      Atomic             Coordinates (Angstroms)
 Number     Number       Type             X           Y           Z
 ---------------------------------------------------------------------
      1          6           0        1.554991    0.000000    0.000000
      2          8           0        2.147703   -0.848875   -0.672782
      3          6           0        0.000000    0.000000    0.000000
      4          6           0        1.588988   -0.415562    1.665081
      5          9           0        0.948908    0.424258    2.480377
      6          9           0        1.115799   -1.638034    1.871014
      7          9           0        2.869841   -0.389150    1.958548
      8          9           0       -0.728485    0.908244    0.493190
      9          9           0       -0.626183   -1.083776   -0.147834
     10          8           0        1.926480    1.346662    0.000000
     11          1           0        2.759116    1.358676   -0.486233
 ---------------------------------------------------------------------
                    Distance matrix (angstroms):
                    1          2          3          4          5
     1  C    0.000000
     2  O    1.234720   0.000000
     3  C    1.554991   2.405380   0.000000
     4  C    1.716491   2.442443   2.338818   0.000000
     5  F    2.588359   3.605605   2.689366   1.334057   0.000000
     6  F    2.525220   2.856308   2.725593   1.326934   2.156902
     7  F    2.390854   2.767080   3.496189   1.314308   2.150331
     8  F    2.506473   3.566429   1.264450   2.914871   2.645146
     9  F    2.440070   2.832877   1.260369   2.939414   3.415050
    10  O    1.396962   2.306937   2.350494   2.447821   2.821125
    11  H    1.879452   2.298240   3.113702   3.024115   3.598717
                    6          7          8          9         10
     6  F    0.000000
     7  F    2.155003   0.000000
     8  F    3.432683   4.096152   0.000000
     9  F    2.723499   4.140234   2.095118   0.000000
    10  O    3.614735   2.781885   2.735742   3.527742   0.000000
    11  H    4.151792   3.007343   3.650413   4.188117   0.964287
                   11
    11  H    0.000000
 Symmetry turned off by external request.
 Stoichiometry    C3HF5O2
 Rotational constants (GHZ):           1.7484172           1.2749541           1.1847346
 Leave Link  202 at Sat May 24 05:01:48 2025, MaxMem=  3758096384 cpu:               0.0 elap:               0.0
 (Enter /apps/easybuild-2022/easybuild/software/Compiler/NVHPC/22.11-CUDA-11.7.0/Gaussian/g16c01-CUDA-11.7.0/g16/l301.exe)
 Standard basis: def2TZVPP (5D, 7F)
 Ernie: Thresh=  0.10000D-02 Tol=  0.10000D-05 Strict=F.
   324 basis functions,   527 primitive gaussians,   375 cartesian basis functions
    40 alpha electrons       40 beta electrons
       nuclear repulsion energy       641.9868389434 Hartrees.
 IExCor= 4336 DFT=T Ex+Corr=M062X ExCW=0 ScaHFX=  0.540000
 ScaDFX=  1.000000  1.000000  1.000000  1.000000 ScalE2=  1.000000  1.000000
 IRadAn=      5 IRanWt=     -1 IRanGd=            0 ICorTp=0 IEmpDi=  4
 NAtoms=   11 NActive=   11 NUniq=   11 SFac= 1.00D+00 NAtFMM=   60 NAOKFM=F Big=F
 Integral buffers will be    131072 words long.
 Raffenetti 2 integral format.
 Two-electron integral symmetry is turned off.
 Leave Link  301 at Sat May 24 05:01:48 2025, MaxMem=  3758096384 cpu:               0.0 elap:               0.0
 (Enter /apps/easybuild-2022/easybuild/software/Compiler/NVHPC/22.11-CUDA-11.7.0/Gaussian/g16c01-CUDA-11.7.0/g16/l302.exe)
 NPDir=0 NMtPBC=     1 NCelOv=     1 NCel=       1 NClECP=     1 NCelD=      1
         NCelK=      1 NCelE2=     1 NClLst=     1 CellRange=     0.0.
 One-electron integrals computed using PRISM.
   1 Symmetry operations used in ECPInt.
 ECPInt:  NShTT=    6786 NPrTT=   21959 LenC2=    6512 LenP2D=   16100.
 LDataN:  DoStor=T MaxTD1= 6 Len=  172
 NBasis=   324 RedAO= T EigKep=  3.21D-04  NBF=   324
 NBsUse=   324 1.00D-06 EigRej= -1.00D+00 NBFU=   324
 Precomputing XC quadrature grid using
 IXCGrd= 4 IRadAn=           5 IRanWt=          -1 IRanGd=           0 AccXCQ= 0.00D+00.
 Generated NRdTot=       0 NPtTot=           0 NUsed=           0 NTot=          32
 NSgBfM=   372   372   372   372   372 MxSgAt=    11 MxSgA2=    11.
 Leave Link  302 at Sat May 24 05:01:48 2025, MaxMem=  3758096384 cpu:               0.7 elap:               0.1
 (Enter /apps/easybuild-2022/easybuild/software/Compiler/NVHPC/22.11-CUDA-11.7.0/Gaussian/g16c01-CUDA-11.7.0/g16/l303.exe)
 DipDrv:  MaxL=1.
 Leave Link  303 at Sat May 24 05:01:48 2025, MaxMem=  3758096384 cpu:               0.1 elap:               0.0
 (Enter /apps/easybuild-2022/easybuild/software/Compiler/NVHPC/22.11-CUDA-11.7.0/Gaussian/g16c01-CUDA-11.7.0/g16/l401.exe)
 ExpMin= 9.52D-02 ExpMax= 3.55D+04 ExpMxC= 1.21D+03 IAcc=3 IRadAn=         5 AccDes= 0.00D+00
 Harris functional with IExCor= 1009 and IRadAn=       5 diagonalized for initial guess.
 HarFok:  IExCor= 1009 AccDes= 0.00D+00 IRadAn=         5 IDoV= 1 UseB2=F ITyADJ=14
 ICtDFT=  3500011 ScaDFX=  1.000000  1.000000  1.000000  1.000000
 FoFCou: FMM=F IPFlag=           0 FMFlag=      100000 FMFlg1=           0
         NFxFlg=           0 DoJE=T BraDBF=F KetDBF=T FulRan=T
         wScrn=  0.000000 ICntrl=       500 IOpCl=  0 I1Cent=   200000004 NGrid=           0
         NMat0=    1 NMatS0=      1 NMatT0=    0 NMatD0=    1 NMtDS0=    0 NMtDT0=    0
 Symmetry not used in FoFCou.
 Harris En= -764.136572163784    
 JPrj=0 DoOrth=F DoCkMO=F.
 Leave Link  401 at Sat May 24 05:01:49 2025, MaxMem=  3758096384 cpu:               3.7 elap:               0.5
 (Enter /apps/easybuild-2022/easybuild/software/Compiler/NVHPC/22.11-CUDA-11.7.0/Gaussian/g16c01-CUDA-11.7.0/g16/l502.exe)
 Keep R1 ints in memory in canonical form, NReq=1412617130.
 FoFCou: FMM=F IPFlag=           0 FMFlag=           0 FMFlg1=           0
         NFxFlg=           0 DoJE=F BraDBF=F KetDBF=F FulRan=T
         wScrn=  0.000000 ICntrl=       600 IOpCl=  0 I1Cent=           0 NGrid=           0
         NMat0=    1 NMatS0=  52650 NMatT0=    0 NMatD0=    1 NMtDS0=    0 NMtDT0=    0
 Symmetry not used in FoFCou.
 Two-electron integral symmetry not used.
 Closed shell SCF:
 Using DIIS extrapolation, IDIIS=  1040.
 NGot=  3758096384 LenX=  2371771924 LenY=  2371630858
 Requested convergence on RMS density matrix=1.00D-08 within  32 cycles.
 Requested convergence on MAX density matrix=1.00D-06.
 Requested convergence on             energy=1.00D-06.
 No special actions if energy rises.
 Integral accuracy reduced to 1.0D-05 until final iterations.

 Cycle   1  Pass 0  IDiag  1:
 E= -764.253226834153    
 DIIS: error= 2.14D-02 at cycle   1 NSaved=   1.
 NSaved= 1 IEnMin= 1 EnMin= -764.253226834153     IErMin= 1 ErrMin= 2.14D-02
 ErrMax= 2.14D-02  0.00D+00 EMaxC= 1.00D-01 BMatC= 4.57D-01 BMatP= 4.57D-01
 IDIUse=3 WtCom= 7.86D-01 WtEn= 2.14D-01
 Coeff-Com:  0.100D+01
 Coeff-En:   0.100D+01
 Coeff:      0.100D+01
 Gap=     0.078 Goal=   None    Shift=    0.000
 GapD=    0.078 DampG=0.500 DampE=0.500 DampFc=0.2500 IDamp=-1.
 Damping current iteration by 2.50D-01
 RMSDP=4.33D-03 MaxDP=2.22D-01              OVMax= 9.12D-01

 Cycle   2  Pass 0  IDiag  1:
 E= -764.272208947982     Delta-E=       -0.018982113829 Rises=F Damp=T
 DIIS: error= 1.22D-02 at cycle   2 NSaved=   2.
 NSaved= 2 IEnMin= 2 EnMin= -764.272208947982     IErMin= 2 ErrMin= 1.22D-02
 ErrMax= 1.22D-02  0.00D+00 EMaxC= 1.00D-01 BMatC= 9.75D-02 BMatP= 4.57D-01
 IDIUse=3 WtCom= 8.78D-01 WtEn= 1.22D-01
 Coeff-Com: -0.263D+00 0.126D+01
 Coeff-En:   0.442D+00 0.558D+00
 Coeff:     -0.177D+00 0.118D+01
 Gap=     0.029 Goal=   None    Shift=    0.000
 RMSDP=1.31D-03 MaxDP=6.21D-02 DE=-1.90D-02 OVMax= 7.95D-01

 Cycle   3  Pass 0  IDiag  1:
 E= -764.418197701650     Delta-E=       -0.145988753668 Rises=F Damp=F
 DIIS: error= 1.43D-02 at cycle   3 NSaved=   3.
 NSaved= 3 IEnMin= 3 EnMin= -764.418197701650     IErMin= 2 ErrMin= 1.22D-02
 ErrMax= 1.43D-02  0.00D+00 EMaxC= 1.00D-01 BMatC= 1.26D-01 BMatP= 9.75D-02
 IDIUse=2 WtCom= 0.00D+00 WtEn= 1.00D+00
 Coeff-En:   0.000D+00 0.000D+00 0.100D+01
 Coeff:      0.000D+00 0.000D+00 0.100D+01
 Gap=     0.104 Goal=   None    Shift=    0.000
 RMSDP=3.31D-03 MaxDP=1.65D-01 DE=-1.46D-01 OVMax= 7.09D-01

 Cycle   4  Pass 0  IDiag  1:
 E= -763.563083414464     Delta-E=        0.855114287186 Rises=F Damp=F
 DIIS: error= 3.90D-02 at cycle   4 NSaved=   4.
 NSaved= 4 IEnMin= 3 EnMin= -764.418197701650     IErMin= 2 ErrMin= 1.22D-02
 ErrMax= 3.90D-02  0.00D+00 EMaxC= 1.00D-01 BMatC= 1.03D+00 BMatP= 9.75D-02
 IDIUse=2 WtCom= 0.00D+00 WtEn= 1.00D+00
 Coeff-En:   0.000D+00 0.000D+00 0.868D+00 0.132D+00
 Coeff:      0.000D+00 0.000D+00 0.868D+00 0.132D+00
 Gap=     0.086 Goal=   None    Shift=    0.000
 RMSDP=2.21D-03 MaxDP=1.30D-01 DE= 8.55D-01 OVMax= 6.06D-01

 Cycle   5  Pass 0  IDiag  1:
 E= -764.483221327116     Delta-E=       -0.920137912651 Rises=F Damp=F
 DIIS: error= 9.49D-03 at cycle   5 NSaved=   5.
 NSaved= 5 IEnMin= 5 EnMin= -764.483221327116     IErMin= 5 ErrMin= 9.49D-03
 ErrMax= 9.49D-03  0.00D+00 EMaxC= 1.00D-01 BMatC= 6.22D-02 BMatP= 9.75D-02
 IDIUse=3 WtCom= 9.05D-01 WtEn= 9.49D-02
 Coeff-Com: -0.995D-01 0.180D+00 0.385D+00-0.458D-01 0.581D+00
 Coeff-En:   0.000D+00 0.000D+00 0.302D+00 0.000D+00 0.698D+00
 Coeff:     -0.901D-01 0.162D+00 0.377D+00-0.415D-01 0.592D+00
 Gap=     0.206 Goal=   None    Shift=    0.000
 RMSDP=6.45D-04 MaxDP=2.50D-02 DE=-9.20D-01 OVMax= 1.20D-01

 Cycle   6  Pass 0  IDiag  1:
 E= -764.528090903996     Delta-E=       -0.044869576881 Rises=F Damp=F
 DIIS: error= 1.88D-03 at cycle   6 NSaved=   6.
 NSaved= 6 IEnMin= 6 EnMin= -764.528090903996     IErMin= 6 ErrMin= 1.88D-03
 ErrMax= 1.88D-03  0.00D+00 EMaxC= 1.00D-01 BMatC= 1.33D-03 BMatP= 6.22D-02
 IDIUse=3 WtCom= 9.81D-01 WtEn= 1.88D-02
 Coeff-Com: -0.511D-01 0.687D-01 0.789D-01-0.180D-01 0.194D+00 0.728D+00
 Coeff-En:   0.000D+00 0.000D+00 0.000D+00 0.000D+00 0.000D+00 0.100D+01
 Coeff:     -0.501D-01 0.674D-01 0.774D-01-0.176D-01 0.190D+00 0.733D+00
 Gap=     0.210 Goal=   None    Shift=    0.000
 RMSDP=9.09D-05 MaxDP=3.67D-03 DE=-4.49D-02 OVMax= 1.08D-02

 Cycle   7  Pass 0  IDiag  1:
 E= -764.529013144764     Delta-E=       -0.000922240768 Rises=F Damp=F
 DIIS: error= 4.39D-04 at cycle   7 NSaved=   7.
 NSaved= 7 IEnMin= 7 EnMin= -764.529013144764     IErMin= 7 ErrMin= 4.39D-04
 ErrMax= 4.39D-04  0.00D+00 EMaxC= 1.00D-01 BMatC= 1.49D-04 BMatP= 1.33D-03
 IDIUse=3 WtCom= 9.96D-01 WtEn= 4.39D-03
 Coeff-Com: -0.188D-01 0.239D-01-0.191D-01-0.731D-03-0.352D-02 0.315D+00
 Coeff-Com:  0.704D+00
 Coeff-En:   0.000D+00 0.000D+00 0.000D+00 0.000D+00 0.000D+00 0.000D+00
 Coeff-En:   0.100D+01
 Coeff:     -0.187D-01 0.238D-01-0.190D-01-0.728D-03-0.350D-02 0.313D+00
 Coeff:      0.705D+00
 Gap=     0.211 Goal=   None    Shift=    0.000
 RMSDP=3.61D-05 MaxDP=1.53D-03 DE=-9.22D-04 OVMax= 4.31D-03

 Cycle   8  Pass 0  IDiag  1:
 E= -764.529148554427     Delta-E=       -0.000135409663 Rises=F Damp=F
 DIIS: error= 2.39D-04 at cycle   8 NSaved=   8.
 NSaved= 8 IEnMin= 8 EnMin= -764.529148554427     IErMin= 8 ErrMin= 2.39D-04
 ErrMax= 2.39D-04  0.00D+00 EMaxC= 1.00D-01 BMatC= 3.18D-05 BMatP= 1.49D-04
 IDIUse=3 WtCom= 9.98D-01 WtEn= 2.39D-03
 Coeff-Com: -0.811D-02 0.111D-01-0.161D-01 0.932D-03-0.171D-01 0.383D-01
 Coeff-Com:  0.236D+00 0.755D+00
 Coeff-En:   0.000D+00 0.000D+00 0.000D+00 0.000D+00 0.000D+00 0.000D+00
 Coeff-En:   0.000D+00 0.100D+01
 Coeff:     -0.810D-02 0.110D-01-0.161D-01 0.929D-03-0.171D-01 0.382D-01
 Coeff:      0.235D+00 0.756D+00
 Gap=     0.211 Goal=   None    Shift=    0.000
 RMSDP=1.63D-05 MaxDP=4.58D-04 DE=-1.35D-04 OVMax= 2.76D-03

 Cycle   9  Pass 0  IDiag  1:
 E= -764.529178674367     Delta-E=       -0.000030119940 Rises=F Damp=F
 DIIS: error= 1.14D-04 at cycle   9 NSaved=   9.
 NSaved= 9 IEnMin= 9 EnMin= -764.529178674367     IErMin= 9 ErrMin= 1.14D-04
 ErrMax= 1.14D-04  0.00D+00 EMaxC= 1.00D-01 BMatC= 8.40D-06 BMatP= 3.18D-05
 IDIUse=3 WtCom= 9.99D-01 WtEn= 1.14D-03
 Coeff-Com: -0.178D-02 0.291D-02-0.306D-02 0.245D-03-0.226D-02-0.517D-01
 Coeff-Com: -0.863D-01 0.222D+00 0.919D+00
 Coeff-En:   0.000D+00 0.000D+00 0.000D+00 0.000D+00 0.000D+00 0.000D+00
 Coeff-En:   0.000D+00 0.000D+00 0.100D+01
 Coeff:     -0.178D-02 0.291D-02-0.306D-02 0.245D-03-0.226D-02-0.516D-01
 Coeff:     -0.862D-01 0.222D+00 0.920D+00
 Gap=     0.211 Goal=   None    Shift=    0.000
 RMSDP=1.21D-05 MaxDP=4.40D-04 DE=-3.01D-05 OVMax= 2.42D-03

 Failed to achieve initial convergence to 1.0D-08 in 10 cycles.
 Switch to full accuracy anyway.
 Cycle  10  Pass 1  IDiag  1:
 E= -764.529105087635     Delta-E=        0.000073586732 Rises=F Damp=F
 DIIS: error= 2.50D-05 at cycle   1 NSaved=   1.
 NSaved= 1 IEnMin= 1 EnMin= -764.529105087635     IErMin= 1 ErrMin= 2.50D-05
 ErrMax= 2.50D-05  0.00D+00 EMaxC= 1.00D-01 BMatC= 1.00D-06 BMatP= 1.00D-06
 IDIUse=1 WtCom= 1.00D+00 WtEn= 0.00D+00
 Coeff-Com:  0.100D+01
 Coeff:      0.100D+01
 Gap=     0.211 Goal=   None    Shift=    0.000
 RMSDP=1.21D-05 MaxDP=4.40D-04 DE= 7.36D-05 OVMax= 1.06D-03

 Cycle  11  Pass 1  IDiag  1:
 E= -764.529105803778     Delta-E=       -0.000000716143 Rises=F Damp=F
 DIIS: error= 3.71D-05 at cycle   2 NSaved=   2.
 NSaved= 2 IEnMin= 2 EnMin= -764.529105803778     IErMin= 1 ErrMin= 2.50D-05
 ErrMax= 3.71D-05  0.00D+00 EMaxC= 1.00D-01 BMatC= 1.08D-06 BMatP= 1.00D-06
 IDIUse=1 WtCom= 1.00D+00 WtEn= 0.00D+00
 Coeff-Com:  0.512D+00 0.488D+00
 Coeff:      0.512D+00 0.488D+00
 Gap=     0.211 Goal=   None    Shift=    0.000
 RMSDP=2.96D-06 MaxDP=1.27D-04 DE=-7.16D-07 OVMax= 4.28D-04

 Cycle  12  Pass 1  IDiag  1:
 E= -764.529106652324     Delta-E=       -0.000000848545 Rises=F Damp=F
 DIIS: error= 9.80D-06 at cycle   3 NSaved=   3.
 NSaved= 3 IEnMin= 3 EnMin= -764.529106652324     IErMin= 3 ErrMin= 9.80D-06
 ErrMax= 9.80D-06  0.00D+00 EMaxC= 1.00D-01 BMatC= 5.60D-08 BMatP= 1.00D-06
 IDIUse=1 WtCom= 1.00D+00 WtEn= 0.00D+00
 Coeff-Com:  0.140D-03 0.144D+00 0.856D+00
 Coeff:      0.140D-03 0.144D+00 0.856D+00
 Gap=     0.211 Goal=   None    Shift=    0.000
 RMSDP=1.55D-06 MaxDP=5.93D-05 DE=-8.49D-07 OVMax= 3.44D-04

 Cycle  13  Pass 1  IDiag  1:
 E= -764.529106766240     Delta-E=       -0.000000113917 Rises=F Damp=F
 DIIS: error= 5.82D-06 at cycle   4 NSaved=   4.
 NSaved= 4 IEnMin= 4 EnMin= -764.529106766240     IErMin= 4 ErrMin= 5.82D-06
 ErrMax= 5.82D-06  0.00D+00 EMaxC= 1.00D-01 BMatC= 2.08D-08 BMatP= 5.60D-08
 IDIUse=1 WtCom= 1.00D+00 WtEn= 0.00D+00
 Coeff-Com: -0.588D-01 0.123D-01 0.434D+00 0.613D+00
 Coeff:     -0.588D-01 0.123D-01 0.434D+00 0.613D+00
 Gap=     0.211 Goal=   None    Shift=    0.000
 RMSDP=5.68D-07 MaxDP=1.73D-05 DE=-1.14D-07 OVMax= 1.46D-04

 Cycle  14  Pass 1  IDiag  1:
 E= -764.529106800513     Delta-E=       -0.000000034272 Rises=F Damp=F
 DIIS: error= 2.77D-06 at cycle   5 NSaved=   5.
 NSaved= 5 IEnMin= 5 EnMin= -764.529106800513     IErMin= 5 ErrMin= 2.77D-06
 ErrMax= 2.77D-06  0.00D+00 EMaxC= 1.00D-01 BMatC= 1.51D-09 BMatP= 2.08D-08
 IDIUse=1 WtCom= 1.00D+00 WtEn= 0.00D+00
 Coeff-Com:  0.444D-02-0.379D-01-0.233D+00-0.548D-01 0.132D+01
 Coeff:      0.444D-02-0.379D-01-0.233D+00-0.548D-01 0.132D+01
 Gap=     0.211 Goal=   None    Shift=    0.000
 RMSDP=6.23D-07 MaxDP=2.08D-05 DE=-3.43D-08 OVMax= 1.77D-04

 Cycle  15  Pass 1  IDiag  1:
 E= -764.529106812672     Delta-E=       -0.000000012160 Rises=F Damp=F
 DIIS: error= 1.01D-06 at cycle   6 NSaved=   6.
 NSaved= 6 IEnMin= 6 EnMin= -764.529106812672     IErMin= 6 ErrMin= 1.01D-06
 ErrMax= 1.01D-06  0.00D+00 EMaxC= 1.00D-01 BMatC= 3.81D-10 BMatP= 1.51D-09
 IDIUse=1 WtCom= 1.00D+00 WtEn= 0.00D+00
 Coeff-Com:  0.675D-02-0.211D-01-0.146D+00-0.773D-01 0.619D+00 0.618D+00
 Coeff:      0.675D-02-0.211D-01-0.146D+00-0.773D-01 0.619D+00 0.618D+00
 Gap=     0.211 Goal=   None    Shift=    0.000
 RMSDP=1.05D-07 MaxDP=3.61D-06 DE=-1.22D-08 OVMax= 2.85D-05

 Cycle  16  Pass 1  IDiag  1:
 E= -764.529106813350     Delta-E=       -0.000000000678 Rises=F Damp=F
 DIIS: error= 2.03D-07 at cycle   7 NSaved=   7.
 NSaved= 7 IEnMin= 7 EnMin= -764.529106813350     IErMin= 7 ErrMin= 2.03D-07
 ErrMax= 2.03D-07  0.00D+00 EMaxC= 1.00D-01 BMatC= 2.90D-11 BMatP= 3.81D-10
 IDIUse=1 WtCom= 1.00D+00 WtEn= 0.00D+00
 Coeff-Com:  0.123D-02-0.452D-03-0.880D-03-0.123D-01-0.582D-01 0.176D+00
 Coeff-Com:  0.895D+00
 Coeff:      0.123D-02-0.452D-03-0.880D-03-0.123D-01-0.582D-01 0.176D+00
 Coeff:      0.895D+00
 Gap=     0.211 Goal=   None    Shift=    0.000
 RMSDP=4.37D-08 MaxDP=1.38D-06 DE=-6.78D-10 OVMax= 1.08D-05

 Cycle  17  Pass 1  IDiag  1:
 E= -764.529106813429     Delta-E=       -0.000000000079 Rises=F Damp=F
 DIIS: error= 5.55D-08 at cycle   8 NSaved=   8.
 NSaved= 8 IEnMin= 8 EnMin= -764.529106813429     IErMin= 8 ErrMin= 5.55D-08
 ErrMax= 5.55D-08  0.00D+00 EMaxC= 1.00D-01 BMatC= 2.79D-12 BMatP= 2.90D-11
 IDIUse=1 WtCom= 1.00D+00 WtEn= 0.00D+00
 Coeff-Com: -0.221D-03 0.164D-02 0.117D-01 0.247D-02-0.716D-01 0.211D-01
 Coeff-Com:  0.329D+00 0.706D+00
 Coeff:     -0.221D-03 0.164D-02 0.117D-01 0.247D-02-0.716D-01 0.211D-01
 Coeff:      0.329D+00 0.706D+00
 Gap=     0.211 Goal=   None    Shift=    0.000
 RMSDP=7.23D-09 MaxDP=2.94D-07 DE=-7.89D-11 OVMax= 1.04D-06

 SCF Done:  E(RM062X) =  -764.529106813     A.U. after   17 cycles
            NFock= 17  Conv=0.72D-08     -V/T= 2.0036
 KE= 7.617580593334D+02 PE=-3.095818770820D+03 EE= 9.275447657297D+02
 Leave Link  502 at Sat May 24 05:02:19 2025, MaxMem=  3758096384 cpu:             128.4 elap:              30.0
 (Enter /apps/easybuild-2022/easybuild/software/Compiler/NVHPC/22.11-CUDA-11.7.0/Gaussian/g16c01-CUDA-11.7.0/g16/l508.exe)
 QCSCF skips out because SCF is already converged.
 Leave Link  508 at Sat May 24 05:02:19 2025, MaxMem=  3758096384 cpu:               0.0 elap:               0.0
 (Enter /apps/easybuild-2022/easybuild/software/Compiler/NVHPC/22.11-CUDA-11.7.0/Gaussian/g16c01-CUDA-11.7.0/g16/l801.exe)
 DoSCS=F DFT=T ScalE2(SS,OS)=  1.000000  1.000000
 Range of M.O.s used for correlation:     1   324
 NBasis=   324 NAE=    40 NBE=    40 NFC=     0 NFV=     0
 NROrb=    324 NOA=    40 NOB=    40 NVA=   284 NVB=   284

 **** Warning!!: The largest alpha MO coefficient is  0.13998336D+02

 Leave Link  801 at Sat May 24 05:02:19 2025, MaxMem=  3758096384 cpu:               0.0 elap:               0.0
 (Enter /apps/easybuild-2022/easybuild/software/Compiler/NVHPC/22.11-CUDA-11.7.0/Gaussian/g16c01-CUDA-11.7.0/g16/l1101.exe)
 Using compressed storage, NAtomX=    11.
 Will process     12 centers per pass.
   1 Symmetry operations used in ECPInt.
 ECPInt:  NShTT=    6786 NPrTT=   21959 LenC2=    6512 LenP2D=   16100.
 LDataN:  DoStor=T MaxTD1= 7 Len=  274
 Leave Link 1101 at Sat May 24 05:02:19 2025, MaxMem=  3758096384 cpu:               0.9 elap:               0.2
 (Enter /apps/easybuild-2022/easybuild/software/Compiler/NVHPC/22.11-CUDA-11.7.0/Gaussian/g16c01-CUDA-11.7.0/g16/l1102.exe)
 Symmetrizing basis deriv contribution to polar:
 IMax=3 JMax=2 DiffMx= 0.00D+00
 Leave Link 1102 at Sat May 24 05:02:19 2025, MaxMem=  3758096384 cpu:               0.0 elap:               0.0
 (Enter /apps/easybuild-2022/easybuild/software/Compiler/NVHPC/22.11-CUDA-11.7.0/Gaussian/g16c01-CUDA-11.7.0/g16/l1110.exe)
 Forming Gx(P) for the SCF density, NAtomX=    11.
 Integral derivatives from FoFJK, PRISM(SPDF).
 Do as many integral derivatives as possible in FoFJK.
 G2DrvN: MDV=    3758095115.
 G2DrvN: will do    12 centers at a time, making    1 passes.
 Calling FoFCou, ICntrl=  3107 FMM=F I1Cent=   0 AccDes= 0.00D+00.
 FoFJK:  IHMeth= 1 ICntrl=    3107 DoSepK=F KAlg= 0 I1Cent=           0 FoldK=F
 IRaf=         0 NMat=       1 IRICut=       1 DoRegI=T DoRafI=F ISym2E= 0 IDoP0=0 IntGTp=1.
 FoFCou: FMM=F IPFlag=           0 FMFlag=      100000 FMFlg1=           0
         NFxFlg=           0 DoJE=F BraDBF=F KetDBF=F FulRan=T
         wScrn=  0.000000 ICntrl=      3107 IOpCl=  0 I1Cent=           0 NGrid=           0
         NMat0=    1 NMatS0=      1 NMatT0=    0 NMatD0=    1 NMtDS0=    0 NMtDT0=    0
 Symmetry not used in FoFCou.
 End of G2Drv F.D. properties file   721 does not exist.
 End of G2Drv F.D. properties file   722 does not exist.
 End of G2Drv F.D. properties file   788 does not exist.
 Leave Link 1110 at Sat May 24 05:03:02 2025, MaxMem=  3758096384 cpu:             338.8 elap:              42.8
 (Enter /apps/easybuild-2022/easybuild/software/Compiler/NVHPC/22.11-CUDA-11.7.0/Gaussian/g16c01-CUDA-11.7.0/g16/l1002.exe)
 Minotr:  Closed shell wavefunction.
          IDoAtm=11111111111
          Direct CPHF calculation.
          Differentiating once with respect to electric field.
                with respect to dipole field.
          Differentiating once with respect to nuclear coordinates.
          Requested convergence is 1.0D-08 RMS, and 1.0D-07 maximum.
          Secondary convergence is 1.0D-12 RMS, and 1.0D-12 maximum.
          NewPWx=T KeepS1=F KeepF1=F KeepIn=T MapXYZ=F SortEE=F KeepMc=T.
         3293 words used for storage of precomputed grid.
 Keep R1 ints in memory in canonical form, NReq=1412622523.
 FoFCou: FMM=F IPFlag=           0 FMFlag=           0 FMFlg1=           0
         NFxFlg=           0 DoJE=F BraDBF=F KetDBF=F FulRan=T
         wScrn=  0.000000 ICntrl=       600 IOpCl=  0 I1Cent=           0 NGrid=           0
         NMat0=    1 NMatS0=  52650 NMatT0=    0 NMatD0=    1 NMtDS0=    0 NMtDT0=    0
 Symmetry not used in FoFCou.
 Two-electron integral symmetry not used.
          MDV=    3758096384 using IRadAn=       1.
          Solving linear equations simultaneously, MaxMat=       0.
          There are    36 degrees of freedom in the 1st order CPHF.  IDoFFX=6 NUNeed=     3.
     33 vectors produced by pass  0 Test12= 3.16D-14 2.78D-09 XBig12= 3.90D+01 4.51D+00.
 AX will form    33 AO Fock derivatives at one time.
     33 vectors produced by pass  1 Test12= 3.16D-14 2.78D-09 XBig12= 4.70D+00 4.14D-01.
     33 vectors produced by pass  2 Test12= 3.16D-14 2.78D-09 XBig12= 1.29D-01 6.11D-02.
     33 vectors produced by pass  3 Test12= 3.16D-14 2.78D-09 XBig12= 3.18D-03 7.52D-03.
     33 vectors produced by pass  4 Test12= 3.16D-14 2.78D-09 XBig12= 5.35D-05 1.05D-03.
     33 vectors produced by pass  5 Test12= 3.16D-14 2.78D-09 XBig12= 5.40D-07 8.98D-05.
     33 vectors produced by pass  6 Test12= 3.16D-14 2.78D-09 XBig12= 4.07D-09 8.65D-06.
     15 vectors produced by pass  7 Test12= 3.16D-14 2.78D-09 XBig12= 2.25D-11 5.65D-07.
      3 vectors produced by pass  8 Test12= 3.16D-14 2.78D-09 XBig12= 1.16D-13 4.07D-08.
      1 vectors produced by pass  9 Test12= 3.16D-14 2.78D-09 XBig12= 5.90D-16 3.35D-09.
 InvSVY:  IOpt=1 It=  1 EMax= 4.44D-15
 Solved reduced A of dimension   250 with    36 vectors.
 FullF1:  Do perturbations      1 to       3.
 Isotropic polarizability for W=    0.000000       51.14 Bohr**3.
 End of Minotr F.D. properties file   721 does not exist.
 End of Minotr F.D. properties file   722 does not exist.
 End of Minotr F.D. properties file   788 does not exist.
 Leave Link 1002 at Sat May 24 05:04:14 2025, MaxMem=  3758096384 cpu:             559.0 elap:              72.1
 (Enter /apps/easybuild-2022/easybuild/software/Compiler/NVHPC/22.11-CUDA-11.7.0/Gaussian/g16c01-CUDA-11.7.0/g16/l701.exe)
 ... and contract with generalized density number  0.
 Compute integral second derivatives.
   1 Symmetry operations used in ECPInt.
 ECPInt:  NShTT=    6786 NPrTT=   21959 LenC2=    6512 LenP2D=   16100.
 LDataN:  DoStor=T MaxTD1= 8 Len=  415
 Leave Link  701 at Sat May 24 05:04:14 2025, MaxMem=  3758096384 cpu:               0.8 elap:               0.1
 (Enter /apps/easybuild-2022/easybuild/software/Compiler/NVHPC/22.11-CUDA-11.7.0/Gaussian/g16c01-CUDA-11.7.0/g16/l702.exe)
 L702 exits ... SP integral derivatives will be done elsewhere.
 Leave Link  702 at Sat May 24 05:04:14 2025, MaxMem=  3758096384 cpu:               0.0 elap:               0.0
 (Enter /apps/easybuild-2022/easybuild/software/Compiler/NVHPC/22.11-CUDA-11.7.0/Gaussian/g16c01-CUDA-11.7.0/g16/l703.exe)
 Integral derivatives from FoFJK, PRISM(SPDF).
 Compute integral second derivatives, UseDBF=F ICtDFT=           0.
 Calling FoFJK, ICntrl=    100127 FMM=F ISym2X=0 I1Cent= 0 IOpClX= 0 NMat=1 NMatS=1 NMatT=0.
 FoFJK:  IHMeth= 1 ICntrl=  100127 DoSepK=F KAlg= 0 I1Cent=           0 FoldK=F
 IRaf=         0 NMat=       1 IRICut=       1 DoRegI=T DoRafI=F ISym2E= 0 IDoP0=0 IntGTp=1.
 FoFCou: FMM=F IPFlag=           0 FMFlag=      100000 FMFlg1=         800
         NFxFlg=           0 DoJE=F BraDBF=F KetDBF=F FulRan=T
         wScrn=  0.000000 ICntrl=    100127 IOpCl=  0 I1Cent=           0 NGrid=           0
         NMat0=    1 NMatS0=      1 NMatT0=    0 NMatD0=    1 NMtDS0=    0 NMtDT0=    0
 Symmetry not used in FoFCou.
 Leave Link  703 at Sat May 24 05:06:09 2025, MaxMem=  3758096384 cpu:             909.4 elap:             114.6
 (Enter /apps/easybuild-2022/easybuild/software/Compiler/NVHPC/22.11-CUDA-11.7.0/Gaussian/g16c01-CUDA-11.7.0/g16/l716.exe)
 Dipole        =-1.24388054D+00 6.63129424D-01-1.05411830D-01
 Polarizability= 5.94041393D+01-2.23118541D+00 4.64233609D+01
                 3.29086711D+00 2.23554383D-01 4.75790881D+01
 -------------------------------------------------------------------
 Center     Atomic                   Forces (Hartrees/Bohr)
 Number     Number              X              Y              Z
 -------------------------------------------------------------------
      1        6          -0.000009946    0.000000971    0.000014822
      2        8           0.000004498   -0.000006831   -0.000005028
      3        6           0.000050871    0.000017383    0.000016631
      4        6           0.000001134    0.000016142    0.000005036
      5        9          -0.000017484    0.000010126   -0.000003945
      6        9          -0.000007218   -0.000021947   -0.000033517
      7        9           0.000010335   -0.000005214    0.000000753
      8        9          -0.000022307    0.000014168   -0.000001525
      9        9          -0.000013016   -0.000032197    0.000008096
     10        8          -0.000004674    0.000001105   -0.000007307
     11        1           0.000007806    0.000006294    0.000005984
 -------------------------------------------------------------------
 Cartesian Forces:  Max     0.000050871 RMS     0.000015827
 Force constants in Cartesian coordinates: 
                1             2             3             4             5 
      1  0.390106D+00
      2 -0.395168D-01  0.603286D+00
      3 -0.187904D+00  0.184664D+00  0.277372D+00
      4 -0.183676D+00  0.145281D+00  0.132914D+00  0.221755D+00
      5  0.119022D+00 -0.308135D+00 -0.162259D+00 -0.202766D+00  0.373850D+00
      6  0.127247D+00 -0.183662D+00 -0.205164D+00 -0.174032D+00  0.233584D+00
      7 -0.432659D-01 -0.499427D-01  0.100168D+00 -0.480015D-01  0.364162D-01
      8 -0.331630D-01 -0.351712D-01  0.576527D-02  0.350176D-01 -0.218895D-01
      9  0.660210D-01 -0.388401D-02 -0.563476D-01  0.230752D-01 -0.326946D-03
     10 -0.398917D-01  0.165279D-01 -0.823766D-01 -0.135848D-01  0.123378D-01
     11 -0.204088D-01 -0.160251D-01  0.870339D-03  0.162233D-01 -0.140206D-01
     12  0.444860D-01  0.150988D-02  0.149320D-01  0.568494D-02 -0.170942D-01
     13  0.641505D-02  0.200731D-02  0.997459D-02 -0.722162D-03  0.353652D-03
     14 -0.389399D-03 -0.588162D-02  0.188483D-02  0.824001D-03  0.154102D-02
     15 -0.113842D-02 -0.248494D-01  0.601928D-02  0.906394D-02 -0.498670D-02
     16  0.678837D-02 -0.622585D-02  0.113368D-01  0.125212D-02  0.824371D-04
     17  0.736009D-02 -0.235139D-01 -0.110798D-01 -0.439181D-02  0.122558D-01
     18 -0.220287D-02  0.226489D-01  0.474887D-02  0.148777D-02 -0.295221D-02
     19 -0.455361D-01  0.469704D-02 -0.119864D-01  0.124483D-01 -0.389983D-02
     20  0.107020D-01 -0.179238D-02  0.409199D-02 -0.407662D-02  0.364094D-02
     21 -0.486584D-01  0.617970D-02 -0.304350D-01  0.225857D-02  0.115315D-02
     22  0.177240D-01  0.305201D-01  0.622798D-02 -0.159231D-01  0.448042D-02
     23  0.133410D-01 -0.150434D-01  0.186757D-01 -0.729584D-04  0.331907D-02
     24 -0.189256D-01 -0.128077D-01  0.297986D-01  0.595841D-02 -0.651176D-02
     25  0.866491D-02 -0.364030D-01 -0.168242D-01  0.218225D-02  0.654730D-02
     26  0.293676D-02 -0.716519D-02 -0.458369D-01  0.289463D-02  0.111072D-01
     27 -0.181338D-01 -0.362825D-02  0.174060D-01 -0.115456D-02 -0.252033D-02
     28 -0.104018D+00 -0.576345D-01  0.287697D-01  0.244908D-01  0.208446D-01
     29 -0.806751D-02 -0.182905D+00 -0.265460D-01  0.384572D-02 -0.660368D-01
     30  0.373817D-01  0.865201D-02 -0.626412D-01 -0.521293D-02 -0.358565D-01
     31 -0.133115D-01 -0.931013D-02  0.970060D-02 -0.221082D-03  0.658158D-02
     32 -0.518163D-01 -0.765337D-02  0.297696D-01  0.722142D-02  0.436750D-02
     33  0.182792D-02  0.517685D-02  0.431107D-02 -0.432285D-04 -0.222927D-02
                6             7             8             9            10 
      6  0.250093D+00
      7 -0.178551D-02  0.580781D+00
      8 -0.196106D-01  0.489704D-01  0.682883D+00
      9  0.138112D-01 -0.143230D+00  0.153325D+00  0.239965D+00
     10  0.405953D-01  0.225714D-01  0.101749D-01 -0.377257D-01  0.577132D+00
     11 -0.219894D-01  0.311202D-01  0.274941D-01  0.634426D-02 -0.961079D-03
     12 -0.385519D-01 -0.102389D+00  0.627321D-02 -0.128697D-02  0.324553D-01
     13 -0.412452D-03 -0.139071D-01  0.346735D-02  0.746800D-02 -0.110349D+00
     14 -0.228916D-02  0.544459D-02 -0.521806D-02 -0.983419D-02  0.567446D-01
     15 -0.161287D-01  0.147377D-01  0.196156D-02 -0.200566D-01  0.696556D-01
     16 -0.367954D-02 -0.109068D-01 -0.628740D-02  0.248691D-02 -0.934778D-01
     17  0.253060D-02 -0.144204D-01 -0.153038D-01  0.119818D-01 -0.709590D-01
     18  0.707548D-03  0.100905D-01  0.349953D-02 -0.108251D-01  0.197364D-01
     19  0.202181D-02  0.174599D-01  0.253295D-02 -0.700757D-02 -0.318511D+00
     20  0.535890D-04 -0.556939D-02 -0.403702D-02  0.242222D-02  0.550144D-02
     21  0.461542D-02  0.236449D-01  0.257910D-02 -0.103919D-01 -0.834914D-01
     22  0.616416D-02 -0.252521D+00  0.158812D+00  0.963477D-01 -0.100175D-01
     23 -0.602563D-02  0.150107D+00 -0.250481D+00 -0.110936D+00  0.107590D-01
     24 -0.126669D-01  0.116389D+00 -0.119102D+00 -0.101794D+00  0.135758D-01
     25  0.689162D-02 -0.222541D+00 -0.175995D+00 -0.173280D-01 -0.879501D-02
     26  0.187838D-01 -0.189459D+00 -0.351109D+00 -0.449677D-01 -0.165027D-01
     27 -0.601430D-02  0.729923D-03 -0.368047D-01 -0.518179D-01  0.547701D-02
     28 -0.258531D-02 -0.254513D-01 -0.410147D-01  0.998506D-02 -0.824252D-02
     29 -0.173546D-01 -0.136255D-01 -0.206881D-01 -0.679129D-02 -0.207025D-01
     30  0.133734D-01 -0.158441D-01  0.556901D-02  0.712905D-03  0.169713D-01
     31 -0.424618D-03 -0.421854D-02 -0.251529D-02 -0.929524D-04  0.316506D-02
     32 -0.402033D-02  0.958751D-03 -0.647965D-02  0.266688D-02 -0.292037D-02
     33 -0.407423D-02 -0.251141D-02 -0.345588D-02 -0.196939D-02  0.512706D-02
               11            12            13            14            15 
     11  0.550271D+00
     12  0.274003D-01  0.429733D+00
     13  0.554697D-01  0.573577D-01  0.159783D+00
     14 -0.147084D+00 -0.869435D-01 -0.103683D+00  0.220075D+00
     15 -0.902908D-01 -0.184347D+00 -0.938167D-01  0.132987D+00  0.182895D+00
     16 -0.612795D-01  0.108400D-01  0.156600D-01  0.126754D-01 -0.207267D-02
     17 -0.273409D+00  0.557830D-01  0.444476D-02 -0.733946D-01 -0.156483D-01
     18  0.551979D-01 -0.922483D-01 -0.296659D-02 -0.382033D-01  0.903982D-02
     19 -0.151583D-02 -0.706898D-01 -0.637732D-01  0.307556D-01  0.136582D-01
     20 -0.737373D-01  0.341621D-03  0.392218D-01  0.126659D-02 -0.205792D-02
     21 -0.256160D-02 -0.909704D-01  0.356970D-01 -0.745205D-02  0.124037D-01
     22 -0.235733D-02  0.166069D-01  0.397639D-02 -0.231559D-02 -0.720498D-02
     23  0.465719D-03 -0.214899D-01 -0.574412D-02  0.372269D-02  0.439614D-02
     24  0.247907D-02 -0.210203D-01 -0.100801D-01  0.678947D-02  0.650195D-02
     25 -0.851927D-02  0.148002D-01  0.257170D-02 -0.528049D-03 -0.409630D-02
     26 -0.198562D-01  0.268354D-01  0.380362D-02 -0.827159D-04 -0.701078D-02
     27  0.125136D-02 -0.447694D-02 -0.990983D-03  0.139817D-02  0.240303D-02
     28 -0.878572D-02 -0.101321D-01  0.647748D-03  0.256486D-03  0.177177D-02
     29 -0.317123D-01  0.798575D-02  0.274389D-03  0.491332D-02  0.637173D-02
     30  0.185653D-01 -0.114440D-01 -0.156752D-02  0.146297D-02  0.110311D-02
     31  0.101425D-02  0.980233D-03 -0.302217D-03  0.215849D-03 -0.558143D-03
     32 -0.238658D-02 -0.601510D-03  0.384970D-03  0.142803D-03 -0.872600D-03
     33  0.273325D-02 -0.318212D-03 -0.662868D-03  0.199734D-03  0.166557D-03
               16            17            18            19            20 
     16  0.125540D+00
     17  0.113501D+00  0.383460D+00
     18 -0.161491D-01 -0.399118D-01  0.762465D-01
     19 -0.488630D-01 -0.406230D-01 -0.596192D-02  0.445972D+00
     20 -0.595900D-01 -0.138965D-01 -0.923416D-02  0.860915D-02  0.819975D-01
     21  0.506737D-02 -0.204603D-02  0.141075D-01  0.722247D-01  0.633260D-02
     22  0.218966D-02  0.291593D-02 -0.313814D-02 -0.291022D-02  0.791007D-03
     23 -0.178303D-02 -0.153231D-02  0.310895D-02  0.359735D-02 -0.608162D-03
     24 -0.217333D-02 -0.389171D-02  0.414576D-02  0.427068D-02 -0.158193D-02
     25  0.166185D-02  0.513086D-02 -0.451540D-02 -0.319460D-02  0.167251D-02
     26  0.828922D-02  0.101520D-01 -0.224005D-02 -0.626987D-02  0.338474D-02
     27 -0.414521D-02 -0.370463D-02 -0.366933D-03  0.169406D-02 -0.825836D-03
     28  0.305075D-03 -0.410220D-02  0.508656D-02  0.810382D-02  0.286667D-02
     29  0.338851D-03 -0.399491D-02  0.707725D-02  0.117648D-02  0.365309D-02
     30 -0.949187D-03  0.569841D-02 -0.482606D-02  0.350998D-02  0.115348D-02
     31 -0.149594D-03  0.114384D-02 -0.146722D-02 -0.119605D-02 -0.128590D-03
     32  0.278927D-03 -0.823021D-03  0.100895D-02  0.940007D-03  0.128486D-03
     33 -0.562125D-03  0.288403D-03 -0.729506D-03 -0.173367D-02 -0.695650D-03
               21            22            23            24            25 
     21  0.880631D-01
     22 -0.498798D-02  0.221083D+00
     23  0.509494D-02 -0.184984D+00  0.345267D+00
     24  0.660119D-02 -0.105313D+00  0.151694D+00  0.909297D-01
     25 -0.460233D-02  0.359398D-01  0.169761D-01  0.780555D-03  0.195678D+00
     26 -0.811764D-02 -0.797869D-03 -0.924089D-01 -0.239031D-01  0.196919D+00
     27  0.293424D-02 -0.516238D-02 -0.415274D-01 -0.692605D-03  0.232544D-01
     28  0.319804D-02 -0.585252D-03 -0.179275D-02 -0.385920D-02 -0.121712D-01
     29 -0.108230D-02 -0.812154D-02  0.688098D-02  0.765894D-02 -0.395642D-02
     30  0.318962D-02  0.486730D-03 -0.274055D-02 -0.161164D-02  0.425045D-02
     31 -0.350409D-03  0.104376D-02 -0.403339D-03 -0.623081D-03  0.284827D-05
     32 -0.798543D-04  0.105736D-02  0.418614D-03 -0.823217D-03 -0.184469D-02
     33 -0.117313D-03 -0.267192D-04 -0.249659D-03 -0.192211D-03 -0.261105D-02
               26            27            28            29            30 
     26  0.450628D+00
     27  0.818590D-01  0.390897D-01
     28 -0.242625D-02 -0.173790D-02  0.502484D+00
     29 -0.465661D-02  0.575987D-02  0.677049D-01  0.333131D+00
     30  0.560568D-02  0.764181D-03 -0.261251D+00  0.122020D-01  0.196129D+00
     31  0.612402D-03  0.169406D-03 -0.385563D+00 -0.188670D-01  0.222224D+00
     32  0.711198D-05 -0.125731D-02  0.240835D-01 -0.385851D-01 -0.203118D-01
     33 -0.100772D-02  0.771595D-03  0.230754D+00  0.471868D-02 -0.134749D+00
               31            32            33 
     31  0.400751D+00
     32  0.216564D-01  0.508632D-01
     33 -0.229558D+00 -0.547875D-02  0.136901D+00
 FormGI is forming the generalized inverse of G from B-inverse, IUseBI=4.
 Leave Link  716 at Sat May 24 05:06:09 2025, MaxMem=  3758096384 cpu:               0.0 elap:               0.0
 (Enter /apps/easybuild-2022/easybuild/software/Compiler/NVHPC/22.11-CUDA-11.7.0/Gaussian/g16c01-CUDA-11.7.0/g16/l103.exe)

 GradGradGradGradGradGradGradGradGradGradGradGradGradGradGradGradGradGrad
 Berny optimization.
 Red2BG is reusing G-inverse.
 Internal  Forces:  Max     0.000058188 RMS     0.000018271
 Search for a saddle point.
 Step number   1 out of a maximum of  100
 All quantities printed in internal units (Hartrees-Bohrs-Radians)
 Swapping is turned off.
 Second derivative matrix not updated -- analytic derivatives used.
 ITU=  0
     Eigenvalues ---   -0.03720   0.00273   0.00298   0.00862   0.02731
     Eigenvalues ---    0.07122   0.08249   0.09668   0.10270   0.11397
     Eigenvalues ---    0.12986   0.15502   0.15951   0.17557   0.22123
     Eigenvalues ---    0.22965   0.27183   0.29009   0.35897   0.37574
     Eigenvalues ---    0.38960   0.40678   0.49383   0.53704   0.57927
     Eigenvalues ---    0.64999   0.73909
 Eigenvectors required to have negative eigenvalues:
                          R3        R2        D17       A4        D5
   1                    0.54171  -0.44875  -0.30965  -0.25883   0.21047
                          D6        A12       D2        D1        D16
   1                    0.19939  -0.18989  -0.18433  -0.17325   0.15826
 RFO step:  Lambda0=1.130143510D-09 Lambda=-1.40493591D-07.
 Linear search not attempted -- option 19 set.
 Iteration  1 RMS(Cart)=  0.00101731 RMS(Int)=  0.00000057
 Iteration  2 RMS(Cart)=  0.00000059 RMS(Int)=  0.00000001
 ITry= 1 IFail=0 DXMaxC= 3.03D-03 DCOld= 1.00D+10 DXMaxT= 3.00D-01 DXLimC= 3.00D+00 Rises=F
 Variable       Old X    -DE/DX   Delta X   Delta X   Delta X     New X
                                 (Linear)    (Quad)   (Total)
    R1        2.33328   0.00001   0.00000   0.00004   0.00004   2.33332
    R2        2.93851  -0.00001   0.00000   0.00019   0.00019   2.93869
    R3        3.24370  -0.00003   0.00000  -0.00048  -0.00048   3.24322
    R4        2.63987   0.00000   0.00000   0.00003   0.00003   2.63990
    R5        2.38946   0.00002   0.00000  -0.00001  -0.00001   2.38946
    R6        2.38175   0.00003   0.00000   0.00006   0.00006   2.38181
    R7        2.52100   0.00001   0.00000   0.00011   0.00011   2.52112
    R8        2.50754   0.00002   0.00000  -0.00003  -0.00003   2.50751
    R9        2.48368   0.00001   0.00000   0.00003   0.00003   2.48371
   R10        1.82224   0.00001   0.00000   0.00001   0.00001   1.82224
    A1        2.07149   0.00001   0.00000   0.00011   0.00011   2.07161
    A2        1.93116   0.00000   0.00000  -0.00009  -0.00009   1.93107
    A3        2.13542  -0.00001   0.00000  -0.00002  -0.00002   2.13539
    A4        1.59060  -0.00005   0.00000   0.00002   0.00002   1.59062
    A5        1.83996   0.00001   0.00000  -0.00025  -0.00025   1.83971
    A6        1.80094   0.00003   0.00000   0.00029   0.00029   1.80122
    A7        2.18478   0.00002   0.00000   0.00009   0.00009   2.18487
    A8        2.09073  -0.00001   0.00000  -0.00001  -0.00001   2.09072
    A9        1.95753  -0.00001   0.00000  -0.00005  -0.00005   1.95748
   A10        2.01631  -0.00001   0.00000   0.00013   0.00013   2.01644
   A11        1.94607  -0.00006   0.00000  -0.00040  -0.00040   1.94567
   A12        1.80394   0.00001   0.00000   0.00022   0.00022   1.80416
   A13        1.89022   0.00003   0.00000   0.00004   0.00004   1.89026
   A14        1.89492   0.00001   0.00000   0.00001   0.00000   1.89492
   A15        1.90857   0.00001   0.00000   0.00003   0.00003   1.90860
   A16        1.81484   0.00001   0.00000   0.00007   0.00007   1.81491
    D1       -2.96887  -0.00001   0.00000   0.00131   0.00131  -2.96756
    D2        0.53462  -0.00000   0.00000   0.00120   0.00120   0.53582
    D3        1.31791   0.00002   0.00000   0.00137   0.00137   1.31928
    D4       -1.46179   0.00002   0.00000   0.00126   0.00126  -1.46053
    D5       -0.49746   0.00000   0.00000   0.00109   0.00109  -0.49637
    D6        3.00602   0.00001   0.00000   0.00098   0.00098   3.00701
    D7       -3.11715   0.00002   0.00000   0.00149   0.00149  -3.11566
    D8       -0.94939   0.00000   0.00000   0.00130   0.00130  -0.94809
    D9        1.09898   0.00000   0.00000   0.00127   0.00127   1.10025
   D10       -0.99886   0.00001   0.00000   0.00160   0.00160  -0.99726
   D11        1.16891  -0.00000   0.00000   0.00141   0.00141   1.17032
   D12       -3.06591  -0.00001   0.00000   0.00138   0.00138  -3.06453
   D13        0.85347   0.00001   0.00000   0.00137   0.00137   0.85483
   D14        3.02123  -0.00000   0.00000   0.00118   0.00118   3.02241
   D15       -1.21359  -0.00001   0.00000   0.00115   0.00115  -1.21244
   D16       -0.15459  -0.00000   0.00000  -0.00104  -0.00104  -0.15563
   D17       -2.59516  -0.00002   0.00000  -0.00088  -0.00088  -2.59604
   D18        2.03138   0.00002   0.00000  -0.00091  -0.00091   2.03047
         Item               Value     Threshold  Converged?
 Maximum Force            0.000058     0.000450     YES
 RMS     Force            0.000018     0.000300     YES
 Maximum Displacement     0.003026     0.001800     NO 
 RMS     Displacement     0.001017     0.001200     YES
 Predicted change in Energy=-6.968172D-08
 Lowest energy point so far.  Saving SCF results.
 GradGradGradGradGradGradGradGradGradGradGradGradGradGradGradGradGradGrad

 Leave Link  103 at Sat May 24 05:06:09 2025, MaxMem=  3758096384 cpu:               0.1 elap:               0.0
 (Enter /apps/easybuild-2022/easybuild/software/Compiler/NVHPC/22.11-CUDA-11.7.0/Gaussian/g16c01-CUDA-11.7.0/g16/l202.exe)
                          Input orientation:                          
 ---------------------------------------------------------------------
 Center     Atomic      Atomic             Coordinates (Angstroms)
 Number     Number       Type             X           Y           Z
 ---------------------------------------------------------------------
      1          6           0        1.554992   -0.000126    0.000054
      2          8           0        2.147544   -0.849135   -0.672742
      3          6           0       -0.000097    0.000282    0.000216
      4          6           0        1.589075   -0.415703    1.664866
      5          9           0        0.947709    0.423175    2.480219
      6          9           0        1.117112   -1.638750    1.870086
      7          9           0        2.869790   -0.388005    1.958883
      8          9           0       -0.728383    0.909313    0.492241
      9          9           0       -0.626587   -1.083543   -0.146233
     10          8           0        1.926500    1.346546   -0.000307
     11          1           0        2.759502    1.358388   -0.485922
 ---------------------------------------------------------------------
                    Distance matrix (angstroms):
                    1          2          3          4          5
     1  C    0.000000
     2  O    1.234742   0.000000
     3  C    1.555089   2.405565   0.000000
     4  C    1.716236   2.442163   2.338712   0.000000
     5  F    2.588281   3.605487   2.688418   1.334117   0.000000
     6  F    2.524648   2.855040   2.725986   1.326917   2.156965
     7  F    2.390849   2.767622   3.496198   1.314323   2.150396
     8  F    2.506617   3.566550   1.264447   2.915704   2.645310
     9  F    2.440180   2.833365   1.260402   2.938579   3.412749
    10  O    1.396977   2.306956   2.350362   2.447893   2.821995
    11  H    1.879516   2.298381   3.113867   3.023770   3.599335
                    6          7          8          9         10
     6  F    0.000000
     7  F    2.155024   0.000000
     8  F    3.434666   4.096453   0.000000
     9  F    2.722918   4.140041   2.095110   0.000000
    10  O    3.614619   2.781527   2.735358   3.527730   0.000000
    11  H    4.151031   3.006514   3.650180   4.188558   0.964290
                   11
    11  H    0.000000
 Symmetry turned off by external request.
 Stoichiometry    C3HF5O2
 Rotational constants (GHZ):           1.7484903           1.2749698           1.1847880
 Leave Link  202 at Sat May 24 05:06:09 2025, MaxMem=  3758096384 cpu:               0.0 elap:               0.0
 (Enter /apps/easybuild-2022/easybuild/software/Compiler/NVHPC/22.11-CUDA-11.7.0/Gaussian/g16c01-CUDA-11.7.0/g16/l301.exe)
 Standard basis: def2TZVPP (5D, 7F)
 Ernie: Thresh=  0.10000D-02 Tol=  0.10000D-05 Strict=F.
   324 basis functions,   527 primitive gaussians,   375 cartesian basis functions
    40 alpha electrons       40 beta electrons
       nuclear repulsion energy       641.9936348816 Hartrees.
 IExCor= 4336 DFT=T Ex+Corr=M062X ExCW=0 ScaHFX=  0.540000
 ScaDFX=  1.000000  1.000000  1.000000  1.000000 ScalE2=  1.000000  1.000000
 IRadAn=      5 IRanWt=     -1 IRanGd=            0 ICorTp=0 IEmpDi=  4
 NAtoms=   11 NActive=   11 NUniq=   11 SFac= 1.00D+00 NAtFMM=   60 NAOKFM=F Big=F
 Integral buffers will be    131072 words long.
 Raffenetti 2 integral format.
 Two-electron integral symmetry is turned off.
 Leave Link  301 at Sat May 24 05:06:09 2025, MaxMem=  3758096384 cpu:               0.0 elap:               0.0
 (Enter /apps/easybuild-2022/easybuild/software/Compiler/NVHPC/22.11-CUDA-11.7.0/Gaussian/g16c01-CUDA-11.7.0/g16/l302.exe)
 NPDir=0 NMtPBC=     1 NCelOv=     1 NCel=       1 NClECP=     1 NCelD=      1
         NCelK=      1 NCelE2=     1 NClLst=     1 CellRange=     0.0.
 One-electron integrals computed using PRISM.
   1 Symmetry operations used in ECPInt.
 ECPInt:  NShTT=    6786 NPrTT=   21959 LenC2=    6510 LenP2D=   16096.
 LDataN:  DoStor=T MaxTD1= 6 Len=  172
 NBasis=   324 RedAO= T EigKep=  3.21D-04  NBF=   324
 NBsUse=   324 1.00D-06 EigRej= -1.00D+00 NBFU=   324
 Precomputing XC quadrature grid using
 IXCGrd= 4 IRadAn=           5 IRanWt=          -1 IRanGd=           0 AccXCQ= 0.00D+00.
 Generated NRdTot=       0 NPtTot=           0 NUsed=           0 NTot=          32
 NSgBfM=   372   372   372   372   372 MxSgAt=    11 MxSgA2=    11.
 Leave Link  302 at Sat May 24 05:06:09 2025, MaxMem=  3758096384 cpu:               0.6 elap:               0.1
 (Enter /apps/easybuild-2022/easybuild/software/Compiler/NVHPC/22.11-CUDA-11.7.0/Gaussian/g16c01-CUDA-11.7.0/g16/l303.exe)
 DipDrv:  MaxL=1.
 Leave Link  303 at Sat May 24 05:06:09 2025, MaxMem=  3758096384 cpu:               0.1 elap:               0.0
 (Enter /apps/easybuild-2022/easybuild/software/Compiler/NVHPC/22.11-CUDA-11.7.0/Gaussian/g16c01-CUDA-11.7.0/g16/l401.exe)
 Initial guess from the checkpoint file:  "/tmp/Gau-270023.chk"
 B after Tr=    -0.000129   -0.000051    0.000002
         Rot=    1.000000   -0.000001   -0.000014   -0.000028 Ang=  -0.00 deg.
 Guess basis will be translated and rotated to current coordinates.
 JPrj=2 DoOrth=T DoCkMO=T.
 Leave Link  401 at Sat May 24 05:06:09 2025, MaxMem=  3758096384 cpu:               0.2 elap:               0.1
 (Enter /apps/easybuild-2022/easybuild/software/Compiler/NVHPC/22.11-CUDA-11.7.0/Gaussian/g16c01-CUDA-11.7.0/g16/l502.exe)
 Keep R1 ints in memory in canonical form, NReq=1412617130.
 FoFCou: FMM=F IPFlag=           0 FMFlag=           0 FMFlg1=           0
         NFxFlg=           0 DoJE=F BraDBF=F KetDBF=F FulRan=T
         wScrn=  0.000000 ICntrl=       600 IOpCl=  0 I1Cent=           0 NGrid=           0
         NMat0=    1 NMatS0=  52650 NMatT0=    0 NMatD0=    1 NMtDS0=    0 NMtDT0=    0
 Symmetry not used in FoFCou.
 Two-electron integral symmetry not used.
 Closed shell SCF:
 Using DIIS extrapolation, IDIIS=  1040.
 NGot=  3758096384 LenX=  2371771924 LenY=  2371630858
 Requested convergence on RMS density matrix=1.00D-08 within  32 cycles.
 Requested convergence on MAX density matrix=1.00D-06.
 Requested convergence on             energy=1.00D-06.
 No special actions if energy rises.

 Cycle   1  Pass 1  IDiag  1:
 E= -764.529103719600    
 DIIS: error= 5.03D-05 at cycle   1 NSaved=   1.
 NSaved= 1 IEnMin= 1 EnMin= -764.529103719600     IErMin= 1 ErrMin= 5.03D-05
 ErrMax= 5.03D-05  0.00D+00 EMaxC= 1.00D-01 BMatC= 2.46D-06 BMatP= 2.46D-06
 IDIUse=1 WtCom= 1.00D+00 WtEn= 0.00D+00
 Coeff-Com:  0.100D+01
 Coeff:      0.100D+01
 Gap=     0.982 Goal=   None    Shift=    0.000
 RMSDP=5.02D-06 MaxDP=1.89D-04              OVMax= 4.03D-04

 Cycle   2  Pass 1  IDiag  1:
 E= -764.529106733209     Delta-E=       -0.000003013608 Rises=F Damp=F
 DIIS: error= 9.96D-06 at cycle   2 NSaved=   2.
 NSaved= 2 IEnMin= 2 EnMin= -764.529106733209     IErMin= 2 ErrMin= 9.96D-06
 ErrMax= 9.96D-06  0.00D+00 EMaxC= 1.00D-01 BMatC= 7.98D-08 BMatP= 2.46D-06
 IDIUse=1 WtCom= 1.00D+00 WtEn= 0.00D+00
 Coeff-Com: -0.154D+00 0.115D+01
 Coeff:     -0.154D+00 0.115D+01
 Gap=     0.211 Goal=   None    Shift=    0.000
 RMSDP=1.32D-06 MaxDP=4.64D-05 DE=-3.01D-06 OVMax= 1.19D-04

 Cycle   3  Pass 1  IDiag  1:
 E= -764.529106869527     Delta-E=       -0.000000136318 Rises=F Damp=F
 DIIS: error= 4.51D-06 at cycle   3 NSaved=   3.
 NSaved= 3 IEnMin= 3 EnMin= -764.529106869527     IErMin= 3 ErrMin= 4.51D-06
 ErrMax= 4.51D-06  0.00D+00 EMaxC= 1.00D-01 BMatC= 1.55D-08 BMatP= 7.98D-08
 IDIUse=1 WtCom= 1.00D+00 WtEn= 0.00D+00
 Coeff-Com: -0.646D-01 0.403D+00 0.662D+00
 Coeff:     -0.646D-01 0.403D+00 0.662D+00
 Gap=     0.211 Goal=   None    Shift=    0.000
 RMSDP=4.15D-07 MaxDP=1.55D-05 DE=-1.36D-07 OVMax= 6.75D-05

 Cycle   4  Pass 1  IDiag  1:
 E= -764.529106879642     Delta-E=       -0.000000010115 Rises=F Damp=F
 DIIS: error= 2.27D-06 at cycle   4 NSaved=   4.
 NSaved= 4 IEnMin= 4 EnMin= -764.529106879642     IErMin= 4 ErrMin= 2.27D-06
 ErrMax= 2.27D-06  0.00D+00 EMaxC= 1.00D-01 BMatC= 4.14D-09 BMatP= 1.55D-08
 IDIUse=1 WtCom= 1.00D+00 WtEn= 0.00D+00
 Coeff-Com:  0.480D-02-0.793D-01 0.328D+00 0.747D+00
 Coeff:      0.480D-02-0.793D-01 0.328D+00 0.747D+00
 Gap=     0.211 Goal=   None    Shift=    0.000
 RMSDP=1.74D-07 MaxDP=7.03D-06 DE=-1.01D-08 OVMax= 1.61D-05

 Cycle   5  Pass 1  IDiag  1:
 E= -764.529106882863     Delta-E=       -0.000000003221 Rises=F Damp=F
 DIIS: error= 4.00D-07 at cycle   5 NSaved=   5.
 NSaved= 5 IEnMin= 5 EnMin= -764.529106882863     IErMin= 5 ErrMin= 4.00D-07
 ErrMax= 4.00D-07  0.00D+00 EMaxC= 1.00D-01 BMatC= 1.54D-10 BMatP= 4.14D-09
 IDIUse=1 WtCom= 1.00D+00 WtEn= 0.00D+00
 Coeff-Com:  0.394D-02-0.479D-01 0.131D+00 0.320D+00 0.593D+00
 Coeff:      0.394D-02-0.479D-01 0.131D+00 0.320D+00 0.593D+00
 Gap=     0.211 Goal=   None    Shift=    0.000
 RMSDP=3.65D-08 MaxDP=1.58D-06 DE=-3.22D-09 OVMax= 4.25D-06

 Cycle   6  Pass 1  IDiag  1:
 E= -764.529106882958     Delta-E=       -0.000000000095 Rises=F Damp=F
 DIIS: error= 2.44D-07 at cycle   6 NSaved=   6.
 NSaved= 6 IEnMin= 6 EnMin= -764.529106882958     IErMin= 6 ErrMin= 2.44D-07
 ErrMax= 2.44D-07  0.00D+00 EMaxC= 1.00D-01 BMatC= 3.00D-11 BMatP= 1.54D-10
 IDIUse=1 WtCom= 1.00D+00 WtEn= 0.00D+00
 Coeff-Com:  0.718D-03-0.334D-02-0.205D-01-0.506D-01 0.270D+00 0.804D+00
 Coeff:      0.718D-03-0.334D-02-0.205D-01-0.506D-01 0.270D+00 0.804D+00
 Gap=     0.211 Goal=   None    Shift=    0.000
 RMSDP=2.05D-08 MaxDP=7.09D-07 DE=-9.50D-11 OVMax= 2.19D-06

 Cycle   7  Pass 1  IDiag  1:
 E= -764.529106882990     Delta-E=       -0.000000000032 Rises=F Damp=F
 DIIS: error= 6.23D-08 at cycle   7 NSaved=   7.
 NSaved= 7 IEnMin= 7 EnMin= -764.529106882990     IErMin= 7 ErrMin= 6.23D-08
 ErrMax= 6.23D-08  0.00D+00 EMaxC= 1.00D-01 BMatC= 2.27D-12 BMatP= 3.00D-11
 IDIUse=1 WtCom= 1.00D+00 WtEn= 0.00D+00
 Coeff-Com: -0.231D-03 0.462D-02-0.187D-01-0.528D-01 0.144D-01 0.244D+00
 Coeff-Com:  0.809D+00
 Coeff:     -0.231D-03 0.462D-02-0.187D-01-0.528D-01 0.144D-01 0.244D+00
 Coeff:      0.809D+00
 Gap=     0.211 Goal=   None    Shift=    0.000
 RMSDP=7.20D-09 MaxDP=1.91D-07 DE=-3.23D-11 OVMax= 1.34D-06

 SCF Done:  E(RM062X) =  -764.529106883     A.U. after    7 cycles
            NFock=  7  Conv=0.72D-08     -V/T= 2.0036
 KE= 7.617579075236D+02 PE=-3.095832097384D+03 EE= 9.275514480957D+02
 Leave Link  502 at Sat May 24 05:06:28 2025, MaxMem=  3758096384 cpu:              92.5 elap:              18.7
 (Enter /apps/easybuild-2022/easybuild/software/Compiler/NVHPC/22.11-CUDA-11.7.0/Gaussian/g16c01-CUDA-11.7.0/g16/l508.exe)
 QCSCF skips out because SCF is already converged.
 Leave Link  508 at Sat May 24 05:06:28 2025, MaxMem=  3758096384 cpu:               0.0 elap:               0.0
 (Enter /apps/easybuild-2022/easybuild/software/Compiler/NVHPC/22.11-CUDA-11.7.0/Gaussian/g16c01-CUDA-11.7.0/g16/l801.exe)
 DoSCS=F DFT=T ScalE2(SS,OS)=  1.000000  1.000000
 Range of M.O.s used for correlation:     1   324
 NBasis=   324 NAE=    40 NBE=    40 NFC=     0 NFV=     0
 NROrb=    324 NOA=    40 NOB=    40 NVA=   284 NVB=   284

 **** Warning!!: The largest alpha MO coefficient is  0.13994265D+02

 Leave Link  801 at Sat May 24 05:06:28 2025, MaxMem=  3758096384 cpu:               0.0 elap:               0.0
 (Enter /apps/easybuild-2022/easybuild/software/Compiler/NVHPC/22.11-CUDA-11.7.0/Gaussian/g16c01-CUDA-11.7.0/g16/l1101.exe)
 Using compressed storage, NAtomX=    11.
 Will process     12 centers per pass.
   1 Symmetry operations used in ECPInt.
 ECPInt:  NShTT=    6786 NPrTT=   21959 LenC2=    6510 LenP2D=   16096.
 LDataN:  DoStor=T MaxTD1= 7 Len=  274
 Leave Link 1101 at Sat May 24 05:06:28 2025, MaxMem=  3758096384 cpu:               1.0 elap:               0.2
 (Enter /apps/easybuild-2022/easybuild/software/Compiler/NVHPC/22.11-CUDA-11.7.0/Gaussian/g16c01-CUDA-11.7.0/g16/l1102.exe)
 Symmetrizing basis deriv contribution to polar:
 IMax=3 JMax=2 DiffMx= 0.00D+00
 Leave Link 1102 at Sat May 24 05:06:28 2025, MaxMem=  3758096384 cpu:               0.1 elap:               0.0
 (Enter /apps/easybuild-2022/easybuild/software/Compiler/NVHPC/22.11-CUDA-11.7.0/Gaussian/g16c01-CUDA-11.7.0/g16/l1110.exe)
 Forming Gx(P) for the SCF density, NAtomX=    11.
 Integral derivatives from FoFJK, PRISM(SPDF).
 Do as many integral derivatives as possible in FoFJK.
 G2DrvN: MDV=    3758095115.
 G2DrvN: will do    12 centers at a time, making    1 passes.
 Calling FoFCou, ICntrl=  3107 FMM=F I1Cent=   0 AccDes= 0.00D+00.
 FoFJK:  IHMeth= 1 ICntrl=    3107 DoSepK=F KAlg= 0 I1Cent=           0 FoldK=F
 IRaf=         0 NMat=       1 IRICut=       1 DoRegI=T DoRafI=F ISym2E= 0 IDoP0=0 IntGTp=1.
 FoFCou: FMM=F IPFlag=           0 FMFlag=      100000 FMFlg1=           0
         NFxFlg=           0 DoJE=F BraDBF=F KetDBF=F FulRan=T
         wScrn=  0.000000 ICntrl=      3107 IOpCl=  0 I1Cent=           0 NGrid=           0
         NMat0=    1 NMatS0=      1 NMatT0=    0 NMatD0=    1 NMtDS0=    0 NMtDT0=    0
 Symmetry not used in FoFCou.
 End of G2Drv F.D. properties file   721 does not exist.
 End of G2Drv F.D. properties file   722 does not exist.
 End of G2Drv F.D. properties file   788 does not exist.
 Leave Link 1110 at Sat May 24 05:07:15 2025, MaxMem=  3758096384 cpu:             367.4 elap:              46.4
 (Enter /apps/easybuild-2022/easybuild/software/Compiler/NVHPC/22.11-CUDA-11.7.0/Gaussian/g16c01-CUDA-11.7.0/g16/l1002.exe)
 Minotr:  Closed shell wavefunction.
          IDoAtm=11111111111
          Direct CPHF calculation.
          Differentiating once with respect to electric field.
                with respect to dipole field.
          Differentiating once with respect to nuclear coordinates.
          Requested convergence is 1.0D-08 RMS, and 1.0D-07 maximum.
          Secondary convergence is 1.0D-12 RMS, and 1.0D-12 maximum.
          NewPWx=T KeepS1=F KeepF1=F KeepIn=T MapXYZ=F SortEE=F KeepMc=T.
         3293 words used for storage of precomputed grid.
 Keep R1 ints in memory in canonical form, NReq=1412622523.
 FoFCou: FMM=F IPFlag=           0 FMFlag=           0 FMFlg1=           0
         NFxFlg=           0 DoJE=F BraDBF=F KetDBF=F FulRan=T
         wScrn=  0.000000 ICntrl=       600 IOpCl=  0 I1Cent=           0 NGrid=           0
         NMat0=    1 NMatS0=  52650 NMatT0=    0 NMatD0=    1 NMtDS0=    0 NMtDT0=    0
 Symmetry not used in FoFCou.
 Two-electron integral symmetry not used.
          MDV=    3758096384 using IRadAn=       1.
          Solving linear equations simultaneously, MaxMat=       0.
          There are    36 degrees of freedom in the 1st order CPHF.  IDoFFX=6 NUNeed=     3.
     33 vectors produced by pass  0 Test12= 3.16D-14 2.78D-09 XBig12= 3.90D+01 4.51D+00.
 AX will form    33 AO Fock derivatives at one time.
     33 vectors produced by pass  1 Test12= 3.16D-14 2.78D-09 XBig12= 4.69D+00 4.14D-01.
     33 vectors produced by pass  2 Test12= 3.16D-14 2.78D-09 XBig12= 1.29D-01 6.11D-02.
     33 vectors produced by pass  3 Test12= 3.16D-14 2.78D-09 XBig12= 3.19D-03 7.51D-03.
     33 vectors produced by pass  4 Test12= 3.16D-14 2.78D-09 XBig12= 5.36D-05 1.05D-03.
     33 vectors produced by pass  5 Test12= 3.16D-14 2.78D-09 XBig12= 5.41D-07 9.00D-05.
     33 vectors produced by pass  6 Test12= 3.16D-14 2.78D-09 XBig12= 4.08D-09 8.68D-06.
     15 vectors produced by pass  7 Test12= 3.16D-14 2.78D-09 XBig12= 2.26D-11 5.67D-07.
      3 vectors produced by pass  8 Test12= 3.16D-14 2.78D-09 XBig12= 1.16D-13 4.08D-08.
      1 vectors produced by pass  9 Test12= 3.16D-14 2.78D-09 XBig12= 5.90D-16 3.36D-09.
 InvSVY:  IOpt=1 It=  1 EMax= 5.33D-15
 Solved reduced A of dimension   250 with    36 vectors.
 FullF1:  Do perturbations      1 to       3.
 Isotropic polarizability for W=    0.000000       51.13 Bohr**3.
 End of Minotr F.D. properties file   721 does not exist.
 End of Minotr F.D. properties file   722 does not exist.
 End of Minotr F.D. properties file   788 does not exist.
 Leave Link 1002 at Sat May 24 05:08:24 2025, MaxMem=  3758096384 cpu:             538.1 elap:              69.3
 (Enter /apps/easybuild-2022/easybuild/software/Compiler/NVHPC/22.11-CUDA-11.7.0/Gaussian/g16c01-CUDA-11.7.0/g16/l701.exe)
 ... and contract with generalized density number  0.
 Compute integral second derivatives.
   1 Symmetry operations used in ECPInt.
 ECPInt:  NShTT=    6786 NPrTT=   21959 LenC2=    6510 LenP2D=   16096.
 LDataN:  DoStor=T MaxTD1= 8 Len=  415
 Leave Link  701 at Sat May 24 05:08:24 2025, MaxMem=  3758096384 cpu:               0.7 elap:               0.1
 (Enter /apps/easybuild-2022/easybuild/software/Compiler/NVHPC/22.11-CUDA-11.7.0/Gaussian/g16c01-CUDA-11.7.0/g16/l702.exe)
 L702 exits ... SP integral derivatives will be done elsewhere.
 Leave Link  702 at Sat May 24 05:08:24 2025, MaxMem=  3758096384 cpu:               0.0 elap:               0.0
 (Enter /apps/easybuild-2022/easybuild/software/Compiler/NVHPC/22.11-CUDA-11.7.0/Gaussian/g16c01-CUDA-11.7.0/g16/l703.exe)
 Integral derivatives from FoFJK, PRISM(SPDF).
 Compute integral second derivatives, UseDBF=F ICtDFT=           0.
 Calling FoFJK, ICntrl=    100127 FMM=F ISym2X=0 I1Cent= 0 IOpClX= 0 NMat=1 NMatS=1 NMatT=0.
 FoFJK:  IHMeth= 1 ICntrl=  100127 DoSepK=F KAlg= 0 I1Cent=           0 FoldK=F
 IRaf=         0 NMat=       1 IRICut=       1 DoRegI=T DoRafI=F ISym2E= 0 IDoP0=0 IntGTp=1.
 FoFCou: FMM=F IPFlag=           0 FMFlag=      100000 FMFlg1=         800
         NFxFlg=           0 DoJE=F BraDBF=F KetDBF=F FulRan=T
         wScrn=  0.000000 ICntrl=    100127 IOpCl=  0 I1Cent=           0 NGrid=           0
         NMat0=    1 NMatS0=      1 NMatT0=    0 NMatD0=    1 NMtDS0=    0 NMtDT0=    0
 Symmetry not used in FoFCou.
 Leave Link  703 at Sat May 24 05:10:20 2025, MaxMem=  3758096384 cpu:             920.4 elap:             116.1
 (Enter /apps/easybuild-2022/easybuild/software/Compiler/NVHPC/22.11-CUDA-11.7.0/Gaussian/g16c01-CUDA-11.7.0/g16/l716.exe)
 Dipole        =-1.24380456D+00 6.63499627D-01-1.04825603D-01
 Polarizability= 5.94044409D+01-2.23501262D+00 4.64274130D+01
                 3.28512532D+00 2.19933405D-01 4.75639948D+01
 -------------------------------------------------------------------
 Center     Atomic                   Forces (Hartrees/Bohr)
 Number     Number              X              Y              Z
 -------------------------------------------------------------------
      1        6           0.000000961    0.000001043    0.000000813
      2        8           0.000002107    0.000002544   -0.000000182
      3        6           0.000000376    0.000000014   -0.000001422
      4        6          -0.000000701   -0.000001085   -0.000000477
      5        9          -0.000002350   -0.000002648    0.000000324
      6        9           0.000000085   -0.000001615   -0.000002248
      7        9          -0.000001050   -0.000000364    0.000001336
      8        9          -0.000000564   -0.000001661   -0.000000784
      9        9           0.000001726   -0.000000597   -0.000003208
     10        8          -0.000000495    0.000001505    0.000002494
     11        1          -0.000000095    0.000002863    0.000003355
 -------------------------------------------------------------------
 Cartesian Forces:  Max     0.000003355 RMS     0.000001619
 Force constants in Cartesian coordinates: 
                1             2             3             4             5 
      1  0.389825D+00
      2 -0.394039D-01  0.603264D+00
      3 -0.187860D+00  0.184568D+00  0.277478D+00
      4 -0.183554D+00  0.145188D+00  0.132856D+00  0.221613D+00
      5  0.118922D+00 -0.308121D+00 -0.162271D+00 -0.202693D+00  0.373883D+00
      6  0.127177D+00 -0.183645D+00 -0.205143D+00 -0.173973D+00  0.233565D+00
      7 -0.431185D-01 -0.499703D-01  0.100144D+00 -0.479924D-01  0.364377D-01
      8 -0.330903D-01 -0.351202D-01  0.568880D-02  0.350129D-01 -0.218884D-01
      9  0.660086D-01 -0.392089D-02 -0.565041D-01  0.230915D-01 -0.297186D-03
     10 -0.399484D-01  0.165300D-01 -0.823708D-01 -0.135644D-01  0.123372D-01
     11 -0.204164D-01 -0.160332D-01  0.931218D-03  0.162221D-01 -0.140480D-01
     12  0.444720D-01  0.152548D-02  0.148632D-01  0.570125D-02 -0.171063D-01
     13  0.642010D-02  0.202021D-02  0.997466D-02 -0.729225D-03  0.357465D-03
     14 -0.367887D-03 -0.586024D-02  0.189109D-02  0.816818D-03  0.154376D-02
     15 -0.106342D-02 -0.248576D-01  0.607850D-02  0.905231D-02 -0.498848D-02
     16  0.678204D-02 -0.621178D-02  0.113453D-01  0.125772D-02  0.682270D-04
     17  0.737804D-02 -0.235786D-01 -0.110356D-01 -0.438536D-02  0.122622D-01
     18 -0.220264D-02  0.226762D-01  0.467495D-02  0.147948D-02 -0.292210D-02
     19 -0.455230D-01  0.466791D-02 -0.119824D-01  0.124467D-01 -0.389613D-02
     20  0.106615D-01 -0.178822D-02  0.407663D-02 -0.406883D-02  0.364168D-02
     21 -0.486798D-01  0.616411D-02 -0.304246D-01  0.227403D-02  0.114542D-02
     22  0.177736D-01  0.305126D-01  0.622069D-02 -0.159255D-01  0.448742D-02
     23  0.132905D-01 -0.150777D-01  0.186792D-01 -0.594055D-04  0.331178D-02
     24 -0.189219D-01 -0.127729D-01  0.298519D-01  0.594198D-02 -0.651976D-02
     25  0.867369D-02 -0.363991D-01 -0.168039D-01  0.218117D-02  0.655913D-02
     26  0.289887D-02 -0.715830D-02 -0.457931D-01  0.289772D-02  0.110987D-01
     27 -0.181337D-01 -0.358813D-02  0.174630D-01 -0.116710D-02 -0.253688D-02
     28 -0.104014D+00 -0.576354D-01  0.287871D-01  0.244845D-01  0.208384D-01
     29 -0.805330D-02 -0.182891D+00 -0.264809D-01  0.384852D-02 -0.660479D-01
     30  0.373664D-01  0.866510D-02 -0.626388D-01 -0.521429D-02 -0.358419D-01
     31 -0.133167D-01 -0.929780D-02  0.968910D-02 -0.217509D-03  0.658094D-02
     32 -0.518195D-01 -0.763573D-02  0.297459D-01  0.722060D-02  0.436379D-02
     33  0.183700D-02  0.518540D-02  0.430108D-02 -0.423385D-04 -0.222589D-02
                6             7             8             9            10 
      6  0.250076D+00
      7 -0.178253D-02  0.580715D+00
      8 -0.195758D-01  0.488096D-01  0.683088D+00
      9  0.138680D-01 -0.143191D+00  0.152771D+00  0.239632D+00
     10  0.406102D-01  0.225642D-01  0.101651D-01 -0.378019D-01  0.577094D+00
     11 -0.219997D-01  0.311305D-01  0.274798D-01  0.632682D-02 -0.872659D-03
     12 -0.385783D-01 -0.102381D+00  0.634489D-02 -0.123095D-02  0.325574D-01
     13 -0.404765D-03 -0.139312D-01  0.347574D-02  0.748983D-02 -0.110478D+00
     14 -0.228331D-02  0.542380D-02 -0.522683D-02 -0.982922D-02  0.567539D-01
     15 -0.161475D-01  0.146810D-01  0.194607D-02 -0.200873D-01  0.697832D-01
     16 -0.367725D-02 -0.108819D-01 -0.627731D-02  0.249061D-02 -0.933725D-01
     17  0.250555D-02 -0.144398D-01 -0.152823D-01  0.119683D-01 -0.707939D-01
     18  0.717227D-03  0.100974D-01  0.347162D-02 -0.108013D-01  0.196264D-01
     19  0.201143D-02  0.174504D-01  0.251653D-02 -0.702087D-02 -0.318411D+00
     20  0.581783D-04 -0.555377D-02 -0.403098D-02  0.242298D-02  0.525855D-02
     21  0.461969D-02  0.236449D-01  0.256188D-02 -0.104165D-01 -0.835834D-01
     22  0.616077D-02 -0.252483D+00  0.158920D+00  0.961222D-01 -0.999607D-02
     23 -0.603551D-02  0.150270D+00 -0.250807D+00 -0.110758D+00  0.107507D-01
     24 -0.126858D-01  0.116146D+00 -0.118935D+00 -0.101511D+00  0.135918D-01
     25  0.689658D-02 -0.222624D+00 -0.176012D+00 -0.170947D-01 -0.881355D-02
     26  0.187705D-01 -0.189439D+00 -0.351029D+00 -0.445694D-01 -0.165115D-01
     27 -0.603816D-02  0.981227D-03 -0.364065D-01 -0.517079D-01  0.548939D-02
     28 -0.259480D-02 -0.254786D-01 -0.410062D-01  0.999812D-02 -0.823955D-02
     29 -0.173406D-01 -0.136191D-01 -0.207010D-01 -0.677889D-02 -0.206987D-01
     30  0.133849D-01 -0.158271D-01  0.558753D-02  0.731253D-03  0.169667D-01
     31 -0.423974D-03 -0.421982D-02 -0.251365D-02 -0.921323D-04  0.316516D-02
     32 -0.401899D-02  0.950479D-03 -0.648213D-02  0.266502D-02 -0.291865D-02
     33 -0.407335D-02 -0.251267D-02 -0.345407D-02 -0.197248D-02  0.513081D-02
               11            12            13            14            15 
     11  0.550297D+00
     12  0.273519D-01  0.429806D+00
     13  0.554767D-01  0.574572D-01  0.160025D+00
     14 -0.146851D+00 -0.868032D-01 -0.103732D+00  0.219689D+00
     15 -0.901263D-01 -0.184372D+00 -0.939653D-01  0.132823D+00  0.182926D+00
     16 -0.611460D-01  0.107640D-01  0.156399D-01  0.127896D-01 -0.204948D-02
     17 -0.273627D+00  0.557028D-01  0.454949D-02 -0.733394D-01 -0.156805D-01
     18  0.550929D-01 -0.921776D-01 -0.291793D-02 -0.382241D-01  0.901736D-02
     19 -0.174631D-02 -0.707944D-01 -0.638520D-01  0.306767D-01  0.136396D-01
     20 -0.737337D-01  0.276504D-03  0.391308D-01  0.134405D-02 -0.203022D-02
     21 -0.263299D-02 -0.910455D-01  0.356851D-01 -0.740118D-02  0.124296D-01
     22 -0.235469D-02  0.165762D-01  0.397835D-02 -0.230962D-02 -0.719335D-02
     23  0.467667D-03 -0.214862D-01 -0.574845D-02  0.371941D-02  0.439239D-02
     24  0.248193D-02 -0.210162D-01 -0.100874D-01  0.678227D-02  0.648464D-02
     25 -0.852620D-02  0.148061D-01  0.258183D-02 -0.523858D-03 -0.409199D-02
     26 -0.198571D-01  0.268161D-01  0.381580D-02 -0.721450D-04 -0.698840D-02
     27  0.127100D-02 -0.450202D-02 -0.995540D-03  0.139862D-02  0.241126D-02
     28 -0.878043D-02 -0.101415D-01  0.647022D-03  0.257212D-03  0.176644D-02
     29 -0.317123D-01  0.798116D-02  0.268117D-03  0.491042D-02  0.638100D-02
     30  0.185687D-01 -0.114350D-01 -0.157164D-02  0.144727D-02  0.109470D-02
     31  0.101351D-02  0.982431D-03 -0.302727D-03  0.214879D-03 -0.559011D-03
     32 -0.238211D-02 -0.603006D-03  0.385674D-03  0.143028D-03 -0.871383D-03
     33  0.273460D-02 -0.312185D-03 -0.664238D-03  0.198358D-03  0.164779D-03
               16            17            18            19            20 
     16  0.125346D+00
     17  0.113260D+00  0.383770D+00
     18 -0.160453D-01 -0.397859D-01  0.762567D-01
     19 -0.487546D-01 -0.406584D-01 -0.599140D-02  0.445839D+00
     20 -0.596174D-01 -0.139990D-01 -0.927322D-02  0.898392D-02  0.820109D-01
     21  0.501628D-02 -0.206872D-02  0.140991D-01  0.723872D-01  0.641286D-02
[...]
     33  0.183700D-02  0.518540D-02  0.430108D-02 -0.423385D-04 -0.222589D-02
                6             7             8             9            10 
      6  0.250076D+00
      7 -0.178253D-02  0.580715D+00
      8 -0.195758D-01  0.488096D-01  0.683088D+00
      9  0.138680D-01 -0.143191D+00  0.152771D+00  0.239632D+00
     10  0.406102D-01  0.225642D-01  0.101651D-01 -0.378019D-01  0.577094D+00
     11 -0.219997D-01  0.311305D-01  0.274798D-01  0.632682D-02 -0.872659D-03
     12 -0.385783D-01 -0.102381D+00  0.634489D-02 -0.123095D-02  0.325574D-01
     13 -0.404765D-03 -0.139312D-01  0.347574D-02  0.748983D-02 -0.110478D+00
     14 -0.228331D-02  0.542380D-02 -0.522683D-02 -0.982922D-02  0.567539D-01
     15 -0.161475D-01  0.146810D-01  0.194607D-02 -0.200873D-01  0.697832D-01
     16 -0.367725D-02 -0.108819D-01 -0.627731D-02  0.249061D-02 -0.933725D-01
     17  0.250555D-02 -0.144398D-01 -0.152823D-01  0.119683D-01 -0.707939D-01
     18  0.717227D-03  0.100974D-01  0.347162D-02 -0.108013D-01  0.196264D-01
     19  0.201143D-02  0.174504D-01  0.251653D-02 -0.702087D-02 -0.318411D+00
     20  0.581783D-04 -0.555377D-02 -0.403098D-02  0.242298D-02  0.525855D-02
     21  0.461969D-02  0.236449D-01  0.256188D-02 -0.104165D-01 -0.835834D-01
     22  0.616077D-02 -0.252483D+00  0.158920D+00  0.961222D-01 -0.999607D-02
     23 -0.603551D-02  0.150270D+00 -0.250807D+00 -0.110758D+00  0.107507D-01
     24 -0.126858D-01  0.116146D+00 -0.118935D+00 -0.101511D+00  0.135918D-01
     25  0.689658D-02 -0.222624D+00 -0.176012D+00 -0.170947D-01 -0.881355D-02
     26  0.187705D-01 -0.189439D+00 -0.351029D+00 -0.445694D-01 -0.165115D-01
     27 -0.603816D-02  0.981227D-03 -0.364065D-01 -0.517079D-01  0.548939D-02
     28 -0.259480D-02 -0.254786D-01 -0.410062D-01  0.999812D-02 -0.823955D-02
     29 -0.173406D-01 -0.136191D-01 -0.207010D-01 -0.677889D-02 -0.206987D-01
     30  0.133849D-01 -0.158271D-01  0.558753D-02  0.731253D-03  0.169667D-01
     31 -0.423974D-03 -0.421982D-02 -0.251365D-02 -0.921323D-04  0.316516D-02
     32 -0.401899D-02  0.950479D-03 -0.648213D-02  0.266502D-02 -0.291865D-02
     33 -0.407335D-02 -0.251267D-02 -0.345407D-02 -0.197248D-02  0.513081D-02
               11            12            13            14            15 
     11  0.550297D+00
     12  0.273519D-01  0.429806D+00
     13  0.554767D-01  0.574572D-01  0.160025D+00
     14 -0.146851D+00 -0.868032D-01 -0.103732D+00  0.219689D+00
     15 -0.901263D-01 -0.184372D+00 -0.939653D-01  0.132823D+00  0.182926D+00
     16 -0.611460D-01  0.107640D-01  0.156399D-01  0.127896D-01 -0.204948D-02
     17 -0.273627D+00  0.557028D-01  0.454949D-02 -0.733394D-01 -0.156805D-01
     18  0.550929D-01 -0.921776D-01 -0.291793D-02 -0.382241D-01  0.901736D-02
     19 -0.174631D-02 -0.707944D-01 -0.638520D-01  0.306767D-01  0.136396D-01
     20 -0.737337D-01  0.276504D-03  0.391308D-01  0.134405D-02 -0.203022D-02
     21 -0.263299D-02 -0.910455D-01  0.356851D-01 -0.740118D-02  0.124296D-01
     22 -0.235469D-02  0.165762D-01  0.397835D-02 -0.230962D-02 -0.719335D-02
     23  0.467667D-03 -0.214862D-01 -0.574845D-02  0.371941D-02  0.439239D-02
     24  0.248193D-02 -0.210162D-01 -0.100874D-01  0.678227D-02  0.648464D-02
     25 -0.852620D-02  0.148061D-01  0.258183D-02 -0.523858D-03 -0.409199D-02
     26 -0.198571D-01  0.268161D-01  0.381580D-02 -0.721450D-04 -0.698840D-02
     27  0.127100D-02 -0.450202D-02 -0.995540D-03  0.139862D-02  0.241126D-02
     28 -0.878043D-02 -0.101415D-01  0.647022D-03  0.257212D-03  0.176644D-02
     29 -0.317123D-01  0.798116D-02  0.268117D-03  0.491042D-02  0.638100D-02
     30  0.185687D-01 -0.114350D-01 -0.157164D-02  0.144727D-02  0.109470D-02
     31  0.101351D-02  0.982431D-03 -0.302727D-03  0.214879D-03 -0.559011D-03
     32 -0.238211D-02 -0.603006D-03  0.385674D-03  0.143028D-03 -0.871383D-03
     33  0.273460D-02 -0.312185D-03 -0.664238D-03  0.198358D-03  0.164779D-03
               16            17            18            19            20 
     16  0.125346D+00
     17  0.113260D+00  0.383770D+00
     18 -0.160453D-01 -0.397859D-01  0.762567D-01
     19 -0.487546D-01 -0.406584D-01 -0.599140D-02  0.445839D+00
     20 -0.596174D-01 -0.139990D-01 -0.927322D-02  0.898392D-02  0.820109D-01
     21  0.501628D-02 -0.206872D-02  0.140991D-01  0.723872D-01  0.641286D-02
     22  0.217821D-02  0.291188D-02 -0.313240D-02 -0.290892D-02  0.787127D-03
     23 -0.177234D-02 -0.153970D-02  0.311354D-02  0.360111D-02 -0.604408D-03
     24 -0.216749D-02 -0.388863D-02  0.414139D-02  0.427258D-02 -0.157987D-02
     25  0.164614D-02  0.513893D-02 -0.453042D-02 -0.319256D-02  0.167033D-02
     26  0.828724D-02  0.101515D-01 -0.222871D-02 -0.626094D-02  0.337826D-02
     27 -0.416334D-02 -0.370641D-02 -0.378768D-03  0.170153D-02 -0.828732D-03
     28  0.309057D-03 -0.410462D-02  0.508292D-02  0.810168D-02  0.287653D-02
     29  0.340477D-03 -0.399373D-02  0.707302D-02  0.117513D-02  0.365284D-02
     30 -0.950674D-03  0.570183D-02 -0.481968D-02  0.351310D-02  0.116261D-02
     31 -0.150383D-03  0.114376D-02 -0.146620D-02 -0.119569D-02 -0.128865D-03
     32  0.279285D-03 -0.823614D-03  0.100683D-02  0.940513D-03  0.128493D-03
     33 -0.562664D-03  0.287292D-03 -0.729515D-03 -0.173641D-02 -0.697725D-03
               21            22            23            24            25 
     21  0.881225D-01
     22 -0.498508D-02  0.220978D+00
     23  0.509847D-02 -0.185069D+00  0.345732D+00
     24  0.660501D-02 -0.105047D+00  0.151387D+00  0.905470D-01
     25 -0.460403D-02  0.359508D-01  0.169444D-01  0.750804D-03  0.195768D+00
     26 -0.811492D-02 -0.824451D-03 -0.925129D-01 -0.237835D-01  0.196949D+00
     27  0.294295D-02 -0.517922D-02 -0.414041D-01 -0.609746D-03  0.230293D-01
     28  0.319531D-02 -0.589837D-03 -0.180324D-02 -0.385714D-02 -0.121760D-01
     29 -0.108571D-02 -0.811975D-02  0.689489D-02  0.765050D-02 -0.395351D-02
     30  0.318549D-02  0.484967D-03 -0.273822D-02 -0.161684D-02  0.425193D-02
     31 -0.350549D-03  0.104429D-02 -0.403875D-03 -0.621845D-03  0.417381D-05
     32 -0.792196D-04  0.105898D-02  0.416186D-03 -0.822129D-03 -0.184668D-02
     33 -0.117936D-03 -0.275753D-04 -0.248603D-03 -0.190679D-03 -0.260966D-02
               26            27            28            29            30 
     26  0.450641D+00
     27  0.812961D-01  0.388886D-01
     28 -0.242523D-02 -0.173185D-02  0.502854D+00
     29 -0.464645D-02  0.576104D-02  0.676047D-01  0.333127D+00
     30  0.560293D-02  0.754022D-03 -0.261055D+00  0.121749D-01  0.195770D+00
     31  0.612718D-03  0.169299D-03 -0.385898D+00 -0.187925D-01  0.222036D+00
     32  0.714990D-05 -0.125602D-02  0.241783D-01 -0.385928D-01 -0.203307D-01
     33 -0.100755D-02  0.776860D-03  0.230551D+00  0.466451D-02 -0.134410D+00
               31            32            33 
     31  0.401087D+00
     32  0.215709D-01  0.508578D-01
     33 -0.229363D+00 -0.543632D-02  0.136563D+00
 Red2BG is reusing G-inverse.
 Leave Link  716 at Sat May 24 05:10:20 2025, MaxMem=  3758096384 cpu:               0.1 elap:               0.0
 (Enter /apps/easybuild-2022/easybuild/software/Compiler/NVHPC/22.11-CUDA-11.7.0/Gaussian/g16c01-CUDA-11.7.0/g16/l9999.exe)

 ----------------------------------------------------------------------

 Electric dipole moment (input orientation):
 (Debye = 10**-18 statcoulomb cm , SI units = C m)
                  (au)            (Debye)         (10**-30 SI)
   Tot        0.141360D+01      0.359302D+01      0.119850D+02
   x         -0.124380D+01     -0.316144D+01     -0.105454D+02
   y          0.663500D+00      0.168645D+01      0.562538D+01
   z         -0.104826D+00     -0.266440D+00     -0.888748D+00

 Dipole polarizability, Alpha (input orientation).
 (esu units = cm**3 , SI units = C**2 m**2 J**-1)
 Alpha(0;0):
               (au)            (10**-24 esu)      (10**-40 SI)
   iso        0.511319D+02      0.757697D+01      0.843052D+01
   aniso      0.142286D+02      0.210846D+01      0.234598D+01
   xx         0.594044D+02      0.880283D+01      0.979447D+01
   yx        -0.223501D+01     -0.331195D+00     -0.368504D+00
   yy         0.464274D+02      0.687983D+01      0.765485D+01
   zx         0.328513D+01      0.486805D+00      0.541644D+00
   zy         0.219933D+00      0.325908D-01      0.362621D-01
   zz         0.475640D+02      0.704826D+01      0.784224D+01

 ----------------------------------------------------------------------

 Dipole orientation:
     6          0.48130092          1.31054333         -2.58566432
     8         -1.16963671          1.18416028         -4.22969369
     6          0.00056693          0.00013348          0.00038156
     6          2.90968930         -0.73583346         -3.24423794
     9          4.77401384         -0.79163268         -1.54800423
     9          2.07386827         -3.07696219         -3.57305924
     9          3.81833237          0.12283941         -5.39036589
     9          1.35951212          0.25887304          1.94867105
     9         -1.35046229         -1.95884208          0.10126465
     8          1.73086527          3.56331674         -2.00886674
     1          1.19123767          4.71327431         -3.31537743

 Electric dipole moment (dipole orientation):
 (Debye = 10**-18 statcoulomb cm , SI units = C m)
                  (au)            (Debye)         (10**-30 SI)
   Tot        0.141360D+01      0.359302D+01      0.119850D+02
   x          0.000000D+00      0.000000D+00      0.000000D+00
   y          0.000000D+00      0.000000D+00      0.000000D+00
   z          0.141360D+01      0.359302D+01      0.119850D+02

 Dipole polarizability, Alpha (dipole orientation).
 (esu units = cm**3 , SI units = C**2 m**2 J**-1)
 Alpha(0;0):
               (au)            (10**-24 esu)      (10**-40 SI)
   iso        0.511319D+02      0.757697D+01      0.843052D+01
   aniso      0.142286D+02      0.210846D+01      0.234598D+01
   xx         0.484485D+02      0.717932D+01      0.798807D+01
   yx         0.893299D+00      0.132373D+00      0.147285D+00
   yy         0.462075D+02      0.684725D+01      0.761859D+01
   zx        -0.373872D+01     -0.554022D+00     -0.616432D+00
   zy        -0.283592D+01     -0.420240D+00     -0.467580D+00
   zz         0.587399D+02      0.870435D+01      0.968490D+01

 ----------------------------------------------------------------------
 Unable to Open any file for archive entry.
 1\1\GINC-SPARTAN-BM202\Freq\RM062X\def2TZVPP\C3H1F5O2\AKHALILOV\24-May
 -2025\0\\#P M062X/Def2TZVPP Symm(None) scf(xqc) pop(None) opt(NoFreeze
 ,TS,CalcAll,NoEigentest,MaxCycle=999)\\Gaussian input prepared by ASE\
 \0,1\C,1.554991924,-0.000126265,0.0000535649\O,2.1475435801,-0.8491351
 408,-0.6727419642\C,-0.0000970119,0.0002824185,0.0002158434\C,1.589075
 3678,-0.415703256,1.6648656632\F,0.9477085975,0.4231752064,2.480218842
 1\F,1.1171120706,-1.6387501696,1.8700858845\F,2.8697904706,-0.38800505
 38,1.9588829922\F,-0.7283831044,0.9093125754,0.4922414783\F,-0.6265869
 992,-1.0835426303,-0.1462330464\O,1.9265000383,1.3465462365,-0.0003071
 693\H,2.7595022805,1.3583883975,-0.4859217091\\Version=ES64L-G16RevC.0
 1\HF=-764.5291069\RMSD=7.196e-09\RMSF=1.619e-06\ZeroPoint=0.0484271\Th
 ermal=0.0575421\ETot=-764.4715648\HTot=-764.4706206\GTot=-764.5155307\
 Dipole=-1.2438046,0.6634996,-0.1048256\DipoleDeriv=0.8905801,0.000092,
 -0.7637742,0.180576,1.391087,0.3329814,-1.3702093,0.270138,0.6610377,-
 0.6895309,0.1878396,0.3589457,0.2560079,-0.9213527,-0.3327218,0.622441
 4,-0.3391334,-0.8006334,1.784837,-0.0640201,0.4632024,0.2724104,1.4725
 349,0.4256161,-0.4650064,0.5285172,0.3551494,1.156155,0.0250922,-0.055
 4701,-0.2545447,1.598023,-0.1061019,0.672885,-0.0482592,1.7545591,-0.2
 9949,0.1643735,0.2315707,0.1313188,-0.4838893,-0.2742838,0.0685692,-0.
 2344066,-0.8790999,-0.2613239,-0.2003085,0.059935,-0.0895294,-0.851497
 7,0.2877161,-0.033574,0.229673,-0.4862954,-0.9897635,0.0104516,-0.2764
 321,0.0676007,-0.265131,0.064001,-0.4251963,0.0444545,-0.5144132,-0.79
 69542,0.4656948,0.075811,0.4995707,-0.5841616,-0.0515528,0.6124143,-0.
 3902914,0.0367184,-0.6475916,-0.3752803,-0.1898766,-0.752918,-0.581482
 3,-0.3971768,0.1702255,-0.1210775,0.0027522,-0.4773997,-0.2831421,0.09
 94656,-0.391866,-1.0810862,0.0942811,0.1437787,0.1006629,-0.4357299,0.
 3304816,0.0692073,-0.0033773,0.0813735,0.3069558,-0.0427587,0.003672,-
 0.0402776,0.305955\Polar=59.4044409,-2.2350126,46.427413,3.2851253,0.2
 199334,47.5639948\PG=Unknown\NImag=1\\0.38982473,-0.03940391,0.6032640
 2,-0.18785982,0.18456814,0.27747753,-0.18355361,0.14518768,0.13285594,
 0.22161264,0.11892230,-0.30812076,-0.16227146,-0.20269266,0.37388322,0
 .12717715,-0.18364488,-0.20514257,-0.17397280,0.23356459,0.25007591,-0
 .04311847,-0.04997034,0.10014406,-0.04799244,0.03643772,-0.00178253,0.
 58071452,-0.03309034,-0.03512016,0.00568880,0.03501286,-0.02188842,-0.
 01957580,0.04880958,0.68308832,0.06600864,-0.00392089,-0.05650415,0.02
 309154,-0.00029719,0.01386795,-0.14319137,0.15277051,0.23963202,-0.039
 94844,0.01653002,-0.08237082,-0.01356441,0.01233722,0.04061020,0.02256
 423,0.01016505,-0.03780185,0.57709367,-0.02041641,-0.01603325,0.000931
 22,0.01622205,-0.01404802,-0.02199974,0.03113049,0.02747977,0.00632682
 ,-0.00087266,0.55029748,0.04447202,0.00152548,0.01486325,0.00570125,-0
 .01710633,-0.03857833,-0.10238069,0.00634489,-0.00123095,0.03255745,0.
 02735188,0.42980643,0.00642010,0.00202021,0.00997466,-0.00072923,0.000
 35747,-0.00040476,-0.01393117,0.00347574,0.00748983,-0.11047751,0.0554
 7670,0.05745722,0.16002537,-0.00036789,-0.00586024,0.00189109,0.000816
 82,0.00154376,-0.00228331,0.00542380,-0.00522683,-0.00982922,0.0567539
 4,-0.14685102,-0.08680322,-0.10373159,0.21968895,-0.00106342,-0.024857
 61,0.00607850,0.00905231,-0.00498848,-0.01614755,0.01468099,0.00194607
 ,-0.02008727,0.06978323,-0.09012631,-0.18437200,-0.09396531,0.13282347
 ,0.18292597,0.00678204,-0.00621178,0.01134532,0.00125772,0.00006823,-0
 .00367725,-0.01088191,-0.00627731,0.00249061,-0.09337251,-0.06114604,0
 .01076396,0.01563992,0.01278964,-0.00204948,0.12534635,0.00737804,-0.0
 2357857,-0.01103556,-0.00438536,0.01226216,0.00250555,-0.01443978,-0.0
 1528235,0.01196830,-0.07079392,-0.27362745,0.05570276,0.00454949,-0.07
 333939,-0.01568053,0.11325997,0.38377006,-0.00220264,0.02267616,0.0046
 7495,0.00147948,-0.00292210,0.00071723,0.01009742,0.00347162,-0.010801
 25,0.01962645,0.05509289,-0.09217755,-0.00291793,-0.03822414,0.0090173
 6,-0.01604527,-0.03978588,0.07625670,-0.04552295,0.00466791,-0.0119823
 5,0.01244667,-0.00389613,0.00201143,0.01745038,0.00251653,-0.00702087,
 -0.31841101,-0.00174631,-0.07079438,-0.06385195,0.03067667,0.01363959,
 -0.04875464,-0.04065840,-0.00599140,0.44583900,0.01066154,-0.00178822,
 0.00407663,-0.00406883,0.00364168,0.00005818,-0.00555377,-0.00403098,0
 .00242298,0.00525855,-0.07373366,0.00027650,0.03913084,0.00134405,-0.0
 0203022,-0.05961737,-0.01399895,-0.00927322,0.00898392,0.08201090,-0.0
 4867976,0.00616411,-0.03042459,0.00227403,0.00114542,0.00461969,0.0236
 4489,0.00256188,-0.01041645,-0.08358336,-0.00263299,-0.09104545,0.0356
 8508,-0.00740118,0.01242961,0.00501628,-0.00206872,0.01409915,0.072387
 19,0.00641286,0.08812253,0.01777359,0.03051259,0.00622069,-0.01592552,
 0.00448742,0.00616077,-0.25248259,0.15891975,0.09612216,-0.00999607,-0
 .00235469,0.01657622,0.00397835,-0.00230962,-0.00719335,0.00217821,0.0
 0291188,-0.00313240,-0.00290892,0.00078713,-0.00498508,0.22097772,0.01
 329055,-0.01507767,0.01867923,-0.00005941,0.00331178,-0.00603551,0.150
 26979,-0.25080683,-0.11075802,0.01075073,0.00046767,-0.02148618,-0.005
 74845,0.00371941,0.00439239,-0.00177234,-0.00153970,0.00311354,0.00360
 111,-0.00060441,0.00509847,-0.18506923,0.34573155,-0.01892190,-0.01277
 289,0.02985188,0.00594198,-0.00651976,-0.01268575,0.11614578,-0.118934
 96,-0.10151075,0.01359177,0.00248193,-0.02101619,-0.01008736,0.0067822
 7,0.00648464,-0.00216749,-0.00388863,0.00414139,0.00427258,-0.00157987
 ,0.00660501,-0.10504718,0.15138703,0.09054703,0.00867369,-0.03639914,-
 0.01680387,0.00218117,0.00655913,0.00689658,-0.22262413,-0.17601202,-0
 .01709467,-0.00881355,-0.00852620,0.01480606,0.00258183,-0.00052386,-0
 .00409199,0.00164614,0.00513893,-0.00453042,-0.00319256,0.00167033,-0.
 00460403,0.03595077,0.01694436,0.00075080,0.19576842,0.00289887,-0.007
 15830,-0.04579312,0.00289772,0.01109867,0.01877053,-0.18943887,-0.3510
 2937,-0.04456942,-0.01651153,-0.01985709,0.02681606,0.00381580,-0.0000
 7215,-0.00698840,0.00828724,0.01015154,-0.00222871,-0.00626094,0.00337
 826,-0.00811492,-0.00082445,-0.09251289,-0.02378349,0.19694866,0.45064
 063,-0.01813366,-0.00358813,0.01746297,-0.00116710,-0.00253688,-0.0060
 3816,0.00098123,-0.03640647,-0.05170793,0.00548939,0.00127100,-0.00450
 202,-0.00099554,0.00139862,0.00241126,-0.00416334,-0.00370641,-0.00037
 877,0.00170153,-0.00082873,0.00294295,-0.00517922,-0.04140412,-0.00060
 975,0.02302927,0.08129610,0.03888856,-0.10401402,-0.05763544,0.0287871
 0,0.02448451,0.02083836,-0.00259480,-0.02547860,-0.04100620,0.00999812
 ,-0.00823955,-0.00878043,-0.01014153,0.00064702,0.00025721,0.00176644,
 0.00030906,-0.00410462,0.00508292,0.00810168,0.00287653,0.00319531,-0.
 00058984,-0.00180324,-0.00385714,-0.01217595,-0.00242523,-0.00173185,0
 .50285376,-0.00805330,-0.18289112,-0.02648089,0.00384852,-0.06604787,-
 0.01734061,-0.01361912,-0.02070101,-0.00677889,-0.02069874,-0.03171231
 ,0.00798116,0.00026812,0.00491042,0.00638100,0.00034048,-0.00399373,0.
 00707302,0.00117513,0.00365284,-0.00108571,-0.00811975,0.00689489,0.00
 765050,-0.00395351,-0.00464645,0.00576104,0.06760470,0.33312715,0.0373
 6639,0.00866510,-0.06263885,-0.00521429,-0.03584193,0.01338494,-0.0158
 2711,0.00558753,0.00073125,0.01696674,0.01856871,-0.01143499,-0.001571
 64,0.00144727,0.00109470,-0.00095067,0.00570183,-0.00481968,0.00351310
 ,0.00116261,0.00318549,0.00048497,-0.00273822,-0.00161684,0.00425193,0
 .00560293,0.00075402,-0.26105528,0.01217488,0.19576983,-0.01331667,-0.
 00929780,0.00968910,-0.00021751,0.00658094,-0.00042397,-0.00421982,-0.
 00251365,-0.00009213,0.00316516,0.00101351,0.00098243,-0.00030273,0.00
 021488,-0.00055901,-0.00015038,0.00114376,-0.00146620,-0.00119569,-0.0
 0012886,-0.00035055,0.00104429,-0.00040388,-0.00062185,0.00000417,0.00
 061272,0.00016930,-0.38589808,-0.01879253,0.22203586,0.40108725,-0.051
 81945,-0.00763573,0.02974593,0.00722060,0.00436379,-0.00401899,0.00095
 048,-0.00648213,0.00266502,-0.00291865,-0.00238211,-0.00060301,0.00038
 567,0.00014303,-0.00087138,0.00027929,-0.00082361,0.00100683,0.0009405
 1,0.00012849,-0.00007922,0.00105898,0.00041619,-0.00082213,-0.00184668
 ,0.00000715,-0.00125602,0.02417834,-0.03859282,-0.02033073,0.02157091,
 0.05085776,0.00183700,0.00518540,0.00430108,-0.00004234,-0.00222589,-0
 .00407335,-0.00251267,-0.00345407,-0.00197248,0.00513081,0.00273460,-0
 .00031218,-0.00066424,0.00019836,0.00016478,-0.00056266,0.00028729,-0.
 00072952,-0.00173641,-0.00069773,-0.00011794,-0.00002758,-0.00024860,-
 0.00019068,-0.00260966,-0.00100755,0.00077686,0.23055072,0.00466451,-0
 .13440988,-0.22936298,-0.00543632,0.13656331\\-0.00000096,-0.00000104,
 -0.00000081,-0.00000211,-0.00000254,0.00000018,-0.00000038,-0.00000001
 ,0.00000142,0.00000070,0.00000109,0.00000048,0.00000235,0.00000265,-0.
 00000032,-0.00000009,0.00000162,0.00000225,0.00000105,0.00000036,-0.00
 000134,0.00000056,0.00000166,0.00000078,-0.00000173,0.00000060,0.00000
 321,0.00000050,-0.00000151,-0.00000249,0.00000010,-0.00000286,-0.00000
 335\\\@
 The archive entry for this job was punched.


 HAPPINESS IS NOT HAVING WHAT YOU WANT --
 HAPPINESS IS WANTING WHAT YOU HAVE!

              -- FROM MRS. SEVERN'S DESK
 Job cpu time:       0 days  1 hours  4 minutes 23.9 seconds.
 Elapsed time:       0 days  0 hours  8 minutes 32.3 seconds.
 File lengths (MBytes):  RWF=    119 Int=      0 D2E=      0 Chk=      9 Scr=      1
 Normal termination of Gaussian 16 at Sat May 24 05:10:20 2025.
done
