 Entering Gaussian System, Link 0=g16
 Initial command:
 /apps/easybuild-2022/easybuild/software/Compiler/NVHPC/22.11-CUDA-11.7.0/Gaussian/g16c01-CUDA-11.7.0/g16/l1.exe "/tmp/Gau-219035.inp" -scrdir="/tmp/"
 Entering Link 1 = /apps/easybuild-2022/easybuild/software/Compiler/NVHPC/22.11-CUDA-11.7.0/Gaussian/g16c01-CUDA-11.7.0/g16/l1.exe PID=    219036.
  
 Copyright (c) 1988-2019, Gaussian, Inc.  All Rights Reserved.
  
 This is part of the Gaussian(R) 16 program.  It is based on
 the Gaussian(R) 09 system (copyright 2009, Gaussian, Inc.),
 the Gaussian(R) 03 system (copyright 2003, Gaussian, Inc.),
 the Gaussian(R) 98 system (copyright 1998, Gaussian, Inc.),
 the Gaussian(R) 94 system (copyright 1995, Gaussian, Inc.),
 the Gaussian 92(TM) system (copyright 1992, Gaussian, Inc.),
 the Gaussian 90(TM) system (copyright 1990, Gaussian, Inc.),
 the Gaussian 88(TM) system (copyright 1988, Gaussian, Inc.),
 the Gaussian 86(TM) system (copyright 1986, Carnegie Mellon
 University), and the Gaussian 82(TM) system (copyright 1983,
 Carnegie Mellon University). Gaussian is a federally registered
 trademark of Gaussian, Inc.
  
 This software contains proprietary and confidential information,
 including trade secrets, belonging to Gaussian, Inc.
  
 This software is provided under written license and may be
 used, copied, transmitted, or stored only in accord with that
 written license.
  
 The following legend is applicable only to US Government
 contracts under FAR:
  
                    RESTRICTED RIGHTS LEGEND
  
 Use, reproduction and disclosure by the US Government is
 subject to restrictions as set forth in subparagraphs (a)
 and (c) of the Commercial Computer Software - Restricted
 Rights clause in FAR 52.227-19.
  
 Gaussian, Inc.
 340 Quinnipiac St., Bldg. 40, Wallingford CT 06492
  
  
 ---------------------------------------------------------------
 Warning -- This program may not be used in any manner that
 competes with the business of Gaussian, Inc. or will provide
 assistance to any competitor of Gaussian, Inc.  The licensee
 of this program is prohibited from giving any competitor of
 Gaussian, Inc. access to this program.  By using this program,
 the user acknowledges that Gaussian, Inc. is engaged in the
 business of creating and licensing software in the field of
 computational chemistry and represents and warrants to the
 licensee that it is not a competitor of Gaussian, Inc. and that
 it will not use this program in any manner prohibited above.
 ---------------------------------------------------------------
  

 Cite this work as:
 Gaussian 16, Revision C.01,
 M. J. Frisch, G. W. Trucks, H. B. Schlegel, G. E. Scuseria, 
 M. A. Robb, J. R. Cheeseman, G. Scalmani, V. Barone, 
 G. A. Petersson, H. Nakatsuji, X. Li, M. Caricato, A. V. Marenich, 
 J. Bloino, B. G. Janesko, R. Gomperts, B. Mennucci, H. P. Hratchian, 
 J. V. Ortiz, A. F. Izmaylov, J. L. Sonnenberg, D. Williams-Young, 
 F. Ding, F. Lipparini, F. Egidi, J. Goings, B. Peng, A. Petrone, 
 T. Henderson, D. Ranasinghe, V. G. Zakrzewski, J. Gao, N. Rega, 
 G. Zheng, W. Liang, M. Hada, M. Ehara, K. Toyota, R. Fukuda, 
 J. Hasegawa, M. Ishida, T. Nakajima, Y. Honda, O. Kitao, H. Nakai, 
 T. Vreven, K. Throssell, J. A. Montgomery, Jr., J. E. Peralta, 
 F. Ogliaro, M. J. Bearpark, J. J. Heyd, E. N. Brothers, K. N. Kudin, 
 V. N. Staroverov, T. A. Keith, R. Kobayashi, J. Normand, 
 K. Raghavachari, A. P. Rendell, J. C. Burant, S. S. Iyengar, 
 J. Tomasi, M. Cossi, J. M. Millam, M. Klene, C. Adamo, R. Cammi, 
 J. W. Ochterski, R. L. Martin, K. Morokuma, O. Farkas, 
 J. B. Foresman, and D. J. Fox, Gaussian, Inc., Wallingford CT, 2019.
 
 ******************************************
 Gaussian 16:  ES64L-G16RevC.01  3-Jul-2019
                24-May-2025 
 ******************************************
 %mem=28GB
 %nprocshared=8
 Will use up to    8 processors via shared memory.
 ----------------------------------------------------------------------
 #P M062X/Def2TZVPP Symm(None) scf(xqc) pop(None) opt(NoFreeze,TS,CalcA
 ll,NoEigentest,MaxCycle=999)
 ----------------------------------------------------------------------
 1/5=1,6=999,10=4,11=1,18=20,26=3,29=2000,38=1/1,3;
 2/9=110,12=2,15=3,17=6,18=5,40=1/2;
 3/5=44,7=202,11=2,25=1,30=1,71=2,74=-55,140=1/1,2,3;
 4//1;
 5/5=2,8=3,13=1,38=5/2,8;
 8/6=4,10=90,11=11/1;
 11/6=1,8=1,9=11,15=111,16=1,31=1/1,2,10;
 10/6=1,31=1/2;
 7/10=1,25=1,30=1/1,2,3,16;
 1/5=1,6=999,10=4,11=1,18=20,26=3/3(3);
 2/9=110,15=3/2;
 7/8=1,9=1,25=1,30=1,44=-1/16;
 99//99;
 2/9=110,15=3/2;
 3/5=44,7=202,11=2,25=1,30=1,71=2,74=-55,140=1/1,2,3;
 4/5=5,16=3,69=1/1;
 5/5=2,8=3,13=1,38=5/2,8;
 8/6=4,10=90,11=11/1;
 11/6=1,8=1,9=11,15=111,16=1,31=1/1,2,10;
 10/6=1,31=1/2;
 7/10=1,25=1,30=1/1,2,3,16;
 1/5=1,6=999,10=4,11=1,18=20,26=3/3(-8);
 2/9=110,15=3/2;
 7/8=1,9=1,25=1,30=1,44=-1/16;
 99//99;
 Leave Link    1 at Sat May 24 05:05:36 2025, MaxMem=  3758096384 cpu:               0.1 elap:               0.0
 (Enter /apps/easybuild-2022/easybuild/software/Compiler/NVHPC/22.11-CUDA-11.7.0/Gaussian/g16c01-CUDA-11.7.0/g16/l101.exe)
 ------------------------------
 Gaussian input prepared by ASE
 ------------------------------
 Symbolic Z-matrix:
 Charge =  0 Multiplicity = 1
 C                     1.49882   0.        0. 
 O                     2.13135  -1.00794   0.12013 
 C                     0.        0.        0. 
 C                    -1.24817   1.53937   0.45054 
 F                    -1.76578   2.66116  -0.03305 
 F                    -2.24902   0.7295    0.63344 
 F                    -0.57056   1.88986   1.50408 
 F                    -0.40483   1.27087  -0.93178 
 F                    -0.47703  -1.0055   -0.69646 
 O                     2.01453   1.23402   0. 
 H                     2.97084   1.14905   0.11258 
 
 Add virtual bond connecting atoms F8         and C4         Dist= 3.10D+00.
 ITRead=  0  0  0  0  0  0  0  0  0  0  0
 MicOpt= -1 -1 -1 -1 -1 -1 -1 -1 -1 -1 -1
 NAtoms=     11 NQM=       11 NQMF=       0 NMMI=      0 NMMIF=      0
                NMic=       0 NMicF=      0.
                    Isotopes and Nuclear Properties:
 (Nuclear quadrupole moments (NQMom) in fm**2, nuclear magnetic moments (NMagM)
  in nuclear magnetons)

  Atom         1           2           3           4           5           6           7           8           9          10
 IAtWgt=          12          16          12          12          19          19          19          19          19          16
 AtmWgt=  12.0000000  15.9949146  12.0000000  12.0000000  18.9984032  18.9984032  18.9984032  18.9984032  18.9984032  15.9949146
 NucSpn=           0           0           0           0           1           1           1           1           1           0
 AtZEff=  -0.0000000  -0.0000000  -0.0000000  -0.0000000  -0.0000000  -0.0000000  -0.0000000  -0.0000000  -0.0000000  -0.0000000
 NQMom=    0.0000000   0.0000000   0.0000000   0.0000000   0.0000000   0.0000000   0.0000000   0.0000000   0.0000000   0.0000000
 NMagM=    0.0000000   0.0000000   0.0000000   0.0000000   2.6288670   2.6288670   2.6288670   2.6288670   2.6288670   0.0000000
 AtZNuc=   6.0000000   8.0000000   6.0000000   6.0000000   9.0000000   9.0000000   9.0000000   9.0000000   9.0000000   8.0000000

  Atom        11
 IAtWgt=           1
 AtmWgt=   1.0078250
 NucSpn=           1
 AtZEff=  -0.0000000
 NQMom=    0.0000000
 NMagM=    2.7928460
 AtZNuc=   1.0000000
 Leave Link  101 at Sat May 24 05:05:36 2025, MaxMem=  3758096384 cpu:               0.2 elap:               0.2
 (Enter /apps/easybuild-2022/easybuild/software/Compiler/NVHPC/22.11-CUDA-11.7.0/Gaussian/g16c01-CUDA-11.7.0/g16/l103.exe)

 GradGradGradGradGradGradGradGradGradGradGradGradGradGradGradGradGradGrad
 Berny optimization.
 Initialization pass.
                           ----------------------------
                           !    Initial Parameters    !
                           ! (Angstroms and Degrees)  !
 --------------------------                            --------------------------
 ! Name  Definition              Value          Derivative Info.                !
 --------------------------------------------------------------------------------
 ! R1    R(1,2)                  1.196          calculate D2E/DX2 analytically  !
 ! R2    R(1,3)                  1.4988         calculate D2E/DX2 analytically  !
 ! R3    R(1,10)                 1.3374         calculate D2E/DX2 analytically  !
 ! R4    R(3,8)                  1.627          calculate D2E/DX2 analytically  !
 ! R5    R(3,9)                  1.3129         calculate D2E/DX2 analytically  !
 ! R6    R(4,5)                  1.3267         calculate D2E/DX2 analytically  !
 ! R7    R(4,6)                  1.3004         calculate D2E/DX2 analytically  !
 ! R8    R(4,7)                  1.3008         calculate D2E/DX2 analytically  !
 ! R9    R(4,8)                  1.6414         calculate D2E/DX2 analytically  !
 ! R10   R(10,11)                0.9667         calculate D2E/DX2 analytically  !
 ! A1    A(2,1,3)              121.9286         calculate D2E/DX2 analytically  !
 ! A2    A(2,1,10)             125.0053         calculate D2E/DX2 analytically  !
 ! A3    A(3,1,10)             112.6803         calculate D2E/DX2 analytically  !
 ! A4    A(1,3,8)              104.4075         calculate D2E/DX2 analytically  !
 ! A5    A(1,3,9)              111.3059         calculate D2E/DX2 analytically  !
 ! A6    A(8,3,9)              101.772          calculate D2E/DX2 analytically  !
 ! A7    A(5,4,6)              106.1163         calculate D2E/DX2 analytically  !
 ! A8    A(5,4,7)              105.7024         calculate D2E/DX2 analytically  !
 ! A9    A(5,4,8)               91.8221         calculate D2E/DX2 analytically  !
 ! A10   A(6,4,7)              117.0542         calculate D2E/DX2 analytically  !
 ! A11   A(6,4,8)              114.3314         calculate D2E/DX2 analytically  !
 ! A12   A(7,4,8)              117.2923         calculate D2E/DX2 analytically  !
 ! A13   A(3,8,4)               76.8982         calculate D2E/DX2 analytically  !
 ! A14   A(1,10,11)            107.4792         calculate D2E/DX2 analytically  !
 ! D1    D(2,1,3,8)           -150.5483         calculate D2E/DX2 analytically  !
 ! D2    D(2,1,3,9)            -41.5049         calculate D2E/DX2 analytically  !
 ! D3    D(10,1,3,8)            36.2481         calculate D2E/DX2 analytically  !
 ! D4    D(10,1,3,9)           145.2915         calculate D2E/DX2 analytically  !
 ! D5    D(2,1,10,11)            0.0298         calculate D2E/DX2 analytically  !
 ! D6    D(3,1,10,11)          172.9865         calculate D2E/DX2 analytically  !
 ! D7    D(1,3,8,4)           -127.1895         calculate D2E/DX2 analytically  !
 ! D8    D(9,3,8,4)            116.9143         calculate D2E/DX2 analytically  !
 ! D9    D(5,4,8,3)            179.9215         calculate D2E/DX2 analytically  !
 ! D10   D(6,4,8,3)            -71.4648         calculate D2E/DX2 analytically  !
 ! D11   D(7,4,8,3)             71.1913         calculate D2E/DX2 analytically  !
 --------------------------------------------------------------------------------
 Trust Radius=3.00D-01 FncErr=1.00D-07 GrdErr=1.00D-06 EigMax=2.50D+02 EigMin=1.00D-04
 Number of steps in this run=    100 maximum allowed number of steps=    100.
 Search for a saddle point of order  1.
 GradGradGradGradGradGradGradGradGradGradGradGradGradGradGradGradGradGrad

 Leave Link  103 at Sat May 24 05:05:36 2025, MaxMem=  3758096384 cpu:               0.1 elap:               0.0
 (Enter /apps/easybuild-2022/easybuild/software/Compiler/NVHPC/22.11-CUDA-11.7.0/Gaussian/g16c01-CUDA-11.7.0/g16/l202.exe)
                          Input orientation:                          
 ---------------------------------------------------------------------
 Center     Atomic      Atomic             Coordinates (Angstroms)
 Number     Number       Type             X           Y           Z
 ---------------------------------------------------------------------
      1          6           0        1.498824    0.000000    0.000000
      2          8           0        2.131352   -1.007937    0.120126
      3          6           0        0.000000    0.000000    0.000000
      4          6           0       -1.248172    1.539372    0.450543
      5          9           0       -1.765778    2.661160   -0.033052
      6          9           0       -2.249016    0.729498    0.633439
      7          9           0       -0.570555    1.889857    1.504084
      8          9           0       -0.404830    1.270869   -0.931775
      9          9           0       -0.477030   -1.005499   -0.696461
     10          8           0        2.014528    1.234020    0.000000
     11          1           0        2.970844    1.149051    0.112583
 ---------------------------------------------------------------------
                    Distance matrix (angstroms):
                    1          2          3          4          5
     1  C    0.000000
     2  O    1.196018   0.000000
     3  C    1.498824   2.360726   0.000000
     4  C    3.180981   4.244896   2.032385   0.000000
     5  F    4.211946   5.354750   3.193875   1.326721   0.000000
     6  F    3.870363   4.740231   2.447751   1.300398   2.099774
     7  F    3.180591   4.196767   2.481806   1.300751   2.094338
     8  F    2.471277   3.568146   1.627022   1.641379   2.143080
     9  F    2.323808   2.733217   1.312876   2.895970   3.942761
    10  O    1.337444   2.248210   2.362441   3.307785   4.040857
    11  H    1.870785   2.314606   3.187304   4.250490   4.974261
                    6          7          8          9         10
     6  F    0.000000
     7  F    2.218487   0.000000
     8  F    2.478710   2.518734   0.000000
     9  F    2.814033   3.637888   2.289637   0.000000
    10  O    4.339769   3.061869   2.592846   3.421748   0.000000
    11  H    5.262533   3.876413   3.535632   4.145416   0.966662
                   11
    11  H    0.000000
 Symmetry turned off by external request.
 Stoichiometry    C3HF5O2
 Rotational constants (GHZ):           2.3000994           0.9924915           0.8428466
 Leave Link  202 at Sat May 24 05:05:36 2025, MaxMem=  3758096384 cpu:               0.0 elap:               0.0
 (Enter /apps/easybuild-2022/easybuild/software/Compiler/NVHPC/22.11-CUDA-11.7.0/Gaussian/g16c01-CUDA-11.7.0/g16/l301.exe)
 Standard basis: def2TZVPP (5D, 7F)
 Ernie: Thresh=  0.10000D-02 Tol=  0.10000D-05 Strict=F.
   324 basis functions,   527 primitive gaussians,   375 cartesian basis functions
    40 alpha electrons       40 beta electrons
       nuclear repulsion energy       621.4594326843 Hartrees.
 IExCor= 4336 DFT=T Ex+Corr=M062X ExCW=0 ScaHFX=  0.540000
 ScaDFX=  1.000000  1.000000  1.000000  1.000000 ScalE2=  1.000000  1.000000
 IRadAn=      5 IRanWt=     -1 IRanGd=            0 ICorTp=0 IEmpDi=  4
 NAtoms=   11 NActive=   11 NUniq=   11 SFac= 1.00D+00 NAtFMM=   60 NAOKFM=F Big=F
 Integral buffers will be    131072 words long.
 Raffenetti 2 integral format.
 Two-electron integral symmetry is turned off.
 Leave Link  301 at Sat May 24 05:05:36 2025, MaxMem=  3758096384 cpu:               0.1 elap:               0.1
 (Enter /apps/easybuild-2022/easybuild/software/Compiler/NVHPC/22.11-CUDA-11.7.0/Gaussian/g16c01-CUDA-11.7.0/g16/l302.exe)
 NPDir=0 NMtPBC=     1 NCelOv=     1 NCel=       1 NClECP=     1 NCelD=      1
         NCelK=      1 NCelE2=     1 NClLst=     1 CellRange=     0.0.
 One-electron integrals computed using PRISM.
   1 Symmetry operations used in ECPInt.
 ECPInt:  NShTT=    6786 NPrTT=   21959 LenC2=    6388 LenP2D=   15606.
 LDataN:  DoStor=T MaxTD1= 6 Len=  172
 NBasis=   324 RedAO= T EigKep=  3.24D-04  NBF=   324
 NBsUse=   324 1.00D-06 EigRej= -1.00D+00 NBFU=   324
 Precomputing XC quadrature grid using
 IXCGrd= 4 IRadAn=           5 IRanWt=          -1 IRanGd=           0 AccXCQ= 0.00D+00.
 Generated NRdTot=       0 NPtTot=           0 NUsed=           0 NTot=          32
 NSgBfM=   373   373   373   373   373 MxSgAt=    11 MxSgA2=    11.
 Leave Link  302 at Sat May 24 05:05:36 2025, MaxMem=  3758096384 cpu:               0.8 elap:               0.2
 (Enter /apps/easybuild-2022/easybuild/software/Compiler/NVHPC/22.11-CUDA-11.7.0/Gaussian/g16c01-CUDA-11.7.0/g16/l303.exe)
 DipDrv:  MaxL=1.
 Leave Link  303 at Sat May 24 05:05:36 2025, MaxMem=  3758096384 cpu:               0.1 elap:               0.1
 (Enter /apps/easybuild-2022/easybuild/software/Compiler/NVHPC/22.11-CUDA-11.7.0/Gaussian/g16c01-CUDA-11.7.0/g16/l401.exe)
 ExpMin= 9.52D-02 ExpMax= 3.55D+04 ExpMxC= 1.21D+03 IAcc=3 IRadAn=         5 AccDes= 0.00D+00
 Harris functional with IExCor= 1009 and IRadAn=       5 diagonalized for initial guess.
 HarFok:  IExCor= 1009 AccDes= 0.00D+00 IRadAn=         5 IDoV= 1 UseB2=F ITyADJ=14
 ICtDFT=  3500011 ScaDFX=  1.000000  1.000000  1.000000  1.000000
 FoFCou: FMM=F IPFlag=           0 FMFlag=      100000 FMFlg1=           0
         NFxFlg=           0 DoJE=T BraDBF=F KetDBF=T FulRan=T
         wScrn=  0.000000 ICntrl=       500 IOpCl=  0 I1Cent=   200000004 NGrid=           0
         NMat0=    1 NMatS0=      1 NMatT0=    0 NMatD0=    1 NMtDS0=    0 NMtDT0=    0
 Symmetry not used in FoFCou.
 Harris En= -764.050952976718    
 JPrj=0 DoOrth=F DoCkMO=F.
 Leave Link  401 at Sat May 24 05:05:37 2025, MaxMem=  3758096384 cpu:               3.2 elap:               0.7
 (Enter /apps/easybuild-2022/easybuild/software/Compiler/NVHPC/22.11-CUDA-11.7.0/Gaussian/g16c01-CUDA-11.7.0/g16/l502.exe)
 Keep R1 ints in memory in canonical form, NReq=1412617130.
 FoFCou: FMM=F IPFlag=           0 FMFlag=           0 FMFlg1=           0
         NFxFlg=           0 DoJE=F BraDBF=F KetDBF=F FulRan=T
         wScrn=  0.000000 ICntrl=       600 IOpCl=  0 I1Cent=           0 NGrid=           0
         NMat0=    1 NMatS0=  52650 NMatT0=    0 NMatD0=    1 NMtDS0=    0 NMtDT0=    0
 Symmetry not used in FoFCou.
 Two-electron integral symmetry not used.
 Closed shell SCF:
 Using DIIS extrapolation, IDIIS=  1040.
 NGot=  3758096384 LenX=  2371771924 LenY=  2371630858
 Requested convergence on RMS density matrix=1.00D-08 within  32 cycles.
 Requested convergence on MAX density matrix=1.00D-06.
 Requested convergence on             energy=1.00D-06.
 No special actions if energy rises.
 Integral accuracy reduced to 1.0D-05 until final iterations.

 Cycle   1  Pass 0  IDiag  1:
 E= -764.251457436253    
 DIIS: error= 1.92D-02 at cycle   1 NSaved=   1.
 NSaved= 1 IEnMin= 1 EnMin= -764.251457436253     IErMin= 1 ErrMin= 1.92D-02
 ErrMax= 1.92D-02  0.00D+00 EMaxC= 1.00D-01 BMatC= 3.86D-01 BMatP= 3.86D-01
 IDIUse=3 WtCom= 8.08D-01 WtEn= 1.92D-01
 Coeff-Com:  0.100D+01
 Coeff-En:   0.100D+01
 Coeff:      0.100D+01
 Gap=     0.321 Goal=   None    Shift=    0.000
 GapD=    0.321 DampG=1.000 DampE=0.500 DampFc=0.5000 IDamp=-1.
 Damping current iteration by 5.00D-01
 RMSDP=2.56D-03 MaxDP=1.06D-01              OVMax= 2.77D-01

 Cycle   2  Pass 0  IDiag  1:
 E= -764.324388210620     Delta-E=       -0.072930774367 Rises=F Damp=T
 DIIS: error= 5.78D-03 at cycle   2 NSaved=   2.
 NSaved= 2 IEnMin= 2 EnMin= -764.324388210620     IErMin= 2 ErrMin= 5.78D-03
 ErrMax= 5.78D-03  0.00D+00 EMaxC= 1.00D-01 BMatC= 4.61D-02 BMatP= 3.86D-01
 IDIUse=3 WtCom= 9.42D-01 WtEn= 5.78D-02
 Coeff-Com:  0.887D-01 0.911D+00
 Coeff-En:   0.265D+00 0.735D+00
 Coeff:      0.989D-01 0.901D+00
 Gap=     0.370 Goal=   None    Shift=    0.000
 RMSDP=7.64D-04 MaxDP=2.07D-02 DE=-7.29D-02 OVMax= 1.66D-01

 Cycle   3  Pass 0  IDiag  1:
 E= -764.454262096198     Delta-E=       -0.129873885578 Rises=F Damp=F
 DIIS: error= 5.70D-03 at cycle   3 NSaved=   3.
 NSaved= 3 IEnMin= 3 EnMin= -764.454262096198     IErMin= 3 ErrMin= 5.70D-03
 ErrMax= 5.70D-03  0.00D+00 EMaxC= 1.00D-01 BMatC= 2.11D-02 BMatP= 4.61D-02
 IDIUse=3 WtCom= 9.43D-01 WtEn= 5.70D-02
 Coeff-Com: -0.607D-01 0.380D+00 0.680D+00
 Coeff-En:   0.000D+00 0.000D+00 0.100D+01
 Coeff:     -0.573D-01 0.359D+00 0.699D+00
 Gap=     0.273 Goal=   None    Shift=    0.000
 RMSDP=3.80D-04 MaxDP=1.95D-02 DE=-1.30D-01 OVMax= 5.56D-02

 Cycle   4  Pass 0  IDiag  1:
 E= -764.464742799894     Delta-E=       -0.010480703696 Rises=F Damp=F
 DIIS: error= 2.51D-03 at cycle   4 NSaved=   4.
 NSaved= 4 IEnMin= 4 EnMin= -764.464742799894     IErMin= 4 ErrMin= 2.51D-03
 ErrMax= 2.51D-03  0.00D+00 EMaxC= 1.00D-01 BMatC= 7.36D-03 BMatP= 2.11D-02
 IDIUse=3 WtCom= 9.75D-01 WtEn= 2.51D-02
 Coeff-Com: -0.506D-01 0.920D-01 0.418D+00 0.541D+00
 Coeff-En:   0.000D+00 0.000D+00 0.233D+00 0.767D+00
 Coeff:     -0.493D-01 0.897D-01 0.413D+00 0.546D+00
 Gap=     0.276 Goal=   None    Shift=    0.000
 RMSDP=1.48D-04 MaxDP=7.20D-03 DE=-1.05D-02 OVMax= 1.98D-02

 Cycle   5  Pass 0  IDiag  1:
 E= -764.469486547878     Delta-E=       -0.004743747984 Rises=F Damp=F
 DIIS: error= 3.39D-04 at cycle   5 NSaved=   5.
 NSaved= 5 IEnMin= 5 EnMin= -764.469486547878     IErMin= 5 ErrMin= 3.39D-04
 ErrMax= 3.39D-04  0.00D+00 EMaxC= 1.00D-01 BMatC= 7.52D-05 BMatP= 7.36D-03
 IDIUse=3 WtCom= 9.97D-01 WtEn= 3.39D-03
 Coeff-Com: -0.108D-01 0.128D-01 0.864D-01 0.154D+00 0.758D+00
 Coeff-En:   0.000D+00 0.000D+00 0.000D+00 0.000D+00 0.100D+01
 Coeff:     -0.107D-01 0.128D-01 0.862D-01 0.153D+00 0.759D+00
 Gap=     0.276 Goal=   None    Shift=    0.000
 RMSDP=3.70D-05 MaxDP=2.86D-03 DE=-4.74D-03 OVMax= 5.18D-03

 Cycle   6  Pass 0  IDiag  1:
 E= -764.469576189243     Delta-E=       -0.000089641365 Rises=F Damp=F
 DIIS: error= 1.18D-04 at cycle   6 NSaved=   6.
 NSaved= 6 IEnMin= 6 EnMin= -764.469576189243     IErMin= 6 ErrMin= 1.18D-04
 ErrMax= 1.18D-04  0.00D+00 EMaxC= 1.00D-01 BMatC= 1.66D-05 BMatP= 7.52D-05
 IDIUse=3 WtCom= 9.99D-01 WtEn= 1.18D-03
 Coeff-Com:  0.219D-02-0.676D-02-0.204D-01-0.176D-01 0.280D+00 0.762D+00
 Coeff-En:   0.000D+00 0.000D+00 0.000D+00 0.000D+00 0.000D+00 0.100D+01
 Coeff:      0.219D-02-0.675D-02-0.203D-01-0.176D-01 0.280D+00 0.763D+00
 Gap=     0.277 Goal=   None    Shift=    0.000
 RMSDP=1.86D-05 MaxDP=6.97D-04 DE=-8.96D-05 OVMax= 3.09D-03

 Cycle   7  Pass 0  IDiag  1:
 E= -764.469597840138     Delta-E=       -0.000021650895 Rises=F Damp=F
 DIIS: error= 5.29D-05 at cycle   7 NSaved=   7.
 NSaved= 7 IEnMin= 7 EnMin= -764.469597840138     IErMin= 7 ErrMin= 5.29D-05
 ErrMax= 5.29D-05  0.00D+00 EMaxC= 1.00D-01 BMatC= 3.34D-06 BMatP= 1.66D-05
 IDIUse=1 WtCom= 1.00D+00 WtEn= 0.00D+00
 Coeff-Com:  0.338D-02-0.621D-02-0.248D-01-0.371D-01 0.439D-02 0.312D+00
 Coeff-Com:  0.748D+00
 Coeff:      0.338D-02-0.621D-02-0.248D-01-0.371D-01 0.439D-02 0.312D+00
 Coeff:      0.748D+00
 Gap=     0.277 Goal=   None    Shift=    0.000
 RMSDP=9.02D-06 MaxDP=3.33D-04 DE=-2.17D-05 OVMax= 1.70D-03

 Initial convergence to 1.0D-05 achieved.  Increase integral accuracy.
 Cycle   8  Pass 1  IDiag  1:
 E= -764.469635307470     Delta-E=       -0.000037467332 Rises=F Damp=F
 DIIS: error= 3.68D-05 at cycle   1 NSaved=   1.
 NSaved= 1 IEnMin= 1 EnMin= -764.469635307470     IErMin= 1 ErrMin= 3.68D-05
 ErrMax= 3.68D-05  0.00D+00 EMaxC= 1.00D-01 BMatC= 1.39D-06 BMatP= 1.39D-06
 IDIUse=1 WtCom= 1.00D+00 WtEn= 0.00D+00
 Coeff-Com:  0.100D+01
 Coeff:      0.100D+01
 Gap=     0.277 Goal=   None    Shift=    0.000
 RMSDP=9.02D-06 MaxDP=3.33D-04 DE=-3.75D-05 OVMax= 5.72D-04

 Cycle   9  Pass 1  IDiag  1:
 E= -764.469635789519     Delta-E=       -0.000000482049 Rises=F Damp=F
 DIIS: error= 4.01D-05 at cycle   2 NSaved=   2.
 NSaved= 2 IEnMin= 2 EnMin= -764.469635789519     IErMin= 1 ErrMin= 3.68D-05
 ErrMax= 4.01D-05  0.00D+00 EMaxC= 1.00D-01 BMatC= 1.48D-06 BMatP= 1.39D-06
 IDIUse=1 WtCom= 1.00D+00 WtEn= 0.00D+00
 Coeff-Com:  0.509D+00 0.491D+00
 Coeff:      0.509D+00 0.491D+00
 Gap=     0.277 Goal=   None    Shift=    0.000
 RMSDP=2.40D-06 MaxDP=1.53D-04 DE=-4.82D-07 OVMax= 3.79D-04

 Cycle  10  Pass 1  IDiag  1:
 E= -764.469636677353     Delta-E=       -0.000000887834 Rises=F Damp=F
 DIIS: error= 1.41D-05 at cycle   3 NSaved=   3.
 NSaved= 3 IEnMin= 3 EnMin= -764.469636677353     IErMin= 3 ErrMin= 1.41D-05
 ErrMax= 1.41D-05  0.00D+00 EMaxC= 1.00D-01 BMatC= 1.15D-07 BMatP= 1.39D-06
 IDIUse=1 WtCom= 1.00D+00 WtEn= 0.00D+00
 Coeff-Com: -0.496D-01 0.186D+00 0.864D+00
 Coeff:     -0.496D-01 0.186D+00 0.864D+00
 Gap=     0.277 Goal=   None    Shift=    0.000
 RMSDP=1.26D-06 MaxDP=3.94D-05 DE=-8.88D-07 OVMax= 1.98D-04

 Cycle  11  Pass 1  IDiag  1:
 E= -764.469636793937     Delta-E=       -0.000000116584 Rises=F Damp=F
 DIIS: error= 3.17D-06 at cycle   4 NSaved=   4.
 NSaved= 4 IEnMin= 4 EnMin= -764.469636793937     IErMin= 4 ErrMin= 3.17D-06
 ErrMax= 3.17D-06  0.00D+00 EMaxC= 1.00D-01 BMatC= 1.13D-08 BMatP= 1.15D-07
 IDIUse=1 WtCom= 1.00D+00 WtEn= 0.00D+00
 Coeff-Com: -0.493D-01 0.526D-01 0.333D+00 0.664D+00
 Coeff:     -0.493D-01 0.526D-01 0.333D+00 0.664D+00
 Gap=     0.277 Goal=   None    Shift=    0.000
 RMSDP=4.21D-07 MaxDP=1.56D-05 DE=-1.17D-07 OVMax= 8.14D-05

 Cycle  12  Pass 1  IDiag  1:
 E= -764.469636809388     Delta-E=       -0.000000015450 Rises=F Damp=F
 DIIS: error= 1.54D-06 at cycle   5 NSaved=   5.
 NSaved= 5 IEnMin= 5 EnMin= -764.469636809388     IErMin= 5 ErrMin= 1.54D-06
 ErrMax= 1.54D-06  0.00D+00 EMaxC= 1.00D-01 BMatC= 2.63D-09 BMatP= 1.13D-08
 IDIUse=1 WtCom= 1.00D+00 WtEn= 0.00D+00
 Coeff-Com:  0.299D-02-0.467D-01-0.239D+00 0.201D+00 0.108D+01
 Coeff:      0.299D-02-0.467D-01-0.239D+00 0.201D+00 0.108D+01
 Gap=     0.277 Goal=   None    Shift=    0.000
 RMSDP=4.32D-07 MaxDP=2.09D-05 DE=-1.55D-08 OVMax= 9.03D-05

 Cycle  13  Pass 1  IDiag  1:
 E= -764.469636815882     Delta-E=       -0.000000006495 Rises=F Damp=F
 DIIS: error= 5.93D-07 at cycle   6 NSaved=   6.
 NSaved= 6 IEnMin= 6 EnMin= -764.469636815882     IErMin= 6 ErrMin= 5.93D-07
 ErrMax= 5.93D-07  0.00D+00 EMaxC= 1.00D-01 BMatC= 3.04D-10 BMatP= 2.63D-09
 IDIUse=1 WtCom= 1.00D+00 WtEn= 0.00D+00
 Coeff-Com:  0.550D-02-0.221D-01-0.128D+00 0.322D-01 0.451D+00 0.661D+00
 Coeff:      0.550D-02-0.221D-01-0.128D+00 0.322D-01 0.451D+00 0.661D+00
 Gap=     0.277 Goal=   None    Shift=    0.000
 RMSDP=7.56D-08 MaxDP=3.23D-06 DE=-6.49D-09 OVMax= 1.42D-05

 Cycle  14  Pass 1  IDiag  1:
 E= -764.469636816220     Delta-E=       -0.000000000337 Rises=F Damp=F
 DIIS: error= 3.05D-07 at cycle   7 NSaved=   7.
 NSaved= 7 IEnMin= 7 EnMin= -764.469636816220     IErMin= 7 ErrMin= 3.05D-07
 ErrMax= 3.05D-07  0.00D+00 EMaxC= 1.00D-01 BMatC= 6.79D-11 BMatP= 3.04D-10
 IDIUse=1 WtCom= 1.00D+00 WtEn= 0.00D+00
 Coeff-Com:  0.269D-02-0.616D-02-0.420D-01-0.806D-02 0.110D+00 0.348D+00
 Coeff-Com:  0.596D+00
 Coeff:      0.269D-02-0.616D-02-0.420D-01-0.806D-02 0.110D+00 0.348D+00
 Coeff:      0.596D+00
 Gap=     0.277 Goal=   None    Shift=    0.000
 RMSDP=2.62D-08 MaxDP=9.93D-07 DE=-3.37D-10 OVMax= 3.96D-06

 Cycle  15  Pass 1  IDiag  1:
 E= -764.469636816272     Delta-E=       -0.000000000052 Rises=F Damp=F
 DIIS: error= 9.43D-08 at cycle   8 NSaved=   8.
 NSaved= 8 IEnMin= 8 EnMin= -764.469636816272     IErMin= 8 ErrMin= 9.43D-08
 ErrMax= 9.43D-08  0.00D+00 EMaxC= 1.00D-01 BMatC= 6.92D-12 BMatP= 6.79D-11
 IDIUse=1 WtCom= 1.00D+00 WtEn= 0.00D+00
 Coeff-Com: -0.175D-03 0.249D-02 0.102D-01-0.993D-02-0.497D-01 0.532D-02
 Coeff-Com:  0.248D+00 0.794D+00
 Coeff:     -0.175D-03 0.249D-02 0.102D-01-0.993D-02-0.497D-01 0.532D-02
 Coeff:      0.248D+00 0.794D+00
 Gap=     0.277 Goal=   None    Shift=    0.000
 RMSDP=1.21D-08 MaxDP=4.25D-07 DE=-5.21D-11 OVMax= 1.82D-06

 Cycle  16  Pass 1  IDiag  1:
 E= -764.469636816244     Delta-E=        0.000000000028 Rises=F Damp=F
 DIIS: error= 2.02D-08 at cycle   9 NSaved=   9.
 NSaved= 9 IEnMin= 8 EnMin= -764.469636816272     IErMin= 9 ErrMin= 2.02D-08
 ErrMax= 2.02D-08  0.00D+00 EMaxC= 1.00D-01 BMatC= 4.80D-13 BMatP= 6.92D-12
 IDIUse=1 WtCom= 1.00D+00 WtEn= 0.00D+00
 Coeff-Com: -0.260D-03 0.134D-02 0.635D-02-0.257D-02-0.257D-01-0.282D-01
 Coeff-Com:  0.319D-01 0.249D+00 0.768D+00
 Coeff:     -0.260D-03 0.134D-02 0.635D-02-0.257D-02-0.257D-01-0.282D-01
 Coeff:      0.319D-01 0.249D+00 0.768D+00
 Gap=     0.277 Goal=   None    Shift=    0.000
 RMSDP=3.42D-09 MaxDP=2.05D-07 DE= 2.82D-11 OVMax= 4.47D-07

 SCF Done:  E(RM062X) =  -764.469636816     A.U. after   16 cycles
            NFock= 16  Conv=0.34D-08     -V/T= 2.0036
 KE= 7.616980691796D+02 PE=-3.055126152181D+03 EE= 9.074990135011D+02
 Leave Link  502 at Sat May 24 05:06:07 2025, MaxMem=  3758096384 cpu:             119.1 elap:              30.3
 (Enter /apps/easybuild-2022/easybuild/software/Compiler/NVHPC/22.11-CUDA-11.7.0/Gaussian/g16c01-CUDA-11.7.0/g16/l508.exe)
 QCSCF skips out because SCF is already converged.
 Leave Link  508 at Sat May 24 05:06:07 2025, MaxMem=  3758096384 cpu:               0.0 elap:               0.0
 (Enter /apps/easybuild-2022/easybuild/software/Compiler/NVHPC/22.11-CUDA-11.7.0/Gaussian/g16c01-CUDA-11.7.0/g16/l801.exe)
 DoSCS=F DFT=T ScalE2(SS,OS)=  1.000000  1.000000
 Range of M.O.s used for correlation:     1   324
 NBasis=   324 NAE=    40 NBE=    40 NFC=     0 NFV=     0
 NROrb=    324 NOA=    40 NOB=    40 NVA=   284 NVB=   284

 **** Warning!!: The largest alpha MO coefficient is  0.16117562D+02

 Leave Link  801 at Sat May 24 05:06:07 2025, MaxMem=  3758096384 cpu:               0.1 elap:               0.1
 (Enter /apps/easybuild-2022/easybuild/software/Compiler/NVHPC/22.11-CUDA-11.7.0/Gaussian/g16c01-CUDA-11.7.0/g16/l1101.exe)
 Using compressed storage, NAtomX=    11.
 Will process     12 centers per pass.
   1 Symmetry operations used in ECPInt.
 ECPInt:  NShTT=    6786 NPrTT=   21959 LenC2=    6388 LenP2D=   15606.
 LDataN:  DoStor=T MaxTD1= 7 Len=  274
 Leave Link 1101 at Sat May 24 05:06:08 2025, MaxMem=  3758096384 cpu:               1.2 elap:               0.4
 (Enter /apps/easybuild-2022/easybuild/software/Compiler/NVHPC/22.11-CUDA-11.7.0/Gaussian/g16c01-CUDA-11.7.0/g16/l1102.exe)
 Symmetrizing basis deriv contribution to polar:
 IMax=3 JMax=2 DiffMx= 0.00D+00
 Leave Link 1102 at Sat May 24 05:06:08 2025, MaxMem=  3758096384 cpu:               0.1 elap:               0.0
 (Enter /apps/easybuild-2022/easybuild/software/Compiler/NVHPC/22.11-CUDA-11.7.0/Gaussian/g16c01-CUDA-11.7.0/g16/l1110.exe)
 Forming Gx(P) for the SCF density, NAtomX=    11.
 Integral derivatives from FoFJK, PRISM(SPDF).
 Do as many integral derivatives as possible in FoFJK.
 G2DrvN: MDV=    3758095115.
 G2DrvN: will do    12 centers at a time, making    1 passes.
 Calling FoFCou, ICntrl=  3107 FMM=F I1Cent=   0 AccDes= 0.00D+00.
 FoFJK:  IHMeth= 1 ICntrl=    3107 DoSepK=F KAlg= 0 I1Cent=           0 FoldK=F
 IRaf=         0 NMat=       1 IRICut=       1 DoRegI=T DoRafI=F ISym2E= 0 IDoP0=0 IntGTp=1.
 FoFCou: FMM=F IPFlag=           0 FMFlag=      100000 FMFlg1=           0
         NFxFlg=           0 DoJE=F BraDBF=F KetDBF=F FulRan=T
         wScrn=  0.000000 ICntrl=      3107 IOpCl=  0 I1Cent=           0 NGrid=           0
         NMat0=    1 NMatS0=      1 NMatT0=    0 NMatD0=    1 NMtDS0=    0 NMtDT0=    0
 Symmetry not used in FoFCou.
 End of G2Drv F.D. properties file   721 does not exist.
 End of G2Drv F.D. properties file   722 does not exist.
 End of G2Drv F.D. properties file   788 does not exist.
 Leave Link 1110 at Sat May 24 05:06:46 2025, MaxMem=  3758096384 cpu:             291.1 elap:              37.6
 (Enter /apps/easybuild-2022/easybuild/software/Compiler/NVHPC/22.11-CUDA-11.7.0/Gaussian/g16c01-CUDA-11.7.0/g16/l1002.exe)
 Minotr:  Closed shell wavefunction.
          IDoAtm=11111111111
          Direct CPHF calculation.
          Differentiating once with respect to electric field.
                with respect to dipole field.
          Differentiating once with respect to nuclear coordinates.
          Requested convergence is 1.0D-08 RMS, and 1.0D-07 maximum.
          Secondary convergence is 1.0D-12 RMS, and 1.0D-12 maximum.
          NewPWx=T KeepS1=F KeepF1=F KeepIn=T MapXYZ=F SortEE=F KeepMc=T.
         3307 words used for storage of precomputed grid.
 Keep R1 ints in memory in canonical form, NReq=1412622537.
 FoFCou: FMM=F IPFlag=           0 FMFlag=           0 FMFlg1=           0
         NFxFlg=           0 DoJE=F BraDBF=F KetDBF=F FulRan=T
         wScrn=  0.000000 ICntrl=       600 IOpCl=  0 I1Cent=           0 NGrid=           0
         NMat0=    1 NMatS0=  52650 NMatT0=    0 NMatD0=    1 NMtDS0=    0 NMtDT0=    0
 Symmetry not used in FoFCou.
 Two-electron integral symmetry not used.
          MDV=    3758096384 using IRadAn=       1.
          Solving linear equations simultaneously, MaxMat=       0.
          There are    36 degrees of freedom in the 1st order CPHF.  IDoFFX=6 NUNeed=     3.
     33 vectors produced by pass  0 Test12= 3.16D-14 2.78D-09 XBig12= 2.75D+01 2.86D+00.
 AX will form    33 AO Fock derivatives at one time.
     33 vectors produced by pass  1 Test12= 3.16D-14 2.78D-09 XBig12= 5.25D+00 3.08D-01.
     33 vectors produced by pass  2 Test12= 3.16D-14 2.78D-09 XBig12= 1.74D-01 7.84D-02.
     33 vectors produced by pass  3 Test12= 3.16D-14 2.78D-09 XBig12= 3.06D-03 8.10D-03.
     33 vectors produced by pass  4 Test12= 3.16D-14 2.78D-09 XBig12= 4.26D-05 7.53D-04.
     33 vectors produced by pass  5 Test12= 3.16D-14 2.78D-09 XBig12= 3.87D-07 8.20D-05.
     33 vectors produced by pass  6 Test12= 3.16D-14 2.78D-09 XBig12= 2.26D-09 6.32D-06.
     16 vectors produced by pass  7 Test12= 3.16D-14 2.78D-09 XBig12= 1.06D-11 4.21D-07.
      3 vectors produced by pass  8 Test12= 3.16D-14 2.78D-09 XBig12= 5.58D-14 2.73D-08.
 InvSVY:  IOpt=1 It=  1 EMax= 3.55D-15
 Solved reduced A of dimension   250 with    36 vectors.
 FullF1:  Do perturbations      1 to       3.
 Isotropic polarizability for W=    0.000000       52.03 Bohr**3.
 End of Minotr F.D. properties file   721 does not exist.
 End of Minotr F.D. properties file   722 does not exist.
 End of Minotr F.D. properties file   788 does not exist.
 Leave Link 1002 at Sat May 24 05:07:47 2025, MaxMem=  3758096384 cpu:             478.1 elap:              61.4
 (Enter /apps/easybuild-2022/easybuild/software/Compiler/NVHPC/22.11-CUDA-11.7.0/Gaussian/g16c01-CUDA-11.7.0/g16/l701.exe)
 ... and contract with generalized density number  0.
 Compute integral second derivatives.
   1 Symmetry operations used in ECPInt.
 ECPInt:  NShTT=    6786 NPrTT=   21959 LenC2=    6388 LenP2D=   15606.
 LDataN:  DoStor=T MaxTD1= 8 Len=  415
 Leave Link  701 at Sat May 24 05:07:48 2025, MaxMem=  3758096384 cpu:               1.5 elap:               0.5
 (Enter /apps/easybuild-2022/easybuild/software/Compiler/NVHPC/22.11-CUDA-11.7.0/Gaussian/g16c01-CUDA-11.7.0/g16/l702.exe)
 L702 exits ... SP integral derivatives will be done elsewhere.
 Leave Link  702 at Sat May 24 05:07:48 2025, MaxMem=  3758096384 cpu:               0.1 elap:               0.0
 (Enter /apps/easybuild-2022/easybuild/software/Compiler/NVHPC/22.11-CUDA-11.7.0/Gaussian/g16c01-CUDA-11.7.0/g16/l703.exe)
 Integral derivatives from FoFJK, PRISM(SPDF).
 Compute integral second derivatives, UseDBF=F ICtDFT=           0.
 Calling FoFJK, ICntrl=    100127 FMM=F ISym2X=0 I1Cent= 0 IOpClX= 0 NMat=1 NMatS=1 NMatT=0.
 FoFJK:  IHMeth= 1 ICntrl=  100127 DoSepK=F KAlg= 0 I1Cent=           0 FoldK=F
 IRaf=         0 NMat=       1 IRICut=       1 DoRegI=T DoRafI=F ISym2E= 0 IDoP0=0 IntGTp=1.
 FoFCou: FMM=F IPFlag=           0 FMFlag=      100000 FMFlg1=         800
         NFxFlg=           0 DoJE=F BraDBF=F KetDBF=F FulRan=T
         wScrn=  0.000000 ICntrl=    100127 IOpCl=  0 I1Cent=           0 NGrid=           0
         NMat0=    1 NMatS0=      1 NMatT0=    0 NMatD0=    1 NMtDS0=    0 NMtDT0=    0
 Symmetry not used in FoFCou.
 Leave Link  703 at Sat May 24 05:09:20 2025, MaxMem=  3758096384 cpu:             612.0 elap:              92.7
 (Enter /apps/easybuild-2022/easybuild/software/Compiler/NVHPC/22.11-CUDA-11.7.0/Gaussian/g16c01-CUDA-11.7.0/g16/l716.exe)
 Dipole        = 8.59838115D-02 8.55378322D-01 1.62387628D-01
 Polarizability= 6.12906494D+01-1.06505978D+01 5.74500408D+01
                 6.27008658D-02 9.39060440D-01 3.73418137D+01
 -------------------------------------------------------------------
 Center     Atomic                   Forces (Hartrees/Bohr)
 Number     Number              X              Y              Z
 -------------------------------------------------------------------
      1        6          -0.000026809   -0.000036733   -0.000002738
      2        8           0.000005250    0.000004307   -0.000003506
      3        6           0.000010210    0.000010366    0.000000994
      4        6          -0.000006190    0.000021042    0.000062440
      5        9           0.000001593   -0.000031581   -0.000018612
      6        9           0.000028069    0.000011845    0.000011099
      7        9          -0.000041480    0.000019099   -0.000014110
      8        9           0.000017268   -0.000018734   -0.000035994
      9        9           0.000008044    0.000015267   -0.000004302
     10        8          -0.000000804    0.000012847    0.000001638
     11        1           0.000004849   -0.000007726    0.000003091
 -------------------------------------------------------------------
 Cartesian Forces:  Max     0.000062440 RMS     0.000020546
 Force constants in Cartesian coordinates: 
                1             2             3             4             5 
      1  0.741098D+00
      2 -0.176054D+00  0.907504D+00
      3  0.626643D-01 -0.496145D-01  0.226012D+00
      4 -0.326089D+00  0.307951D+00 -0.417717D-01  0.315706D+00
      5  0.307986D+00 -0.570193D+00  0.599703D-01 -0.358130D+00  0.684897D+00
      6 -0.411893D-01  0.567187D-01 -0.843241D-01  0.463507D-01 -0.687792D-01
      7 -0.181698D+00 -0.166140D-01  0.466192D-01 -0.303576D-01  0.331636D-01
      8 -0.184124D-01 -0.420290D-01 -0.386403D-01  0.430588D-01 -0.229328D-01
      9 -0.373619D-01  0.202988D-02 -0.755823D-01  0.427742D-02 -0.709107D-02
     10 -0.230755D-01  0.662514D-02 -0.550282D-02  0.934932D-02 -0.688248D-02
     11  0.412060D-01  0.110580D-01  0.338649D-01 -0.160646D-01  0.537342D-02
     12  0.381035D-02  0.350796D-02 -0.826878D-02 -0.348773D-02 -0.537130D-03
     13  0.282235D-02 -0.832848D-03 -0.933216D-03 -0.132975D-02  0.726121D-03
     14 -0.588013D-02 -0.744675D-03 -0.118337D-02  0.250181D-02 -0.680343D-03
     15  0.805532D-03 -0.602762D-03  0.177570D-02 -0.102855D-03  0.331943D-03
     16  0.169231D-01  0.123910D-02  0.151939D-01 -0.729382D-02  0.421248D-02
     17 -0.320853D-02 -0.228423D-02 -0.372445D-02  0.134294D-02 -0.945274D-04
     18 -0.416945D-02 -0.856857D-03 -0.356960D-02  0.189234D-02 -0.621621D-03
     19 -0.640419D-03 -0.378339D-02 -0.195462D-02  0.256309D-03  0.105854D-02
     20 -0.118757D-01 -0.351093D-02 -0.918451D-02  0.449599D-02 -0.133147D-02
     21 -0.121730D-01 -0.505116D-02 -0.101931D-01  0.493083D-02 -0.956503D-03
     22 -0.533552D-02  0.218925D-01 -0.386026D-01 -0.645439D-02  0.123872D-03
     23 -0.160947D-01 -0.194248D-01  0.176121D-01  0.865455D-02  0.163560D-02
     24  0.321686D-01  0.120739D-01  0.127234D-01 -0.945707D-02  0.212423D-02
     25 -0.242577D-01 -0.408261D-01 -0.323862D-01  0.267438D-02 -0.281727D-02
     26 -0.238204D-02 -0.212243D-01 -0.877158D-02 -0.200306D-02  0.865769D-02
     27  0.573699D-02 -0.150323D-01  0.140575D-02 -0.379424D-02  0.617184D-02
     28 -0.170312D+00 -0.886429D-01 -0.364408D-03  0.412721D-01  0.121537D-01
     29 -0.574032D-01 -0.262335D+00  0.515399D-02 -0.177782D-03 -0.106799D+00
     30 -0.916895D-02 -0.972463D-03 -0.642867D-01  0.409455D-03  0.876673D-02
     31 -0.294361D-01 -0.109535D-01 -0.296181D-02  0.226635D-02  0.840488D-02
     32 -0.578809D-01  0.318413D-02 -0.548262D-02  0.837047D-02  0.146784D-02
     33 -0.112307D-02 -0.220046D-02  0.430797D-02  0.752788D-03  0.620544D-03
                6             7             8             9            10 
      6  0.398033D-01
      7 -0.154586D-01  0.374430D+00
      8  0.122915D-01  0.117234D+00  0.283312D+00
      9  0.206196D-01  0.736401D-01  0.197732D+00  0.269521D+00
     10  0.208982D-02  0.148019D-01  0.572733D-02  0.143615D-01  0.496758D+00
     11 -0.882488D-02 -0.736292D-01  0.572074D-01 -0.430463D-01  0.174544D+00
     12  0.238210D-02  0.344607D-01 -0.969181D-01  0.464253D-01  0.139506D+00
     13  0.180821D-03 -0.136942D-04 -0.800815D-02  0.477163D-02 -0.103354D+00
     14  0.353490D-03  0.431989D-02  0.397146D-02 -0.265685D-02  0.454374D-01
     15 -0.478577D-03 -0.337462D-02  0.101194D-01 -0.697385D-02 -0.253817D-01
     16 -0.389366D-02 -0.774459D-01  0.203882D-01 -0.942703D-02 -0.219597D+00
     17  0.105480D-02  0.177350D-01 -0.455401D-02 -0.134864D-02 -0.116177D+00
     18  0.823432D-03  0.149089D-01 -0.124285D-02  0.429980D-02  0.261383D-01
     19  0.272890D-03  0.587324D-02  0.836683D-02  0.102051D-02 -0.148066D+00
     20  0.248179D-02  0.183642D-01 -0.436910D-01 -0.837923D-02 -0.612786D-01
     21  0.255162D-02  0.170549D-01 -0.333315D-01 -0.180454D-02 -0.135790D+00
     22  0.647731D-02  0.727541D-02 -0.657530D-01  0.253760D-01 -0.265178D-01
     23 -0.273778D-02  0.194500D-01  0.181101D-01  0.598965D-02 -0.279444D-01
     24 -0.283734D-02 -0.882052D-01  0.103732D+00 -0.113501D+00  0.124077D-01
     25  0.530093D-02 -0.931086D-01 -0.687252D-01 -0.779514D-01 -0.585787D-02
     26  0.175710D-02 -0.102975D+00 -0.236021D+00 -0.150424D+00 -0.225218D-01
     27 -0.113435D-02 -0.763096D-01 -0.159829D+00 -0.158303D+00 -0.281741D-01
     28 -0.570608D-03 -0.223177D-01 -0.318053D-01  0.336069D-02  0.696096D-02
     29  0.493011D-02 -0.169303D-01 -0.856361D-02  0.732794D-02  0.363513D-02
     30  0.283646D-01 -0.231242D-02  0.309440D-02  0.106999D-01  0.139890D-03
     31  0.439640D-03  0.256033D-02 -0.207083D-02 -0.206749D-02 -0.140156D-02
     32  0.754456D-03 -0.117694D-03 -0.480938D-02 -0.132541D-03 -0.116507D-02
     33 -0.577039D-02 -0.102341D-02  0.299333D-02  0.459859D-02  0.205428D-03
               11            12            13            14            15 
     11  0.439579D+00
     12 -0.964430D-02  0.421006D+00
     13  0.604799D-01 -0.460855D-01  0.146490D+00
     14 -0.210293D+00  0.807143D-01 -0.105393D+00  0.335679D+00
     15  0.498082D-01 -0.101581D+00  0.486682D-01 -0.106120D+00  0.151986D+00
     16 -0.176667D+00  0.338063D-01  0.118690D-01 -0.130268D-01  0.441563D-02
     17 -0.176943D+00  0.200464D-01 -0.371697D-01 -0.881356D-01  0.379607D-01
     18  0.356769D-01 -0.865168D-01  0.139296D-01  0.365842D-01  0.720825D-02
     19 -0.304502D-01 -0.100681D+00 -0.215685D-01  0.219593D-01 -0.572115D-01
     20 -0.737388D-01 -0.708351D-01  0.342680D-01  0.324033D-04  0.455862D-01
     21 -0.253117D-01 -0.259198D+00 -0.509562D-01  0.234543D-01 -0.493205D-01
     22  0.282916D-01 -0.661958D-01 -0.356833D-01  0.492500D-01  0.332294D-01
     23 -0.428029D-01  0.710865D-01  0.524819D-01 -0.390359D-01 -0.362570D-01
     24 -0.470448D-01 -0.557594D-03  0.288007D-01 -0.298577D-01 -0.465920D-02
     25  0.558173D-02  0.607453D-02  0.143433D-02 -0.113137D-02 -0.785744D-03
     26  0.658412D-02  0.312682D-02  0.353456D-02 -0.240169D-02 -0.616062D-03
     27  0.202622D-01 -0.115772D-01  0.154772D-02 -0.163450D-02  0.185505D-02
     28 -0.144733D-01 -0.119985D-02 -0.936228D-03  0.233073D-02 -0.342373D-03
     29 -0.162305D-01 -0.131617D-02 -0.306595D-03  0.192065D-02 -0.193765D-03
     30 -0.457882D-02 -0.274531D-02  0.126813D-03  0.193938D-03  0.338575D-03
     31  0.118118D-02 -0.821943D-05  0.269929D-03 -0.367422D-03  0.800665D-04
     32  0.206340D-03  0.768798D-03  0.220217D-03 -0.311989D-03 -0.171486D-04
     33 -0.116143D-02  0.631877D-03 -0.505200D-04  0.151927D-03 -0.150601D-03
               16            17            18            19            20 
     16  0.295008D+00
     17  0.176308D+00  0.265082D+00
     18 -0.303861D-01 -0.463823D-01  0.676599D-01
     19 -0.292274D-01 -0.338034D-01 -0.315954D-01  0.187653D+00
     20 -0.161059D-01 -0.740658D-02 -0.221004D-01  0.341243D-01  0.122495D+00
     21 -0.625816D-02 -0.140974D-01  0.375795D-02  0.183893D+00  0.646425D-01
     22  0.650011D-02 -0.605511D-02  0.912647D-02  0.701356D-02 -0.702946D-02
     23 -0.107423D-02  0.799075D-02 -0.845503D-03 -0.156773D-02  0.998388D-02
     24 -0.126027D-01  0.189857D-02  0.730012D-02  0.409913D-03  0.889851D-02
     25  0.807569D-02 -0.503565D-04 -0.141522D-02 -0.472725D-03  0.949450D-03
     26  0.871703D-02  0.440320D-02 -0.139534D-02  0.222588D-02 -0.777906D-02
     27  0.112764D-01  0.392870D-02 -0.182890D-02  0.417832D-02 -0.128928D-01
     28 -0.549246D-02  0.109027D-02  0.171419D-02 -0.955310D-03  0.422429D-02
     29 -0.411351D-02  0.195358D-02  0.122550D-02  0.164564D-02  0.490625D-02
     30 -0.149615D-02  0.570095D-03  0.718707D-03  0.156714D-02  0.157885D-02
     31  0.680591D-03 -0.130464D-04 -0.143684D-03  0.134678D-03 -0.136593D-03
     32  0.122117D-03 -0.112480D-04 -0.416544D-04  0.224278D-03  0.404339D-04
     33 -0.628517D-03  0.935783D-04  0.147084D-03  0.101143D-03  0.204137D-03
               21            22            23            24            25 
     21  0.312637D+00
     22 -0.565705D-02  0.509773D-01
     23 -0.582693D-02 -0.230113D-01  0.110694D+00
     24  0.103623D-01  0.332302D-01 -0.484796D-01  0.495684D-01
     25  0.515873D-04  0.430862D-02 -0.130665D-01  0.130896D-01  0.118457D+00
     26 -0.870026D-02 -0.912749D-03 -0.552305D-01  0.936911D-02  0.121596D+00
     27 -0.109250D-01  0.130901D-02  0.196403D-02  0.427035D-01  0.871512D-01
     28  0.495204D-02 -0.284135D-02  0.258505D-02 -0.106961D-01 -0.105882D-01
     29  0.523434D-02  0.158448D-02  0.799008D-02 -0.123787D-01  0.443749D-03
     30  0.210232D-02  0.114130D-02 -0.199653D-02 -0.135477D-03 -0.820551D-04
     31 -0.473068D-04  0.757414D-03 -0.412608D-03  0.854305D-03 -0.664637D-03
     32 -0.556724D-04  0.161909D-02  0.901247D-04 -0.335070D-03 -0.195439D-02
     33  0.306674D-04  0.565747D-03 -0.508892D-03 -0.967578D-03  0.952773D-03
               26            27            28            29            30 
     26  0.301838D+00
     27  0.156987D+00  0.137849D+00
     28 -0.504096D-02 -0.359366D-02  0.656476D+00
     29  0.183996D-02  0.379664D-03  0.411070D-01  0.426215D+00
     30 -0.117571D-02 -0.188494D-03  0.646191D-01 -0.154073D-01  0.467081D-01
     31 -0.237896D-03  0.672004D-03 -0.491267D+00  0.305154D-01 -0.549441D-01
     32 -0.666138D-03 -0.304995D-03  0.764714D-01 -0.508979D-01  0.992677D-02
     33 -0.156715D-03  0.144059D-03 -0.578790D-01  0.504430D-02 -0.215762D-01
               31            32            33 
     31  0.516100D+00
     32 -0.259096D-01  0.517078D-01
     33  0.581266D-01 -0.508032D-02  0.186045D-01
 FormGI is forming the generalized inverse of G from B-inverse, IUseBI=4.
 Force constants in internal coordinates: 
                1             2             3             4             5 
      1  0.910929D+00
      2  0.429770D-01  0.282244D+00
      3  0.886237D-01  0.269707D-01  0.435433D+00
      4 -0.108587D-02 -0.142243D-03  0.345997D-02  0.218552D-01
      5  0.857709D-02  0.198474D-01  0.336326D-02  0.380483D-01  0.460317D+00
      6  0.228859D-02 -0.168816D-02  0.210233D-02 -0.224346D-02  0.429414D-02
      7  0.566536D-02 -0.330322D-02  0.316596D-02  0.235416D-01  0.157474D-01
      8  0.359489D-02 -0.340778D-02  0.778912D-02  0.275681D-01  0.114860D-01
      9  0.135607D-02  0.144659D-04  0.448115D-02  0.108822D+00  0.688010D-02
     10 -0.614551D-02 -0.242109D-02  0.118915D-01 -0.370342D-03 -0.885542D-04
     11  0.127325D-01 -0.230290D-02 -0.434407D-01  0.115927D-01 -0.102653D-01
     12  0.355401D-01 -0.301384D-01  0.166979D-01 -0.419982D-02 -0.493102D-02
     13 -0.478912D-01  0.326476D-01  0.272916D-01 -0.632621D-02  0.155039D-01
     14  0.124000D-01  0.332344D-01 -0.138852D-02  0.452283D-01 -0.209944D-01
     15 -0.152874D-01  0.374627D-01  0.658699D-02  0.432130D-02  0.350405D-01
     16 -0.378397D-03 -0.145922D-01 -0.288204D-02  0.118147D-01  0.161162D-01
     17 -0.506696D-02  0.308278D-02 -0.400876D-02 -0.160640D-01 -0.865220D-02
     18 -0.376554D-02  0.239540D-02 -0.497465D-02 -0.166529D-01 -0.101325D-01
     19 -0.259012D-02  0.193547D-02 -0.359884D-02 -0.471194D-01 -0.301799D-02
     20 -0.221736D-02 -0.419208D-04 -0.196657D-02 -0.848039D-02 -0.544407D-02
     21  0.593070D-02 -0.446564D-02  0.677732D-02  0.263610D-01  0.175355D-02
     22  0.430060D-02 -0.516196D-03  0.394758D-02  0.359083D-01  0.192552D-01
     23 -0.142552D-01  0.183245D-01 -0.205207D-01 -0.104223D+00 -0.334048D-01
     24  0.500384D-02  0.150963D-02  0.391437D-01 -0.775226D-03  0.253366D-02
     25  0.263413D-02 -0.795569D-02  0.466564D-02 -0.132891D-01 -0.771965D-02
     26  0.220283D-02  0.717993D-02  0.333875D-02  0.246979D-01  0.144937D-01
     27 -0.292630D-02 -0.778275D-02 -0.179200D-02 -0.222247D-01 -0.102141D-01
     28 -0.335759D-02  0.735287D-02 -0.311890D-02  0.157623D-01  0.119992D-01
     29 -0.193519D-02 -0.129536D-02 -0.482997D-03 -0.454477D-02 -0.891191D-03
     30  0.173427D-02  0.955916D-03  0.142220D-02  0.597459D-02  0.133114D-02
     31 -0.753611D-02  0.202925D-01  0.967137D-03  0.149616D-01  0.254803D-01
     32  0.488865D-02 -0.268267D-01 -0.461802D-02 -0.104463D-01 -0.115434D-01
     33 -0.869485D-03  0.467466D-03 -0.124450D-02 -0.221592D-03  0.507794D-02
     34 -0.667085D-02  0.401315D-02 -0.620273D-02 -0.361902D-01 -0.569930D-02
     35  0.398214D-02 -0.324161D-02  0.562493D-02  0.375280D-01  0.143352D-01
                6             7             8             9            10 
      6  0.431296D+00
      7  0.624728D-01  0.462659D+00
      8  0.635588D-01  0.355444D-01  0.457915D+00
      9  0.633115D-01  0.249631D-01  0.224850D-01  0.806208D-01
     10 -0.377754D-03 -0.474887D-03  0.000000D+00  0.161239D-03  0.523773D+00
     11  0.119917D-02  0.173215D-02  0.465678D-02 -0.761353D-03  0.368301D-02
     12 -0.264470D-02 -0.390948D-02 -0.479431D-02 -0.160020D-02 -0.929779D-02
     13  0.141836D-02  0.192432D-02 -0.275885D-03  0.200570D-02  0.560827D-02
     14 -0.115579D-02 -0.385461D-02 -0.771638D-02 -0.112430D-01 -0.147930D-02
     15 -0.234333D-03 -0.191228D-02 -0.460364D-02 -0.100652D-01  0.906166D-03
     16  0.429469D-04 -0.335660D-02 -0.721938D-03 -0.215835D-02  0.611687D-03
     17  0.459572D-01  0.571119D-01 -0.573730D-02 -0.501260D-01  0.383059D-03
     18  0.458749D-01 -0.623074D-02  0.597452D-01 -0.525867D-01  0.204919D-03
     19  0.218714D-01 -0.297785D-01 -0.317079D-01  0.982710D-01 -0.186917D-04
     20 -0.147410D-01  0.275471D-01  0.295386D-01 -0.124879D-01  0.147524D-03
     21 -0.302337D-01 -0.522090D-02 -0.404516D-01  0.130122D-01 -0.393045D-03
     22 -0.309762D-01 -0.409820D-01 -0.101579D-01  0.912745D-02 -0.164747D-03
     23  0.157870D-01  0.128660D+00  0.135738D+00  0.293377D+00  0.163637D-02
     24 -0.745192D-03 -0.253490D-03  0.142228D-03  0.150965D-02  0.280588D-01
     25  0.824612D-04  0.184854D-02  0.171371D-02  0.264571D-02 -0.233938D-03
     26 -0.542825D-03 -0.471317D-02 -0.485362D-02 -0.955749D-02  0.948528D-04
     27  0.511783D-03  0.434973D-02  0.571675D-02  0.586468D-02  0.488250D-03
     28 -0.113504D-03 -0.221197D-02 -0.850576D-03 -0.633852D-02  0.817040D-03
     29 -0.151585D-03  0.597446D-03  0.159059D-02  0.104832D-02  0.108173D-03
     30 -0.275490D-03 -0.152388D-02 -0.178594D-02 -0.220891D-02  0.447577D-03
     31  0.000000D+00 -0.731657D-02 -0.845578D-03 -0.115152D-01  0.279197D-03
     32  0.650302D-03 -0.255601D-02  0.721193D-02  0.432011D-02 -0.419931D-03
     33  0.696036D-03 -0.405451D-01  0.403919D-01  0.124336D-02  0.459156D-04
     34  0.569020D-01  0.752874D-02  0.110185D-01 -0.419234D-02  0.390131D-03
     35 -0.574965D-01 -0.832296D-02 -0.824667D-02  0.492141D-02 -0.143858D-03
               11            12            13            14            15 
     11  0.137636D+00
     12 -0.836188D-01  0.189959D+00
     13 -0.538843D-01 -0.106795D+00  0.161565D+00
     14  0.924156D-02 -0.198596D-01  0.110367D-01  0.213440D+00
     15 -0.726464D-02 -0.310209D-02  0.111528D-01 -0.486065D-01  0.129995D+00
     16  0.491794D-03  0.779550D-02 -0.852576D-02 -0.579376D-01 -0.387933D-01
     17 -0.223430D-02  0.401646D-02 -0.155522D-02  0.387081D-02  0.909075D-03
     18 -0.226223D-02  0.424524D-02 -0.179161D-02  0.352063D-02  0.342336D-02
     19 -0.212483D-03  0.155964D-02 -0.108124D-02  0.765295D-02  0.480326D-02
     20 -0.878369D-04  0.314936D-02 -0.302624D-02  0.584887D-03  0.273985D-02
     21  0.469326D-02 -0.497911D-02 -0.248542D-03 -0.741693D-02  0.230452D-02
     22 -0.134263D-02 -0.524801D-02  0.662588D-02 -0.325171D-02 -0.114486D-01
     23 -0.102977D-01  0.107389D-01  0.680947D-03  0.337416D-01  0.645464D-02
     24  0.520973D-02 -0.293720D-01  0.242751D-01 -0.583449D-02  0.541701D-02
     25 -0.820702D-02  0.556959D-02  0.494670D-02 -0.608933D-02  0.132368D-01
     26 -0.596245D-02  0.330122D-02  0.522615D-02  0.146497D-01 -0.282284D-02
     27 -0.211452D-02 -0.413514D-02  0.364124D-02 -0.832499D-02  0.645947D-02
     28  0.130049D-03 -0.640351D-02  0.392068D-02  0.124141D-01 -0.960013D-02
     29 -0.638600D-02  0.626910D-02 -0.242429D-02 -0.301881D-02 -0.192713D-02
     30  0.513007D-02 -0.654504D-02  0.402141D-02  0.172882D-02  0.480793D-02
     31 -0.131141D-02 -0.761036D-03  0.256659D-02 -0.283937D-03  0.535678D-01
     32  0.313964D-02  0.668994D-02 -0.102510D-01 -0.852785D-03 -0.560931D-01
     33 -0.122481D-02  0.835650D-03  0.506947D-03  0.898102D-03 -0.284393D-02
     34 -0.294318D-02  0.514185D-02 -0.179786D-02  0.756169D-02  0.939557D-03
     35  0.176219D-02 -0.379485D-02  0.177630D-02 -0.670492D-02 -0.704295D-02
               16            17            18            19            20 
     16  0.866147D-01
     17  0.125639D-02  0.207546D+00
     18  0.174956D-02  0.195986D-02  0.210078D+00
     19  0.418125D-02 -0.110091D+00 -0.120256D+00  0.337223D+00
     20  0.661107D-03  0.149136D-01  0.156583D-01 -0.596255D-01  0.127516D+00
     21 -0.244949D-02 -0.501052D-01 -0.380395D-01  0.537593D-02 -0.645121D-01
     22 -0.304990D-02 -0.391382D-01 -0.512446D-01  0.468599D-02 -0.603655D-01
     23  0.155537D-01 -0.121739D+00 -0.122816D+00 -0.131460D+00 -0.393806D-01
     24  0.618181D-03  0.429075D-03  0.313304D-03 -0.460153D-03  0.451677D-03
     25 -0.295156D-01 -0.470105D-03 -0.148962D-02 -0.308983D-02 -0.593451D-03
     26  0.250869D-01  0.328158D-02  0.367434D-02  0.749715D-02  0.157193D-02
     27 -0.279377D-01 -0.275599D-02 -0.347934D-02 -0.552913D-02 -0.111411D-02
     28  0.266648D-01  0.995695D-03  0.168461D-02  0.505784D-02  0.105127D-02
     29  0.118126D-02 -0.619610D-03 -0.631412D-03 -0.843120D-03 -0.134078D-03
     30 -0.109123D-02  0.123059D-02  0.889808D-03  0.153437D-02  0.126411D-03
     31 -0.158329D-01  0.707317D-02  0.553024D-03  0.573876D-02  0.332606D-02
     32  0.136889D-01  0.421483D-02 -0.511746D-02 -0.385206D-02 -0.130657D-03
     33 -0.395245D-03 -0.651052D-01  0.630221D-01  0.230241D-02 -0.200745D-02
     34  0.258781D-02  0.102895D+00 -0.533484D-03  0.452724D-01 -0.264857D-01
     35 -0.408460D-02  0.198124D-02 -0.998952D-01 -0.484142D-01  0.257897D-01
               21            22            23            24            25 
     21  0.149942D+00
     22 -0.206138D-01  0.147437D+00
     23  0.141077D+00  0.156306D+00  0.218864D+00
     24 -0.657898D-04 -0.654993D-03  0.145364D-03  0.169667D+00
     25  0.449014D-03  0.355579D-02 -0.126423D-01 -0.791750D-03  0.274235D-01
     26 -0.514356D-02 -0.622716D-02  0.247452D-01 -0.805421D-03 -0.412507D-02
     27  0.552600D-02  0.358034D-02 -0.233279D-01  0.240966D-03  0.669495D-02
     28 -0.665667D-04 -0.620261D-02  0.140596D-01  0.227295D-03 -0.248536D-01
     29  0.156579D-02 -0.959407D-05 -0.335283D-02 -0.519354D-03 -0.106040D-01
     30 -0.290530D-02  0.315687D-03  0.600275D-02  0.135268D-02  0.977124D-02
     31 -0.120894D-01 -0.509242D-03  0.466133D-02  0.165780D-02  0.255916D-02
     32 -0.110159D-01  0.143339D-01 -0.204290D-01 -0.241868D-02  0.168656D-02
     33 -0.500581D-01  0.509943D-01 -0.344019D-02 -0.128508D-05  0.111239D-02
     34 -0.753392D-01  0.588395D-02 -0.176860D+00  0.239608D-03 -0.834805D-03
     35 -0.521275D-02  0.762901D-01  0.177558D+00  0.324174D-04  0.379235D-02
               26            27            28            29            30 
     26  0.308637D-01
     27 -0.269175D-01  0.298262D-01
     28  0.807125D-02 -0.378624D-02  0.291386D-01
     29 -0.115447D-01  0.111915D-01  0.102508D-01  0.206258D-01
     30  0.113393D-01 -0.125934D-01 -0.110254D-01 -0.300353D-02  0.211430D-01
     31  0.601443D-02 -0.174071D-02  0.171456D-02 -0.136609D-02  0.305643D-02
     32 -0.582553D-02  0.497566D-02 -0.253643D-02  0.135782D-02 -0.238912D-02
     33 -0.468015D-04  0.849734D-05 -0.115069D-02 -0.415368D-03  0.562418D-03
     34  0.630744D-02 -0.472953D-02  0.241272D-02 -0.122535D-02  0.214075D-02
     35 -0.711867D-02  0.631573D-02 -0.459529D-02  0.777681D-03 -0.137424D-02
               31            32            33            34            35 
     31  0.465271D-01
     32 -0.575767D-02  0.505197D-01
     33  0.699456D-02  0.993363D-02  0.813111D-01
     34  0.154204D-01  0.106985D-01  0.661239D-03  0.123278D+00
     35  0.327937D-02  0.149412D-01 -0.272655D-02 -0.251089D-01  0.122586D+00
 Leave Link  716 at Sat May 24 05:09:20 2025, MaxMem=  3758096384 cpu:               0.1 elap:               0.0
 (Enter /apps/easybuild-2022/easybuild/software/Compiler/NVHPC/22.11-CUDA-11.7.0/Gaussian/g16c01-CUDA-11.7.0/g16/l103.exe)

 GradGradGradGradGradGradGradGradGradGradGradGradGradGradGradGradGradGrad
 Berny optimization.
 Red2BG is reusing G-inverse.
 Internal  Forces:  Max     0.000070080 RMS     0.000028750
 Search for a saddle point.
 Step number   1 out of a maximum of  100
 All quantities printed in internal units (Hartrees-Bohrs-Radians)
 Swapping is turned off.
 Second derivative matrix not updated -- analytic derivatives used.
 ITU=  0
     Eigenvalues ---   -0.40027   0.00504   0.00995   0.01797   0.04029
     Eigenvalues ---    0.05744   0.06446   0.07875   0.11988   0.15032
     Eigenvalues ---    0.17183   0.17662   0.18384   0.21235   0.24614
     Eigenvalues ---    0.26075   0.29366   0.33158   0.35145   0.43829
     Eigenvalues ---    0.46725   0.48632   0.49819   0.52977   0.63044
     Eigenvalues ---    0.77937   0.93606
 Eigenvectors required to have negative eigenvalues:
                          A13       R9        R4        A9        D10
   1                   -0.62036   0.47542  -0.39640  -0.20722  -0.18275
                          D11       A12       A11       R8        R7
   1                    0.17878   0.17533   0.14382   0.11022   0.09899
 RFO step:  Lambda0=6.164094235D-11 Lambda=-3.97159619D-07.
 Linear search not attempted -- option 19 set.
 Iteration  1 RMS(Cart)=  0.00198840 RMS(Int)=  0.00000180
 Iteration  2 RMS(Cart)=  0.00000209 RMS(Int)=  0.00000004
 Iteration  3 RMS(Cart)=  0.00000000 RMS(Int)=  0.00000004
 ITry= 1 IFail=0 DXMaxC= 4.95D-03 DCOld= 1.00D+10 DXMaxT= 3.00D-01 DXLimC= 3.00D+00 Rises=F
 Variable       Old X    -DE/DX   Delta X   Delta X   Delta X     New X
                                 (Linear)    (Quad)   (Total)
    R1        2.26015  -0.00000   0.00000  -0.00001  -0.00001   2.26014
    R2        2.83237  -0.00002   0.00000  -0.00005  -0.00005   2.83231
    R3        2.52740   0.00001   0.00000   0.00006   0.00006   2.52747
    R4        3.07463  -0.00001   0.00000  -0.00026  -0.00026   3.07437
    R5        2.48098  -0.00001   0.00000   0.00011   0.00011   2.48108
    R6        2.50714  -0.00002   0.00000  -0.00019  -0.00019   2.50695
    R7        2.45740  -0.00003   0.00000  -0.00005  -0.00005   2.45735
    R8        2.45806  -0.00003   0.00000  -0.00033  -0.00033   2.45773
    R9        3.10176   0.00006   0.00000   0.00061   0.00061   3.10236
   R10        1.82673   0.00001   0.00000   0.00001   0.00001   1.82674
    A1        2.12806   0.00000   0.00000   0.00021   0.00021   2.12827
    A2        2.18175  -0.00001   0.00000  -0.00008  -0.00008   2.18168
    A3        1.96664   0.00001   0.00000  -0.00013  -0.00013   1.96652
    A4        1.82225   0.00005   0.00000   0.00007   0.00007   1.82233
    A5        1.94265  -0.00003   0.00000  -0.00025  -0.00025   1.94241
    A6        1.77626  -0.00004   0.00000  -0.00027  -0.00027   1.77599
    A7        1.85208  -0.00000   0.00000  -0.00009  -0.00009   1.85199
    A8        1.84486  -0.00000   0.00000   0.00050   0.00050   1.84536
    A9        1.60260  -0.00004   0.00000  -0.00013  -0.00013   1.60247
   A10        2.04298  -0.00002   0.00000  -0.00002  -0.00002   2.04296
   A11        1.99546   0.00000   0.00000   0.00118   0.00118   1.99664
   A12        2.04714   0.00005   0.00000  -0.00137  -0.00137   2.04577
   A13        1.34213   0.00007   0.00000   0.00026   0.00026   1.34239
   A14        1.87587  -0.00001   0.00000  -0.00010  -0.00010   1.87577
    D1       -2.62756   0.00002   0.00000   0.00186   0.00186  -2.62570
    D2       -0.72440  -0.00001   0.00000   0.00149   0.00149  -0.72290
    D3        0.63265   0.00002   0.00000   0.00181   0.00181   0.63446
    D4        2.53582  -0.00000   0.00000   0.00144   0.00144   2.53725
    D5        0.00052  -0.00000   0.00000   0.00005   0.00005   0.00057
    D6        3.01918  -0.00000   0.00000   0.00013   0.00013   3.01931
    D7       -2.21988  -0.00003   0.00000  -0.00149  -0.00149  -2.22137
    D8        2.04054  -0.00000   0.00000  -0.00115  -0.00115   2.03939
    D9        3.14022   0.00005   0.00000   0.00214   0.00214  -3.14082
   D10       -1.24730   0.00002   0.00000   0.00220   0.00220  -1.24509
   D11        1.24252   0.00006   0.00000   0.00193   0.00193   1.24445
         Item               Value     Threshold  Converged?
 Maximum Force            0.000070     0.000450     YES
 RMS     Force            0.000029     0.000300     YES
 Maximum Displacement     0.004946     0.001800     NO 
 RMS     Displacement     0.001988     0.001200     NO 
 Predicted change in Energy=-1.985490D-07
 Lowest energy point so far.  Saving SCF results.
 GradGradGradGradGradGradGradGradGradGradGradGradGradGradGradGradGradGrad

 Leave Link  103 at Sat May 24 05:09:20 2025, MaxMem=  3758096384 cpu:               0.1 elap:               0.0
 (Enter /apps/easybuild-2022/easybuild/software/Compiler/NVHPC/22.11-CUDA-11.7.0/Gaussian/g16c01-CUDA-11.7.0/g16/l202.exe)
                          Input orientation:                          
 ---------------------------------------------------------------------
 Center     Atomic      Atomic             Coordinates (Angstroms)
 Number     Number       Type             X           Y           Z
 ---------------------------------------------------------------------
      1          6           0        1.499197   -0.000301   -0.000346
      2          8           0        2.131392   -1.008690    0.117678
      3          6           0        0.000402    0.000584    0.000286
      4          6           0       -1.248875    1.539723    0.450613
      5          9           0       -1.768395    2.659870   -0.034459
      6          9           0       -2.248432    0.728682    0.635180
      7          9           0       -0.571043    1.892265    1.503112
      8          9           0       -0.404150    1.271508   -0.931298
      9          9           0       -0.477235   -1.004557   -0.696382
     10          8           0        2.015486    1.233509    0.001593
     11          1           0        2.971819    1.147800    0.113509
 ---------------------------------------------------------------------
                    Distance matrix (angstroms):
                    1          2          3          4          5
     1  C    0.000000
     2  O    1.196014   0.000000
     3  C    1.498796   2.360834   0.000000
     4  C    3.182285   4.246347   2.032840   0.000000
     5  F    4.213648   5.356288   3.194003   1.326622   0.000000
     6  F    3.870405   4.740162   2.447544   1.300372   2.099605
     7  F    3.182466   4.199777   2.482639   1.300576   2.094516
     8  F    2.471214   3.567721   1.626886   1.641699   2.143136
     9  F    2.323634   2.732699   1.312931   2.895580   3.941225
    10  O    1.337478   2.248192   2.362345   3.309296   4.043953
    11  H    1.870753   2.314473   3.187201   4.252235   4.977739
                    6          7          8          9         10
     6  F    0.000000
     7  F    2.218303   0.000000
     8  F    2.479897   2.517845   0.000000
     9  F    2.813239   3.638427   2.289322   0.000000
    10  O    4.340194   3.062458   2.593525   3.421953   0.000000
    11  H    5.262967   3.877770   3.536113   4.145423   0.966667
                   11
    11  H    0.000000
 Symmetry turned off by external request.
 Stoichiometry    C3HF5O2
 Rotational constants (GHZ):           2.3010760           0.9920581           0.8425080
 Leave Link  202 at Sat May 24 05:09:20 2025, MaxMem=  3758096384 cpu:               0.1 elap:               0.0
 (Enter /apps/easybuild-2022/easybuild/software/Compiler/NVHPC/22.11-CUDA-11.7.0/Gaussian/g16c01-CUDA-11.7.0/g16/l301.exe)
 Standard basis: def2TZVPP (5D, 7F)
 Ernie: Thresh=  0.10000D-02 Tol=  0.10000D-05 Strict=F.
   324 basis functions,   527 primitive gaussians,   375 cartesian basis functions
    40 alpha electrons       40 beta electrons
       nuclear repulsion energy       621.4296233435 Hartrees.
 IExCor= 4336 DFT=T Ex+Corr=M062X ExCW=0 ScaHFX=  0.540000
 ScaDFX=  1.000000  1.000000  1.000000  1.000000 ScalE2=  1.000000  1.000000
 IRadAn=      5 IRanWt=     -1 IRanGd=            0 ICorTp=0 IEmpDi=  4
 NAtoms=   11 NActive=   11 NUniq=   11 SFac= 1.00D+00 NAtFMM=   60 NAOKFM=F Big=F
 Integral buffers will be    131072 words long.
 Raffenetti 2 integral format.
 Two-electron integral symmetry is turned off.
 Leave Link  301 at Sat May 24 05:09:20 2025, MaxMem=  3758096384 cpu:               0.1 elap:               0.1
 (Enter /apps/easybuild-2022/easybuild/software/Compiler/NVHPC/22.11-CUDA-11.7.0/Gaussian/g16c01-CUDA-11.7.0/g16/l302.exe)
 NPDir=0 NMtPBC=     1 NCelOv=     1 NCel=       1 NClECP=     1 NCelD=      1
         NCelK=      1 NCelE2=     1 NClLst=     1 CellRange=     0.0.
 One-electron integrals computed using PRISM.
   1 Symmetry operations used in ECPInt.
 ECPInt:  NShTT=    6786 NPrTT=   21959 LenC2=    6388 LenP2D=   15606.
 LDataN:  DoStor=T MaxTD1= 6 Len=  172
 NBasis=   324 RedAO= T EigKep=  3.24D-04  NBF=   324
 NBsUse=   324 1.00D-06 EigRej= -1.00D+00 NBFU=   324
 Precomputing XC quadrature grid using
 IXCGrd= 4 IRadAn=           5 IRanWt=          -1 IRanGd=           0 AccXCQ= 0.00D+00.
 Generated NRdTot=       0 NPtTot=           0 NUsed=           0 NTot=          32
 NSgBfM=   373   373   373   373   373 MxSgAt=    11 MxSgA2=    11.
 Leave Link  302 at Sat May 24 05:09:21 2025, MaxMem=  3758096384 cpu:               0.9 elap:               0.3
 (Enter /apps/easybuild-2022/easybuild/software/Compiler/NVHPC/22.11-CUDA-11.7.0/Gaussian/g16c01-CUDA-11.7.0/g16/l303.exe)
 DipDrv:  MaxL=1.
 Leave Link  303 at Sat May 24 05:09:21 2025, MaxMem=  3758096384 cpu:               0.1 elap:               0.1
 (Enter /apps/easybuild-2022/easybuild/software/Compiler/NVHPC/22.11-CUDA-11.7.0/Gaussian/g16c01-CUDA-11.7.0/g16/l401.exe)
 Initial guess from the checkpoint file:  "/tmp/Gau-219036.chk"
 B after Tr=    -0.000033    0.000236   -0.000007
         Rot=    1.000000    0.000064   -0.000073   -0.000071 Ang=   0.01 deg.
 Guess basis will be translated and rotated to current coordinates.
 JPrj=2 DoOrth=T DoCkMO=T.
 Leave Link  401 at Sat May 24 05:09:21 2025, MaxMem=  3758096384 cpu:               0.3 elap:               0.1
 (Enter /apps/easybuild-2022/easybuild/software/Compiler/NVHPC/22.11-CUDA-11.7.0/Gaussian/g16c01-CUDA-11.7.0/g16/l502.exe)
 Keep R1 ints in memory in canonical form, NReq=1412617130.
 FoFCou: FMM=F IPFlag=           0 FMFlag=           0 FMFlg1=           0
         NFxFlg=           0 DoJE=F BraDBF=F KetDBF=F FulRan=T
         wScrn=  0.000000 ICntrl=       600 IOpCl=  0 I1Cent=           0 NGrid=           0
         NMat0=    1 NMatS0=  52650 NMatT0=    0 NMatD0=    1 NMtDS0=    0 NMtDT0=    0
 Symmetry not used in FoFCou.
 Two-electron integral symmetry not used.
 Closed shell SCF:
 Using DIIS extrapolation, IDIIS=  1040.
 NGot=  3758096384 LenX=  2371771924 LenY=  2371630858
 Requested convergence on RMS density matrix=1.00D-08 within  32 cycles.
 Requested convergence on MAX density matrix=1.00D-06.
 Requested convergence on             energy=1.00D-06.
 No special actions if energy rises.

 Cycle   1  Pass 1  IDiag  1:
 E= -764.469628425238    
 DIIS: error= 1.08D-04 at cycle   1 NSaved=   1.
 NSaved= 1 IEnMin= 1 EnMin= -764.469628425238     IErMin= 1 ErrMin= 1.08D-04
 ErrMax= 1.08D-04  0.00D+00 EMaxC= 1.00D-01 BMatC= 6.71D-06 BMatP= 6.71D-06
 IDIUse=3 WtCom= 9.99D-01 WtEn= 1.08D-03
 Coeff-Com:  0.100D+01
 Coeff-En:   0.100D+01
 Coeff:      0.100D+01
 Gap=     0.978 Goal=   None    Shift=    0.000
 RMSDP=7.20D-06 MaxDP=2.27D-04              OVMax= 5.44D-04

 Cycle   2  Pass 1  IDiag  1:
 E= -764.469636593353     Delta-E=       -0.000008168115 Rises=F Damp=F
 DIIS: error= 1.95D-05 at cycle   2 NSaved=   2.
 NSaved= 2 IEnMin= 2 EnMin= -764.469636593353     IErMin= 2 ErrMin= 1.95D-05
 ErrMax= 1.95D-05  0.00D+00 EMaxC= 1.00D-01 BMatC= 2.16D-07 BMatP= 6.71D-06
 IDIUse=1 WtCom= 1.00D+00 WtEn= 0.00D+00
 Coeff-Com: -0.146D+00 0.115D+01
 Coeff:     -0.146D+00 0.115D+01
 Gap=     0.277 Goal=   None    Shift=    0.000
 RMSDP=1.88D-06 MaxDP=6.17D-05 DE=-8.17D-06 OVMax= 1.87D-04

 Cycle   3  Pass 1  IDiag  1:
 E= -764.469636977844     Delta-E=       -0.000000384491 Rises=F Damp=F
 DIIS: error= 5.21D-06 at cycle   3 NSaved=   3.
 NSaved= 3 IEnMin= 3 EnMin= -764.469636977844     IErMin= 3 ErrMin= 5.21D-06
 ErrMax= 5.21D-06  0.00D+00 EMaxC= 1.00D-01 BMatC= 4.24D-08 BMatP= 2.16D-07
 IDIUse=1 WtCom= 1.00D+00 WtEn= 0.00D+00
 Coeff-Com: -0.598D-01 0.378D+00 0.681D+00
 Coeff:     -0.598D-01 0.378D+00 0.681D+00
 Gap=     0.277 Goal=   None    Shift=    0.000
 RMSDP=5.61D-07 MaxDP=1.84D-05 DE=-3.84D-07 OVMax= 6.42D-05

 Cycle   4  Pass 1  IDiag  1:
 E= -764.469637001534     Delta-E=       -0.000000023690 Rises=F Damp=F
 DIIS: error= 3.49D-06 at cycle   4 NSaved=   4.
 NSaved= 4 IEnMin= 4 EnMin= -764.469637001534     IErMin= 4 ErrMin= 3.49D-06
 ErrMax= 3.49D-06  0.00D+00 EMaxC= 1.00D-01 BMatC= 1.62D-08 BMatP= 4.24D-08
 IDIUse=1 WtCom= 1.00D+00 WtEn= 0.00D+00
 Coeff-Com:  0.225D-02-0.669D-01 0.376D+00 0.688D+00
 Coeff:      0.225D-02-0.669D-01 0.376D+00 0.688D+00
 Gap=     0.277 Goal=   None    Shift=    0.000
 RMSDP=2.75D-07 MaxDP=1.33D-05 DE=-2.37D-08 OVMax= 2.73D-05

 Cycle   5  Pass 1  IDiag  1:
 E= -764.469637013146     Delta-E=       -0.000000011613 Rises=F Damp=F
 DIIS: error= 9.29D-07 at cycle   5 NSaved=   5.
 NSaved= 5 IEnMin= 5 EnMin= -764.469637013146     IErMin= 5 ErrMin= 9.29D-07
 ErrMax= 9.29D-07  0.00D+00 EMaxC= 1.00D-01 BMatC= 1.15D-09 BMatP= 1.62D-08
 IDIUse=1 WtCom= 1.00D+00 WtEn= 0.00D+00
 Coeff-Com:  0.499D-02-0.592D-01 0.141D+00 0.332D+00 0.582D+00
 Coeff:      0.499D-02-0.592D-01 0.141D+00 0.332D+00 0.582D+00
 Gap=     0.277 Goal=   None    Shift=    0.000
 RMSDP=7.60D-08 MaxDP=3.13D-06 DE=-1.16D-08 OVMax= 8.41D-06

 Cycle   6  Pass 1  IDiag  1:
 E= -764.469637013987     Delta-E=       -0.000000000841 Rises=F Damp=F
 DIIS: error= 3.17D-07 at cycle   6 NSaved=   6.
 NSaved= 6 IEnMin= 6 EnMin= -764.469637013987     IErMin= 6 ErrMin= 3.17D-07
 ErrMax= 3.17D-07  0.00D+00 EMaxC= 1.00D-01 BMatC= 1.35D-10 BMatP= 1.15D-09
 IDIUse=1 WtCom= 1.00D+00 WtEn= 0.00D+00
 Coeff-Com:  0.172D-02-0.120D-01-0.243D-01-0.101D-01 0.234D+00 0.811D+00
 Coeff:      0.172D-02-0.120D-01-0.243D-01-0.101D-01 0.234D+00 0.811D+00
 Gap=     0.277 Goal=   None    Shift=    0.000
 RMSDP=4.18D-08 MaxDP=1.56D-06 DE=-8.41D-10 OVMax= 6.21D-06

 Cycle   7  Pass 1  IDiag  1:
 E= -764.469637014088     Delta-E=       -0.000000000101 Rises=F Damp=F
 DIIS: error= 1.26D-07 at cycle   7 NSaved=   7.
 NSaved= 7 IEnMin= 7 EnMin= -764.469637014088     IErMin= 7 ErrMin= 1.26D-07
 ErrMax= 1.26D-07  0.00D+00 EMaxC= 1.00D-01 BMatC= 8.92D-12 BMatP= 1.35D-10
 IDIUse=1 WtCom= 1.00D+00 WtEn= 0.00D+00
 Coeff-Com: -0.221D-03 0.509D-02-0.223D-01-0.422D-01-0.248D-01 0.186D+00
 Coeff-Com:  0.898D+00
 Coeff:     -0.221D-03 0.509D-02-0.223D-01-0.422D-01-0.248D-01 0.186D+00
 Coeff:      0.898D+00
 Gap=     0.277 Goal=   None    Shift=    0.000
 RMSDP=1.53D-08 MaxDP=5.35D-07 DE=-1.01D-10 OVMax= 2.56D-06

 Cycle   8  Pass 1  IDiag  1:
 E= -764.469637014148     Delta-E=       -0.000000000059 Rises=F Damp=F
 DIIS: error= 7.51D-08 at cycle   8 NSaved=   8.
 NSaved= 8 IEnMin= 8 EnMin= -764.469637014148     IErMin= 8 ErrMin= 7.51D-08
 ErrMax= 7.51D-08  0.00D+00 EMaxC= 1.00D-01 BMatC= 3.33D-12 BMatP= 8.92D-12
 IDIUse=1 WtCom= 1.00D+00 WtEn= 0.00D+00
 Coeff-Com: -0.252D-03 0.371D-02-0.964D-02-0.214D-01-0.316D-01 0.344D-01
 Coeff-Com:  0.478D+00 0.546D+00
 Coeff:     -0.252D-03 0.371D-02-0.964D-02-0.214D-01-0.316D-01 0.344D-01
 Coeff:      0.478D+00 0.546D+00
 Gap=     0.277 Goal=   None    Shift=    0.000
 RMSDP=4.09D-09 MaxDP=1.74D-07 DE=-5.91D-11 OVMax= 7.76D-07

 SCF Done:  E(RM062X) =  -764.469637014     A.U. after    8 cycles
            NFock=  8  Conv=0.41D-08     -V/T= 2.0036
 KE= 7.616981789981D+02 PE=-3.055066399399D+03 EE= 9.074689600435D+02
 Leave Link  502 at Sat May 24 05:09:40 2025, MaxMem=  3758096384 cpu:              89.3 elap:              19.3
 (Enter /apps/easybuild-2022/easybuild/software/Compiler/NVHPC/22.11-CUDA-11.7.0/Gaussian/g16c01-CUDA-11.7.0/g16/l508.exe)
 QCSCF skips out because SCF is already converged.
 Leave Link  508 at Sat May 24 05:09:40 2025, MaxMem=  3758096384 cpu:               0.0 elap:               0.0
 (Enter /apps/easybuild-2022/easybuild/software/Compiler/NVHPC/22.11-CUDA-11.7.0/Gaussian/g16c01-CUDA-11.7.0/g16/l801.exe)
 DoSCS=F DFT=T ScalE2(SS,OS)=  1.000000  1.000000
 Range of M.O.s used for correlation:     1   324
 NBasis=   324 NAE=    40 NBE=    40 NFC=     0 NFV=     0
 NROrb=    324 NOA=    40 NOB=    40 NVA=   284 NVB=   284

 **** Warning!!: The largest alpha MO coefficient is  0.16106664D+02

 Leave Link  801 at Sat May 24 05:09:40 2025, MaxMem=  3758096384 cpu:               0.0 elap:               0.0
 (Enter /apps/easybuild-2022/easybuild/software/Compiler/NVHPC/22.11-CUDA-11.7.0/Gaussian/g16c01-CUDA-11.7.0/g16/l1101.exe)
 Using compressed storage, NAtomX=    11.
 Will process     12 centers per pass.
   1 Symmetry operations used in ECPInt.
 ECPInt:  NShTT=    6786 NPrTT=   21959 LenC2=    6388 LenP2D=   15606.
 LDataN:  DoStor=T MaxTD1= 7 Len=  274
 Leave Link 1101 at Sat May 24 05:09:41 2025, MaxMem=  3758096384 cpu:               1.3 elap:               0.3
 (Enter /apps/easybuild-2022/easybuild/software/Compiler/NVHPC/22.11-CUDA-11.7.0/Gaussian/g16c01-CUDA-11.7.0/g16/l1102.exe)
 Symmetrizing basis deriv contribution to polar:
 IMax=3 JMax=2 DiffMx= 0.00D+00
 Leave Link 1102 at Sat May 24 05:09:41 2025, MaxMem=  3758096384 cpu:               0.1 elap:               0.1
 (Enter /apps/easybuild-2022/easybuild/software/Compiler/NVHPC/22.11-CUDA-11.7.0/Gaussian/g16c01-CUDA-11.7.0/g16/l1110.exe)
 Forming Gx(P) for the SCF density, NAtomX=    11.
 Integral derivatives from FoFJK, PRISM(SPDF).
 Do as many integral derivatives as possible in FoFJK.
 G2DrvN: MDV=    3758095115.
 G2DrvN: will do    12 centers at a time, making    1 passes.
 Calling FoFCou, ICntrl=  3107 FMM=F I1Cent=   0 AccDes= 0.00D+00.
 FoFJK:  IHMeth= 1 ICntrl=    3107 DoSepK=F KAlg= 0 I1Cent=           0 FoldK=F
 IRaf=         0 NMat=       1 IRICut=       1 DoRegI=T DoRafI=F ISym2E= 0 IDoP0=0 IntGTp=1.
 FoFCou: FMM=F IPFlag=           0 FMFlag=      100000 FMFlg1=           0
         NFxFlg=           0 DoJE=F BraDBF=F KetDBF=F FulRan=T
         wScrn=  0.000000 ICntrl=      3107 IOpCl=  0 I1Cent=           0 NGrid=           0
         NMat0=    1 NMatS0=      1 NMatT0=    0 NMatD0=    1 NMtDS0=    0 NMtDT0=    0
 Symmetry not used in FoFCou.
 End of G2Drv F.D. properties file   721 does not exist.
 End of G2Drv F.D. properties file   722 does not exist.
 End of G2Drv F.D. properties file   788 does not exist.
 Leave Link 1110 at Sat May 24 05:10:19 2025, MaxMem=  3758096384 cpu:             292.8 elap:              38.6
 (Enter /apps/easybuild-2022/easybuild/software/Compiler/NVHPC/22.11-CUDA-11.7.0/Gaussian/g16c01-CUDA-11.7.0/g16/l1002.exe)
 Minotr:  Closed shell wavefunction.
          IDoAtm=11111111111
          Direct CPHF calculation.
          Differentiating once with respect to electric field.
                with respect to dipole field.
          Differentiating once with respect to nuclear coordinates.
          Requested convergence is 1.0D-08 RMS, and 1.0D-07 maximum.
          Secondary convergence is 1.0D-12 RMS, and 1.0D-12 maximum.
          NewPWx=T KeepS1=F KeepF1=F KeepIn=T MapXYZ=F SortEE=F KeepMc=T.
         3307 words used for storage of precomputed grid.
 Keep R1 ints in memory in canonical form, NReq=1412622537.
 FoFCou: FMM=F IPFlag=           0 FMFlag=           0 FMFlg1=           0
         NFxFlg=           0 DoJE=F BraDBF=F KetDBF=F FulRan=T
         wScrn=  0.000000 ICntrl=       600 IOpCl=  0 I1Cent=           0 NGrid=           0
         NMat0=    1 NMatS0=  52650 NMatT0=    0 NMatD0=    1 NMtDS0=    0 NMtDT0=    0
 Symmetry not used in FoFCou.
 Two-electron integral symmetry not used.
          MDV=    3758096384 using IRadAn=       1.
          Solving linear equations simultaneously, MaxMat=       0.
          There are    36 degrees of freedom in the 1st order CPHF.  IDoFFX=6 NUNeed=     3.
     33 vectors produced by pass  0 Test12= 3.16D-14 2.78D-09 XBig12= 2.75D+01 2.87D+00.
 AX will form    33 AO Fock derivatives at one time.
     33 vectors produced by pass  1 Test12= 3.16D-14 2.78D-09 XBig12= 5.25D+00 3.08D-01.
     33 vectors produced by pass  2 Test12= 3.16D-14 2.78D-09 XBig12= 1.74D-01 7.84D-02.
     33 vectors produced by pass  3 Test12= 3.16D-14 2.78D-09 XBig12= 3.06D-03 8.11D-03.
     33 vectors produced by pass  4 Test12= 3.16D-14 2.78D-09 XBig12= 4.26D-05 7.55D-04.
     33 vectors produced by pass  5 Test12= 3.16D-14 2.78D-09 XBig12= 3.87D-07 8.21D-05.
     33 vectors produced by pass  6 Test12= 3.16D-14 2.78D-09 XBig12= 2.26D-09 6.33D-06.
     16 vectors produced by pass  7 Test12= 3.16D-14 2.78D-09 XBig12= 1.06D-11 4.22D-07.
      3 vectors produced by pass  8 Test12= 3.16D-14 2.78D-09 XBig12= 5.58D-14 2.73D-08.
 InvSVY:  IOpt=1 It=  1 EMax= 4.00D-15
 Solved reduced A of dimension   250 with    36 vectors.
 FullF1:  Do perturbations      1 to       3.
 Isotropic polarizability for W=    0.000000       52.03 Bohr**3.
 End of Minotr F.D. properties file   721 does not exist.
 End of Minotr F.D. properties file   722 does not exist.
 End of Minotr F.D. properties file   788 does not exist.
 Leave Link 1002 at Sat May 24 05:11:19 2025, MaxMem=  3758096384 cpu:             471.1 elap:              60.1
 (Enter /apps/easybuild-2022/easybuild/software/Compiler/NVHPC/22.11-CUDA-11.7.0/Gaussian/g16c01-CUDA-11.7.0/g16/l701.exe)
 ... and contract with generalized density number  0.
 Compute integral second derivatives.
   1 Symmetry operations used in ECPInt.
 ECPInt:  NShTT=    6786 NPrTT=   21959 LenC2=    6388 LenP2D=   15606.
 LDataN:  DoStor=T MaxTD1= 8 Len=  415
 Leave Link  701 at Sat May 24 05:11:20 2025, MaxMem=  3758096384 cpu:               1.1 elap:               0.2
 (Enter /apps/easybuild-2022/easybuild/software/Compiler/NVHPC/22.11-CUDA-11.7.0/Gaussian/g16c01-CUDA-11.7.0/g16/l702.exe)
 L702 exits ... SP integral derivatives will be done elsewhere.
 Leave Link  702 at Sat May 24 05:11:20 2025, MaxMem=  3758096384 cpu:               0.1 elap:               0.0
 (Enter /apps/easybuild-2022/easybuild/software/Compiler/NVHPC/22.11-CUDA-11.7.0/Gaussian/g16c01-CUDA-11.7.0/g16/l703.exe)
 Integral derivatives from FoFJK, PRISM(SPDF).
 Compute integral second derivatives, UseDBF=F ICtDFT=           0.
 Calling FoFJK, ICntrl=    100127 FMM=F ISym2X=0 I1Cent= 0 IOpClX= 0 NMat=1 NMatS=1 NMatT=0.
 FoFJK:  IHMeth= 1 ICntrl=  100127 DoSepK=F KAlg= 0 I1Cent=           0 FoldK=F
[...]
     17  0.459663D-01  0.571859D-01 -0.572369D-02 -0.501923D-01  0.383798D-03
     18  0.458566D-01 -0.623019D-02  0.597089D-01 -0.524860D-01  0.205740D-03
     19  0.218570D-01 -0.298255D-01 -0.316408D-01  0.983149D-01 -0.192096D-04
     20 -0.147512D-01  0.276214D-01  0.295515D-01 -0.124981D-01  0.147588D-03
     21 -0.302541D-01 -0.537387D-02 -0.405095D-01  0.129337D-01 -0.395299D-03
     22 -0.309712D-01 -0.409827D-01 -0.101348D-01  0.918564D-02 -0.163695D-03
     23  0.157432D-01  0.128821D+00  0.135371D+00  0.293217D+00  0.163891D-02
     24 -0.745023D-03 -0.251000D-03  0.142983D-03  0.150238D-02  0.280621D-01
     25  0.798940D-04  0.184791D-02  0.170251D-02  0.264673D-02 -0.234048D-03
     26 -0.541969D-03 -0.472333D-02 -0.484307D-02 -0.956017D-02  0.948451D-04
     27  0.510439D-03  0.435000D-02  0.570010D-02  0.586707D-02  0.486448D-03
     28 -0.111423D-03 -0.222124D-02 -0.845485D-03 -0.633983D-02  0.815341D-03
     29 -0.151265D-03  0.599635D-03  0.158673D-02  0.104952D-02  0.108177D-03
     30 -0.277172D-03 -0.152123D-02 -0.178365D-02 -0.220710D-02  0.448740D-03
     31  0.372830D-05 -0.734304D-02 -0.840091D-03 -0.115547D-01  0.277967D-03
     32  0.650792D-03 -0.257462D-02  0.719015D-02  0.426983D-02 -0.420554D-03
     33  0.653884D-03 -0.405341D-01  0.403682D-01  0.112466D-02  0.466359D-04
     34  0.569096D-01  0.756161D-02  0.109667D-01 -0.426080D-02  0.391073D-03
     35 -0.574488D-01 -0.837095D-02 -0.828169D-02  0.478921D-02 -0.143959D-03
               11            12            13            14            15 
     11  0.137659D+00
     12 -0.836429D-01  0.189968D+00
     13 -0.538849D-01 -0.106779D+00  0.161552D+00
     14  0.926904D-02 -0.198063D-01  0.109594D-01  0.213323D+00
     15 -0.725742D-02 -0.311405D-02  0.111555D-01 -0.485627D-01  0.130090D+00
     16  0.476297D-03  0.778185D-02 -0.849684D-02 -0.578860D-01 -0.388450D-01
     17 -0.223849D-02  0.401886D-02 -0.155374D-02  0.387840D-02  0.912053D-03
     18 -0.226128D-02  0.424850D-02 -0.179619D-02  0.352500D-02  0.342382D-02
     19 -0.215509D-03  0.156477D-02 -0.108321D-02  0.764241D-02  0.480645D-02
     20 -0.872516D-04  0.315590D-02 -0.303251D-02  0.561365D-03  0.273558D-02
     21  0.471034D-02 -0.499419D-02 -0.251390D-03 -0.744947D-02  0.228916D-02
     22 -0.135402D-02 -0.525213D-02  0.664139D-02 -0.320018D-02 -0.114352D-01
     23 -0.103104D-01  0.107271D-01  0.704565D-03  0.337188D-01  0.646050D-02
     24  0.519493D-02 -0.293821D-01  0.243003D-01 -0.581599D-02  0.541480D-02
     25 -0.820354D-02  0.556094D-02  0.494981D-02 -0.605237D-02  0.132324D-01
     26 -0.596260D-02  0.330662D-02  0.521912D-02  0.146335D-01 -0.282578D-02
     27 -0.209960D-02 -0.413064D-02  0.362198D-02 -0.832410D-02  0.646970D-02
     28  0.141344D-03 -0.638495D-02  0.389129D-02  0.123618D-01 -0.958852D-02
     29 -0.638044D-02  0.627104D-02 -0.243033D-02 -0.302964D-02 -0.192256D-02
     30  0.512079D-02 -0.654630D-02  0.403004D-02  0.175089D-02  0.479756D-02
     31 -0.129944D-02 -0.745738D-03  0.253850D-02 -0.331665D-03  0.536150D-01
     32  0.314304D-02  0.669738D-02 -0.102613D-01 -0.854014D-03 -0.561579D-01
     33 -0.122663D-02  0.830010D-03  0.513943D-03  0.900778D-03 -0.284868D-02
     34 -0.294796D-02  0.514160D-02 -0.179339D-02  0.757257D-02  0.945333D-03
     35  0.176013D-02 -0.380273D-02  0.178682D-02 -0.669698D-02 -0.704784D-02
               16            17            18            19            20 
     16  0.866620D-01
     17  0.125142D-02  0.207599D+00
     18  0.174688D-02  0.194913D-02  0.209904D+00
     19  0.418809D-02 -0.110342D+00 -0.120010D+00  0.337237D+00
     20  0.671072D-03  0.149136D-01  0.156071D-01 -0.596632D-01  0.127556D+00
     21 -0.246526D-02 -0.501740D-01 -0.380804D-01  0.539595D-02 -0.644147D-01
     22 -0.304664D-02 -0.391003D-01 -0.511449D-01  0.472154D-02 -0.604776D-01
     23  0.155770D-01 -0.121821D+00 -0.122653D+00 -0.131413D+00 -0.393876D-01
     24  0.612266D-03  0.428765D-03  0.313975D-03 -0.455351D-03  0.454898D-03
     25 -0.295524D-01 -0.466945D-03 -0.148550D-02 -0.308858D-02 -0.591215D-03
     26  0.251276D-01  0.328196D-02  0.367520D-02  0.749722D-02  0.157114D-02
     27 -0.279701D-01 -0.275137D-02 -0.347301D-02 -0.553076D-02 -0.111977D-02
     28  0.267099D-01  0.997536D-03  0.168770D-02  0.505503D-02  0.104259D-02
     29  0.118378D-02 -0.619463D-03 -0.630661D-03 -0.842866D-03 -0.135418D-03
     30 -0.109239D-02  0.122856D-02  0.888000D-03  0.153656D-02  0.132862D-03
     31 -0.158269D-01  0.708098D-02  0.570979D-03  0.576827D-02  0.334660D-02
     32  0.137020D-01  0.422059D-02 -0.509833D-02 -0.382037D-02 -0.100246D-03
     33 -0.404282D-03 -0.650440D-01  0.630763D-01  0.219265D-02 -0.189403D-02
     34  0.257968D-02  0.102833D+00 -0.567812D-03  0.453212D-01 -0.264747D-01
     35 -0.408768D-02  0.196301D-02 -0.998631D-01 -0.483098D-01  0.258748D-01
               21            22            23            24            25 
     21  0.149942D+00
     22 -0.205952D-01  0.147468D+00
     23  0.141854D+00  0.155600D+00  0.218448D+00
     24 -0.689751D-04 -0.659086D-03  0.142227D-03  0.169672D+00
     25  0.455867D-03  0.354186D-02 -0.126261D-01 -0.790739D-03  0.274268D-01
     26 -0.517421D-02 -0.620175D-02  0.247604D-01 -0.801563D-03 -0.414239D-02
     27  0.554420D-02  0.356606D-02 -0.233081D-01  0.238406D-03  0.670459D-02
     28 -0.858794D-04 -0.617754D-02  0.140784D-01  0.227581D-03 -0.248646D-01
     29  0.156934D-02 -0.116069D-04 -0.335318D-02 -0.513149D-03 -0.106042D-01
     30 -0.291032D-02  0.313166D-03  0.599756D-02  0.136034D-02  0.976194D-02
     31 -0.121211D-01 -0.546204D-03  0.469380D-02  0.165876D-02  0.256010D-02
     32 -0.110165D-01  0.142594D-01 -0.203860D-01 -0.242130D-02  0.168680D-02
     33 -0.500884D-01  0.509462D-01 -0.346363D-02  0.000000D+00  0.111615D-02
     34 -0.754049D-01  0.587315D-02 -0.177027D+00  0.241250D-03 -0.830318D-03
     35 -0.524766D-02  0.761532D-01  0.177214D+00  0.295447D-04  0.378878D-02
               26            27            28            29            30 
     26  0.308737D-01
     27 -0.269334D-01  0.298480D-01
     28  0.808268D-02 -0.378998D-02  0.291573D-01
     29 -0.115440D-01  0.111922D-01  0.102525D-01  0.206188D-01
     30  0.113339D-01 -0.126003D-01 -0.110283D-01 -0.300638D-02  0.211320D-01
     31  0.600904D-02 -0.173611D-02  0.171283D-02 -0.136239D-02  0.305506D-02
     32 -0.582720D-02  0.497338D-02 -0.254062D-02  0.135814D-02 -0.238548D-02
     33 -0.537185D-04  0.160193D-04 -0.115385D-02 -0.414881D-03  0.559212D-03
     34  0.630648D-02 -0.472210D-02  0.241469D-02 -0.122497D-02  0.213739D-02
     35 -0.711869D-02  0.630885D-02 -0.459862D-02  0.775481D-03 -0.137229D-02
               31            32            33            34            35 
     31  0.465393D-01
     32 -0.577902D-02  0.505599D-01
     33  0.697549D-02  0.992224D-02  0.812785D-01
     34  0.154271D-01  0.107019D-01  0.580481D-03  0.123244D+00
     35  0.324176D-02  0.149029D-01 -0.265965D-02 -0.250896D-01  0.122455D+00
 Leave Link  716 at Sat May 24 05:12:37 2025, MaxMem=  3758096384 cpu:               0.1 elap:               0.0
 (Enter /apps/easybuild-2022/easybuild/software/Compiler/NVHPC/22.11-CUDA-11.7.0/Gaussian/g16c01-CUDA-11.7.0/g16/l9999.exe)

 ----------------------------------------------------------------------

 Electric dipole moment (input orientation):
 (Debye = 10**-18 statcoulomb cm , SI units = C m)
                  (au)            (Debye)         (10**-30 SI)
   Tot        0.876445D+00      0.222770D+01      0.743081D+01
   x          0.847656D-01      0.215453D+00      0.718672D+00
   y          0.856746D+00      0.217763D+01      0.726380D+01
   z          0.164187D+00      0.417322D+00      0.139204D+01

 Dipole polarizability, Alpha (input orientation).
 (esu units = cm**3 , SI units = C**2 m**2 J**-1)
 Alpha(0;0):
               (au)            (10**-24 esu)      (10**-40 SI)
   iso        0.520349D+02      0.771078D+01      0.857940D+01
   aniso      0.289989D+02      0.429719D+01      0.478127D+01
   xx         0.613116D+02      0.908545D+01      0.101089D+02
   yx        -0.106635D+02     -0.158016D+01     -0.175817D+01
   yy         0.574537D+02      0.851376D+01      0.947283D+01
   zx         0.522931D-01      0.774903D-02      0.862196D-02
   zy         0.953489D+00      0.141293D+00      0.157209D+00
   zz         0.373394D+02      0.553312D+01      0.615643D+01

 ----------------------------------------------------------------------

 Dipole orientation:
     6          2.81086106         -0.22505457          0.27332160
     8          4.12628653         -0.91019186         -1.43210195
     6          0.00061282         -0.00037318          0.00125246
     6         -2.65547683         -0.07648169          2.77552615
     9         -3.70938618          1.31095858          4.57805037
     9         -4.44118103         -0.56621029          1.15998276
     9         -1.63005772         -1.99265497          3.92323782
     9         -0.77883067          2.25020760          1.94524408
     9         -0.61630899          0.98762558         -2.18941581
     8          3.59281510          0.14882383          2.64752724
     1          5.37822827         -0.23342964          2.70360318

 Electric dipole moment (dipole orientation):
 (Debye = 10**-18 statcoulomb cm , SI units = C m)
                  (au)            (Debye)         (10**-30 SI)
   Tot        0.876445D+00      0.222770D+01      0.743081D+01
   x          0.000000D+00      0.000000D+00      0.000000D+00
   y          0.000000D+00      0.000000D+00      0.000000D+00
   z          0.876445D+00      0.222770D+01      0.743081D+01

 Dipole polarizability, Alpha (dipole orientation).
 (esu units = cm**3 , SI units = C**2 m**2 J**-1)
 Alpha(0;0):
               (au)            (10**-24 esu)      (10**-40 SI)
   iso        0.520349D+02      0.771078D+01      0.857940D+01
   aniso      0.289989D+02      0.429719D+01      0.478127D+01
   xx         0.627524D+02      0.929894D+01      0.103465D+02
   yx        -0.433334D+01     -0.642135D+00     -0.714471D+00
   yy         0.382336D+02      0.566564D+01      0.630387D+01
   zx        -0.962009D+01     -0.142555D+01     -0.158614D+01
   zy         0.340038D+01      0.503885D+00      0.560647D+00
   zz         0.551187D+02      0.816775D+01      0.908785D+01

 ----------------------------------------------------------------------
 Unable to Open any file for archive entry.
 1\1\GINC-SPARTAN-BM149\Freq\RM062X\def2TZVPP\C3H1F5O2\AKHALILOV\24-May
 -2025\0\\#P M062X/Def2TZVPP Symm(None) scf(xqc) pop(None) opt(NoFreeze
 ,TS,CalcAll,NoEigentest,MaxCycle=999)\\Gaussian input prepared by ASE\
 \0,1\C,1.4991968065,-0.0003013688,-0.0003463462\O,2.1313922681,-1.0086
 903214,0.1176782264\C,0.0004015616,0.0005835037,0.0002858359\C,-1.2488
 749876,1.5397229203,0.450613085\F,-1.7683947824,2.6598700349,-0.034459
 4836\F,-2.2484321614,0.7286817364,0.6351801683\F,-0.5710428199,1.89226
 50702,1.5031124273\F,-0.4041501792,1.2715080128,-0.9312978632\F,-0.477
 2347732,-1.0045565339,-0.6963818277\O,2.0154861141,1.2335093443,0.0015
 933279\H,2.9718193909,1.1477995704,0.1135091157\\Version=ES64L-G16RevC
 .01\HF=-764.469637\RMSD=4.094e-09\RMSF=2.295e-06\ZeroPoint=0.0483131\T
 hermal=0.0573718\ETot=-764.4122652\HTot=-764.4113211\GTot=-764.4567046
 \Dipole=0.0847656,0.8567462,0.1641872\DipoleDeriv=1.5520906,-0.3022494
 ,-0.0183095,0.0751687,1.7910042,-0.0479522,0.3560043,-0.1874705,0.2797
 588,-0.9327454,0.4676228,-0.0212665,0.2415316,-1.0639587,0.0025131,-0.
 1522195,0.1089643,-0.3459968,-0.2928464,0.642666,0.169933,0.353054,0.8
 451177,0.1266394,0.5101044,0.078856,0.5412694,2.6733732,-0.7412674,-0.
 1291844,-1.1215672,2.82928,0.11703,-0.122445,0.1005359,1.9843089,-0.49
 01959,0.2978001,-0.0450748,0.3850639,-0.8515482,0.1119634,-0.1091874,0
 .1894407,-0.3474104,-1.1717432,0.1229727,0.1601489,-0.1865786,-0.48534
 03,0.0533492,0.2170801,-0.0519126,-0.26362,-0.4104541,-0.0122339,-0.22
 24419,0.2341558,-0.6198152,-0.239347,0.0854438,-0.4823523,-0.7198364,-
 0.3317445,0.125196,0.2005738,0.5153148,-0.9081971,0.0851625,-0.5444269
 ,0.8378756,-0.7763827,-0.2115694,-0.2838352,-0.0973008,-0.1764854,-0.7
 845011,-0.2404411,-0.1731993,-0.601203,-0.3539505,-0.7171155,-0.388255
 5,0.0123677,-0.4148337,-1.0414355,0.0238865,-0.0358885,-0.0063138,-0.3
 36608,0.3329506,0.0715838,-0.0094453,0.0951761,0.289394,0.0071962,-0.0
 312661,0.0135798,0.3384676\Polar=61.3116434,-10.6634757,57.4536924,0.0
 522931,0.9534891,37.3393662\PG=Unknown\NImag=1\\0.74108391,-0.17614687
 ,0.90775603,0.06209576,-0.04838432,0.22577382,-0.32588400,0.30794202,-
 0.04108690,0.31546880,0.30800384,-0.57064728,0.05899305,-0.35808890,0.
 68544025,-0.04049043,0.05573801,-0.08407836,0.04556020,-0.06749419,0.0
 3951679,-0.18173207,-0.01654537,0.04664701,-0.03035935,0.03318795,-0.0
 1539819,0.37457825,-0.01834248,-0.04197349,-0.03857754,0.04308026,-0.0
 2299017,0.01220412,0.11718731,0.28311607,-0.03733936,0.00212256,-0.075
 57152,0.00435632,-0.00717323,0.02062609,0.07359747,0.19758768,0.269444
 54,-0.02310133,0.00662860,-0.00552350,0.00936248,-0.00689935,0.0020855
 8,0.01491109,0.00577016,0.01432372,0.49650412,0.04119825,0.01100341,0.
 03386138,-0.01606977,0.00539701,-0.00881313,-0.07363103,0.05718645,-0.
 04303246,0.17468409,0.44007949,0.00379255,0.00351955,-0.00828867,-0.00
 346705,-0.00055532,0.00239070,0.03447132,-0.09687408,0.04641963,0.1397
 7396,-0.00959744,0.42132354,0.00282960,-0.00083469,-0.00093529,-0.0013
 3216,0.00072800,0.00018224,-0.00002297,-0.00802242,0.00477982,-0.10355
 503,0.06069107,-0.04635153,0.14695963,-0.00586990,-0.00073399,-0.00118
 021,0.00249722,-0.00068261,0.00035117,0.00431002,0.00397964,-0.0026552
 0,0.04565366,-0.21012412,0.08085344,-0.10570603,0.33517781,0.00081077,
 -0.00060780,0.00177845,-0.00010729,0.00033644,-0.00047949,-0.00337785,
 0.01011039,-0.00696673,-0.02557772,0.04996491,-0.10179035,0.04897261,-
 0.10639754,0.15221575,0.01695406,0.00122249,0.01521374,-0.00730786,0.0
 0422912,-0.00389243,-0.07756564,0.02043485,-0.00943741,-0.21912767,-0.
 17675514,0.03406296,0.01194716,-0.01287292,0.00437548,0.29442599,-0.00
 319466,-0.00227655,-0.00370989,0.00133793,-0.00009358,0.00105055,0.017
 66925,-0.00453346,-0.00137514,-0.11617806,-0.17729271,0.02027258,-0.03
 700953,-0.08815281,0.03815541,0.17627202,0.26553319,-0.00419414,-0.000
 85465,-0.00359132,0.00190275,-0.00062880,0.00082775,0.01502069,-0.0012
 8721,0.00434463,0.02631562,0.03598543,-0.08664093,0.01393128,0.0367876
 7,0.00709527,-0.03061300,-0.04679356,0.06776208,-0.00063168,-0.0037786
 4,-0.00194920,0.00025341,0.00106082,0.00027167,0.00583508,0.00835673,0
 .00102207,-0.14824687,-0.03076634,-0.10087608,-0.02169425,0.02185866,-
 0.05728406,-0.02921705,-0.03390326,-0.03152091,0.18798477,-0.01189051,
 -0.00350435,-0.00919315,0.00450172,-0.00133652,0.00248060,0.01838718,-
 0.04365472,-0.00831853,-0.06161493,-0.07400406,-0.07121057,0.03417996,
 0.00022079,0.04539365,-0.01616655,-0.00752276,-0.02214151,0.03461735,0
 .12268049,-0.01215877,-0.00503711,-0.01016871,0.00492382,-0.00095579,0
 .00254148,0.01703503,-0.03315933,-0.00178827,-0.13593712,-0.02578761,-
 0.25918939,-0.05100220,0.02327579,-0.04931482,-0.00619305,-0.01407862,
 0.00381864,0.18405236,0.06516768,0.31258644,-0.00535999,0.02192169,-0.
 03862745,-0.00642767,0.00010577,0.00649494,0.00734110,-0.06580849,0.02
 544159,-0.02641325,0.02834359,-0.06626990,-0.03590165,0.04930090,0.033
 23452,0.00661784,-0.00603389,0.00900585,0.00701045,-0.00704331,-0.0056
 5144,0.05088294,-0.01609565,-0.01943273,0.01760238,0.00865072,0.001632
 71,-0.00273606,0.01949507,0.01801038,0.00603296,-0.02799349,-0.0427937
 5,0.07101421,0.05252118,-0.03889102,-0.03613299,-0.00108222,0.00799004
 ,-0.00085381,-0.00154208,0.00995002,-0.00591307,-0.02305380,0.11073400
 ,0.03219809,0.01202948,0.01274373,-0.00946881,0.00214960,-0.00284292,-
 0.08828627,0.10368075,-0.11348728,0.01235358,-0.04705244,-0.00052512,0
 .02879546,-0.02975148,-0.00458102,-0.01267040,0.00187293,0.00736087,0.
 00043867,0.00891885,0.01026371,0.03336191,-0.04848264,0.04948984,-0.02
 431574,-0.04082021,-0.03240438,0.00268079,-0.00283104,0.00529261,-0.09
 319027,-0.06876262,-0.07799385,-0.00590105,0.00559378,0.00606840,0.001
 43909,-0.00113150,-0.00078330,0.00809123,-0.00003263,-0.00142466,-0.00
 046537,0.00093567,0.00003446,0.00430781,-0.01308668,0.01312039,0.11861
 437,-0.00239451,-0.02121502,-0.00878395,-0.00198400,0.00865862,0.00176
 960,-0.10301163,-0.23577033,-0.15033281,-0.02252286,0.00654299,0.00312
 578,0.00353918,-0.00239543,-0.00061278,0.00871002,0.00441256,-0.001401
 09,0.00222899,-0.00777370,-0.00867725,-0.00093479,-0.05527871,0.009334
 30,0.12164377,0.30163736,0.00572556,-0.01504637,0.00138641,-0.00378790
 ,0.00618091,-0.00112241,-0.07637364,-0.15973781,-0.15832321,-0.0281682
 5,0.02022236,-0.01159048,0.00155172,-0.00163062,0.00185539,0.01128389,
 0.00394294,-0.00184569,0.00417978,-0.01288558,-0.01088328,0.00129014,0
 .00196597,0.04269499,0.08722297,0.15690756,0.13786559,-0.17036519,-0.0
 8865794,-0.00046248,0.04127101,0.01209947,-0.00055736,-0.02235425,-0.0
 3181676,0.00331696,0.00697046,-0.01447005,-0.00119812,-0.00093996,0.00
 232718,-0.00034341,-0.00549930,0.00108567,0.00172124,-0.00096280,0.004
 23035,0.00494558,-0.00281423,0.00259841,-0.01069709,-0.01059628,-0.005
 03668,-0.00359571,0.65653123,-0.05740188,-0.26221294,0.00482453,-0.000
 23491,-0.10683436,0.00468608,-0.01692977,-0.00855389,0.00729266,0.0036
 3685,-0.01620297,-0.00131259,-0.00030720,0.00191312,-0.00019325,-0.004
 11518,0.00194749,0.00122925,0.00164304,0.00490521,0.00522135,0.0015889
 9,0.00798870,-0.01236796,0.00044921,0.00184731,0.00038652,0.04081410,0
 .42618571,-0.00922663,-0.00128282,-0.06428467,0.00041000,0.00851900,0.
 02838976,-0.00231965,0.00307519,0.01070491,0.00014872,-0.00459026,-0.0
 0273907,0.00012622,0.00019556,0.00033786,-0.00150196,0.00056969,0.0007
 2097,0.00156506,0.00158368,0.00210178,0.00115130,-0.00198802,-0.000147
 81,-0.00007976,-0.00117184,-0.00018272,0.06435351,-0.01477695,0.046582
 49,-0.02947757,-0.01093110,-0.00296731,0.00227455,0.00840433,0.0004511
 6,0.00255903,-0.00207653,-0.00206734,-0.00140295,0.00118155,-0.0000065
 1,0.00027056,-0.00036729,0.00008026,0.00068123,-0.00001284,-0.00014470
 ,0.00013431,-0.00013695,-0.00004867,0.00075665,-0.00041148,0.00085448,
 -0.00066458,-0.00023751,0.00067143,-0.49124068,0.03085675,-0.05462682,
 0.51610945,-0.05786563,0.00323691,-0.00545229,0.00836771,0.00145594,0.
 00076325,-0.00011898,-0.00481648,-0.00014849,-0.00116468,0.00020826,0.
 00076445,0.00022049,-0.00031138,-0.00001645,0.00012349,-0.00001141,-0.
 00004172,0.00022472,0.00003961,-0.00005605,0.00161333,0.00009036,-0.00
 033140,-0.00195775,-0.00066566,-0.00030590,0.07682625,-0.05098338,0.00
 986678,-0.02626895,0.05175721,-0.00121342,-0.00219652,0.00430085,0.000
 76487,0.00062832,-0.00576939,-0.00101592,0.00297782,0.00459721,0.00020
 542,-0.00116074,0.00063014,-0.00005034,0.00015142,-0.00015030,-0.00062
 782,0.00009309,0.00014775,0.00010065,0.00020487,0.00003241,0.00056855,
 -0.00050893,-0.00096897,0.00094713,-0.00015752,0.00014541,-0.05748313,
 0.00501036,-0.02148348,0.05780400,-0.00504217,0.01851837\\-0.00000004,
 0.00000052,-0.00000270,-0.00000010,-0.00000026,-0.00000571,0.00000019,
 0.00000011,-0.00000210,0.00000044,-0.00000103,0.00000273,0.00000010,0.
 00000042,0.00000608,-0.00000010,-0.00000147,0.00000002,0.00000014,-0.0
 0000424,0.00000312,-0.00000035,0.00000345,0.00000172,-0.00000026,0.000
 00262,-0.00000536,-0.00000014,0.00000009,0.00000135,0.00000012,-0.0000
 0021,0.00000085\\\@
 The archive entry for this job was punched.


 MAN IS THE MEASURE OF ALL THINGS.
  -- PROTAGORAS (5TH CENTURY B.C.)
 Job cpu time:       0 days  0 hours 49 minutes 38.8 seconds.
 Elapsed time:       0 days  0 hours  7 minutes  0.8 seconds.
 File lengths (MBytes):  RWF=    119 Int=      0 D2E=      0 Chk=      9 Scr=      1
 Normal termination of Gaussian 16 at Sat May 24 05:12:37 2025.
done
