 Entering Gaussian System, Link 0=g16
 Initial command:
 /apps/easybuild-2022/easybuild/software/Compiler/NVHPC/22.11-CUDA-11.7.0/Gaussian/g16c01-CUDA-11.7.0/g16/l1.exe "/tmp/Gau-177745.inp" -scrdir="/tmp/"
 Entering Link 1 = /apps/easybuild-2022/easybuild/software/Compiler/NVHPC/22.11-CUDA-11.7.0/Gaussian/g16c01-CUDA-11.7.0/g16/l1.exe PID=    177746.
  
 Copyright (c) 1988-2019, Gaussian, Inc.  All Rights Reserved.
  
 This is part of the Gaussian(R) 16 program.  It is based on
 the Gaussian(R) 09 system (copyright 2009, Gaussian, Inc.),
 the Gaussian(R) 03 system (copyright 2003, Gaussian, Inc.),
 the Gaussian(R) 98 system (copyright 1998, Gaussian, Inc.),
 the Gaussian(R) 94 system (copyright 1995, Gaussian, Inc.),
 the Gaussian 92(TM) system (copyright 1992, Gaussian, Inc.),
 the Gaussian 90(TM) system (copyright 1990, Gaussian, Inc.),
 the Gaussian 88(TM) system (copyright 1988, Gaussian, Inc.),
 the Gaussian 86(TM) system (copyright 1986, Carnegie Mellon
 University), and the Gaussian 82(TM) system (copyright 1983,
 Carnegie Mellon University). Gaussian is a federally registered
 trademark of Gaussian, Inc.
  
 This software contains proprietary and confidential information,
 including trade secrets, belonging to Gaussian, Inc.
  
 This software is provided under written license and may be
 used, copied, transmitted, or stored only in accord with that
 written license.
  
 The following legend is applicable only to US Government
 contracts under FAR:
  
                    RESTRICTED RIGHTS LEGEND
  
 Use, reproduction and disclosure by the US Government is
 subject to restrictions as set forth in subparagraphs (a)
 and (c) of the Commercial Computer Software - Restricted
 Rights clause in FAR 52.227-19.
  
 Gaussian, Inc.
 340 Quinnipiac St., Bldg. 40, Wallingford CT 06492
  
  
 ---------------------------------------------------------------
 Warning -- This program may not be used in any manner that
 competes with the business of Gaussian, Inc. or will provide
 assistance to any competitor of Gaussian, Inc.  The licensee
 of this program is prohibited from giving any competitor of
 Gaussian, Inc. access to this program.  By using this program,
 the user acknowledges that Gaussian, Inc. is engaged in the
 business of creating and licensing software in the field of
 computational chemistry and represents and warrants to the
 licensee that it is not a competitor of Gaussian, Inc. and that
 it will not use this program in any manner prohibited above.
 ---------------------------------------------------------------
  

 Cite this work as:
 Gaussian 16, Revision C.01,
 M. J. Frisch, G. W. Trucks, H. B. Schlegel, G. E. Scuseria, 
 M. A. Robb, J. R. Cheeseman, G. Scalmani, V. Barone, 
 G. A. Petersson, H. Nakatsuji, X. Li, M. Caricato, A. V. Marenich, 
 J. Bloino, B. G. Janesko, R. Gomperts, B. Mennucci, H. P. Hratchian, 
 J. V. Ortiz, A. F. Izmaylov, J. L. Sonnenberg, D. Williams-Young, 
 F. Ding, F. Lipparini, F. Egidi, J. Goings, B. Peng, A. Petrone, 
 T. Henderson, D. Ranasinghe, V. G. Zakrzewski, J. Gao, N. Rega, 
 G. Zheng, W. Liang, M. Hada, M. Ehara, K. Toyota, R. Fukuda, 
 J. Hasegawa, M. Ishida, T. Nakajima, Y. Honda, O. Kitao, H. Nakai, 
 T. Vreven, K. Throssell, J. A. Montgomery, Jr., J. E. Peralta, 
 F. Ogliaro, M. J. Bearpark, J. J. Heyd, E. N. Brothers, K. N. Kudin, 
 V. N. Staroverov, T. A. Keith, R. Kobayashi, J. Normand, 
 K. Raghavachari, A. P. Rendell, J. C. Burant, S. S. Iyengar, 
 J. Tomasi, M. Cossi, J. M. Millam, M. Klene, C. Adamo, R. Cammi, 
 J. W. Ochterski, R. L. Martin, K. Morokuma, O. Farkas, 
 J. B. Foresman, and D. J. Fox, Gaussian, Inc., Wallingford CT, 2019.
 
 ******************************************
 Gaussian 16:  ES64L-G16RevC.01  3-Jul-2019
                24-May-2025 
 ******************************************
 %mem=28GB
 %nprocshared=8
 Will use up to    8 processors via shared memory.
 ----------------------------------------------------------------------
 #P M062X/Def2TZVPP Symm(None) scf(xqc) pop(None) opt(NoFreeze,TS,CalcA
 ll,NoEigentest,MaxCycle=999)
 ----------------------------------------------------------------------
 1/5=1,6=999,10=4,11=1,18=20,26=3,29=2000,38=1/1,3;
 2/9=110,12=2,15=3,17=6,18=5,40=1/2;
 3/5=44,7=202,11=2,25=1,30=1,71=2,74=-55,140=1/1,2,3;
 4//1;
 5/5=2,8=3,13=1,38=5/2,8;
 8/6=4,10=90,11=11/1;
 11/6=1,8=1,9=11,15=111,16=1,31=1/1,2,10;
 10/6=1,31=1/2;
 7/10=1,25=1,30=1/1,2,3,16;
 1/5=1,6=999,10=4,11=1,18=20,26=3/3(3);
 2/9=110,15=3/2;
 7/8=1,9=1,25=1,30=1,44=-1/16;
 99//99;
 2/9=110,15=3/2;
 3/5=44,7=202,11=2,25=1,30=1,71=2,74=-55,140=1/1,2,3;
 4/5=5,16=3,69=1/1;
 5/5=2,8=3,13=1,38=5/2,8;
 8/6=4,10=90,11=11/1;
 11/6=1,8=1,9=11,15=111,16=1,31=1/1,2,10;
 10/6=1,31=1/2;
 7/10=1,25=1,30=1/1,2,3,16;
 1/5=1,6=999,10=4,11=1,18=20,26=3/3(-8);
 2/9=110,15=3/2;
 7/8=1,9=1,25=1,30=1,44=-1/16;
 99//99;
 Leave Link    1 at Sat May 24 04:42:11 2025, MaxMem=  3758096384 cpu:               0.0 elap:               0.0
 (Enter /apps/easybuild-2022/easybuild/software/Compiler/NVHPC/22.11-CUDA-11.7.0/Gaussian/g16c01-CUDA-11.7.0/g16/l101.exe)
 ------------------------------
 Gaussian input prepared by ASE
 ------------------------------
 Symbolic Z-matrix:
 Charge =  0 Multiplicity = 1
 C                     1.73396   0.        0. 
 O                     1.86071  -1.25621  -0.00018 
 C                     0.        0.        0. 
 C                     0.26553  -1.51198  -0.00019 
 F                    -1.6591   -0.7849   -0.0001 
 F                     0.06045  -2.186    -1.08001 
 F                     0.06049  -2.18623   1.0795 
 F                    -0.28323   0.6337    1.12023 
 F                    -0.28325   0.63394  -1.12008 
 O                     2.75009   0.78197   0. 
 H                     2.76529   1.36277   0.7815 
 
 Add virtual bond connecting atoms F5         and C3         Dist= 3.47D+00.
 ITRead=  0  0  0  0  0  0  0  0  0  0  0
 MicOpt= -1 -1 -1 -1 -1 -1 -1 -1 -1 -1 -1
 NAtoms=     11 NQM=       11 NQMF=       0 NMMI=      0 NMMIF=      0
                NMic=       0 NMicF=      0.
                    Isotopes and Nuclear Properties:
 (Nuclear quadrupole moments (NQMom) in fm**2, nuclear magnetic moments (NMagM)
  in nuclear magnetons)

  Atom         1           2           3           4           5           6           7           8           9          10
 IAtWgt=          12          16          12          12          19          19          19          19          19          16
 AtmWgt=  12.0000000  15.9949146  12.0000000  12.0000000  18.9984032  18.9984032  18.9984032  18.9984032  18.9984032  15.9949146
 NucSpn=           0           0           0           0           1           1           1           1           1           0
 AtZEff=  -0.0000000  -0.0000000  -0.0000000  -0.0000000  -0.0000000  -0.0000000  -0.0000000  -0.0000000  -0.0000000  -0.0000000
 NQMom=    0.0000000   0.0000000   0.0000000   0.0000000   0.0000000   0.0000000   0.0000000   0.0000000   0.0000000   0.0000000
 NMagM=    0.0000000   0.0000000   0.0000000   0.0000000   2.6288670   2.6288670   2.6288670   2.6288670   2.6288670   0.0000000
 AtZNuc=   6.0000000   8.0000000   6.0000000   6.0000000   9.0000000   9.0000000   9.0000000   9.0000000   9.0000000   8.0000000

  Atom        11
 IAtWgt=           1
 AtmWgt=   1.0078250
 NucSpn=           1
 AtZEff=  -0.0000000
 NQMom=    0.0000000
 NMagM=    2.7928460
 AtZNuc=   1.0000000
 Leave Link  101 at Sat May 24 04:42:11 2025, MaxMem=  3758096384 cpu:               0.2 elap:               0.2
 (Enter /apps/easybuild-2022/easybuild/software/Compiler/NVHPC/22.11-CUDA-11.7.0/Gaussian/g16c01-CUDA-11.7.0/g16/l103.exe)

 GradGradGradGradGradGradGradGradGradGradGradGradGradGradGradGradGradGrad
 Berny optimization.
 Initialization pass.
                           ----------------------------
                           !    Initial Parameters    !
                           ! (Angstroms and Degrees)  !
 --------------------------                            --------------------------
 ! Name  Definition              Value          Derivative Info.                !
 --------------------------------------------------------------------------------
 ! R1    R(1,2)                  1.2626         calculate D2E/DX2 analytically  !
 ! R2    R(1,3)                  1.734          calculate D2E/DX2 analytically  !
 ! R3    R(1,10)                 1.2822         calculate D2E/DX2 analytically  !
 ! R4    R(2,4)                  1.6155         calculate D2E/DX2 analytically  !
 ! R5    R(3,4)                  1.5351         calculate D2E/DX2 analytically  !
 ! R6    R(3,5)                  1.8354         calculate D2E/DX2 analytically  !
 ! R7    R(3,8)                  1.3178         calculate D2E/DX2 analytically  !
 ! R8    R(3,9)                  1.3178         calculate D2E/DX2 analytically  !
 ! R9    R(4,6)                  1.2893         calculate D2E/DX2 analytically  !
 ! R10   R(4,7)                  1.2893         calculate D2E/DX2 analytically  !
 ! R11   R(10,11)                0.9738         calculate D2E/DX2 analytically  !
 ! A1    A(2,1,3)               95.7614         calculate D2E/DX2 analytically  !
 ! A2    A(2,1,10)             121.8189         calculate D2E/DX2 analytically  !
 ! A3    A(3,1,10)             142.4198         calculate D2E/DX2 analytically  !
 ! A4    A(1,2,4)               93.3478         calculate D2E/DX2 analytically  !
 ! A5    A(1,3,4)               80.0393         calculate D2E/DX2 analytically  !
 ! A6    A(1,3,5)              154.6818         calculate D2E/DX2 analytically  !
 ! A7    A(1,3,8)              102.4108         calculate D2E/DX2 analytically  !
 ! A8    A(1,3,9)              102.4116         calculate D2E/DX2 analytically  !
 ! A9    A(4,3,5)               74.6425         calculate D2E/DX2 analytically  !
 ! A10   A(4,3,8)              120.7234         calculate D2E/DX2 analytically  !
 ! A11   A(4,3,9)              120.722          calculate D2E/DX2 analytically  !
 ! A12   A(5,3,8)               90.6537         calculate D2E/DX2 analytically  !
 ! A13   A(5,3,9)               90.6522         calculate D2E/DX2 analytically  !
 ! A14   A(8,3,9)              116.4217         calculate D2E/DX2 analytically  !
 ! A15   A(2,4,3)               90.8515         calculate D2E/DX2 analytically  !
 ! A16   A(2,4,6)              103.8759         calculate D2E/DX2 analytically  !
 ! A17   A(2,4,7)              103.8754         calculate D2E/DX2 analytically  !
 ! A18   A(3,4,6)              119.175          calculate D2E/DX2 analytically  !
 ! A19   A(3,4,7)              119.1735         calculate D2E/DX2 analytically  !
 ! A20   A(6,4,7)              113.7438         calculate D2E/DX2 analytically  !
 ! A21   A(1,10,11)            112.0932         calculate D2E/DX2 analytically  !
 ! D1    D(3,1,2,4)             -0.0012         calculate D2E/DX2 analytically  !
 ! D2    D(10,1,2,4)          -179.9952         calculate D2E/DX2 analytically  !
 ! D3    D(2,1,3,4)              0.0013         calculate D2E/DX2 analytically  !
 ! D4    D(2,1,3,5)              0.001          calculate D2E/DX2 analytically  !
 ! D5    D(2,1,3,8)            119.5048         calculate D2E/DX2 analytically  !
 ! D6    D(2,1,3,9)           -119.5008         calculate D2E/DX2 analytically  !
 ! D7    D(10,1,3,4)           179.993          calculate D2E/DX2 analytically  !
 ! D8    D(10,1,3,5)           179.9927         calculate D2E/DX2 analytically  !
 ! D9    D(10,1,3,8)           -60.5035         calculate D2E/DX2 analytically  !
 ! D10   D(10,1,3,9)            60.4909         calculate D2E/DX2 analytically  !
 ! D11   D(2,1,10,11)         -119.9998         calculate D2E/DX2 analytically  !
 ! D12   D(3,1,10,11)           60.0099         calculate D2E/DX2 analytically  !
 ! D13   D(1,2,4,3)              0.0013         calculate D2E/DX2 analytically  !
 ! D14   D(1,2,4,6)            120.3897         calculate D2E/DX2 analytically  !
 ! D15   D(1,2,4,7)           -120.3854         calculate D2E/DX2 analytically  !
 ! D16   D(1,3,4,2)             -0.001          calculate D2E/DX2 analytically  !
 ! D17   D(1,3,4,6)           -106.4399         calculate D2E/DX2 analytically  !
 ! D18   D(1,3,4,7)            106.4371         calculate D2E/DX2 analytically  !
 ! D19   D(5,3,4,2)            179.9989         calculate D2E/DX2 analytically  !
 ! D20   D(5,3,4,6)             73.56           calculate D2E/DX2 analytically  !
 ! D21   D(5,3,4,7)            -73.563          calculate D2E/DX2 analytically  !
 ! D22   D(8,3,4,2)            -98.5969         calculate D2E/DX2 analytically  !
 ! D23   D(8,3,4,6)            154.9642         calculate D2E/DX2 analytically  !
 ! D24   D(8,3,4,7)              7.8412         calculate D2E/DX2 analytically  !
 ! D25   D(9,3,4,2)             98.596          calculate D2E/DX2 analytically  !
 ! D26   D(9,3,4,6)             -7.8429         calculate D2E/DX2 analytically  !
 ! D27   D(9,3,4,7)           -154.9659         calculate D2E/DX2 analytically  !
 --------------------------------------------------------------------------------
 Trust Radius=3.00D-01 FncErr=1.00D-07 GrdErr=1.00D-06 EigMax=2.50D+02 EigMin=1.00D-04
 Number of steps in this run=    100 maximum allowed number of steps=    100.
 Search for a saddle point of order  1.
 GradGradGradGradGradGradGradGradGradGradGradGradGradGradGradGradGradGrad

 Leave Link  103 at Sat May 24 04:42:11 2025, MaxMem=  3758096384 cpu:               0.0 elap:               0.0
 (Enter /apps/easybuild-2022/easybuild/software/Compiler/NVHPC/22.11-CUDA-11.7.0/Gaussian/g16c01-CUDA-11.7.0/g16/l202.exe)
                          Input orientation:                          
 ---------------------------------------------------------------------
 Center     Atomic      Atomic             Coordinates (Angstroms)
 Number     Number       Type             X           Y           Z
 ---------------------------------------------------------------------
      1          6           0        1.733960    0.000000    0.000000
      2          8           0        1.860705   -1.256208   -0.000182
      3          6           0        0.000000    0.000000    0.000000
      4          6           0        0.265532   -1.511976   -0.000185
      5          9           0       -1.659104   -0.784900   -0.000099
      6          9           0        0.060450   -2.186004   -1.080010
      7          9           0        0.060492   -2.186226    1.079497
      8          9           0       -0.283230    0.633702    1.120226
      9          9           0       -0.283247    0.633944   -1.120079
     10          8           0        2.750090    0.781967    0.000000
     11          1           0        2.765290    1.362774    0.781498
 ---------------------------------------------------------------------
                    Distance matrix (angstroms):
                    1          2          3          4          5
     1  C    0.000000
     2  O    1.262586   0.000000
     3  C    1.733960   2.245057   0.000000
     4  C    2.107689   1.615548   1.535115   0.000000
     5  F    3.482664   3.551224   1.835400   2.057393   0.000000
     6  F    2.957308   2.295968   2.438994   1.289339   2.467015
     7  F    2.957260   2.295954   2.438966   1.289328   2.467034
     8  F    2.392810   3.069777   1.317840   2.482015   2.271693
     9  F    2.392820   3.069752   1.317836   2.481994   2.271663
    10  O    1.282183   2.223772   2.859102   3.381597   4.679323
    11  H    1.879238   2.878952   3.180365   3.888959   4.979825
                    6          7          8          9         10
     6  F    0.000000
     7  F    2.159507   0.000000
     8  F    3.593034   2.841091   0.000000
     9  F    2.841099   3.593000   2.240305   0.000000
    10  O    4.148426   4.148423   3.236961   3.236915   0.000000
    11  H    4.834790   4.472150   3.152738   3.666165   0.973811
                   11
    11  H    0.000000
 Symmetry turned off by external request.
 Stoichiometry    C3HF5O2
 Rotational constants (GHZ):           1.8230676           1.3438795           1.0794951
 Leave Link  202 at Sat May 24 04:42:11 2025, MaxMem=  3758096384 cpu:               0.0 elap:               0.0
 (Enter /apps/easybuild-2022/easybuild/software/Compiler/NVHPC/22.11-CUDA-11.7.0/Gaussian/g16c01-CUDA-11.7.0/g16/l301.exe)
 Standard basis: def2TZVPP (5D, 7F)
 Ernie: Thresh=  0.10000D-02 Tol=  0.10000D-05 Strict=F.
   324 basis functions,   527 primitive gaussians,   375 cartesian basis functions
    40 alpha electrons       40 beta electrons
       nuclear repulsion energy       645.4830840022 Hartrees.
 IExCor= 4336 DFT=T Ex+Corr=M062X ExCW=0 ScaHFX=  0.540000
 ScaDFX=  1.000000  1.000000  1.000000  1.000000 ScalE2=  1.000000  1.000000
 IRadAn=      5 IRanWt=     -1 IRanGd=            0 ICorTp=0 IEmpDi=  4
 NAtoms=   11 NActive=   11 NUniq=   11 SFac= 1.00D+00 NAtFMM=   60 NAOKFM=F Big=F
 Integral buffers will be    131072 words long.
 Raffenetti 2 integral format.
 Two-electron integral symmetry is turned off.
 Leave Link  301 at Sat May 24 04:42:11 2025, MaxMem=  3758096384 cpu:               0.0 elap:               0.0
 (Enter /apps/easybuild-2022/easybuild/software/Compiler/NVHPC/22.11-CUDA-11.7.0/Gaussian/g16c01-CUDA-11.7.0/g16/l302.exe)
 NPDir=0 NMtPBC=     1 NCelOv=     1 NCel=       1 NClECP=     1 NCelD=      1
         NCelK=      1 NCelE2=     1 NClLst=     1 CellRange=     0.0.
 One-electron integrals computed using PRISM.
   1 Symmetry operations used in ECPInt.
 ECPInt:  NShTT=    6786 NPrTT=   21959 LenC2=    6485 LenP2D=   16016.
 LDataN:  DoStor=T MaxTD1= 6 Len=  172
 NBasis=   324 RedAO= T EigKep=  1.47D-04  NBF=   324
 NBsUse=   324 1.00D-06 EigRej= -1.00D+00 NBFU=   324
 Precomputing XC quadrature grid using
 IXCGrd= 4 IRadAn=           5 IRanWt=          -1 IRanGd=           0 AccXCQ= 0.00D+00.
 Generated NRdTot=       0 NPtTot=           0 NUsed=           0 NTot=          32
 NSgBfM=   373   373   373   373   373 MxSgAt=    11 MxSgA2=    11.
 Leave Link  302 at Sat May 24 04:42:11 2025, MaxMem=  3758096384 cpu:               0.6 elap:               0.1
 (Enter /apps/easybuild-2022/easybuild/software/Compiler/NVHPC/22.11-CUDA-11.7.0/Gaussian/g16c01-CUDA-11.7.0/g16/l303.exe)
 DipDrv:  MaxL=1.
 Leave Link  303 at Sat May 24 04:42:11 2025, MaxMem=  3758096384 cpu:               0.1 elap:               0.0
 (Enter /apps/easybuild-2022/easybuild/software/Compiler/NVHPC/22.11-CUDA-11.7.0/Gaussian/g16c01-CUDA-11.7.0/g16/l401.exe)
 ExpMin= 9.52D-02 ExpMax= 3.55D+04 ExpMxC= 1.21D+03 IAcc=3 IRadAn=         5 AccDes= 0.00D+00
 Harris functional with IExCor= 1009 and IRadAn=       5 diagonalized for initial guess.
 HarFok:  IExCor= 1009 AccDes= 0.00D+00 IRadAn=         5 IDoV= 1 UseB2=F ITyADJ=14
 ICtDFT=  3500011 ScaDFX=  1.000000  1.000000  1.000000  1.000000
 FoFCou: FMM=F IPFlag=           0 FMFlag=      100000 FMFlg1=           0
         NFxFlg=           0 DoJE=T BraDBF=F KetDBF=T FulRan=T
         wScrn=  0.000000 ICntrl=       500 IOpCl=  0 I1Cent=   200000004 NGrid=           0
         NMat0=    1 NMatS0=      1 NMatT0=    0 NMatD0=    1 NMtDS0=    0 NMtDT0=    0
 Symmetry not used in FoFCou.
 Harris En= -764.064874459547    
 JPrj=0 DoOrth=F DoCkMO=F.
 Leave Link  401 at Sat May 24 04:42:12 2025, MaxMem=  3758096384 cpu:               3.5 elap:               0.5
 (Enter /apps/easybuild-2022/easybuild/software/Compiler/NVHPC/22.11-CUDA-11.7.0/Gaussian/g16c01-CUDA-11.7.0/g16/l502.exe)
 Keep R1 ints in memory in canonical form, NReq=1412617152.
 FoFCou: FMM=F IPFlag=           0 FMFlag=           0 FMFlg1=           0
         NFxFlg=           0 DoJE=F BraDBF=F KetDBF=F FulRan=T
         wScrn=  0.000000 ICntrl=       600 IOpCl=  0 I1Cent=           0 NGrid=           0
         NMat0=    1 NMatS0=  52650 NMatT0=    0 NMatD0=    1 NMtDS0=    0 NMtDT0=    0
 Symmetry not used in FoFCou.
 Two-electron integral symmetry not used.
 Closed shell SCF:
 Using DIIS extrapolation, IDIIS=  1040.
 NGot=  3758096384 LenX=  2371771902 LenY=  2371630836
 Requested convergence on RMS density matrix=1.00D-08 within  32 cycles.
 Requested convergence on MAX density matrix=1.00D-06.
 Requested convergence on             energy=1.00D-06.
 No special actions if energy rises.
 Integral accuracy reduced to 1.0D-05 until final iterations.

 Cycle   1  Pass 0  IDiag  1:
 E= -764.278016206858    
 DIIS: error= 3.25D-02 at cycle   1 NSaved=   1.
 NSaved= 1 IEnMin= 1 EnMin= -764.278016206858     IErMin= 1 ErrMin= 3.25D-02
 ErrMax= 3.25D-02  0.00D+00 EMaxC= 1.00D-01 BMatC= 3.81D-01 BMatP= 3.81D-01
 IDIUse=3 WtCom= 6.75D-01 WtEn= 3.25D-01
 Coeff-Com:  0.100D+01
 Coeff-En:   0.100D+01
 Coeff:      0.100D+01
 Gap=     0.301 Goal=   None    Shift=    0.000
 GapD=    0.301 DampG=1.000 DampE=0.500 DampFc=0.5000 IDamp=-1.
 Damping current iteration by 5.00D-01
 RMSDP=3.41D-03 MaxDP=2.30D-01              OVMax= 3.22D-01

 Cycle   2  Pass 0  IDiag  1:
 E= -764.331084082302     Delta-E=       -0.053067875444 Rises=F Damp=T
 DIIS: error= 1.00D-02 at cycle   2 NSaved=   2.
 NSaved= 2 IEnMin= 2 EnMin= -764.331084082302     IErMin= 2 ErrMin= 1.00D-02
 ErrMax= 1.00D-02  0.00D+00 EMaxC= 1.00D-01 BMatC= 5.35D-02 BMatP= 3.81D-01
 IDIUse=3 WtCom= 9.00D-01 WtEn= 1.00D-01
 Coeff-Com:  0.133D+00 0.867D+00
 Coeff-En:   0.335D+00 0.665D+00
 Coeff:      0.153D+00 0.847D+00
 Gap=     0.354 Goal=   None    Shift=    0.000
 RMSDP=1.06D-03 MaxDP=1.03D-01 DE=-5.31D-02 OVMax= 1.71D-01

 Cycle   3  Pass 0  IDiag  1:
 E= -764.465347804875     Delta-E=       -0.134263722573 Rises=F Damp=F
 DIIS: error= 8.77D-03 at cycle   3 NSaved=   3.
 NSaved= 3 IEnMin= 3 EnMin= -764.465347804875     IErMin= 3 ErrMin= 8.77D-03
 ErrMax= 8.77D-03  0.00D+00 EMaxC= 1.00D-01 BMatC= 1.48D-02 BMatP= 5.35D-02
 IDIUse=3 WtCom= 9.12D-01 WtEn= 8.77D-02
 Coeff-Com: -0.604D-01 0.300D+00 0.760D+00
 Coeff-En:   0.000D+00 0.000D+00 0.100D+01
 Coeff:     -0.551D-01 0.274D+00 0.781D+00
 Gap=     0.286 Goal=   None    Shift=    0.000
 RMSDP=3.95D-04 MaxDP=1.78D-02 DE=-1.34D-01 OVMax= 4.57D-02

 Cycle   4  Pass 0  IDiag  1:
 E= -764.472773658348     Delta-E=       -0.007425853473 Rises=F Damp=F
 DIIS: error= 3.23D-03 at cycle   4 NSaved=   4.
 NSaved= 4 IEnMin= 4 EnMin= -764.472773658348     IErMin= 4 ErrMin= 3.23D-03
 ErrMax= 3.23D-03  0.00D+00 EMaxC= 1.00D-01 BMatC= 4.02D-03 BMatP= 1.48D-02
 IDIUse=3 WtCom= 9.68D-01 WtEn= 3.23D-02
 Coeff-Com: -0.452D-01 0.834D-01 0.412D+00 0.550D+00
 Coeff-En:   0.000D+00 0.000D+00 0.131D+00 0.869D+00
 Coeff:     -0.438D-01 0.807D-01 0.403D+00 0.560D+00
 Gap=     0.293 Goal=   None    Shift=    0.000
 RMSDP=1.29D-04 MaxDP=5.12D-03 DE=-7.43D-03 OVMax= 1.21D-02

 Cycle   5  Pass 0  IDiag  1:
 E= -764.474993599772     Delta-E=       -0.002219941424 Rises=F Damp=F
 DIIS: error= 6.37D-04 at cycle   5 NSaved=   5.
 NSaved= 5 IEnMin= 5 EnMin= -764.474993599772     IErMin= 5 ErrMin= 6.37D-04
 ErrMax= 6.37D-04  0.00D+00 EMaxC= 1.00D-01 BMatC= 1.13D-04 BMatP= 4.02D-03
 IDIUse=3 WtCom= 9.94D-01 WtEn= 6.37D-03
 Coeff-Com: -0.128D-01 0.182D-01 0.102D+00 0.215D+00 0.678D+00
 Coeff-En:   0.000D+00 0.000D+00 0.000D+00 0.000D+00 0.100D+01
 Coeff:     -0.128D-01 0.181D-01 0.101D+00 0.213D+00 0.680D+00
 Gap=     0.290 Goal=   None    Shift=    0.000
 RMSDP=2.98D-05 MaxDP=1.31D-03 DE=-2.22D-03 OVMax= 2.06D-03

 Cycle   6  Pass 0  IDiag  1:
 E= -764.475070778254     Delta-E=       -0.000077178482 Rises=F Damp=F
 DIIS: error= 1.05D-04 at cycle   6 NSaved=   6.
 NSaved= 6 IEnMin= 6 EnMin= -764.475070778254     IErMin= 6 ErrMin= 1.05D-04
 ErrMax= 1.05D-04  0.00D+00 EMaxC= 1.00D-01 BMatC= 1.11D-05 BMatP= 1.13D-04
 IDIUse=3 WtCom= 9.99D-01 WtEn= 1.05D-03
 Coeff-Com: -0.713D-03-0.727D-03-0.796D-02 0.159D-01 0.255D+00 0.739D+00
 Coeff-En:   0.000D+00 0.000D+00 0.000D+00 0.000D+00 0.000D+00 0.100D+01
 Coeff:     -0.712D-03-0.726D-03-0.795D-02 0.158D-01 0.254D+00 0.739D+00
 Gap=     0.290 Goal=   None    Shift=    0.000
 RMSDP=9.59D-06 MaxDP=4.55D-04 DE=-7.72D-05 OVMax= 9.91D-04

 Initial convergence to 1.0D-05 achieved.  Increase integral accuracy.
 Cycle   7  Pass 1  IDiag  1:
 E= -764.475087692980     Delta-E=       -0.000016914726 Rises=F Damp=F
 DIIS: error= 5.14D-05 at cycle   1 NSaved=   1.
 NSaved= 1 IEnMin= 1 EnMin= -764.475087692980     IErMin= 1 ErrMin= 5.14D-05
 ErrMax= 5.14D-05  0.00D+00 EMaxC= 1.00D-01 BMatC= 3.36D-06 BMatP= 3.36D-06
 IDIUse=1 WtCom= 1.00D+00 WtEn= 0.00D+00
 Coeff-Com:  0.100D+01
 Coeff:      0.100D+01
 Gap=     0.290 Goal=   None    Shift=    0.000
 RMSDP=9.59D-06 MaxDP=4.55D-04 DE=-1.69D-05 OVMax= 8.72D-04

 Cycle   8  Pass 1  IDiag  1:
 E= -764.475086248051     Delta-E=        0.000001444929 Rises=F Damp=F
 DIIS: error= 7.43D-05 at cycle   2 NSaved=   2.
 NSaved= 2 IEnMin= 1 EnMin= -764.475087692980     IErMin= 1 ErrMin= 5.14D-05
 ErrMax= 7.43D-05  0.00D+00 EMaxC= 1.00D-01 BMatC= 5.96D-06 BMatP= 3.36D-06
 IDIUse=1 WtCom= 1.00D+00 WtEn= 0.00D+00
 Coeff-Com:  0.575D+00 0.425D+00
 Coeff:      0.575D+00 0.425D+00
 Gap=     0.290 Goal=   None    Shift=    0.000
 RMSDP=4.27D-06 MaxDP=2.55D-04 DE= 1.44D-06 OVMax= 5.82D-04

 Cycle   9  Pass 1  IDiag  1:
 E= -764.475090209586     Delta-E=       -0.000003961535 Rises=F Damp=F
 DIIS: error= 7.02D-06 at cycle   3 NSaved=   3.
 NSaved= 3 IEnMin= 3 EnMin= -764.475090209586     IErMin= 3 ErrMin= 7.02D-06
 ErrMax= 7.02D-06  0.00D+00 EMaxC= 1.00D-01 BMatC= 5.94D-08 BMatP= 3.36D-06
 IDIUse=1 WtCom= 1.00D+00 WtEn= 0.00D+00
 Coeff-Com:  0.251D-01 0.834D-01 0.892D+00
 Coeff:      0.251D-01 0.834D-01 0.892D+00
 Gap=     0.290 Goal=   None    Shift=    0.000
 RMSDP=9.92D-07 MaxDP=3.41D-05 DE=-3.96D-06 OVMax= 7.52D-05

 Cycle  10  Pass 1  IDiag  1:
 E= -764.475090255197     Delta-E=       -0.000000045612 Rises=F Damp=F
 DIIS: error= 4.69D-06 at cycle   4 NSaved=   4.
 NSaved= 4 IEnMin= 4 EnMin= -764.475090255197     IErMin= 4 ErrMin= 4.69D-06
 ErrMax= 4.69D-06  0.00D+00 EMaxC= 1.00D-01 BMatC= 2.24D-08 BMatP= 5.94D-08
 IDIUse=1 WtCom= 1.00D+00 WtEn= 0.00D+00
 Coeff-Com: -0.472D-01 0.192D-02 0.465D+00 0.580D+00
 Coeff:     -0.472D-01 0.192D-02 0.465D+00 0.580D+00
 Gap=     0.290 Goal=   None    Shift=    0.000
 RMSDP=3.83D-07 MaxDP=1.17D-05 DE=-4.56D-08 OVMax= 2.82D-05

 Cycle  11  Pass 1  IDiag  1:
 E= -764.475090272444     Delta-E=       -0.000000017246 Rises=F Damp=F
 DIIS: error= 9.35D-07 at cycle   5 NSaved=   5.
 NSaved= 5 IEnMin= 5 EnMin= -764.475090272444     IErMin= 5 ErrMin= 9.35D-07
 ErrMax= 9.35D-07  0.00D+00 EMaxC= 1.00D-01 BMatC= 1.13D-09 BMatP= 2.24D-08
 IDIUse=1 WtCom= 1.00D+00 WtEn= 0.00D+00
 Coeff-Com: -0.186D-01-0.863D-02 0.424D-01 0.169D+00 0.816D+00
 Coeff:     -0.186D-01-0.863D-02 0.424D-01 0.169D+00 0.816D+00
 Gap=     0.290 Goal=   None    Shift=    0.000
 RMSDP=1.48D-07 MaxDP=4.58D-06 DE=-1.72D-08 OVMax= 1.78D-05

 Cycle  12  Pass 1  IDiag  1:
 E= -764.475090273881     Delta-E=       -0.000000001437 Rises=F Damp=F
 DIIS: error= 3.71D-07 at cycle   6 NSaved=   6.
 NSaved= 6 IEnMin= 6 EnMin= -764.475090273881     IErMin= 6 ErrMin= 3.71D-07
 ErrMax= 3.71D-07  0.00D+00 EMaxC= 1.00D-01 BMatC= 1.57D-10 BMatP= 1.13D-09
 IDIUse=1 WtCom= 1.00D+00 WtEn= 0.00D+00
 Coeff-Com:  0.300D-02-0.301D-02-0.711D-01-0.518D-01 0.228D+00 0.895D+00
 Coeff:      0.300D-02-0.301D-02-0.711D-01-0.518D-01 0.228D+00 0.895D+00
 Gap=     0.290 Goal=   None    Shift=    0.000
 RMSDP=7.17D-08 MaxDP=2.22D-06 DE=-1.44D-09 OVMax= 9.80D-06

 Cycle  13  Pass 1  IDiag  1:
 E= -764.475090274097     Delta-E=       -0.000000000217 Rises=F Damp=F
 DIIS: error= 2.02D-07 at cycle   7 NSaved=   7.
 NSaved= 7 IEnMin= 7 EnMin= -764.475090274097     IErMin= 7 ErrMin= 2.02D-07
 ErrMax= 2.02D-07  0.00D+00 EMaxC= 1.00D-01 BMatC= 1.47D-11 BMatP= 1.57D-10
 IDIUse=1 WtCom= 1.00D+00 WtEn= 0.00D+00
 Coeff-Com:  0.193D-02-0.706D-03-0.279D-01-0.243D-01 0.393D-01 0.315D+00
 Coeff-Com:  0.697D+00
 Coeff:      0.193D-02-0.706D-03-0.279D-01-0.243D-01 0.393D-01 0.315D+00
 Coeff:      0.697D+00
 Gap=     0.290 Goal=   None    Shift=    0.000
 RMSDP=1.41D-08 MaxDP=5.35D-07 DE=-2.17D-10 OVMax= 1.85D-06

 Cycle  14  Pass 1  IDiag  1:
 E= -764.475090274069     Delta-E=        0.000000000029 Rises=F Damp=F
 DIIS: error= 9.49D-08 at cycle   8 NSaved=   8.
 NSaved= 8 IEnMin= 7 EnMin= -764.475090274097     IErMin= 8 ErrMin= 9.49D-08
 ErrMax= 9.49D-08  0.00D+00 EMaxC= 1.00D-01 BMatC= 2.97D-12 BMatP= 1.47D-11
 IDIUse=1 WtCom= 1.00D+00 WtEn= 0.00D+00
 Coeff-Com:  0.129D-03 0.335D-03 0.370D-02 0.198D-02-0.323D-01-0.594D-01
 Coeff-Com:  0.284D+00 0.802D+00
 Coeff:      0.129D-03 0.335D-03 0.370D-02 0.198D-02-0.323D-01-0.594D-01
 Coeff:      0.284D+00 0.802D+00
 Gap=     0.290 Goal=   None    Shift=    0.000
 RMSDP=7.28D-09 MaxDP=3.18D-07 DE= 2.89D-11 OVMax= 8.08D-07

 SCF Done:  E(RM062X) =  -764.475090274     A.U. after   14 cycles
            NFock= 14  Conv=0.73D-08     -V/T= 2.0036
 KE= 7.617160094344D+02 PE=-3.103495838076D+03 EE= 9.318216543648D+02
 Leave Link  502 at Sat May 24 04:42:38 2025, MaxMem=  3758096384 cpu:             115.5 elap:              26.4
 (Enter /apps/easybuild-2022/easybuild/software/Compiler/NVHPC/22.11-CUDA-11.7.0/Gaussian/g16c01-CUDA-11.7.0/g16/l508.exe)
 QCSCF skips out because SCF is already converged.
 Leave Link  508 at Sat May 24 04:42:38 2025, MaxMem=  3758096384 cpu:               0.0 elap:               0.0
 (Enter /apps/easybuild-2022/easybuild/software/Compiler/NVHPC/22.11-CUDA-11.7.0/Gaussian/g16c01-CUDA-11.7.0/g16/l801.exe)
 DoSCS=F DFT=T ScalE2(SS,OS)=  1.000000  1.000000
 Range of M.O.s used for correlation:     1   324
 NBasis=   324 NAE=    40 NBE=    40 NFC=     0 NFV=     0
 NROrb=    324 NOA=    40 NOB=    40 NVA=   284 NVB=   284

 **** Warning!!: The largest alpha MO coefficient is  0.19407158D+02

 Leave Link  801 at Sat May 24 04:42:38 2025, MaxMem=  3758096384 cpu:               0.0 elap:               0.0
 (Enter /apps/easybuild-2022/easybuild/software/Compiler/NVHPC/22.11-CUDA-11.7.0/Gaussian/g16c01-CUDA-11.7.0/g16/l1101.exe)
 Using compressed storage, NAtomX=    11.
 Will process     12 centers per pass.
   1 Symmetry operations used in ECPInt.
 ECPInt:  NShTT=    6786 NPrTT=   21959 LenC2=    6485 LenP2D=   16016.
 LDataN:  DoStor=T MaxTD1= 7 Len=  274
 Leave Link 1101 at Sat May 24 04:42:38 2025, MaxMem=  3758096384 cpu:               0.9 elap:               0.2
 (Enter /apps/easybuild-2022/easybuild/software/Compiler/NVHPC/22.11-CUDA-11.7.0/Gaussian/g16c01-CUDA-11.7.0/g16/l1102.exe)
 Symmetrizing basis deriv contribution to polar:
 IMax=3 JMax=2 DiffMx= 0.00D+00
 Leave Link 1102 at Sat May 24 04:42:38 2025, MaxMem=  3758096384 cpu:               0.1 elap:               0.0
 (Enter /apps/easybuild-2022/easybuild/software/Compiler/NVHPC/22.11-CUDA-11.7.0/Gaussian/g16c01-CUDA-11.7.0/g16/l1110.exe)
 Forming Gx(P) for the SCF density, NAtomX=    11.
 Integral derivatives from FoFJK, PRISM(SPDF).
 Do as many integral derivatives as possible in FoFJK.
 G2DrvN: MDV=    3758095093.
 G2DrvN: will do    12 centers at a time, making    1 passes.
 Calling FoFCou, ICntrl=  3107 FMM=F I1Cent=   0 AccDes= 0.00D+00.
 FoFJK:  IHMeth= 1 ICntrl=    3107 DoSepK=F KAlg= 0 I1Cent=           0 FoldK=F
 IRaf=         0 NMat=       1 IRICut=       1 DoRegI=T DoRafI=F ISym2E= 0 IDoP0=0 IntGTp=1.
 FoFCou: FMM=F IPFlag=           0 FMFlag=      100000 FMFlg1=           0
         NFxFlg=           0 DoJE=F BraDBF=F KetDBF=F FulRan=T
         wScrn=  0.000000 ICntrl=      3107 IOpCl=  0 I1Cent=           0 NGrid=           0
         NMat0=    1 NMatS0=      1 NMatT0=    0 NMatD0=    1 NMtDS0=    0 NMtDT0=    0
 Symmetry not used in FoFCou.
 End of G2Drv F.D. properties file   721 does not exist.
 End of G2Drv F.D. properties file   722 does not exist.
 End of G2Drv F.D. properties file   788 does not exist.
 Leave Link 1110 at Sat May 24 04:43:19 2025, MaxMem=  3758096384 cpu:             319.2 elap:              40.2
 (Enter /apps/easybuild-2022/easybuild/software/Compiler/NVHPC/22.11-CUDA-11.7.0/Gaussian/g16c01-CUDA-11.7.0/g16/l1002.exe)
 Minotr:  Closed shell wavefunction.
          IDoAtm=11111111111
          Direct CPHF calculation.
          Differentiating once with respect to electric field.
                with respect to dipole field.
          Differentiating once with respect to nuclear coordinates.
          Requested convergence is 1.0D-08 RMS, and 1.0D-07 maximum.
          Secondary convergence is 1.0D-12 RMS, and 1.0D-12 maximum.
          NewPWx=T KeepS1=F KeepF1=F KeepIn=T MapXYZ=F SortEE=F KeepMc=T.
         3300 words used for storage of precomputed grid.
 Keep R1 ints in memory in canonical form, NReq=1412622552.
 FoFCou: FMM=F IPFlag=           0 FMFlag=           0 FMFlg1=           0
         NFxFlg=           0 DoJE=F BraDBF=F KetDBF=F FulRan=T
         wScrn=  0.000000 ICntrl=       600 IOpCl=  0 I1Cent=           0 NGrid=           0
         NMat0=    1 NMatS0=  52650 NMatT0=    0 NMatD0=    1 NMtDS0=    0 NMtDT0=    0
 Symmetry not used in FoFCou.
 Two-electron integral symmetry not used.
          MDV=    3758096384 using IRadAn=       1.
          Solving linear equations simultaneously, MaxMat=       0.
          There are    36 degrees of freedom in the 1st order CPHF.  IDoFFX=6 NUNeed=     3.
     33 vectors produced by pass  0 Test12= 3.16D-14 2.78D-09 XBig12= 2.84D+01 3.40D+00.
 AX will form    33 AO Fock derivatives at one time.
     33 vectors produced by pass  1 Test12= 3.16D-14 2.78D-09 XBig12= 4.35D+00 3.74D-01.
     33 vectors produced by pass  2 Test12= 3.16D-14 2.78D-09 XBig12= 1.88D-01 5.71D-02.
     33 vectors produced by pass  3 Test12= 3.16D-14 2.78D-09 XBig12= 3.61D-03 8.99D-03.
     33 vectors produced by pass  4 Test12= 3.16D-14 2.78D-09 XBig12= 6.58D-05 1.44D-03.
     33 vectors produced by pass  5 Test12= 3.16D-14 2.78D-09 XBig12= 6.71D-07 1.36D-04.
     33 vectors produced by pass  6 Test12= 3.16D-14 2.78D-09 XBig12= 3.97D-09 1.53D-05.
     15 vectors produced by pass  7 Test12= 3.16D-14 2.78D-09 XBig12= 1.73D-11 1.15D-06.
      3 vectors produced by pass  8 Test12= 3.16D-14 2.78D-09 XBig12= 8.54D-14 7.44D-08.
      1 vectors produced by pass  9 Test12= 3.16D-14 2.78D-09 XBig12= 4.42D-16 4.06D-09.
 InvSVY:  IOpt=1 It=  1 EMax= 2.66D-15
 Solved reduced A of dimension   250 with    36 vectors.
 FullF1:  Do perturbations      1 to       3.
 Isotropic polarizability for W=    0.000000       49.40 Bohr**3.
 End of Minotr F.D. properties file   721 does not exist.
 End of Minotr F.D. properties file   722 does not exist.
 End of Minotr F.D. properties file   788 does not exist.
 Leave Link 1002 at Sat May 24 04:44:21 2025, MaxMem=  3758096384 cpu:             484.5 elap:              62.4
 (Enter /apps/easybuild-2022/easybuild/software/Compiler/NVHPC/22.11-CUDA-11.7.0/Gaussian/g16c01-CUDA-11.7.0/g16/l701.exe)
 ... and contract with generalized density number  0.
 Compute integral second derivatives.
   1 Symmetry operations used in ECPInt.
 ECPInt:  NShTT=    6786 NPrTT=   21959 LenC2=    6485 LenP2D=   16016.
 LDataN:  DoStor=T MaxTD1= 8 Len=  415
 Leave Link  701 at Sat May 24 04:44:21 2025, MaxMem=  3758096384 cpu:               0.8 elap:               0.1
 (Enter /apps/easybuild-2022/easybuild/software/Compiler/NVHPC/22.11-CUDA-11.7.0/Gaussian/g16c01-CUDA-11.7.0/g16/l702.exe)
 L702 exits ... SP integral derivatives will be done elsewhere.
 Leave Link  702 at Sat May 24 04:44:21 2025, MaxMem=  3758096384 cpu:               0.0 elap:               0.0
 (Enter /apps/easybuild-2022/easybuild/software/Compiler/NVHPC/22.11-CUDA-11.7.0/Gaussian/g16c01-CUDA-11.7.0/g16/l703.exe)
 Integral derivatives from FoFJK, PRISM(SPDF).
 Compute integral second derivatives, UseDBF=F ICtDFT=           0.
 Calling FoFJK, ICntrl=    100127 FMM=F ISym2X=0 I1Cent= 0 IOpClX= 0 NMat=1 NMatS=1 NMatT=0.
 FoFJK:  IHMeth= 1 ICntrl=  100127 DoSepK=F KAlg= 0 I1Cent=           0 FoldK=F
 IRaf=         0 NMat=       1 IRICut=       1 DoRegI=T DoRafI=F ISym2E= 0 IDoP0=0 IntGTp=1.
 FoFCou: FMM=F IPFlag=           0 FMFlag=      100000 FMFlg1=         800
         NFxFlg=           0 DoJE=F BraDBF=F KetDBF=F FulRan=T
         wScrn=  0.000000 ICntrl=    100127 IOpCl=  0 I1Cent=           0 NGrid=           0
         NMat0=    1 NMatS0=      1 NMatT0=    0 NMatD0=    1 NMtDS0=    0 NMtDT0=    0
 Symmetry not used in FoFCou.
 Leave Link  703 at Sat May 24 04:45:55 2025, MaxMem=  3758096384 cpu:             749.4 elap:              94.2
 (Enter /apps/easybuild-2022/easybuild/software/Compiler/NVHPC/22.11-CUDA-11.7.0/Gaussian/g16c01-CUDA-11.7.0/g16/l716.exe)
 Dipole        = 2.69627363D+00 9.11261812D-01 5.36089960D-01
 Polarizability= 6.07035884D+01 8.08157245D+00 4.91659857D+01
                 8.61091593D-01 1.00222328D+00 3.83206860D+01
 -------------------------------------------------------------------
 Center     Atomic                   Forces (Hartrees/Bohr)
 Number     Number              X              Y              Z
 -------------------------------------------------------------------
      1        6          -0.027015653   -0.015548745    0.010008055
      2        8           0.003870001    0.011703060   -0.008165084
      3        6           0.010333688   -0.005899559   -0.001753417
      4        6          -0.002046775    0.000734836   -0.002116196
      5        9          -0.002457905    0.000140847    0.000366647
      6        9           0.000047151   -0.000173763    0.000028709
      7        9           0.001112689   -0.000288064    0.000417991
      8        9          -0.002393868    0.002984083    0.004350275
      9        9          -0.000838634    0.001356990   -0.001255209
     10        8           0.025307465   -0.000382861    0.009808838
     11        1          -0.005918159    0.005373174   -0.011690611
 -------------------------------------------------------------------
 Cartesian Forces:  Max     0.027015653 RMS     0.008575949
 Force constants in Cartesian coordinates: 
                1             2             3             4             5 
      1  0.645636D+00
      2  0.143841D+00  0.808747D+00
      3 -0.195136D-02  0.291879D-01  0.183872D+00
      4 -0.132261D+00  0.108584D+00  0.531572D-02  0.236055D+00
      5  0.131752D+00 -0.479921D+00 -0.670523D-02 -0.107562D+00  0.643609D+00
      6  0.788314D-02  0.368719D-02 -0.396044D-01  0.185744D-03  0.323806D-02
      7 -0.199891D-01  0.803277D-01  0.952114D-02 -0.778322D-01 -0.240945D-01
      8 -0.187879D-01 -0.206114D-01 -0.426709D-03  0.173375D-01 -0.543429D-01
      9 -0.249660D-02 -0.576789D-02 -0.630887D-01  0.123217D-02  0.202159D-02
     10 -0.587663D-01 -0.171786D+00 -0.428091D-02  0.388860D-01  0.920037D-01
     11 -0.615295D-01 -0.716416D-01  0.946377D-05  0.716967D-01 -0.327183D-01
     12 -0.106592D-02 -0.585654D-03  0.126186D-01 -0.341189D-03  0.327423D-03
     13 -0.135205D-01 -0.490415D-02 -0.140588D-02 -0.180152D-01 -0.289635D-02
     14 -0.200096D-02 -0.118659D-01 -0.492297D-03  0.834899D-02  0.879547D-02
     15  0.699151D-04  0.163009D-03  0.824318D-03 -0.199775D-04 -0.205683D-04
     16 -0.708425D-03  0.153015D-01 -0.267703D-02 -0.252667D-01 -0.373248D-01
     17 -0.734485D-03 -0.810883D-03 -0.171742D-04 -0.180334D-01 -0.631933D-02
     18 -0.266206D-02  0.798724D-02 -0.123975D-02 -0.269510D-01 -0.227462D-01
     19 -0.404473D-03  0.151924D-01  0.387249D-02 -0.243572D-01 -0.370373D-01
     20 -0.223039D-03 -0.439029D-03 -0.490987D-03 -0.178923D-01 -0.638944D-02
     21  0.244836D-02 -0.799005D-02 -0.108779D-02  0.264238D-01  0.225988D-01
     22 -0.901067D-02  0.123223D-01  0.470173D-01 -0.212330D-02  0.151778D-01
     23  0.293609D-02 -0.279066D-02 -0.103675D-01  0.753100D-02 -0.155750D-04
     24  0.168830D-01 -0.883260D-02 -0.181640D-01  0.493851D-02 -0.801088D-02
     25 -0.113987D-01  0.737031D-02 -0.475346D-01 -0.137335D-02  0.166023D-01
     26  0.348853D-02 -0.266468D-02  0.107037D-01  0.736168D-02 -0.200484D-03
     27 -0.175646D-01  0.815030D-02 -0.206738D-01 -0.482080D-02  0.806449D-02
     28 -0.397678D+00 -0.181016D+00  0.129926D-01  0.971828D-02 -0.456738D-01
     29 -0.191122D+00 -0.181800D+00 -0.199513D-02 -0.751676D-01 -0.787289D-01
     30 -0.768424D-02 -0.295627D-01 -0.540695D-01 -0.900418D-02 -0.525155D-02
     31 -0.189904D-02 -0.252329D-01 -0.208695D-01 -0.343085D-02 -0.946364D-03
     32 -0.761910D-02 -0.362019D-01 -0.194060D-01 -0.220425D-02  0.623185D-02
     33  0.614030D-02  0.356328D-02  0.612723D-03  0.304113D-02  0.648413D-02
                6             7             8             9            10 
      6  0.708310D-01
      7 -0.339811D-02  0.836590D-01
      8 -0.624271D-03 -0.211664D+00  0.604381D+00
      9  0.372106D-01 -0.327151D-03  0.161249D-02  0.636157D+00
     10  0.175651D-02  0.128457D+00  0.938646D-01 -0.104689D-02  0.907917D-01
     11  0.842629D-03  0.143434D-01 -0.225743D+00 -0.286953D-03  0.601142D-01
     12 -0.569756D-01  0.539663D-03  0.794983D-04 -0.653963D-01  0.141800D-02
     13  0.451232D-03  0.825150D-02  0.436624D-01 -0.105453D-03 -0.267760D-01
     14  0.293867D-03  0.769299D-01  0.174141D-02 -0.130263D-03 -0.559631D-01
     15  0.151395D-03 -0.887927D-04  0.000000D+00 -0.268913D-01 -0.742040D-04
     16 -0.336131D-01 -0.146628D-01 -0.496267D-02  0.174647D-02 -0.634997D-01
     17 -0.140338D-01 -0.106025D-01 -0.226779D-02 -0.336037D-01 -0.263201D-01
     18 -0.763721D-02 -0.590846D-02 -0.380243D-02 -0.128785D-01 -0.347914D-01
     19  0.324727D-01 -0.147748D-01 -0.486196D-02 -0.141279D-02 -0.636310D-01
     20  0.137126D-01 -0.104797D-01 -0.205423D-02  0.337041D-01 -0.262254D-01
     21 -0.802696D-02  0.568960D-02  0.367221D-02 -0.131471D-01  0.349029D-01
     22 -0.103713D-01 -0.767704D-01  0.520029D-01  0.795920D-01 -0.238637D-01
     23  0.373478D-02  0.492511D-01 -0.147245D+00 -0.113617D+00 -0.222267D-02
     24  0.218260D-02  0.641885D-01 -0.109072D+00 -0.253379D+00  0.155365D-02
     25  0.111460D-01 -0.756381D-01  0.513826D-01 -0.783536D-01 -0.243950D-01
     26 -0.359664D-02  0.490940D-01 -0.148300D+00  0.113211D+00 -0.222878D-02
     27  0.311867D-02 -0.642468D-01  0.108186D+00 -0.253174D+00 -0.135185D-02
     28 -0.223170D-02  0.640529D-01 -0.162177D-01 -0.219842D-03 -0.179769D-04
     29 -0.809597D-02 -0.647264D-02 -0.657042D-02  0.295814D-02  0.431367D-01
     30  0.697477D-03  0.118524D-02 -0.642427D-03  0.118176D-01  0.260928D-02
     31 -0.428104D-02 -0.475301D-02 -0.175605D-02  0.139170D-02  0.281499D-02
     32  0.841516D-03 -0.663300D-02  0.101317D-02 -0.101758D-03 -0.437331D-02
     33 -0.194764D-02 -0.715482D-02  0.101807D-02  0.276907D-02 -0.695039D-03
               11            12            13            14            15 
     11  0.714196D+00
     12 -0.166580D-03  0.704763D+00
     13 -0.215906D-01 -0.167623D-03  0.106897D+00
     14  0.232840D-02 -0.206784D-04  0.655899D-02  0.378507D-01
     15  0.237408D-04 -0.105788D-01 -0.650848D-04 -0.918725D-04  0.454114D-01
     16 -0.331238D-01 -0.501278D-01 -0.616653D-02  0.173518D-01  0.104932D-01
     17 -0.198299D+00 -0.149597D+00  0.118528D-01 -0.236734D-02 -0.274720D-02
     18 -0.145710D+00 -0.287337D+00  0.987661D-02 -0.665325D-02  0.134912D-02
     19 -0.331700D-01  0.499863D-01 -0.604367D-02  0.173003D-01 -0.104674D-01
     20 -0.198650D+00  0.149950D+00  0.119422D-01 -0.235844D-02  0.270669D-02
     21  0.145958D+00 -0.287145D+00 -0.988237D-02  0.669146D-02  0.140656D-02
     22  0.127585D-03  0.390893D-02 -0.150976D-01 -0.332102D-01 -0.237391D-01
     23  0.367052D-02 -0.256085D-01 -0.209370D-01 -0.184583D-01 -0.175570D-01
     24 -0.240181D-02 -0.996618D-02 -0.197017D-01 -0.221090D-01 -0.559202D-02
     25  0.115398D-03 -0.430971D-02 -0.151761D-01 -0.332513D-01  0.237338D-01
     26  0.362975D-02  0.257737D-01 -0.212502D-01 -0.184366D-01  0.175616D-01
     27  0.264742D-02 -0.100772D-01  0.198888D-01  0.222087D-01 -0.555044D-02
     28  0.436200D-02 -0.815175D-03 -0.157474D-01 -0.291717D-02  0.958528D-04
     29  0.466638D-02 -0.893262D-03 -0.444009D-02  0.276216D-02 -0.221228D-04
     30  0.182105D-03  0.908054D-02 -0.105744D-02 -0.848490D-04 -0.256107D-03
     31 -0.134532D-02  0.974560D-03  0.139447D-02  0.852741D-03  0.617426D-04
     32 -0.143971D-02  0.741239D-03  0.200205D-02  0.843246D-05 -0.157461D-04
     33 -0.109793D-02  0.101373D-02  0.216892D-02  0.388170D-03 -0.274147D-03
               16            17            18            19            20 
     16  0.929618D-01
     17  0.438591D-01  0.189521D+00
     18  0.660581D-01  0.187779D+00  0.381871D+00
     19  0.125802D-01  0.276042D-02 -0.474786D-02  0.918980D-01
     20  0.265142D-02  0.265635D-01 -0.917095D-02  0.433971D-01  0.189669D+00
     21  0.476563D-02  0.919945D-02 -0.801992D-01 -0.656412D-01 -0.187937D+00
     22  0.292104D-02  0.474352D-03  0.530171D-03  0.311349D-02  0.132637D-02
     23  0.188703D-02 -0.537272D-02 -0.179193D-02  0.582894D-03  0.604219D-03
     24  0.379411D-03 -0.115606D-02  0.181288D-03 -0.610820D-03 -0.246448D-02
     25  0.312852D-02  0.126718D-02  0.160393D-02  0.302312D-02  0.443761D-03
     26  0.614253D-03  0.620770D-03 -0.158345D-02  0.188940D-02 -0.542859D-02
     27  0.534141D-03  0.242541D-02  0.562069D-02 -0.377585D-03  0.113875D-02
     28 -0.995608D-03 -0.513345D-02 -0.316396D-02 -0.729857D-03 -0.516359D-02
     29 -0.722975D-02 -0.205092D-02 -0.487172D-02 -0.638980D-02 -0.202112D-02
     30  0.222137D-02  0.117289D-02 -0.142804D-03 -0.324292D-02 -0.186505D-02
     31 -0.291891D-03  0.610164D-03  0.155941D-03 -0.673747D-03  0.223147D-03
     32  0.975874D-03  0.782153D-03  0.564327D-03  0.336487D-03  0.503925D-03
     33  0.219659D-03  0.578828D-03  0.412062D-03  0.169121D-03  0.715699D-03
               21            22            23            24            25 
     21  0.381969D+00
     22 -0.154633D-02  0.114720D+00
     23  0.156395D-02 -0.388484D-01  0.148028D+00
     24  0.566837D-02 -0.849512D-01  0.158144D+00  0.330103D+00
     25 -0.552788D-03  0.160383D-01 -0.788110D-02  0.479942D-02  0.113352D+00
     26  0.185811D-02 -0.777428D-02  0.199527D-01 -0.576977D-02 -0.372217D-01
     27  0.190786D-03 -0.473877D-02  0.554769D-02 -0.510521D-01  0.827144D-01
     28  0.350602D-02 -0.908220D-02  0.653805D-02  0.114392D-01 -0.929123D-02
     29  0.468925D-02 -0.280509D-02  0.266252D-02  0.283119D-02 -0.224192D-03
     30  0.140903D-02 -0.635517D-02  0.949493D-03  0.217860D-02  0.552665D-02
     31 -0.113690D-03 -0.844936D-03  0.116295D-02  0.108201D-02  0.173079D-02
     32 -0.304962D-03  0.120655D-02 -0.103563D-02 -0.115865D-02  0.139674D-02
     33 -0.103722D-02  0.653485D-03 -0.998130D-03 -0.216080D-02  0.122642D-02
               26            27            28            29            30 
     26  0.149478D+00
     27 -0.157615D+00  0.330019D+00
     28  0.605474D-02 -0.108471D-01  0.382342D+00
     29  0.219530D-02 -0.188349D-02  0.251714D+00  0.427376D+00
     30 -0.400033D-03  0.116076D-02 -0.314005D-02  0.255645D+00  0.339067D+00
     31 -0.275293D-04  0.810187D-03 -0.225708D-01 -0.999844D-03  0.189414D-01
     32 -0.846098D-03  0.112953D-02 -0.125471D-01 -0.168491D+00 -0.220143D+00
     33 -0.143580D-03  0.418048D-03 -0.761586D-02 -0.248362D+00 -0.310942D+00
               31            32            33 
     31  0.285240D-01
     32  0.274590D-01  0.199475D+00
     33  0.184667D-02  0.237854D+00  0.311137D+00
 FormGI is forming the generalized inverse of G from B-inverse, IUseBI=4.
 Leave Link  716 at Sat May 24 04:45:55 2025, MaxMem=  3758096384 cpu:               0.0 elap:               0.0
 (Enter /apps/easybuild-2022/easybuild/software/Compiler/NVHPC/22.11-CUDA-11.7.0/Gaussian/g16c01-CUDA-11.7.0/g16/l103.exe)

 GradGradGradGradGradGradGradGradGradGradGradGradGradGradGradGradGradGrad
 Berny optimization.
 Red2BG is reusing G-inverse.
 Internal  Forces:  Max     0.018409382 RMS     0.003956280
 Search for a saddle point.
 Step number   1 out of a maximum of  100
 All quantities printed in internal units (Hartrees-Bohrs-Radians)
 Swapping is turned off.
 Second derivative matrix not updated -- analytic derivatives used.
 ITU=  0
     Eigenvalues ---   -0.05120  -0.01012   0.00444   0.00717   0.02013
     Eigenvalues ---    0.03951   0.04362   0.04589   0.07006   0.10545
     Eigenvalues ---    0.11073   0.11697   0.12230   0.14397   0.14838
     Eigenvalues ---    0.17303   0.19179   0.22312   0.27740   0.35346
     Eigenvalues ---    0.41468   0.46357   0.48754   0.50502   0.51800
     Eigenvalues ---    0.58989   0.67423
 Eigenvectors required to have negative eigenvalues:
                          R6        R4        R2        D26       D24
   1                   -0.38154  -0.36129   0.33491  -0.32753   0.32152
                          A9        A3        D25       D22       A15
   1                    0.25723   0.20749  -0.18958   0.18180   0.15576
 Eigenvalue     2 is  -1.01D-02 should be greater than     0.000000 Eigenvector:
                          D11       D12       A21       D8        R2
   1                   -0.72996  -0.66771  -0.05598  -0.04904  -0.04354
                          D7        R6        D24       D22       D9
   1                   -0.04311   0.03856  -0.03716  -0.03674  -0.03285
 RFO step:  Lambda0=1.218942094D-05 Lambda=-2.19288304D-02.
 Linear search not attempted -- option 19 set.
 Iteration  1 RMS(Cart)=  0.04269028 RMS(Int)=  0.09202619
 Iteration  2 RMS(Cart)=  0.03803991 RMS(Int)=  0.05511164
 Iteration  3 RMS(Cart)=  0.03715114 RMS(Int)=  0.01857098
 Iteration  4 RMS(Cart)=  0.01840507 RMS(Int)=  0.00120551
 Iteration  5 RMS(Cart)=  0.00091879 RMS(Int)=  0.00065277
 Iteration  6 RMS(Cart)=  0.00000180 RMS(Int)=  0.00065277
 Iteration  7 RMS(Cart)=  0.00000000 RMS(Int)=  0.00065277
 ITry= 1 IFail=0 DXMaxC= 6.35D-01 DCOld= 1.00D+10 DXMaxT= 3.00D-01 DXLimC= 3.00D+00 Rises=F
 Variable       Old X    -DE/DX   Delta X   Delta X   Delta X     New X
                                 (Linear)    (Quad)   (Total)
    R1        2.38594  -0.01043   0.00000  -0.01603  -0.01578   2.37016
    R2        3.27671  -0.00414   0.00000  -0.06013  -0.05973   3.21698
    R3        2.42297   0.01841   0.00000   0.00752   0.00752   2.43050
    R4        3.05294   0.00052   0.00000   0.01015   0.00980   3.06274
    R5        2.90095  -0.00121   0.00000  -0.00175  -0.00203   2.89892
    R6        3.46840   0.00216   0.00000   0.03081   0.03081   3.49922
    R7        2.49036   0.00565   0.00000   0.01467   0.01467   2.50503
    R8        2.49035   0.00190   0.00000   0.00613   0.00613   2.49647
    R9        2.43650   0.00006   0.00000  -0.00116  -0.00116   2.43534
   R10        2.43648   0.00032   0.00000  -0.00230  -0.00230   2.43418
   R11        1.84024  -0.00627   0.00000  -0.01086  -0.01086   1.82937
    A1        1.67135   0.00309   0.00000   0.01787   0.01719   1.68854
    A2        2.12614  -0.00776   0.00000  -0.03738  -0.03913   2.08701
    A3        2.48569   0.00467   0.00000   0.01949   0.01720   2.50289
    A4        1.62923  -0.00001   0.00000  -0.01077  -0.01035   1.61888
    A5        1.39695  -0.00116   0.00000   0.00896   0.00921   1.40616
    A6        2.69971   0.00094   0.00000   0.00396   0.00411   2.70381
    A7        1.78741   0.00056   0.00000   0.01604   0.01568   1.80309
    A8        1.78742   0.00072   0.00000  -0.00203  -0.00207   1.78535
    A9        1.30276   0.00209   0.00000  -0.00500  -0.00500   1.29775
   A10        2.10702   0.00115   0.00000   0.02105   0.02113   2.12815
   A11        2.10700  -0.00029   0.00000  -0.01831  -0.01870   2.08829
   A12        1.58221  -0.00112   0.00000  -0.01668  -0.01643   1.56577
   A13        1.58218  -0.00090   0.00000   0.00112   0.00112   1.58330
   A14        2.03194  -0.00084   0.00000  -0.00906  -0.00904   2.02290
   A15        1.58566  -0.00191   0.00000  -0.01606  -0.01633   1.56933
   A16        1.81298   0.00071   0.00000  -0.00090  -0.00082   1.81215
   A17        1.81297   0.00031   0.00000   0.00560   0.00573   1.81870
   A18        2.08000   0.00014   0.00000  -0.00321  -0.00304   2.07695
   A19        2.07997   0.00075   0.00000   0.00884   0.00867   2.08864
   A20        1.98520  -0.00036   0.00000   0.00078   0.00073   1.98593
   A21        1.95640   0.00188   0.00000  -0.04385  -0.04385   1.91254
    D1       -0.00002  -0.00035   0.00000  -0.01670  -0.01667  -0.01669
    D2       -3.14151   0.00177   0.00000   0.06711   0.06404  -3.07747
    D3        0.00002   0.00037   0.00000   0.01782   0.01783   0.01785
    D4        0.00002   0.00161   0.00000   0.03874   0.03921   0.03923
    D5        2.08575   0.00133   0.00000   0.03956   0.04005   2.12580
    D6       -2.08568   0.00090   0.00000   0.03509   0.03544  -2.05024
    D7        3.14147  -0.00259   0.00000  -0.09897  -0.10006   3.04141
    D8        3.14147  -0.00134   0.00000  -0.07804  -0.07868   3.06279
    D9       -1.05599  -0.00163   0.00000  -0.07722  -0.07784  -1.13382
   D10        1.05577  -0.00206   0.00000  -0.08169  -0.08245   0.97332
   D11       -2.09439  -0.01252   0.00000  -0.76006  -0.75904  -2.85343
   D12        1.04737  -0.00906   0.00000  -0.62332  -0.62434   0.42303
   D13        0.00002   0.00039   0.00000   0.01877   0.01837   0.01839
   D14        2.10120   0.00009   0.00000   0.01054   0.01035   2.11155
   D15       -2.10112   0.00012   0.00000   0.01338   0.01324  -2.08788
   D16       -0.00002  -0.00029   0.00000  -0.01385  -0.01370  -0.01372
   D17       -1.85773  -0.00002   0.00000  -0.00281  -0.00275  -1.86048
   D18        1.85768  -0.00091   0.00000  -0.01518  -0.01518   1.84250
   D19        3.14157   0.00026   0.00000  -0.00457  -0.00429   3.13728
   D20        1.28386   0.00054   0.00000   0.00647   0.00666   1.29052
   D21       -1.28392  -0.00036   0.00000  -0.00590  -0.00577  -1.28969
   D22       -1.72084  -0.00018   0.00000  -0.03587  -0.03595  -1.75679
   D23        2.70464   0.00010   0.00000  -0.02482  -0.02501   2.67963
   D24        0.13686  -0.00080   0.00000  -0.03720  -0.03743   0.09942
   D25        1.72082  -0.00009   0.00000  -0.00947  -0.00936   1.71146
   D26       -0.13688   0.00018   0.00000   0.00158   0.00159  -0.13530
   D27       -2.70467  -0.00072   0.00000  -0.01080  -0.01084  -2.71551
         Item               Value     Threshold  Converged?
 Maximum Force            0.018409     0.000450     NO 
 RMS     Force            0.003956     0.000300     NO 
 Maximum Displacement     0.634688     0.001800     NO 
 RMS     Displacement     0.131458     0.001200     NO 
 Predicted change in Energy=-2.162528D-02
 Lowest energy point so far.  Saving SCF results.
 GradGradGradGradGradGradGradGradGradGradGradGradGradGradGradGradGradGrad

 Leave Link  103 at Sat May 24 04:45:55 2025, MaxMem=  3758096384 cpu:               0.1 elap:               0.0
 (Enter /apps/easybuild-2022/easybuild/software/Compiler/NVHPC/22.11-CUDA-11.7.0/Gaussian/g16c01-CUDA-11.7.0/g16/l202.exe)
                          Input orientation:                          
 ---------------------------------------------------------------------
 Center     Atomic      Atomic             Coordinates (Angstroms)
 Number     Number       Type             X           Y           Z
 ---------------------------------------------------------------------
      1          6           0        1.748686   -0.058844    0.119778
      2          8           0        1.861902   -1.305132    0.035792
      3          6           0        0.048105   -0.008109    0.060984
      4          6           0        0.257007   -1.526126   -0.011608
      5          9           0       -1.649749   -0.742384   -0.022343
      6          9           0        0.062301   -2.130690   -1.132947
      7          9           0        0.007574   -2.254207    1.021310
      8          9           0       -0.278291    0.601466    1.191961
      9          9           0       -0.174756    0.674689   -1.047783
     10          8           0        2.804303    0.675929    0.119886
     11          1           0        2.583854    1.560481    0.445636
 ---------------------------------------------------------------------
                    Distance matrix (angstroms):
                    1          2          3          4          5
     1  C    0.000000
     2  O    1.254234   0.000000
     3  C    1.702353   2.229970   0.000000
     4  C    2.096493   1.620733   1.534042   0.000000
     5  F    3.469407   3.556932   1.851705   2.061574   0.000000
     6  F    2.950552   2.299144   2.435370   1.288725   2.468188
     7  F    2.943441   2.304457   2.443118   1.288114   2.474175
     8  F    2.386257   3.090674   1.325603   2.502352   2.271864
     9  F    2.366621   3.040033   1.321077   2.470560   2.288063
    10  O    1.286165   2.195403   2.840424   3.369726   4.676583
    11  H    1.850920   2.983441   3.006402   3.892355   4.842065
                    6          7          8          9         10
     6  F    0.000000
     7  F    2.158490   0.000000
     8  F    3.603592   2.875014   0.000000
     9  F    2.816665   3.590658   2.243332   0.000000
    10  O    4.118893   4.149693   3.264548   3.199726   0.000000
    11  H    4.740770   4.639015   3.109435   3.259579   0.968061
                   11
    11  H    0.000000
 Symmetry turned off by external request.
 Stoichiometry    C3HF5O2
 Rotational constants (GHZ):           1.8235843           1.3502020           1.0816663
 Leave Link  202 at Sat May 24 04:45:55 2025, MaxMem=  3758096384 cpu:               0.0 elap:               0.0
 (Enter /apps/easybuild-2022/easybuild/software/Compiler/NVHPC/22.11-CUDA-11.7.0/Gaussian/g16c01-CUDA-11.7.0/g16/l301.exe)
 Standard basis: def2TZVPP (5D, 7F)
 Ernie: Thresh=  0.10000D-02 Tol=  0.10000D-05 Strict=F.
   324 basis functions,   527 primitive gaussians,   375 cartesian basis functions
    40 alpha electrons       40 beta electrons
       nuclear repulsion energy       646.0357790049 Hartrees.
 IExCor= 4336 DFT=T Ex+Corr=M062X ExCW=0 ScaHFX=  0.540000
 ScaDFX=  1.000000  1.000000  1.000000  1.000000 ScalE2=  1.000000  1.000000
 IRadAn=      5 IRanWt=     -1 IRanGd=            0 ICorTp=0 IEmpDi=  4
 NAtoms=   11 NActive=   11 NUniq=   11 SFac= 1.00D+00 NAtFMM=   60 NAOKFM=F Big=F
 Integral buffers will be    131072 words long.
 Raffenetti 2 integral format.
 Two-electron integral symmetry is turned off.
 Leave Link  301 at Sat May 24 04:45:56 2025, MaxMem=  3758096384 cpu:               0.0 elap:               0.0
 (Enter /apps/easybuild-2022/easybuild/software/Compiler/NVHPC/22.11-CUDA-11.7.0/Gaussian/g16c01-CUDA-11.7.0/g16/l302.exe)
 NPDir=0 NMtPBC=     1 NCelOv=     1 NCel=       1 NClECP=     1 NCelD=      1
         NCelK=      1 NCelE2=     1 NClLst=     1 CellRange=     0.0.
 One-electron integrals computed using PRISM.
   1 Symmetry operations used in ECPInt.
 ECPInt:  NShTT=    6786 NPrTT=   21959 LenC2=    6484 LenP2D=   16039.
 LDataN:  DoStor=T MaxTD1= 6 Len=  172
 NBasis=   324 RedAO= T EigKep=  1.34D-04  NBF=   324
 NBsUse=   324 1.00D-06 EigRej= -1.00D+00 NBFU=   324
 Precomputing XC quadrature grid using
 IXCGrd= 4 IRadAn=           5 IRanWt=          -1 IRanGd=           0 AccXCQ= 0.00D+00.
 Generated NRdTot=       0 NPtTot=           0 NUsed=           0 NTot=          32
 NSgBfM=   373   373   373   373   373 MxSgAt=    11 MxSgA2=    11.
 Leave Link  302 at Sat May 24 04:45:56 2025, MaxMem=  3758096384 cpu:               0.6 elap:               0.1
 (Enter /apps/easybuild-2022/easybuild/software/Compiler/NVHPC/22.11-CUDA-11.7.0/Gaussian/g16c01-CUDA-11.7.0/g16/l303.exe)
 DipDrv:  MaxL=1.
 Leave Link  303 at Sat May 24 04:45:56 2025, MaxMem=  3758096384 cpu:               0.1 elap:               0.0
 (Enter /apps/easybuild-2022/easybuild/software/Compiler/NVHPC/22.11-CUDA-11.7.0/Gaussian/g16c01-CUDA-11.7.0/g16/l401.exe)
 Initial guess from the checkpoint file:  "/tmp/Gau-177746.chk"
 B after Tr=     0.056790   -0.008894    0.074406
         Rot=    0.999695   -0.018857    0.010004    0.012432 Ang=  -2.83 deg.
 Guess basis will be translated and rotated to current coordinates.
 JPrj=2 DoOrth=T DoCkMO=T.
 Generating alternative initial guess.
 ExpMin= 9.52D-02 ExpMax= 3.55D+04 ExpMxC= 1.21D+03 IAcc=3 IRadAn=         5 AccDes= 0.00D+00
 Harris functional with IExCor= 1009 and IRadAn=       5 diagonalized for initial guess.
 HarFok:  IExCor= 1009 AccDes= 0.00D+00 IRadAn=         5 IDoV= 1 UseB2=F ITyADJ=14
 ICtDFT=  3500011 ScaDFX=  1.000000  1.000000  1.000000  1.000000
 FoFCou: FMM=F IPFlag=           0 FMFlag=      100000 FMFlg1=           0
         NFxFlg=           0 DoJE=T BraDBF=F KetDBF=T FulRan=T
         wScrn=  0.000000 ICntrl=       500 IOpCl=  0 I1Cent=   200000004 NGrid=           0
         NMat0=    1 NMatS0=      1 NMatT0=    0 NMatD0=    1 NMtDS0=    0 NMtDT0=    0
 Symmetry not used in FoFCou.
 Harris En= -764.079337313147    
 Leave Link  401 at Sat May 24 04:45:56 2025, MaxMem=  3758096384 cpu:               3.7 elap:               0.5
 (Enter /apps/easybuild-2022/easybuild/software/Compiler/NVHPC/22.11-CUDA-11.7.0/Gaussian/g16c01-CUDA-11.7.0/g16/l502.exe)
 Keep R1 ints in memory in canonical form, NReq=1412617152.
 FoFCou: FMM=F IPFlag=           0 FMFlag=           0 FMFlg1=           0
         NFxFlg=           0 DoJE=F BraDBF=F KetDBF=F FulRan=T
         wScrn=  0.000000 ICntrl=       600 IOpCl=  0 I1Cent=           0 NGrid=           0
         NMat0=    1 NMatS0=  52650 NMatT0=    0 NMatD0=    1 NMtDS0=    0 NMtDT0=    0
 Symmetry not used in FoFCou.
 Two-electron integral symmetry not used.
 Closed shell SCF:
 Using DIIS extrapolation, IDIIS=  1040.
 NGot=  3758096384 LenX=  2371771902 LenY=  2371630836
 Requested convergence on RMS density matrix=1.00D-08 within  32 cycles.
 Requested convergence on MAX density matrix=1.00D-06.
 Requested convergence on             energy=1.00D-06.
 No special actions if energy rises.
 Integral accuracy reduced to 1.0D-05 until final iterations.

 Cycle   1  Pass 0  IDiag  1:
 E= -764.429759649606    
 DIIS: error= 1.39D-02 at cycle   1 NSaved=   1.
 NSaved= 1 IEnMin= 1 EnMin= -764.429759649606     IErMin= 1 ErrMin= 1.39D-02
 ErrMax= 1.39D-02  0.00D+00 EMaxC= 1.00D-01 BMatC= 5.43D-02 BMatP= 5.43D-02
 IDIUse=3 WtCom= 8.61D-01 WtEn= 1.39D-01
 Coeff-Com:  0.100D+01
 Coeff-En:   0.100D+01
 Coeff:      0.100D+01
 Recover alternate guess density for next cycle.
 RMSDP=1.95D-03 MaxDP=6.47D-02              OVMax= 0.00D+00

 Cycle   2  Pass 0  IDiag  1:
 E= -764.293766469269     Delta-E=        0.135993180336 Rises=F Damp=F
 Switch densities from cycles 1 and 2 for lowest energy.
 DIIS: error= 3.67D-02 at cycle   2 NSaved=   2.
 NSaved= 2 IEnMin= 1 EnMin= -764.429759649606     IErMin= 1 ErrMin= 1.39D-02
 ErrMax= 3.67D-02  0.00D+00 EMaxC= 1.00D+00 BMatC= 3.80D-01 BMatP= 5.43D-02
 IDIUse=1 WtCom= 1.00D+00 WtEn= 0.00D+00
 Coeff-Com:  0.894D+00 0.106D+00
 Coeff:      0.894D+00 0.106D+00
 Gap=     0.350 Goal=   None    Shift=    0.000
 RMSDP=8.33D-04 MaxDP=4.83D-02 DE= 1.36D-01 OVMax= 1.43D-01

 Cycle   3  Pass 0  IDiag  1:
 E= -764.482875790537     Delta-E=       -0.189109321268 Rises=F Damp=F
 DIIS: error= 5.09D-03 at cycle   3 NSaved=   3.
 NSaved= 3 IEnMin= 3 EnMin= -764.482875790537     IErMin= 3 ErrMin= 5.09D-03
 ErrMax= 5.09D-03  0.00D+00 EMaxC= 1.00D+00 BMatC= 1.03D-02 BMatP= 5.43D-02
 IDIUse=1 WtCom= 1.00D+00 WtEn= 0.00D+00
 Coeff-Com:  0.170D-01 0.114D+00 0.869D+00
 Coeff:      0.170D-01 0.114D+00 0.869D+00
 Gap=     0.307 Goal=   None    Shift=    0.000
 RMSDP=2.67D-04 MaxDP=1.42D-02 DE=-1.89D-01 OVMax= 2.01D-02

 Cycle   4  Pass 0  IDiag  1:
 E= -764.489203221745     Delta-E=       -0.006327431207 Rises=F Damp=F
 DIIS: error= 2.10D-03 at cycle   4 NSaved=   4.
 NSaved= 4 IEnMin= 4 EnMin= -764.489203221745     IErMin= 4 ErrMin= 2.10D-03
 ErrMax= 2.10D-03  0.00D+00 EMaxC= 1.00D+00 BMatC= 1.60D-03 BMatP= 1.03D-02
 IDIUse=1 WtCom= 1.00D+00 WtEn= 0.00D+00
 Coeff-Com: -0.404D-01 0.160D-01 0.315D+00 0.709D+00
 Coeff:     -0.404D-01 0.160D-01 0.315D+00 0.709D+00
 Gap=     0.311 Goal=   None    Shift=    0.000
 RMSDP=8.79D-05 MaxDP=5.66D-03 DE=-6.33D-03 OVMax= 8.91D-03

 Cycle   5  Pass 0  IDiag  1:
 E= -764.490170914509     Delta-E=       -0.000967692764 Rises=F Damp=F
 DIIS: error= 7.81D-04 at cycle   5 NSaved=   5.
 NSaved= 5 IEnMin= 5 EnMin= -764.490170914509     IErMin= 5 ErrMin= 7.81D-04
 ErrMax= 7.81D-04  0.00D+00 EMaxC= 1.00D+00 BMatC= 2.59D-04 BMatP= 1.60D-03
 IDIUse=1 WtCom= 1.00D+00 WtEn= 0.00D+00
 Coeff-Com: -0.171D-01-0.443D-02 0.838D-01 0.362D+00 0.576D+00
 Coeff:     -0.171D-01-0.443D-02 0.838D-01 0.362D+00 0.576D+00
 Gap=     0.310 Goal=   None    Shift=    0.000
 RMSDP=3.00D-05 MaxDP=1.55D-03 DE=-9.68D-04 OVMax= 2.99D-03

 Cycle   6  Pass 0  IDiag  1:
 E= -764.490336113837     Delta-E=       -0.000165199328 Rises=F Damp=F
 DIIS: error= 1.71D-04 at cycle   6 NSaved=   6.
 NSaved= 6 IEnMin= 6 EnMin= -764.490336113837     IErMin= 6 ErrMin= 1.71D-04
 ErrMax= 1.71D-04  0.00D+00 EMaxC= 1.00D+00 BMatC= 8.31D-06 BMatP= 2.59D-04
 IDIUse=1 WtCom= 1.00D+00 WtEn= 0.00D+00
 Coeff-Com: -0.259D-02-0.119D-02-0.667D-02 0.377D-01 0.128D+00 0.845D+00
 Coeff:     -0.259D-02-0.119D-02-0.667D-02 0.377D-01 0.128D+00 0.845D+00
 Gap=     0.309 Goal=   None    Shift=    0.000
 RMSDP=1.03D-05 MaxDP=5.20D-04 DE=-1.65D-04 OVMax= 1.57D-03

 Cycle   7  Pass 0  IDiag  1:
 E= -764.490343316868     Delta-E=       -0.000007203031 Rises=F Damp=F
 DIIS: error= 6.36D-05 at cycle   7 NSaved=   7.
 NSaved= 7 IEnMin= 7 EnMin= -764.490343316868     IErMin= 7 ErrMin= 6.36D-05
 ErrMax= 6.36D-05  0.00D+00 EMaxC= 1.00D+00 BMatC= 4.34D-06 BMatP= 8.31D-06
 IDIUse=1 WtCom= 1.00D+00 WtEn= 0.00D+00
 Coeff-Com:  0.834D-03-0.725D-04-0.167D-01-0.299D-01-0.128D-01 0.486D+00
 Coeff-Com:  0.572D+00
 Coeff:      0.834D-03-0.725D-04-0.167D-01-0.299D-01-0.128D-01 0.486D+00
 Coeff:      0.572D+00
 Gap=     0.310 Goal=   None    Shift=    0.000
 RMSDP=4.71D-06 MaxDP=2.47D-04 DE=-7.20D-06 OVMax= 3.90D-04

 Initial convergence to 1.0D-05 achieved.  Increase integral accuracy.
 Cycle   8  Pass 1  IDiag  1:
 E= -764.490351480432     Delta-E=       -0.000008163564 Rises=F Damp=F
 DIIS: error= 1.68D-05 at cycle   1 NSaved=   1.
 NSaved= 1 IEnMin= 1 EnMin= -764.490351480432     IErMin= 1 ErrMin= 1.68D-05
 ErrMax= 1.68D-05  0.00D+00 EMaxC= 1.00D+00 BMatC= 5.01D-07 BMatP= 5.01D-07
 IDIUse=1 WtCom= 1.00D+00 WtEn= 0.00D+00
 Coeff-Com:  0.100D+01
 Coeff:      0.100D+01
 Gap=     0.309 Goal=   None    Shift=    0.000
 RMSDP=4.71D-06 MaxDP=2.47D-04 DE=-8.16D-06 OVMax= 2.05D-04

 Cycle   9  Pass 1  IDiag  1:
 E= -764.490351781171     Delta-E=       -0.000000300739 Rises=F Damp=F
 DIIS: error= 2.03D-05 at cycle   2 NSaved=   2.
 NSaved= 2 IEnMin= 2 EnMin= -764.490351781171     IErMin= 1 ErrMin= 1.68D-05
 ErrMax= 2.03D-05  0.00D+00 EMaxC= 1.00D+00 BMatC= 1.97D-07 BMatP= 5.01D-07
 IDIUse=1 WtCom= 1.00D+00 WtEn= 0.00D+00
 Coeff-Com:  0.331D+00 0.669D+00
 Coeff:      0.331D+00 0.669D+00
 Gap=     0.310 Goal=   None    Shift=    0.000
 RMSDP=1.63D-06 MaxDP=9.28D-05 DE=-3.01D-07 OVMax= 1.11D-04

 Cycle  10  Pass 1  IDiag  1:
 E= -764.490351862238     Delta-E=       -0.000000081067 Rises=F Damp=F
 DIIS: error= 1.43D-05 at cycle   3 NSaved=   3.
 NSaved= 3 IEnMin= 3 EnMin= -764.490351862238     IErMin= 3 ErrMin= 1.43D-05
 ErrMax= 1.43D-05  0.00D+00 EMaxC= 1.00D+00 BMatC= 8.03D-08 BMatP= 1.97D-07
 IDIUse=1 WtCom= 1.00D+00 WtEn= 0.00D+00
 Coeff-Com: -0.333D-01 0.387D+00 0.647D+00
 Coeff:     -0.333D-01 0.387D+00 0.647D+00
 Gap=     0.309 Goal=   None    Shift=    0.000
 RMSDP=6.78D-07 MaxDP=3.01D-05 DE=-8.11D-08 OVMax= 6.95D-05

 Cycle  11  Pass 1  IDiag  1:
 E= -764.490351916415     Delta-E=       -0.000000054177 Rises=F Damp=F
 DIIS: error= 1.50D-06 at cycle   4 NSaved=   4.
 NSaved= 4 IEnMin= 4 EnMin= -764.490351916415     IErMin= 4 ErrMin= 1.50D-06
 ErrMax= 1.50D-06  0.00D+00 EMaxC= 1.00D+00 BMatC= 2.05D-09 BMatP= 8.03D-08
 IDIUse=1 WtCom= 1.00D+00 WtEn= 0.00D+00
 Coeff-Com: -0.240D-01 0.127D+00 0.259D+00 0.637D+00
 Coeff:     -0.240D-01 0.127D+00 0.259D+00 0.637D+00
 Gap=     0.309 Goal=   None    Shift=    0.000
 RMSDP=1.50D-07 MaxDP=7.06D-06 DE=-5.42D-08 OVMax= 1.38D-05

 Cycle  12  Pass 1  IDiag  1:
 E= -764.490351918265     Delta-E=       -0.000000001850 Rises=F Damp=F
 DIIS: error= 8.25D-07 at cycle   5 NSaved=   5.
 NSaved= 5 IEnMin= 5 EnMin= -764.490351918265     IErMin= 5 ErrMin= 8.25D-07
 ErrMax= 8.25D-07  0.00D+00 EMaxC= 1.00D+00 BMatC= 2.56D-10 BMatP= 2.05D-09
 IDIUse=1 WtCom= 1.00D+00 WtEn= 0.00D+00
 Coeff-Com:  0.452D-03-0.522D-01-0.636D-01 0.185D+00 0.931D+00
 Coeff:      0.452D-03-0.522D-01-0.636D-01 0.185D+00 0.931D+00
 Gap=     0.309 Goal=   None    Shift=    0.000
 RMSDP=9.59D-08 MaxDP=4.08D-06 DE=-1.85D-09 OVMax= 1.39D-05

 Cycle  13  Pass 1  IDiag  1:
 E= -764.490351918704     Delta-E=       -0.000000000438 Rises=F Damp=F
 DIIS: error= 4.10D-07 at cycle   6 NSaved=   6.
 NSaved= 6 IEnMin= 6 EnMin= -764.490351918704     IErMin= 6 ErrMin= 4.10D-07
 ErrMax= 4.10D-07  0.00D+00 EMaxC= 1.00D+00 BMatC= 6.03D-11 BMatP= 2.56D-10
 IDIUse=1 WtCom= 1.00D+00 WtEn= 0.00D+00
 Coeff-Com:  0.253D-02-0.364D-01-0.542D-01 0.923D-03 0.420D+00 0.667D+00
 Coeff:      0.253D-02-0.364D-01-0.542D-01 0.923D-03 0.420D+00 0.667D+00
 Gap=     0.309 Goal=   None    Shift=    0.000
 RMSDP=2.75D-08 MaxDP=7.03D-07 DE=-4.38D-10 OVMax= 4.14D-06

 Cycle  14  Pass 1  IDiag  1:
 E= -764.490351918768     Delta-E=       -0.000000000065 Rises=F Damp=F
 DIIS: error= 1.38D-07 at cycle   7 NSaved=   7.
 NSaved= 7 IEnMin= 7 EnMin= -764.490351918768     IErMin= 7 ErrMin= 1.38D-07
 ErrMax= 1.38D-07  0.00D+00 EMaxC= 1.00D+00 BMatC= 6.14D-12 BMatP= 6.03D-11
 IDIUse=1 WtCom= 1.00D+00 WtEn= 0.00D+00
 Coeff-Com:  0.940D-03-0.595D-02-0.110D-01-0.305D-01 0.281D-01 0.245D+00
 Coeff-Com:  0.773D+00
 Coeff:      0.940D-03-0.595D-02-0.110D-01-0.305D-01 0.281D-01 0.245D+00
 Coeff:      0.773D+00
 Gap=     0.309 Goal=   None    Shift=    0.000
 RMSDP=1.18D-08 MaxDP=4.59D-07 DE=-6.46D-11 OVMax= 1.79D-06

 Cycle  15  Pass 1  IDiag  1:
 E= -764.490351918813     Delta-E=       -0.000000000045 Rises=F Damp=F
 DIIS: error= 5.00D-08 at cycle   8 NSaved=   8.
 NSaved= 8 IEnMin= 8 EnMin= -764.490351918813     IErMin= 8 ErrMin= 5.00D-08
 ErrMax= 5.00D-08  0.00D+00 EMaxC= 1.00D+00 BMatC= 1.02D-12 BMatP= 6.14D-12
 IDIUse=1 WtCom= 1.00D+00 WtEn= 0.00D+00
 Coeff-Com: -0.175D-04 0.322D-02 0.387D-02-0.133D-01-0.522D-01-0.328D-02
 Coeff-Com:  0.304D+00 0.758D+00
 Coeff:     -0.175D-04 0.322D-02 0.387D-02-0.133D-01-0.522D-01-0.328D-02
 Coeff:      0.304D+00 0.758D+00
 Gap=     0.309 Goal=   None    Shift=    0.000
 RMSDP=4.93D-09 MaxDP=1.56D-07 DE=-4.48D-11 OVMax= 6.92D-07

 SCF Done:  E(RM062X) =  -764.490351919     A.U. after   15 cycles
            NFock= 15  Conv=0.49D-08     -V/T= 2.0036
 KE= 7.617217690286D+02 PE=-3.104505787095D+03 EE= 9.322578871423D+02
 Leave Link  502 at Sat May 24 04:46:23 2025, MaxMem=  3758096384 cpu:             116.8 elap:              27.1
 (Enter /apps/easybuild-2022/easybuild/software/Compiler/NVHPC/22.11-CUDA-11.7.0/Gaussian/g16c01-CUDA-11.7.0/g16/l508.exe)
 QCSCF skips out because SCF is already converged.
 Leave Link  508 at Sat May 24 04:46:23 2025, MaxMem=  3758096384 cpu:               0.0 elap:               0.0
 (Enter /apps/easybuild-2022/easybuild/software/Compiler/NVHPC/22.11-CUDA-11.7.0/Gaussian/g16c01-CUDA-11.7.0/g16/l801.exe)
 DoSCS=F DFT=T ScalE2(SS,OS)=  1.000000  1.000000
 Range of M.O.s used for correlation:     1   324
 NBasis=   324 NAE=    40 NBE=    40 NFC=     0 NFV=     0
 NROrb=    324 NOA=    40 NOB=    40 NVA=   284 NVB=   284

 **** Warning!!: The largest alpha MO coefficient is  0.24597875D+02

 Leave Link  801 at Sat May 24 04:46:23 2025, MaxMem=  3758096384 cpu:               0.0 elap:               0.0
 (Enter /apps/easybuild-2022/easybuild/software/Compiler/NVHPC/22.11-CUDA-11.7.0/Gaussian/g16c01-CUDA-11.7.0/g16/l1101.exe)
 Using compressed storage, NAtomX=    11.
 Will process     12 centers per pass.
   1 Symmetry operations used in ECPInt.
 ECPInt:  NShTT=    6786 NPrTT=   21959 LenC2=    6484 LenP2D=   16039.
 LDataN:  DoStor=T MaxTD1= 7 Len=  274
 Leave Link 1101 at Sat May 24 04:46:24 2025, MaxMem=  3758096384 cpu:               0.8 elap:               0.1
 (Enter /apps/easybuild-2022/easybuild/software/Compiler/NVHPC/22.11-CUDA-11.7.0/Gaussian/g16c01-CUDA-11.7.0/g16/l1102.exe)
 Symmetrizing basis deriv contribution to polar:
 IMax=3 JMax=2 DiffMx= 0.00D+00
 Leave Link 1102 at Sat May 24 04:46:24 2025, MaxMem=  3758096384 cpu:               0.1 elap:               0.0
 (Enter /apps/easybuild-2022/easybuild/software/Compiler/NVHPC/22.11-CUDA-11.7.0/Gaussian/g16c01-CUDA-11.7.0/g16/l1110.exe)
 Forming Gx(P) for the SCF density, NAtomX=    11.
 Integral derivatives from FoFJK, PRISM(SPDF).
 Do as many integral derivatives as possible in FoFJK.
 G2DrvN: MDV=    3758095093.
 G2DrvN: will do    12 centers at a time, making    1 passes.
 Calling FoFCou, ICntrl=  3107 FMM=F I1Cent=   0 AccDes= 0.00D+00.
 FoFJK:  IHMeth= 1 ICntrl=    3107 DoSepK=F KAlg= 0 I1Cent=           0 FoldK=F
 IRaf=         0 NMat=       1 IRICut=       1 DoRegI=T DoRafI=F ISym2E= 0 IDoP0=0 IntGTp=1.
 FoFCou: FMM=F IPFlag=           0 FMFlag=      100000 FMFlg1=           0
         NFxFlg=           0 DoJE=F BraDBF=F KetDBF=F FulRan=T
         wScrn=  0.000000 ICntrl=      3107 IOpCl=  0 I1Cent=           0 NGrid=           0
         NMat0=    1 NMatS0=      1 NMatT0=    0 NMatD0=    1 NMtDS0=    0 NMtDT0=    0
 Symmetry not used in FoFCou.
 End of G2Drv F.D. properties file   721 does not exist.
 End of G2Drv F.D. properties file   722 does not exist.
 End of G2Drv F.D. properties file   788 does not exist.
 Leave Link 1110 at Sat May 24 04:47:04 2025, MaxMem=  3758096384 cpu:             324.3 elap:              40.8
 (Enter /apps/easybuild-2022/easybuild/software/Compiler/NVHPC/22.11-CUDA-11.7.0/Gaussian/g16c01-CUDA-11.7.0/g16/l1002.exe)
 Minotr:  Closed shell wavefunction.
          IDoAtm=11111111111
          Direct CPHF calculation.
          Differentiating once with respect to electric field.
                with respect to dipole field.
          Differentiating once with respect to nuclear coordinates.
          Requested convergence is 1.0D-08 RMS, and 1.0D-07 maximum.
          Secondary convergence is 1.0D-12 RMS, and 1.0D-12 maximum.
          NewPWx=T KeepS1=F KeepF1=F KeepIn=T MapXYZ=F SortEE=F KeepMc=T.
         3300 words used for storage of precomputed grid.
 Keep R1 ints in memory in canonical form, NReq=1412622552.
 FoFCou: FMM=F IPFlag=           0 FMFlag=           0 FMFlg1=           0
         NFxFlg=           0 DoJE=F BraDBF=F KetDBF=F FulRan=T
         wScrn=  0.000000 ICntrl=       600 IOpCl=  0 I1Cent=           0 NGrid=           0
         NMat0=    1 NMatS0=  52650 NMatT0=    0 NMatD0=    1 NMtDS0=    0 NMtDT0=    0
 Symmetry not used in FoFCou.
 Two-electron integral symmetry not used.
          MDV=    3758096384 using IRadAn=       1.
          Solving linear equations simultaneously, MaxMat=       0.
          There are    36 degrees of freedom in the 1st order CPHF.  IDoFFX=6 NUNeed=     3.
     33 vectors produced by pass  0 Test12= 3.16D-14 2.78D-09 XBig12= 2.84D+01 3.48D+00.
 AX will form    33 AO Fock derivatives at one time.
     33 vectors produced by pass  1 Test12= 3.16D-14 2.78D-09 XBig12= 4.34D+00 3.71D-01.
     33 vectors produced by pass  2 Test12= 3.16D-14 2.78D-09 XBig12= 1.82D-01 6.59D-02.
     33 vectors produced by pass  3 Test12= 3.16D-14 2.78D-09 XBig12= 3.62D-03 9.22D-03.
     33 vectors produced by pass  4 Test12= 3.16D-14 2.78D-09 XBig12= 6.98D-05 1.69D-03.
     33 vectors produced by pass  5 Test12= 3.16D-14 2.78D-09 XBig12= 7.17D-07 1.56D-04.
     33 vectors produced by pass  6 Test12= 3.16D-14 2.78D-09 XBig12= 4.21D-09 1.77D-05.
     16 vectors produced by pass  7 Test12= 3.16D-14 2.78D-09 XBig12= 1.96D-11 1.22D-06.
      3 vectors produced by pass  8 Test12= 3.16D-14 2.78D-09 XBig12= 9.81D-14 6.54D-08.
 InvSVY:  IOpt=1 It=  1 EMax= 1.78D-15
 Solved reduced A of dimension   250 with    36 vectors.
 FullF1:  Do perturbations      1 to       3.
 Isotropic polarizability for W=    0.000000       49.25 Bohr**3.
 End of Minotr F.D. properties file   721 does not exist.
 End of Minotr F.D. properties file   722 does not exist.
 End of Minotr F.D. properties file   788 does not exist.
 Leave Link 1002 at Sat May 24 04:48:07 2025, MaxMem=  3758096384 cpu:             490.0 elap:              62.2
 (Enter /apps/easybuild-2022/easybuild/software/Compiler/NVHPC/22.11-CUDA-11.7.0/Gaussian/g16c01-CUDA-11.7.0/g16/l701.exe)
 ... and contract with generalized density number  0.
 Compute integral second derivatives.
   1 Symmetry operations used in ECPInt.
 ECPInt:  NShTT=    6786 NPrTT=   21959 LenC2=    6484 LenP2D=   16039.
 LDataN:  DoStor=T MaxTD1= 8 Len=  415
 Leave Link  701 at Sat May 24 04:48:07 2025, MaxMem=  3758096384 cpu:               0.7 elap:               0.1
 (Enter /apps/easybuild-2022/easybuild/software/Compiler/NVHPC/22.11-CUDA-11.7.0/Gaussian/g16c01-CUDA-11.7.0/g16/l702.exe)
 L702 exits ... SP integral derivatives will be done elsewhere.
 Leave Link  702 at Sat May 24 04:48:07 2025, MaxMem=  3758096384 cpu:               0.0 elap:               0.0
 (Enter /apps/easybuild-2022/easybuild/software/Compiler/NVHPC/22.11-CUDA-11.7.0/Gaussian/g16c01-CUDA-11.7.0/g16/l703.exe)
 Integral derivatives from FoFJK, PRISM(SPDF).
 Compute integral second derivatives, UseDBF=F ICtDFT=           0.
 Calling FoFJK, ICntrl=    100127 FMM=F ISym2X=0 I1Cent= 0 IOpClX= 0 NMat=1 NMatS=1 NMatT=0.
 FoFJK:  IHMeth= 1 ICntrl=  100127 DoSepK=F KAlg= 0 I1Cent=           0 FoldK=F
 IRaf=         0 NMat=       1 IRICut=       1 DoRegI=T DoRafI=F ISym2E= 0 IDoP0=0 IntGTp=1.
 FoFCou: FMM=F IPFlag=           0 FMFlag=      100000 FMFlg1=         800
         NFxFlg=           0 DoJE=F BraDBF=F KetDBF=F FulRan=T
         wScrn=  0.000000 ICntrl=    100127 IOpCl=  0 I1Cent=           0 NGrid=           0
         NMat0=    1 NMatS0=      1 NMatT0=    0 NMatD0=    1 NMtDS0=    0 NMtDT0=    0
 Symmetry not used in FoFCou.
 Leave Link  703 at Sat May 24 04:49:37 2025, MaxMem=  3758096384 cpu:             719.1 elap:              90.4
 (Enter /apps/easybuild-2022/easybuild/software/Compiler/NVHPC/22.11-CUDA-11.7.0/Gaussian/g16c01-CUDA-11.7.0/g16/l716.exe)
 Dipole        = 2.60605330D+00 1.06479677D+00 3.18878736D-01
 Polarizability= 6.07669810D+01 7.70664151D+00 4.94140603D+01
                 1.15231962D+00 1.20896126D+00 3.75613595D+01
 -------------------------------------------------------------------
 Center     Atomic                   Forces (Hartrees/Bohr)
 Number     Number              X              Y              Z
 -------------------------------------------------------------------
      1        6          -0.001767664   -0.002211112   -0.002810930
      2        8           0.000072875   -0.000767900   -0.002816279
      3        6           0.003684864    0.000520708    0.004920282
      4        6          -0.002358690   -0.000240381   -0.000684642
      5        9          -0.000741118   -0.000455562   -0.000722638
      6        9           0.000273865   -0.000070447    0.000211179
      7        9           0.000564795    0.000190628    0.000390731
      8        9          -0.000212132   -0.000736651   -0.001000965
      9        9          -0.001025228    0.000922943   -0.000533441
     10        8           0.001022283    0.000516686    0.009622173
     11        1           0.000486150    0.002331088   -0.006575470
 -------------------------------------------------------------------
 Cartesian Forces:  Max     0.009622173 RMS     0.002564819
 Force constants in Cartesian coordinates: 
                1             2             3             4             5 
      1  0.649360D+00
      2  0.113872D+00  0.860089D+00
      3 -0.131725D-01  0.505593D-01  0.181802D+00
      4 -0.122174D+00  0.110041D+00  0.898255D-02  0.228535D+00
      5  0.126711D+00 -0.522255D+00 -0.320452D-01 -0.102596D+00  0.689754D+00
      6  0.170382D-01 -0.302849D-01 -0.488001D-01 -0.704559D-02  0.398349D-01
      7 -0.212669D-01  0.857674D-01  0.236722D-01 -0.804339D-01 -0.189032D-01
[...]
                6             7             8             9            10 
      6  0.779035D-01
      7 -0.588480D-02  0.884342D-01
      8 -0.496997D-02 -0.190446D+00  0.612901D+00
      9  0.336179D-01 -0.339352D-01 -0.776283D-02  0.610621D+00
     10  0.963647D-02  0.123508D+00  0.798589D-01  0.129433D-01  0.107552D+00
     11  0.411448D-02  0.234567D-02 -0.227596D+00 -0.105725D-01  0.810205D-01
     12 -0.569638D-01  0.787635D-02 -0.733486D-02 -0.652954D-01 -0.191707D-01
     13 -0.890380D-03  0.158588D-01  0.443266D-01  0.460457D-02 -0.282610D-01
     14  0.881268D-03  0.740052D-01 -0.311348D-02  0.457324D-02 -0.515223D-01
     15  0.290446D-03  0.657701D-02  0.333500D-02 -0.262547D-01 -0.411667D-02
     16 -0.359414D-01 -0.144165D-01 -0.439952D-02  0.327105D-03 -0.633358D-01
     17 -0.131276D-01 -0.894147D-02  0.657588D-04 -0.331900D-01 -0.224779D-01
     18 -0.120322D-01 -0.685296D-02 -0.331876D-02 -0.157018D-01 -0.323017D-01
     19  0.295714D-01 -0.148651D-01 -0.462096D-02 -0.105503D-02 -0.712816D-01
     20  0.119840D-01 -0.124531D-01 -0.482516D-02  0.336943D-01 -0.397233D-01
     21 -0.265916D-02  0.531287D-02  0.431649D-02 -0.103458D-01  0.463287D-01
     22 -0.849500D-02 -0.813938D-01  0.465281D-01  0.827997D-01 -0.229693D-01
     23  0.413999D-02  0.455364D-01 -0.134133D+00 -0.997291D-01 -0.454676D-03
     24  0.232734D-02  0.701459D-01 -0.952074D-01 -0.249281D+00  0.873626D-04
     25  0.101946D-01 -0.703933D-01  0.475171D-01 -0.630689D-01 -0.227355D-01
     26 -0.399433D-02  0.445963D-01 -0.161751D+00  0.115791D+00 -0.242389D-02
     27  0.317695D-02 -0.506861D-01  0.111392D+00 -0.232763D+00 -0.135761D-02
     28 -0.227517D-02  0.569425D-01 -0.179018D-01  0.680456D-03  0.376682D-02
     29 -0.821460D-02 -0.110061D-01 -0.578589D-02 -0.163166D-02  0.424785D-01
     30 -0.596105D-02  0.100053D-02 -0.188298D-02  0.124489D-01  0.267875D-02
     31 -0.995933D-03 -0.409842D-02 -0.263740D-02 -0.368304D-03  0.429527D-02
     32 -0.220809D-03 -0.122725D-01  0.272216D-02 -0.371434D-03 -0.487191D-03
     33  0.866638D-02 -0.100475D-02  0.154038D-04  0.704365D-03  0.783379D-04
               11            12            13            14            15 
     11  0.712208D+00
     12  0.353805D-02  0.704598D+00
     13 -0.207638D-01 -0.210732D-02  0.102731D+00
     14  0.375945D-02 -0.117656D-02  0.403392D-02  0.377261D-01
     15  0.707995D-04 -0.107197D-01  0.265701D-02 -0.349932D-03  0.449221D-01
     16 -0.283814D-01 -0.482349D-01 -0.564709D-02  0.161593D-01  0.106383D-01
     17 -0.177114D+00 -0.142076D+00  0.110548D-01 -0.237047D-02 -0.262063D-02
     18 -0.138492D+00 -0.310179D+00  0.958834D-02 -0.602918D-02  0.177071D-02
     19 -0.473471D-01  0.613529D-01 -0.406183D-02  0.169048D-01 -0.898934D-02
     20 -0.215649D+00  0.151771D+00  0.119995D-01 -0.356747D-02  0.295068D-02
     21  0.147670D+00 -0.264636D+00 -0.860012D-02  0.677276D-02  0.141755D-02
     22  0.104749D-02  0.253672D-02 -0.153611D-01 -0.300992D-01 -0.264817D-01
     23  0.584396D-02 -0.243091D-01 -0.190556D-01 -0.137977D-01 -0.178284D-01
     24 -0.138685D-02 -0.113005D-01 -0.222100D-01 -0.228249D-01 -0.995642D-02
     25  0.130750D-02 -0.344889D-02 -0.189171D-01 -0.348652D-01  0.212750D-01
     26  0.217699D-02  0.259847D-01 -0.230291D-01 -0.186787D-01  0.148131D-01
     27  0.330987D-02 -0.797698D-02  0.185156D-01  0.188308D-01 -0.145163D-02
     28  0.350188D-02  0.114573D-03 -0.138329D-01 -0.157903D-02 -0.654561D-03
     29  0.205651D-02  0.145476D-02 -0.308971D-02  0.294222D-02  0.790319D-04
     30 -0.153207D-03  0.638921D-02 -0.728730D-03  0.143457D-03 -0.219891D-03
     31 -0.119062D-02  0.347983D-04  0.972808D-03  0.874850D-03  0.108953D-03
     32 -0.137572D-02 -0.208526D-03  0.326628D-02  0.380422D-03  0.176964D-03
     33 -0.235038D-03  0.156832D-02  0.262929D-03  0.798619D-04 -0.278342D-03
               16            17            18            19            20 
     16  0.896151D-01
     17  0.363238D-01  0.163105D+00
     18  0.632712D-01  0.172749D+00  0.411584D+00
     19  0.128929D-01  0.282240D-02 -0.104502D-02  0.101645D+00
     20  0.289841D-02  0.257709D-01 -0.195445D-02  0.608725D-01  0.211869D+00
     21  0.905025D-02  0.162031D-01 -0.800589D-01 -0.803496D-01 -0.194681D+00
     22  0.287717D-02  0.311995D-03  0.697628D-03  0.316118D-02  0.148328D-02
     23  0.170591D-02 -0.520575D-02 -0.216950D-02  0.485248D-03  0.665468D-03
     24  0.619975D-03 -0.153985D-02  0.543730D-05 -0.659318D-03 -0.273601D-02
     25  0.300349D-02  0.108608D-02  0.149166D-02  0.296413D-02  0.278926D-03
     26  0.548759D-03  0.576925D-03 -0.191349D-02  0.160396D-02 -0.560390D-02
     27  0.521931D-03  0.222916D-02  0.567722D-02 -0.178761D-03  0.839638D-03
     28 -0.166446D-02 -0.474325D-02 -0.348622D-02 -0.177655D-02 -0.505814D-02
     29 -0.692926D-02 -0.142638D-02 -0.508137D-02 -0.708234D-02 -0.187443D-02
     30  0.114720D-02  0.914938D-03 -0.818992D-05 -0.222163D-02 -0.154787D-02
     31 -0.734612D-03  0.375344D-03 -0.158742D-03 -0.704260D-03  0.352182D-03
     32  0.182559D-03  0.910520D-03  0.656907D-03  0.297637D-03  0.980081D-03
     33  0.520685D-03  0.298883D-04  0.310400D-05 -0.542318D-03  0.129362D-03
               21            22            23            24            25 
     21  0.351833D+00
     22 -0.153960D-02  0.121450D+00
     23  0.133428D-02 -0.369105D-01  0.127830D+00
     24  0.539215D-02 -0.890583D-01  0.139359D+00  0.331541D+00
     25 -0.435036D-03  0.152620D-01 -0.822129D-02  0.652609D-02  0.108435D+00
     26  0.157419D-02 -0.718746D-02  0.199077D-01 -0.130957D-02 -0.347096D-01
     27  0.319881D-03 -0.212514D-02  0.996175D-02 -0.504421D-01  0.676490D-01
     28  0.268424D-02 -0.777081D-02  0.554757D-02  0.970507D-02 -0.756422D-02
     29  0.424947D-02  0.507921D-03  0.210973D-02  0.101564D-02 -0.205867D-03
     30  0.549265D-03 -0.644818D-02  0.122440D-02  0.219697D-02  0.570783D-02
     31  0.151400D-03  0.348745D-03  0.109942D-02  0.302129D-03  0.438180D-03
     32 -0.507721D-03  0.128592D-02 -0.127072D-02 -0.143485D-02  0.129954D-02
     33 -0.993087D-04  0.111360D-02 -0.907988D-03 -0.156198D-02 -0.791225D-03
               26            27            28            29            30 
     26  0.167740D+00
     27 -0.165001D+00  0.304723D+00
     28  0.689572D-02 -0.969931D-02  0.450904D+00
     29  0.238007D-02 -0.980695D-03  0.853487D-01  0.742682D+00
     30 -0.709909D-03  0.168307D-02  0.221904D-01  0.500114D-01  0.358113D-01
     31  0.105013D-02 -0.177705D-04 -0.756684D-01  0.150447D+00  0.750421D-02
     32 -0.159126D-02  0.154633D-02  0.102669D+00 -0.469598D+00 -0.258665D-01
     33  0.100354D-02 -0.133475D-02  0.435253D-02 -0.239905D-01 -0.153000D-01
               31            32            33 
     31  0.745124D-01
     32 -0.989168D-01  0.497394D+00
     33 -0.417124D-02  0.278448D-01  0.154943D-01
 Red2BG is reusing G-inverse.
 Leave Link  716 at Sat May 24 04:56:31 2025, MaxMem=  3758096384 cpu:               0.0 elap:               0.0
 (Enter /apps/easybuild-2022/easybuild/software/Compiler/NVHPC/22.11-CUDA-11.7.0/Gaussian/g16c01-CUDA-11.7.0/g16/l9999.exe)

 ----------------------------------------------------------------------

 Electric dipole moment (input orientation):
 (Debye = 10**-18 statcoulomb cm , SI units = C m)
                  (au)            (Debye)         (10**-30 SI)
   Tot        0.285368D+01      0.725333D+01      0.241945D+02
   x          0.263014D+01      0.668515D+01      0.222993D+02
   y          0.109257D+01      0.277704D+01      0.926320D+01
   z          0.179285D+00      0.455696D+00      0.152004D+01

 Dipole polarizability, Alpha (input orientation).
 (esu units = cm**3 , SI units = C**2 m**2 J**-1)
 Alpha(0;0):
               (au)            (10**-24 esu)      (10**-40 SI)
   iso        0.491293D+02      0.728021D+01      0.810032D+01
   aniso      0.242904D+02      0.359946D+01      0.400494D+01
   xx         0.605229D+02      0.896857D+01      0.997888D+01
   yx         0.774178D+01      0.114721D+01      0.127645D+01
   yy         0.494333D+02      0.732526D+01      0.815045D+01
   zx         0.146048D+01      0.216421D+00      0.240801D+00
   zy         0.111094D+01      0.164625D+00      0.183170D+00
   zz         0.374316D+02      0.554679D+01      0.617164D+01

 ----------------------------------------------------------------------

 Dipole orientation:
     6          0.46396529         -1.30414191          3.01582255
     8          1.42408820         -3.35140469          2.28968415
     6         -0.10047070         -0.10157564          0.08311381
     6          1.09162304         -2.64439223         -0.65010568
     9         -0.09256572         -0.11847430         -3.40525350
     9          3.36051726         -2.67927321         -1.53595041
     9         -0.33283439         -4.41121225         -1.53505224
     9         -2.58383482          0.20228144          0.08374228
     9          1.25477062          2.00152938          0.08389409
     8          0.25644149         -0.85402355          5.39316400
     1         -0.51165019          0.78198997          5.66825309

 Electric dipole moment (dipole orientation):
 (Debye = 10**-18 statcoulomb cm , SI units = C m)
                  (au)            (Debye)         (10**-30 SI)
   Tot        0.285368D+01      0.725333D+01      0.241945D+02
   x          0.000000D+00      0.000000D+00      0.000000D+00
   y          0.000000D+00      0.000000D+00      0.000000D+00
   z          0.285368D+01      0.725333D+01      0.241945D+02

 Dipole polarizability, Alpha (dipole orientation).
 (esu units = cm**3 , SI units = C**2 m**2 J**-1)
 Alpha(0;0):
               (au)            (10**-24 esu)      (10**-40 SI)
   iso        0.491293D+02      0.728021D+01      0.810032D+01
   aniso      0.242904D+02      0.359946D+01      0.400494D+01
   xx         0.387926D+02      0.574847D+01      0.639604D+01
   yx        -0.318784D+01     -0.472389D+00     -0.525603D+00
   yy         0.441027D+02      0.653535D+01      0.727155D+01
   zx        -0.664672D+00     -0.984942D-01     -0.109590D+00
   zy         0.141385D+01      0.209510D+00      0.233112D+00
   zz         0.644925D+02      0.955680D+01      0.106334D+02

 ----------------------------------------------------------------------
 Unable to Open any file for archive entry.
 1\1\GINC-SPARTAN-BM154\Freq\RM062X\def2TZVPP\C3H1F5O2\AKHALILOV\24-May
 -2025\0\\#P M062X/Def2TZVPP Symm(None) scf(xqc) pop(None) opt(NoFreeze
 ,TS,CalcAll,NoEigentest,MaxCycle=999)\\Gaussian input prepared by ASE\
 \0,1\C,1.7493079159,-0.0654428365,0.1381993057\O,1.8568377196,-1.31519
 57296,0.06056347\C,0.047709886,-0.01184695,0.0723447417\C,0.2634941049
 ,-1.5298586713,-0.0182638694\F,-1.6498442241,-0.7276975284,-0.04406115
 39\F,0.0785985611,-2.123876636,-1.1472433717\F,-0.0090165936,-2.264894
 1179,1.0050208002\F,-0.2691769762,0.5632099563,1.2220013468\F,-0.17744
 51931,0.7096258209,-1.0147087373\O,2.8076677265,0.6580146247,0.2272556
 089\H,2.572803503,1.5950358325,0.279557711\\Version=ES64L-G16RevC.01\H
 F=-764.4924102\RMSD=5.564e-09\RMSF=2.943e-05\ZeroPoint=0.0498645\Therm
 al=0.0583845\ETot=-764.4340257\HTot=-764.4330815\GTot=-764.4761458\Dip
 ole=2.6301414,1.0925709,0.1792848\DipoleDeriv=0.5771216,0.5455001,0.05
 0132,0.5914046,1.6378549,0.1146292,0.0504579,0.1129323,0.2376389,-1.27
 83496,-0.2278615,-0.0580447,-0.4564053,-1.1893367,-0.080935,-0.0717572
 ,-0.0723714,-0.2291394,2.6458333,0.3084278,0.0693081,0.3298279,1.16661
 69,-0.0039191,0.0712773,-0.0053738,1.4322468,2.1545195,0.4180745,0.049
 7391,0.0688432,1.3981024,-0.0100427,0.027062,0.0030401,1.6008041,-1.64
 60639,-0.1624211,-0.0572153,-0.1077958,-0.678636,-0.0161234,-0.0536487
 ,-0.0183479,-0.5046193,-0.300998,-0.0877802,-0.054106,-0.0897749,-0.49
 07245,-0.3091342,-0.127518,-0.3508355,-0.7044854,-0.3165893,-0.1248647
 ,0.0684847,-0.1328674,-0.5787509,0.3155973,0.1409663,0.3581166,-0.6006
 308,-0.4854398,0.0514519,0.1243374,0.063628,-0.4106324,-0.2798442,0.13
 64426,-0.2779154,-0.695989,-0.4683387,0.0421368,-0.1024168,0.0556411,-
 0.4889698,0.3134302,-0.1137618,0.3114596,-0.6380137,-1.213076,-0.83226
 93,-0.094276,-0.5055852,-0.8534024,-0.0603396,-0.0708884,-0.0725015,-0
 .2459986,0.3313808,0.0696058,0.0040575,0.183084,0.4878786,0.0166814,0.
 0113682,0.011797,0.3481864\Polar=60.5228856,7.7417833,49.4333256,1.460
 4834,1.1109422,37.4315895\PG=Unknown\NImag=1\\0.65215263,0.11182661,0.
 85489205,0.02632633,0.04885857,0.17987679,-0.12097068,0.10706892,0.004
 02595,0.23274348,0.12536912,-0.51554802,-0.02564908,-0.09925442,0.6834
 9918,0.00522161,-0.02640059,-0.04836625,-0.00014137,0.03580820,0.07790
 347,-0.01991793,0.08710002,0.00745111,-0.07965813,-0.01846451,-0.00588
 480,0.08843417,-0.01757395,-0.02471866,0.00141776,0.01934904,-0.053765
 41,-0.00496997,-0.19044603,0.61290080,0.00042660,0.00570055,-0.0577495
 0,-0.00335432,-0.00650134,0.03361794,-0.03393519,-0.00776283,0.6106205
 5,-0.06815576,-0.17364319,-0.01480635,0.03761727,0.08737448,0.00963647
 ,0.12350772,0.07985886,0.01294330,0.10755194,-0.06164258,-0.06654275,-
 0.00786382,0.07010255,-0.03776696,0.00411448,0.00234567,-0.22759608,-0
 .01057245,0.08102053,0.71220779,-0.00749242,-0.01249523,0.01451532,0.0
 0853875,0.00485151,-0.05696384,0.00787635,-0.00733486,-0.06529537,-0.0
 1917065,0.00353805,0.70459848,-0.01582446,-0.00599238,-0.00109187,-0.0
 1765769,-0.00275052,-0.00089038,0.01585885,0.04432661,0.00460457,-0.02
 826101,-0.02076385,-0.00210732,0.10273150,-0.00268147,-0.01147212,-0.0
 0090085,0.00876912,0.00819180,0.00088127,0.07400519,-0.00311348,0.0045
 7324,-0.05152227,0.00375945,-0.00117656,0.00403392,0.03772610,-0.00085
 463,-0.00102742,0.00047990,-0.00015946,0.00040082,0.00029045,0.0065770
 1,0.00333500,-0.02625472,-0.00411667,0.00007080,-0.01071971,0.00265701
 ,-0.00034993,0.04492212,0.00079777,0.01548526,-0.00192045,-0.02338793,
 -0.03359386,-0.03594141,-0.01441652,-0.00439952,0.00032711,-0.06333585
 ,-0.02838144,-0.04823486,-0.00564709,0.01615934,0.01063834,0.08961510,
 -0.00044388,-0.00157232,0.00042797,-0.01536800,-0.00274037,-0.01312761
 ,-0.00894147,0.00006576,-0.03319001,-0.02247787,-0.17711417,-0.1420756
 3,0.01105482,-0.00237047,-0.00262063,0.03632383,0.16310534,-0.00238593
 ,0.00869782,-0.00105996,-0.02881834,-0.02314465,-0.01203223,-0.0068529
 6,-0.00331876,-0.01570180,-0.03230165,-0.13849198,-0.31017937,0.009588
 34,-0.00602918,0.00177071,0.06327123,0.17274864,0.41158395,0.00036782,
 0.01573592,0.00411666,-0.02834132,-0.03967200,0.02957140,-0.01486512,-
 0.00462096,-0.00105503,-0.07128160,-0.04734714,0.06135294,-0.00406183,
 0.01690480,-0.00898934,0.01289292,0.00282240,-0.00104502,0.10164462,-0
 .00070923,-0.00049061,-0.00044976,-0.01994106,-0.00727495,0.01198397,-
 0.01245306,-0.00482516,0.03369431,-0.03972327,-0.21564901,0.15177081,0
 .01199947,-0.00356747,0.00295068,0.00289841,0.02577091,-0.00195445,0.0
 6087248,0.21186907,0.00247258,-0.00735359,-0.00171336,0.02492430,0.020
 42151,-0.00265916,0.00531287,0.00431649,-0.01034582,0.04632871,0.14767
 015,-0.26463558,-0.00860012,0.00677276,0.00141755,0.00905025,0.0162031
 3,-0.08005886,-0.08034960,-0.19468067,0.35183325,-0.01521101,0.0072873
 2,0.04700026,-0.00039294,0.01574519,-0.00849500,-0.08139383,0.04652811
 ,0.08279966,-0.02296926,0.00104749,0.00253672,-0.01536109,-0.03009924,
 -0.02648165,0.00287717,0.00031199,0.00069763,0.00316118,0.00148328,-0.
 00153960,0.12144980,0.00339566,-0.00150342,-0.01107559,0.00687179,-0.0
 0044654,0.00413999,0.04553645,-0.13413294,-0.09972911,-0.00045468,0.00
 584396,-0.02430906,-0.01905556,-0.01379772,-0.01782837,0.00170591,-0.0
 0520575,-0.00216950,0.00048525,0.00066547,0.00133428,-0.03691052,0.127
 83029,0.02003373,-0.00720247,-0.01892041,0.00450736,-0.00673294,0.0023
 2734,0.07014589,-0.09520741,-0.24928132,0.00008736,-0.00138685,-0.0113
 0049,-0.02221000,-0.02282488,-0.00995642,0.00061997,-0.00153985,0.0000
 0544,-0.00065932,-0.00273601,0.00539215,-0.08905829,0.13935920,0.33154
 082,-0.00967924,0.01247181,-0.04510013,-0.00081310,0.01404099,0.010194
 58,-0.07039326,0.04751706,-0.06306886,-0.02273554,0.00130750,-0.003448
 89,-0.01891711,-0.03486520,0.02127499,0.00300349,0.00108608,0.00149166
 ,0.00296413,0.00027893,-0.00043504,0.01526204,-0.00822129,0.00652609,0
 .10843463,0.00490696,-0.00430268,0.01376153,0.00774819,-0.00085357,-0.
 00399433,0.04459628,-0.16175110,0.11579074,-0.00242389,0.00217699,0.02
 598474,-0.02302909,-0.01867873,0.01481306,0.00054876,0.00057692,-0.001
 91349,0.00160396,-0.00560390,0.00157419,-0.00718746,0.01990765,-0.0013
 0957,-0.03470956,0.16773960,-0.01878002,0.01033209,-0.02161092,-0.0038
 4181,0.00753939,0.00317695,-0.05068606,0.11139215,-0.23276325,-0.00135
 761,0.00330987,-0.00797698,0.01851556,0.01883081,-0.00145163,0.0005219
 3,0.00222916,0.00567722,-0.00017876,0.00083964,0.00031988,-0.00212514,
 0.00996175,-0.05044211,0.06764899,-0.16500050,0.30472253,-0.41187831,-
 0.13115813,-0.02361201,0.00854192,-0.04352267,-0.00227517,0.05694247,-
 0.01790182,0.00068046,0.00376682,0.00350188,0.00011457,-0.01383287,-0.
 00157903,-0.00065456,-0.00166446,-0.00474325,-0.00348622,-0.00177655,-
 0.00505814,0.00268424,-0.00777081,0.00554757,0.00970507,-0.00756422,0.
 00689572,-0.00969931,0.45090442,-0.16766624,-0.19323087,-0.01691149,-0
 .08280250,-0.08025434,-0.00821460,-0.01100606,-0.00578589,-0.00163166,
 0.04247849,0.00205651,0.00145476,-0.00308971,0.00294222,0.00007903,-0.
 00692926,-0.00142638,-0.00508137,-0.00708234,-0.00187443,0.00424947,0.
 00050792,0.00210973,0.00101564,-0.00020587,0.00238007,-0.00098069,0.08
 534871,0.74268175,-0.02597102,-0.01545006,-0.03758958,-0.00485938,-0.0
 0668372,-0.00596105,0.00100053,-0.00188298,0.01244894,0.00267875,-0.00
 015321,0.00638921,-0.00072873,0.00014346,-0.00021989,0.00114720,0.0009
 1494,-0.00000819,-0.00222163,-0.00154787,0.00054927,-0.00644818,0.0012
 2440,0.00219697,0.00570783,-0.00070991,0.00168307,0.02219041,0.0500114
 0,0.03581127,0.00831917,-0.04618217,-0.00238950,-0.00768088,-0.0052717
 8,-0.00099593,-0.00409842,-0.00263740,-0.00036830,0.00429527,-0.001190
 62,0.00003480,0.00097281,0.00087485,0.00010895,-0.00073461,0.00037534,
 -0.00015874,-0.00070426,0.00035218,0.00015140,0.00034875,0.00109942,0.
 00030213,0.00043818,0.00105013,-0.00001777,-0.07566841,0.15044686,0.00
 750421,0.07451241,0.00521900,-0.03551061,-0.00161525,-0.00254364,0.006
 95919,-0.00022081,-0.01227247,0.00272216,-0.00037143,-0.00048719,-0.00
 137572,-0.00020853,0.00326628,0.00038042,0.00017696,0.00018256,0.00091
 052,0.00065691,0.00029764,0.00098008,-0.00050772,0.00128592,-0.0012707
 2,-0.00143485,0.00129954,-0.00159126,0.00154633,0.10266917,-0.46959836
 ,-0.02586646,-0.09891681,0.49739429,0.00100315,-0.00365969,-0.00786204
 ,-0.00082169,-0.00030971,0.00866638,-0.00100475,0.00001540,0.00070436,
 0.00007834,-0.00023504,0.00156832,0.00026293,0.00007986,-0.00027834,0.
 00052068,0.00002989,0.00000310,-0.00054232,0.00012936,-0.00009931,0.00
 111360,-0.00090799,-0.00156198,-0.00079122,0.00100354,-0.00133475,0.00
 435253,-0.02399047,-0.01530002,-0.00417124,0.02784484,0.01549427\\0.00
 001085,-0.00000132,0.00008601,0.00001034,0.00003944,-0.00000537,0.0001
 0174,0.00000405,-0.00001837,-0.00004710,-0.00001230,-0.00000093,-0.000
 00300,-0.00000109,-0.00001093,-0.00000290,-0.00000602,0.00000689,-0.00
 000240,0.00000030,0.00000066,-0.00000924,0.00000489,0.00000953,-0.0000
 0516,0.00000542,-0.00001816,-0.00004132,-0.00002658,-0.00005352,-0.000
 01182,-0.00000680,0.00000419\\\@
 The archive entry for this job was punched.


 THE MOST BEAUTIFUL EXPERIENCE WE CAN HAVE IS THE MYSTERIOUS.
 IT IS THE FUNDAMENTAL EMOTION WHICH STANDS AT AT THE CRADLE 
 OF TRUE ART AND TRUE SCIENCE.

                                    -- ALBERT EINSTEIN
 Job cpu time:       0 days  1 hours 47 minutes 28.3 seconds.
 Elapsed time:       0 days  0 hours 14 minutes 19.8 seconds.
 File lengths (MBytes):  RWF=    123 Int=      0 D2E=      0 Chk=      9 Scr=      1
 Normal termination of Gaussian 16 at Sat May 24 04:56:31 2025.
done
