 Entering Gaussian System, Link 0=g16
 Initial command:
 /apps/easybuild-2022/easybuild/software/Compiler/NVHPC/22.11-CUDA-11.7.0/Gaussian/g16c01-CUDA-11.7.0/g16/l1.exe "/tmp/Gau-73991.inp" -scrdir="/tmp/"
 Entering Link 1 = /apps/easybuild-2022/easybuild/software/Compiler/NVHPC/22.11-CUDA-11.7.0/Gaussian/g16c01-CUDA-11.7.0/g16/l1.exe PID=     73992.
  
 Copyright (c) 1988-2019, Gaussian, Inc.  All Rights Reserved.
  
 This is part of the Gaussian(R) 16 program.  It is based on
 the Gaussian(R) 09 system (copyright 2009, Gaussian, Inc.),
 the Gaussian(R) 03 system (copyright 2003, Gaussian, Inc.),
 the Gaussian(R) 98 system (copyright 1998, Gaussian, Inc.),
 the Gaussian(R) 94 system (copyright 1995, Gaussian, Inc.),
 the Gaussian 92(TM) system (copyright 1992, Gaussian, Inc.),
 the Gaussian 90(TM) system (copyright 1990, Gaussian, Inc.),
 the Gaussian 88(TM) system (copyright 1988, Gaussian, Inc.),
 the Gaussian 86(TM) system (copyright 1986, Carnegie Mellon
 University), and the Gaussian 82(TM) system (copyright 1983,
 Carnegie Mellon University). Gaussian is a federally registered
 trademark of Gaussian, Inc.
  
 This software contains proprietary and confidential information,
 including trade secrets, belonging to Gaussian, Inc.
  
 This software is provided under written license and may be
 used, copied, transmitted, or stored only in accord with that
 written license.
  
 The following legend is applicable only to US Government
 contracts under FAR:
  
                    RESTRICTED RIGHTS LEGEND
  
 Use, reproduction and disclosure by the US Government is
 subject to restrictions as set forth in subparagraphs (a)
 and (c) of the Commercial Computer Software - Restricted
 Rights clause in FAR 52.227-19.
  
 Gaussian, Inc.
 340 Quinnipiac St., Bldg. 40, Wallingford CT 06492
  
  
 ---------------------------------------------------------------
 Warning -- This program may not be used in any manner that
 competes with the business of Gaussian, Inc. or will provide
 assistance to any competitor of Gaussian, Inc.  The licensee
 of this program is prohibited from giving any competitor of
 Gaussian, Inc. access to this program.  By using this program,
 the user acknowledges that Gaussian, Inc. is engaged in the
 business of creating and licensing software in the field of
 computational chemistry and represents and warrants to the
 licensee that it is not a competitor of Gaussian, Inc. and that
 it will not use this program in any manner prohibited above.
 ---------------------------------------------------------------
  

 Cite this work as:
 Gaussian 16, Revision C.01,
 M. J. Frisch, G. W. Trucks, H. B. Schlegel, G. E. Scuseria, 
 M. A. Robb, J. R. Cheeseman, G. Scalmani, V. Barone, 
 G. A. Petersson, H. Nakatsuji, X. Li, M. Caricato, A. V. Marenich, 
 J. Bloino, B. G. Janesko, R. Gomperts, B. Mennucci, H. P. Hratchian, 
 J. V. Ortiz, A. F. Izmaylov, J. L. Sonnenberg, D. Williams-Young, 
 F. Ding, F. Lipparini, F. Egidi, J. Goings, B. Peng, A. Petrone, 
 T. Henderson, D. Ranasinghe, V. G. Zakrzewski, J. Gao, N. Rega, 
 G. Zheng, W. Liang, M. Hada, M. Ehara, K. Toyota, R. Fukuda, 
 J. Hasegawa, M. Ishida, T. Nakajima, Y. Honda, O. Kitao, H. Nakai, 
 T. Vreven, K. Throssell, J. A. Montgomery, Jr., J. E. Peralta, 
 F. Ogliaro, M. J. Bearpark, J. J. Heyd, E. N. Brothers, K. N. Kudin, 
 V. N. Staroverov, T. A. Keith, R. Kobayashi, J. Normand, 
 K. Raghavachari, A. P. Rendell, J. C. Burant, S. S. Iyengar, 
 J. Tomasi, M. Cossi, J. M. Millam, M. Klene, C. Adamo, R. Cammi, 
 J. W. Ochterski, R. L. Martin, K. Morokuma, O. Farkas, 
 J. B. Foresman, and D. J. Fox, Gaussian, Inc., Wallingford CT, 2019.
 
 ******************************************
 Gaussian 16:  ES64L-G16RevC.01  3-Jul-2019
                24-May-2025 
 ******************************************
 %mem=28GB
 %nprocshared=8
 Will use up to    8 processors via shared memory.
 -----------------------------------------------------------------
 #P M062X/Def2TZVPP Symm(None) scf(xqc) pop(None) freq opt(CalcFC)
 -----------------------------------------------------------------
 1/10=4,18=20,19=15,26=3,38=1/1,3;
 2/9=110,12=2,15=3,17=6,18=5,40=1/2;
 3/5=44,7=202,11=2,25=1,30=1,71=2,74=-55,140=1/1,2,3;
 4//1;
 5/5=2,8=3,13=1,38=5/2,8;
 8/6=4,10=90,11=11/1;
 11/6=1,8=1,9=11,15=111,16=1,31=1/1,2,10;
 10/6=1,13=1,31=1/2;
 7/10=1,25=1,30=1/1,2,3,16;
 1/10=4,18=20,19=15,26=3/3(2);
 2/9=110,15=3/2;
 99//99;
 2/9=110,15=3/2;
 3/5=44,7=202,11=2,25=1,30=1,71=1,74=-55/1,2,3;
 4/5=5,16=3,69=1/1;
 5/5=2,8=3,13=1,38=5/2,8;
 7/30=1/1,2,3,16;
 1/18=20,19=15,26=3/3(-5);
 2/9=110,15=3/2;
 99/9=1/99;
 Leave Link    1 at Sat May 24 08:42:07 2025, MaxMem=  3758096384 cpu:               0.0 elap:               0.0
 (Enter /apps/easybuild-2022/easybuild/software/Compiler/NVHPC/22.11-CUDA-11.7.0/Gaussian/g16c01-CUDA-11.7.0/g16/l101.exe)
 ------------------------------
 Gaussian input prepared by ASE
 ------------------------------
 Symbolic Z-matrix:
 Charge =  0 Multiplicity = 1
 C                     0.70867   1.97278   1.00732 
 O                     0.96845   0.        0. 
 C                    -0.81042   1.6976    0.95635 
 C                    -1.80893   2.87199   0.8875 
 F                    -3.05304   2.41684   0.85058 
 F                    -1.67722   3.65371   1.95463 
 F                    -1.59301   3.59845  -0.20466 
 F                    -1.02353   0.93653  -0.1279 
 F                    -1.10674   0.99376   2.05958 
 O                     1.20869   1.42288   0. 
 H                     0.        0.        0. 
 
 ITRead=  0  0  0  0  0  0  0  0  0  0  0
 MicOpt= -1 -1 -1 -1 -1 -1 -1 -1 -1 -1 -1
 NAtoms=     11 NQM=       11 NQMF=       0 NMMI=      0 NMMIF=      0
                NMic=       0 NMicF=      0.
                    Isotopes and Nuclear Properties:
 (Nuclear quadrupole moments (NQMom) in fm**2, nuclear magnetic moments (NMagM)
  in nuclear magnetons)

  Atom         1           2           3           4           5           6           7           8           9          10
 IAtWgt=          12          16          12          12          19          19          19          19          19          16
 AtmWgt=  12.0000000  15.9949146  12.0000000  12.0000000  18.9984032  18.9984032  18.9984032  18.9984032  18.9984032  15.9949146
 NucSpn=           0           0           0           0           1           1           1           1           1           0
 AtZEff=  -0.0000000  -0.0000000  -0.0000000  -0.0000000  -0.0000000  -0.0000000  -0.0000000  -0.0000000  -0.0000000  -0.0000000
 NQMom=    0.0000000   0.0000000   0.0000000   0.0000000   0.0000000   0.0000000   0.0000000   0.0000000   0.0000000   0.0000000
 NMagM=    0.0000000   0.0000000   0.0000000   0.0000000   2.6288670   2.6288670   2.6288670   2.6288670   2.6288670   0.0000000
 AtZNuc=   6.0000000   8.0000000   6.0000000   6.0000000   9.0000000   9.0000000   9.0000000   9.0000000   9.0000000   8.0000000

  Atom        11
 IAtWgt=           1
 AtmWgt=   1.0078250
 NucSpn=           1
 AtZEff=  -0.0000000
 NQMom=    0.0000000
 NMagM=    2.7928460
 AtZNuc=   1.0000000
 Leave Link  101 at Sat May 24 08:42:07 2025, MaxMem=  3758096384 cpu:               0.2 elap:               0.2
 (Enter /apps/easybuild-2022/easybuild/software/Compiler/NVHPC/22.11-CUDA-11.7.0/Gaussian/g16c01-CUDA-11.7.0/g16/l103.exe)

 GradGradGradGradGradGradGradGradGradGradGradGradGradGradGradGradGradGrad
 Berny optimization.
 Initialization pass.
                           ----------------------------
                           !    Initial Parameters    !
                           ! (Angstroms and Degrees)  !
 --------------------------                            --------------------------
 ! Name  Definition              Value          Derivative Info.                !
 --------------------------------------------------------------------------------
 ! R1    R(1,3)                  1.5447         calculate D2E/DX2 analytically  !
 ! R2    R(1,10)                 1.2518         calculate D2E/DX2 analytically  !
 ! R3    R(2,10)                 1.443          calculate D2E/DX2 analytically  !
 ! R4    R(2,11)                 0.9685         calculate D2E/DX2 analytically  !
 ! R5    R(3,4)                  1.543          calculate D2E/DX2 analytically  !
 ! R6    R(3,8)                  1.3417         calculate D2E/DX2 analytically  !
 ! R7    R(3,9)                  1.3418         calculate D2E/DX2 analytically  !
 ! R8    R(4,5)                  1.3253         calculate D2E/DX2 analytically  !
 ! R9    R(4,6)                  1.3294         calculate D2E/DX2 analytically  !
 ! R10   R(4,7)                  1.3294         calculate D2E/DX2 analytically  !
 ! A1    A(3,1,10)             106.739          calculate D2E/DX2 analytically  !
 ! A2    A(10,2,11)             99.5833         calculate D2E/DX2 analytically  !
 ! A3    A(1,3,4)              120.1511         calculate D2E/DX2 analytically  !
 ! A4    A(1,3,8)              106.4943         calculate D2E/DX2 analytically  !
 ! A5    A(1,3,9)              106.4695         calculate D2E/DX2 analytically  !
 ! A6    A(4,3,8)              107.0302         calculate D2E/DX2 analytically  !
 ! A7    A(4,3,9)              107.0389         calculate D2E/DX2 analytically  !
 ! A8    A(8,3,9)              109.3793         calculate D2E/DX2 analytically  !
 ! A9    A(3,4,5)              110.3244         calculate D2E/DX2 analytically  !
 ! A10   A(3,4,6)              110.3418         calculate D2E/DX2 analytically  !
 ! A11   A(3,4,7)              110.3328         calculate D2E/DX2 analytically  !
 ! A12   A(5,4,6)              108.5013         calculate D2E/DX2 analytically  !
 ! A13   A(5,4,7)              108.4983         calculate D2E/DX2 analytically  !
 ! A14   A(6,4,7)              108.7877         calculate D2E/DX2 analytically  !
 ! A15   A(1,10,2)             111.5088         calculate D2E/DX2 analytically  !
 ! D1    D(10,1,3,4)          -119.8565         calculate D2E/DX2 analytically  !
 ! D2    D(10,1,3,8)             1.8276         calculate D2E/DX2 analytically  !
 ! D3    D(10,1,3,9)           118.469          calculate D2E/DX2 analytically  !
 ! D4    D(3,1,10,2)           -60.0356         calculate D2E/DX2 analytically  !
 ! D5    D(11,2,10,1)           59.8714         calculate D2E/DX2 analytically  !
 ! D6    D(1,3,4,5)            179.9465         calculate D2E/DX2 analytically  !
 ! D7    D(1,3,4,6)            -60.1711         calculate D2E/DX2 analytically  !
 ! D8    D(1,3,4,7)             60.0734         calculate D2E/DX2 analytically  !
 ! D9    D(8,3,4,5)             58.5252         calculate D2E/DX2 analytically  !
 ! D10   D(8,3,4,6)            178.4077         calculate D2E/DX2 analytically  !
 ! D11   D(8,3,4,7)            -61.3478         calculate D2E/DX2 analytically  !
 ! D12   D(9,3,4,5)            -58.6584         calculate D2E/DX2 analytically  !
 ! D13   D(9,3,4,6)             61.224          calculate D2E/DX2 analytically  !
 ! D14   D(9,3,4,7)           -178.5315         calculate D2E/DX2 analytically  !
 --------------------------------------------------------------------------------
 Trust Radius=3.00D-01 FncErr=1.00D-07 GrdErr=1.00D-06 EigMax=2.50D+02 EigMin=1.00D-04
 Number of steps in this run=     49 maximum allowed number of steps=    100.
 GradGradGradGradGradGradGradGradGradGradGradGradGradGradGradGradGradGrad

 Leave Link  103 at Sat May 24 08:42:07 2025, MaxMem=  3758096384 cpu:               0.0 elap:               0.0
 (Enter /apps/easybuild-2022/easybuild/software/Compiler/NVHPC/22.11-CUDA-11.7.0/Gaussian/g16c01-CUDA-11.7.0/g16/l202.exe)
                          Input orientation:                          
 ---------------------------------------------------------------------
 Center     Atomic      Atomic             Coordinates (Angstroms)
 Number     Number       Type             X           Y           Z
 ---------------------------------------------------------------------
      1          6           0        0.708666    1.972782    1.007316
      2          8           0        0.968454    0.000000    0.000000
      3          6           0       -0.810422    1.697600    0.956347
      4          6           0       -1.808933    2.871987    0.887497
      5          9           0       -3.053035    2.416841    0.850585
      6          9           0       -1.677223    3.653708    1.954630
      7          9           0       -1.593014    3.598455   -0.204665
      8          9           0       -1.023529    0.936535   -0.127898
      9          9           0       -1.106735    0.993762    2.059583
     10          8           0        1.208690    1.422883    0.000000
     11          1           0        0.000000    0.000000    0.000000
 ---------------------------------------------------------------------
                    Distance matrix (angstroms):
                    1          2          3          4          5
     1  C    0.000000
     2  O    2.230256   0.000000
     3  C    1.544653   2.638341   0.000000
     4  C    2.676048   4.092657   1.543033   0.000000
     5  F    3.791062   4.768332   2.357500   1.325259   0.000000
     6  F    3.068450   4.916276   2.360990   1.329364   2.154442
     7  F    3.067481   4.421750   2.360857   1.329358   2.154397
     8  F    2.315819   2.204869   1.341724   2.322469   2.695855
     9  F    2.315476   3.088018   1.341760   2.322628   2.697205
    10  O    1.251838   1.443021   2.250974   3.463178   4.457998
    11  H    2.325674   0.968454   2.110268   3.508305   3.985679
                    6          7          8          9         10
     6  F    0.000000
     7  F    2.161643   0.000000
     8  F    3.485294   2.723238   0.000000
     9  F    2.722460   3.485357   2.189811   0.000000
    10  O    4.138315   3.553103   2.288164   3.128454   0.000000
    11  H    4.470262   3.940616   1.393222   2.540533   1.866957
                   11
    11  H    0.000000
 Symmetry turned off by external request.
 Stoichiometry    C3HF5O2
 Rotational constants (GHZ):           2.5092487           0.9946754           0.9569517
 Leave Link  202 at Sat May 24 08:42:07 2025, MaxMem=  3758096384 cpu:               0.0 elap:               0.0
 (Enter /apps/easybuild-2022/easybuild/software/Compiler/NVHPC/22.11-CUDA-11.7.0/Gaussian/g16c01-CUDA-11.7.0/g16/l301.exe)
 Standard basis: def2TZVPP (5D, 7F)
 Ernie: Thresh=  0.10000D-02 Tol=  0.10000D-05 Strict=F.
   324 basis functions,   527 primitive gaussians,   375 cartesian basis functions
    40 alpha electrons       40 beta electrons
       nuclear repulsion energy       637.8541927104 Hartrees.
 IExCor= 4336 DFT=T Ex+Corr=M062X ExCW=0 ScaHFX=  0.540000
 ScaDFX=  1.000000  1.000000  1.000000  1.000000 ScalE2=  1.000000  1.000000
 IRadAn=      5 IRanWt=     -1 IRanGd=            0 ICorTp=0 IEmpDi=  4
 NAtoms=   11 NActive=   11 NUniq=   11 SFac= 1.00D+00 NAtFMM=   60 NAOKFM=F Big=F
 Integral buffers will be    131072 words long.
 Raffenetti 2 integral format.
 Two-electron integral symmetry is turned off.
 Leave Link  301 at Sat May 24 08:42:07 2025, MaxMem=  3758096384 cpu:               0.1 elap:               0.0
 (Enter /apps/easybuild-2022/easybuild/software/Compiler/NVHPC/22.11-CUDA-11.7.0/Gaussian/g16c01-CUDA-11.7.0/g16/l302.exe)
 NPDir=0 NMtPBC=     1 NCelOv=     1 NCel=       1 NClECP=     1 NCelD=      1
         NCelK=      1 NCelE2=     1 NClLst=     1 CellRange=     0.0.
 One-electron integrals computed using PRISM.
   1 Symmetry operations used in ECPInt.
 ECPInt:  NShTT=    6786 NPrTT=   21959 LenC2=    6450 LenP2D=   15924.
 LDataN:  DoStor=T MaxTD1= 6 Len=  172
 NBasis=   324 RedAO= T EigKep=  4.46D-04  NBF=   324
 NBsUse=   324 1.00D-06 EigRej= -1.00D+00 NBFU=   324
 Precomputing XC quadrature grid using
 IXCGrd= 4 IRadAn=           5 IRanWt=          -1 IRanGd=           0 AccXCQ= 0.00D+00.
 Generated NRdTot=       0 NPtTot=           0 NUsed=           0 NTot=          32
 NSgBfM=   373   373   373   373   373 MxSgAt=    11 MxSgA2=    11.
 Leave Link  302 at Sat May 24 08:42:07 2025, MaxMem=  3758096384 cpu:               0.6 elap:               0.1
 (Enter /apps/easybuild-2022/easybuild/software/Compiler/NVHPC/22.11-CUDA-11.7.0/Gaussian/g16c01-CUDA-11.7.0/g16/l303.exe)
 DipDrv:  MaxL=1.
 Leave Link  303 at Sat May 24 08:42:07 2025, MaxMem=  3758096384 cpu:               0.1 elap:               0.0
 (Enter /apps/easybuild-2022/easybuild/software/Compiler/NVHPC/22.11-CUDA-11.7.0/Gaussian/g16c01-CUDA-11.7.0/g16/l401.exe)
 ExpMin= 9.52D-02 ExpMax= 3.55D+04 ExpMxC= 1.21D+03 IAcc=3 IRadAn=         5 AccDes= 0.00D+00
 Harris functional with IExCor= 1009 and IRadAn=       5 diagonalized for initial guess.
 HarFok:  IExCor= 1009 AccDes= 0.00D+00 IRadAn=         5 IDoV= 1 UseB2=F ITyADJ=14
 ICtDFT=  3500011 ScaDFX=  1.000000  1.000000  1.000000  1.000000
 FoFCou: FMM=F IPFlag=           0 FMFlag=      100000 FMFlg1=           0
         NFxFlg=           0 DoJE=T BraDBF=F KetDBF=T FulRan=T
         wScrn=  0.000000 ICntrl=       500 IOpCl=  0 I1Cent=   200000004 NGrid=           0
         NMat0=    1 NMatS0=      1 NMatT0=    0 NMatD0=    1 NMtDS0=    0 NMtDT0=    0
 Symmetry not used in FoFCou.
 Harris En= -763.916941034709    
 JPrj=0 DoOrth=F DoCkMO=F.
 Leave Link  401 at Sat May 24 08:42:08 2025, MaxMem=  3758096384 cpu:               3.6 elap:               0.5
 (Enter /apps/easybuild-2022/easybuild/software/Compiler/NVHPC/22.11-CUDA-11.7.0/Gaussian/g16c01-CUDA-11.7.0/g16/l502.exe)
 Keep R1 ints in memory in canonical form, NReq=1412617130.
 FoFCou: FMM=F IPFlag=           0 FMFlag=           0 FMFlg1=           0
         NFxFlg=           0 DoJE=F BraDBF=F KetDBF=F FulRan=T
         wScrn=  0.000000 ICntrl=       600 IOpCl=  0 I1Cent=           0 NGrid=           0
         NMat0=    1 NMatS0=  52650 NMatT0=    0 NMatD0=    1 NMtDS0=    0 NMtDT0=    0
 Symmetry not used in FoFCou.
 Two-electron integral symmetry not used.
 Closed shell SCF:
 Using DIIS extrapolation, IDIIS=  1040.
 NGot=  3758096384 LenX=  2371771924 LenY=  2371630858
 Requested convergence on RMS density matrix=1.00D-08 within  32 cycles.
 Requested convergence on MAX density matrix=1.00D-06.
 Requested convergence on             energy=1.00D-06.
 No special actions if energy rises.
 Integral accuracy reduced to 1.0D-05 until final iterations.

 Cycle   1  Pass 0  IDiag  1:
 E= -764.255847772797    
 DIIS: error= 1.71D-02 at cycle   1 NSaved=   1.
 NSaved= 1 IEnMin= 1 EnMin= -764.255847772797     IErMin= 1 ErrMin= 1.71D-02
 ErrMax= 1.71D-02  0.00D+00 EMaxC= 1.00D-01 BMatC= 2.75D-01 BMatP= 2.75D-01
 IDIUse=3 WtCom= 8.29D-01 WtEn= 1.71D-01
 Coeff-Com:  0.100D+01
 Coeff-En:   0.100D+01
 Coeff:      0.100D+01
 Gap=     0.208 Goal=   None    Shift=    0.000
 GapD=    0.208 DampG=1.000 DampE=0.500 DampFc=0.5000 IDamp=-1.
 Damping current iteration by 5.00D-01
 RMSDP=1.96D-03 MaxDP=6.30D-02              OVMax= 1.61D-01

 Cycle   2  Pass 0  IDiag  1:
 E= -764.312278221686     Delta-E=       -0.056430448889 Rises=F Damp=T
 DIIS: error= 6.12D-03 at cycle   2 NSaved=   2.
 NSaved= 2 IEnMin= 2 EnMin= -764.312278221686     IErMin= 2 ErrMin= 6.12D-03
 ErrMax= 6.12D-03  0.00D+00 EMaxC= 1.00D-01 BMatC= 3.56D-02 BMatP= 2.75D-01
 IDIUse=3 WtCom= 9.39D-01 WtEn= 6.12D-02
 Coeff-Com: -0.364D-01 0.104D+01
 Coeff-En:   0.704D-01 0.930D+00
 Coeff:     -0.298D-01 0.103D+01
 Gap=     0.235 Goal=   None    Shift=    0.000
 RMSDP=6.73D-04 MaxDP=2.02D-02 DE=-5.64D-02 OVMax= 7.91D-02

 Cycle   3  Pass 0  IDiag  1:
 E= -764.379005969209     Delta-E=       -0.066727747523 Rises=F Damp=F
 DIIS: error= 3.30D-03 at cycle   3 NSaved=   3.
 NSaved= 3 IEnMin= 3 EnMin= -764.379005969209     IErMin= 3 ErrMin= 3.30D-03
 ErrMax= 3.30D-03  0.00D+00 EMaxC= 1.00D-01 BMatC= 1.16D-02 BMatP= 3.56D-02
 IDIUse=3 WtCom= 9.67D-01 WtEn= 3.30D-02
 Coeff-Com: -0.141D+00 0.376D+00 0.765D+00
 Coeff-En:   0.000D+00 0.000D+00 0.100D+01
 Coeff:     -0.137D+00 0.364D+00 0.773D+00
 Gap=     0.221 Goal=   None    Shift=    0.000
 RMSDP=2.88D-04 MaxDP=1.45D-02 DE=-6.67D-02 OVMax= 4.98D-02

 Cycle   4  Pass 0  IDiag  1:
 E= -764.386236030535     Delta-E=       -0.007230061326 Rises=F Damp=F
 DIIS: error= 1.88D-03 at cycle   4 NSaved=   4.
 NSaved= 4 IEnMin= 4 EnMin= -764.386236030535     IErMin= 4 ErrMin= 1.88D-03
 ErrMax= 1.88D-03  0.00D+00 EMaxC= 1.00D-01 BMatC= 1.96D-03 BMatP= 1.16D-02
 IDIUse=3 WtCom= 9.81D-01 WtEn= 1.88D-02
 Coeff-Com: -0.662D-01 0.132D+00 0.413D+00 0.521D+00
 Coeff-En:   0.000D+00 0.000D+00 0.308D-01 0.969D+00
 Coeff:     -0.650D-01 0.129D+00 0.406D+00 0.530D+00
 Gap=     0.220 Goal=   None    Shift=    0.000
 RMSDP=9.43D-05 MaxDP=5.91D-03 DE=-7.23D-03 OVMax= 8.29D-03

 Cycle   5  Pass 0  IDiag  1:
 E= -764.387648046788     Delta-E=       -0.001412016254 Rises=F Damp=F
 DIIS: error= 3.59D-04 at cycle   5 NSaved=   5.
 NSaved= 5 IEnMin= 5 EnMin= -764.387648046788     IErMin= 5 ErrMin= 3.59D-04
 ErrMax= 3.59D-04  0.00D+00 EMaxC= 1.00D-01 BMatC= 9.75D-05 BMatP= 1.96D-03
 IDIUse=3 WtCom= 9.96D-01 WtEn= 3.59D-03
 Coeff-Com: -0.153D-01 0.223D-01 0.117D+00 0.210D+00 0.665D+00
 Coeff-En:   0.000D+00 0.000D+00 0.000D+00 0.000D+00 0.100D+01
 Coeff:     -0.153D-01 0.222D-01 0.117D+00 0.210D+00 0.667D+00
 Gap=     0.220 Goal=   None    Shift=    0.000
 RMSDP=4.70D-05 MaxDP=3.73D-03 DE=-1.41D-03 OVMax= 1.04D-02

 Cycle   6  Pass 0  IDiag  1:
 E= -764.387815266787     Delta-E=       -0.000167219999 Rises=F Damp=F
 DIIS: error= 2.26D-04 at cycle   6 NSaved=   6.
 NSaved= 6 IEnMin= 6 EnMin= -764.387815266787     IErMin= 6 ErrMin= 2.26D-04
 ErrMax= 2.26D-04  0.00D+00 EMaxC= 1.00D-01 BMatC= 2.74D-05 BMatP= 9.75D-05
 IDIUse=3 WtCom= 9.98D-01 WtEn= 2.26D-03
 Coeff-Com:  0.791D-02-0.176D-01-0.351D-01-0.748D-01 0.164D+00 0.956D+00
 Coeff-En:   0.000D+00 0.000D+00 0.000D+00 0.000D+00 0.000D+00 0.100D+01
 Coeff:      0.789D-02-0.175D-01-0.350D-01-0.747D-01 0.164D+00 0.956D+00
 Gap=     0.221 Goal=   None    Shift=    0.000
 RMSDP=4.54D-05 MaxDP=2.89D-03 DE=-1.67D-04 OVMax= 1.05D-02

 Cycle   7  Pass 0  IDiag  1:
 E= -764.387909179964     Delta-E=       -0.000093913178 Rises=F Damp=F
 DIIS: error= 1.11D-04 at cycle   7 NSaved=   7.
 NSaved= 7 IEnMin= 7 EnMin= -764.387909179964     IErMin= 7 ErrMin= 1.11D-04
 ErrMax= 1.11D-04  0.00D+00 EMaxC= 1.00D-01 BMatC= 8.02D-06 BMatP= 2.74D-05
 IDIUse=3 WtCom= 9.99D-01 WtEn= 1.11D-03
 Coeff-Com:  0.101D-01-0.183D-01-0.557D-01-0.118D+00-0.100D+00 0.389D+00
 Coeff-Com:  0.893D+00
 Coeff-En:   0.000D+00 0.000D+00 0.000D+00 0.000D+00 0.000D+00 0.000D+00
 Coeff-En:   0.100D+01
 Coeff:      0.101D-01-0.183D-01-0.557D-01-0.118D+00-0.100D+00 0.389D+00
 Coeff:      0.893D+00
 Gap=     0.222 Goal=   None    Shift=    0.000
 RMSDP=3.70D-05 MaxDP=2.92D-03 DE=-9.39D-05 OVMax= 8.52D-03

 Cycle   8  Pass 0  IDiag  1:
 E= -764.387950326344     Delta-E=       -0.000041146379 Rises=F Damp=F
 DIIS: error= 6.91D-05 at cycle   8 NSaved=   8.
 NSaved= 8 IEnMin= 8 EnMin= -764.387950326344     IErMin= 8 ErrMin= 6.91D-05
 ErrMax= 6.91D-05  0.00D+00 EMaxC= 1.00D-01 BMatC= 2.62D-06 BMatP= 8.02D-06
 IDIUse=1 WtCom= 1.00D+00 WtEn= 0.00D+00
 Coeff-Com:  0.733D-03-0.565D-03-0.103D-02-0.826D-02-0.409D-01-0.231D+00
 Coeff-Com:  0.345D+00 0.936D+00
 Coeff:      0.733D-03-0.565D-03-0.103D-02-0.826D-02-0.409D-01-0.231D+00
 Coeff:      0.345D+00 0.936D+00
 Gap=     0.222 Goal=   None    Shift=    0.000
 RMSDP=1.95D-05 MaxDP=1.38D-03 DE=-4.11D-05 OVMax= 4.56D-03

 Cycle   9  Pass 0  IDiag  1:
 E= -764.387960368612     Delta-E=       -0.000010042268 Rises=F Damp=F
 DIIS: error= 2.51D-05 at cycle   9 NSaved=   9.
 NSaved= 9 IEnMin= 9 EnMin= -764.387960368612     IErMin= 9 ErrMin= 2.51D-05
 ErrMax= 2.51D-05  0.00D+00 EMaxC= 1.00D-01 BMatC= 3.50D-07 BMatP= 2.62D-06
 IDIUse=1 WtCom= 1.00D+00 WtEn= 0.00D+00
 Coeff-Com: -0.174D-02 0.337D-02 0.120D-01 0.260D-01 0.124D-01-0.204D+00
 Coeff-Com: -0.722D-01 0.288D+00 0.936D+00
 Coeff:     -0.174D-02 0.337D-02 0.120D-01 0.260D-01 0.124D-01-0.204D+00
 Coeff:     -0.722D-01 0.288D+00 0.936D+00
 Gap=     0.222 Goal=   None    Shift=    0.000
 RMSDP=1.02D-05 MaxDP=6.63D-04 DE=-1.00D-05 OVMax= 2.41D-03

 Failed to achieve initial convergence to 1.0D-08 in 10 cycles.
 Switch to full accuracy anyway.
 Cycle  10  Pass 1  IDiag  1:
 E= -764.387969321601     Delta-E=       -0.000008952989 Rises=F Damp=F
 DIIS: error= 2.30D-05 at cycle   1 NSaved=   1.
 NSaved= 1 IEnMin= 1 EnMin= -764.387969321601     IErMin= 1 ErrMin= 2.30D-05
 ErrMax= 2.30D-05  0.00D+00 EMaxC= 1.00D-01 BMatC= 6.01D-07 BMatP= 6.01D-07
 IDIUse=1 WtCom= 1.00D+00 WtEn= 0.00D+00
 Coeff-Com:  0.100D+01
 Coeff:      0.100D+01
 Gap=     0.222 Goal=   None    Shift=    0.000
 RMSDP=1.02D-05 MaxDP=6.63D-04 DE=-8.95D-06 OVMax= 2.15D-04

 Cycle  11  Pass 1  IDiag  1:
 E= -764.387969744859     Delta-E=       -0.000000423259 Rises=F Damp=F
 DIIS: error= 5.79D-06 at cycle   2 NSaved=   2.
 NSaved= 2 IEnMin= 2 EnMin= -764.387969744859     IErMin= 2 ErrMin= 5.79D-06
 ErrMax= 5.79D-06  0.00D+00 EMaxC= 1.00D-01 BMatC= 4.42D-08 BMatP= 6.01D-07
 IDIUse=1 WtCom= 1.00D+00 WtEn= 0.00D+00
 Coeff-Com:  0.660D-01 0.934D+00
 Coeff:      0.660D-01 0.934D+00
 Gap=     0.222 Goal=   None    Shift=    0.000
 RMSDP=1.62D-06 MaxDP=1.13D-04 DE=-4.23D-07 OVMax= 1.45D-04

 Cycle  12  Pass 1  IDiag  1:
 E= -764.387969765833     Delta-E=       -0.000000020974 Rises=F Damp=F
 DIIS: error= 6.32D-06 at cycle   3 NSaved=   3.
 NSaved= 3 IEnMin= 3 EnMin= -764.387969765833     IErMin= 2 ErrMin= 5.79D-06
 ErrMax= 6.32D-06  0.00D+00 EMaxC= 1.00D-01 BMatC= 4.24D-08 BMatP= 4.42D-08
 IDIUse=1 WtCom= 1.00D+00 WtEn= 0.00D+00
 Coeff-Com: -0.362D-01 0.502D+00 0.534D+00
 Coeff:     -0.362D-01 0.502D+00 0.534D+00
 Gap=     0.222 Goal=   None    Shift=    0.000
 RMSDP=5.43D-07 MaxDP=3.03D-05 DE=-2.10D-08 OVMax= 6.23D-05

 Cycle  13  Pass 1  IDiag  1:
 E= -764.387969795241     Delta-E=       -0.000000029408 Rises=F Damp=F
 DIIS: error= 1.59D-06 at cycle   4 NSaved=   4.
 NSaved= 4 IEnMin= 4 EnMin= -764.387969795241     IErMin= 4 ErrMin= 1.59D-06
 ErrMax= 1.59D-06  0.00D+00 EMaxC= 1.00D-01 BMatC= 9.23D-10 BMatP= 4.24D-08
 IDIUse=1 WtCom= 1.00D+00 WtEn= 0.00D+00
 Coeff-Com: -0.849D-02 0.187D-01 0.583D-01 0.931D+00
 Coeff:     -0.849D-02 0.187D-01 0.583D-01 0.931D+00
 Gap=     0.222 Goal=   None    Shift=    0.000
 RMSDP=3.54D-07 MaxDP=2.98D-05 DE=-2.94D-08 OVMax= 6.35D-05

 Cycle  14  Pass 1  IDiag  1:
 E= -764.387969799363     Delta-E=       -0.000000004122 Rises=F Damp=F
 DIIS: error= 1.00D-06 at cycle   5 NSaved=   5.
 NSaved= 5 IEnMin= 5 EnMin= -764.387969799363     IErMin= 5 ErrMin= 1.00D-06
 ErrMax= 1.00D-06  0.00D+00 EMaxC= 1.00D-01 BMatC= 5.03D-10 BMatP= 9.23D-10
 IDIUse=1 WtCom= 1.00D+00 WtEn= 0.00D+00
 Coeff-Com:  0.667D-02-0.137D+00-0.141D+00 0.383D+00 0.888D+00
 Coeff:      0.667D-02-0.137D+00-0.141D+00 0.383D+00 0.888D+00
 Gap=     0.222 Goal=   None    Shift=    0.000
 RMSDP=2.68D-07 MaxDP=1.73D-05 DE=-4.12D-09 OVMax= 5.72D-05

 Cycle  15  Pass 1  IDiag  1:
 E= -764.387969801619     Delta-E=       -0.000000002256 Rises=F Damp=F
 DIIS: error= 5.00D-07 at cycle   6 NSaved=   6.
 NSaved= 6 IEnMin= 6 EnMin= -764.387969801619     IErMin= 6 ErrMin= 5.00D-07
 ErrMax= 5.00D-07  0.00D+00 EMaxC= 1.00D-01 BMatC= 9.59D-11 BMatP= 5.03D-10
 IDIUse=1 WtCom= 1.00D+00 WtEn= 0.00D+00
 Coeff-Com:  0.391D-02-0.385D-01-0.557D-01-0.147D+00 0.227D+00 0.101D+01
 Coeff:      0.391D-02-0.385D-01-0.557D-01-0.147D+00 0.227D+00 0.101D+01
 Gap=     0.222 Goal=   None    Shift=    0.000
 RMSDP=1.62D-07 MaxDP=1.14D-05 DE=-2.26D-09 OVMax= 3.88D-05

 Cycle  16  Pass 1  IDiag  1:
 E= -764.387969802295     Delta-E=       -0.000000000676 Rises=F Damp=F
 DIIS: error= 2.50D-07 at cycle   7 NSaved=   7.
 NSaved= 7 IEnMin= 7 EnMin= -764.387969802295     IErMin= 7 ErrMin= 2.50D-07
 ErrMax= 2.50D-07  0.00D+00 EMaxC= 1.00D-01 BMatC= 3.39D-11 BMatP= 9.59D-11
 IDIUse=1 WtCom= 1.00D+00 WtEn= 0.00D+00
 Coeff-Com: -0.644D-03 0.247D-01 0.190D-01-0.168D+00-0.185D+00 0.427D+00
 Coeff-Com:  0.882D+00
 Coeff:     -0.644D-03 0.247D-01 0.190D-01-0.168D+00-0.185D+00 0.427D+00
 Coeff:      0.882D+00
 Gap=     0.222 Goal=   None    Shift=    0.000
 RMSDP=7.92D-08 MaxDP=5.38D-06 DE=-6.76D-10 OVMax= 1.96D-05

 Cycle  17  Pass 1  IDiag  1:
 E= -764.387969802447     Delta-E=       -0.000000000152 Rises=F Damp=F
 DIIS: error= 9.02D-08 at cycle   8 NSaved=   8.
 NSaved= 8 IEnMin= 8 EnMin= -764.387969802447     IErMin= 8 ErrMin= 9.02D-08
 ErrMax= 9.02D-08  0.00D+00 EMaxC= 1.00D-01 BMatC= 4.09D-12 BMatP= 3.39D-11
 IDIUse=1 WtCom= 1.00D+00 WtEn= 0.00D+00
 Coeff-Com: -0.678D-03 0.135D-01 0.139D-01-0.390D-01-0.100D+00 0.172D-01
 Coeff-Com:  0.343D+00 0.752D+00
 Coeff:     -0.678D-03 0.135D-01 0.139D-01-0.390D-01-0.100D+00 0.172D-01
 Coeff:      0.343D+00 0.752D+00
 Gap=     0.222 Goal=   None    Shift=    0.000
 RMSDP=1.91D-08 MaxDP=1.09D-06 DE=-1.52D-10 OVMax= 4.76D-06

 Cycle  18  Pass 1  IDiag  1:
 E= -764.387969802470     Delta-E=       -0.000000000022 Rises=F Damp=F
 DIIS: error= 4.20D-08 at cycle   9 NSaved=   9.
 NSaved= 9 IEnMin= 9 EnMin= -764.387969802470     IErMin= 9 ErrMin= 4.20D-08
 ErrMax= 4.20D-08  0.00D+00 EMaxC= 1.00D-01 BMatC= 1.23D-12 BMatP= 4.09D-12
 IDIUse=1 WtCom= 1.00D+00 WtEn= 0.00D+00
 Coeff-Com: -0.295D-03 0.287D-02 0.439D-02 0.119D-01-0.191D-01-0.833D-01
 Coeff-Com: -0.976D-02 0.357D+00 0.736D+00
 Coeff:     -0.295D-03 0.287D-02 0.439D-02 0.119D-01-0.191D-01-0.833D-01
 Coeff:     -0.976D-02 0.357D+00 0.736D+00
 Gap=     0.222 Goal=   None    Shift=    0.000
 RMSDP=9.81D-09 MaxDP=6.92D-07 DE=-2.23D-11 OVMax= 2.14D-06

 SCF Done:  E(RM062X) =  -764.387969802     A.U. after   18 cycles
            NFock= 18  Conv=0.98D-08     -V/T= 2.0030
 KE= 7.620990291109D+02 PE=-3.086899317955D+03 EE= 9.225581263311D+02
 Leave Link  502 at Sat May 24 08:42:39 2025, MaxMem=  3758096384 cpu:             134.0 elap:              31.7
 (Enter /apps/easybuild-2022/easybuild/software/Compiler/NVHPC/22.11-CUDA-11.7.0/Gaussian/g16c01-CUDA-11.7.0/g16/l508.exe)
 QCSCF skips out because SCF is already converged.
 Leave Link  508 at Sat May 24 08:42:39 2025, MaxMem=  3758096384 cpu:               0.0 elap:               0.0
 (Enter /apps/easybuild-2022/easybuild/software/Compiler/NVHPC/22.11-CUDA-11.7.0/Gaussian/g16c01-CUDA-11.7.0/g16/l801.exe)
 DoSCS=F DFT=T ScalE2(SS,OS)=  1.000000  1.000000
 Range of M.O.s used for correlation:     1   324
 NBasis=   324 NAE=    40 NBE=    40 NFC=     0 NFV=     0
 NROrb=    324 NOA=    40 NOB=    40 NVA=   284 NVB=   284

 **** Warning!!: The largest alpha MO coefficient is  0.16753890D+02

 Leave Link  801 at Sat May 24 08:42:39 2025, MaxMem=  3758096384 cpu:               0.0 elap:               0.0
 (Enter /apps/easybuild-2022/easybuild/software/Compiler/NVHPC/22.11-CUDA-11.7.0/Gaussian/g16c01-CUDA-11.7.0/g16/l1101.exe)
 Using compressed storage, NAtomX=    11.
 Will process     12 centers per pass.
   1 Symmetry operations used in ECPInt.
 ECPInt:  NShTT=    6786 NPrTT=   21959 LenC2=    6450 LenP2D=   15924.
 LDataN:  DoStor=T MaxTD1= 7 Len=  274
 Leave Link 1101 at Sat May 24 08:42:40 2025, MaxMem=  3758096384 cpu:               0.9 elap:               0.2
 (Enter /apps/easybuild-2022/easybuild/software/Compiler/NVHPC/22.11-CUDA-11.7.0/Gaussian/g16c01-CUDA-11.7.0/g16/l1102.exe)
 Symmetrizing basis deriv contribution to polar:
 IMax=3 JMax=2 DiffMx= 0.00D+00
 Leave Link 1102 at Sat May 24 08:42:40 2025, MaxMem=  3758096384 cpu:               0.1 elap:               0.0
 (Enter /apps/easybuild-2022/easybuild/software/Compiler/NVHPC/22.11-CUDA-11.7.0/Gaussian/g16c01-CUDA-11.7.0/g16/l1110.exe)
 Forming Gx(P) for the SCF density, NAtomX=    11.
 Integral derivatives from FoFJK, PRISM(SPDF).
 Do as many integral derivatives as possible in FoFJK.
 G2DrvN: MDV=    3758095115.
 G2DrvN: will do    12 centers at a time, making    1 passes.
 Calling FoFCou, ICntrl=  3107 FMM=F I1Cent=   0 AccDes= 0.00D+00.
 FoFJK:  IHMeth= 1 ICntrl=    3107 DoSepK=F KAlg= 0 I1Cent=           0 FoldK=F
 IRaf=         0 NMat=       1 IRICut=       1 DoRegI=T DoRafI=F ISym2E= 0 IDoP0=0 IntGTp=1.
 FoFCou: FMM=F IPFlag=           0 FMFlag=      100000 FMFlg1=           0
         NFxFlg=           0 DoJE=F BraDBF=F KetDBF=F FulRan=T
         wScrn=  0.000000 ICntrl=      3107 IOpCl=  0 I1Cent=           0 NGrid=           0
         NMat0=    1 NMatS0=      1 NMatT0=    0 NMatD0=    1 NMtDS0=    0 NMtDT0=    0
 Symmetry not used in FoFCou.
 End of G2Drv F.D. properties file   721 does not exist.
 End of G2Drv F.D. properties file   722 does not exist.
 End of G2Drv F.D. properties file   788 does not exist.
 Leave Link 1110 at Sat May 24 08:43:23 2025, MaxMem=  3758096384 cpu:             340.5 elap:              42.9
 (Enter /apps/easybuild-2022/easybuild/software/Compiler/NVHPC/22.11-CUDA-11.7.0/Gaussian/g16c01-CUDA-11.7.0/g16/l1002.exe)
 Minotr:  Closed shell wavefunction.
          IDoAtm=11111111111
          Direct CPHF calculation.
          Differentiating once with respect to nuclear coordinates.
          Requested convergence is 1.0D-08 RMS, and 1.0D-07 maximum.
          Secondary convergence is 1.0D-12 RMS, and 1.0D-12 maximum.
          NewPWx=T KeepS1=F KeepF1=F KeepIn=T MapXYZ=F SortEE=F KeepMc=T.
         3307 words used for storage of precomputed grid.
 Keep R1 ints in memory in canonical form, NReq=1412622537.
 FoFCou: FMM=F IPFlag=           0 FMFlag=           0 FMFlg1=           0
         NFxFlg=           0 DoJE=F BraDBF=F KetDBF=F FulRan=T
         wScrn=  0.000000 ICntrl=       600 IOpCl=  0 I1Cent=           0 NGrid=           0
         NMat0=    1 NMatS0=  52650 NMatT0=    0 NMatD0=    1 NMtDS0=    0 NMtDT0=    0
 Symmetry not used in FoFCou.
 Two-electron integral symmetry not used.
          MDV=    3758096384 using IRadAn=       1.
          Solving linear equations simultaneously, MaxMat=       0.
          There are    36 degrees of freedom in the 1st order CPHF.  IDoFFX=6 NUNeed=     0.
     30 vectors produced by pass  0 Test12= 3.16D-14 2.78D-09 XBig12= 1.25D-01 2.31D-01.
 AX will form    30 AO Fock derivatives at one time.
     30 vectors produced by pass  1 Test12= 3.16D-14 2.78D-09 XBig12= 1.81D-02 3.86D-02.
     30 vectors produced by pass  2 Test12= 3.16D-14 2.78D-09 XBig12= 1.12D-03 6.26D-03.
     30 vectors produced by pass  3 Test12= 3.16D-14 2.78D-09 XBig12= 1.79D-05 7.24D-04.
     30 vectors produced by pass  4 Test12= 3.16D-14 2.78D-09 XBig12= 2.95D-07 8.51D-05.
     30 vectors produced by pass  5 Test12= 3.16D-14 2.78D-09 XBig12= 2.78D-09 7.72D-06.
     30 vectors produced by pass  6 Test12= 3.16D-14 2.78D-09 XBig12= 2.11D-11 5.91D-07.
     15 vectors produced by pass  7 Test12= 3.16D-14 2.78D-09 XBig12= 1.15D-13 3.88D-08.
 InvSVY:  IOpt=1 It=  1 EMax= 1.11D-15
 Solved reduced A of dimension   225 with    30 vectors.
 End of Minotr F.D. properties file   721 does not exist.
 End of Minotr F.D. properties file   722 does not exist.
 End of Minotr F.D. properties file   788 does not exist.
 Leave Link 1002 at Sat May 24 08:44:19 2025, MaxMem=  3758096384 cpu:             445.6 elap:              56.6
 (Enter /apps/easybuild-2022/easybuild/software/Compiler/NVHPC/22.11-CUDA-11.7.0/Gaussian/g16c01-CUDA-11.7.0/g16/l701.exe)
 ... and contract with generalized density number  0.
 Compute integral second derivatives.
   1 Symmetry operations used in ECPInt.
 ECPInt:  NShTT=    6786 NPrTT=   21959 LenC2=    6450 LenP2D=   15924.
 LDataN:  DoStor=T MaxTD1= 8 Len=  415
 Leave Link  701 at Sat May 24 08:44:19 2025, MaxMem=  3758096384 cpu:               0.7 elap:               0.1
 (Enter /apps/easybuild-2022/easybuild/software/Compiler/NVHPC/22.11-CUDA-11.7.0/Gaussian/g16c01-CUDA-11.7.0/g16/l702.exe)
 L702 exits ... SP integral derivatives will be done elsewhere.
 Leave Link  702 at Sat May 24 08:44:19 2025, MaxMem=  3758096384 cpu:               0.0 elap:               0.0
 (Enter /apps/easybuild-2022/easybuild/software/Compiler/NVHPC/22.11-CUDA-11.7.0/Gaussian/g16c01-CUDA-11.7.0/g16/l703.exe)
 Integral derivatives from FoFJK, PRISM(SPDF).
 Compute integral second derivatives, UseDBF=F ICtDFT=           0.
 Calling FoFJK, ICntrl=    100127 FMM=F ISym2X=0 I1Cent= 0 IOpClX= 0 NMat=1 NMatS=1 NMatT=0.
 FoFJK:  IHMeth= 1 ICntrl=  100127 DoSepK=F KAlg= 0 I1Cent=           0 FoldK=F
 IRaf=         0 NMat=       1 IRICut=       1 DoRegI=T DoRafI=F ISym2E= 0 IDoP0=0 IntGTp=1.
 FoFCou: FMM=F IPFlag=           0 FMFlag=      100000 FMFlg1=         800
         NFxFlg=           0 DoJE=F BraDBF=F KetDBF=F FulRan=T
         wScrn=  0.000000 ICntrl=    100127 IOpCl=  0 I1Cent=           0 NGrid=           0
         NMat0=    1 NMatS0=      1 NMatT0=    0 NMatD0=    1 NMtDS0=    0 NMtDT0=    0
 Symmetry not used in FoFCou.
 Leave Link  703 at Sat May 24 08:45:56 2025, MaxMem=  3758096384 cpu:             770.2 elap:              96.9
 (Enter /apps/easybuild-2022/easybuild/software/Compiler/NVHPC/22.11-CUDA-11.7.0/Gaussian/g16c01-CUDA-11.7.0/g16/l716.exe)
 Dipole        =-6.20012674D-01-3.21335206D-01-1.85191422D-01
 Polarizability= 0.00000000D+00 0.00000000D+00 0.00000000D+00
                 0.00000000D+00 0.00000000D+00 0.00000000D+00
 -------------------------------------------------------------------
 Center     Atomic                   Forces (Hartrees/Bohr)
 Number     Number              X              Y              Z
 -------------------------------------------------------------------
      1        6          -0.023970446    0.070781104   -0.006480167
      2        8           0.009089122   -0.028321695   -0.013135601
      3        6           0.010097009   -0.017603849    0.039106352
      4        6           0.006150116    0.018452512    0.001536184
      5        9           0.004893243   -0.003887919    0.000004931
      6        9           0.001160866   -0.006378645   -0.004865161
      7        9           0.001334885   -0.003268558    0.001438931
      8        9          -0.070503373    0.008464680   -0.021019705
      9        9          -0.011501706   -0.006697567    0.003069968
     10        8           0.063331901   -0.007556807    0.008458452
     11        1           0.009918383   -0.023983256   -0.008114183
 -------------------------------------------------------------------
 Cartesian Forces:  Max     0.070781104 RMS     0.024417277
 Force constants in Cartesian coordinates: 
                1             2             3             4             5 
      1  0.300504D+00
      2 -0.368098D-01  0.261928D+00
      3 -0.153311D+00  0.256386D+00  0.300908D+00
      4  0.211208D-01 -0.116950D-01 -0.284164D-01  0.581192D+00
      5  0.215656D-01 -0.781394D-01 -0.106926D+00 -0.245869D-01  0.265542D+00
      6 -0.533588D-02 -0.244232D-01 -0.373466D-01 -0.391237D-02  0.183411D-01
      7 -0.118888D+00 -0.478437D-03  0.183008D-01 -0.881215D-02 -0.979683D-02
      8 -0.467671D-01 -0.792684D-01 -0.412220D-01 -0.473301D-02 -0.537258D-02
      9 -0.388316D-01 -0.124829D-01 -0.472373D-02 -0.188281D-01  0.790407D-02
     10 -0.133363D-01  0.130066D-01  0.580235D-02 -0.559939D-03 -0.228552D-02
     11  0.167392D-01  0.140958D-01  0.781511D-02 -0.724866D-03  0.170445D-02
     12 -0.163544D-02  0.141602D-02  0.335370D-03  0.872148D-04 -0.200504D-02
     13  0.657209D-02  0.704529D-02  0.155277D-02  0.159158D-02  0.131651D-02
     14 -0.257779D-02 -0.264744D-02 -0.150163D-02  0.431463D-03 -0.169842D-03
     15  0.540750D-03  0.229046D-03  0.129018D-03  0.339961D-03  0.251750D-03
     16 -0.753206D-03 -0.764008D-03 -0.475052D-04 -0.203451D-03  0.905596D-03
     17 -0.346065D-02 -0.623931D-03 -0.123982D-02  0.177057D-02 -0.518530D-04
     18 -0.221091D-02 -0.971245D-03 -0.433407D-03  0.120741D-02  0.530127D-03
     19  0.596491D-03 -0.828147D-03 -0.132057D-02  0.264882D-03  0.182217D-03
     20 -0.297271D-02 -0.815852D-03 -0.177299D-02  0.359343D-03 -0.623596D-03
     21  0.214888D-02  0.389321D-03  0.882484D-03  0.114852D-03  0.997762D-03
     22 -0.367461D-01 -0.307997D-01 -0.271038D-01 -0.652527D-01  0.364621D-01
     23 -0.182670D-01 -0.136936D-01 -0.149198D-01  0.669890D-01 -0.603958D-02
     24 -0.190348D-01 -0.254501D-01 -0.167741D-01  0.120941D-01  0.135647D-01
     25  0.634103D-03 -0.211680D-01  0.162376D-01  0.344165D-02 -0.112253D-02
     26 -0.311073D-02 -0.322741D-02  0.188584D-01  0.197520D-02  0.553567D-03
     27  0.958878D-02  0.103201D-01 -0.919326D-02 -0.519178D-03 -0.876348D-03
     28 -0.166387D+00  0.882639D-01  0.165165D+00 -0.797597D-01 -0.466873D-02
     29  0.762472D-01 -0.936446D-01 -0.108830D+00 -0.450785D-01 -0.134395D+00
     30  0.211612D+00 -0.199875D+00 -0.237854D+00  0.377039D-01  0.687332D-01
     31  0.668371D-02 -0.577266D-02  0.314074D-02 -0.453023D+00 -0.179715D-01
     32 -0.586179D-03 -0.396324D-02 -0.664716D-02  0.152928D-01 -0.430081D-01
     33 -0.353090D-02 -0.553761D-02  0.407084D-02  0.128624D-03 -0.515113D-03
                6             7             8             9            10 
      6 -0.761913D-02
      7  0.150152D-02  0.488093D+00
      8  0.149813D-02  0.129456D-01  0.547733D+00
      9  0.563031D-04 -0.480956D-01  0.365058D-01  0.524911D+00
     10 -0.327196D-03 -0.125546D+00  0.975435D-01 -0.462212D-02  0.598339D+00
     11  0.132333D-02  0.362729D-01 -0.130871D+00 -0.456526D-02 -0.220236D-01
     12 -0.825317D-03 -0.106405D-02  0.520247D-02 -0.319051D-01  0.443108D-03
     13  0.221395D-03 -0.601438D-01 -0.186855D-01 -0.431766D-02 -0.304219D+00
     14 -0.245243D-03  0.194581D-01  0.436144D-02  0.171354D-02 -0.550760D-01
     15  0.139531D-03 -0.336641D-02 -0.418767D-03  0.143913D-02 -0.674306D-02
     16  0.114504D-03  0.944120D-02  0.671202D-02  0.145734D-01 -0.828121D-01
     17 -0.366661D-04 -0.126225D-02 -0.159714D-01 -0.338895D-01  0.625838D-02
     18  0.287853D-03 -0.218296D-02 -0.100813D-01 -0.185544D-01  0.216684D-03
     19 -0.140066D-03  0.117854D-01  0.499386D-02 -0.128152D-01 -0.830391D-01
     20 -0.605573D-03 -0.585446D-02 -0.123450D-01  0.362536D-01 -0.132962D-02
     21  0.648296D-03  0.496315D-02  0.965909D-02 -0.229385D-01  0.971706D-02
     22 -0.446158D-02 -0.717926D-01 -0.264934D-01 -0.367169D-01  0.571441D-02
     23  0.487330D-02 -0.188117D-01 -0.155893D+00 -0.972643D-01 -0.185888D-01
     24  0.116279D-01 -0.370143D-01 -0.121539D+00 -0.194455D+00 -0.799217D-02
     25 -0.409755D-03 -0.840843D-01 -0.622944D-01  0.615974D-01  0.520876D-02
     26 -0.243393D-02 -0.379830D-01 -0.162990D+00  0.103780D+00 -0.175694D-01
     27  0.178467D-02  0.498561D-01  0.126310D+00 -0.210540D+00  0.866801D-02
     28  0.106947D-01 -0.511042D-01  0.139591D-01  0.601856D-01  0.127598D-02
     29  0.478995D-02  0.397604D-02  0.257730D-01 -0.152084D-01 -0.113259D-02
     30  0.330105D-01  0.111237D-01  0.231842D-02 -0.493768D-01 -0.463383D-02
     31  0.205473D-02  0.110518D-01  0.228193D-01  0.278708D-01 -0.102597D-02
     32 -0.308124D-02  0.153406D-02 -0.151558D-01 -0.227470D-01  0.119708D-02
     33 -0.176405D-02  0.597804D-02 -0.823358D-02  0.608749D-02 -0.528829D-03
               11            12            13            14            15 
     11  0.608701D+00
     12 -0.507292D-03  0.586092D+00
     13 -0.504244D-01 -0.741002D-02  0.398495D+00
     14 -0.959066D-01 -0.172330D-02  0.125847D+00  0.122707D+00
     15 -0.160982D-02 -0.763798D-01  0.869693D-02  0.381958D-02  0.849777D-01
     16  0.332594D-02 -0.506020D-02 -0.209868D-01 -0.456584D-01 -0.437460D-01
     17 -0.179682D+00 -0.109137D+00 -0.334309D-01 -0.182880D-01 -0.289236D-01
     18 -0.116059D+00 -0.209012D+00 -0.305081D-01 -0.261138D-01 -0.955699D-02
     19 -0.337553D-02  0.139135D-01 -0.266870D-01 -0.455417D-01  0.448427D-01
     20 -0.170168D+00  0.109127D+00 -0.336140D-01 -0.154845D-01  0.265879D-01
     21  0.115379D+00 -0.219320D+00  0.310632D-01  0.229881D-01 -0.641887D-02
     22  0.102543D-01  0.133302D-01  0.360617D-02  0.157714D-02  0.128494D-02
     23 -0.215778D-01 -0.417775D-01  0.207260D-02  0.232727D-02  0.239452D-02
     24 -0.125608D-01 -0.225296D-01  0.155869D-02  0.156506D-02  0.276385D-02
     25  0.162441D-01 -0.111623D-01  0.706795D-02  0.713654D-03 -0.139147D-02
     26 -0.198731D-01  0.391333D-01  0.235295D-02  0.213944D-02 -0.240474D-02
     27  0.114472D-01 -0.265548D-01 -0.232455D-02 -0.100114D-02  0.289844D-02
     28 -0.769282D-02 -0.401915D-03 -0.387414D-02  0.125804D-02 -0.222351D-03
     29 -0.440218D-02  0.505238D-03 -0.237506D-02  0.532745D-03 -0.167678D-03
     30  0.729531D-03  0.740423D-04  0.195406D-02  0.228300D-03  0.163095D-03
     31  0.140485D-02 -0.104011D-02 -0.142208D-02 -0.431717D-03 -0.236061D-03
     32 -0.202008D-02 -0.233313D-03 -0.104577D-03  0.428643D-03  0.241790D-03
     33 -0.139215D-02  0.249258D-04 -0.486712D-03  0.270491D-03 -0.155140D-03
               16            17            18            19            20 
     16  0.839437D-01
     17  0.267508D-01  0.200039D+00
     18  0.282444D-01  0.168803D+00  0.314528D+00
     19  0.129370D-01 -0.148283D-03  0.387143D-02  0.870171D-01
     20  0.451850D-03  0.241802D-01 -0.115682D-01  0.368908D-01  0.185090D+00
     21  0.408030D-02  0.593871D-02 -0.843095D-01 -0.472329D-01 -0.162718D+00
     22 -0.260037D-02  0.658714D-02  0.355627D-02 -0.233641D-03  0.103866D-02
     23  0.717687D-02 -0.115692D-01 -0.473310D-02  0.140818D-02 -0.279781D-03
     24  0.263616D-02 -0.353000D-02  0.460868D-03  0.100034D-02 -0.108787D-02
     25  0.207686D-04 -0.836990D-03 -0.759467D-03 -0.207145D-02  0.414973D-02
     26  0.144284D-02  0.262137D-04 -0.125362D-02  0.644220D-02 -0.102936D-01
     27 -0.125018D-02  0.171641D-02  0.651464D-02 -0.308186D-02  0.558865D-02
     28  0.342891D-03  0.721213D-03  0.512989D-03 -0.505766D-03  0.162649D-02
     29  0.146489D-03  0.166749D-03  0.232169D-03  0.147634D-03  0.134243D-03
     30  0.270706D-03  0.610271D-03  0.457986D-03  0.972734D-03 -0.296300D-03
     31  0.670325D-03 -0.294899D-02 -0.194773D-02 -0.638543D-04 -0.746081D-03
     32 -0.489973D-03  0.177469D-02  0.121483D-02 -0.171312D-03  0.604992D-03
     33  0.184408D-03 -0.311478D-03 -0.383162D-03 -0.100786D-04  0.491558D-03
               21            22            23            24            25 
     21  0.326322D+00
     22 -0.861496D-03  0.191813D+00
     23  0.245575D-02 -0.196735D-01  0.186920D+00
     24  0.624108D-02  0.625271D-01  0.152540D+00  0.284971D+00
     25 -0.287116D-02  0.859882D-02  0.718614D-02 -0.226105D-02  0.782971D-01
     26  0.516795D-02  0.627933D-02  0.264851D-01 -0.766461D-02  0.495425D-01
     27 -0.105617D-02  0.101593D-01  0.115802D-02 -0.716406D-01 -0.741575D-01
     28 -0.118471D-02 -0.556005D-02 -0.504129D-02  0.822131D-02 -0.155273D-01
     29 -0.279261D-03 -0.540668D-02 -0.710702D-02 -0.836493D-02  0.653951D-02
     30  0.446274D-03 -0.154507D-01 -0.674173D-02  0.240586D-02  0.142574D-01
     31  0.628140D-04 -0.275472D-01 -0.445047D-02 -0.217354D-01 -0.158606D-02
     32  0.210496D-04  0.201746D-01  0.427110D-03  0.125271D-01  0.104635D-02
     33 -0.497178D-03 -0.626332D-02  0.201478D-02 -0.307152D-02  0.920173D-03
               26            27            28            29            30 
     26  0.169284D+00
     27 -0.160991D+00  0.315859D+00
     28 -0.100044D-01  0.870583D-02  0.337782D+00
     29 -0.137592D-02  0.325637D-02 -0.288262D-01  0.230784D+00
     30  0.516528D-02 -0.525678D-02 -0.254988D+00  0.122135D+00  0.260676D+00
     31  0.632546D-03 -0.564472D-02 -0.166825D-01 -0.423782D-02 -0.282175D-02
     32 -0.727535D-03  0.307116D-02 -0.495954D-01 -0.164660D-01  0.699379D-02
     33  0.264228D-02 -0.281445D-02  0.331188D-02  0.193178D-02 -0.474622D-02
               31            32            33 
     31  0.482945D+00
     32  0.117025D-01  0.781054D-01
     33  0.296719D-03  0.863905D-02  0.324846D-02
 FormGI is forming the generalized inverse of G from B-inverse, IUseBI=4.
 Force constants in internal coordinates: 
                1             2             3             4             5 
      1  0.312264D+00
      2  0.822932D-01  0.631049D+00
      3  0.312104D-01  0.147957D+00  0.249772D+00
      4 -0.168529D-01 -0.103191D-01 -0.117364D-02  0.482976D+00
      5  0.818686D-02 -0.235076D-02 -0.839665D-03  0.730156D-03  0.276040D+00
      6  0.193334D-01  0.426781D-02  0.286936D-01 -0.244401D-01  0.155572D-01
      7  0.203075D-01  0.109441D-01 -0.731060D-03  0.463249D-02  0.182455D-01
      8 -0.314080D-02  0.222398D-02  0.124316D-02 -0.150702D-02  0.197297D-01
      9 -0.398813D-02 -0.175104D-02 -0.220590D-02  0.325321D-02  0.182037D-01
     10 -0.214848D-02  0.130816D-02  0.870828D-03  0.481800D-03  0.201535D-01
     11  0.404480D+00  0.297640D+00  0.780649D-01 -0.701777D-01 -0.199855D-02
     12  0.366561D-01  0.499152D-01  0.715244D-01 -0.258797D-02 -0.492223D-03
     13 -0.766345D-01 -0.380548D-01 -0.198610D-01  0.110958D-01 -0.995633D-03
     14  0.161251D+00  0.527166D-01  0.448003D-01 -0.284317D-01 -0.130057D-01
     15  0.212181D-01  0.308908D-01  0.266427D-02 -0.402726D-02 -0.137485D-01
     16 -0.117675D+00 -0.439431D-01 -0.327413D-01  0.239372D-01  0.168365D-01
     17  0.364050D-02 -0.995892D-02  0.345108D-02 -0.100778D-02  0.182143D-01
     18  0.151690D-01  0.125178D-01  0.341572D-02 -0.269957D-02 -0.881190D-02
     19 -0.492703D-02  0.957121D-03  0.238011D-03 -0.631886D-03  0.222119D-01
     20 -0.139125D-02 -0.345701D-03  0.217538D-03  0.267016D-02  0.144335D-01
     21 -0.139247D-03  0.125640D-02 -0.395594D-03  0.236505D-03  0.100720D-01
     22  0.237943D-02 -0.485708D-03 -0.120822D-03 -0.929774D-03 -0.170549D-01
     23  0.244955D-02 -0.132574D-02 -0.331622D-03  0.629844D-04 -0.160936D-01
     24  0.182111D-02 -0.114676D-03  0.390539D-03 -0.148313D-02 -0.150092D-01
     25  0.119977D+00  0.153750D+00  0.102089D+00 -0.387379D-01 -0.120144D-02
     26 -0.290269D-01 -0.208001D-01 -0.736939D-02  0.507665D-02 -0.408077D-03
     27 -0.103098D+00 -0.616175D-01 -0.270028D-01  0.207513D-01  0.104505D-01
     28  0.177509D-02 -0.716830D-02 -0.332026D-03  0.209421D-02 -0.124908D-01
     29 -0.209983D+00 -0.121899D+00 -0.779166D-01  0.688715D-01  0.679942D-03
     30 -0.188190D-02  0.592036D-03  0.145862D-01 -0.746299D-02  0.216662D-03
     31  0.285395D-01  0.609466D-04  0.831581D-02 -0.395663D-02 -0.782805D-03
     32  0.274532D-01 -0.151598D-03  0.845722D-02 -0.380836D-02  0.146807D-02
     33  0.287357D-01  0.293094D-03  0.882910D-02 -0.378186D-02 -0.143027D-02
     34 -0.337816D-01 -0.628359D-02 -0.997834D-02  0.598921D-02  0.299185D-02
     35 -0.348679D-01 -0.649613D-02 -0.983693D-02  0.613748D-02  0.524272D-02
     36 -0.335853D-01 -0.605144D-02 -0.946505D-02  0.616398D-02  0.234438D-02
     37  0.584893D-02  0.624449D-02  0.758609D-03 -0.238618D-02 -0.437408D-02
     38  0.476264D-02  0.603195D-02  0.900018D-03 -0.223792D-02 -0.212320D-02
     39  0.604520D-02  0.647664D-02  0.127189D-02 -0.221141D-02 -0.502154D-02
                6             7             8             9            10 
      6  0.403427D+00
      7  0.516893D-01  0.441225D+00
      8  0.388816D-02  0.502241D-02  0.447400D+00
      9  0.577484D-02  0.572052D-02  0.566376D-01  0.439681D+00
     10  0.539819D-02  0.650244D-02  0.564459D-01  0.558311D-01  0.443070D+00
     11 -0.443886D-01  0.885968D-02  0.559315D-02 -0.188829D-02  0.974466D-03
     12  0.248297D-01 -0.489247D-02  0.123222D-03 -0.363210D-02 -0.551347D-03
     13 -0.190006D-01 -0.247905D-01  0.978342D-02 -0.452514D-02 -0.202024D-02
     14 -0.113509D-01 -0.379301D-02 -0.381077D-03 -0.678968D-02 -0.134009D-02
     15  0.151092D-03  0.160837D-01  0.224585D-02  0.153158D-02 -0.532589D-02
     16  0.347854D-01 -0.505437D-02 -0.497288D-02  0.150084D-01 -0.122897D-02
     17 -0.873206D-02  0.127121D-01 -0.709421D-02 -0.274050D-02  0.119256D-01
     18  0.573584D-02  0.706867D-02  0.231265D-04 -0.275753D-02 -0.233109D-02
     19 -0.607897D-02 -0.425926D-02  0.106815D-01 -0.298330D-01 -0.308361D-01
     20  0.174536D-01 -0.319944D-02 -0.288320D-01  0.137669D-01 -0.292222D-01
     21 -0.266927D-02  0.177476D-01 -0.292195D-01 -0.289509D-01  0.184947D-01
     22 -0.337879D-02 -0.189804D-02  0.224853D-01  0.218212D-01  0.327497D-02
     23 -0.127673D-02 -0.395845D-02  0.228361D-01  0.341040D-02  0.200999D-01
     24 -0.435482D-02 -0.478062D-02  0.365991D-02  0.211236D-01  0.194184D-01
     25  0.220892D-01 -0.860146D-02 -0.490297D-03 -0.330572D-02 -0.435467D-04
     26 -0.143664D-01  0.199748D-01  0.505886D-03 -0.390994D-02  0.488147D-02
     27  0.952784D-02 -0.767166D-02  0.348858D-03  0.735671D-02  0.629003D-03
     28  0.107434D-01  0.633718D-02  0.126983D-02  0.167193D-02 -0.524309D-02
     29  0.812257D-02  0.239871D-01 -0.835927D-03  0.735490D-02  0.721408D-03
     30 -0.417825D-02  0.704485D-02 -0.643941D-03  0.888677D-03 -0.115579D-02
     31  0.389235D-02 -0.104046D-01 -0.321971D-03 -0.156967D-01  0.154473D-01
     32  0.697053D-02 -0.175417D-01  0.160297D-01  0.115521D-02 -0.189359D-01
     33  0.110798D-01 -0.141134D-01 -0.168611D-01  0.176862D-01 -0.165055D-02
     34  0.269380D-02  0.168320D-01 -0.247198D-02 -0.162639D-01  0.197771D-01
     35  0.577198D-02  0.969490D-02  0.138797D-01  0.588046D-03 -0.146062D-01
     36  0.988121D-02  0.131232D-01 -0.190111D-01  0.171191D-01  0.267923D-02
     37 -0.170354D-01  0.479053D-02  0.355619D-02 -0.192218D-01  0.171145D-01
     38 -0.139572D-01 -0.234658D-02  0.199079D-01 -0.236990D-02 -0.172688D-01
     39 -0.984795D-02  0.108169D-02 -0.129829D-01  0.141611D-01  0.166064D-04
               11            12            13            14            15 
     11  0.163007D+01
     12  0.151533D+00  0.243424D+00
     13 -0.207134D+00 -0.196432D-01  0.141563D+00
     14  0.436477D+00  0.412298D-01 -0.134824D+00  0.287994D+00
     15  0.535848D-01  0.630949D-02 -0.332609D-01  0.203908D-01  0.700928D-01
     16 -0.343274D+00 -0.318676D-01  0.617631D-01 -0.222507D+00 -0.285142D-02
     17  0.176091D-01  0.157155D-02 -0.462314D-01  0.325876D-01 -0.549905D-01
     18  0.652666D-01  0.424765D-02  0.437607D-02  0.288599D-01  0.320527D-02
     19  0.975534D-02 -0.789564D-03  0.133833D-01 -0.158911D-02  0.149030D-02
     20 -0.768004D-02 -0.255103D-02 -0.481852D-02 -0.114029D-01  0.328757D-02
     21 -0.816649D-03 -0.914223D-03 -0.869793D-02  0.354886D-02 -0.902043D-02
     22 -0.581786D-03  0.175824D-02 -0.272461D-02  0.554620D-02 -0.832006D-03
     23 -0.266904D-02  0.729988D-03 -0.112137D-02  0.563096D-03  0.325815D-02
     24  0.198357D-02  0.190136D-02  0.402616D-02  0.363521D-02  0.195904D-02
     25  0.435121D+00  0.855891D-01 -0.853381D-01  0.165072D+00  0.236623D-01
     26 -0.124610D+00 -0.808105D-02  0.170213D-01 -0.361593D-01 -0.143770D-01
     27 -0.358437D+00 -0.294665D-01  0.840630D-01 -0.183729D+00 -0.240943D-01
     28 -0.486254D-01 -0.180392D-02  0.851376D-02 -0.279097D-02  0.229734D-01
     29 -0.101747D+01 -0.929060D-01  0.166995D+00 -0.348634D+00 -0.359714D-01
     30 -0.538947D-02  0.309920D-01  0.411051D-02 -0.131113D-01 -0.803824D-03
     31  0.699645D-01  0.604843D-02 -0.154406D-01  0.486662D-01 -0.816459D-02
     32  0.705715D-01  0.609665D-02 -0.133437D-01  0.472470D-01 -0.614033D-02
     33  0.675625D-01  0.623101D-02 -0.170458D-01  0.467117D-01 -0.739776D-02
     34 -0.774631D-01 -0.830696D-02  0.131403D-01 -0.533900D-01 -0.965975D-02
     35 -0.768562D-01 -0.825874D-02  0.152372D-01 -0.548091D-01 -0.763548D-02
     36 -0.798652D-01 -0.812438D-02  0.115351D-01 -0.553444D-01 -0.889292D-02
     37  0.102584D-01  0.196950D-02  0.264875D-03  0.844373D-02  0.156437D-01
     38  0.108653D-01  0.201772D-02  0.236176D-02  0.702460D-02  0.176680D-01
     39  0.785630D-02  0.215208D-02 -0.134038D-02  0.648929D-02  0.164105D-01
               16            17            18            19            20 
     16  0.225384D+00
     17 -0.213152D-01  0.117155D+00
     18 -0.529327D-01 -0.299960D-01  0.549549D-01
     19 -0.756179D-02 -0.103104D-01  0.474705D-02  0.182856D+00
     20  0.221731D-01 -0.406561D-02 -0.594421D-02  0.506887D-03  0.179760D+00
     21 -0.295351D-02  0.221679D-01 -0.556796D-02  0.144087D-02  0.145315D-02
     22 -0.645655D-02  0.341988D-02  0.141604D-02 -0.902538D-01 -0.889207D-01
     23  0.163832D-02 -0.540655D-02  0.135083D-02 -0.907003D-01 -0.988175D-02
     24 -0.724234D-02 -0.609078D-02  0.423294D-02 -0.928898D-02 -0.887869D-01
     25 -0.135523D+00  0.748023D-02  0.350803D-01 -0.966421D-03 -0.115801D-02
     26  0.282710D-02  0.305953D-01 -0.119230D-02  0.522614D-03 -0.704602D-02
     27  0.159350D+00 -0.275285D-02 -0.448600D-01 -0.164497D-02  0.973071D-02
     28 -0.941924D-02 -0.479353D-01  0.335859D-01  0.375668D-02 -0.980643D-03
     29  0.277324D+00 -0.202671D-01 -0.584174D-01 -0.978171D-03  0.622382D-02
     30  0.125089D-01 -0.788452D-04 -0.343198D-02 -0.154522D-02  0.921095D-03
     31 -0.300868D-01  0.179490D-02  0.495353D-02 -0.446811D-03 -0.480475D-02
     32 -0.287652D-01 -0.315699D-02  0.594946D-02  0.471516D-02 -0.364557D-05
     33 -0.253939D-01  0.931480D-03  0.379836D-02 -0.560634D-02  0.623122D-02
     34  0.326253D-01  0.900569D-02  0.854460D-02 -0.127801D-02 -0.511065D-02
     35  0.339469D-01  0.405380D-02  0.954053D-02  0.388397D-02 -0.309542D-03
     36  0.373182D-01  0.814227D-02  0.738943D-02 -0.643754D-02  0.592532D-02
     37 -0.838295D-02 -0.428211D-02 -0.135910D-01  0.218316D-02 -0.730261D-02
     38 -0.706137D-02 -0.923400D-02 -0.125951D-01  0.734514D-02 -0.250150D-02
     39 -0.369007D-02 -0.514553D-02 -0.147462D-01 -0.297637D-02  0.373336D-02
               21            22            23            24            25 
     21  0.180593D+00
     22 -0.102067D-01  0.122858D+00
     23 -0.892713D-01  0.364193D-01  0.123019D+00
     24 -0.899251D-01  0.359913D-01  0.363196D-01  0.121663D+00
     25 -0.169307D-02  0.113184D-02  0.117418D-02  0.163154D-02  0.471881D+00
     26  0.778315D-02  0.191949D-02 -0.276869D-02 -0.449176D-03 -0.579157D-01
     27  0.706591D-03 -0.395578D-02 -0.853390D-03 -0.427366D-02 -0.159018D+00
     28 -0.830933D-02 -0.712282D-04  0.252952D-02  0.326669D-02 -0.282871D-01
     29  0.119807D-02 -0.269912D-02 -0.497544D-03 -0.345832D-02 -0.575320D+00
     30 -0.350783D-03  0.124384D-03  0.791214D-03  0.856893D-04  0.586561D-01
     31  0.405822D-02 -0.189180D-01  0.197351D-01  0.416474D-03  0.225494D-01
     32 -0.678499D-02  0.191773D-01  0.624411D-03 -0.176058D-01  0.225970D-01
     33 -0.141267D-02  0.890387D-04 -0.180793D-01  0.187420D-01  0.227912D-01
     34  0.800699D-02 -0.189074D-01  0.183485D-01 -0.111271D-02 -0.232624D-01
     35 -0.283623D-02  0.191879D-01 -0.762177D-03 -0.191350D-01 -0.232148D-01
     36  0.253610D-02  0.995980D-04 -0.194659D-01  0.172129D-01 -0.230206D-01
     37  0.482575D-02 -0.190258D-01  0.186720D-01  0.667401D-03  0.301028D-03
     38 -0.601747D-02  0.190695D-01 -0.438691D-03 -0.173549D-01  0.348637D-03
     39 -0.645144D-03 -0.187890D-04 -0.191424D-01  0.189930D-01  0.542813D-03
               26            27            28            29            30 
     26  0.300591D-01
     27  0.146246D-01  0.130970D+00
     28 -0.109699D-01 -0.201351D-01  0.280941D-01
     29  0.991789D-01  0.291289D+00  0.398892D-01  0.834332D+00
     30  0.198907D-02  0.104989D-01 -0.109938D-03 -0.918907D-02 -0.144423D-01
     31 -0.165629D-01 -0.261306D-01 -0.103519D-02 -0.557434D-01 -0.184267D-02
     32 -0.183516D-01 -0.258749D-01  0.654244D-03 -0.557427D-01 -0.208783D-02
     33 -0.184351D-01 -0.244685D-01 -0.126794D-02 -0.552652D-01 -0.161315D-02
     34  0.179748D-01  0.252697D-01  0.485480D-02  0.581877D-01  0.218630D-02
     35  0.161862D-01  0.255254D-01  0.654423D-02  0.581884D-01  0.194114D-02
     36  0.161026D-01  0.269318D-01  0.462205D-02  0.586659D-01  0.241582D-02
     37  0.258843D-02 -0.127796D-02 -0.532799D-02 -0.304921D-02 -0.703644D-04
     38  0.799769D-03 -0.102227D-02 -0.363855D-02 -0.304850D-02 -0.315530D-03
     39  0.716229D-03  0.384164D-03 -0.556073D-02 -0.257103D-02  0.159155D-03
               31            32            33            34            35 
     31  0.348140D-01
     32  0.791920D-02  0.347916D-01
     33  0.795713D-02  0.846683D-02  0.349361D-01
     34  0.580712D-02 -0.218027D-01 -0.213203D-01  0.406726D-01
     35 -0.210876D-01  0.506976D-02 -0.208106D-01  0.130628D-01  0.392202D-01
     36 -0.210497D-01 -0.212550D-01  0.565863D-02  0.135452D-01  0.133399D-01
     37  0.142590D-01 -0.126848D-01 -0.134503D-01  0.986960D-02 -0.170742D-01
     38 -0.126358D-01  0.141876D-01 -0.129406D-01 -0.177402D-01  0.908322D-02
     39 -0.125978D-01 -0.121372D-01  0.135287D-01 -0.172578D-01 -0.167971D-01
               36            37            38            39 
     36  0.402535D-01
     37 -0.178397D-01  0.319909D-01
     38 -0.180450D-01  0.504718D-02  0.318706D-01
     39  0.886867D-02  0.428170D-02  0.474238D-02  0.304082D-01
 Leave Link  716 at Sat May 24 08:45:56 2025, MaxMem=  3758096384 cpu:               0.0 elap:               0.0
 (Enter /apps/easybuild-2022/easybuild/software/Compiler/NVHPC/22.11-CUDA-11.7.0/Gaussian/g16c01-CUDA-11.7.0/g16/l103.exe)

 GradGradGradGradGradGradGradGradGradGradGradGradGradGradGradGradGradGrad
 Berny optimization.
 Red2BG is reusing G-inverse.
 Internal  Forces:  Max     0.213911726 RMS     0.050035969
 Search for a local minimum.
 Step number   1 out of a maximum of   49
 All quantities printed in internal units (Hartrees-Bohrs-Radians)
 RMS Force = .50036D-01 SwitMx=.10000D-02 MixMth= 1
 Mixed Optimization -- RFO/linear search
 Second derivative matrix not updated -- analytic derivatives used.
 ITU=  0
     Eigenvalues ---   -0.06775  -0.03218  -0.01493   0.00343   0.06968
     Eigenvalues ---    0.09321   0.10049   0.10323   0.13401   0.15157
     Eigenvalues ---    0.16962   0.18525   0.22501   0.23859   0.25085
     Eigenvalues ---    0.26124   0.32546   0.36323   0.38548   0.40693
     Eigenvalues ---    0.41042   0.45771   0.48785   0.50596   0.57940
     Eigenvalues ---    0.65063   3.16376
 Eigenvalue     1 is  -6.78D-02 should be greater than     0.000000 Eigenvector:
                          D4        A15       D5        A1        R1
   1                   -0.63557  -0.54770   0.42658  -0.26578   0.12787
                          R2        A4        D3        A3        D8
   1                    0.10852  -0.07024  -0.04769   0.03328  -0.02857
 Eigenvalue     2 is  -3.22D-02 should be greater than     0.000000 Eigenvector:
                          D2        D3        D1        D5        D4
   1                   -0.53645  -0.48220  -0.44480   0.40133   0.29163
                          A4        A8        D7        D8        D6
   1                   -0.06351   0.06153  -0.05383  -0.05375  -0.05228
 Eigenvalue     3 is  -1.49D-02 should be greater than     0.000000 Eigenvector:
                          D5        D3        D2        D1        D4
   1                   -0.78456  -0.29045  -0.24711  -0.24466  -0.23412
                          A1        A4        A2        A15       R1
   1                   -0.17195  -0.13990   0.13323  -0.13291   0.11603
 RFO step:  Lambda=-1.30806511D-01 EMin=-6.77539570D-02
 Linear search not attempted -- first point.
 Maximum step size (   0.300) exceeded in Quadratic search.
    -- Step size scaled by   0.399
 Iteration  1 RMS(Cart)=  0.14230352 RMS(Int)=  0.02522242
 Iteration  2 RMS(Cart)=  0.07859747 RMS(Int)=  0.00390721
 Iteration  3 RMS(Cart)=  0.00542599 RMS(Int)=  0.00037005
 Iteration  4 RMS(Cart)=  0.00002321 RMS(Int)=  0.00036973
 Iteration  5 RMS(Cart)=  0.00000000 RMS(Int)=  0.00036973
 ITry= 1 IFail=0 DXMaxC= 8.35D-01 DCOld= 1.00D+10 DXMaxT= 3.00D-01 DXLimC= 3.00D+00 Rises=F
 Variable       Old X    -DE/DX   Delta X   Delta X   Delta X     New X
                                 (Linear)    (Quad)   (Total)
    R1        2.91897   0.05872   0.00000  -0.04615  -0.04615   2.87282
    R2        2.36563   0.06947   0.00000  -0.03311  -0.03311   2.33252
    R3        2.72691   0.04841   0.00000   0.02241   0.02241   2.74932
    R4        1.83011  -0.00992   0.00000  -0.00469  -0.00469   1.82542
    R5        2.91591  -0.00493   0.00000   0.00187   0.00187   2.91777
    R6        2.53549   0.02338   0.00000   0.01723   0.01723   2.55272
    R7        2.53556   0.00858   0.00000  -0.00709  -0.00709   2.52846
    R8        2.50438  -0.00326   0.00000  -0.00129  -0.00129   2.50309
    R9        2.51213  -0.00754   0.00000  -0.00728  -0.00728   2.50486
   R10        2.51212  -0.00275   0.00000  -0.00264  -0.00264   2.50948
    A1        1.86295   0.21391   0.00000   0.14660   0.14660   2.00954
    A2        1.73806   0.04389   0.00000   0.00012   0.00012   1.73818
    A3        2.09703  -0.07102   0.00000  -0.06568  -0.06567   2.03137
    A4        1.85868   0.09233   0.00000   0.05400   0.05313   1.91181
    A5        1.85824   0.02525   0.00000   0.02929   0.02876   1.88700
    A6        1.86803  -0.05292   0.00000  -0.01898  -0.01858   1.84945
    A7        1.86818   0.00761   0.00000   0.00487   0.00512   1.87330
    A8        1.90903   0.00314   0.00000  -0.00011  -0.00079   1.90823
    A9        1.92552  -0.00818   0.00000  -0.00910  -0.00911   1.91641
   A10        1.92583  -0.00285   0.00000  -0.00147  -0.00148   1.92435
   A11        1.92567  -0.00223   0.00000  -0.00144  -0.00144   1.92423
   A12        1.89370   0.00521   0.00000   0.00444   0.00442   1.89813
   A13        1.89365   0.00482   0.00000   0.00378   0.00377   1.89742
   A14        1.89870   0.00363   0.00000   0.00415   0.00415   1.90285
   A15        1.94620   0.11187   0.00000   0.23351   0.23351   2.17971
    D1       -2.09189  -0.01468   0.00000  -0.05816  -0.05775  -2.14965
    D2        0.03190  -0.05667   0.00000  -0.08355  -0.08496  -0.05306
    D3        2.06767   0.00330   0.00000  -0.04374  -0.04273   2.02494
    D4       -1.04782  -0.06197   0.00000   0.32919   0.32919  -0.71863
    D5        1.04495   0.01465   0.00000  -0.00772  -0.00772   1.03724
    D6        3.14066   0.01275   0.00000   0.00346   0.00363  -3.13890
    D7       -1.05018   0.01217   0.00000   0.00221   0.00238  -1.04780
    D8        1.04848   0.01342   0.00000   0.00550   0.00566   1.05414
    D9        1.02146  -0.01611   0.00000  -0.00658  -0.00689   1.01457
   D10        3.11380  -0.01669   0.00000  -0.00783  -0.00814   3.10567
   D11       -1.07072  -0.01544   0.00000  -0.00454  -0.00485  -1.07558
   D12       -1.02378   0.00299   0.00000   0.00063   0.00077  -1.02301
   D13        1.06856   0.00241   0.00000  -0.00062  -0.00048   1.06808
   D14       -3.11596   0.00366   0.00000   0.00267   0.00280  -3.11316
         Item               Value     Threshold  Converged?
 Maximum Force            0.213912     0.000450     NO 
 RMS     Force            0.050036     0.000300     NO 
 Maximum Displacement     0.834792     0.001800     NO 
 RMS     Displacement     0.209776     0.001200     NO 
 Predicted change in Energy=-5.406846D-02
 Lowest energy point so far.  Saving SCF results.
 GradGradGradGradGradGradGradGradGradGradGradGradGradGradGradGradGradGrad

 Leave Link  103 at Sat May 24 08:45:56 2025, MaxMem=  3758096384 cpu:               0.0 elap:               0.0
 (Enter /apps/easybuild-2022/easybuild/software/Compiler/NVHPC/22.11-CUDA-11.7.0/Gaussian/g16c01-CUDA-11.7.0/g16/l202.exe)
                          Input orientation:                          
 ---------------------------------------------------------------------
 Center     Atomic      Atomic             Coordinates (Angstroms)
 Number     Number       Type             X           Y           Z
 ---------------------------------------------------------------------
      1          6           0        0.616794    1.978547    1.058537
      2          8           0        1.086562   -0.023369   -0.152308
      3          6           0       -0.873549    1.678570    1.057460
      4          6           0       -1.817020    2.888725    0.886041
      5          9           0       -3.077329    2.481690    0.907220
      6          9           0       -1.633041    3.757145    1.870412
      7          9           0       -1.583789    3.492768   -0.273362
      8          9           0       -1.163778    0.834586    0.043442
      9          9           0       -1.181328    1.094915    2.221453
     10          8           0        1.273926    1.374129    0.206252
     11          1           0        0.165471    0.006846   -0.441753
 ---------------------------------------------------------------------
                    Distance matrix (angstroms):
                    1          2          3          4          5
     1  C    0.000000
     2  O    2.386314   0.000000
     3  C    1.520233   2.863943   0.000000
     4  C    2.604157   4.241374   1.544020   0.000000
     5  F    3.731299   4.973521   2.350366   1.324576   0.000000
     6  F    2.980656   5.077394   2.357582   1.325514   2.154180
     7  F    2.984859   4.416859   2.359415   1.327961   2.155623
     8  F    2.347232   2.416285   1.350842   2.314343   2.668472
     9  F    2.316553   3.468231   1.338006   2.324905   2.691686
    10  O    1.234315   1.454879   2.329998   3.508570   4.544388
    11  H    2.518366   0.965971   2.474240   3.741462   4.296549
                    6          7          8          9         10
     6  F    0.000000
     7  F    2.160576   0.000000
     8  F    3.478416   2.709742   0.000000
     9  F    2.723002   3.483643   2.193584   0.000000
    10  O    4.110797   3.589595   2.502002   3.188615   0.000000
    11  H    4.758729   3.903834   1.639351   3.176543   1.875646
                   11
    11  H    0.000000
 Symmetry turned off by external request.
 Stoichiometry    C3HF5O2
 Rotational constants (GHZ):           2.4245062           0.9600590           0.9308188
 Leave Link  202 at Sat May 24 08:45:56 2025, MaxMem=  3758096384 cpu:               0.0 elap:               0.0
 (Enter /apps/easybuild-2022/easybuild/software/Compiler/NVHPC/22.11-CUDA-11.7.0/Gaussian/g16c01-CUDA-11.7.0/g16/l301.exe)
 Standard basis: def2TZVPP (5D, 7F)
 Ernie: Thresh=  0.10000D-02 Tol=  0.10000D-05 Strict=F.
   324 basis functions,   527 primitive gaussians,   375 cartesian basis functions
    40 alpha electrons       40 beta electrons
       nuclear repulsion energy       630.2917940155 Hartrees.
 IExCor= 4336 DFT=T Ex+Corr=M062X ExCW=0 ScaHFX=  0.540000
 ScaDFX=  1.000000  1.000000  1.000000  1.000000 ScalE2=  1.000000  1.000000
 IRadAn=      5 IRanWt=     -1 IRanGd=            0 ICorTp=0 IEmpDi=  4
 NAtoms=   11 NActive=   11 NUniq=   11 SFac= 1.00D+00 NAtFMM=   60 NAOKFM=F Big=F
 Integral buffers will be    131072 words long.
 Raffenetti 2 integral format.
 Two-electron integral symmetry is turned off.
 Leave Link  301 at Sat May 24 08:45:56 2025, MaxMem=  3758096384 cpu:               0.0 elap:               0.0
 (Enter /apps/easybuild-2022/easybuild/software/Compiler/NVHPC/22.11-CUDA-11.7.0/Gaussian/g16c01-CUDA-11.7.0/g16/l302.exe)
 NPDir=0 NMtPBC=     1 NCelOv=     1 NCel=       1 NClECP=     1 NCelD=      1
         NCelK=      1 NCelE2=     1 NClLst=     1 CellRange=     0.0.
 One-electron integrals computed using PRISM.
   1 Symmetry operations used in ECPInt.
 ECPInt:  NShTT=    6786 NPrTT=   21959 LenC2=    6423 LenP2D=   15822.
 LDataN:  DoStor=T MaxTD1= 6 Len=  172
 NBasis=   324 RedAO= T EigKep=  4.48D-04  NBF=   324
 NBsUse=   324 1.00D-06 EigRej= -1.00D+00 NBFU=   324
 Precomputing XC quadrature grid using
 IXCGrd= 4 IRadAn=           5 IRanWt=          -1 IRanGd=           0 AccXCQ= 0.00D+00.
 Generated NRdTot=       0 NPtTot=           0 NUsed=           0 NTot=          32
 NSgBfM=   373   373   373   373   373 MxSgAt=    11 MxSgA2=    11.
 Leave Link  302 at Sat May 24 08:45:56 2025, MaxMem=  3758096384 cpu:               0.6 elap:               0.1
 (Enter /apps/easybuild-2022/easybuild/software/Compiler/NVHPC/22.11-CUDA-11.7.0/Gaussian/g16c01-CUDA-11.7.0/g16/l303.exe)
 DipDrv:  MaxL=1.
 Leave Link  303 at Sat May 24 08:45:56 2025, MaxMem=  3758096384 cpu:               0.1 elap:               0.0
 (Enter /apps/easybuild-2022/easybuild/software/Compiler/NVHPC/22.11-CUDA-11.7.0/Gaussian/g16c01-CUDA-11.7.0/g16/l401.exe)
 Initial guess from the checkpoint file:  "/tmp/Gau-73992.chk"
 B after Tr=    -0.055121   -0.068538    0.228976
         Rot=    0.999714    0.023323   -0.004571    0.002609 Ang=   2.74 deg.
 Guess basis will be translated and rotated to current coordinates.
 JPrj=2 DoOrth=T DoCkMO=T.
 Generating alternative initial guess.
 ExpMin= 9.52D-02 ExpMax= 3.55D+04 ExpMxC= 1.21D+03 IAcc=3 IRadAn=         5 AccDes= 0.00D+00
 Harris functional with IExCor= 1009 and IRadAn=       5 diagonalized for initial guess.
 HarFok:  IExCor= 1009 AccDes= 0.00D+00 IRadAn=         5 IDoV= 1 UseB2=F ITyADJ=14
 ICtDFT=  3500011 ScaDFX=  1.000000  1.000000  1.000000  1.000000
 FoFCou: FMM=F IPFlag=           0 FMFlag=      100000 FMFlg1=           0
         NFxFlg=           0 DoJE=T BraDBF=F KetDBF=T FulRan=T
         wScrn=  0.000000 ICntrl=       500 IOpCl=  0 I1Cent=   200000004 NGrid=           0
         NMat0=    1 NMatS0=      1 NMatT0=    0 NMatD0=    1 NMtDS0=    0 NMtDT0=    0
 Symmetry not used in FoFCou.
 Harris En= -763.964042785764    
 Leave Link  401 at Sat May 24 08:45:57 2025, MaxMem=  3758096384 cpu:               3.7 elap:               0.6
 (Enter /apps/easybuild-2022/easybuild/software/Compiler/NVHPC/22.11-CUDA-11.7.0/Gaussian/g16c01-CUDA-11.7.0/g16/l502.exe)
 Keep R1 ints in memory in canonical form, NReq=1412617130.
 FoFCou: FMM=F IPFlag=           0 FMFlag=           0 FMFlg1=           0
         NFxFlg=           0 DoJE=F BraDBF=F KetDBF=F FulRan=T
         wScrn=  0.000000 ICntrl=       600 IOpCl=  0 I1Cent=           0 NGrid=           0
         NMat0=    1 NMatS0=  52650 NMatT0=    0 NMatD0=    1 NMtDS0=    0 NMtDT0=    0
 Symmetry not used in FoFCou.
 Two-electron integral symmetry not used.
 Closed shell SCF:
 Using DIIS extrapolation, IDIIS=  1040.
 NGot=  3758096384 LenX=  2371771924 LenY=  2371630858
 Requested convergence on RMS density matrix=1.00D-08 within  32 cycles.
 Requested convergence on MAX density matrix=1.00D-06.
 Requested convergence on             energy=1.00D-06.
 No special actions if energy rises.
 Integral accuracy reduced to 1.0D-05 until final iterations.

 Cycle   1  Pass 0  IDiag  1:
 E= -764.342259491752    
 DIIS: error= 7.84D-03 at cycle   1 NSaved=   1.
 NSaved= 1 IEnMin= 1 EnMin= -764.342259491752     IErMin= 1 ErrMin= 7.84D-03
 ErrMax= 7.84D-03  0.00D+00 EMaxC= 1.00D-01 BMatC= 5.74D-02 BMatP= 5.74D-02
 IDIUse=3 WtCom= 9.22D-01 WtEn= 7.84D-02
 Coeff-Com:  0.100D+01
 Coeff-En:   0.100D+01
 Coeff:      0.100D+01
 Gap=     0.907 Goal=   None    Shift=    0.000
 GapD=    0.907 DampG=2.000 DampE=1.000 DampFc=2.0000 IDamp=-1.
 RMSDP=8.49D-04 MaxDP=3.58D-02              OVMax= 9.92D-02

 Cycle   2  Pass 0  IDiag  1:
 E= -764.424337198976     Delta-E=       -0.082077707224 Rises=F Damp=F
 DIIS: error= 3.14D-03 at cycle   2 NSaved=   2.
 NSaved= 2 IEnMin= 2 EnMin= -764.424337198976     IErMin= 2 ErrMin= 3.14D-03
 ErrMax= 3.14D-03  0.00D+00 EMaxC= 1.00D-01 BMatC= 4.01D-03 BMatP= 5.74D-02
 IDIUse=3 WtCom= 9.69D-01 WtEn= 3.14D-02
 Coeff-Com: -0.685D-01 0.107D+01
 Coeff-En:   0.000D+00 0.100D+01
 Coeff:     -0.663D-01 0.107D+01
 Gap=     0.244 Goal=   None    Shift=    0.000
 RMSDP=2.85D-04 MaxDP=1.27D-02 DE=-8.21D-02 OVMax= 3.30D-02

 Cycle   3  Pass 0  IDiag  1:
 E= -764.429165701482     Delta-E=       -0.004828502506 Rises=F Damp=F
 DIIS: error= 1.92D-03 at cycle   3 NSaved=   3.
 NSaved= 3 IEnMin= 3 EnMin= -764.429165701482     IErMin= 3 ErrMin= 1.92D-03
 ErrMax= 1.92D-03  0.00D+00 EMaxC= 1.00D-01 BMatC= 4.03D-03 BMatP= 4.01D-03
 IDIUse=3 WtCom= 9.81D-01 WtEn= 1.92D-02
 Coeff-Com: -0.893D-01 0.577D+00 0.513D+00
 Coeff-En:   0.000D+00 0.000D+00 0.100D+01
 Coeff:     -0.876D-01 0.565D+00 0.522D+00
 Gap=     0.247 Goal=   None    Shift=    0.000
 RMSDP=1.17D-04 MaxDP=8.08D-03 DE=-4.83D-03 OVMax= 1.52D-02

 Cycle   4  Pass 0  IDiag  1:
 E= -764.432008025699     Delta-E=       -0.002842324217 Rises=F Damp=F
 DIIS: error= 8.49D-04 at cycle   4 NSaved=   4.
 NSaved= 4 IEnMin= 4 EnMin= -764.432008025699     IErMin= 4 ErrMin= 8.49D-04
 ErrMax= 8.49D-04  0.00D+00 EMaxC= 1.00D-01 BMatC= 2.84D-04 BMatP= 4.01D-03
 IDIUse=3 WtCom= 9.92D-01 WtEn= 8.49D-03
 Coeff-Com: -0.630D-02-0.680D-01 0.160D+00 0.914D+00
 Coeff-En:   0.000D+00 0.000D+00 0.000D+00 0.100D+01
 Coeff:     -0.625D-02-0.674D-01 0.159D+00 0.915D+00
 Gap=     0.245 Goal=   None    Shift=    0.000
 RMSDP=6.52D-05 MaxDP=2.75D-03 DE=-2.84D-03 OVMax= 8.81D-03

 Cycle   5  Pass 0  IDiag  1:
 E= -764.432383879689     Delta-E=       -0.000375853990 Rises=F Damp=F
 DIIS: error= 1.86D-04 at cycle   5 NSaved=   5.
 NSaved= 5 IEnMin= 5 EnMin= -764.432383879689     IErMin= 5 ErrMin= 1.86D-04
 ErrMax= 1.86D-04  0.00D+00 EMaxC= 1.00D-01 BMatC= 4.35D-05 BMatP= 2.84D-04
 IDIUse=3 WtCom= 9.98D-01 WtEn= 1.86D-03
 Coeff-Com:  0.888D-02-0.102D+00 0.185D-02 0.399D+00 0.693D+00
 Coeff-En:   0.000D+00 0.000D+00 0.000D+00 0.000D+00 0.100D+01
 Coeff:      0.887D-02-0.102D+00 0.185D-02 0.398D+00 0.693D+00
 Gap=     0.246 Goal=   None    Shift=    0.000
 RMSDP=2.45D-05 MaxDP=1.54D-03 DE=-3.76D-04 OVMax= 3.68D-03

 Cycle   6  Pass 0  IDiag  1:
 E= -764.432439955106     Delta-E=       -0.000056075417 Rises=F Damp=F
 DIIS: error= 9.22D-05 at cycle   6 NSaved=   6.
 NSaved= 6 IEnMin= 6 EnMin= -764.432439955106     IErMin= 6 ErrMin= 9.22D-05
 ErrMax= 9.22D-05  0.00D+00 EMaxC= 1.00D-01 BMatC= 5.37D-06 BMatP= 4.35D-05
 IDIUse=1 WtCom= 1.00D+00 WtEn= 0.00D+00
 Coeff-Com:  0.364D-02-0.210D-01-0.257D-01-0.263D-01 0.222D+00 0.847D+00
 Coeff:      0.364D-02-0.210D-01-0.257D-01-0.263D-01 0.222D+00 0.847D+00
 Gap=     0.245 Goal=   None    Shift=    0.000
 RMSDP=1.40D-05 MaxDP=9.01D-04 DE=-5.61D-05 OVMax= 2.36D-03

 Cycle   7  Pass 0  IDiag  1:
 E= -764.432451249205     Delta-E=       -0.000011294099 Rises=F Damp=F
 DIIS: error= 4.21D-05 at cycle   7 NSaved=   7.
 NSaved= 7 IEnMin= 7 EnMin= -764.432451249205     IErMin= 7 ErrMin= 4.21D-05
 ErrMax= 4.21D-05  0.00D+00 EMaxC= 1.00D-01 BMatC= 7.76D-07 BMatP= 5.37D-06
 IDIUse=1 WtCom= 1.00D+00 WtEn= 0.00D+00
 Coeff-Com: -0.519D-03 0.130D-01-0.472D-02-0.812D-01-0.717D-01 0.216D+00
 Coeff-Com:  0.929D+00
 Coeff:     -0.519D-03 0.130D-01-0.472D-02-0.812D-01-0.717D-01 0.216D+00
 Coeff:      0.929D+00
 Gap=     0.245 Goal=   None    Shift=    0.000
 RMSDP=7.28D-06 MaxDP=2.79D-04 DE=-1.13D-05 OVMax= 1.57D-03

 Initial convergence to 1.0D-05 achieved.  Increase integral accuracy.
 Cycle   8  Pass 1  IDiag  1:
 E= -764.432478869426     Delta-E=       -0.000027620221 Rises=F Damp=F
 DIIS: error= 2.59D-05 at cycle   1 NSaved=   1.
 NSaved= 1 IEnMin= 1 EnMin= -764.432478869426     IErMin= 1 ErrMin= 2.59D-05
 ErrMax= 2.59D-05  0.00D+00 EMaxC= 1.00D-01 BMatC= 6.43D-07 BMatP= 6.43D-07
 IDIUse=1 WtCom= 1.00D+00 WtEn= 0.00D+00
 Coeff-Com:  0.100D+01
 Coeff:      0.100D+01
 Gap=     0.245 Goal=   None    Shift=    0.000
 RMSDP=7.28D-06 MaxDP=2.79D-04 DE=-2.76D-05 OVMax= 5.11D-04

 Cycle   9  Pass 1  IDiag  1:
 E= -764.432479463934     Delta-E=       -0.000000594508 Rises=F Damp=F
 DIIS: error= 1.53D-05 at cycle   2 NSaved=   2.
 NSaved= 2 IEnMin= 2 EnMin= -764.432479463934     IErMin= 2 ErrMin= 1.53D-05
 ErrMax= 1.53D-05  0.00D+00 EMaxC= 1.00D-01 BMatC= 1.59D-07 BMatP= 6.43D-07
 IDIUse=1 WtCom= 1.00D+00 WtEn= 0.00D+00
 Coeff-Com:  0.238D+00 0.762D+00
 Coeff:      0.238D+00 0.762D+00
 Gap=     0.245 Goal=   None    Shift=    0.000
 RMSDP=1.65D-06 MaxDP=7.79D-05 DE=-5.95D-07 OVMax= 3.15D-04

 Cycle  10  Pass 1  IDiag  1:
 E= -764.432479573446     Delta-E=       -0.000000109512 Rises=F Damp=F
 DIIS: error= 1.18D-05 at cycle   3 NSaved=   3.
 NSaved= 3 IEnMin= 3 EnMin= -764.432479573446     IErMin= 3 ErrMin= 1.18D-05
 ErrMax= 1.18D-05  0.00D+00 EMaxC= 1.00D-01 BMatC= 1.22D-07 BMatP= 1.59D-07
 IDIUse=1 WtCom= 1.00D+00 WtEn= 0.00D+00
 Coeff-Com: -0.473D-01 0.468D+00 0.580D+00
 Coeff:     -0.473D-01 0.468D+00 0.580D+00
 Gap=     0.245 Goal=   None    Shift=    0.000
 RMSDP=9.04D-07 MaxDP=3.25D-05 DE=-1.10D-07 OVMax= 1.60D-04

 Cycle  11  Pass 1  IDiag  1:
 E= -764.432479681433     Delta-E=       -0.000000107987 Rises=F Damp=F
[...]
                                 (Linear)    (Quad)   (Total)
    R1        2.91084   0.00000   0.00000   0.00002   0.00002   2.91085
    R2        2.28182  -0.00001   0.00000  -0.00001  -0.00001   2.28180
    R3        3.01218  -0.00000   0.00000  -0.00001  -0.00001   3.01217
    R4        1.82502   0.00000   0.00000   0.00000   0.00000   1.82503
    R5        2.90982   0.00000   0.00000   0.00000   0.00000   2.90983
    R6        2.52666   0.00000   0.00000   0.00001   0.00001   2.52667
    R7        2.52669   0.00000   0.00000   0.00000   0.00000   2.52669
    R8        2.50394   0.00000   0.00000   0.00000   0.00000   2.50394
    R9        2.50546  -0.00000   0.00000   0.00000   0.00000   2.50546
   R10        2.50558   0.00000   0.00000  -0.00000  -0.00000   2.50558
    A1        2.07988   0.00000   0.00000   0.00000   0.00000   2.07988
    A2        1.69978   0.00000   0.00000   0.00000   0.00000   1.69979
    A3        1.92432   0.00000   0.00000   0.00000   0.00000   1.92433
    A4        1.92339  -0.00000   0.00000  -0.00003  -0.00003   1.92335
    A5        1.92324   0.00000   0.00000   0.00004   0.00004   1.92328
    A6        1.88240  -0.00000   0.00000  -0.00000  -0.00000   1.88240
    A7        1.88276  -0.00000   0.00000  -0.00001  -0.00001   1.88275
    A8        1.92693   0.00000   0.00000   0.00000   0.00000   1.92693
    A9        1.91886   0.00000   0.00000  -0.00000  -0.00000   1.91886
   A10        1.91923  -0.00000   0.00000  -0.00001  -0.00001   1.91923
   A11        1.91897   0.00000   0.00000   0.00001   0.00001   1.91898
   A12        1.90099  -0.00000   0.00000  -0.00000  -0.00000   1.90098
   A13        1.90105  -0.00000   0.00000   0.00000   0.00000   1.90105
   A14        1.90448   0.00000   0.00000   0.00000   0.00000   1.90448
   A15        2.05235   0.00001   0.00000   0.00003   0.00003   2.05237
    D1        3.14095  -0.00000   0.00000  -0.00006  -0.00006   3.14089
    D2       -1.06621  -0.00000   0.00000  -0.00008  -0.00008  -1.06629
    D3        1.06457   0.00000   0.00000  -0.00007  -0.00007   1.06450
    D4        0.00026   0.00000   0.00000  -0.00003  -0.00003   0.00023
    D5       -3.13835  -0.00000   0.00000  -0.00026  -0.00026  -3.13860
    D6        3.14120  -0.00000   0.00000  -0.00006  -0.00006   3.14114
    D7       -1.04902  -0.00000   0.00000  -0.00006  -0.00006  -1.04909
    D8        1.04832  -0.00000   0.00000  -0.00006  -0.00006   1.04826
    D9        1.04035   0.00000   0.00000  -0.00002  -0.00002   1.04034
   D10        3.13331  -0.00000   0.00000  -0.00003  -0.00003   3.13329
   D11       -1.05252  -0.00000   0.00000  -0.00002  -0.00002  -1.05255
   D12       -1.04109   0.00000   0.00000  -0.00001  -0.00001  -1.04110
   D13        1.05187   0.00000   0.00000  -0.00002  -0.00002   1.05185
   D14       -3.13397   0.00000   0.00000  -0.00002  -0.00002  -3.13398
         Item               Value     Threshold  Converged?
 Maximum Force            0.000011     0.000450     YES
 RMS     Force            0.000003     0.000300     YES
 Maximum Displacement     0.000263     0.001800     YES
 RMS     Displacement     0.000061     0.001200     YES
 Predicted change in Energy=-5.234715D-10
 Optimization completed.
    -- Stationary point found.
                           ----------------------------
                           !   Optimized Parameters   !
                           ! (Angstroms and Degrees)  !
 --------------------------                            --------------------------
 ! Name  Definition              Value          Derivative Info.                !
 --------------------------------------------------------------------------------
 ! R1    R(1,3)                  1.5403         -DE/DX =    0.0                 !
 ! R2    R(1,10)                 1.2075         -DE/DX =    0.0                 !
 ! R3    R(2,10)                 1.594          -DE/DX =    0.0                 !
 ! R4    R(2,11)                 0.9658         -DE/DX =    0.0                 !
 ! R5    R(3,4)                  1.5398         -DE/DX =    0.0                 !
 ! R6    R(3,8)                  1.3371         -DE/DX =    0.0                 !
 ! R7    R(3,9)                  1.3371         -DE/DX =    0.0                 !
 ! R8    R(4,5)                  1.325          -DE/DX =    0.0                 !
 ! R9    R(4,6)                  1.3258         -DE/DX =    0.0                 !
 ! R10   R(4,7)                  1.3259         -DE/DX =    0.0                 !
 ! A1    A(3,1,10)             119.1682         -DE/DX =    0.0                 !
 ! A2    A(10,2,11)             97.3904         -DE/DX =    0.0                 !
 ! A3    A(1,3,4)              110.2555         -DE/DX =    0.0                 !
 ! A4    A(1,3,8)              110.2019         -DE/DX =    0.0                 !
 ! A5    A(1,3,9)              110.1936         -DE/DX =    0.0                 !
 ! A6    A(4,3,8)              107.8534         -DE/DX =    0.0                 !
 ! A7    A(4,3,9)              107.8742         -DE/DX =    0.0                 !
 ! A8    A(8,3,9)              110.405          -DE/DX =    0.0                 !
 ! A9    A(3,4,5)              109.9424         -DE/DX =    0.0                 !
 ! A10   A(3,4,6)              109.964          -DE/DX =    0.0                 !
 ! A11   A(3,4,7)              109.9491         -DE/DX =    0.0                 !
 ! A12   A(5,4,6)              108.9185         -DE/DX =    0.0                 !
 ! A13   A(5,4,7)              108.9221         -DE/DX =    0.0                 !
 ! A14   A(6,4,7)              109.1184         -DE/DX =    0.0                 !
 ! A15   A(1,10,2)             117.5909         -DE/DX =    0.0                 !
 ! D1    D(10,1,3,4)           179.9631         -DE/DX =    0.0                 !
 ! D2    D(10,1,3,8)           -61.0896         -DE/DX =    0.0                 !
 ! D3    D(10,1,3,9)            60.9955         -DE/DX =    0.0                 !
 ! D4    D(3,1,10,2)             0.0147         -DE/DX =    0.0                 !
 ! D5    D(11,2,10,1)         -179.8141         -DE/DX =    0.0                 !
 ! D6    D(1,3,4,5)            179.9775         -DE/DX =    0.0                 !
 ! D7    D(1,3,4,6)            -60.1047         -DE/DX =    0.0                 !
 ! D8    D(1,3,4,7)             60.0645         -DE/DX =    0.0                 !
 ! D9    D(8,3,4,5)             59.6078         -DE/DX =    0.0                 !
 ! D10   D(8,3,4,6)            179.5257         -DE/DX =    0.0                 !
 ! D11   D(8,3,4,7)            -60.3051         -DE/DX =    0.0                 !
 ! D12   D(9,3,4,5)            -59.6502         -DE/DX =    0.0                 !
 ! D13   D(9,3,4,6)             60.2677         -DE/DX =    0.0                 !
 ! D14   D(9,3,4,7)           -179.5631         -DE/DX =    0.0                 !
 --------------------------------------------------------------------------------
 GradGradGradGradGradGradGradGradGradGradGradGradGradGradGradGradGradGrad

 Leave Link  103 at Sat May 24 09:07:21 2025, MaxMem=  3758096384 cpu:               0.0 elap:               0.0
 (Enter /apps/easybuild-2022/easybuild/software/Compiler/NVHPC/22.11-CUDA-11.7.0/Gaussian/g16c01-CUDA-11.7.0/g16/l9999.exe)

 ----------------------------------------------------------------------

 Electric dipole moment (input orientation):
 (Debye = 10**-18 statcoulomb cm , SI units = C m)
                  (au)            (Debye)         (10**-30 SI)
   Tot        0.775683D+00      0.197159D+01      0.657652D+01
   x          0.661845D+00      0.168224D+01      0.561135D+01
   y         -0.357294D+00     -0.908151D+00     -0.302927D+01
   z         -0.189702D+00     -0.482174D+00     -0.160836D+01

 Dipole polarizability, Alpha (input orientation).
 (esu units = cm**3 , SI units = C**2 m**2 J**-1)
 Alpha(0;0):
               (au)            (10**-24 esu)      (10**-40 SI)
   iso        0.534866D+02      0.792590D+01      0.881876D+01
   aniso      0.334513D+02      0.495697D+01      0.551537D+01
   xx         0.503683D+02      0.746381D+01      0.830461D+01
   yx        -0.107016D+02     -0.158581D+01     -0.176445D+01
   yy         0.696272D+02      0.103177D+02      0.114800D+02
   zx        -0.359674D+01     -0.532983D+00     -0.593023D+00
   zy         0.506237D+01      0.750166D+00      0.834673D+00
   zz         0.404645D+02      0.599622D+01      0.667169D+01

 ----------------------------------------------------------------------

 Dipole orientation:
     6          2.28453354         -3.27902687         -1.44474365
     8          0.69924581         -0.00233083          1.27495865
     6          1.42011777         -1.46814521         -3.55340915
     6          1.98449489         -2.62051475         -6.16503712
     9          1.23576235         -1.05427618         -7.96948040
     9          4.44533303         -3.02338809         -6.40859493
     9          0.76756134         -4.79575290         -6.42067862
     9         -1.07153595         -1.07763844         -3.40108819
     9          2.66705030          0.72310161         -3.38676428
     8          1.98566701         -2.67181326          0.73439790
     1          0.74073992         -0.08651755          3.09756608

 Electric dipole moment (dipole orientation):
 (Debye = 10**-18 statcoulomb cm , SI units = C m)
                  (au)            (Debye)         (10**-30 SI)
   Tot        0.775683D+00      0.197159D+01      0.657652D+01
   x          0.000000D+00      0.000000D+00      0.000000D+00
   y          0.000000D+00      0.000000D+00      0.000000D+00
   z          0.775683D+00      0.197159D+01      0.657652D+01

 Dipole polarizability, Alpha (dipole orientation).
 (esu units = cm**3 , SI units = C**2 m**2 J**-1)
 Alpha(0;0):
               (au)            (10**-24 esu)      (10**-40 SI)
   iso        0.534866D+02      0.792590D+01      0.881876D+01
   aniso      0.334513D+02      0.495697D+01      0.551537D+01
   xx         0.424541D+02      0.629105D+01      0.699974D+01
   yx        -0.675093D+01     -0.100038D+01     -0.111308D+01
   yy         0.530903D+02      0.786717D+01      0.875341D+01
   zx        -0.620637D+01     -0.919689D+00     -0.102329D+01
   zy         0.127537D+02      0.188990D+01      0.210279D+01
   zz         0.649155D+02      0.961949D+01      0.107031D+02

 ----------------------------------------------------------------------
 Unable to Open any file for archive entry.
 1\1\GINC-SPARTAN-BM153\Freq\RM062X\def2TZVPP\C3H1F5O2\AKHALILOV\24-May
 -2025\0\\#P Geom=AllCheck Guess=TCheck SCRF=Check GenChk RM062X/def2TZ
 VPP Freq\\Gaussian input prepared by ASE\\0,1\C,0.3973780399,2.1732956
 187,0.4192164989\O,0.7296279501,-0.192896807,0.1501522385\C,-1.0471818
 494,1.7479168724,0.7432148334\C,-1.9098487995,2.9846598246,1.055137691
 3\F,-3.1507582716,2.611848486,1.3323660923\F,-1.4120243743,3.632100630
 6,2.0995651655\F,-1.9290480544,3.7984644221,0.0085451453\F,-1.59090257
 92,1.1229938944,-0.3063331817\F,-1.0642525152,0.9537909542,1.818772078
 \O,1.2141845087,1.3256438817,0.1502653483\H,1.5757454949,-0.5932664685
 ,-0.0875075958\\Version=ES64L-G16RevC.01\HF=-764.4648753\RMSD=3.080e-0
 9\RMSF=5.281e-06\ZeroPoint=0.0484793\Thermal=0.0583307\ETot=-764.40654
 46\HTot=-764.4056004\GTot=-764.4521679\Dipole=0.6618448,-0.3572942,-0.
 1897018\DipoleDeriv=0.0437173,0.5645525,0.0099963,0.1995596,-0.9946723
 ,-0.1197672,-0.0183831,-0.2108341,-0.107996,-0.1273236,-0.116533,-0.05
 20044,0.537785,-1.6633294,-0.2401603,-0.0010167,-0.0772297,-0.3077017,
 1.0710494,-0.3103738,0.0506408,-0.0697457,0.9254347,-0.01729,0.0700527
 ,0.0416195,1.3620128,1.6483768,-0.0113944,-0.0153447,0.026696,1.447837
 7,-0.0175715,-0.0117764,-0.0091227,1.594497,-0.9440078,-0.0505917,0.16
 20418,-0.052589,-0.3578139,0.0067124,0.1621413,0.0059139,-0.3107392,-0
 .3985478,-0.0034392,-0.1107937,-0.0785362,-0.4889861,-0.2946212,-0.160
 3526,-0.2572978,-0.6643406,-0.3376366,0.1154617,-0.0279022,0.0606049,-
 0.5773606,0.3193777,0.0106666,0.2511503,-0.6355875,-0.5165209,0.086512
 9,-0.1077849,-0.1490667,-0.2823151,-0.2249589,-0.2250242,-0.0841324,-0
 .57063,-0.3868813,0.1130882,0.0418337,-0.0415436,-0.3375927,0.3191343,
 0.1267786,0.0834925,-0.6420254,-0.3067431,-0.2232478,0.0384548,-0.4012
 868,2.0555387,0.2676456,0.0255147,0.2226727,-0.0675645,0.2545175,-0.16
 40354,0.0108626,-0.0318775,0.2732591,0.0014991,0.0213991,0.0337677,0.3
 500749\Polar=50.3682649,-10.7015665,69.6271688,-3.5967448,5.0623744,40
 .4644996\PG=Unknown\NImag=0\\0.56588373,-0.24218230,0.44171760,-0.1360
 7592,0.08746422,0.13405839,0.04582910,0.01104294,-0.00409936,0.5088401
 1,0.07701460,-0.12750259,-0.03115073,-0.16425576,0.18925519,0.00104745
 ,-0.01473156,0.02410806,-0.13487236,0.05419986,0.04693088,-0.13197317,
 -0.00264674,0.02193768,-0.00706275,-0.03370222,-0.00457923,0.52625803,
 -0.04557067,-0.07824866,0.00841237,0.00135785,0.00223867,0.00104128,-0
 .01222732,0.58834983,0.01849627,-0.00218734,-0.04742719,-0.00181648,0.
 00973972,-0.01373261,0.00042618,0.00801119,0.53265674,-0.02056494,0.01
 528225,0.00641728,-0.00024183,-0.00927334,-0.00035660,-0.11316655,0.08
 703704,0.02634586,0.61575026,0.00120488,0.01785781,0.00108797,0.000138
 92,0.00062151,-0.00009486,0.06618896,-0.15707320,-0.02621944,-0.024486
 70,0.62990130,0.00525135,-0.00239221,-0.00108307,0.00037715,0.00225032
 ,0.00132097,0.02462175,-0.03133076,-0.04411177,-0.00565772,0.00917076,
 0.60230505,-0.00212388,0.00946140,0.00135149,0.00041178,0.00386372,0.0
 0018296,-0.04765112,-0.02298057,0.01046023,-0.30318165,-0.02789773,0.0
 5405940,0.40545201,0.00080449,-0.00416400,-0.00055588,0.00002120,0.000
 16628,0.00001290,0.01899362,0.00810048,-0.00425263,-0.03976955,-0.0908
 1235,0.00862373,0.10122067,0.10459850,0.00065917,-0.00269833,-0.000114
 83,-0.00011430,-0.00094063,-0.00010273,0.01384893,0.00611469,-0.000746
 90,0.05310407,0.00569153,-0.08834539,-0.07184629,-0.02325985,0.0985665
 2,-0.00025569,-0.00043469,0.00253538,-0.00008545,0.00220396,-0.0003411
 4,0.00746591,0.00310525,0.00356427,-0.09938164,-0.03628854,-0.05461470
 ,-0.04769130,-0.04458673,-0.04033445,0.13033351,-0.00040041,-0.0015370
 7,0.00146373,0.00004972,-0.00027898,0.00012764,-0.01959986,-0.00918971
 ,-0.03270900,-0.02848723,-0.16153066,-0.10496820,-0.03499739,-0.007608
 75,-0.01555461,0.07254669,0.16577259,0.00040995,-0.00154595,0.00101321
 ,0.00000111,-0.00082268,-0.00004323,-0.01763447,-0.00830357,-0.0236366
 4,-0.04814930,-0.11201390,-0.22119519,-0.02618179,-0.01145231,0.007483
 78,0.10853478,0.14248520,0.31171450,-0.00123168,0.00055550,-0.00138241
 ,0.00014826,0.00225137,0.00061411,0.00662122,0.00874109,-0.01688445,-0
 .08213765,0.01867577,-0.01088366,-0.01058626,-0.04112615,0.04421012,0.
 00736633,0.00506607,-0.02295038,0.08038138,-0.00117701,-0.00155523,-0.
 00155578,-0.00001901,-0.00029455,-0.00015514,-0.00285759,-0.01646539,0
 .03975212,0.02318515,-0.19722774,0.11212238,-0.02867203,-0.01453282,0.
 03073819,0.00083731,0.02419873,-0.00033121,0.00024402,0.21707456,0.000
 65399,0.00101387,0.00193090,-0.00007320,-0.00031347,-0.00026153,0.0015
 5582,0.00684789,-0.01587550,-0.01636294,0.12221080,-0.20178081,0.03180
 640,0.03209240,-0.02258571,-0.02201355,0.01626220,-0.07834335,0.006750
 09,-0.18147149,0.30944541,-0.02652035,-0.01931366,-0.02389336,-0.00184
 316,0.01735468,-0.00433770,-0.11772913,-0.05797426,-0.08212337,0.00464
 527,0.00288953,0.00344180,0.00496894,0.00131579,0.00089489,-0.00006515
 ,0.00389883,0.00354025,0.00093627,0.00009310,0.00087036,0.11899735,-0.
 01256140,0.00069325,-0.01013093,0.00507721,0.00483991,-0.00113727,-0.0
 5116899,-0.15125242,-0.10278714,-0.02528942,-0.01543454,-0.03452362,0.
 00308187,0.00172068,0.00181651,0.00365852,-0.01042047,-0.00690992,0.00
 138225,0.00001416,0.00058898,0.06474823,0.15608711,-0.01965528,-0.0039
 7390,-0.00244614,0.00171316,0.00960786,0.00055455,-0.06518807,-0.10794
 794,-0.19955233,-0.01802517,-0.01284221,-0.02777748,0.00166969,0.00089
 277,0.00253041,0.00236707,-0.00702438,-0.00281794,0.00231577,-0.001982
 15,0.00627224,0.11488704,0.13788650,0.28948695,-0.00423282,-0.01861451
 ,0.02241420,-0.00023463,0.01066386,0.00660208,-0.07533752,-0.00704639,
 0.02013585,0.00363470,0.01059244,-0.01695015,0.00346270,0.00091274,-0.
 00136916,0.00084761,0.00067400,0.00206706,-0.00253624,0.00669919,-0.00
 221999,0.00910197,0.01025512,-0.02311114,0.06207858,-0.00925368,-0.002
 97290,0.01735169,0.00595410,0.00636559,-0.00068973,-0.00103067,-0.1879
 9520,0.12191982,-0.00709108,-0.02366188,0.04342836,0.00215186,0.002237
 63,-0.00322376,0.00081220,-0.00000551,-0.00216706,0.00628060,-0.011794
 43,0.00268706,0.00603081,0.02429976,-0.00154394,-0.00373551,0.20614686
 ,0.01945583,0.01515679,-0.02121697,-0.00077151,-0.01562771,-0.00376633
 ,0.00439291,0.13022512,-0.20559831,0.00076652,0.01045480,-0.01866807,-
 0.00186384,-0.00157331,0.00339722,0.00074519,0.00076580,0.00636039,-0.
 00109737,0.00260459,0.00129501,-0.01539937,0.01283472,-0.06610329,-0.0
 0183340,-0.17298793,0.29839176,-0.42707606,0.25902495,0.11175758,-0.11
 455639,-0.09037970,0.01628599,-0.04485847,0.04751617,0.02108040,-0.004
 26453,-0.01127314,-0.00001228,-0.00368688,0.00223697,0.00111322,0.0012
 0590,0.00128404,0.00048820,0.00074231,0.00168515,-0.00088736,0.0066480
 8,-0.00072817,0.00210946,0.00253264,-0.00162193,-0.00316983,0.57101129
 ,0.23536049,-0.23002960,-0.07185198,-0.00303015,0.03082386,0.00470978,
 0.03796732,0.00351003,-0.01115937,0.00890404,-0.00197341,-0.00230436,-
 0.00506817,0.00017360,0.00126328,-0.00188798,0.00037600,0.00094142,-0.
 00204973,0.00035089,0.00014773,-0.01753159,-0.01138382,-0.01270497,-0.
 00916527,-0.01339015,0.01691674,-0.24282788,0.23128581,0.10996766,-0.0
 7776330,-0.09135385,0.02308642,0.02624254,-0.02331693,0.02018253,-0.01
 348382,0.01886159,0.00157447,0.00269236,-0.00088510,0.00053619,-0.0005
 4555,-0.00008912,-0.00029805,-0.00083761,-0.00045468,-0.00063787,0.000
 19966,0.00002738,0.00327840,0.00217935,0.00021836,-0.00615502,-0.00398
 318,0.00607044,-0.14786497,0.07443376,0.09327835,0.00226576,-0.0121751
 5,-0.00096258,-0.43120505,0.18425882,0.11975444,-0.00256645,-0.0019582
 0,0.00031524,-0.00109143,0.00025561,0.00036707,0.00062567,-0.00002304,
 -0.00016619,0.00025998,-0.00003446,-0.00012541,0.00029606,-0.00001826,
 -0.00007962,0.00085992,0.00154477,0.00091748,0.00068302,0.00150331,-0.
 00122513,0.01230213,-0.00067108,-0.00366976,0.41757039,-0.00323900,-0.
 01425860,-0.00053469,0.14366299,-0.10623489,-0.04328291,0.00008349,-0.
 00197443,-0.00010794,-0.00001116,-0.00066685,-0.00007640,-0.00016365,0
 .00012074,0.00005299,0.00003402,0.00022384,0.00011997,-0.00002080,0.00
 023183,-0.00006600,-0.00151146,0.00083638,-0.00036764,-0.00123566,0.00
 077024,0.00123039,0.03508354,-0.00974320,-0.00913421,-0.17268231,0.130
 69495,-0.00021048,0.00165771,0.00253150,0.11656936,-0.05318510,-0.0316
 9111,0.00043597,0.00041353,-0.00083707,0.00034353,-0.00013781,0.000220
 86,-0.00017445,0.00001774,0.00000674,-0.00014480,-0.00001078,-0.000080
 84,-0.00005393,0.00007882,-0.00012404,-0.00115894,0.00018282,-0.000365
 33,0.00041967,-0.00079134,-0.00016185,-0.00090040,-0.00039203,-0.00235
 644,-0.11512553,0.05216643,0.03285759\\-0.00001320,0.00000356,0.000003
 25,-0.00000201,-0.00000274,0.00000847,-0.00000062,0.00000135,-0.000001
 49,0.00000002,-0.00000008,-0.00000398,0.00000021,0.00000090,-0.0000017
 7,0.00000023,0.00000717,-0.00000811,-0.00000267,-0.00000453,-0.0000085
 0,0.00000032,-0.00000608,0.00000523,0.00000473,0.00000526,0.00000141,0
 .00001264,-0.00000462,-0.00000379,0.00000036,-0.00000019,0.00000928\\\
 @
 The archive entry for this job was punched.


 THE SECRET OF SUCCESS IN LIFE IS TO EAT WHAT YOU LIKE, AND LET THE FOOD
 FIGHT IT OUT INSIDE YOU. -- FROM A FORTUNE COOKIE
 Job cpu time:       0 days  0 hours 26 minutes  3.5 seconds.
 Elapsed time:       0 days  0 hours  3 minutes 19.5 seconds.
 File lengths (MBytes):  RWF=    116 Int=      0 D2E=      0 Chk=      9 Scr=      1
 Normal termination of Gaussian 16 at Sat May 24 09:07:21 2025.
done
