 Entering Gaussian System, Link 0=g16
 Initial command:
 /apps/easybuild-2022/easybuild/software/Compiler/NVHPC/22.11-CUDA-11.7.0/Gaussian/g16c01-CUDA-11.7.0/g16/l1.exe "/tmp/Gau-203301.inp" -scrdir="/tmp/"
 Entering Link 1 = /apps/easybuild-2022/easybuild/software/Compiler/NVHPC/22.11-CUDA-11.7.0/Gaussian/g16c01-CUDA-11.7.0/g16/l1.exe PID=    203302.
  
 Copyright (c) 1988-2019, Gaussian, Inc.  All Rights Reserved.
  
 This is part of the Gaussian(R) 16 program.  It is based on
 the Gaussian(R) 09 system (copyright 2009, Gaussian, Inc.),
 the Gaussian(R) 03 system (copyright 2003, Gaussian, Inc.),
 the Gaussian(R) 98 system (copyright 1998, Gaussian, Inc.),
 the Gaussian(R) 94 system (copyright 1995, Gaussian, Inc.),
 the Gaussian 92(TM) system (copyright 1992, Gaussian, Inc.),
 the Gaussian 90(TM) system (copyright 1990, Gaussian, Inc.),
 the Gaussian 88(TM) system (copyright 1988, Gaussian, Inc.),
 the Gaussian 86(TM) system (copyright 1986, Carnegie Mellon
 University), and the Gaussian 82(TM) system (copyright 1983,
 Carnegie Mellon University). Gaussian is a federally registered
 trademark of Gaussian, Inc.
  
 This software contains proprietary and confidential information,
 including trade secrets, belonging to Gaussian, Inc.
  
 This software is provided under written license and may be
 used, copied, transmitted, or stored only in accord with that
 written license.
  
 The following legend is applicable only to US Government
 contracts under FAR:
  
                    RESTRICTED RIGHTS LEGEND
  
 Use, reproduction and disclosure by the US Government is
 subject to restrictions as set forth in subparagraphs (a)
 and (c) of the Commercial Computer Software - Restricted
 Rights clause in FAR 52.227-19.
  
 Gaussian, Inc.
 340 Quinnipiac St., Bldg. 40, Wallingford CT 06492
  
  
 ---------------------------------------------------------------
 Warning -- This program may not be used in any manner that
 competes with the business of Gaussian, Inc. or will provide
 assistance to any competitor of Gaussian, Inc.  The licensee
 of this program is prohibited from giving any competitor of
 Gaussian, Inc. access to this program.  By using this program,
 the user acknowledges that Gaussian, Inc. is engaged in the
 business of creating and licensing software in the field of
 computational chemistry and represents and warrants to the
 licensee that it is not a competitor of Gaussian, Inc. and that
 it will not use this program in any manner prohibited above.
 ---------------------------------------------------------------
  

 Cite this work as:
 Gaussian 16, Revision C.01,
 M. J. Frisch, G. W. Trucks, H. B. Schlegel, G. E. Scuseria, 
 M. A. Robb, J. R. Cheeseman, G. Scalmani, V. Barone, 
 G. A. Petersson, H. Nakatsuji, X. Li, M. Caricato, A. V. Marenich, 
 J. Bloino, B. G. Janesko, R. Gomperts, B. Mennucci, H. P. Hratchian, 
 J. V. Ortiz, A. F. Izmaylov, J. L. Sonnenberg, D. Williams-Young, 
 F. Ding, F. Lipparini, F. Egidi, J. Goings, B. Peng, A. Petrone, 
 T. Henderson, D. Ranasinghe, V. G. Zakrzewski, J. Gao, N. Rega, 
 G. Zheng, W. Liang, M. Hada, M. Ehara, K. Toyota, R. Fukuda, 
 J. Hasegawa, M. Ishida, T. Nakajima, Y. Honda, O. Kitao, H. Nakai, 
 T. Vreven, K. Throssell, J. A. Montgomery, Jr., J. E. Peralta, 
 F. Ogliaro, M. J. Bearpark, J. J. Heyd, E. N. Brothers, K. N. Kudin, 
 V. N. Staroverov, T. A. Keith, R. Kobayashi, J. Normand, 
 K. Raghavachari, A. P. Rendell, J. C. Burant, S. S. Iyengar, 
 J. Tomasi, M. Cossi, J. M. Millam, M. Klene, C. Adamo, R. Cammi, 
 J. W. Ochterski, R. L. Martin, K. Morokuma, O. Farkas, 
 J. B. Foresman, and D. J. Fox, Gaussian, Inc., Wallingford CT, 2019.
 
 ******************************************
 Gaussian 16:  ES64L-G16RevC.01  3-Jul-2019
                24-May-2025 
 ******************************************
 %mem=28GB
 %nprocshared=8
 Will use up to    8 processors via shared memory.
 -----------------------------------------------------------------
 #P M062X/Def2TZVPP Symm(None) scf(xqc) pop(None) freq opt(CalcFC)
 -----------------------------------------------------------------
 1/10=4,18=20,19=15,26=3,38=1/1,3;
 2/9=110,12=2,15=3,17=6,18=5,40=1/2;
 3/5=44,7=202,11=2,25=1,30=1,71=2,74=-55,140=1/1,2,3;
 4//1;
 5/5=2,8=3,13=1,38=5/2,8;
 8/6=4,10=90,11=11/1;
 11/6=1,8=1,9=11,15=111,16=1,31=1/1,2,10;
 10/6=1,13=1,31=1/2;
 7/10=1,25=1,30=1/1,2,3,16;
 1/10=4,18=20,19=15,26=3/3(2);
 2/9=110,15=3/2;
 99//99;
 2/9=110,15=3/2;
 3/5=44,7=202,11=2,25=1,30=1,71=1,74=-55/1,2,3;
 4/5=5,16=3,69=1/1;
 5/5=2,8=3,13=1,38=5/2,8;
 7/30=1/1,2,3,16;
 1/18=20,19=15,26=3/3(-5);
 2/9=110,15=3/2;
 99/9=1/99;
 Leave Link    1 at Sat May 24 04:57:13 2025, MaxMem=  3758096384 cpu:               0.0 elap:               0.0
 (Enter /apps/easybuild-2022/easybuild/software/Compiler/NVHPC/22.11-CUDA-11.7.0/Gaussian/g16c01-CUDA-11.7.0/g16/l101.exe)
 ------------------------------
 Gaussian input prepared by ASE
 ------------------------------
 Symbolic Z-matrix:
 Charge =  0 Multiplicity = 1
 C                     0.        0.        0. 
 O                     1.35895   0.        0. 
 C                     2.05099   1.85548   1.41243 
 C                     1.99775   1.22559   0. 
 F                     2.75747   2.97509   1.36911 
 F                     3.24602   0.99517  -0.39556 
 F                     1.43064   2.08069  -0.83856 
 F                     0.83485   2.12755   1.85098 
 F                     2.63406   1.00898   2.25155 
 O                    -0.35683   0.61323  -1.08023 
 H                     0.40119   0.91725  -1.61659 
 
 ITRead=  0  0  0  0  0  0  0  0  0  0  0
 MicOpt= -1 -1 -1 -1 -1 -1 -1 -1 -1 -1 -1
 NAtoms=     11 NQM=       11 NQMF=       0 NMMI=      0 NMMIF=      0
                NMic=       0 NMicF=      0.
                    Isotopes and Nuclear Properties:
 (Nuclear quadrupole moments (NQMom) in fm**2, nuclear magnetic moments (NMagM)
  in nuclear magnetons)

  Atom         1           2           3           4           5           6           7           8           9          10
 IAtWgt=          12          16          12          12          19          19          19          19          19          16
 AtmWgt=  12.0000000  15.9949146  12.0000000  12.0000000  18.9984032  18.9984032  18.9984032  18.9984032  18.9984032  15.9949146
 NucSpn=           0           0           0           0           1           1           1           1           1           0
 AtZEff=  -0.0000000  -0.0000000  -0.0000000  -0.0000000  -0.0000000  -0.0000000  -0.0000000  -0.0000000  -0.0000000  -0.0000000
 NQMom=    0.0000000   0.0000000   0.0000000   0.0000000   0.0000000   0.0000000   0.0000000   0.0000000   0.0000000   0.0000000
 NMagM=    0.0000000   0.0000000   0.0000000   0.0000000   2.6288670   2.6288670   2.6288670   2.6288670   2.6288670   0.0000000
 AtZNuc=   6.0000000   8.0000000   6.0000000   6.0000000   9.0000000   9.0000000   9.0000000   9.0000000   9.0000000   8.0000000

  Atom        11
 IAtWgt=           1
 AtmWgt=   1.0078250
 NucSpn=           1
 AtZEff=  -0.0000000
 NQMom=    0.0000000
 NMagM=    2.7928460
 AtZNuc=   1.0000000
 Leave Link  101 at Sat May 24 04:57:13 2025, MaxMem=  3758096384 cpu:               0.2 elap:               0.2
 (Enter /apps/easybuild-2022/easybuild/software/Compiler/NVHPC/22.11-CUDA-11.7.0/Gaussian/g16c01-CUDA-11.7.0/g16/l103.exe)

 GradGradGradGradGradGradGradGradGradGradGradGradGradGradGradGradGradGrad
 Berny optimization.
 Initialization pass.
                           ----------------------------
                           !    Initial Parameters    !
                           ! (Angstroms and Degrees)  !
 --------------------------                            --------------------------
 ! Name  Definition              Value          Derivative Info.                !
 --------------------------------------------------------------------------------
 ! R1    R(1,2)                  1.359          calculate D2E/DX2 analytically  !
 ! R2    R(1,10)                 1.2924         calculate D2E/DX2 analytically  !
 ! R3    R(2,4)                  1.3821         calculate D2E/DX2 analytically  !
 ! R4    R(3,4)                  1.5474         calculate D2E/DX2 analytically  !
 ! R5    R(3,5)                  1.3246         calculate D2E/DX2 analytically  !
 ! R6    R(3,8)                  1.3211         calculate D2E/DX2 analytically  !
 ! R7    R(3,9)                  1.3269         calculate D2E/DX2 analytically  !
 ! R8    R(4,6)                  1.3296         calculate D2E/DX2 analytically  !
 ! R9    R(4,7)                  1.3251         calculate D2E/DX2 analytically  !
 ! R10   R(10,11)                0.9771         calculate D2E/DX2 analytically  !
 ! A1    A(2,1,10)             106.0278         calculate D2E/DX2 analytically  !
 ! A2    A(1,2,4)              117.5295         calculate D2E/DX2 analytically  !
 ! A3    A(4,3,5)              109.4245         calculate D2E/DX2 analytically  !
 ! A4    A(4,3,8)              110.8028         calculate D2E/DX2 analytically  !
 ! A5    A(4,3,9)              109.4297         calculate D2E/DX2 analytically  !
 ! A6    A(5,3,8)              109.1336         calculate D2E/DX2 analytically  !
 ! A7    A(5,3,9)              108.9987         calculate D2E/DX2 analytically  !
 ! A8    A(8,3,9)              109.0235         calculate D2E/DX2 analytically  !
 ! A9    A(2,4,3)              112.1398         calculate D2E/DX2 analytically  !
 ! A10   A(2,4,6)              106.276          calculate D2E/DX2 analytically  !
 ! A11   A(2,4,7)              111.9882         calculate D2E/DX2 analytically  !
 ! A12   A(3,4,6)              108.0472         calculate D2E/DX2 analytically  !
 ! A13   A(3,4,7)              109.2477         calculate D2E/DX2 analytically  !
 ! A14   A(6,4,7)              108.9876         calculate D2E/DX2 analytically  !
 ! A15   A(1,10,11)            113.0952         calculate D2E/DX2 analytically  !
 ! D1    D(10,1,2,4)            60.417          calculate D2E/DX2 analytically  !
 ! D2    D(2,1,10,11)            0.0258         calculate D2E/DX2 analytically  !
 ! D3    D(1,2,4,3)             80.2014         calculate D2E/DX2 analytically  !
 ! D4    D(1,2,4,6)           -161.9449         calculate D2E/DX2 analytically  !
 ! D5    D(1,2,4,7)            -43.0353         calculate D2E/DX2 analytically  !
 ! D6    D(5,3,4,2)            175.4067         calculate D2E/DX2 analytically  !
 ! D7    D(5,3,4,6)             58.6116         calculate D2E/DX2 analytically  !
 ! D8    D(5,3,4,7)            -59.8279         calculate D2E/DX2 analytically  !
 ! D9    D(8,3,4,2)            -64.2111         calculate D2E/DX2 analytically  !
 ! D10   D(8,3,4,6)            178.9938         calculate D2E/DX2 analytically  !
 ! D11   D(8,3,4,7)             60.5544         calculate D2E/DX2 analytically  !
 ! D12   D(9,3,4,2)             56.0379         calculate D2E/DX2 analytically  !
 ! D13   D(9,3,4,6)            -60.7572         calculate D2E/DX2 analytically  !
 ! D14   D(9,3,4,7)           -179.1967         calculate D2E/DX2 analytically  !
 --------------------------------------------------------------------------------
 Trust Radius=3.00D-01 FncErr=1.00D-07 GrdErr=1.00D-06 EigMax=2.50D+02 EigMin=1.00D-04
 Number of steps in this run=     49 maximum allowed number of steps=    100.
 GradGradGradGradGradGradGradGradGradGradGradGradGradGradGradGradGradGrad

 Leave Link  103 at Sat May 24 04:57:13 2025, MaxMem=  3758096384 cpu:               0.0 elap:               0.0
 (Enter /apps/easybuild-2022/easybuild/software/Compiler/NVHPC/22.11-CUDA-11.7.0/Gaussian/g16c01-CUDA-11.7.0/g16/l202.exe)
                          Input orientation:                          
 ---------------------------------------------------------------------
 Center     Atomic      Atomic             Coordinates (Angstroms)
 Number     Number       Type             X           Y           Z
 ---------------------------------------------------------------------
      1          6           0        0.000000    0.000000    0.000000
      2          8           0        1.358950    0.000000    0.000000
      3          6           0        2.050989    1.855485    1.412432
      4          6           0        1.997754    1.225588    0.000000
      5          9           0        2.757473    2.975092    1.369111
      6          9           0        3.246022    0.995170   -0.395559
      7          9           0        1.430635    2.080688   -0.838563
      8          9           0        0.834853    2.127548    1.850982
      9          9           0        2.634056    1.008982    2.251552
     10          8           0       -0.356834    0.613230   -1.080227
     11          1           0        0.401188    0.917250   -1.616589
 ---------------------------------------------------------------------
                    Distance matrix (angstroms):
                    1          2          3          4          5
     1  C    0.000000
     2  O    1.358950   0.000000
     3  C    3.105534   2.432428   0.000000
     4  C    2.343734   1.382076   1.547439   0.000000
     5  F    4.281272   3.561109   1.324581   2.347850   0.000000
     6  F    3.418112   2.169763   2.331754   1.329561   2.696819
     7  F    2.660671   2.244458   2.345748   1.325145   2.726588
     8  F    2.941016   2.868322   1.321111   2.364743   2.155690
     9  F    3.609125   2.777305   1.326897   2.349741   2.158592
    10  O    1.292390   2.118220   3.681597   2.661946   4.612651
    11  H    1.901489   2.090937   3.574506   2.292914   4.324487
                    6          7          8          9         10
     6  F    0.000000
     7  F    2.161072   0.000000
     8  F    3.484676   2.755142   0.000000
     9  F    2.716963   3.485052   2.156103   0.000000
    10  O    3.687169   2.325270   3.507885   4.494751   0.000000
    11  H    3.096783   1.737433   3.698234   4.467284   0.977093
                   11
    11  H    0.000000
 Symmetry turned off by external request.
 Stoichiometry    C3HF5O2
 Rotational constants (GHZ):           2.1604598           1.1744011           1.0734894
 Leave Link  202 at Sat May 24 04:57:13 2025, MaxMem=  3758096384 cpu:               0.0 elap:               0.0
 (Enter /apps/easybuild-2022/easybuild/software/Compiler/NVHPC/22.11-CUDA-11.7.0/Gaussian/g16c01-CUDA-11.7.0/g16/l301.exe)
 Standard basis: def2TZVPP (5D, 7F)
 Ernie: Thresh=  0.10000D-02 Tol=  0.10000D-05 Strict=F.
   324 basis functions,   527 primitive gaussians,   375 cartesian basis functions
    40 alpha electrons       40 beta electrons
       nuclear repulsion energy       649.8175443387 Hartrees.
 IExCor= 4336 DFT=T Ex+Corr=M062X ExCW=0 ScaHFX=  0.540000
 ScaDFX=  1.000000  1.000000  1.000000  1.000000 ScalE2=  1.000000  1.000000
 IRadAn=      5 IRanWt=     -1 IRanGd=            0 ICorTp=0 IEmpDi=  4
 NAtoms=   11 NActive=   11 NUniq=   11 SFac= 1.00D+00 NAtFMM=   60 NAOKFM=F Big=F
 Integral buffers will be    131072 words long.
 Raffenetti 2 integral format.
 Two-electron integral symmetry is turned off.
 Leave Link  301 at Sat May 24 04:57:13 2025, MaxMem=  3758096384 cpu:               0.0 elap:               0.0
 (Enter /apps/easybuild-2022/easybuild/software/Compiler/NVHPC/22.11-CUDA-11.7.0/Gaussian/g16c01-CUDA-11.7.0/g16/l302.exe)
 NPDir=0 NMtPBC=     1 NCelOv=     1 NCel=       1 NClECP=     1 NCelD=      1
         NCelK=      1 NCelE2=     1 NClLst=     1 CellRange=     0.0.
 One-electron integrals computed using PRISM.
   1 Symmetry operations used in ECPInt.
 ECPInt:  NShTT=    6786 NPrTT=   21959 LenC2=    6496 LenP2D=   16078.
 LDataN:  DoStor=T MaxTD1= 6 Len=  172
 NBasis=   324 RedAO= T EigKep=  4.71D-04  NBF=   324
 NBsUse=   324 1.00D-06 EigRej= -1.00D+00 NBFU=   324
 Precomputing XC quadrature grid using
 IXCGrd= 4 IRadAn=           5 IRanWt=          -1 IRanGd=           0 AccXCQ= 0.00D+00.
 Generated NRdTot=       0 NPtTot=           0 NUsed=           0 NTot=          32
 NSgBfM=   373   373   373   373   373 MxSgAt=    11 MxSgA2=    11.
 Leave Link  302 at Sat May 24 04:57:14 2025, MaxMem=  3758096384 cpu:               0.6 elap:               0.1
 (Enter /apps/easybuild-2022/easybuild/software/Compiler/NVHPC/22.11-CUDA-11.7.0/Gaussian/g16c01-CUDA-11.7.0/g16/l303.exe)
 DipDrv:  MaxL=1.
 Leave Link  303 at Sat May 24 04:57:14 2025, MaxMem=  3758096384 cpu:               0.1 elap:               0.0
 (Enter /apps/easybuild-2022/easybuild/software/Compiler/NVHPC/22.11-CUDA-11.7.0/Gaussian/g16c01-CUDA-11.7.0/g16/l401.exe)
 ExpMin= 9.52D-02 ExpMax= 3.55D+04 ExpMxC= 1.21D+03 IAcc=3 IRadAn=         5 AccDes= 0.00D+00
 Harris functional with IExCor= 1009 and IRadAn=       5 diagonalized for initial guess.
 HarFok:  IExCor= 1009 AccDes= 0.00D+00 IRadAn=         5 IDoV= 1 UseB2=F ITyADJ=14
 ICtDFT=  3500011 ScaDFX=  1.000000  1.000000  1.000000  1.000000
 FoFCou: FMM=F IPFlag=           0 FMFlag=      100000 FMFlg1=           0
         NFxFlg=           0 DoJE=T BraDBF=F KetDBF=T FulRan=T
         wScrn=  0.000000 ICntrl=       500 IOpCl=  0 I1Cent=   200000004 NGrid=           0
         NMat0=    1 NMatS0=      1 NMatT0=    0 NMatD0=    1 NMtDS0=    0 NMtDT0=    0
 Symmetry not used in FoFCou.
 Harris En= -764.081727573091    
 JPrj=0 DoOrth=F DoCkMO=F.
 Leave Link  401 at Sat May 24 04:57:14 2025, MaxMem=  3758096384 cpu:               3.6 elap:               0.5
 (Enter /apps/easybuild-2022/easybuild/software/Compiler/NVHPC/22.11-CUDA-11.7.0/Gaussian/g16c01-CUDA-11.7.0/g16/l502.exe)
 Keep R1 ints in memory in canonical form, NReq=1412617130.
 FoFCou: FMM=F IPFlag=           0 FMFlag=           0 FMFlg1=           0
         NFxFlg=           0 DoJE=F BraDBF=F KetDBF=F FulRan=T
         wScrn=  0.000000 ICntrl=       600 IOpCl=  0 I1Cent=           0 NGrid=           0
         NMat0=    1 NMatS0=  52650 NMatT0=    0 NMatD0=    1 NMtDS0=    0 NMtDT0=    0
 Symmetry not used in FoFCou.
 Two-electron integral symmetry not used.
 Closed shell SCF:
 Using DIIS extrapolation, IDIIS=  1040.
 NGot=  3758096384 LenX=  2371771924 LenY=  2371630858
 Requested convergence on RMS density matrix=1.00D-08 within  32 cycles.
 Requested convergence on MAX density matrix=1.00D-06.
 Requested convergence on             energy=1.00D-06.
 No special actions if energy rises.
 Integral accuracy reduced to 1.0D-05 until final iterations.

 Cycle   1  Pass 0  IDiag  1:
 E= -764.420820232265    
 DIIS: error= 1.83D-02 at cycle   1 NSaved=   1.
 NSaved= 1 IEnMin= 1 EnMin= -764.420820232265     IErMin= 1 ErrMin= 1.83D-02
 ErrMax= 1.83D-02  0.00D+00 EMaxC= 1.00D-01 BMatC= 3.11D-01 BMatP= 3.11D-01
 IDIUse=3 WtCom= 8.17D-01 WtEn= 1.83D-01
 Coeff-Com:  0.100D+01
 Coeff-En:   0.100D+01
 Coeff:      0.100D+01
 Gap=     0.314 Goal=   None    Shift=    0.000
 GapD=    0.314 DampG=1.000 DampE=0.500 DampFc=0.5000 IDamp=-1.
 Damping current iteration by 5.00D-01
 RMSDP=1.85D-03 MaxDP=5.80D-02              OVMax= 1.15D-01

 Cycle   2  Pass 0  IDiag  1:
 E= -764.485268052586     Delta-E=       -0.064447820321 Rises=F Damp=T
 DIIS: error= 5.90D-03 at cycle   2 NSaved=   2.
 NSaved= 2 IEnMin= 2 EnMin= -764.485268052586     IErMin= 2 ErrMin= 5.90D-03
 ErrMax= 5.90D-03  0.00D+00 EMaxC= 1.00D-01 BMatC= 3.19D-02 BMatP= 3.11D-01
 IDIUse=3 WtCom= 9.41D-01 WtEn= 5.90D-02
 Coeff-Com: -0.382D-01 0.104D+01
 Coeff-En:   0.652D-01 0.935D+00
 Coeff:     -0.321D-01 0.103D+01
 Gap=     0.316 Goal=   None    Shift=    0.000
 RMSDP=5.72D-04 MaxDP=2.10D-02 DE=-6.44D-02 OVMax= 6.40D-02

 Cycle   3  Pass 0  IDiag  1:
 E= -764.560999731932     Delta-E=       -0.075731679346 Rises=F Damp=F
 DIIS: error= 2.67D-03 at cycle   3 NSaved=   3.
 NSaved= 3 IEnMin= 3 EnMin= -764.560999731932     IErMin= 3 ErrMin= 2.67D-03
 ErrMax= 2.67D-03  0.00D+00 EMaxC= 1.00D-01 BMatC= 6.89D-03 BMatP= 3.19D-02
 IDIUse=3 WtCom= 9.73D-01 WtEn= 2.67D-02
 Coeff-Com: -0.123D+00 0.282D+00 0.840D+00
 Coeff-En:   0.000D+00 0.000D+00 0.100D+01
 Coeff:     -0.120D+00 0.275D+00 0.845D+00
 Gap=     0.319 Goal=   None    Shift=    0.000
 RMSDP=1.75D-04 MaxDP=8.16D-03 DE=-7.57D-02 OVMax= 1.38D-02

 Cycle   4  Pass 0  IDiag  1:
 E= -764.564985326136     Delta-E=       -0.003985594205 Rises=F Damp=F
 DIIS: error= 9.01D-04 at cycle   4 NSaved=   4.
 NSaved= 4 IEnMin= 4 EnMin= -764.564985326136     IErMin= 4 ErrMin= 9.01D-04
 ErrMax= 9.01D-04  0.00D+00 EMaxC= 1.00D-01 BMatC= 5.60D-04 BMatP= 6.89D-03
 IDIUse=3 WtCom= 9.91D-01 WtEn= 9.01D-03
 Coeff-Com: -0.529D-01 0.101D+00 0.387D+00 0.564D+00
 Coeff-En:   0.000D+00 0.000D+00 0.000D+00 0.100D+01
 Coeff:     -0.524D-01 0.100D+00 0.384D+00 0.568D+00
 Gap=     0.317 Goal=   None    Shift=    0.000
 RMSDP=5.36D-05 MaxDP=3.16D-03 DE=-3.99D-03 OVMax= 5.61D-03

 Cycle   5  Pass 0  IDiag  1:
 E= -764.565373476529     Delta-E=       -0.000388150392 Rises=F Damp=F
 DIIS: error= 1.79D-04 at cycle   5 NSaved=   5.
 NSaved= 5 IEnMin= 5 EnMin= -764.565373476529     IErMin= 5 ErrMin= 1.79D-04
 ErrMax= 1.79D-04  0.00D+00 EMaxC= 1.00D-01 BMatC= 4.56D-05 BMatP= 5.60D-04
 IDIUse=3 WtCom= 9.98D-01 WtEn= 1.79D-03
 Coeff-Com: -0.169D-01 0.292D-01 0.123D+00 0.269D+00 0.595D+00
 Coeff-En:   0.000D+00 0.000D+00 0.000D+00 0.000D+00 0.100D+01
 Coeff:     -0.168D-01 0.291D-01 0.123D+00 0.269D+00 0.596D+00
 Gap=     0.317 Goal=   None    Shift=    0.000
 RMSDP=1.23D-05 MaxDP=6.15D-04 DE=-3.88D-04 OVMax= 1.36D-03

 Cycle   6  Pass 0  IDiag  1:
 E= -764.565402803813     Delta-E=       -0.000029327284 Rises=F Damp=F
 DIIS: error= 4.31D-05 at cycle   6 NSaved=   6.
 NSaved= 6 IEnMin= 6 EnMin= -764.565402803813     IErMin= 6 ErrMin= 4.31D-05
 ErrMax= 4.31D-05  0.00D+00 EMaxC= 1.00D-01 BMatC= 2.69D-06 BMatP= 4.56D-05
 IDIUse=1 WtCom= 1.00D+00 WtEn= 0.00D+00
 Coeff-Com: -0.101D-02 0.859D-03 0.266D-02 0.300D-01 0.198D+00 0.770D+00
 Coeff:     -0.101D-02 0.859D-03 0.266D-02 0.300D-01 0.198D+00 0.770D+00
 Gap=     0.317 Goal=   None    Shift=    0.000
 RMSDP=4.47D-06 MaxDP=1.90D-04 DE=-2.93D-05 OVMax= 3.93D-04

 Initial convergence to 1.0D-05 achieved.  Increase integral accuracy.
 Cycle   7  Pass 1  IDiag  1:
 E= -764.565420002823     Delta-E=       -0.000017199010 Rises=F Damp=F
 DIIS: error= 2.97D-05 at cycle   1 NSaved=   1.
 NSaved= 1 IEnMin= 1 EnMin= -764.565420002823     IErMin= 1 ErrMin= 2.97D-05
 ErrMax= 2.97D-05  0.00D+00 EMaxC= 1.00D-01 BMatC= 6.60D-07 BMatP= 6.60D-07
 IDIUse=1 WtCom= 1.00D+00 WtEn= 0.00D+00
 Coeff-Com:  0.100D+01
 Coeff:      0.100D+01
 Gap=     0.317 Goal=   None    Shift=    0.000
 RMSDP=4.47D-06 MaxDP=1.90D-04 DE=-1.72D-05 OVMax= 2.30D-04

 Cycle   8  Pass 1  IDiag  1:
 E= -764.565420349409     Delta-E=       -0.000000346586 Rises=F Damp=F
 DIIS: error= 1.64D-05 at cycle   2 NSaved=   2.
 NSaved= 2 IEnMin= 2 EnMin= -764.565420349409     IErMin= 2 ErrMin= 1.64D-05
 ErrMax= 1.64D-05  0.00D+00 EMaxC= 1.00D-01 BMatC= 2.72D-07 BMatP= 6.60D-07
 IDIUse=1 WtCom= 1.00D+00 WtEn= 0.00D+00
 Coeff-Com:  0.357D+00 0.643D+00
 Coeff:      0.357D+00 0.643D+00
 Gap=     0.317 Goal=   None    Shift=    0.000
 RMSDP=1.36D-06 MaxDP=4.09D-05 DE=-3.47D-07 OVMax= 1.04D-04

 Cycle   9  Pass 1  IDiag  1:
 E= -764.565420505070     Delta-E=       -0.000000155661 Rises=F Damp=F
 DIIS: error= 7.01D-06 at cycle   3 NSaved=   3.
 NSaved= 3 IEnMin= 3 EnMin= -764.565420505070     IErMin= 3 ErrMin= 7.01D-06
 ErrMax= 7.01D-06  0.00D+00 EMaxC= 1.00D-01 BMatC= 4.84D-08 BMatP= 2.72D-07
 IDIUse=1 WtCom= 1.00D+00 WtEn= 0.00D+00
 Coeff-Com: -0.116D-01 0.282D+00 0.729D+00
 Coeff:     -0.116D-01 0.282D+00 0.729D+00
 Gap=     0.317 Goal=   None    Shift=    0.000
 RMSDP=5.67D-07 MaxDP=2.03D-05 DE=-1.56D-07 OVMax= 5.22D-05

 Cycle  10  Pass 1  IDiag  1:
 E= -764.565420534541     Delta-E=       -0.000000029471 Rises=F Damp=F
 DIIS: error= 2.49D-06 at cycle   4 NSaved=   4.
 NSaved= 4 IEnMin= 4 EnMin= -764.565420534541     IErMin= 4 ErrMin= 2.49D-06
 ErrMax= 2.49D-06  0.00D+00 EMaxC= 1.00D-01 BMatC= 4.40D-09 BMatP= 4.84D-08
 IDIUse=1 WtCom= 1.00D+00 WtEn= 0.00D+00
 Coeff-Com: -0.236D-01 0.103D+00 0.356D+00 0.565D+00
 Coeff:     -0.236D-01 0.103D+00 0.356D+00 0.565D+00
 Gap=     0.317 Goal=   None    Shift=    0.000
 RMSDP=1.54D-07 MaxDP=9.11D-06 DE=-2.95D-08 OVMax= 1.34D-05

 Cycle  11  Pass 1  IDiag  1:
 E= -764.565420537821     Delta-E=       -0.000000003280 Rises=F Damp=F
 DIIS: error= 3.90D-07 at cycle   5 NSaved=   5.
 NSaved= 5 IEnMin= 5 EnMin= -764.565420537821     IErMin= 5 ErrMin= 3.90D-07
 ErrMax= 3.90D-07  0.00D+00 EMaxC= 1.00D-01 BMatC= 1.54D-10 BMatP= 4.40D-09
 IDIUse=1 WtCom= 1.00D+00 WtEn= 0.00D+00
 Coeff-Com: -0.281D-02-0.103D-01-0.474D-02 0.119D+00 0.899D+00
 Coeff:     -0.281D-02-0.103D-01-0.474D-02 0.119D+00 0.899D+00
 Gap=     0.317 Goal=   None    Shift=    0.000
 RMSDP=5.10D-08 MaxDP=1.79D-06 DE=-3.28D-09 OVMax= 7.16D-06

 Cycle  12  Pass 1  IDiag  1:
 E= -764.565420538012     Delta-E=       -0.000000000191 Rises=F Damp=F
 DIIS: error= 1.97D-07 at cycle   6 NSaved=   6.
 NSaved= 6 IEnMin= 6 EnMin= -764.565420538012     IErMin= 6 ErrMin= 1.97D-07
 ErrMax= 1.97D-07  0.00D+00 EMaxC= 1.00D-01 BMatC= 5.19D-11 BMatP= 1.54D-10
 IDIUse=1 WtCom= 1.00D+00 WtEn= 0.00D+00
 Coeff-Com:  0.155D-02-0.196D-01-0.495D-01-0.126D-01 0.453D+00 0.627D+00
 Coeff:      0.155D-02-0.196D-01-0.495D-01-0.126D-01 0.453D+00 0.627D+00
 Gap=     0.317 Goal=   None    Shift=    0.000
 RMSDP=1.70D-08 MaxDP=5.03D-07 DE=-1.91D-10 OVMax= 1.86D-06

 Cycle  13  Pass 1  IDiag  1:
 E= -764.565420538013     Delta-E=       -0.000000000001 Rises=F Damp=F
 DIIS: error= 4.39D-08 at cycle   7 NSaved=   7.
 NSaved= 7 IEnMin= 7 EnMin= -764.565420538013     IErMin= 7 ErrMin= 4.39D-08
 ErrMax= 4.39D-08  0.00D+00 EMaxC= 1.00D-01 BMatC= 1.77D-12 BMatP= 5.19D-11
 IDIUse=1 WtCom= 1.00D+00 WtEn= 0.00D+00
 Coeff-Com:  0.723D-03-0.488D-02-0.139D-01-0.152D-01 0.464D-01 0.162D+00
 Coeff-Com:  0.825D+00
 Coeff:      0.723D-03-0.488D-02-0.139D-01-0.152D-01 0.464D-01 0.162D+00
 Coeff:      0.825D+00
 Gap=     0.317 Goal=   None    Shift=    0.000
 RMSDP=5.00D-09 MaxDP=1.69D-07 DE=-1.36D-12 OVMax= 9.86D-07

 SCF Done:  E(RM062X) =  -764.565420538     A.U. after   13 cycles
            NFock= 13  Conv=0.50D-08     -V/T= 2.0034
 KE= 7.620093011482D+02 PE=-3.110846385025D+03 EE= 9.344541189997D+02
 Leave Link  502 at Sat May 24 04:57:39 2025, MaxMem=  3758096384 cpu:             108.5 elap:              24.4
 (Enter /apps/easybuild-2022/easybuild/software/Compiler/NVHPC/22.11-CUDA-11.7.0/Gaussian/g16c01-CUDA-11.7.0/g16/l508.exe)
 QCSCF skips out because SCF is already converged.
 Leave Link  508 at Sat May 24 04:57:39 2025, MaxMem=  3758096384 cpu:               0.0 elap:               0.0
 (Enter /apps/easybuild-2022/easybuild/software/Compiler/NVHPC/22.11-CUDA-11.7.0/Gaussian/g16c01-CUDA-11.7.0/g16/l801.exe)
 DoSCS=F DFT=T ScalE2(SS,OS)=  1.000000  1.000000
 Range of M.O.s used for correlation:     1   324
 NBasis=   324 NAE=    40 NBE=    40 NFC=     0 NFV=     0
 NROrb=    324 NOA=    40 NOB=    40 NVA=   284 NVB=   284

 **** Warning!!: The largest alpha MO coefficient is  0.12683515D+02

 Leave Link  801 at Sat May 24 04:57:39 2025, MaxMem=  3758096384 cpu:               0.0 elap:               0.0
 (Enter /apps/easybuild-2022/easybuild/software/Compiler/NVHPC/22.11-CUDA-11.7.0/Gaussian/g16c01-CUDA-11.7.0/g16/l1101.exe)
 Using compressed storage, NAtomX=    11.
 Will process     12 centers per pass.
   1 Symmetry operations used in ECPInt.
 ECPInt:  NShTT=    6786 NPrTT=   21959 LenC2=    6496 LenP2D=   16078.
 LDataN:  DoStor=T MaxTD1= 7 Len=  274
 Leave Link 1101 at Sat May 24 04:57:39 2025, MaxMem=  3758096384 cpu:               1.0 elap:               0.2
 (Enter /apps/easybuild-2022/easybuild/software/Compiler/NVHPC/22.11-CUDA-11.7.0/Gaussian/g16c01-CUDA-11.7.0/g16/l1102.exe)
 Symmetrizing basis deriv contribution to polar:
 IMax=3 JMax=2 DiffMx= 0.00D+00
 Leave Link 1102 at Sat May 24 04:57:39 2025, MaxMem=  3758096384 cpu:               0.1 elap:               0.0
 (Enter /apps/easybuild-2022/easybuild/software/Compiler/NVHPC/22.11-CUDA-11.7.0/Gaussian/g16c01-CUDA-11.7.0/g16/l1110.exe)
 Forming Gx(P) for the SCF density, NAtomX=    11.
 Integral derivatives from FoFJK, PRISM(SPDF).
 Do as many integral derivatives as possible in FoFJK.
 G2DrvN: MDV=    3758095115.
 G2DrvN: will do    12 centers at a time, making    1 passes.
 Calling FoFCou, ICntrl=  3107 FMM=F I1Cent=   0 AccDes= 0.00D+00.
 FoFJK:  IHMeth= 1 ICntrl=    3107 DoSepK=F KAlg= 0 I1Cent=           0 FoldK=F
 IRaf=         0 NMat=       1 IRICut=       1 DoRegI=T DoRafI=F ISym2E= 0 IDoP0=0 IntGTp=1.
 FoFCou: FMM=F IPFlag=           0 FMFlag=      100000 FMFlg1=           0
         NFxFlg=           0 DoJE=F BraDBF=F KetDBF=F FulRan=T
         wScrn=  0.000000 ICntrl=      3107 IOpCl=  0 I1Cent=           0 NGrid=           0
         NMat0=    1 NMatS0=      1 NMatT0=    0 NMatD0=    1 NMtDS0=    0 NMtDT0=    0
 Symmetry not used in FoFCou.
 End of G2Drv F.D. properties file   721 does not exist.
 End of G2Drv F.D. properties file   722 does not exist.
 End of G2Drv F.D. properties file   788 does not exist.
 Leave Link 1110 at Sat May 24 04:58:21 2025, MaxMem=  3758096384 cpu:             337.8 elap:              42.5
 (Enter /apps/easybuild-2022/easybuild/software/Compiler/NVHPC/22.11-CUDA-11.7.0/Gaussian/g16c01-CUDA-11.7.0/g16/l1002.exe)
 Minotr:  Closed shell wavefunction.
          IDoAtm=11111111111
          Direct CPHF calculation.
          Differentiating once with respect to nuclear coordinates.
          Requested convergence is 1.0D-08 RMS, and 1.0D-07 maximum.
          Secondary convergence is 1.0D-12 RMS, and 1.0D-12 maximum.
          NewPWx=T KeepS1=F KeepF1=F KeepIn=T MapXYZ=F SortEE=F KeepMc=T.
         3300 words used for storage of precomputed grid.
 Keep R1 ints in memory in canonical form, NReq=1412622530.
 FoFCou: FMM=F IPFlag=           0 FMFlag=           0 FMFlg1=           0
         NFxFlg=           0 DoJE=F BraDBF=F KetDBF=F FulRan=T
         wScrn=  0.000000 ICntrl=       600 IOpCl=  0 I1Cent=           0 NGrid=           0
         NMat0=    1 NMatS0=  52650 NMatT0=    0 NMatD0=    1 NMtDS0=    0 NMtDT0=    0
 Symmetry not used in FoFCou.
 Two-electron integral symmetry not used.
          MDV=    3758096384 using IRadAn=       1.
          Solving linear equations simultaneously, MaxMat=       0.
          There are    36 degrees of freedom in the 1st order CPHF.  IDoFFX=6 NUNeed=     0.
     30 vectors produced by pass  0 Test12= 3.16D-14 2.78D-09 XBig12= 1.15D-01 1.81D-01.
 AX will form    30 AO Fock derivatives at one time.
     30 vectors produced by pass  1 Test12= 3.16D-14 2.78D-09 XBig12= 1.96D-02 3.72D-02.
     30 vectors produced by pass  2 Test12= 3.16D-14 2.78D-09 XBig12= 1.12D-03 5.08D-03.
     30 vectors produced by pass  3 Test12= 3.16D-14 2.78D-09 XBig12= 1.63D-05 6.95D-04.
     30 vectors produced by pass  4 Test12= 3.16D-14 2.78D-09 XBig12= 2.48D-07 7.10D-05.
     30 vectors produced by pass  5 Test12= 3.16D-14 2.78D-09 XBig12= 2.77D-09 4.77D-06.
     30 vectors produced by pass  6 Test12= 3.16D-14 2.78D-09 XBig12= 2.00D-11 5.12D-07.
     15 vectors produced by pass  7 Test12= 3.16D-14 2.78D-09 XBig12= 1.04D-13 3.41D-08.
 InvSVY:  IOpt=1 It=  1 EMax= 8.88D-16
 Solved reduced A of dimension   225 with    30 vectors.
 End of Minotr F.D. properties file   721 does not exist.
 End of Minotr F.D. properties file   722 does not exist.
 End of Minotr F.D. properties file   788 does not exist.
 Leave Link 1002 at Sat May 24 04:59:18 2025, MaxMem=  3758096384 cpu:             443.0 elap:              56.2
 (Enter /apps/easybuild-2022/easybuild/software/Compiler/NVHPC/22.11-CUDA-11.7.0/Gaussian/g16c01-CUDA-11.7.0/g16/l701.exe)
 ... and contract with generalized density number  0.
 Compute integral second derivatives.
   1 Symmetry operations used in ECPInt.
 ECPInt:  NShTT=    6786 NPrTT=   21959 LenC2=    6496 LenP2D=   16078.
 LDataN:  DoStor=T MaxTD1= 8 Len=  415
 Leave Link  701 at Sat May 24 04:59:18 2025, MaxMem=  3758096384 cpu:               0.7 elap:               0.1
 (Enter /apps/easybuild-2022/easybuild/software/Compiler/NVHPC/22.11-CUDA-11.7.0/Gaussian/g16c01-CUDA-11.7.0/g16/l702.exe)
 L702 exits ... SP integral derivatives will be done elsewhere.
 Leave Link  702 at Sat May 24 04:59:18 2025, MaxMem=  3758096384 cpu:               0.0 elap:               0.0
 (Enter /apps/easybuild-2022/easybuild/software/Compiler/NVHPC/22.11-CUDA-11.7.0/Gaussian/g16c01-CUDA-11.7.0/g16/l703.exe)
 Integral derivatives from FoFJK, PRISM(SPDF).
 Compute integral second derivatives, UseDBF=F ICtDFT=           0.
 Calling FoFJK, ICntrl=    100127 FMM=F ISym2X=0 I1Cent= 0 IOpClX= 0 NMat=1 NMatS=1 NMatT=0.
 FoFJK:  IHMeth= 1 ICntrl=  100127 DoSepK=F KAlg= 0 I1Cent=           0 FoldK=F
 IRaf=         0 NMat=       1 IRICut=       1 DoRegI=T DoRafI=F ISym2E= 0 IDoP0=0 IntGTp=1.
 FoFCou: FMM=F IPFlag=           0 FMFlag=      100000 FMFlg1=         800
         NFxFlg=           0 DoJE=F BraDBF=F KetDBF=F FulRan=T
         wScrn=  0.000000 ICntrl=    100127 IOpCl=  0 I1Cent=           0 NGrid=           0
         NMat0=    1 NMatS0=      1 NMatT0=    0 NMatD0=    1 NMtDS0=    0 NMtDT0=    0
 Symmetry not used in FoFCou.
 Leave Link  703 at Sat May 24 05:00:57 2025, MaxMem=  3758096384 cpu:             788.8 elap:              99.2
 (Enter /apps/easybuild-2022/easybuild/software/Compiler/NVHPC/22.11-CUDA-11.7.0/Gaussian/g16c01-CUDA-11.7.0/g16/l716.exe)
 Dipole        = 4.34350286D-01 4.47620466D-01-7.05732664D-01
 Polarizability= 0.00000000D+00 0.00000000D+00 0.00000000D+00
                 0.00000000D+00 0.00000000D+00 0.00000000D+00
 -------------------------------------------------------------------
 Center     Atomic                   Forces (Hartrees/Bohr)
 Number     Number              X              Y              Z
 -------------------------------------------------------------------
      1        6          -0.021386435   -0.002732492   -0.013095769
      2        8           0.027799256    0.011471668    0.016688809
      3        6           0.003883335   -0.002927863    0.005203447
      4        6           0.017383134   -0.027107126    0.009610174
      5        9          -0.000323258    0.000700576   -0.000727586
      6        9           0.000804122    0.004446357   -0.000342847
      7        9           0.011066867    0.027201247   -0.004901040
      8        9          -0.002497663    0.000100993   -0.001774168
      9        9          -0.001637296    0.002697246   -0.003542914
     10        8          -0.021663723   -0.008650534   -0.004535102
     11        1          -0.013428338   -0.005200072   -0.002583003
 -------------------------------------------------------------------
 Cartesian Forces:  Max     0.027799256 RMS     0.011957030
 Force constants in Cartesian coordinates: 
                1             2             3             4             5 
      1  0.395717D+00
      2  0.399472D-01  0.173781D+00
      3  0.145553D-01 -0.222185D+00  0.414764D+00
      4 -0.250538D+00 -0.564920D-02  0.458326D-02  0.498504D+00
      5 -0.153950D-01 -0.539281D-01  0.262866D-01  0.543481D-01  0.316138D+00
      6  0.188642D-01  0.441291D-01 -0.483570D-01  0.819685D-01 -0.339171D-01
      7  0.928198D-02  0.114798D-02 -0.198462D-02 -0.131358D-01 -0.215444D-01
      8 -0.372823D-02 -0.103866D-02 -0.409380D-02 -0.969601D-02 -0.264385D-01
      9 -0.173772D-01  0.515712D-04 -0.549607D-03  0.187814D-01  0.150515D-01
     10 -0.501900D-01 -0.294688D-01  0.187454D-02 -0.101450D+00 -0.364141D-01
     11 -0.650468D-01  0.113579D-01 -0.162715D-01 -0.198523D-01 -0.182569D+00
     12  0.425695D-01 -0.136439D-01  0.307208D-02 -0.489829D-01 -0.361534D-01
     13  0.224272D-02 -0.136340D-02  0.787476D-03 -0.202900D-02 -0.269653D-02
     14  0.756057D-02 -0.198616D-02  0.180879D-02 -0.812850D-02 -0.739717D-02
     15  0.580175D-02 -0.686354D-03  0.269334D-03 -0.740849D-02 -0.847714D-02
     16  0.772972D-02 -0.480545D-02  0.841894D-02 -0.736594D-01 -0.279741D-01
     17  0.359601D-02 -0.353531D-02  0.512890D-02 -0.546558D-01  0.135191D-02
     18 -0.560740D-02  0.398850D-03 -0.222532D-04  0.142707D-01  0.848176D-02
     19 -0.117133D-01  0.429698D-02 -0.679960D-02  0.231358D-01  0.865254D-03
     20  0.973185D-02 -0.236023D-02  0.785989D-02  0.958332D-03 -0.609255D-01
     21 -0.184843D-01  0.582763D-02 -0.656843D-02  0.189959D-01  0.318411D-01
     22 -0.629392D-02 -0.196221D-02  0.201960D-03  0.955693D-02  0.545296D-02
     23  0.108090D-02 -0.205734D-02  0.543707D-03 -0.130566D-02  0.218080D-02
     24  0.324076D-02 -0.657400D-03 -0.292735D-03 -0.609554D-02 -0.252815D-02
     25 -0.412863D-03 -0.186999D-03  0.133607D-03  0.142274D-02  0.557586D-03
     26  0.149416D-02 -0.337215D-04  0.578118D-03 -0.117018D-02  0.366405D-02
     27  0.268120D-02  0.780067D-03 -0.480566D-03 -0.218407D-02 -0.437769D-02
     28 -0.118797D+00  0.734887D-02 -0.258028D-01 -0.826903D-01  0.392299D-01
     29  0.296099D-01 -0.121543D+00  0.166639D+00  0.538045D-01  0.209161D-01
     30 -0.754123D-01  0.152327D+00 -0.329731D+00 -0.758015D-01  0.140704D-01
     31  0.229730D-01 -0.930495D-02  0.403191D-02 -0.911748D-02  0.357033D-02
     32 -0.885056D-02  0.134354D-02  0.337061D-01 -0.865339D-02 -0.129931D-01
     33  0.291683D-01  0.336585D-01 -0.321040D-01  0.187272D-02 -0.102778D-01
                6             7             8             9            10 
      6  0.101140D+00
      7 -0.134524D-01  0.607943D+00
      8 -0.169253D-01 -0.631173D-03  0.603579D+00
      9  0.641567D-02 -0.448175D-02  0.188233D-01  0.634135D+00
     10 -0.185966D-01 -0.388263D-01 -0.384657D-02 -0.683017D-02  0.603054D+00
     11 -0.318878D-01 -0.379497D-02 -0.673633D-01 -0.692120D-01 -0.229560D-01
     12 -0.671278D-01 -0.700809D-02 -0.726178D-01 -0.190209D+00  0.152509D-01
     13 -0.269251D-02 -0.139993D+00 -0.108713D+00 -0.138470D-01 -0.912171D-02
     14 -0.664384D-02 -0.106268D+00 -0.256028D+00 -0.260910D-01 -0.236309D-01
     15 -0.457702D-02 -0.816123D-02 -0.173242D-01 -0.877656D-01 -0.151531D-01
     16  0.813099D-02 -0.330310D-01  0.296981D-02  0.339037D-02 -0.265803D+00
     17  0.107394D-01  0.193137D-01 -0.532697D-03 -0.302236D-02  0.404489D-01
     18  0.107265D-01  0.413677D-01 -0.395369D-02 -0.334239D-02  0.769217D-01
     19  0.455049D-02 -0.530581D-02  0.137612D-01 -0.636662D-02 -0.108399D+00
     20  0.369044D-01  0.406860D-02 -0.600591D-02  0.403643D-02  0.573967D-01
     21  0.103380D-02 -0.247840D-01  0.434264D-01 -0.200791D-01 -0.670736D-01
     22  0.841677D-03 -0.267264D+00  0.562473D-01  0.974601D-01 -0.275236D-01
     23  0.130532D-02  0.515807D-01 -0.927377D-01 -0.315000D-01  0.203946D-01
     24  0.984716D-03  0.889962D-01 -0.320692D-01 -0.132730D+00  0.403439D-01
     25 -0.239187D-03 -0.118761D+00  0.534599D-01 -0.734974D-01 -0.567707D-02
     26 -0.171025D-02  0.567359D-01 -0.152067D+00  0.940447D-01  0.428211D-02
     27 -0.323200D-03 -0.696001D-01  0.827831D-01 -0.207207D+00 -0.232239D-01
     28 -0.803482D-01 -0.218950D-02  0.139210D-02  0.448581D-02  0.815835D-02
     29  0.725326D-02 -0.553285D-04 -0.866344D-03 -0.146170D-02 -0.193520D-02
     30 -0.225355D-02  0.923446D-04  0.236468D-02  0.313726D-02  0.831871D-02
     31  0.973051D-03  0.128113D-02 -0.121542D-02 -0.171760D-02 -0.422157D-02
     32 -0.924715D-02 -0.552813D-03 -0.499998D-03 -0.720374D-03 -0.427062D-02
     33  0.233747D-02 -0.984076D-03 -0.413567D-03 -0.180606D-02 -0.118324D-01
               11            12            13            14            15 
     11  0.527439D+00
     12  0.175341D-01  0.614496D+00
     13 -0.154725D-01  0.579610D-02  0.188230D+00
     14 -0.305932D-01  0.103991D-01  0.167647D+00  0.348149D+00
     15 -0.217519D-01  0.713277D-02 -0.640113D-02 -0.119550D-01  0.741067D-01
     16  0.459073D-01  0.918917D-01  0.589569D-02  0.232831D-02 -0.868464D-04
     17 -0.830700D-01 -0.230995D-01  0.143177D-02  0.180197D-02 -0.586805D-03
     18 -0.228420D-01 -0.121707D+00 -0.250942D-02 -0.177507D-02 -0.531285D-03
     19  0.492258D-01 -0.730871D-01  0.136307D-02  0.268838D-03  0.419014D-03
     20 -0.162427D+00  0.108238D+00  0.782815D-03  0.540651D-02 -0.101566D-02
     21  0.811889D-01 -0.202019D+00 -0.372428D-04 -0.510289D-02  0.325851D-03
     22  0.760536D-03  0.920131D-03 -0.645878D-01 -0.294945D-01  0.217359D-01
     23  0.725126D-03 -0.279703D-02 -0.451511D-01  0.650277D-02  0.161591D-01
     24 -0.303289D-02 -0.205339D-02  0.150232D-01  0.950148D-02  0.104068D-01
     25  0.128593D-01 -0.704957D-02  0.187057D-01 -0.859382D-02  0.103639D-01
     26 -0.549433D-02  0.268239D-02  0.258350D-02 -0.676059D-01  0.447521D-01
     27  0.383355D-01 -0.201701D-01  0.479377D-02  0.322340D-01  0.144397D-02
     28  0.118387D-01 -0.573758D-02 -0.471199D-03 -0.159218D-02 -0.140462D-02
     29 -0.282026D-01  0.183790D-01  0.112454D-02  0.242060D-02  0.940389D-03
     30  0.270720D-01 -0.144389D-01 -0.130918D-02 -0.287705D-02 -0.125446D-02
     31  0.653093D-02 -0.145632D-01 -0.234761D-03 -0.966096D-04  0.294847D-03
     32  0.201974D-01 -0.892053D-02 -0.173189D-03 -0.670458D-03 -0.546189D-04
     33  0.867699D-03 -0.697584D-02  0.396000D-03  0.501452D-03  0.442969D-03
               16            17            18            19            20 
     16  0.405134D+00
     17 -0.552611D-01  0.941810D-01
     18 -0.103693D+00  0.168167D-01  0.106838D+00
     19 -0.517436D-01  0.454341D-01 -0.274220D-01  0.172577D+00
     20  0.347757D-01 -0.111376D-01  0.932460D-02 -0.735959D-01  0.255696D+00
     21 -0.146116D-01  0.477221D-02  0.181599D-01  0.111853D+00 -0.146547D+00
     22  0.134072D-03  0.268114D-02  0.550848D-02  0.487464D-02 -0.129965D-02
     23  0.276285D-02 -0.167633D-02 -0.551894D-02 -0.283251D-02  0.195922D-02
     24  0.597531D-02 -0.507849D-02 -0.107784D-01 -0.144983D-02 -0.749070D-03
     25  0.533297D-02 -0.278690D-02 -0.778104D-03 -0.164894D-04 -0.901393D-03
     26 -0.184433D-02  0.199047D-02 -0.419941D-03 -0.497564D-03  0.218217D-02
     27  0.218125D-02 -0.237014D-02 -0.631934D-03 -0.390260D-02 -0.129144D-02
     28 -0.979549D-03  0.161794D-03  0.133863D-02 -0.172582D-01 -0.171819D-01
     29  0.174825D-03  0.289033D-02 -0.909394D-03 -0.315584D-01 -0.626273D-02
     30 -0.294366D-02 -0.245771D-02  0.139773D-02  0.144289D-02 -0.147081D-01
     31  0.990646D-03 -0.363623D-03  0.602250D-03 -0.751381D-02 -0.147352D-01
     32  0.966213D-03 -0.226382D-02  0.397114D-03 -0.536777D-02 -0.161243D-01
     33  0.134604D-02 -0.842202D-03 -0.108403D-03  0.761846D-03 -0.205125D-02
               21            22            23            24            25 
     21  0.210834D+00
     22  0.331154D-02  0.405267D+00
     23 -0.283133D-02 -0.731148D-01  0.965804D-01
     24  0.400000D-04 -0.119057D+00  0.223588D-01  0.115456D+00
     25 -0.365797D-02 -0.548101D-01  0.468194D-01 -0.262845D-01  0.154069D+00
     26 -0.251053D-03  0.405217D-01 -0.126747D-01  0.114681D-01 -0.101489D+00
     27 -0.154442D-01 -0.114188D-01  0.356027D-02  0.195741D-01  0.100616D+00
     28 -0.522610D-02  0.163713D-02 -0.384578D-03 -0.117866D-02  0.286071D-05
     29 -0.153631D-01 -0.631433D-04  0.118016D-02  0.494799D-03 -0.245234D-03
     30  0.104635D-01  0.164611D-03 -0.138168D-02 -0.108580D-02  0.162457D-05
     31 -0.286201D-03 -0.990979D-03  0.150239D-03  0.486527D-03  0.144033D-03
     32  0.303959D-02  0.270632D-03  0.176084D-04  0.291980D-03  0.507551D-03
     33  0.325368D-02  0.331734D-03  0.101748D-03  0.478150D-03  0.391206D-03
               26            27            28            29            30 
     26  0.229799D+00
     27 -0.150080D+00  0.222342D+00
     28 -0.509978D-03 -0.105662D-02  0.523035D+00
     29  0.819425D-03 -0.884405D-03  0.407372D-01  0.190817D+00
     30 -0.874294D-03  0.613253D-04 -0.323203D-01 -0.239891D+00  0.482810D+00
     31 -0.105882D-03  0.111353D-02 -0.310448D+00 -0.915937D-01  0.177767D+00
     32 -0.579104D-03  0.131038D-02 -0.810399D-01 -0.621693D-01  0.663558D-01
     33 -0.190168D-03  0.835490D-03  0.147250D+00  0.648038D-01 -0.149106D+00
               31            32            33 
     31  0.307138D+00
     32  0.107164D+00  0.737415D-01
     33 -0.168702D+00 -0.861583D-01  0.182752D+00
 FormGI is forming the generalized inverse of G from B-inverse, IUseBI=4.
 Force constants in internal coordinates: 
                1             2             3             4             5 
      1  0.413379D+00
      2  0.981836D-01  0.522512D+00
      3  0.873096D-01 -0.164779D-01  0.410071D+00
      4  0.243141D-02  0.699323D-03  0.163462D-01  0.282652D+00
      5 -0.560295D-02  0.348412D-02  0.791508D-02  0.171869D-01  0.454418D+00
      6 -0.626723D-02  0.117315D-02  0.572443D-02  0.176516D-01  0.565873D-01
      7 -0.104768D-02 -0.119698D-02  0.321302D-02  0.166029D-01  0.563681D-01
      8 -0.776192D-02  0.176546D-02  0.542757D-01  0.181230D-01  0.524951D-02
      9 -0.164865D-01  0.232111D-01  0.534374D-01  0.158814D-01  0.557757D-02
     10 -0.164188D-01  0.229444D-01 -0.838126D-02 -0.223110D-03 -0.718596D-03
     11  0.239842D+00  0.893552D-01  0.942185D-01  0.883482D-04  0.107323D-02
     12  0.186303D+00 -0.209322D-01  0.210320D+00  0.478443D-02  0.912153D-03
     13 -0.883039D-02  0.220365D-02  0.173334D-01  0.159326D-01  0.176240D-01
     14  0.223305D-02  0.182959D-02 -0.158977D-02  0.111987D-01 -0.302055D-01
     15 -0.334293D-02 -0.901810D-05 -0.362138D-02  0.196206D-01 -0.283206D-01
     16  0.350623D-02 -0.229643D-02 -0.554052D-02 -0.153717D-01  0.196201D-01
     17  0.444567D-02 -0.123705D-02 -0.465002D-02 -0.166600D-01  0.192049D-01
     18  0.211011D-02 -0.555915D-03 -0.208659D-02 -0.154079D-01  0.292127D-02
     19 -0.332955D-01  0.876667D-02 -0.576208D-02  0.975799D-02  0.159485D-01
     20 -0.454471D-02  0.101837D-02  0.177825D-01 -0.118706D-01 -0.316854D-02
     21  0.588344D-01 -0.767033D-02  0.700030D-01 -0.123025D-01 -0.339777D-02
     22  0.788908D-02 -0.268060D-02 -0.210651D-01  0.128255D-01 -0.427055D-02
     23 -0.257059D-01  0.643160D-03 -0.502084D-01  0.934081D-02 -0.465363D-02
     24 -0.326504D-02 -0.150630D-03 -0.120379D-01 -0.795216D-02 -0.827281D-03
     25  0.203125D-01  0.499302D-01  0.208033D-01  0.486282D-03 -0.996852D-03
     26  0.104003D+00  0.889132D-02  0.938990D-01 -0.994683D-03 -0.831348D-03
     27  0.320052D-01  0.518105D-02  0.110512D-01 -0.450818D-04  0.461987D-03
     28  0.381764D-03  0.793724D-03 -0.757490D-02  0.150103D-03  0.461290D-03
     29 -0.110229D-01  0.295723D-02 -0.252673D-01  0.136883D-01  0.204481D-02
     30  0.149280D-01 -0.860312D-03  0.101514D-01 -0.101983D-01 -0.282251D-02
     31 -0.185972D-01  0.250986D-02 -0.149572D-01  0.161630D-02 -0.335129D-03
     32  0.105337D-02 -0.207213D-02 -0.203156D-01  0.258776D-02 -0.291551D-02
     33  0.148264D-01 -0.714149D-03  0.342868D-01 -0.469564D-03  0.312938D-02
     34 -0.185460D-01  0.223864D-02 -0.116266D-01 -0.961448D-04  0.163678D-01
     35  0.110460D-02 -0.234335D-02 -0.169850D-01  0.875316D-03  0.137874D-01
     36  0.148776D-01 -0.985367D-03  0.376174D-01 -0.218201D-02  0.198323D-01
     37 -0.166778D-01  0.269514D-02 -0.175559D-01  0.495489D-03 -0.173130D-01
     38  0.297281D-02 -0.188684D-02 -0.229143D-01  0.146695D-02 -0.198934D-01
     39  0.167458D-01 -0.528866D-03  0.316881D-01 -0.159037D-02 -0.138485D-01
                6             7             8             9            10 
      6  0.463814D+00
      7  0.568141D-01  0.446113D+00
      8  0.597163D-02  0.542979D-02  0.447036D+00
      9  0.552684D-02  0.633196D-02  0.538138D-01  0.443426D+00
     10  0.908759D-03  0.649500D-03  0.201273D-03 -0.582156D-02  0.471921D+00
     11 -0.218785D-04 -0.139783D-02 -0.179487D-02  0.490968D-02 -0.629188D-01
     12 -0.395266D-02 -0.934125D-03  0.854979D-02 -0.148281D-01 -0.337804D-01
     13 -0.309034D-01 -0.287047D-01 -0.432208D-02 -0.339938D-02 -0.853083D-04
     14  0.182153D-01 -0.296465D-01  0.182598D-01 -0.400508D-02 -0.465348D-03
     15 -0.299082D-01  0.158391D-01 -0.334750D-02  0.178480D-01  0.918512D-03
     16  0.202892D-01  0.290854D-02 -0.425340D-02 -0.184578D-02  0.128748D-03
     17  0.264709D-02  0.203419D-01 -0.208854D-02 -0.425085D-02 -0.190261D-03
     18  0.197959D-01  0.202036D-01 -0.452506D-02 -0.443434D-02 -0.306970D-03
     19 -0.304042D-02 -0.498241D-02 -0.249990D-01 -0.259970D-01  0.721501D-02
     20 -0.385437D-02 -0.110404D-02  0.173961D-01 -0.156685D-02  0.116465D-02
     21 -0.283068D-02 -0.503300D-02 -0.258728D-02  0.845908D-02 -0.185233D-01
     22  0.132278D-01 -0.125338D-02  0.142549D-01 -0.146118D-01 -0.196824D-02
     23 -0.258332D-04  0.145518D-01 -0.117723D-01  0.183617D-01  0.105069D-01
     24 -0.293306D-02 -0.264598D-02  0.102661D-01  0.148941D-01  0.165757D-02
     25 -0.126830D-02 -0.977937D-03 -0.191593D-02  0.464845D-02 -0.270477D-02
     26  0.721870D-03 -0.405116D-02 -0.276898D-02  0.173218D-01 -0.464902D-01
     27  0.356909D-03 -0.279650D-02 -0.294567D-02  0.179333D-01 -0.158919D-01
     28 -0.451570D-02  0.488659D-02 -0.207945D-01  0.203081D-01  0.139385D-03
     29  0.745680D-02 -0.242891D-04 -0.649452D-02 -0.125016D-01  0.240835D-02
     30 -0.773640D-04 -0.672360D-02  0.153533D-01  0.930568D-02 -0.516366D-02
     31 -0.139016D-01  0.149786D-01  0.116036D-01 -0.706697D-02  0.528820D-02
     32 -0.156667D-01  0.199467D-01 -0.421944D-02  0.187424D-01  0.970897D-03
     33 -0.197254D-01  0.156914D-01 -0.181054D-01 -0.995824D-03 -0.576616D-02
     34  0.280650D-02 -0.187065D-01  0.150542D-01 -0.140890D-01  0.509905D-02
     35  0.104147D-02 -0.137384D-01 -0.768859D-03  0.117203D-01  0.781753D-03
     36 -0.301725D-02 -0.179937D-01 -0.146549D-01 -0.801786D-02 -0.595530D-02
     37  0.195492D-01 -0.207538D-02  0.187776D-01 -0.105957D-01  0.501776D-02
     38  0.177841D-01  0.289277D-02  0.295455D-02  0.152137D-01  0.700463D-03
     39  0.137254D-01 -0.136252D-02 -0.109315D-01 -0.452451D-02 -0.603659D-02
               11            12            13            14            15 
     11  0.897902D+00
     12  0.321878D+00  0.731522D+00
     13  0.206991D-02 -0.931606D-03  0.191920D+00
     14 -0.785627D-03  0.545592D-02 -0.313669D-03  0.184779D+00
     15 -0.948856D-03 -0.440851D-02  0.570605D-03  0.929278D-03  0.193085D+00
     16 -0.144218D-03 -0.177677D-02 -0.945556D-01 -0.891828D-01 -0.110734D-01
     17 -0.411719D-03  0.115861D-02 -0.898441D-01 -0.999481D-02 -0.913603D-01
     18  0.216762D-03  0.468146D-03 -0.106495D-01 -0.893096D-01 -0.948699D-01
     19 -0.586689D-01 -0.798647D-01  0.208337D-01 -0.781394D-02 -0.318299D-02
     20 -0.116688D-01 -0.128217D-01 -0.608349D-02 -0.542159D-02  0.232557D-02
     21  0.131088D+00  0.190331D+00 -0.548072D-02  0.385049D-02 -0.100178D-01
     22  0.185392D-01  0.141579D-01 -0.552223D-02  0.196322D-01 -0.494491D-02
     23 -0.645194D-01 -0.856126D-01 -0.684471D-02 -0.501251D-02  0.197497D-01
     24 -0.153677D-01 -0.282041D-01  0.279697D-02 -0.442457D-02 -0.464033D-02
     25  0.437230D-01  0.419850D-01 -0.135498D-02 -0.364393D-03 -0.150626D-02
     26  0.319155D+00  0.374038D+00 -0.615791D-03 -0.330887D-02 -0.195486D-02
     27  0.747394D-01  0.757553D-01  0.237831D-03 -0.147855D-02 -0.166636D-02
     28 -0.399280D-02 -0.138269D-01  0.413567D-03 -0.794633D-02  0.736830D-02
     29 -0.207284D-01 -0.481265D-01  0.135562D-02  0.820642D-02  0.108111D-02
     30  0.263107D-01  0.155868D-01 -0.208718D-02  0.160479D-02 -0.867765D-02
     31 -0.386892D-01 -0.608346D-01 -0.480604D-03 -0.420780D-02  0.588072D-02
     32 -0.247088D-02 -0.839822D-02 -0.151215D-02 -0.530888D-02  0.792459D-02
     33  0.414145D-01  0.651827D-01  0.213516D-02 -0.846328D-02  0.526673D-02
     34 -0.380250D-01 -0.601992D-01  0.606070D-02  0.149334D-02 -0.691890D-02
     35 -0.180664D-02 -0.776279D-02  0.502916D-02  0.392265D-03 -0.487503D-02
     36  0.420788D-01  0.658181D-01  0.867646D-02 -0.276214D-02 -0.753289D-02
     37 -0.388632D-01 -0.590271D-01 -0.698902D-02  0.761380D-02  0.530956D-03
     38 -0.264490D-02 -0.659071D-02 -0.802056D-02  0.651272D-02  0.257483D-02
     39  0.412405D-01  0.669902D-01 -0.437326D-02  0.335832D-02 -0.830364D-04
               16            17            18            19            20 
     16  0.124170D+00
     17  0.367929D-01  0.120822D+00
     18  0.365850D-01  0.369917D-01  0.123936D+00
     19 -0.526421D-02 -0.704611D-02  0.234949D-02  0.188559D+00
     20  0.478932D-02  0.239642D-02  0.214962D-02 -0.644550D-01  0.101637D+00
     21  0.219759D-02  0.612178D-02  0.346901D-02 -0.111662D+00  0.901224D-02
     22 -0.551779D-02  0.207319D-02 -0.592846D-02 -0.317294D-01 -0.622930D-01
     23  0.220724D-02 -0.449030D-02 -0.567380D-02 -0.930850D-02  0.175030D-01
     24  0.147515D-02  0.127451D-02  0.361753D-02  0.265604D-01 -0.141992D-02
     25  0.930634D-03  0.126352D-02  0.107713D-02 -0.416500D-02 -0.149114D-02
     26  0.188837D-02  0.184838D-02  0.224264D-02 -0.626380D-01 -0.486938D-02
     27  0.529954D-03  0.955390D-03  0.146973D-02 -0.975313D-02  0.967700D-03
     28  0.203230D-02 -0.213248D-02  0.308408D-03  0.163749D-01  0.534649D-02
     29 -0.456861D-02 -0.199425D-02 -0.425999D-02  0.412015D-01 -0.426850D-01
     30  0.142596D-02  0.445112D-02  0.339885D-02 -0.288310D-01  0.238767D-01
     31 -0.190138D-01  0.190221D-01 -0.821722D-03  0.924371D-02  0.237830D-01
     32 -0.184356D-01  0.188296D-01 -0.110915D-02  0.577618D-04 -0.249067D-01
     33 -0.182733D-01  0.186267D-01  0.113283D-02 -0.835268D-02  0.272729D-02
     34  0.177233D-01  0.273564D-03 -0.186664D-01  0.112521D-01  0.223718D-01
     35  0.183015D-01  0.810739D-04 -0.189538D-01  0.206616D-02 -0.263179D-01
     36  0.184638D-01 -0.121821D-03 -0.167118D-01 -0.634429D-02  0.131606D-02
     37 -0.182952D-03 -0.190737D-01  0.176955D-01  0.719223D-02  0.231265D-01
     38  0.395245D-03 -0.192662D-01  0.174080D-01 -0.199372D-02 -0.255632D-01
     39  0.557532D-03 -0.194691D-01  0.196500D-01 -0.104042D-01  0.207078D-02
               21            22            23            24            25 
     21  0.185941D+00
     22  0.261437D-01  0.124483D+00
     23 -0.965961D-01 -0.136368D-01  0.129867D+00
     24 -0.118595D-01 -0.401206D-01 -0.308776D-01  0.593141D-01
     25  0.930446D-02  0.196047D-02 -0.403282D-02 -0.164871D-02  0.203347D+00
     26  0.126226D+00  0.155893D-01 -0.533686D-01 -0.219614D-01  0.524708D-01
     27  0.226159D-01  0.226328D-02 -0.121646D-01 -0.403180D-02  0.302133D-01
     28 -0.246537D-01 -0.385994D-01  0.393103D-01 -0.455642D-03 -0.184030D-03
     29 -0.483774D-01  0.563818D-01  0.284968D-01 -0.353713D-01 -0.100004D-02
     30  0.463199D-01 -0.165356D-01 -0.518371D-01  0.291267D-01  0.124899D-02
     31 -0.433637D-01 -0.794795D-02  0.166090D-01  0.255445D-02 -0.313921D-02
     32 -0.688310D-02  0.899340D-02  0.900690D-02  0.140248D-01 -0.158476D-03
     33  0.463897D-01 -0.670932D-02 -0.188619D-01 -0.167395D-01  0.294917D-02
     34 -0.417489D-01 -0.597805D-02  0.117560D-01  0.340280D-02 -0.309013D-02
     35 -0.526836D-02  0.109633D-01  0.415383D-02  0.148732D-01 -0.109393D-03
     36  0.480045D-01 -0.473942D-02 -0.237150D-01 -0.158911D-01  0.299826D-02
     37 -0.414836D-01 -0.416354D-02  0.143037D-01  0.211129D-02 -0.295479D-02
     38 -0.500303D-02  0.127778D-01  0.670153D-02  0.135817D-01  0.259463D-04
     39  0.482698D-01 -0.292490D-02 -0.211673D-01 -0.171826D-01  0.313359D-02
               26            27            28            29            30 
     26  0.185385D+00
     27  0.487563D-01  0.539437D-01
     28 -0.149740D-01 -0.271103D-02  0.242645D-01
     29 -0.332634D-01 -0.469674D-02 -0.102069D-01  0.542208D-01
     30  0.730084D-02  0.359891D-02 -0.211519D-01 -0.421993D-01  0.337892D-01
     31 -0.365434D-01 -0.523957D-02 -0.431132D-02  0.572977D-02 -0.497871D-03
     32 -0.453333D-02 -0.226105D-02  0.376396D-02 -0.631702D-03 -0.294664D-02
     33  0.427024D-01  0.807878D-02  0.444851D-02 -0.654450D-02  0.655405D-03
     34 -0.366857D-01 -0.536105D-02 -0.653730D-02  0.611421D-02  0.936247D-03
     35 -0.467563D-02 -0.238253D-02  0.153799D-02 -0.247260D-03 -0.151252D-02
     36  0.425601D-01  0.795730D-02  0.222254D-02 -0.616006D-02  0.208952D-02
     37 -0.372478D-01 -0.554347D-02 -0.640348D-02  0.669281D-02  0.564991D-03
     38 -0.523769D-02 -0.256495D-02  0.167180D-02  0.331342D-03 -0.188378D-02
     39  0.419981D-01  0.777487D-02  0.235635D-02 -0.558146D-02  0.171827D-02
               31            32            33            34            35 
     31  0.403283D-01
     32  0.109446D-01  0.357453D-01
     33  0.314772D-02  0.874498D-02  0.432027D-01
     34  0.137404D-01 -0.162880D-01 -0.235150D-01  0.406221D-01
     35 -0.156433D-01  0.851271D-02 -0.179177D-01  0.105938D-01  0.347498D-01
     36 -0.234402D-01 -0.184876D-01  0.165400D-01  0.336676D-02  0.831938D-02
     37  0.138659D-01 -0.158936D-01 -0.240399D-01  0.139239D-01 -0.158355D-01
     38 -0.155179D-01  0.890715D-02 -0.184426D-01 -0.161045D-01  0.832054D-02
     39 -0.233147D-01 -0.180932D-01  0.160151D-01 -0.233314D-01 -0.181099D-01
               36            37            38            39 
     36  0.433470D-01
     37 -0.239819D-01  0.410299D-01
     38 -0.190293D-01  0.112705D-01  0.356955D-01
     39  0.159984D-01  0.312410D-02  0.834566D-02  0.424539D-01
 Leave Link  716 at Sat May 24 05:00:57 2025, MaxMem=  3758096384 cpu:               0.0 elap:               0.0
 (Enter /apps/easybuild-2022/easybuild/software/Compiler/NVHPC/22.11-CUDA-11.7.0/Gaussian/g16c01-CUDA-11.7.0/g16/l103.exe)

 GradGradGradGradGradGradGradGradGradGradGradGradGradGradGradGradGradGrad
 Berny optimization.
 Red2BG is reusing G-inverse.
 Internal  Forces:  Max     0.097978852 RMS     0.025953234
 Search for a local minimum.
 Step number   1 out of a maximum of   49
 All quantities printed in internal units (Hartrees-Bohrs-Radians)
 RMS Force = .25953D-01 SwitMx=.10000D-02 MixMth= 1
 Mixed Optimization -- RFO/linear search
 Second derivative matrix not updated -- analytic derivatives used.
 ITU=  0
     Eigenvalues ---   -0.04444  -0.01138   0.00344   0.03646   0.09199
     Eigenvalues ---    0.09892   0.10510   0.10675   0.18670   0.19446
     Eigenvalues ---    0.20635   0.22672   0.24674   0.25051   0.28402
     Eigenvalues ---    0.29034   0.33554   0.39732   0.40184   0.41890
     Eigenvalues ---    0.42635   0.43529   0.49566   0.54285   0.59087
     Eigenvalues ---    0.65403   1.65408
 Eigenvalue     1 is  -4.44D-02 should be greater than     0.000000 Eigenvector:
                          D1        A2        D5        D3        D4
   1                    0.84341  -0.30457   0.22965   0.20892   0.20233
                          A1        A15       A11       R9        A14
   1                   -0.17055  -0.09939  -0.05699  -0.05101   0.04801
 Eigenvalue     2 is  -1.14D-02 should be greater than     0.000000 Eigenvector:
                          D5        D3        D4        D1        A2
   1                    0.56791   0.51635   0.50781  -0.32681   0.16344
                          A9        A1        R1        A11       A15
   1                   -0.06961   0.05232  -0.04503   0.04021   0.03543
 RFO step:  Lambda=-5.06425558D-02 EMin=-4.44434969D-02
 Linear search not attempted -- first point.
 Maximum step size (   0.300) exceeded in Quadratic search.
    -- Step size scaled by   0.626
 Iteration  1 RMS(Cart)=  0.12697713 RMS(Int)=  0.04694722
 Iteration  2 RMS(Cart)=  0.10873998 RMS(Int)=  0.01321424
 Iteration  3 RMS(Cart)=  0.03607731 RMS(Int)=  0.00071779
 Iteration  4 RMS(Cart)=  0.00103012 RMS(Int)=  0.00016030
 Iteration  5 RMS(Cart)=  0.00000088 RMS(Int)=  0.00016030
 ITry= 1 IFail=0 DXMaxC= 6.85D-01 DCOld= 1.00D+10 DXMaxT= 3.00D-01 DXLimC= 3.00D+00 Rises=F
 Variable       Old X    -DE/DX   Delta X   Delta X   Delta X     New X
                                 (Linear)    (Quad)   (Total)
    R1        2.56804   0.05648   0.00000   0.01778   0.01778   2.58583
    R2        2.44226   0.00908   0.00000  -0.00476  -0.00476   2.43750
    R3        2.61175   0.01777   0.00000  -0.03679  -0.03679   2.57496
    R4        2.92424  -0.00055   0.00000  -0.00292  -0.00292   2.92132
    R5        2.50310   0.00044   0.00000  -0.00142  -0.00142   2.50168
    R6        2.49654   0.00173   0.00000   0.00844   0.00844   2.50497
    R7        2.50747  -0.00468   0.00000  -0.01034  -0.01034   2.49714
    R8        2.51251   0.00009   0.00000  -0.00608  -0.00608   2.50643
    R9        2.50416   0.01591   0.00000   0.04707   0.04707   2.55123
   R10        1.84644  -0.01061   0.00000  -0.02048  -0.02048   1.82596
    A1        1.85053   0.09798   0.00000   0.12854   0.12854   1.97907
    A2        2.05128   0.09280   0.00000   0.23619   0.23619   2.28747
    A3        1.90982  -0.00026   0.00000   0.00802   0.00799   1.91780
    A4        1.93387  -0.00419   0.00000  -0.02419  -0.02419   1.90969
    A5        1.90991  -0.00006   0.00000   0.00606   0.00602   1.91593
    A6        1.90474   0.00142   0.00000   0.00265   0.00266   1.90740
    A7        1.90239   0.00085   0.00000   0.00312   0.00304   1.90543
    A8        1.90282   0.00232   0.00000   0.00469   0.00468   1.90750
    A9        1.95721  -0.01670   0.00000  -0.03081  -0.03069   1.92652
   A10        1.85487   0.00338   0.00000   0.02366   0.02366   1.87853
   A11        1.95456   0.02902   0.00000   0.03963   0.03924   1.99380
   A12        1.88578   0.00287   0.00000   0.01351   0.01372   1.89950
   A13        1.90673  -0.01403   0.00000  -0.02294  -0.02278   1.88396
   A14        1.90219  -0.00455   0.00000  -0.02256  -0.02288   1.87931
   A15        1.97388   0.01519   0.00000   0.07561   0.07561   2.04949
    D1        1.05448   0.04326   0.00000  -0.47188  -0.47188   0.58260
    D2        0.00045   0.00985   0.00000  -0.03596  -0.03596  -0.03551
    D3        1.39978  -0.00472   0.00000   0.05374   0.05355   1.45333
    D4       -2.82647  -0.00828   0.00000   0.06781   0.06742  -2.75906
    D5       -0.75111   0.00445   0.00000   0.07721   0.07779  -0.67331
    D6        3.06142  -0.00555   0.00000   0.01831   0.01818   3.07961
    D7        1.02297  -0.00193   0.00000  -0.00137  -0.00132   1.02165
    D8       -1.04419   0.00974   0.00000   0.03075   0.03089  -1.01330
    D9       -1.12069  -0.00659   0.00000   0.01152   0.01137  -1.10933
   D10        3.12403  -0.00297   0.00000  -0.00816  -0.00813   3.11590
   D11        1.05687   0.00869   0.00000   0.02396   0.02408   1.08095
   D12        0.97805  -0.00640   0.00000   0.00602   0.00585   0.98389
   D13       -1.06041  -0.00277   0.00000  -0.01367  -0.01366  -1.07407
   D14       -3.12757   0.00889   0.00000   0.01845   0.01856  -3.10902
         Item               Value     Threshold  Converged?
 Maximum Force            0.097979     0.000450     NO 
 RMS     Force            0.025953     0.000300     NO 
 Maximum Displacement     0.685057     0.001800     NO 
 RMS     Displacement     0.242646     0.001200     NO 
 Predicted change in Energy=-2.081625D-02
 Lowest energy point so far.  Saving SCF results.
 GradGradGradGradGradGradGradGradGradGradGradGradGradGradGradGradGradGrad

 Leave Link  103 at Sat May 24 05:00:57 2025, MaxMem=  3758096384 cpu:               0.1 elap:               0.0
 (Enter /apps/easybuild-2022/easybuild/software/Compiler/NVHPC/22.11-CUDA-11.7.0/Gaussian/g16c01-CUDA-11.7.0/g16/l202.exe)
                          Input orientation:                          
 ---------------------------------------------------------------------
 Center     Atomic      Atomic             Coordinates (Angstroms)
 Number     Number       Type             X           Y           Z
 ---------------------------------------------------------------------
      1          6           0        0.113305   -0.270247   -0.163401
      2          8           0        1.442956    0.010046   -0.002543
      3          6           0        2.037282    1.871723    1.373917
      4          6           0        2.115653    1.194973   -0.013763
      5          9           0        2.756762    2.982973    1.374156
      6          9           0        3.385932    0.933180   -0.291330
      7          9           0        1.668688    2.077322   -0.932638
      8          9           0        0.774809    2.167480    1.649299
      9          9           0        2.505186    1.051571    2.298356
     10          8           0       -0.484157    0.531520   -0.978244
     11          1           0        0.038672    1.248490   -1.360671
 ---------------------------------------------------------------------
                    Distance matrix (angstroms):
                    1          2          3          4          5
     1  C    0.000000
     2  O    1.368361   0.000000
     3  C    3.263904   2.390336   0.000000
     4  C    2.485691   1.362608   1.545894   0.000000
     5  F    4.464906   3.529828   1.323831   2.352506   0.000000
     6  F    3.489225   2.170422   2.339394   1.326344   2.715023
     7  F    2.919251   2.278083   2.344851   1.350054   2.706549
     8  F    3.109016   2.798130   1.325574   2.347213   2.160757
     9  F    3.678117   2.739935   1.321428   2.349084   2.155865
    10  O    1.289868   2.222092   3.699521   2.851210   4.695419
    11  H    1.935352   2.313065   3.443956   2.476060   4.227969
                    6          7          8          9         10
     6  F    0.000000
     7  F    2.160847   0.000000
     8  F    3.479584   2.733779   0.000000
     9  F    2.737920   3.491592   2.158873   0.000000
    10  O    3.951046   2.650722   3.341458   4.465728   0.000000
    11  H    3.528039   1.878065   3.232083   4.417120   0.966254
                   11
    11  H    0.000000
 Symmetry turned off by external request.
 Stoichiometry    C3HF5O2
 Rotational constants (GHZ):           2.0583085           1.1541373           1.0507271
 Leave Link  202 at Sat May 24 05:00:57 2025, MaxMem=  3758096384 cpu:               0.0 elap:               0.0
 (Enter /apps/easybuild-2022/easybuild/software/Compiler/NVHPC/22.11-CUDA-11.7.0/Gaussian/g16c01-CUDA-11.7.0/g16/l301.exe)
 Standard basis: def2TZVPP (5D, 7F)
 Ernie: Thresh=  0.10000D-02 Tol=  0.10000D-05 Strict=F.
   324 basis functions,   527 primitive gaussians,   375 cartesian basis functions
    40 alpha electrons       40 beta electrons
       nuclear repulsion energy       643.3117024689 Hartrees.
 IExCor= 4336 DFT=T Ex+Corr=M062X ExCW=0 ScaHFX=  0.540000
 ScaDFX=  1.000000  1.000000  1.000000  1.000000 ScalE2=  1.000000  1.000000
 IRadAn=      5 IRanWt=     -1 IRanGd=            0 ICorTp=0 IEmpDi=  4
 NAtoms=   11 NActive=   11 NUniq=   11 SFac= 1.00D+00 NAtFMM=   60 NAOKFM=F Big=F
 Integral buffers will be    131072 words long.
 Raffenetti 2 integral format.
 Two-electron integral symmetry is turned off.
 Leave Link  301 at Sat May 24 05:00:57 2025, MaxMem=  3758096384 cpu:               0.0 elap:               0.0
 (Enter /apps/easybuild-2022/easybuild/software/Compiler/NVHPC/22.11-CUDA-11.7.0/Gaussian/g16c01-CUDA-11.7.0/g16/l302.exe)
 NPDir=0 NMtPBC=     1 NCelOv=     1 NCel=       1 NClECP=     1 NCelD=      1
         NCelK=      1 NCelE2=     1 NClLst=     1 CellRange=     0.0.
 One-electron integrals computed using PRISM.
   1 Symmetry operations used in ECPInt.
 ECPInt:  NShTT=    6786 NPrTT=   21959 LenC2=    6494 LenP2D=   16026.
 LDataN:  DoStor=T MaxTD1= 6 Len=  172
 NBasis=   324 RedAO= T EigKep=  5.03D-04  NBF=   324
 NBsUse=   324 1.00D-06 EigRej= -1.00D+00 NBFU=   324
 Precomputing XC quadrature grid using
 IXCGrd= 4 IRadAn=           5 IRanWt=          -1 IRanGd=           0 AccXCQ= 0.00D+00.
 Generated NRdTot=       0 NPtTot=           0 NUsed=           0 NTot=          32
 NSgBfM=   373   373   373   373   373 MxSgAt=    11 MxSgA2=    11.
 Leave Link  302 at Sat May 24 05:00:57 2025, MaxMem=  3758096384 cpu:               0.6 elap:               0.1
 (Enter /apps/easybuild-2022/easybuild/software/Compiler/NVHPC/22.11-CUDA-11.7.0/Gaussian/g16c01-CUDA-11.7.0/g16/l303.exe)
 DipDrv:  MaxL=1.
 Leave Link  303 at Sat May 24 05:00:57 2025, MaxMem=  3758096384 cpu:               0.1 elap:               0.0
 (Enter /apps/easybuild-2022/easybuild/software/Compiler/NVHPC/22.11-CUDA-11.7.0/Gaussian/g16c01-CUDA-11.7.0/g16/l401.exe)
 Initial guess from the checkpoint file:  "/tmp/Gau-203302.chk"
 B after Tr=     0.091390   -0.068254   -0.085844
         Rot=    0.999562    0.018247    0.023297    0.000773 Ang=   3.39 deg.
 Guess basis will be translated and rotated to current coordinates.
 JPrj=2 DoOrth=T DoCkMO=T.
 Generating alternative initial guess.
 ExpMin= 9.52D-02 ExpMax= 3.55D+04 ExpMxC= 1.21D+03 IAcc=3 IRadAn=         5 AccDes= 0.00D+00
 Harris functional with IExCor= 1009 and IRadAn=       5 diagonalized for initial guess.
 HarFok:  IExCor= 1009 AccDes= 0.00D+00 IRadAn=         5 IDoV= 1 UseB2=F ITyADJ=14
 ICtDFT=  3500011 ScaDFX=  1.000000  1.000000  1.000000  1.000000
 FoFCou: FMM=F IPFlag=           0 FMFlag=      100000 FMFlg1=           0
         NFxFlg=           0 DoJE=T BraDBF=F KetDBF=T FulRan=T
         wScrn=  0.000000 ICntrl=       500 IOpCl=  0 I1Cent=   200000004 NGrid=           0
         NMat0=    1 NMatS0=      1 NMatT0=    0 NMatD0=    1 NMtDS0=    0 NMtDT0=    0
 Symmetry not used in FoFCou.
 Harris En= -764.097012209063    
 Leave Link  401 at Sat May 24 05:00:58 2025, MaxMem=  3758096384 cpu:               3.8 elap:               0.6
 (Enter /apps/easybuild-2022/easybuild/software/Compiler/NVHPC/22.11-CUDA-11.7.0/Gaussian/g16c01-CUDA-11.7.0/g16/l502.exe)
 Keep R1 ints in memory in canonical form, NReq=1412617130.
 FoFCou: FMM=F IPFlag=           0 FMFlag=           0 FMFlg1=           0
         NFxFlg=           0 DoJE=F BraDBF=F KetDBF=F FulRan=T
         wScrn=  0.000000 ICntrl=       600 IOpCl=  0 I1Cent=           0 NGrid=           0
         NMat0=    1 NMatS0=  52650 NMatT0=    0 NMatD0=    1 NMtDS0=    0 NMtDT0=    0
 Symmetry not used in FoFCou.
 Two-electron integral symmetry not used.
 Closed shell SCF:
 Using DIIS extrapolation, IDIIS=  1040.
 NGot=  3758096384 LenX=  2371771924 LenY=  2371630858
 Requested convergence on RMS density matrix=1.00D-08 within  32 cycles.
 Requested convergence on MAX density matrix=1.00D-06.
 Requested convergence on             energy=1.00D-06.
 No special actions if energy rises.
 Integral accuracy reduced to 1.0D-05 until final iterations.

 Cycle   1  Pass 0  IDiag  1:
 E= -764.414801467407    
 DIIS: error= 1.30D-02 at cycle   1 NSaved=   1.
 NSaved= 1 IEnMin= 1 EnMin= -764.414801467407     IErMin= 1 ErrMin= 1.30D-02
 ErrMax= 1.30D-02  0.00D+00 EMaxC= 1.00D-01 BMatC= 1.08D-01 BMatP= 1.08D-01
 IDIUse=3 WtCom= 8.70D-01 WtEn= 1.30D-01
 Coeff-Com:  0.100D+01
 Coeff-En:   0.100D+01
 Coeff:      0.100D+01
 Recover alternate guess density for next cycle.
 RMSDP=1.96D-03 MaxDP=5.99D-02              OVMax= 0.00D+00

 Cycle   2  Pass 0  IDiag  1:
 E= -764.438704334099     Delta-E=       -0.023902866692 Rises=F Damp=F
 DIIS: error= 1.69D-02 at cycle   2 NSaved=   2.
 NSaved= 2 IEnMin= 2 EnMin= -764.438704334099     IErMin= 1 ErrMin= 1.30D-02
 ErrMax= 1.69D-02  0.00D+00 EMaxC= 1.00D-01 BMatC= 3.05D-01 BMatP= 1.08D-01
 IDIUse=2 WtCom= 0.00D+00 WtEn= 1.00D+00
 Coeff-En:   0.000D+00 0.100D+01
 Coeff:      0.000D+00 0.100D+01
 Gap=     0.320 Goal=   None    Shift=    0.000
 RMSDP=1.89D-03 MaxDP=5.42D-02 DE=-2.39D-02 OVMax= 1.01D-01

 Cycle   3  Pass 0  IDiag  1:
 E= -764.424702128353     Delta-E=        0.014002205746 Rises=F Damp=F
 DIIS: error= 1.66D-02 at cycle   3 NSaved=   3.
 NSaved= 3 IEnMin= 2 EnMin= -764.438704334099     IErMin= 1 ErrMin= 1.30D-02
 ErrMax= 1.66D-02  0.00D+00 EMaxC= 1.00D-01 BMatC= 2.63D-01 BMatP= 1.08D-01
 IDIUse=2 WtCom= 0.00D+00 WtEn= 1.00D+00
 Coeff-En:   0.000D+00 0.525D+00 0.475D+00
 Coeff:      0.000D+00 0.525D+00 0.475D+00
 Gap=     0.325 Goal=   None    Shift=    0.000
 RMSDP=7.90D-04 MaxDP=3.67D-02 DE= 1.40D-02 OVMax= 5.42D-02

 Cycle   4  Pass 0  IDiag  1:
 E= -764.579317582270     Delta-E=       -0.154615453917 Rises=F Damp=F
 DIIS: error= 1.39D-03 at cycle   4 NSaved=   4.
 NSaved= 4 IEnMin= 4 EnMin= -764.579317582270     IErMin= 4 ErrMin= 1.39D-03
 ErrMax= 1.39D-03  0.00D+00 EMaxC= 1.00D-01 BMatC= 1.62D-03 BMatP= 1.08D-01
 IDIUse=3 WtCom= 9.86D-01 WtEn= 1.39D-02
 Coeff-Com:  0.784D-02 0.150D-01 0.637D-01 0.913D+00
 Coeff-En:   0.000D+00 0.000D+00 0.000D+00 0.100D+01
 Coeff:      0.773D-02 0.148D-01 0.628D-01 0.915D+00
 Gap=     0.324 Goal=   None    Shift=    0.000
 RMSDP=1.37D-04 MaxDP=6.96D-03 DE=-1.55D-01 OVMax= 1.16D-02

 Cycle   5  Pass 0  IDiag  1:
 E= -764.580086181285     Delta-E=       -0.000768599016 Rises=F Damp=F
 DIIS: error= 8.13D-04 at cycle   5 NSaved=   5.
 NSaved= 5 IEnMin= 5 EnMin= -764.580086181285     IErMin= 5 ErrMin= 8.13D-04
 ErrMax= 8.13D-04  0.00D+00 EMaxC= 1.00D-01 BMatC= 5.78D-04 BMatP= 1.62D-03
 IDIUse=3 WtCom= 9.92D-01 WtEn= 8.13D-03
 Coeff-Com:  0.158D-02-0.391D-02 0.167D-01 0.429D+00 0.556D+00
 Coeff-En:   0.000D+00 0.000D+00 0.000D+00 0.177D+00 0.823D+00
 Coeff:      0.157D-02-0.387D-02 0.166D-01 0.427D+00 0.558D+00
 Gap=     0.323 Goal=   None    Shift=    0.000
 RMSDP=5.09D-05 MaxDP=2.53D-03 DE=-7.69D-04 OVMax= 4.69D-03

 Cycle   6  Pass 0  IDiag  1:
 E= -764.580459311196     Delta-E=       -0.000373129911 Rises=F Damp=F
 DIIS: error= 1.99D-04 at cycle   6 NSaved=   6.
 NSaved= 6 IEnMin= 6 EnMin= -764.580459311196     IErMin= 6 ErrMin= 1.99D-04
 ErrMax= 1.99D-04  0.00D+00 EMaxC= 1.00D-01 BMatC= 4.57D-05 BMatP= 5.78D-04
 IDIUse=3 WtCom= 9.98D-01 WtEn= 1.99D-03
 Coeff-Com: -0.939D-03-0.310D-02 0.293D-02 0.133D+00 0.265D+00 0.603D+00
 Coeff-En:   0.000D+00 0.000D+00 0.000D+00 0.000D+00 0.000D+00 0.100D+01
 Coeff:     -0.937D-03-0.310D-02 0.292D-02 0.133D+00 0.265D+00 0.603D+00
 Gap=     0.323 Goal=   None    Shift=    0.000
 RMSDP=1.24D-05 MaxDP=6.54D-04 DE=-3.73D-04 OVMax= 1.59D-03

 Cycle   7  Pass 0  IDiag  1:
 E= -764.580489164365     Delta-E=       -0.000029853169 Rises=F Damp=F
 DIIS: error= 4.31D-05 at cycle   7 NSaved=   7.
 NSaved= 7 IEnMin= 7 EnMin= -764.580489164365     IErMin= 7 ErrMin= 4.31D-05
 ErrMax= 4.31D-05  0.00D+00 EMaxC= 1.00D-01 BMatC= 2.02D-06 BMatP= 4.57D-05
 IDIUse=1 WtCom= 1.00D+00 WtEn= 0.00D+00
 Coeff-Com: -0.862D-04-0.757D-03-0.153D-03 0.634D-02 0.312D-01 0.181D+00
 Coeff-Com:  0.782D+00
 Coeff:     -0.862D-04-0.757D-03-0.153D-03 0.634D-02 0.312D-01 0.181D+00
 Coeff:      0.782D+00
 Gap=     0.323 Goal=   None    Shift=    0.000
 RMSDP=4.06D-06 MaxDP=2.11D-04 DE=-2.99D-05 OVMax= 3.88D-04

 Initial convergence to 1.0D-05 achieved.  Increase integral accuracy.
 Cycle   8  Pass 1  IDiag  1:
 E= -764.580494112208     Delta-E=       -0.000004947843 Rises=F Damp=F
 DIIS: error= 1.72D-05 at cycle   1 NSaved=   1.
 NSaved= 1 IEnMin= 1 EnMin= -764.580494112208     IErMin= 1 ErrMin= 1.72D-05
 ErrMax= 1.72D-05  0.00D+00 EMaxC= 1.00D-01 BMatC= 6.43D-07 BMatP= 6.43D-07
 IDIUse=1 WtCom= 1.00D+00 WtEn= 0.00D+00
 Coeff-Com:  0.100D+01
 Coeff:      0.100D+01
 Gap=     0.323 Goal=   None    Shift=    0.000
 RMSDP=4.06D-06 MaxDP=2.11D-04 DE=-4.95D-06 OVMax= 2.35D-04

 Cycle   9  Pass 1  IDiag  1:
 E= -764.580494482690     Delta-E=       -0.000000370482 Rises=F Damp=F
 DIIS: error= 1.63D-05 at cycle   2 NSaved=   2.
 NSaved= 2 IEnMin= 2 EnMin= -764.580494482690     IErMin= 2 ErrMin= 1.63D-05
 ErrMax= 1.63D-05  0.00D+00 EMaxC= 1.00D-01 BMatC= 2.53D-07 BMatP= 6.43D-07
 IDIUse=1 WtCom= 1.00D+00 WtEn= 0.00D+00
 Coeff-Com:  0.345D+00 0.655D+00
 Coeff:      0.345D+00 0.655D+00
 Gap=     0.323 Goal=   None    Shift=    0.000
 RMSDP=1.34D-06 MaxDP=4.15D-05 DE=-3.70D-07 OVMax= 8.71D-05

 Cycle  10  Pass 1  IDiag  1:
 E= -764.580494619508     Delta-E=       -0.000000136818 Rises=F Damp=F
 DIIS: error= 6.01D-06 at cycle   3 NSaved=   3.
 NSaved= 3 IEnMin= 3 EnMin= -764.580494619508     IErMin= 3 ErrMin= 6.01D-06
 ErrMax= 6.01D-06  0.00D+00 EMaxC= 1.00D-01 BMatC= 4.66D-08 BMatP= 2.53D-07
 IDIUse=1 WtCom= 1.00D+00 WtEn= 0.00D+00
 Coeff-Com: -0.193D-01 0.286D+00 0.734D+00
 Coeff:     -0.193D-01 0.286D+00 0.734D+00
 Gap=     0.323 Goal=   None    Shift=    0.000
 RMSDP=5.28D-07 MaxDP=1.75D-05 DE=-1.37D-07 OVMax= 5.38D-05

 Cycle  11  Pass 1  IDiag  1:
 E= -764.580494647818     Delta-E=       -0.000000028310 Rises=F Damp=F
 DIIS: error= 2.31D-06 at cycle   4 NSaved=   4.
 NSaved= 4 IEnMin= 4 EnMin= -764.580494647818     IErMin= 4 ErrMin= 2.31D-06
 ErrMax= 2.31D-06  0.00D+00 EMaxC= 1.00D-01 BMatC= 3.69D-09 BMatP= 4.66D-08
 IDIUse=1 WtCom= 1.00D+00 WtEn= 0.00D+00
 Coeff-Com: -0.235D-01 0.109D+00 0.353D+00 0.561D+00
 Coeff:     -0.235D-01 0.109D+00 0.353D+00 0.561D+00
 Gap=     0.323 Goal=   None    Shift=    0.000
 RMSDP=1.33D-07 MaxDP=5.99D-06 DE=-2.83D-08 OVMax= 1.14D-05

 Cycle  12  Pass 1  IDiag  1:
 E= -764.580494650431     Delta-E=       -0.000000002613 Rises=F Damp=F
 DIIS: error= 4.88D-07 at cycle   5 NSaved=   5.
 NSaved= 5 IEnMin= 5 EnMin= -764.580494650431     IErMin= 5 ErrMin= 4.88D-07
 ErrMax= 4.88D-07  0.00D+00 EMaxC= 1.00D-01 BMatC= 1.69D-10 BMatP= 3.69D-09
 IDIUse=1 WtCom= 1.00D+00 WtEn= 0.00D+00
 Coeff-Com: -0.236D-02-0.138D-01-0.177D-01 0.135D+00 0.899D+00
 Coeff:     -0.236D-02-0.138D-01-0.177D-01 0.135D+00 0.899D+00
 Gap=     0.323 Goal=   None    Shift=    0.000
 RMSDP=5.58D-08 MaxDP=2.26D-06 DE=-2.61D-09 OVMax= 7.24D-06

 Cycle  13  Pass 1  IDiag  1:
 E= -764.580494650591     Delta-E=       -0.000000000160 Rises=F Damp=F
 DIIS: error= 2.45D-07 at cycle   6 NSaved=   6.
 NSaved= 6 IEnMin= 6 EnMin= -764.580494650591     IErMin= 6 ErrMin= 2.45D-07
 ErrMax= 2.45D-07  0.00D+00 EMaxC= 1.00D-01 BMatC= 4.89D-11 BMatP= 1.69D-10
 IDIUse=1 WtCom= 1.00D+00 WtEn= 0.00D+00
 Coeff-Com:  0.156D-02-0.201D-01-0.503D-01-0.789D-03 0.446D+00 0.623D+00
 Coeff:      0.156D-02-0.201D-01-0.503D-01-0.789D-03 0.446D+00 0.623D+00
 Gap=     0.323 Goal=   None    Shift=    0.000
 RMSDP=1.82D-08 MaxDP=7.63D-07 DE=-1.60D-10 OVMax= 1.64D-06

 Cycle  14  Pass 1  IDiag  1:
 E= -764.580494650657     Delta-E=       -0.000000000065 Rises=F Damp=F
 DIIS: error= 4.03D-08 at cycle   7 NSaved=   7.
 NSaved= 7 IEnMin= 7 EnMin= -764.580494650657     IErMin= 7 ErrMin= 4.03D-08
 ErrMax= 4.03D-08  0.00D+00 EMaxC= 1.00D-01 BMatC= 1.57D-12 BMatP= 4.89D-11
 IDIUse=1 WtCom= 1.00D+00 WtEn= 0.00D+00
 Coeff-Com:  0.686D-03-0.501D-02-0.133D-01-0.130D-01 0.578D-01 0.176D+00
 Coeff-Com:  0.797D+00
 Coeff:      0.686D-03-0.501D-02-0.133D-01-0.130D-01 0.578D-01 0.176D+00
 Coeff:      0.797D+00
 Gap=     0.323 Goal=   None    Shift=    0.000
 RMSDP=4.46D-09 MaxDP=2.06D-07 DE=-6.55D-11 OVMax= 6.16D-07

 SCF Done:  E(RM062X) =  -764.580494651     A.U. after   14 cycles
            NFock= 14  Conv=0.45D-08     -V/T= 2.0036
 KE= 7.618683134902D+02 PE=-3.097722982739D+03 EE= 9.279624721292D+02
 Leave Link  502 at Sat May 24 05:01:24 2025, MaxMem=  3758096384 cpu:             111.1 elap:              25.9
 (Enter /apps/easybuild-2022/easybuild/software/Compiler/NVHPC/22.11-CUDA-11.7.0/Gaussian/g16c01-CUDA-11.7.0/g16/l508.exe)
 QCSCF skips out because SCF is already converged.
 Leave Link  508 at Sat May 24 05:01:24 2025, MaxMem=  3758096384 cpu:               0.0 elap:               0.0
 (Enter /apps/easybuild-2022/easybuild/software/Compiler/NVHPC/22.11-CUDA-11.7.0/Gaussian/g16c01-CUDA-11.7.0/g16/l701.exe)
 ... and contract with generalized density number  0.
 Compute integral first derivatives.
   1 Symmetry operations used in ECPInt.
 ECPInt:  NShTT=    6786 NPrTT=   21959 LenC2=    6494 LenP2D=   16026.
 LDataN:  DoStor=T MaxTD1= 7 Len=  274
 Leave Link  701 at Sat May 24 05:01:24 2025, MaxMem=  3758096384 cpu:               0.5 elap:               0.1
 (Enter /apps/easybuild-2022/easybuild/software/Compiler/NVHPC/22.11-CUDA-11.7.0/Gaussian/g16c01-CUDA-11.7.0/g16/l702.exe)
 L702 exits ... SP integral derivatives will be done elsewhere.
 Leave Link  702 at Sat May 24 05:01:24 2025, MaxMem=  3758096384 cpu:               0.0 elap:               0.0
 (Enter /apps/easybuild-2022/easybuild/software/Compiler/NVHPC/22.11-CUDA-11.7.0/Gaussian/g16c01-CUDA-11.7.0/g16/l703.exe)
 Integral derivatives from FoFJK, PRISM(SPDF).
 Compute integral first derivatives, UseDBF=F ICtDFT=           0.
 Calling FoFJK, ICntrl=      2127 FMM=F ISym2X=0 I1Cent= 0 IOpClX= 0 NMat=1 NMatS=1 NMatT=0.
[...]
                                 (Linear)    (Quad)   (Total)
    R1        2.58991  -0.00002   0.00000  -0.00007  -0.00007   2.58985
    R2        2.44498  -0.00000   0.00000  -0.00000  -0.00000   2.44497
    R3        2.59619  -0.00001   0.00000   0.00000   0.00000   2.59620
    R4        2.92175  -0.00000   0.00000  -0.00001  -0.00001   2.92175
    R5        2.49859   0.00000   0.00000   0.00001   0.00001   2.49860
    R6        2.51948  -0.00001   0.00000  -0.00005  -0.00005   2.51943
    R7        2.49139  -0.00000   0.00000   0.00001   0.00001   2.49140
    R8        2.50006  -0.00000   0.00000  -0.00000  -0.00000   2.50006
    R9        2.55412   0.00001   0.00000   0.00005   0.00005   2.55418
   R10        1.83639  -0.00000   0.00000  -0.00001  -0.00001   1.83638
    A1        1.99930   0.00001   0.00000   0.00005   0.00005   1.99935
    A2        2.28772  -0.00003   0.00000  -0.00013  -0.00013   2.28760
    A3        1.92121  -0.00000   0.00000  -0.00003  -0.00003   1.92119
    A4        1.90433   0.00000   0.00000   0.00003   0.00003   1.90436
    A5        1.92512  -0.00000   0.00000  -0.00003  -0.00003   1.92509
    A6        1.89770   0.00000   0.00000   0.00001   0.00001   1.89771
    A7        1.91099   0.00000   0.00000  -0.00001  -0.00001   1.91098
    A8        1.90417   0.00000   0.00000   0.00002   0.00002   1.90419
    A9        1.95976   0.00001   0.00000   0.00007   0.00007   1.95983
   A10        1.87950  -0.00001   0.00000  -0.00003  -0.00003   1.87947
   A11        1.96257  -0.00001   0.00000  -0.00002  -0.00002   1.96256
   A12        1.89532  -0.00000   0.00000  -0.00001  -0.00001   1.89530
   A13        1.88127   0.00000   0.00000   0.00001   0.00001   1.88128
   A14        1.88309  -0.00000   0.00000  -0.00003  -0.00003   1.88306
   A15        2.06805   0.00001   0.00000   0.00007   0.00007   2.06812
    D1        0.03423   0.00001   0.00000   0.00020   0.00020   0.03443
    D2        0.01960   0.00001   0.00000   0.00028   0.00028   0.01989
    D3        1.44282   0.00000   0.00000  -0.00010  -0.00010   1.44271
    D4       -2.75474   0.00001   0.00000  -0.00010  -0.00010  -2.75483
    D5       -0.68253  -0.00000   0.00000  -0.00016  -0.00016  -0.68268
    D6        3.09613  -0.00000   0.00000  -0.00013  -0.00013   3.09599
    D7        1.01976  -0.00000   0.00000  -0.00013  -0.00013   1.01962
    D8       -1.01598  -0.00000   0.00000  -0.00010  -0.00010  -1.01608
    D9       -1.10593  -0.00000   0.00000  -0.00011  -0.00011  -1.10604
   D10        3.10088  -0.00000   0.00000  -0.00011  -0.00011   3.10077
   D11        1.06514  -0.00000   0.00000  -0.00008  -0.00008   1.06506
   D12        0.98549   0.00000   0.00000  -0.00009  -0.00009   0.98540
   D13       -1.09088   0.00000   0.00000  -0.00009  -0.00009  -1.09097
   D14       -3.12662   0.00000   0.00000  -0.00005  -0.00005  -3.12667
         Item               Value     Threshold  Converged?
 Maximum Force            0.000032     0.000450     YES
 RMS     Force            0.000008     0.000300     YES
 Maximum Displacement     0.000536     0.001800     YES
 RMS     Displacement     0.000120     0.001200     YES
 Predicted change in Energy=-7.024982D-09
 Optimization completed.
    -- Stationary point found.
                           ----------------------------
                           !   Optimized Parameters   !
                           ! (Angstroms and Degrees)  !
 --------------------------                            --------------------------
 ! Name  Definition              Value          Derivative Info.                !
 --------------------------------------------------------------------------------
 ! R1    R(1,2)                  1.3705         -DE/DX =    0.0                 !
 ! R2    R(1,10)                 1.2938         -DE/DX =    0.0                 !
 ! R3    R(2,4)                  1.3738         -DE/DX =    0.0                 !
 ! R4    R(3,4)                  1.5461         -DE/DX =    0.0                 !
 ! R5    R(3,5)                  1.3222         -DE/DX =    0.0                 !
 ! R6    R(3,8)                  1.3333         -DE/DX =    0.0                 !
 ! R7    R(3,9)                  1.3184         -DE/DX =    0.0                 !
 ! R8    R(4,6)                  1.323          -DE/DX =    0.0                 !
 ! R9    R(4,7)                  1.3516         -DE/DX =    0.0                 !
 ! R10   R(10,11)                0.9718         -DE/DX =    0.0                 !
 ! A1    A(2,1,10)             114.5515         -DE/DX =    0.0                 !
 ! A2    A(1,2,4)              131.0769         -DE/DX =    0.0                 !
 ! A3    A(4,3,5)              110.0774         -DE/DX =    0.0                 !
 ! A4    A(4,3,8)              109.1099         -DE/DX =    0.0                 !
 ! A5    A(4,3,9)              110.3011         -DE/DX =    0.0                 !
 ! A6    A(5,3,8)              108.73           -DE/DX =    0.0                 !
 ! A7    A(5,3,9)              109.4916         -DE/DX =    0.0                 !
 ! A8    A(8,3,9)              109.1008         -DE/DX =    0.0                 !
 ! A9    A(2,4,3)              112.286          -DE/DX =    0.0                 !
 ! A10   A(2,4,6)              107.6873         -DE/DX =    0.0                 !
 ! A11   A(2,4,7)              112.4471         -DE/DX =    0.0                 !
 ! A12   A(3,4,6)              108.5938         -DE/DX =    0.0                 !
 ! A13   A(3,4,7)              107.7887         -DE/DX =    0.0                 !
 ! A14   A(6,4,7)              107.8929         -DE/DX =    0.0                 !
 ! A15   A(1,10,11)            118.4904         -DE/DX =    0.0                 !
 ! D1    D(10,1,2,4)             1.9613         -DE/DX =    0.0                 !
 ! D2    D(2,1,10,11)            1.1231         -DE/DX =    0.0                 !
 ! D3    D(1,2,4,3)             82.6672         -DE/DX =    0.0                 !
 ! D4    D(1,2,4,6)           -157.8348         -DE/DX =    0.0                 !
 ! D5    D(1,2,4,7)            -39.1059         -DE/DX =    0.0                 !
 ! D6    D(5,3,4,2)            177.3951         -DE/DX =    0.0                 !
 ! D7    D(5,3,4,6)             58.4278         -DE/DX =    0.0                 !
 ! D8    D(5,3,4,7)            -58.2116         -DE/DX =    0.0                 !
 ! D9    D(8,3,4,2)            -63.3654         -DE/DX =    0.0                 !
 ! D10   D(8,3,4,6)            177.6673         -DE/DX =    0.0                 !
 ! D11   D(8,3,4,7)             61.028          -DE/DX =    0.0                 !
 ! D12   D(9,3,4,2)             56.4645         -DE/DX =    0.0                 !
 ! D13   D(9,3,4,6)            -62.5028         -DE/DX =    0.0                 !
 ! D14   D(9,3,4,7)           -179.1422         -DE/DX =    0.0                 !
 --------------------------------------------------------------------------------
 GradGradGradGradGradGradGradGradGradGradGradGradGradGradGradGradGradGrad

 Leave Link  103 at Sat May 24 05:12:34 2025, MaxMem=  3758096384 cpu:               0.0 elap:               0.0
 (Enter /apps/easybuild-2022/easybuild/software/Compiler/NVHPC/22.11-CUDA-11.7.0/Gaussian/g16c01-CUDA-11.7.0/g16/l9999.exe)

 ----------------------------------------------------------------------

 Electric dipole moment (input orientation):
 (Debye = 10**-18 statcoulomb cm , SI units = C m)
                  (au)            (Debye)         (10**-30 SI)
   Tot        0.979482D+00      0.248959D+01      0.830439D+01
   x          0.167264D+00      0.425143D+00      0.141812D+01
   y          0.962903D+00      0.244746D+01      0.816383D+01
   z         -0.649979D-01     -0.165208D+00     -0.551075D+00

 Dipole polarizability, Alpha (input orientation).
 (esu units = cm**3 , SI units = C**2 m**2 J**-1)
 Alpha(0;0):
               (au)            (10**-24 esu)      (10**-40 SI)
   iso        0.464599D+02      0.688465D+01      0.766020D+01
   aniso      0.124835D+02      0.184986D+01      0.205825D+01
   xx         0.510287D+02      0.756168D+01      0.841350D+01
   yx         0.346675D+01      0.513720D+00      0.571591D+00
   yy         0.471247D+02      0.698316D+01      0.776981D+01
   zx         0.388855D+01      0.576224D+00      0.641136D+00
   zy         0.672967D+00      0.997235D-01      0.110957D+00
   zz         0.412263D+02      0.610910D+01      0.679729D+01

 ----------------------------------------------------------------------

 Dipole orientation:
     6          0.70181201          0.69952296         -0.58681983
     8          2.87923079         -0.32786995          0.36762574
     6          2.55249399         -3.17240731          3.94979989
     6          3.65268615         -0.71483447          2.81553369
     9          3.43085249         -3.51760397          6.26330264
     9          6.14670907         -0.88816010          2.80569484
     9          3.00624560          1.21467129          4.35912065
     9          0.04271601         -2.97967368          4.05768049
     9          3.15974171         -5.12733017          2.52974808
     8         -0.87045819          1.50053228          1.10559231
     1         -0.40252337          1.35373818          2.87528229

 Electric dipole moment (dipole orientation):
 (Debye = 10**-18 statcoulomb cm , SI units = C m)
                  (au)            (Debye)         (10**-30 SI)
   Tot        0.979482D+00      0.248959D+01      0.830439D+01
   x          0.000000D+00      0.000000D+00      0.000000D+00
   y          0.000000D+00      0.000000D+00      0.000000D+00
   z          0.979482D+00      0.248959D+01      0.830439D+01

 Dipole polarizability, Alpha (dipole orientation).
 (esu units = cm**3 , SI units = C**2 m**2 J**-1)
 Alpha(0;0):
               (au)            (10**-24 esu)      (10**-40 SI)
   iso        0.464599D+02      0.688465D+01      0.766020D+01
   aniso      0.124835D+02      0.184986D+01      0.205825D+01
   xx         0.481636D+02      0.713711D+01      0.794110D+01
   yx        -0.513709D+01     -0.761239D+00     -0.846992D+00
   yy         0.430155D+02      0.637423D+01      0.709229D+01
   zx         0.330587D+01      0.489879D+00      0.545064D+00
   zy        -0.239348D+01     -0.354677D+00     -0.394632D+00
   zz         0.482006D+02      0.714259D+01      0.794721D+01

 ----------------------------------------------------------------------
 Unable to Open any file for archive entry.
 1\1\GINC-SPARTAN-BM154\Freq\RM062X\def2TZVPP\C3H1F5O2\AKHALILOV\24-May
 -2025\0\\#P Geom=AllCheck Guess=TCheck SCRF=Check GenChk RM062X/def2TZ
 VPP Freq\\Gaussian input prepared by ASE\\0,1\C,0.2401936802,-0.385056
 217,-0.4067197116\O,1.5404521203,-0.0766215606,-0.1025309894\C,1.96732
 07041,1.8708605266,1.2809900713\C,2.1949920753,1.1304276014,-0.0570792
 219\F,2.6595191168,2.9972313421,1.2999533749\F,3.489152654,0.891221664
 2,-0.1919423952\F,1.8194890288,1.9590781361,-1.0566354275\F,0.67209631
 63,2.1622081497,1.4037377088\F,2.3363135109,1.110677183,2.2929724388\O
 ,-0.4891081198,0.6300858212,-0.7407711514\H,-0.0753335707,1.5089186474
 ,-0.7688358441\\Version=ES64L-G16RevC.01\HF=-764.5834554\RMSD=1.139e-0
 9\RMSF=9.417e-06\ZeroPoint=0.0508369\Thermal=0.0597228\ETot=-764.52373
 26\HTot=-764.5227884\GTot=-764.5672155\Dipole=0.1672641,0.9629031,-0.0
 649979\DipoleDeriv=1.6300303,0.0617343,0.5512941,-0.2010761,0.7356821,
 -0.180733,0.529562,-0.1011575,0.0137043,-1.5426114,-0.3188781,-0.34682
 98,-0.7839803,-0.7339905,-0.176756,-0.3023866,-0.1135191,-0.3921275,1.
 5255856,0.0740216,0.0855667,0.1022342,1.547293,-0.1032832,0.2241238,-0
 .0410671,1.4097833,1.6455257,0.0707308,0.0831271,0.270636,1.3153174,-0
 .0438619,-0.0600139,-0.1552811,1.2481514,-0.4463645,-0.2724611,-0.0078
 89,-0.3695222,-0.7900544,-0.0598251,-0.086175,-0.1152366,-0.3355581,-0
 .9679422,0.0481184,0.0006648,0.0772692,-0.2846271,-0.0534473,0.1284886
 ,-0.0469996,-0.3080739,-0.3907437,0.0094962,-0.093835,-0.024966,-0.553
 5233,0.1879852,-0.0751117,0.3050379,-0.645789,-0.8153454,0.09051,0.017
 2219,0.141236,-0.3339265,-0.0587663,0.0764837,-0.0886071,-0.3624933,-0
 .3081436,0.0836555,-0.1170752,0.0848515,-0.4482351,0.1957588,-0.185554
 9,0.2474336,-0.7153241,-0.6844861,0.1736012,-0.1745549,0.7084953,-0.68
 07196,0.2773025,-0.2480519,0.1035701,-0.3099864,0.3544953,-0.0205289,0
 .0023092,-0.0051775,0.2267841,0.0156264,-0.0013641,0.0058266,0.3977132
 \Polar=51.0287203,3.4667547,47.1246953,3.8885545,0.6729673,41.2262516\
 PG=Unknown\NImag=0\\0.35608976,-0.05597777,0.50430593,0.09502818,-0.07
 917105,0.07317886,-0.17324693,-0.02753260,-0.03932134,0.41807808,-0.03
 035274,-0.10648936,0.00016590,0.07993340,0.32938841,-0.03266268,0.0056
 5229,-0.03707367,0.08466019,-0.00939155,0.10567872,0.01564977,-0.00895
 999,0.00365326,-0.01327940,-0.02488809,-0.01779982,0.58503737,-0.00810
 831,-0.00058266,-0.00224662,-0.00424786,-0.02285408,-0.01691295,0.0019
 3361,0.61722179,-0.01165564,0.00156695,-0.00447819,0.01076445,0.008089
 17,0.00932182,0.00243596,0.00818824,0.64273799,-0.03729466,-0.03445988
 ,-0.00685455,-0.10461755,-0.02950015,-0.01176676,-0.04265782,0.0116162
 4,0.02398843,0.60874171,-0.08524260,-0.01100383,-0.01616285,-0.0071696
 8,-0.17227400,-0.01807497,0.01076374,-0.08143932,-0.07215472,-0.020281
 95,0.52420300,0.01353444,-0.01316745,0.01392551,-0.02801319,-0.0295502
 4,-0.09112544,0.02126321,-0.07947611,-0.17333394,-0.01771649,0.0334430
 9,0.57893000,0.00002453,0.00072662,0.00042465,0.00083005,-0.00059423,-
 0.00197595,-0.13374664,-0.10667684,-0.01504900,-0.00641212,-0.01048104
 ,0.00365107,0.18591267,0.00704868,-0.00135261,0.00306111,-0.00487900,-
 0.00755066,-0.00977073,-0.10148015,-0.26701983,-0.03440377,-0.02772600
 ,-0.03369844,0.00839871,0.16972143,0.35429025,0.00487191,-0.00111472,0
 .00197974,-0.00458630,-0.00739605,-0.00650149,-0.01061432,-0.02602802,
 -0.08889188,-0.01680320,-0.02314118,0.00556496,0.00558172,0.00150628,0
 .07531979,0.01394479,-0.00319405,0.00529959,-0.07529075,-0.03229580,-0
 .00286820,-0.04000088,0.00424964,-0.00398908,-0.30665184,0.05918378,0.
 05672164,0.00606878,0.00277607,0.00112977,0.44283044,0.00845878,-0.002
 04879,0.00317243,-0.05704818,-0.00235850,0.00261822,0.02208050,-0.0006
 1536,0.00075703,0.05370661,-0.08410945,-0.01644017,0.00113545,0.001984
 03,-0.00012822,-0.06935653,0.09628052,-0.00120511,-0.00137494,-0.00036
 853,-0.00130334,0.00472857,0.01305704,0.03314003,-0.00344978,0.0043723
 5,0.04455370,-0.01664611,-0.09228344,-0.00143567,-0.00123400,-0.000488
 85,-0.03953887,0.00509574,0.07760488,-0.00992861,0.00436908,-0.0037538
 4,0.02285046,-0.00376087,0.01229749,-0.00127096,0.00439570,-0.00227602
 ,-0.08006904,0.01196363,-0.03024116,0.00138825,0.00142304,0.00015165,-
 0.04154571,0.04272846,-0.04232739,0.11209593,0.01712547,-0.00272660,0.
 00177069,-0.00808206,-0.05479347,0.04122942,0.00223382,-0.00506347,0.0
 0370864,0.01963121,-0.12837303,0.08418437,0.00069041,0.00503270,-0.001
 63775,0.03272985,-0.01056090,0.01912009,-0.04647698,0.18707764,-0.0125
 7976,0.00433247,-0.00340617,0.01038389,0.02887420,0.00156052,-0.017741
 06,0.04234176,-0.03079679,-0.03013517,0.07323039,-0.21034517,-0.000004
 90,-0.00456937,0.00115449,-0.02750155,0.01339029,0.00467699,0.06317037
 ,-0.14585177,0.25063090,-0.01030265,0.00447512,-0.00189143,0.01189102,
 0.00540689,0.00299251,-0.27273865,0.06152130,0.05018187,-0.03704226,0.
 00198507,-0.00659640,-0.06861933,-0.03014137,0.00593737,-0.00286107,0.
 00451636,0.00746194,0.00459921,-0.00119071,0.00338678,0.41461502,0.002
 44994,-0.00031125,0.00070239,-0.00168425,0.00129231,-0.00010833,0.0565
 5158,-0.09483877,-0.01880720,0.02396197,-0.00008711,0.00243266,-0.0470
 8256,0.00731158,0.00608161,0.00436514,-0.00259387,-0.00561532,-0.00248
 677,0.00211745,-0.00313802,-0.07447277,0.09784256,0.00050072,0.0003874
 8,-0.00034561,-0.00289451,-0.00065549,0.00031417,0.04357041,-0.0181457
 6,-0.09471119,0.03120399,-0.00377143,0.00453293,-0.00012174,0.00296200
 ,0.01381493,0.00714166,-0.00467501,-0.00725165,0.00036119,-0.00135826,
 0.00075979,-0.03435277,0.00633002,0.08155629,-0.00180229,0.00089027,-0
 .00027748,0.00212808,0.00181361,0.00044544,-0.09201302,0.03281054,-0.0
 5457924,0.00064998,0.00353337,-0.00262165,0.01456507,-0.01483464,0.015
 17564,0.00470388,-0.00214984,-0.00021140,0.00091417,-0.00054698,-0.000
 01763,-0.04173859,0.04024732,-0.04425880,0.11193527,0.00299076,-0.0006
 2466,0.00025351,-0.00166270,0.00207237,-0.00168826,0.03274172,-0.14287
 487,0.10678624,0.00226214,-0.00035689,0.00158773,-0.00681585,-0.061133
 76,0.05014253,-0.00158675,0.00148314,-0.00073798,-0.00038126,0.0019064
 4,-0.00207276,0.03444854,-0.00973814,0.02165798,-0.06075697,0.20813230
 ,0.00159087,0.00099467,0.00065149,-0.00065464,-0.00461867,-0.00027662,
 -0.05034966,0.09522828,-0.26597663,-0.01935447,0.03850856,-0.02853370,
 0.00839693,0.03519128,-0.00073311,0.00371973,-0.00323926,0.00067681,-0
 .00091165,-0.00174436,-0.01518115,-0.02872978,0.01513321,0.00447055,0.
 08550801,-0.17545752,0.30499486,-0.17526225,0.09960737,-0.05070801,-0.
 08669797,0.03535072,-0.03576811,-0.00556328,0.00379414,0.00379598,0.01
 407023,0.02592520,-0.00023062,0.00021810,-0.00199045,-0.00136872,-0.00
 303628,-0.00259676,0.00020091,-0.00670487,-0.00906367,0.00427996,0.003
 60516,-0.00184500,-0.00147846,0.00073470,-0.00117131,-0.00065242,0.397
 86176,0.14233451,-0.33048490,0.07911018,0.04154151,0.02887533,0.010587
 65,0.01033011,-0.00378687,-0.00376110,-0.00485095,-0.02162547,0.010516
 49,-0.00057450,0.00296951,0.00190795,0.00307375,0.00371687,-0.00004500
 ,-0.00643144,0.01046557,-0.00974194,-0.00663283,0.00067900,-0.00143144
 ,-0.00130838,0.00161159,-0.00033667,0.01253531,0.68011088,-0.05770714,
 0.06830881,-0.06027462,-0.03360823,0.01029815,0.01296222,0.00134144,-0
 .00005222,0.00178580,0.00528397,0.00816913,-0.01064255,-0.00088336,-0.
 00168638,-0.00077935,-0.00081011,-0.00119716,0.00085378,0.00337893,-0.
 00133364,0.00473162,-0.00271770,-0.00207533,-0.00279282,-0.00032029,0.
 00019674,-0.00032563,0.08839912,-0.09294582,0.07975137,0.02212851,0.02
 005585,-0.00159903,-0.00264509,-0.00111274,0.00244589,0.00058349,-0.00
 128816,-0.00361772,-0.00871663,0.00982047,-0.00975085,-0.00022936,0.00
 008239,0.00052448,0.00183864,-0.00147485,0.00066521,-0.00232883,-0.007
 05037,0.00675907,-0.00140786,-0.00000459,0.00032831,-0.00007725,-0.000
 06832,0.00143708,-0.13922530,-0.19001709,-0.00235663,0.13007967,-0.000
 72670,-0.04868129,0.00934430,-0.00916858,0.00469165,-0.00414081,-0.001
 30685,0.00185344,0.00003052,0.00564076,0.00876453,-0.00192907,-0.00004
 888,-0.00083279,-0.00019244,0.00005489,-0.00117769,0.00015872,-0.00534
 258,-0.00508232,0.00320475,0.00008440,-0.00167376,-0.00130009,0.000301
 69,-0.00047752,0.00034049,-0.16054554,-0.37253151,0.01231772,0.1710574
 0,0.41514728,0.00028421,0.01358550,0.01621120,0.00457302,-0.00054400,-
 0.00791727,-0.00889944,0.00055318,-0.00002934,-0.00239945,-0.00339991,
 0.00331085,0.00141626,0.00054486,-0.00043922,0.00069542,0.00064611,-0.
 00084937,0.00015044,0.00191256,-0.00378504,0.00432760,-0.00093570,-0.0
 0034739,0.00115741,-0.00066821,0.00023313,-0.00646965,0.00613970,-0.02
 526981,0.00516419,-0.01783411,0.01888226\\-0.00002040,-0.00002124,0.00
 000511,0.00000247,0.00002164,0.00000658,0.00001030,-0.00000285,-0.0000
 0239,0.00001409,0.00000264,-0.00002286,-0.00000169,0.00000163,-0.00000
 266,0.00000233,-0.00000095,0.00000476,0.00000658,-0.00000799,0.0000122
 5,-0.00001084,0.00000442,-0.00000052,-0.00000331,0.00000425,0.00000219
 ,-0.00000615,-0.00000296,-0.00000840,0.00000661,0.00000140,0.00000593\
 \\@
 The archive entry for this job was punched.


 A COMPUTER IS LIKE A HORSE, IT WILL SENSE WEAKNESS.
     -- GREG WETTSTEIN
 Job cpu time:       0 days  0 hours 27 minutes 56.1 seconds.
 Elapsed time:       0 days  0 hours  3 minutes 32.8 seconds.
 File lengths (MBytes):  RWF=    116 Int=      0 D2E=      0 Chk=      9 Scr=      1
 Normal termination of Gaussian 16 at Sat May 24 05:12:34 2025.
done
