11
energy = -764.5715337680001
C 1.42910500 -0.25210500 0.03296900
O 0.11512700 -0.48226800 -0.33213800
C 2.32388800 -1.20833500 -0.14536200
C -0.70270500 -0.87804800 0.67338200
F -0.63009200 -0.03980400 1.71916300
F -1.93648000 -0.88586400 0.22290200
F -0.39634500 -2.08731000 1.12503700
F 3.59751300 -1.06911100 0.11733900
F 2.04756300 -2.38948800 -0.63692600
O 1.75883700 0.99378900 0.41744000
H 1.33525700 1.20709100 1.25703800
11
energy = -764.5708383300001
C 1.60227500 -0.40080400 0.19887400
O 0.34074000 -0.48485100 -0.35051100
C 2.43226400 -1.42266500 0.08364900
C -0.66776400 -0.83676800 0.49776900
F -0.80440600 0.02807200 1.49559300
F -1.78211500 -0.86008800 -0.20415400
F -0.46387600 -2.03610500 1.02890300
F 3.67498000 -1.39872400 0.49252400
F 2.10520800 -2.57909800 -0.43554700
O 1.93708100 0.74068000 0.83012600
H 1.85486100 1.48706200 0.22546300
11
energy = -764.5707569370002
C 1.44987000 -0.31408700 0.00088000
O 0.13308200 -0.51488700 -0.35425400
C 2.32990900 -1.28159700 -0.18817100
C -0.71591300 -0.88355400 0.64763700
F -0.77484700 0.02728100 1.61156700
F -1.91340000 -1.02306200 0.11695600
F -0.34953100 -2.03311800 1.20107000
F 3.61284300 -1.15013600 0.03301000
F 2.02043700 -2.48475000 -0.60113500
O 1.78356000 0.88077000 0.52476300
H 1.55786700 1.58539600 -0.09330100
11
energy = -764.5715788710002
C 1.43167000 0.15863900 -0.10888500
O 0.06377700 0.23885200 -0.29675000
C 1.94825500 -0.94377000 0.40568200
C -0.61921000 0.86462000 0.69249000
F -0.09135500 2.06871400 0.96268800
F -1.86144300 1.02661100 0.29761800
F -0.60893600 0.17468500 1.82555900
F 3.23135500 -1.13539200 0.57131000
F 1.24232800 -1.98191900 0.77581600
O 2.18618000 1.15776500 -0.60019800
H 2.01904900 1.97265100 -0.11248800
11
energy = -764.5699360560001
C 1.44748500 0.14007700 -0.14413300
O 0.10013100 0.25424300 -0.32504700
C 1.96446500 -0.93571500 0.42123700
C -0.58746600 0.91290200 0.65351200
F -0.11429000 2.13459200 0.85877300
F -1.84146600 0.99215900 0.26463000
F -0.53240300 0.26106500 1.80977100
F 3.27181500 -1.09880900 0.54382500
F 1.28537300 -1.94465000 0.90554800
O 2.14690600 1.17206300 -0.65759900
H 3.08869900 1.04169300 -0.50583000
11
energy = -764.570780839
C 1.44167600 0.18196600 -0.15965300
O 0.07393100 0.28194300 -0.29925200
C 1.96629800 -0.92827500 0.32858400
C -0.59210900 0.93042300 0.69891900
F -0.19572200 2.19106700 0.82545800
F -1.87306200 0.91358300 0.39263100
F -0.41800800 0.33339400 1.87158900
F 3.25344700 -1.14844300 0.41165000
F 1.26275500 -1.92667100 0.79985200
O 2.19044500 1.23442400 -0.54056800
H 2.02422800 1.43775300 -1.46819000
11
energy = -764.5707472690001
C 1.37752800 -0.01485400 0.03885800
O -0.00054300 0.00286900 0.00716600
C 2.01036600 -1.16379600 0.19938700
C -0.57841100 0.01464200 -1.22831700
F -0.24984100 -1.06178200 -1.93214400
F -1.88362700 0.03248500 -1.05208300
F -0.22386400 1.08161900 -1.93410300
F 3.30810100 -1.26612600 0.33176700
F 1.41725600 -2.33053200 0.22782300
O 2.02353500 1.15972500 -0.08979300
H 1.74116800 1.76783900 0.60295100
11
energy = -764.569911621
C 1.38228700 -0.02366500 0.03881600
O 0.01938600 0.02937500 0.00730400
C 2.01010300 -1.17788500 0.17220300
C -0.55715500 0.01530600 -1.23028400
F -0.31819900 -1.12687100 -1.86520800
F -1.85447300 0.14813800 -1.05900600
F -0.11336900 1.00149500 -1.99782300
F 3.32747200 -1.24747100 0.27425900
F 1.43966600 -2.35483000 0.22809700
O 1.96776000 1.19014400 -0.00331100
H 2.92577100 1.09651700 0.01831200
11
energy = -764.5714897960002
C 1.38241400 0.00089000 0.00089100
O -0.00066200 0.00082800 0.00035300
C 2.02670100 -1.14422000 0.14430500
C -0.57756700 -0.01162100 -1.22588100
F -0.36601200 -1.15206500 -1.86991600
F -1.87034400 0.16530800 -1.07542600
F -0.09448600 0.97133200 -2.00176300
F 3.32925200 -1.24085100 0.21151200
F 1.43837000 -2.30658400 0.26997300
O 2.00426600 1.19347100 0.00275500
H 1.86194600 1.64531100 -0.83711200
