11
energy = -764.3323366460002
C 1.44544800 -0.02570300 -0.19667400
O 0.60308900 -0.30214400 -1.33712000
C 1.89917500 1.42606800 -0.08715700
C 1.13033900 2.47572700 -0.92042600
F 1.53800400 3.70258500 -0.64315400
F 1.26856000 2.25992300 -2.21449900
F -0.17973500 2.39665100 -0.60920700
F 1.74307300 1.78422100 1.20632500
F 3.18739400 1.52638900 -0.42623000
O 0.13797700 -0.20016100 0.26888300
H -0.37062100 0.63659200 0.40391200
11
energy = -764.3338995050001
C 1.34993200 0.01033400 0.04380700
O 1.01199500 -0.45509400 -1.28037200
C 1.92796100 1.41039200 0.00691500
C 2.08736900 2.00767300 1.41543700
F 2.50146200 3.26400000 1.34313600
F 0.89800000 1.98704000 2.02424100
F 2.95005100 1.31284700 2.13247200
F 3.11495700 1.39321100 -0.59990300
F 1.11146200 2.27347700 -0.67663200
O -0.03600400 0.02481100 -0.04639800
H -0.39861700 0.91503000 -0.28624600
11
energy = -764.3342218530001
C 1.39254600 -0.00006500 -0.00007300
O 0.97245500 -0.42554600 -1.31175000
C 1.92259100 1.41937800 0.00035900
C 3.31596800 1.53990500 -0.63918300
F 3.69287600 2.81056600 -0.66119700
F 4.19893900 0.84310900 0.05779100
F 3.28958400 1.08016800 -1.88473800
F 1.08277000 2.26799400 -0.66930800
F 1.98209200 1.87056700 1.26135700
O -0.00012000 0.00017700 -0.00062800
H -0.38574500 0.89138300 -0.19677000
