 Entering Gaussian System, Link 0=g16
 Initial command:
 /apps/easybuild-2022/easybuild/software/Compiler/NVHPC/22.11-CUDA-11.7.0/Gaussian/g16c01-CUDA-11.7.0/g16/l1.exe "/tmp/Gau-253032.inp" -scrdir="/tmp/"
 Entering Link 1 = /apps/easybuild-2022/easybuild/software/Compiler/NVHPC/22.11-CUDA-11.7.0/Gaussian/g16c01-CUDA-11.7.0/g16/l1.exe PID=    253033.
  
 Copyright (c) 1988-2019, Gaussian, Inc.  All Rights Reserved.
  
 This is part of the Gaussian(R) 16 program.  It is based on
 the Gaussian(R) 09 system (copyright 2009, Gaussian, Inc.),
 the Gaussian(R) 03 system (copyright 2003, Gaussian, Inc.),
 the Gaussian(R) 98 system (copyright 1998, Gaussian, Inc.),
 the Gaussian(R) 94 system (copyright 1995, Gaussian, Inc.),
 the Gaussian 92(TM) system (copyright 1992, Gaussian, Inc.),
 the Gaussian 90(TM) system (copyright 1990, Gaussian, Inc.),
 the Gaussian 88(TM) system (copyright 1988, Gaussian, Inc.),
 the Gaussian 86(TM) system (copyright 1986, Carnegie Mellon
 University), and the Gaussian 82(TM) system (copyright 1983,
 Carnegie Mellon University). Gaussian is a federally registered
 trademark of Gaussian, Inc.
  
 This software contains proprietary and confidential information,
 including trade secrets, belonging to Gaussian, Inc.
  
 This software is provided under written license and may be
 used, copied, transmitted, or stored only in accord with that
 written license.
  
 The following legend is applicable only to US Government
 contracts under FAR:
  
                    RESTRICTED RIGHTS LEGEND
  
 Use, reproduction and disclosure by the US Government is
 subject to restrictions as set forth in subparagraphs (a)
 and (c) of the Commercial Computer Software - Restricted
 Rights clause in FAR 52.227-19.
  
 Gaussian, Inc.
 340 Quinnipiac St., Bldg. 40, Wallingford CT 06492
  
  
 ---------------------------------------------------------------
 Warning -- This program may not be used in any manner that
 competes with the business of Gaussian, Inc. or will provide
 assistance to any competitor of Gaussian, Inc.  The licensee
 of this program is prohibited from giving any competitor of
 Gaussian, Inc. access to this program.  By using this program,
 the user acknowledges that Gaussian, Inc. is engaged in the
 business of creating and licensing software in the field of
 computational chemistry and represents and warrants to the
 licensee that it is not a competitor of Gaussian, Inc. and that
 it will not use this program in any manner prohibited above.
 ---------------------------------------------------------------
  

 Cite this work as:
 Gaussian 16, Revision C.01,
 M. J. Frisch, G. W. Trucks, H. B. Schlegel, G. E. Scuseria, 
 M. A. Robb, J. R. Cheeseman, G. Scalmani, V. Barone, 
 G. A. Petersson, H. Nakatsuji, X. Li, M. Caricato, A. V. Marenich, 
 J. Bloino, B. G. Janesko, R. Gomperts, B. Mennucci, H. P. Hratchian, 
 J. V. Ortiz, A. F. Izmaylov, J. L. Sonnenberg, D. Williams-Young, 
 F. Ding, F. Lipparini, F. Egidi, J. Goings, B. Peng, A. Petrone, 
 T. Henderson, D. Ranasinghe, V. G. Zakrzewski, J. Gao, N. Rega, 
 G. Zheng, W. Liang, M. Hada, M. Ehara, K. Toyota, R. Fukuda, 
 J. Hasegawa, M. Ishida, T. Nakajima, Y. Honda, O. Kitao, H. Nakai, 
 T. Vreven, K. Throssell, J. A. Montgomery, Jr., J. E. Peralta, 
 F. Ogliaro, M. J. Bearpark, J. J. Heyd, E. N. Brothers, K. N. Kudin, 
 V. N. Staroverov, T. A. Keith, R. Kobayashi, J. Normand, 
 K. Raghavachari, A. P. Rendell, J. C. Burant, S. S. Iyengar, 
 J. Tomasi, M. Cossi, J. M. Millam, M. Klene, C. Adamo, R. Cammi, 
 J. W. Ochterski, R. L. Martin, K. Morokuma, O. Farkas, 
 J. B. Foresman, and D. J. Fox, Gaussian, Inc., Wallingford CT, 2019.
 
 ******************************************
 Gaussian 16:  ES64L-G16RevC.01  3-Jul-2019
                24-May-2025 
 ******************************************
 %mem=28GB
 %nprocshared=8
 Will use up to    8 processors via shared memory.
 ----------------------------------------------------------------------
 #P M062X/Def2TZVPP Symm(None) scf(xqc) pop(None) opt(NoFreeze,TS,CalcA
 ll,NoEigentest,MaxCycle=999)
 ----------------------------------------------------------------------
 1/5=1,6=999,10=4,11=1,18=20,26=3,29=2000,38=1/1,3;
 2/9=110,12=2,15=3,17=6,18=5,40=1/2;
 3/5=44,7=202,11=2,25=1,30=1,71=2,74=-55,140=1/1,2,3;
 4//1;
 5/5=2,8=3,13=1,38=5/2,8;
 8/6=4,10=90,11=11/1;
 11/6=1,8=1,9=11,15=111,16=1,31=1/1,2,10;
 10/6=1,31=1/2;
 7/10=1,25=1,30=1/1,2,3,16;
 1/5=1,6=999,10=4,11=1,18=20,26=3/3(3);
 2/9=110,15=3/2;
 7/8=1,9=1,25=1,30=1,44=-1/16;
 99//99;
 2/9=110,15=3/2;
 3/5=44,7=202,11=2,25=1,30=1,71=2,74=-55,140=1/1,2,3;
 4/5=5,16=3,69=1/1;
 5/5=2,8=3,13=1,38=5/2,8;
 8/6=4,10=90,11=11/1;
 11/6=1,8=1,9=11,15=111,16=1,31=1/1,2,10;
 10/6=1,31=1/2;
 7/10=1,25=1,30=1/1,2,3,16;
 1/5=1,6=999,10=4,11=1,18=20,26=3/3(-8);
 2/9=110,15=3/2;
 7/8=1,9=1,25=1,30=1,44=-1/16;
 99//99;
 Leave Link    1 at Sat May 24 06:32:08 2025, MaxMem=  3758096384 cpu:               0.1 elap:               0.0
 (Enter /apps/easybuild-2022/easybuild/software/Compiler/NVHPC/22.11-CUDA-11.7.0/Gaussian/g16c01-CUDA-11.7.0/g16/l101.exe)
 ------------------------------
 Gaussian input prepared by ASE
 ------------------------------
 Symbolic Z-matrix:
 Charge =  0 Multiplicity = 1
 C                     1.5149    0.22195   0.16741 
 O                     1.68686  -0.65726  -0.67734 
 C                     1.08767   1.52308  -0.14379 
 C                     1.23675   2.09993  -1.55149 
 F                     1.6909    3.35819  -1.50635 
 F                     2.102     1.44393  -2.3051 
 F                     0.1122    2.15619  -2.21434 
 F                     0.07529  -0.32705  -1.63763 
 F                     0.59023   2.30551   0.74481 
 O                     1.54418  -0.11721   1.45906 
 H                     1.67631  -1.06976   1.54843 
 
 Add virtual bond connecting atoms F8         and O2         Dist= 3.60D+00.
 ITRead=  0  0  0  0  0  0  0  0  0  0  0
 MicOpt= -1 -1 -1 -1 -1 -1 -1 -1 -1 -1 -1
 NAtoms=     11 NQM=       11 NQMF=       0 NMMI=      0 NMMIF=      0
                NMic=       0 NMicF=      0.
                    Isotopes and Nuclear Properties:
 (Nuclear quadrupole moments (NQMom) in fm**2, nuclear magnetic moments (NMagM)
  in nuclear magnetons)

  Atom         1           2           3           4           5           6           7           8           9          10
 IAtWgt=          12          16          12          12          19          19          19          19          19          16
 AtmWgt=  12.0000000  15.9949146  12.0000000  12.0000000  18.9984032  18.9984032  18.9984032  18.9984032  18.9984032  15.9949146
 NucSpn=           0           0           0           0           1           1           1           1           1           0
 AtZEff=  -0.0000000  -0.0000000  -0.0000000  -0.0000000  -0.0000000  -0.0000000  -0.0000000  -0.0000000  -0.0000000  -0.0000000
 NQMom=    0.0000000   0.0000000   0.0000000   0.0000000   0.0000000   0.0000000   0.0000000   0.0000000   0.0000000   0.0000000
 NMagM=    0.0000000   0.0000000   0.0000000   0.0000000   2.6288670   2.6288670   2.6288670   2.6288670   2.6288670   0.0000000
 AtZNuc=   6.0000000   8.0000000   6.0000000   6.0000000   9.0000000   9.0000000   9.0000000   9.0000000   9.0000000   8.0000000

  Atom        11
 IAtWgt=           1
 AtmWgt=   1.0078250
 NucSpn=           1
 AtZEff=  -0.0000000
 NQMom=    0.0000000
 NMagM=    2.7928460
 AtZNuc=   1.0000000
 Leave Link  101 at Sat May 24 06:32:08 2025, MaxMem=  3758096384 cpu:               0.3 elap:               0.2
 (Enter /apps/easybuild-2022/easybuild/software/Compiler/NVHPC/22.11-CUDA-11.7.0/Gaussian/g16c01-CUDA-11.7.0/g16/l103.exe)

 GradGradGradGradGradGradGradGradGradGradGradGradGradGradGradGradGradGrad
 Berny optimization.
 Initialization pass.
                           ----------------------------
                           !    Initial Parameters    !
                           ! (Angstroms and Degrees)  !
 --------------------------                            --------------------------
 ! Name  Definition              Value          Derivative Info.                !
 --------------------------------------------------------------------------------
 ! R1    R(1,2)                  1.2313         calculate D2E/DX2 analytically  !
 ! R2    R(1,3)                  1.4044         calculate D2E/DX2 analytically  !
 ! R3    R(1,10)                 1.3358         calculate D2E/DX2 analytically  !
 ! R4    R(2,8)                  1.9048         calculate D2E/DX2 analytically  !
 ! R5    R(3,4)                  1.5286         calculate D2E/DX2 analytically  !
 ! R6    R(3,9)                  1.2842         calculate D2E/DX2 analytically  !
 ! R7    R(4,5)                  1.3385         calculate D2E/DX2 analytically  !
 ! R8    R(4,6)                  1.3217         calculate D2E/DX2 analytically  !
 ! R9    R(4,7)                  1.3066         calculate D2E/DX2 analytically  !
 ! R10   R(10,11)                0.9658         calculate D2E/DX2 analytically  !
 ! A1    A(2,1,3)              123.5036         calculate D2E/DX2 analytically  !
 ! A2    A(2,1,10)             118.6224         calculate D2E/DX2 analytically  !
 ! A3    A(3,1,10)             117.1411         calculate D2E/DX2 analytically  !
 ! A4    A(1,2,8)               95.9652         calculate D2E/DX2 analytically  !
 ! A5    A(1,3,4)              121.6028         calculate D2E/DX2 analytically  !
 ! A6    A(1,3,9)              121.9356         calculate D2E/DX2 analytically  !
 ! A7    A(4,3,9)              116.4276         calculate D2E/DX2 analytically  !
 ! A8    A(3,4,5)              110.9033         calculate D2E/DX2 analytically  !
 ! A9    A(3,4,6)              113.6798         calculate D2E/DX2 analytically  !
 ! A10   A(3,4,7)              113.547          calculate D2E/DX2 analytically  !
 ! A11   A(5,4,6)              105.2893         calculate D2E/DX2 analytically  !
 ! A12   A(5,4,7)              105.585          calculate D2E/DX2 analytically  !
 ! A13   A(6,4,7)              107.1905         calculate D2E/DX2 analytically  !
 ! A14   A(1,10,11)            110.0536         calculate D2E/DX2 analytically  !
 ! D1    D(3,1,2,8)            -44.9383         calculate D2E/DX2 analytically  !
 ! D2    D(10,1,2,8)           124.9612         calculate D2E/DX2 analytically  !
 ! D3    D(2,1,3,4)            -20.5015         calculate D2E/DX2 analytically  !
 ! D4    D(2,1,3,9)            161.6958         calculate D2E/DX2 analytically  !
 ! D5    D(10,1,3,4)           169.4603         calculate D2E/DX2 analytically  !
 ! D6    D(10,1,3,9)            -8.3423         calculate D2E/DX2 analytically  !
 ! D7    D(2,1,10,11)           -1.9396         calculate D2E/DX2 analytically  !
 ! D8    D(3,1,10,11)          168.6019         calculate D2E/DX2 analytically  !
 ! D9    D(1,3,4,5)           -136.0988         calculate D2E/DX2 analytically  !
 ! D10   D(1,3,4,6)            -17.6928         calculate D2E/DX2 analytically  !
 ! D11   D(1,3,4,7)            105.2055         calculate D2E/DX2 analytically  !
 ! D12   D(9,3,4,5)             41.8189         calculate D2E/DX2 analytically  !
 ! D13   D(9,3,4,6)            160.2249         calculate D2E/DX2 analytically  !
 ! D14   D(9,3,4,7)            -76.8768         calculate D2E/DX2 analytically  !
 --------------------------------------------------------------------------------
 Trust Radius=3.00D-01 FncErr=1.00D-07 GrdErr=1.00D-06 EigMax=2.50D+02 EigMin=1.00D-04
 Number of steps in this run=    100 maximum allowed number of steps=    100.
 Search for a saddle point of order  1.
 GradGradGradGradGradGradGradGradGradGradGradGradGradGradGradGradGradGrad

 Leave Link  103 at Sat May 24 06:32:08 2025, MaxMem=  3758096384 cpu:               0.0 elap:               0.0
 (Enter /apps/easybuild-2022/easybuild/software/Compiler/NVHPC/22.11-CUDA-11.7.0/Gaussian/g16c01-CUDA-11.7.0/g16/l202.exe)
                          Input orientation:                          
 ---------------------------------------------------------------------
 Center     Atomic      Atomic             Coordinates (Angstroms)
 Number     Number       Type             X           Y           Z
 ---------------------------------------------------------------------
      1          6           0        1.514898    0.221948    0.167410
      2          8           0        1.686864   -0.657258   -0.677343
      3          6           0        1.087673    1.523077   -0.143793
      4          6           0        1.236750    2.099929   -1.551488
      5          9           0        1.690898    3.358186   -1.506347
      6          9           0        2.101996    1.443925   -2.305097
      7          9           0        0.112198    2.156185   -2.214335
      8          9           0        0.075294   -0.327049   -1.637635
      9          9           0        0.590235    2.305506    0.744811
     10          8           0        1.544183   -0.117208    1.459059
     11          1           0        1.676308   -1.069756    1.548432
 ---------------------------------------------------------------------
                    Distance matrix (angstroms):
                    1          2          3          4          5
     1  C    0.000000
     2  O    1.231334   0.000000
     3  C    1.404388   2.323267   0.000000
     4  C    2.561013   2.927254   1.528590   0.000000
     5  F    3.559273   4.100128   2.363907   1.338468   0.000000
     6  F    2.819788   2.690147   2.388797   1.321710   2.114568
     7  F    3.373655   3.571748   2.374768   1.306579   2.106738
     8  F    2.373193   1.904825   2.584461   2.691955   4.025961
     9  F    2.351511   3.464547   1.284233   2.394417   2.717959
    10  O    1.335755   2.208217   2.338390   3.751480   4.570942
    11  H    1.897834   2.263700   3.151650   4.455291   5.379456
                    6          7          8          9         10
     6  F    0.000000
     7  F    2.115384   0.000000
     8  F    2.772972   2.549588   0.000000
     9  F    3.511364   3.001226   3.587694   0.000000
    10  O    4.113048   4.551123   3.433828   2.699946   0.000000
    11  H    4.620551   5.197264   3.642236   3.635623   0.965812
                   11
    11  H    0.000000
 Symmetry turned off by external request.
 Stoichiometry    C3HF5O2
 Rotational constants (GHZ):           1.8523402           1.1724971           0.9261882
 Leave Link  202 at Sat May 24 06:32:08 2025, MaxMem=  3758096384 cpu:               0.1 elap:               0.0
 (Enter /apps/easybuild-2022/easybuild/software/Compiler/NVHPC/22.11-CUDA-11.7.0/Gaussian/g16c01-CUDA-11.7.0/g16/l301.exe)
 Standard basis: def2TZVPP (5D, 7F)
 Ernie: Thresh=  0.10000D-02 Tol=  0.10000D-05 Strict=F.
   324 basis functions,   527 primitive gaussians,   375 cartesian basis functions
    40 alpha electrons       40 beta electrons
       nuclear repulsion energy       622.6963654598 Hartrees.
 IExCor= 4336 DFT=T Ex+Corr=M062X ExCW=0 ScaHFX=  0.540000
 ScaDFX=  1.000000  1.000000  1.000000  1.000000 ScalE2=  1.000000  1.000000
 IRadAn=      5 IRanWt=     -1 IRanGd=            0 ICorTp=0 IEmpDi=  4
 NAtoms=   11 NActive=   11 NUniq=   11 SFac= 1.00D+00 NAtFMM=   60 NAOKFM=F Big=F
 Integral buffers will be    131072 words long.
 Raffenetti 2 integral format.
 Two-electron integral symmetry is turned off.
 Leave Link  301 at Sat May 24 06:32:08 2025, MaxMem=  3758096384 cpu:               0.1 elap:               0.0
 (Enter /apps/easybuild-2022/easybuild/software/Compiler/NVHPC/22.11-CUDA-11.7.0/Gaussian/g16c01-CUDA-11.7.0/g16/l302.exe)
 NPDir=0 NMtPBC=     1 NCelOv=     1 NCel=       1 NClECP=     1 NCelD=      1
         NCelK=      1 NCelE2=     1 NClLst=     1 CellRange=     0.0.
 One-electron integrals computed using PRISM.
   1 Symmetry operations used in ECPInt.
 ECPInt:  NShTT=    6786 NPrTT=   21959 LenC2=    6416 LenP2D=   15728.
 LDataN:  DoStor=T MaxTD1= 6 Len=  172
 NBasis=   324 RedAO= T EigKep=  1.61D-04  NBF=   324
 NBsUse=   324 1.00D-06 EigRej= -1.00D+00 NBFU=   324
 Precomputing XC quadrature grid using
 IXCGrd= 4 IRadAn=           5 IRanWt=          -1 IRanGd=           0 AccXCQ= 0.00D+00.
 Generated NRdTot=       0 NPtTot=           0 NUsed=           0 NTot=          32
 NSgBfM=   373   373   373   373   373 MxSgAt=    11 MxSgA2=    11.
 Leave Link  302 at Sat May 24 06:32:09 2025, MaxMem=  3758096384 cpu:               1.0 elap:               0.2
 (Enter /apps/easybuild-2022/easybuild/software/Compiler/NVHPC/22.11-CUDA-11.7.0/Gaussian/g16c01-CUDA-11.7.0/g16/l303.exe)
 DipDrv:  MaxL=1.
 Leave Link  303 at Sat May 24 06:32:09 2025, MaxMem=  3758096384 cpu:               0.2 elap:               0.1
 (Enter /apps/easybuild-2022/easybuild/software/Compiler/NVHPC/22.11-CUDA-11.7.0/Gaussian/g16c01-CUDA-11.7.0/g16/l401.exe)
 ExpMin= 9.52D-02 ExpMax= 3.55D+04 ExpMxC= 1.21D+03 IAcc=3 IRadAn=         5 AccDes= 0.00D+00
 Harris functional with IExCor= 1009 and IRadAn=       5 diagonalized for initial guess.
 HarFok:  IExCor= 1009 AccDes= 0.00D+00 IRadAn=         5 IDoV= 1 UseB2=F ITyADJ=14
 ICtDFT=  3500011 ScaDFX=  1.000000  1.000000  1.000000  1.000000
 FoFCou: FMM=F IPFlag=           0 FMFlag=      100000 FMFlg1=           0
         NFxFlg=           0 DoJE=T BraDBF=F KetDBF=T FulRan=T
         wScrn=  0.000000 ICntrl=       500 IOpCl=  0 I1Cent=   200000004 NGrid=           0
         NMat0=    1 NMatS0=      1 NMatT0=    0 NMatD0=    1 NMtDS0=    0 NMtDT0=    0
 Symmetry not used in FoFCou.
 Harris En= -764.081295968870    
 JPrj=0 DoOrth=F DoCkMO=F.
 Leave Link  401 at Sat May 24 06:32:09 2025, MaxMem=  3758096384 cpu:               4.2 elap:               0.7
 (Enter /apps/easybuild-2022/easybuild/software/Compiler/NVHPC/22.11-CUDA-11.7.0/Gaussian/g16c01-CUDA-11.7.0/g16/l502.exe)
 Keep R1 ints in memory in canonical form, NReq=1412617130.
 FoFCou: FMM=F IPFlag=           0 FMFlag=           0 FMFlg1=           0
         NFxFlg=           0 DoJE=F BraDBF=F KetDBF=F FulRan=T
         wScrn=  0.000000 ICntrl=       600 IOpCl=  0 I1Cent=           0 NGrid=           0
         NMat0=    1 NMatS0=  52650 NMatT0=    0 NMatD0=    1 NMtDS0=    0 NMtDT0=    0
 Symmetry not used in FoFCou.
 Two-electron integral symmetry not used.
 Closed shell SCF:
 Using DIIS extrapolation, IDIIS=  1040.
 NGot=  3758096384 LenX=  2371771924 LenY=  2371630858
 Requested convergence on RMS density matrix=1.00D-08 within  32 cycles.
 Requested convergence on MAX density matrix=1.00D-06.
 Requested convergence on             energy=1.00D-06.
 No special actions if energy rises.
 Integral accuracy reduced to 1.0D-05 until final iterations.

 Cycle   1  Pass 0  IDiag  1:
 E= -764.033311008187    
 DIIS: error= 3.24D-02 at cycle   1 NSaved=   1.
 NSaved= 1 IEnMin= 1 EnMin= -764.033311008187     IErMin= 1 ErrMin= 3.24D-02
 ErrMax= 3.24D-02  0.00D+00 EMaxC= 1.00D-01 BMatC= 5.38D-01 BMatP= 5.38D-01
 IDIUse=3 WtCom= 6.76D-01 WtEn= 3.24D-01
 Coeff-Com:  0.100D+01
 Coeff-En:   0.100D+01
 Coeff:      0.100D+01
 Gap=    -0.195 Goal=   None    Shift=    0.000
 GapD=   -0.195 DampG=0.250 DampE=0.500 DampFc=0.2500 IDamp=-1.
 Damping current iteration by 2.50D-01
 RMSDP=1.99D-02 MaxDP=3.92D+00              OVMax= 9.62D-01

 Cycle   2  Pass 0  IDiag  1:
 E= -763.865724196447     Delta-E=        0.167586811740 Rises=F Damp=T
 DIIS: error= 1.18D-02 at cycle   2 NSaved=   2.
 NSaved= 2 IEnMin= 1 EnMin= -764.033311008187     IErMin= 2 ErrMin= 1.18D-02
 ErrMax= 1.18D-02  0.00D+00 EMaxC= 1.00D-01 BMatC= 1.36D-01 BMatP= 5.38D-01
 IDIUse=3 WtCom= 8.82D-01 WtEn= 1.18D-01
 Coeff-Com:  0.116D+00 0.884D+00
 Coeff-En:   0.656D+00 0.344D+00
 Coeff:      0.180D+00 0.820D+00
 Gap=     0.012 Goal=   None    Shift=    0.000
 RMSDP=4.81D-03 MaxDP=9.48D-01 DE= 1.68D-01 OVMax= 6.11D-01

 Cycle   3  Pass 0  IDiag  1:
 E= -764.189735899162     Delta-E=       -0.324011702714 Rises=F Damp=F
 DIIS: error= 2.61D-02 at cycle   3 NSaved=   3.
 NSaved= 3 IEnMin= 3 EnMin= -764.189735899162     IErMin= 2 ErrMin= 1.18D-02
 ErrMax= 2.61D-02  0.00D+00 EMaxC= 1.00D-01 BMatC= 2.63D-01 BMatP= 1.36D-01
 IDIUse=2 WtCom= 0.00D+00 WtEn= 1.00D+00
 Coeff-En:   0.000D+00 0.174D+00 0.826D+00
 Coeff:      0.000D+00 0.174D+00 0.826D+00
 Gap=     0.086 Goal=   None    Shift=    0.000
 RMSDP=5.43D-03 MaxDP=5.42D-01 DE=-3.24D-01 OVMax= 9.14D-01

 Cycle   4  Pass 0  IDiag  1:
 E= -763.194535004979     Delta-E=        0.995200894183 Rises=F Damp=F
 DIIS: error= 6.56D-02 at cycle   4 NSaved=   4.
 NSaved= 4 IEnMin= 3 EnMin= -764.189735899162     IErMin= 2 ErrMin= 1.18D-02
 ErrMax= 6.56D-02  0.00D+00 EMaxC= 1.00D-01 BMatC= 1.30D+00 BMatP= 1.36D-01
 IDIUse=2 WtCom= 0.00D+00 WtEn= 1.00D+00
 Coeff-En:   0.000D+00 0.000D+00 0.762D+00 0.238D+00
 Coeff:      0.000D+00 0.000D+00 0.762D+00 0.238D+00
 Gap=     0.119 Goal=   None    Shift=    0.000
 RMSDP=4.17D-03 MaxDP=5.04D-01 DE= 9.95D-01 OVMax= 5.93D-01

 Cycle   5  Pass 0  IDiag  1:
 E= -764.377938612473     Delta-E=       -1.183403607494 Rises=F Damp=F
 DIIS: error= 1.50D-02 at cycle   5 NSaved=   5.
 NSaved= 5 IEnMin= 5 EnMin= -764.377938612473     IErMin= 2 ErrMin= 1.18D-02
 ErrMax= 1.50D-02  0.00D+00 EMaxC= 1.00D-01 BMatC= 8.86D-02 BMatP= 1.36D-01
 IDIUse=3 WtCom= 8.50D-01 WtEn= 1.50D-01
 Coeff-Com: -0.681D-01 0.153D+00 0.342D+00-0.605D-01 0.634D+00
 Coeff-En:   0.000D+00 0.000D+00 0.223D+00 0.000D+00 0.777D+00
 Coeff:     -0.579D-01 0.130D+00 0.324D+00-0.514D-01 0.655D+00
 Gap=     0.138 Goal=   None    Shift=    0.000
 RMSDP=8.74D-04 MaxDP=3.79D-02 DE=-1.18D+00 OVMax= 1.69D-01

 Cycle   6  Pass 0  IDiag  1:
 E= -764.431986562760     Delta-E=       -0.054047950287 Rises=F Damp=F
 DIIS: error= 3.18D-03 at cycle   6 NSaved=   6.
 NSaved= 6 IEnMin= 6 EnMin= -764.431986562760     IErMin= 6 ErrMin= 3.18D-03
 ErrMax= 3.18D-03  0.00D+00 EMaxC= 1.00D-01 BMatC= 5.61D-03 BMatP= 8.86D-02
 IDIUse=3 WtCom= 9.68D-01 WtEn= 3.18D-02
 Coeff-Com: -0.557D-01 0.756D-01 0.657D-01-0.405D-01 0.283D+00 0.671D+00
 Coeff-En:   0.000D+00 0.000D+00 0.000D+00 0.000D+00 0.985D-01 0.901D+00
 Coeff:     -0.539D-01 0.732D-01 0.636D-01-0.392D-01 0.278D+00 0.679D+00
 Gap=     0.153 Goal=   None    Shift=    0.000
 RMSDP=2.79D-04 MaxDP=1.00D-02 DE=-5.40D-02 OVMax= 8.25D-02

 Cycle   7  Pass 0  IDiag  1:
 E= -764.438934025615     Delta-E=       -0.006947462855 Rises=F Damp=F
 DIIS: error= 1.38D-03 at cycle   7 NSaved=   7.
 NSaved= 7 IEnMin= 7 EnMin= -764.438934025615     IErMin= 7 ErrMin= 1.38D-03
 ErrMax= 1.38D-03  0.00D+00 EMaxC= 1.00D-01 BMatC= 1.39D-03 BMatP= 5.61D-03
 IDIUse=3 WtCom= 9.86D-01 WtEn= 1.38D-02
 Coeff-Com: -0.606D-02 0.749D-02-0.421D-02-0.153D-01 0.785D-01 0.393D+00
 Coeff-Com:  0.546D+00
 Coeff-En:   0.000D+00 0.000D+00 0.000D+00 0.000D+00 0.000D+00 0.000D+00
 Coeff-En:   0.100D+01
 Coeff:     -0.597D-02 0.739D-02-0.415D-02-0.151D-01 0.774D-01 0.388D+00
 Coeff:      0.552D+00
 Gap=     0.159 Goal=   None    Shift=    0.000
 RMSDP=1.23D-04 MaxDP=4.53D-03 DE=-6.95D-03 OVMax= 3.04D-02

 Cycle   8  Pass 0  IDiag  1:
 E= -764.438964175607     Delta-E=       -0.000030149992 Rises=F Damp=F
 DIIS: error= 2.64D-03 at cycle   8 NSaved=   8.
 NSaved= 8 IEnMin= 8 EnMin= -764.438964175607     IErMin= 7 ErrMin= 1.38D-03
 ErrMax= 2.64D-03  0.00D+00 EMaxC= 1.00D-01 BMatC= 2.03D-03 BMatP= 1.39D-03
 IDIUse=3 WtCom= 9.86D-01 WtEn= 1.38D-02
 Coeff-Com:  0.304D-01-0.298D-01-0.214D-01-0.781D-02-0.575D-01 0.849D-01
 Coeff-Com:  0.280D+00 0.721D+00
 Coeff-En:   0.000D+00 0.000D+00 0.000D+00 0.000D+00 0.000D+00 0.000D+00
 Coeff-En:   0.471D+00 0.529D+00
 Coeff:      0.300D-01-0.294D-01-0.211D-01-0.770D-02-0.567D-01 0.837D-01
 Coeff:      0.282D+00 0.719D+00
 Gap=     0.163 Goal=   None    Shift=    0.000
 RMSDP=1.08D-04 MaxDP=5.26D-03 DE=-3.01D-05 OVMax= 2.20D-02

 Cycle   9  Pass 0  IDiag  1:
 E= -764.439096244910     Delta-E=       -0.000132069303 Rises=F Damp=F
 DIIS: error= 2.51D-03 at cycle   9 NSaved=   9.
 NSaved= 9 IEnMin= 9 EnMin= -764.439096244910     IErMin= 7 ErrMin= 1.38D-03
 ErrMax= 2.51D-03  0.00D+00 EMaxC= 1.00D-01 BMatC= 2.06D-03 BMatP= 1.39D-03
 IDIUse=3 WtCom= 9.86D-01 WtEn= 1.38D-02
 Coeff-Com:  0.234D-01-0.246D-01-0.160D-01-0.558D-02-0.453D-01 0.162D+00
 Coeff-Com:  0.247D+00-0.398D+00 0.106D+01
 Coeff-En:   0.000D+00 0.000D+00 0.000D+00 0.000D+00 0.000D+00 0.838D-02
 Coeff-En:   0.000D+00 0.000D+00 0.992D+00
 Coeff:      0.231D-01-0.242D-01-0.158D-01-0.550D-02-0.446D-01 0.160D+00
 Coeff:      0.243D+00-0.393D+00 0.106D+01
 Gap=     0.163 Goal=   None    Shift=    0.000
 RMSDP=7.59D-05 MaxDP=4.15D-03 DE=-1.32D-04 OVMax= 6.89D-03

 Failed to achieve initial convergence to 1.0D-08 in 10 cycles.
 Switch to full accuracy anyway.
 Cycle  10  Pass 1  IDiag  1:
 E= -764.440166147975     Delta-E=       -0.001069903065 Rises=F Damp=F
 DIIS: error= 1.61D-03 at cycle   1 NSaved=   1.
 NSaved= 1 IEnMin= 1 EnMin= -764.440166147975     IErMin= 1 ErrMin= 1.61D-03
 ErrMax= 1.61D-03  0.00D+00 EMaxC= 1.00D-01 BMatC= 8.41D-04 BMatP= 8.41D-04
 IDIUse=3 WtCom= 9.84D-01 WtEn= 1.61D-02
 Coeff-Com:  0.100D+01
 Coeff-En:   0.100D+01
 Coeff:      0.100D+01
 Gap=     0.166 Goal=   None    Shift=    0.000
 RMSDP=7.59D-05 MaxDP=4.15D-03 DE=-1.07D-03 OVMax= 5.32D-02

 Cycle  11  Pass 1  IDiag  1:
 E= -764.436014917226     Delta-E=        0.004151230749 Rises=F Damp=F
 DIIS: error= 4.81D-03 at cycle   2 NSaved=   2.
 NSaved= 2 IEnMin= 1 EnMin= -764.440166147975     IErMin= 1 ErrMin= 1.61D-03
 ErrMax= 4.81D-03  0.00D+00 EMaxC= 1.00D-01 BMatC= 6.28D-03 BMatP= 8.41D-04
 IDIUse=3 WtCom= 1.26D-01 WtEn= 8.74D-01
 Coeff-Com:  0.734D+00 0.266D+00
 Coeff-En:   0.812D+00 0.188D+00
 Coeff:      0.802D+00 0.198D+00
 Gap=     0.163 Goal=   None    Shift=    0.000
 RMSDP=1.39D-04 MaxDP=6.89D-03 DE= 4.15D-03 OVMax= 3.32D-02

 Cycle  12  Pass 1  IDiag  1:
 E= -764.440572676165     Delta-E=       -0.004557758939 Rises=F Damp=F
 DIIS: error= 1.25D-03 at cycle   3 NSaved=   3.
 NSaved= 3 IEnMin= 3 EnMin= -764.440572676165     IErMin= 3 ErrMin= 1.25D-03
 ErrMax= 1.25D-03  0.00D+00 EMaxC= 1.00D-01 BMatC= 4.34D-04 BMatP= 8.41D-04
 IDIUse=3 WtCom= 9.87D-01 WtEn= 1.25D-02
 Coeff-Com:  0.397D+00-0.171D-01 0.620D+00
 Coeff-En:   0.353D+00 0.000D+00 0.647D+00
 Coeff:      0.396D+00-0.169D-01 0.621D+00
 Gap=     0.163 Goal=   None    Shift=    0.000
 RMSDP=5.06D-05 MaxDP=2.81D-03 DE=-4.56D-03 OVMax= 1.29D-02

 Cycle  13  Pass 1  IDiag  1:
 E= -764.440932752546     Delta-E=       -0.000360076381 Rises=F Damp=F
 DIIS: error= 9.78D-05 at cycle   4 NSaved=   4.
 NSaved= 4 IEnMin= 4 EnMin= -764.440932752546     IErMin= 4 ErrMin= 9.78D-05
 ErrMax= 9.78D-05  0.00D+00 EMaxC= 1.00D-01 BMatC= 4.31D-06 BMatP= 4.34D-04
 IDIUse=1 WtCom= 1.00D+00 WtEn= 0.00D+00
 Coeff-Com: -0.405D-01-0.343D-01 0.116D+00 0.959D+00
 Coeff:     -0.405D-01-0.343D-01 0.116D+00 0.959D+00
 Gap=     0.163 Goal=   None    Shift=    0.000
 RMSDP=1.90D-05 MaxDP=6.26D-04 DE=-3.60D-04 OVMax= 4.76D-03

 Cycle  14  Pass 1  IDiag  1:
 E= -764.440955168018     Delta-E=       -0.000022415472 Rises=F Damp=F
 DIIS: error= 1.07D-04 at cycle   5 NSaved=   5.
 NSaved= 5 IEnMin= 5 EnMin= -764.440955168018     IErMin= 4 ErrMin= 9.78D-05
 ErrMax= 1.07D-04  0.00D+00 EMaxC= 1.00D-01 BMatC= 9.44D-06 BMatP= 4.31D-06
 IDIUse=3 WtCom= 4.91D-01 WtEn= 5.09D-01
 Coeff-Com: -0.255D+00 0.335D-01-0.374D+00 0.791D+00 0.804D+00
 Coeff-En:   0.000D+00 0.000D+00 0.000D+00 0.000D+00 0.100D+01
 Coeff:     -0.125D+00 0.165D-01-0.184D+00 0.389D+00 0.904D+00
 Gap=     0.163 Goal=   None    Shift=    0.000
 RMSDP=2.05D-05 MaxDP=1.03D-03 DE=-2.24D-05 OVMax= 3.30D-03

 Cycle  15  Pass 1  IDiag  1:
 E= -764.440970715392     Delta-E=       -0.000015547374 Rises=F Damp=F
 DIIS: error= 9.60D-05 at cycle   6 NSaved=   6.
 NSaved= 6 IEnMin= 6 EnMin= -764.440970715392     IErMin= 6 ErrMin= 9.60D-05
 ErrMax= 9.60D-05  0.00D+00 EMaxC= 1.00D-01 BMatC= 5.83D-06 BMatP= 4.31D-06
 IDIUse=1 WtCom= 1.00D+00 WtEn= 0.00D+00
 Coeff-Com: -0.103D+00 0.330D-02-0.176D+00-0.491D+00 0.785D+00 0.981D+00
 Coeff:     -0.103D+00 0.330D-02-0.176D+00-0.491D+00 0.785D+00 0.981D+00
 Gap=     0.163 Goal=   None    Shift=    0.000
 RMSDP=2.20D-05 MaxDP=9.21D-04 DE=-1.55D-05 OVMax= 5.37D-03

 Cycle  16  Pass 1  IDiag  1:
 E= -764.440985721533     Delta-E=       -0.000015006141 Rises=F Damp=F
 DIIS: error= 1.48D-05 at cycle   7 NSaved=   7.
 NSaved= 7 IEnMin= 7 EnMin= -764.440985721533     IErMin= 7 ErrMin= 1.48D-05
 ErrMax= 1.48D-05  0.00D+00 EMaxC= 1.00D-01 BMatC= 1.54D-07 BMatP= 4.31D-06
 IDIUse=1 WtCom= 1.00D+00 WtEn= 0.00D+00
 Coeff-Com:  0.425D-02 0.348D-03-0.176D-02-0.217D+00 0.868D-01 0.217D+00
 Coeff-Com:  0.911D+00
 Coeff:      0.425D-02 0.348D-03-0.176D-02-0.217D+00 0.868D-01 0.217D+00
 Coeff:      0.911D+00
 Gap=     0.163 Goal=   None    Shift=    0.000
 RMSDP=4.54D-06 MaxDP=2.26D-04 DE=-1.50D-05 OVMax= 9.37D-04

 Cycle  17  Pass 1  IDiag  1:
 E= -764.440986406833     Delta-E=       -0.000000685300 Rises=F Damp=F
 DIIS: error= 9.43D-06 at cycle   8 NSaved=   8.
 NSaved= 8 IEnMin= 8 EnMin= -764.440986406833     IErMin= 8 ErrMin= 9.43D-06
 ErrMax= 9.43D-06  0.00D+00 EMaxC= 1.00D-01 BMatC= 4.77D-08 BMatP= 1.54D-07
 IDIUse=1 WtCom= 1.00D+00 WtEn= 0.00D+00
 Coeff-Com:  0.224D-01-0.236D-02 0.403D-01 0.621D-01-0.135D+00-0.182D+00
 Coeff-Com:  0.209D+00 0.986D+00
 Coeff:      0.224D-01-0.236D-02 0.403D-01 0.621D-01-0.135D+00-0.182D+00
 Coeff:      0.209D+00 0.986D+00
 Gap=     0.163 Goal=   None    Shift=    0.000
 RMSDP=1.47D-06 MaxDP=8.39D-05 DE=-6.85D-07 OVMax= 2.91D-04

 Cycle  18  Pass 1  IDiag  1:
 E= -764.440986573652     Delta-E=       -0.000000166819 Rises=F Damp=F
 DIIS: error= 4.84D-06 at cycle   9 NSaved=   9.
 NSaved= 9 IEnMin= 9 EnMin= -764.440986573652     IErMin= 9 ErrMin= 4.84D-06
 ErrMax= 4.84D-06  0.00D+00 EMaxC= 1.00D-01 BMatC= 9.94D-09 BMatP= 4.77D-08
 IDIUse=1 WtCom= 1.00D+00 WtEn= 0.00D+00
 Coeff-Com:  0.855D-02-0.122D-02 0.151D-01 0.620D-01-0.651D-01-0.110D+00
 Coeff-Com: -0.159D+00 0.289D+00 0.960D+00
 Coeff:      0.855D-02-0.122D-02 0.151D-01 0.620D-01-0.651D-01-0.110D+00
 Coeff:     -0.159D+00 0.289D+00 0.960D+00
 Gap=     0.163 Goal=   None    Shift=    0.000
 RMSDP=9.41D-07 MaxDP=5.61D-05 DE=-1.67D-07 OVMax= 1.98D-04

 Cycle  19  Pass 1  IDiag  1:
 E= -764.440986619125     Delta-E=       -0.000000045473 Rises=F Damp=F
 DIIS: error= 1.90D-06 at cycle  10 NSaved=  10.
 NSaved=10 IEnMin=10 EnMin= -764.440986619125     IErMin=10 ErrMin= 1.90D-06
 ErrMax= 1.90D-06  0.00D+00 EMaxC= 1.00D-01 BMatC= 1.46D-09 BMatP= 9.94D-09
 IDIUse=1 WtCom= 1.00D+00 WtEn= 0.00D+00
 Coeff-Com: -0.154D-02-0.911D-04-0.363D-02-0.421D-02 0.122D-01 0.179D-01
 Coeff-Com: -0.805D-01-0.149D+00 0.244D+00 0.965D+00
 Coeff:     -0.154D-02-0.911D-04-0.363D-02-0.421D-02 0.122D-01 0.179D-01
 Coeff:     -0.805D-01-0.149D+00 0.244D+00 0.965D+00
 Gap=     0.163 Goal=   None    Shift=    0.000
 RMSDP=3.80D-07 MaxDP=2.24D-05 DE=-4.55D-08 OVMax= 7.95D-05

 Cycle  20  Pass 1  IDiag  1:
 E= -764.440986625626     Delta-E=       -0.000000006501 Rises=F Damp=F
 DIIS: error= 5.44D-07 at cycle  11 NSaved=  11.
 NSaved=11 IEnMin=11 EnMin= -764.440986625626     IErMin=11 ErrMin= 5.44D-07
 ErrMax= 5.44D-07  0.00D+00 EMaxC= 1.00D-01 BMatC= 2.05D-10 BMatP= 1.46D-09
 IDIUse=1 WtCom= 1.00D+00 WtEn= 0.00D+00
 Coeff-Com: -0.149D-02 0.720D-04-0.299D-02-0.935D-02 0.116D-01 0.214D-01
 Coeff-Com: -0.316D-02-0.825D-01-0.553D-01 0.266D+00 0.856D+00
 Coeff:     -0.149D-02 0.720D-04-0.299D-02-0.935D-02 0.116D-01 0.214D-01
 Coeff:     -0.316D-02-0.825D-01-0.553D-01 0.266D+00 0.856D+00
 Gap=     0.163 Goal=   None    Shift=    0.000
 RMSDP=1.00D-07 MaxDP=4.88D-06 DE=-6.50D-09 OVMax= 2.83D-05

 Cycle  21  Pass 1  IDiag  1:
 E= -764.440986626252     Delta-E=       -0.000000000626 Rises=F Damp=F
 DIIS: error= 2.87D-07 at cycle  12 NSaved=  12.
 NSaved=12 IEnMin=12 EnMin= -764.440986626252     IErMin=12 ErrMin= 2.87D-07
 ErrMax= 2.87D-07  0.00D+00 EMaxC= 1.00D-01 BMatC= 5.47D-11 BMatP= 2.05D-10
 IDIUse=1 WtCom= 1.00D+00 WtEn= 0.00D+00
 Coeff-Com: -0.259D-03 0.103D-03-0.542D-03-0.104D-02 0.230D-03 0.275D-02
 Coeff-Com:  0.150D-01 0.733D-02-0.675D-01-0.127D+00 0.276D+00 0.895D+00
 Coeff:     -0.259D-03 0.103D-03-0.542D-03-0.104D-02 0.230D-03 0.275D-02
 Coeff:      0.150D-01 0.733D-02-0.675D-01-0.127D+00 0.276D+00 0.895D+00
 Gap=     0.163 Goal=   None    Shift=    0.000
 RMSDP=5.16D-08 MaxDP=2.43D-06 DE=-6.26D-10 OVMax= 1.33D-05

 Cycle  22  Pass 1  IDiag  1:
 E= -764.440986626399     Delta-E=       -0.000000000147 Rises=F Damp=F
 DIIS: error= 1.02D-07 at cycle  13 NSaved=  13.
 NSaved=13 IEnMin=13 EnMin= -764.440986626399     IErMin=13 ErrMin= 1.02D-07
 ErrMax= 1.02D-07  0.00D+00 EMaxC= 1.00D-01 BMatC= 7.17D-12 BMatP= 5.47D-11
 IDIUse=1 WtCom= 1.00D+00 WtEn= 0.00D+00
 Coeff-Com:  0.827D-04 0.218D-04 0.207D-03 0.124D-02-0.156D-02-0.208D-02
 Coeff-Com:  0.424D-02 0.145D-01-0.107D-01-0.790D-01-0.650D-01 0.265D+00
 Coeff-Com:  0.873D+00
 Coeff:      0.827D-04 0.218D-04 0.207D-03 0.124D-02-0.156D-02-0.208D-02
 Coeff:      0.424D-02 0.145D-01-0.107D-01-0.790D-01-0.650D-01 0.265D+00
 Coeff:      0.873D+00
 Gap=     0.163 Goal=   None    Shift=    0.000
 RMSDP=2.06D-08 MaxDP=6.78D-07 DE=-1.47D-10 OVMax= 4.99D-06

 Cycle  23  Pass 1  IDiag  1:
 E= -764.440986626445     Delta-E=       -0.000000000046 Rises=F Damp=F
 DIIS: error= 5.11D-08 at cycle  14 NSaved=  14.
 NSaved=14 IEnMin=14 EnMin= -764.440986626445     IErMin=14 ErrMin= 5.11D-08
 ErrMax= 5.11D-08  0.00D+00 EMaxC= 1.00D-01 BMatC= 1.13D-12 BMatP= 7.17D-12
 IDIUse=1 WtCom= 1.00D+00 WtEn= 0.00D+00
 Coeff-Com:  0.690D-04-0.162D-04 0.173D-03 0.350D-03-0.405D-03-0.843D-03
 Coeff-Com: -0.117D-02 0.211D-02 0.834D-02 0.300D-02-0.577D-01-0.856D-01
 Coeff-Com:  0.132D+00 0.100D+01
 Coeff:      0.690D-04-0.162D-04 0.173D-03 0.350D-03-0.405D-03-0.843D-03
 Coeff:     -0.117D-02 0.211D-02 0.834D-02 0.300D-02-0.577D-01-0.856D-01
 Coeff:      0.132D+00 0.100D+01
 Gap=     0.163 Goal=   None    Shift=    0.000
 RMSDP=1.00D-08 MaxDP=3.89D-07 DE=-4.64D-11 OVMax= 2.16D-06

 Cycle  24  Pass 1  IDiag  1:
 E= -764.440986626497     Delta-E=       -0.000000000052 Rises=F Damp=F
 DIIS: error= 3.06D-08 at cycle  15 NSaved=  15.
 NSaved=15 IEnMin=15 EnMin= -764.440986626497     IErMin=15 ErrMin= 3.06D-08
 ErrMax= 3.06D-08  0.00D+00 EMaxC= 1.00D-01 BMatC= 3.85D-13 BMatP= 1.13D-12
 IDIUse=1 WtCom= 1.00D+00 WtEn= 0.00D+00
 Coeff-Com: -0.534D-06-0.696D-06-0.497D-05-0.158D-03 0.245D-03 0.120D-03
 Coeff-Com: -0.840D-03-0.247D-02 0.305D-02 0.154D-01 0.105D-01-0.561D-01
 Coeff-Com: -0.186D+00 0.311D-01 0.119D+01
 Coeff:     -0.534D-06-0.696D-06-0.497D-05-0.158D-03 0.245D-03 0.120D-03
 Coeff:     -0.840D-03-0.247D-02 0.305D-02 0.154D-01 0.105D-01-0.561D-01
 Coeff:     -0.186D+00 0.311D-01 0.119D+01
 Gap=     0.163 Goal=   None    Shift=    0.000
 RMSDP=7.02D-09 MaxDP=2.84D-07 DE=-5.16D-11 OVMax= 1.59D-06

 SCF Done:  E(RM062X) =  -764.440986626     A.U. after   24 cycles
            NFock= 24  Conv=0.70D-08     -V/T= 2.0036
 KE= 7.617263329113D+02 PE=-3.057879009413D+03 EE= 9.090153244154D+02
 Leave Link  502 at Sat May 24 06:32:57 2025, MaxMem=  3758096384 cpu:             185.6 elap:              48.1
 (Enter /apps/easybuild-2022/easybuild/software/Compiler/NVHPC/22.11-CUDA-11.7.0/Gaussian/g16c01-CUDA-11.7.0/g16/l508.exe)
 QCSCF skips out because SCF is already converged.
 Leave Link  508 at Sat May 24 06:32:57 2025, MaxMem=  3758096384 cpu:               0.1 elap:               0.0
 (Enter /apps/easybuild-2022/easybuild/software/Compiler/NVHPC/22.11-CUDA-11.7.0/Gaussian/g16c01-CUDA-11.7.0/g16/l801.exe)
 DoSCS=F DFT=T ScalE2(SS,OS)=  1.000000  1.000000
 Range of M.O.s used for correlation:     1   324
 NBasis=   324 NAE=    40 NBE=    40 NFC=     0 NFV=     0
 NROrb=    324 NOA=    40 NOB=    40 NVA=   284 NVB=   284

 **** Warning!!: The largest alpha MO coefficient is  0.22832713D+02

 Leave Link  801 at Sat May 24 06:32:58 2025, MaxMem=  3758096384 cpu:               0.1 elap:               0.0
 (Enter /apps/easybuild-2022/easybuild/software/Compiler/NVHPC/22.11-CUDA-11.7.0/Gaussian/g16c01-CUDA-11.7.0/g16/l1101.exe)
 Using compressed storage, NAtomX=    11.
 Will process     12 centers per pass.
   1 Symmetry operations used in ECPInt.
 ECPInt:  NShTT=    6786 NPrTT=   21959 LenC2=    6416 LenP2D=   15728.
 LDataN:  DoStor=T MaxTD1= 7 Len=  274
 Leave Link 1101 at Sat May 24 06:32:58 2025, MaxMem=  3758096384 cpu:               1.7 elap:               0.3
 (Enter /apps/easybuild-2022/easybuild/software/Compiler/NVHPC/22.11-CUDA-11.7.0/Gaussian/g16c01-CUDA-11.7.0/g16/l1102.exe)
 Symmetrizing basis deriv contribution to polar:
 IMax=3 JMax=2 DiffMx= 0.00D+00
 Leave Link 1102 at Sat May 24 06:32:58 2025, MaxMem=  3758096384 cpu:               0.1 elap:               0.1
 (Enter /apps/easybuild-2022/easybuild/software/Compiler/NVHPC/22.11-CUDA-11.7.0/Gaussian/g16c01-CUDA-11.7.0/g16/l1110.exe)
 Forming Gx(P) for the SCF density, NAtomX=    11.
 Integral derivatives from FoFJK, PRISM(SPDF).
 Do as many integral derivatives as possible in FoFJK.
 G2DrvN: MDV=    3758095115.
 G2DrvN: will do    12 centers at a time, making    1 passes.
 Calling FoFCou, ICntrl=  3107 FMM=F I1Cent=   0 AccDes= 0.00D+00.
 FoFJK:  IHMeth= 1 ICntrl=    3107 DoSepK=F KAlg= 0 I1Cent=           0 FoldK=F
 IRaf=         0 NMat=       1 IRICut=       1 DoRegI=T DoRafI=F ISym2E= 0 IDoP0=0 IntGTp=1.
 FoFCou: FMM=F IPFlag=           0 FMFlag=      100000 FMFlg1=           0
         NFxFlg=           0 DoJE=F BraDBF=F KetDBF=F FulRan=T
         wScrn=  0.000000 ICntrl=      3107 IOpCl=  0 I1Cent=           0 NGrid=           0
         NMat0=    1 NMatS0=      1 NMatT0=    0 NMatD0=    1 NMtDS0=    0 NMtDT0=    0
 Symmetry not used in FoFCou.
 End of G2Drv F.D. properties file   721 does not exist.
 End of G2Drv F.D. properties file   722 does not exist.
 End of G2Drv F.D. properties file   788 does not exist.
 Leave Link 1110 at Sat May 24 06:33:38 2025, MaxMem=  3758096384 cpu:             319.8 elap:              40.4
 (Enter /apps/easybuild-2022/easybuild/software/Compiler/NVHPC/22.11-CUDA-11.7.0/Gaussian/g16c01-CUDA-11.7.0/g16/l1002.exe)
 Minotr:  Closed shell wavefunction.
          IDoAtm=11111111111
          Direct CPHF calculation.
          Differentiating once with respect to electric field.
                with respect to dipole field.
          Differentiating once with respect to nuclear coordinates.
          Requested convergence is 1.0D-08 RMS, and 1.0D-07 maximum.
          Secondary convergence is 1.0D-12 RMS, and 1.0D-12 maximum.
          NewPWx=T KeepS1=F KeepF1=F KeepIn=T MapXYZ=F SortEE=F KeepMc=T.
         3307 words used for storage of precomputed grid.
 Keep R1 ints in memory in canonical form, NReq=1412622537.
 FoFCou: FMM=F IPFlag=           0 FMFlag=           0 FMFlg1=           0
         NFxFlg=           0 DoJE=F BraDBF=F KetDBF=F FulRan=T
         wScrn=  0.000000 ICntrl=       600 IOpCl=  0 I1Cent=           0 NGrid=           0
         NMat0=    1 NMatS0=  52650 NMatT0=    0 NMatD0=    1 NMtDS0=    0 NMtDT0=    0
 Symmetry not used in FoFCou.
 Two-electron integral symmetry not used.
          MDV=    3758096384 using IRadAn=       1.
          Solving linear equations simultaneously, MaxMat=       0.
          There are    36 degrees of freedom in the 1st order CPHF.  IDoFFX=6 NUNeed=     3.
     33 vectors produced by pass  0 Test12= 3.16D-14 2.78D-09 XBig12= 8.34D+01 6.95D+00.
 AX will form    33 AO Fock derivatives at one time.
     33 vectors produced by pass  1 Test12= 3.16D-14 2.78D-09 XBig12= 1.94D+01 7.09D-01.
     33 vectors produced by pass  2 Test12= 3.16D-14 2.78D-09 XBig12= 9.46D-01 2.22D-01.
     33 vectors produced by pass  3 Test12= 3.16D-14 2.78D-09 XBig12= 1.87D-02 1.87D-02.
     33 vectors produced by pass  4 Test12= 3.16D-14 2.78D-09 XBig12= 2.91D-04 2.42D-03.
     33 vectors produced by pass  5 Test12= 3.16D-14 2.78D-09 XBig12= 3.11D-06 2.42D-04.
     33 vectors produced by pass  6 Test12= 3.16D-14 2.78D-09 XBig12= 1.86D-08 1.28D-05.
     16 vectors produced by pass  7 Test12= 3.16D-14 2.78D-09 XBig12= 9.61D-11 1.05D-06.
      3 vectors produced by pass  8 Test12= 3.16D-14 2.78D-09 XBig12= 5.21D-13 7.70D-08.
      2 vectors produced by pass  9 Test12= 3.16D-14 2.78D-09 XBig12= 2.44D-15 6.97D-09.
 InvSVY:  IOpt=1 It=  1 EMax= 7.11D-15
 Solved reduced A of dimension   252 with    36 vectors.
 FullF1:  Do perturbations      1 to       3.
 Isotropic polarizability for W=    0.000000       58.41 Bohr**3.
 End of Minotr F.D. properties file   721 does not exist.
 End of Minotr F.D. properties file   722 does not exist.
 End of Minotr F.D. properties file   788 does not exist.
 Leave Link 1002 at Sat May 24 06:34:48 2025, MaxMem=  3758096384 cpu:             531.9 elap:              69.5
 (Enter /apps/easybuild-2022/easybuild/software/Compiler/NVHPC/22.11-CUDA-11.7.0/Gaussian/g16c01-CUDA-11.7.0/g16/l701.exe)
 ... and contract with generalized density number  0.
 Compute integral second derivatives.
   1 Symmetry operations used in ECPInt.
 ECPInt:  NShTT=    6786 NPrTT=   21959 LenC2=    6416 LenP2D=   15728.
 LDataN:  DoStor=T MaxTD1= 8 Len=  415
 Leave Link  701 at Sat May 24 06:34:48 2025, MaxMem=  3758096384 cpu:               1.0 elap:               0.2
 (Enter /apps/easybuild-2022/easybuild/software/Compiler/NVHPC/22.11-CUDA-11.7.0/Gaussian/g16c01-CUDA-11.7.0/g16/l702.exe)
 L702 exits ... SP integral derivatives will be done elsewhere.
 Leave Link  702 at Sat May 24 06:34:48 2025, MaxMem=  3758096384 cpu:               0.1 elap:               0.0
 (Enter /apps/easybuild-2022/easybuild/software/Compiler/NVHPC/22.11-CUDA-11.7.0/Gaussian/g16c01-CUDA-11.7.0/g16/l703.exe)
 Integral derivatives from FoFJK, PRISM(SPDF).
 Compute integral second derivatives, UseDBF=F ICtDFT=           0.
 Calling FoFJK, ICntrl=    100127 FMM=F ISym2X=0 I1Cent= 0 IOpClX= 0 NMat=1 NMatS=1 NMatT=0.
 FoFJK:  IHMeth= 1 ICntrl=  100127 DoSepK=F KAlg= 0 I1Cent=           0 FoldK=F
 IRaf=         0 NMat=       1 IRICut=       1 DoRegI=T DoRafI=F ISym2E= 0 IDoP0=0 IntGTp=1.
 FoFCou: FMM=F IPFlag=           0 FMFlag=      100000 FMFlg1=         800
         NFxFlg=           0 DoJE=F BraDBF=F KetDBF=F FulRan=T
         wScrn=  0.000000 ICntrl=    100127 IOpCl=  0 I1Cent=           0 NGrid=           0
         NMat0=    1 NMatS0=      1 NMatT0=    0 NMatD0=    1 NMtDS0=    0 NMtDT0=    0
 Symmetry not used in FoFCou.
 Leave Link  703 at Sat May 24 06:36:18 2025, MaxMem=  3758096384 cpu:             711.9 elap:              90.2
 (Enter /apps/easybuild-2022/easybuild/software/Compiler/NVHPC/22.11-CUDA-11.7.0/Gaussian/g16c01-CUDA-11.7.0/g16/l716.exe)
 Dipole        = 6.92614196D-01 2.20081939D-01 1.51713113D+00
 Polarizability= 4.39637557D+01 2.68023396D+00 7.24667002D+01
                 9.45976467D+00 7.39828805D+00 5.88016735D+01
 -------------------------------------------------------------------
 Center     Atomic                   Forces (Hartrees/Bohr)
 Number     Number              X              Y              Z
 -------------------------------------------------------------------
      1        6          -0.004788827   -0.016518388    0.024311479
      2        8          -0.003185509    0.011576401   -0.032832540
      3        6           0.016205618   -0.003700169   -0.018717184
      4        6           0.006751077    0.011045606   -0.028948766
      5        9           0.001512511    0.003052498    0.018966082
      6        9           0.004156473   -0.010141400    0.011447282
      7        9          -0.020120232    0.001171248    0.002241167
      8        9           0.006411642   -0.007360951    0.012128060
      9        9          -0.000069828   -0.001889086   -0.000996010
     10        8          -0.006680948    0.011378240    0.015956053
     11        1          -0.000191977    0.001386001   -0.003555623
 -------------------------------------------------------------------
 Cartesian Forces:  Max     0.032832540 RMS     0.012869012
 Force constants in Cartesian coordinates: 
                1             2             3             4             5 
      1  0.204627D+00
      2 -0.113429D+00  0.594964D+00
      3 -0.891540D-02  0.115985D-01  0.761069D+00
      4 -0.962471D-01  0.182615D+00  0.829087D-01  0.295029D-01
      5  0.504747D-01 -0.282569D+00 -0.240394D+00 -0.126325D+00  0.369329D+00
      6  0.288261D-01 -0.852486D-01 -0.296447D+00 -0.132065D+00  0.267239D+00
      7 -0.787077D-01  0.290024D-01 -0.451951D-01  0.518621D-01  0.251939D-01
      8  0.517826D-01 -0.210635D+00  0.136868D+00 -0.279499D-01 -0.746225D-01
      9 -0.165816D-01  0.722295D-01 -0.953142D-01  0.521984D-02 -0.421894D-01
     10  0.116349D-01 -0.943290D-03 -0.146559D-01 -0.588112D-02  0.190540D-03
     11 -0.764392D-03 -0.159366D-02  0.343793D-01 -0.671383D-03 -0.429046D-05
     12  0.137591D-01 -0.322170D-01 -0.116227D-01  0.272153D-01  0.184680D-01
     13 -0.144346D-02  0.188404D-02  0.199159D-02 -0.243762D-03 -0.215594D-03
     14 -0.143532D-02  0.155293D-02 -0.125617D-02 -0.164002D-05  0.125327D-02
     15 -0.129965D-02  0.469250D-02 -0.536954D-03 -0.357656D-02 -0.311975D-02
     16  0.409152D-03 -0.207605D-02  0.587734D-03  0.328860D-02  0.595275D-03
     17 -0.106955D-02  0.323280D-02 -0.322197D-02 -0.526452D-02 -0.569587D-02
     18 -0.431120D-02  0.109799D-01  0.405928D-02 -0.602384D-02 -0.195883D-02
     19 -0.295873D-02  0.581192D-02  0.900457D-03 -0.429509D-02 -0.290054D-02
     20 -0.931168D-03  0.219438D-02 -0.125590D-02 -0.119440D-03 -0.226507D-03
     21 -0.266118D-02  0.864662D-02 -0.393344D-03 -0.921407D-02 -0.526310D-02
     22  0.181734D-01 -0.131263D+00 -0.362277D-01  0.106851D-01  0.491691D-01
     23 -0.230784D-01  0.613471D-01  0.123351D-01 -0.247004D-01 -0.234719D-01
     24 -0.890637D-02 -0.549809D-01 -0.218296D-01  0.380709D-02  0.188407D-01
     25 -0.306689D-02  0.188782D-01  0.268217D-01 -0.802548D-02  0.326933D-02
     26  0.343684D-01 -0.532956D-01 -0.576059D-01  0.183641D-01  0.662446D-02
     27  0.173231D-01 -0.429576D-01 -0.201237D-01  0.178101D-01  0.197243D-01
     28 -0.504184D-01  0.544685D-02 -0.625783D-02  0.229726D-01  0.135663D-02
     29  0.363971D-02 -0.103380D+00  0.100709D+00 -0.167097D-01  0.104767D-01
     30 -0.115971D-01  0.604654D-01 -0.305604D+00  0.102832D-01 -0.302742D-01
     31 -0.200183D-02  0.407296D-02 -0.195820D-02 -0.361866D-02 -0.808640D-03
     32  0.442213D-03 -0.118189D-01  0.784370D-02  0.762448D-03 -0.109322D-02
     33 -0.563580D-02  0.467917D-01 -0.132570D-01  0.363482D-02 -0.107335D-02
                6             7             8             9            10 
      6  0.338676D+00
      7  0.440815D-01  0.237884D+00
      8 -0.917450D-01 -0.191344D+00  0.677153D+00
      9  0.428759D-02 -0.109680D+00  0.276246D-02  0.627253D+00
     10  0.564325D-02 -0.612499D-01  0.419680D-02  0.149133D-01  0.583505D+00
     11 -0.369411D-02 -0.119064D-02 -0.861106D-01  0.664344D-01 -0.333792D-01
     12  0.290907D-01 -0.151186D-02  0.636795D-01 -0.175375D+00 -0.808691D-03
     13 -0.598421D-03  0.396679D-02 -0.148020D-01  0.693104D-03 -0.958551D-01
     14  0.228557D-02 -0.101058D-01 -0.417152D-01  0.410640D-03 -0.685635D-01
     15 -0.468763D-02  0.115059D-01  0.272808D-01  0.376741D-03  0.920424D-02
     16  0.751731D-03 -0.780545D-02  0.130386D-01  0.106041D-01 -0.170579D+00
     17  0.232452D-02  0.287866D-02  0.280892D-02 -0.297484D-02  0.733522D-01
     18 -0.105683D-01  0.301344D-01 -0.277825D-01 -0.203133D-01  0.100151D+00
     19 -0.574559D-02 -0.735777D-02  0.335262D-02 -0.134892D-01 -0.262996D+00
     20 -0.835978D-03  0.130130D-01  0.215401D-02  0.903224D-02  0.158405D-01
     21 -0.780144D-02 -0.351591D-01  0.744335D-02 -0.231665D-01 -0.133697D+00
     22  0.561036D-01 -0.439184D-01  0.451573D-01  0.349774D-02 -0.301474D-02
     23 -0.422323D-01  0.202276D-01 -0.236963D-01  0.318762D-02  0.416351D-02
     24  0.113244D-01 -0.101619D-01  0.233925D-01 -0.142125D-03 -0.113230D-02
     25 -0.754902D-02 -0.101071D+00  0.106691D+00  0.111588D+00  0.115645D-02
     26  0.267578D-01  0.102660D+00 -0.215474D+00 -0.158889D+00 -0.373415D-03
     27  0.258778D-01  0.109868D+00 -0.154331D+00 -0.269985D+00  0.210916D-01
     28  0.110644D-01  0.342189D-02  0.103966D-01 -0.678992D-02  0.189554D-02
     29 -0.689723D-01  0.963202D-02 -0.300580D-01  0.511568D-01  0.488567D-02
     30 -0.980393D-01  0.777611D-02  0.836289D-02 -0.407324D-01  0.820674D-04
     31 -0.512755D-03  0.297502D-02 -0.519535D-03  0.242610D-04  0.138392D-02
     32 -0.587885D-02  0.332836D-04  0.195401D-03 -0.115996D-02  0.630196D-03
     33  0.828745D-02 -0.165810D-02  0.406884D-02 -0.688894D-02 -0.790945D-03
               11            12            13            14            15 
     11  0.547228D+00
     12 -0.154687D-01  0.605686D+00
     13 -0.623245D-01  0.717093D-02  0.127827D+00
     14 -0.258263D+00  0.142893D-01  0.108991D+00  0.388648D+00
     15  0.171953D-01 -0.789323D-01  0.105734D-01  0.318992D-01  0.761851D-01
     16  0.675052D-01  0.954038D-01  0.156112D-01  0.164670D-01  0.398908D-02
     17 -0.126482D+00 -0.626513D-01  0.298845D-01 -0.772309D-01 -0.480486D-01
     18 -0.632934D-01 -0.173679D+00  0.657576D-02 -0.346497D-01 -0.135598D-03
     19  0.156122D-01 -0.121919D+00 -0.508986D-01 -0.444375D-01 -0.321558D-01
     20 -0.710992D-01  0.137356D-01 -0.612133D-01 -0.168741D-01 -0.315417D-01
     21  0.125735D-01 -0.163605D+00 -0.266847D-01 -0.204163D-01  0.406490D-02
     22  0.262116D-02 -0.297886D-01  0.833357D-03 -0.149699D-02  0.460228D-02
     23  0.317771D-03  0.133971D-01 -0.127419D-02 -0.977855D-03 -0.186485D-02
     24 -0.230797D-02 -0.160631D-01  0.232853D-03 -0.246217D-03  0.275482D-02
     25  0.923352D-02  0.124571D-01 -0.445884D-04 -0.417009D-03 -0.216376D-02
     26 -0.176934D-02 -0.114721D-01  0.469520D-03  0.569833D-02  0.265949D-02
     27 -0.395962D-01 -0.296234D-01 -0.792016D-03  0.322968D-02  0.346433D-02
     28  0.239026D-02 -0.251783D-02  0.282809D-03  0.753145D-03 -0.290788D-03
     29 -0.171506D-02 -0.335857D-02 -0.148545D-02 -0.275367D-02  0.132753D-02
     30 -0.798296D-02  0.151839D-01  0.706354D-03  0.458533D-02 -0.263871D-02
     31  0.967841D-03  0.539603D-03 -0.353159D-04  0.246389D-03 -0.388425D-03
     32 -0.509588D-03  0.159808D-02  0.857730D-04  0.662250D-03 -0.479997D-03
     33  0.176085D-02 -0.106027D-02  0.131106D-03 -0.131403D-03  0.852857D-04
               16            17            18            19            20 
     16  0.249247D+00
     17 -0.130352D+00  0.201747D+00
     18 -0.130309D+00  0.111281D+00  0.184386D+00
     19 -0.863154D-01  0.316602D-01 -0.476702D-02  0.405993D+00
     20  0.403244D-01  0.204863D-02  0.306577D-02 -0.521850D-02  0.944978D-01
     21  0.150669D-01 -0.411427D-02  0.219155D-01  0.178937D+00 -0.176160D-02
     22 -0.401816D-02  0.127196D-03  0.698158D-02  0.759677D-02  0.152037D-03
     23 -0.247576D-02 -0.332783D-02 -0.241832D-02 -0.466387D-02 -0.137605D-01
     24  0.579609D-04  0.304797D-02  0.440720D-02  0.229835D-02  0.367158D-02
     25  0.550205D-03 -0.136988D-02  0.770781D-03  0.591153D-03 -0.115898D-02
     26 -0.265992D-02  0.288192D-02  0.542539D-02  0.364018D-03  0.194213D-02
     27  0.292484D-02  0.407015D-02 -0.737886D-02 -0.244796D-02  0.410961D-02
     28 -0.327543D-03  0.311087D-03  0.797202D-03  0.680208D-03 -0.440296D-03
     29 -0.440022D-03 -0.405088D-04 -0.248785D-03  0.578154D-03 -0.103785D-02
     30  0.985114D-03  0.495374D-03 -0.318237D-02 -0.170659D-02  0.192061D-02
     31 -0.611211D-04 -0.157533D-03  0.000000D+00 -0.391750D-04 -0.248249D-03
     32  0.736784D-04  0.577893D-04 -0.400295D-03 -0.158736D-03  0.161246D-03
     33 -0.620519D-04 -0.207737D-03  0.489425D-03  0.955444D-04 -0.140198D-03
               21            22            23            24            25 
     21  0.165416D+00
     22  0.987321D-02  0.228821D-02
     23 -0.596816D-03  0.337241D-01  0.328813D-02
     24  0.481404D-02  0.117880D-01  0.982362D-02  0.256439D-01
     25  0.133847D-02  0.110925D-01 -0.359094D-02  0.225226D-02  0.978841D-01
     26  0.165814D-02 -0.188079D-01  0.809419D-02 -0.834720D-02 -0.128031D+00
     27  0.258271D-02 -0.209622D-01  0.710594D-02 -0.756292D-02 -0.138669D+00
     28  0.181022D-02 -0.599105D-03  0.260271D-02 -0.118623D-02  0.161936D-02
     29  0.210521D-02  0.213373D-01 -0.791275D-02  0.805785D-02 -0.233278D-02
     30 -0.394649D-02 -0.238116D-02 -0.252233D-04 -0.241131D-02 -0.824609D-02
     31  0.390690D-03  0.881189D-03 -0.934420D-03  0.950326D-03 -0.686112D-03
     32 -0.274715D-03 -0.720044D-03  0.999611D-04 -0.951957D-03 -0.117143D-02
     33  0.119326D-03 -0.348665D-02  0.128816D-02 -0.935281D-03  0.139882D-02
               26            27            28            29            30 
     26  0.238699D+00
     27  0.193689D+00  0.289525D+00
     28 -0.611242D-02 -0.573526D-02  0.357159D-01
     29  0.548271D-02  0.435667D-02 -0.878712D-01  0.630656D+00
     30  0.828045D-02  0.139082D-01  0.104114D-01 -0.100122D+00  0.469932D+00
     31 -0.241147D-03 -0.411697D-03 -0.152433D-01  0.687664D-01 -0.631327D-02
     32  0.111677D-02  0.599786D-03  0.711667D-01 -0.499717D+00  0.542943D-01
     33 -0.215527D-02 -0.684312D-03 -0.130531D-02  0.498852D-02 -0.424692D-01
               31            32            33 
     31  0.164453D-01
     32 -0.711440D-01  0.510846D+00
     33  0.767856D-02 -0.551901D-01  0.563135D-01
 FormGI is forming the generalized inverse of G from B-inverse, IUseBI=4.
 Force constants in internal coordinates: 
                1             2             3             4             5 
      1  0.622910D+00
      2  0.119427D+00  0.439584D+00
      3  0.718149D-01  0.342642D-01  0.469627D+00
      4  0.116534D+00 -0.526614D-01  0.123309D-01  0.667251D-02
      5  0.171389D-01  0.160125D-01 -0.395885D-02 -0.124005D-01  0.290718D+00
      6 -0.380544D-01  0.333147D-01  0.126077D-01  0.331930D-01  0.200476D-01
      7 -0.105631D-02  0.115618D-02  0.487716D-02  0.603797D-03  0.238521D-01
      8 -0.481246D-02  0.499779D-02  0.188501D-02  0.788648D-02  0.218169D-01
      9 -0.996161D-02  0.292360D-02  0.359750D-02  0.125591D-01  0.309163D-01
     10 -0.572466D-02 -0.136494D-02  0.633327D-02 -0.947900D-03  0.265283D-03
     11 -0.325523D-01  0.677164D-01 -0.515427D-01  0.402471D-01  0.383489D-01
     12  0.939210D-01 -0.735999D-01  0.261327D-01 -0.407743D-01 -0.233439D-01
     13 -0.620806D-01  0.810679D-02  0.258432D-01  0.157444D-02 -0.140187D-01
     14 -0.857995D-01  0.853135D-01 -0.591249D-02  0.134923D+00  0.339393D-01
     15  0.965899D-02  0.425860D-01  0.893416D-02 -0.771909D-02  0.409792D-01
     16  0.145323D-02 -0.621836D-02 -0.968178D-02  0.498367D-02 -0.319764D-01
     17 -0.111994D-01 -0.366396D-01  0.758543D-03  0.283870D-02 -0.912749D-02
     18 -0.115008D-01 -0.472420D-02  0.351588D-02  0.996432D-02  0.105621D-01
     19 -0.576977D-02  0.107187D-01  0.137935D-02  0.404463D-02  0.261604D-01
     20  0.869460D-02  0.146118D-01  0.394312D-02  0.593471D-03  0.227990D-01
     21  0.347938D-02 -0.727422D-02 -0.276141D-02 -0.496219D-02 -0.221454D-01
     22 -0.705258D-03 -0.995257D-02 -0.410621D-02 -0.304526D-02 -0.240769D-01
     23  0.614296D-02 -0.638064D-02 -0.296482D-02 -0.784639D-02 -0.205927D-01
     24 -0.854577D-02  0.933739D-02  0.470481D-01  0.687664D-02  0.133902D-02
     25  0.560738D-02 -0.410816D-01 -0.330025D-02 -0.172632D-01 -0.185659D-01
     26 -0.477730D-02 -0.258104D-01  0.262666D-02 -0.103669D-01 -0.135362D-01
     27 -0.108201D-01 -0.449885D-02  0.197743D-02  0.599584D-02 -0.491616D-02
     28 -0.776535D-02  0.506603D-02  0.160682D-02  0.260079D-02 -0.698996D-03
     29 -0.151731D-01 -0.117715D-01 -0.404441D-02  0.324625D-02 -0.890007D-02
     30 -0.121183D-01 -0.220660D-02 -0.441502D-02 -0.148798D-03 -0.468291D-02
     31  0.502548D-02 -0.111941D-01  0.270843D-02 -0.636499D-02 -0.514550D-02
     32 -0.297463D-02  0.986354D-02  0.360007D-03  0.438868D-02  0.498489D-02
     33  0.504062D-02  0.654201D-02 -0.478357D-04 -0.382403D-02  0.292397D-02
     34 -0.248279D-02  0.108290D-02 -0.182235D-03 -0.442985D-03 -0.451101D-03
     35  0.820323D-02  0.127906D-01  0.780625D-04 -0.735277D-02  0.109754D-01
     36  0.238126D-02 -0.200055D-02  0.702284D-04 -0.545213D-03 -0.163199D-02
     37 -0.514215D-02 -0.745966D-02 -0.641706D-04  0.283583D-02 -0.500706D-02
     38  0.554387D-02  0.424803D-02  0.196127D-03 -0.407395D-02  0.641939D-02
                6             7             8             9            10 
      6  0.539969D+00
      7  0.559598D-02  0.430049D+00
      8 -0.120181D-02  0.628010D-01  0.461426D+00
      9  0.494888D-03  0.643906D-01  0.611358D-01  0.500237D+00
     10 -0.177109D-02 -0.608956D-03 -0.263962D-03 -0.322594D-03  0.527175D+00
     11 -0.254575D-02  0.234822D-02 -0.287702D-02 -0.929294D-02  0.312336D-02
     12  0.167192D-01 -0.315300D-02  0.250277D-02  0.427381D-02 -0.746333D-02
     13 -0.152828D-01  0.943078D-03  0.503033D-03  0.453304D-02  0.423690D-02
     14 -0.290202D-01  0.305571D-02  0.117311D-05 -0.962262D-02 -0.159724D-02
     15 -0.364074D-01  0.120729D-01 -0.667634D-02  0.384211D-02  0.419014D-03
     16  0.202678D-01 -0.347032D-02 -0.573699D-02 -0.342565D-02 -0.935061D-03
     17  0.161482D-01 -0.865948D-02  0.123933D-01 -0.362866D-03  0.516285D-03
     18 -0.113857D-01  0.319198D-02 -0.346056D-01 -0.361264D-01 -0.616970D-03
     19  0.120763D-01 -0.332388D-01 -0.404238D-02 -0.356670D-01 -0.480102D-03
     20 -0.173375D-02 -0.335199D-01 -0.353882D-01  0.355423D-03 -0.137768D-03
     21  0.445043D-04  0.351653D-01  0.422015D-01  0.376488D-03  0.454172D-03
     22  0.297201D-03  0.358864D-01  0.157431D-02  0.417095D-01  0.528146D-03
     23  0.286520D-03  0.217719D-02  0.376193D-01  0.362017D-01  0.385565D-03
     24 -0.395435D-02 -0.363836D-04 -0.349123D-03 -0.205587D-03  0.251990D-01
     25  0.326951D-02 -0.295791D-02 -0.407104D-03  0.251335D-03 -0.537108D-03
     26 -0.573087D-02 -0.194749D-02  0.550510D-03 -0.254998D-02 -0.874737D-03
     27 -0.392370D-02 -0.194768D-02  0.218756D-02 -0.173717D-02 -0.202039D-03
     28 -0.454221D-02  0.731764D-04  0.256995D-02 -0.346064D-02 -0.220910D-03
     29  0.197197D-02 -0.255682D-02  0.104876D-02  0.102340D-02  0.122772D-02
     30  0.135346D-02 -0.535962D-03  0.143115D-02 -0.700071D-03  0.120885D-02
     31  0.369837D-02 -0.301908D-03 -0.206298D-03  0.190806D-02  0.133851D-02
     32 -0.369454D-02  0.821496D-03  0.329036D-03 -0.212378D-02  0.100536D-02
     33 -0.329627D-02  0.451091D-03 -0.218248D-01  0.236445D-01  0.113173D-03
     34 -0.315984D-02  0.254617D-01  0.515471D-02 -0.252934D-01 -0.620389D-04
     35  0.552793D-02 -0.252260D-01  0.244334D-01 -0.457589D-02 -0.356842D-04
     36 -0.254264D-02 -0.138605D-02 -0.225411D-01  0.252066D-01  0.100534D-03
     37 -0.240621D-02  0.236245D-01  0.443838D-02 -0.237313D-01 -0.746782D-04
     38  0.628156D-02 -0.270632D-01  0.237170D-01 -0.301380D-02 -0.483235D-04
               11            12            13            14            15 
     11  0.187816D+00
     12 -0.112209D+00  0.195111D+00
     13 -0.735201D-01 -0.839195D-01  0.156883D+00
     14  0.100016D-01  0.149487D-01 -0.251227D-01  0.421739D-01
     15  0.706086D-01 -0.469447D-01 -0.219280D-01  0.528888D-01  0.198314D+00
     16 -0.246727D-01  0.179722D-01  0.570697D-02 -0.280350D-01 -0.101591D+00
     17 -0.466433D-01  0.293233D-01  0.165484D-01 -0.256115D-01 -0.972110D-01
     18 -0.260709D-01  0.126925D-01  0.129695D-01 -0.162957D-01 -0.966916D-02
     19  0.187493D-01 -0.796455D-02 -0.113269D-01 -0.333477D-02  0.190063D-01
     20  0.303274D-01 -0.168979D-01 -0.121051D-01  0.359718D-01  0.279031D-01
     21 -0.792397D-02  0.481612D-02  0.322559D-02 -0.682189D-03 -0.154968D-01
     22 -0.175573D-01  0.962003D-02  0.723373D-02 -0.177366D-01 -0.194243D-01
     23 -0.222198D-02  0.221896D-03  0.212526D-02 -0.121464D-02 -0.800490D-02
     24 -0.270501D-02 -0.186039D-01  0.211091D-01 -0.721793D-02  0.477796D-02
     25 -0.534677D-01  0.354723D-01  0.149409D-01 -0.239207D-01 -0.498767D-01
     26 -0.480545D-01  0.217599D-01  0.266752D-01 -0.275703D-01 -0.407981D-01
     27 -0.319793D-01  0.242342D-01  0.831752D-02 -0.285074D-01 -0.221612D-01
     28 -0.814600D-02  0.122843D-01 -0.260773D-02 -0.349754D-02 -0.434088D-02
     29 -0.331808D-01  0.114967D-01  0.189171D-01 -0.286038D-01 -0.285873D-01
     30 -0.934750D-02 -0.453172D-03  0.799180D-02 -0.359391D-02 -0.107670D-01
     31 -0.156286D-01  0.744693D-02  0.655270D-02  0.976833D-03 -0.912870D-02
     32  0.164258D-01 -0.105851D-01 -0.397946D-02  0.812174D-03  0.902154D-02
     33  0.166400D-01 -0.910590D-02 -0.662532D-02  0.216781D-01  0.120713D-01
     34  0.687347D-03  0.670167D-03 -0.950140D-03  0.707394D-02 -0.185041D-02
     35  0.371160D-01 -0.190119D-01 -0.168972D-01  0.316799D-01  0.249976D-01
     36 -0.566087D-02  0.209530D-02  0.355781D-02 -0.219400D-02 -0.536099D-02
     37 -0.216135D-01  0.118714D-01  0.923300D-02 -0.167981D-01 -0.192827D-01
     38  0.148152D-01 -0.781067D-02 -0.671406D-02  0.780789D-02  0.756532D-02
               16            17            18            19            20 
     16  0.152566D+00
     17 -0.507549D-01  0.148248D+00
     18  0.824515D-02  0.148216D-02  0.175528D+00
     19 -0.242420D-01  0.523343D-02 -0.745063D-02  0.184581D+00
     20 -0.942637D-02 -0.186268D-01  0.122418D-02 -0.561689D-02  0.172879D+00
     21  0.120757D-01  0.344870D-02 -0.879931D-01 -0.905042D-01 -0.101040D-01
     22  0.982315D-02  0.975197D-02 -0.873851D-01 -0.790642D-02 -0.937000D-01
     23  0.734951D-02  0.592191D-03 -0.100771D-01 -0.938037D-01 -0.855158D-01
     24 -0.499813D-02  0.213946D-03  0.160381D-03 -0.149920D-02  0.153485D-03
     25  0.284970D-01  0.218481D-01  0.125561D-01 -0.146048D-02 -0.244026D-01
     26  0.224944D-01  0.186107D-01  0.112500D-01 -0.642768D-02 -0.167984D-01
     27  0.904055D-02  0.133282D-01  0.282046D-02 -0.905554D-02  0.177442D-02
     28  0.304700D-02  0.105730D-02  0.912158D-03 -0.909668D-02  0.701647D-02
     29  0.137502D-01  0.151995D-01  0.405939D-02 -0.441437D-02 -0.519345D-02
     30  0.775670D-02  0.292861D-02  0.215108D-02 -0.445551D-02  0.485952D-04
     31  0.470007D-02  0.455370D-02  0.350609D-02  0.704916D-03 -0.652092D-02
     32 -0.412208D-02 -0.503123D-02 -0.169818D-02 -0.905430D-03  0.496909D-02
     33 -0.483147D-02 -0.748630D-02  0.613509D-03 -0.115021D-01  0.138628D-01
     34  0.185680D-03  0.149314D-02  0.659023D-02 -0.884117D-02 -0.199673D-02
     35 -0.168941D-01 -0.848328D-02 -0.120629D-01  0.768044D-02  0.166320D-01
     36  0.522292D-02  0.312409D-03  0.258191D-02 -0.121071D-01  0.901838D-02
     37  0.102401D-01  0.929185D-02  0.855863D-02 -0.944616D-02 -0.684116D-02
     38 -0.683974D-02 -0.684575D-03 -0.100945D-01  0.707544D-02  0.117876D-01
               21            22            23            24            25 
     21  0.152512D+00
     22  0.270929D-01  0.155257D+00
     23  0.311922D-01  0.292611D-01  0.148608D+00
     24  0.446656D-03  0.339640D-03  0.552496D-03  0.163479D+00
     25  0.396145D-02  0.143943D-01 -0.223391D-02 -0.113115D-02  0.585244D-01
     26  0.515201D-02  0.104452D-01 -0.115485D-02 -0.479922D-03  0.395953D-01
     27  0.489467D-02  0.262388D-02 -0.213419D-02 -0.118306D-02  0.157817D-01
     28  0.393131D-02 -0.245372D-02 -0.104885D-03 -0.987251D-03  0.195504D-03
     29  0.354957D-02  0.624688D-02 -0.302805D-02  0.185870D-02  0.323908D-01
     30  0.258622D-02  0.116928D-02 -0.998743D-03  0.205451D-02  0.168046D-01
     31 -0.116864D-03  0.306674D-02 -0.957292D-04  0.155374D-02  0.109098D-01
     32 -0.152780D-03 -0.318062D-02  0.486882D-03  0.616850D-04 -0.139658D-01
     33 -0.344797D-01  0.302100D-01  0.781416D-03  0.541351D-03 -0.122302D-01
     34  0.382036D-01 -0.198825D-02 -0.293201D-01  0.220431D-03  0.720913D-03
     35 -0.298088D-03 -0.440337D-01  0.280083D-01 -0.110795D-03 -0.231038D-01
     36 -0.333555D-01  0.350680D-01 -0.985707D-03  0.238662D-03  0.279040D-02
     37  0.393278D-01  0.286971D-02 -0.310872D-01 -0.822572D-04  0.157415D-01
     38  0.826148D-03 -0.391758D-01  0.262411D-01 -0.413483D-03 -0.808320D-02
               26            27            28            29            30 
     26  0.452055D-01
     27  0.208088D-01  0.151199D-01
     28  0.105000D-01  0.813386D-02  0.157513D-01
     29  0.155933D-01  0.858923D-02 -0.343857D-02  0.257527D-01
     30  0.528447D-02  0.160318D-02  0.417882D-02  0.137249D-01  0.163006D-01
     31  0.548609D-03 -0.868311D-03 -0.500340D-02  0.922389D-02  0.508881D-02
     32 -0.178236D-02 -0.403968D-03  0.395796D-02 -0.117604D-01 -0.739849D-02
     33 -0.681136D-02 -0.889092D-03  0.722797D-02 -0.595575D-02  0.216131D-02
     34  0.340999D-02  0.129406D-02  0.680303D-02 -0.150714D-02  0.400183D-02
     35 -0.168242D-01 -0.744025D-02  0.500161D-02 -0.133310D-01 -0.889106D-03
     36  0.313081D-02  0.569497D-02  0.596235D-04  0.547883D-02 -0.156517D-03
     37  0.133522D-01  0.787812D-02 -0.365321D-03  0.992745D-02  0.168400D-02
     38 -0.688204D-02 -0.856186D-03 -0.216674D-02 -0.189638D-02 -0.320694D-02
               31            32            33            34            35 
     31  0.101105D-01
     32 -0.186274D-02  0.116828D-01
     33 -0.381353D-02  0.365524D-02  0.409228D-01
     34 -0.101778D-02  0.165406D-02 -0.105641D-01  0.371175D-01
     35 -0.582588D-02  0.558331D-02 -0.758932D-02 -0.113209D-01  0.461778D-01
     36  0.129135D-03 -0.480652D-03  0.332568D-01 -0.158072D-01 -0.196089D-01
     37  0.292489D-02 -0.248184D-02 -0.182301D-01  0.318744D-01 -0.233404D-01
     38 -0.188321D-02  0.144742D-02 -0.152553D-01 -0.165640D-01  0.341583D-01
               36            37            38 
     36  0.387096D-01
     37 -0.103544D-01  0.397501D-01
     38 -0.141561D-01 -0.154647D-01  0.352575D-01
 Leave Link  716 at Sat May 24 06:36:19 2025, MaxMem=  3758096384 cpu:               0.1 elap:               0.1
 (Enter /apps/easybuild-2022/easybuild/software/Compiler/NVHPC/22.11-CUDA-11.7.0/Gaussian/g16c01-CUDA-11.7.0/g16/l103.exe)

 GradGradGradGradGradGradGradGradGradGradGradGradGradGradGradGradGradGrad
 Berny optimization.
 Red2BG is reusing G-inverse.
 Internal  Forces:  Max     0.027190885 RMS     0.011657384
 Search for a saddle point.
 Step number   1 out of a maximum of  100
 All quantities printed in internal units (Hartrees-Bohrs-Radians)
 Swapping is turned off.
 Second derivative matrix not updated -- analytic derivatives used.
 ITU=  0
     Eigenvalues ---   -0.20783   0.00673   0.00892   0.01328   0.02561
     Eigenvalues ---    0.04089   0.05706   0.11780   0.12649   0.14763
     Eigenvalues ---    0.14986   0.17354   0.19781   0.23059   0.23656
     Eigenvalues ---    0.24119   0.26572   0.32128   0.38945   0.40421
     Eigenvalues ---    0.44506   0.46352   0.53123   0.55984   0.62604
     Eigenvalues ---    0.64867   0.73759
 Eigenvectors required to have negative eigenvalues:
                          R4        A4        R1        R2        A2
   1                   -0.65085   0.60507   0.22390  -0.20122  -0.16874
                          A1        D3        D11       D5        R6
   1                    0.12643   0.11911  -0.09376   0.08618   0.07740
 RFO step:  Lambda0=1.426380881D-05 Lambda=-2.17150298D-02.
 Linear search not attempted -- option 19 set.
 Iteration  1 RMS(Cart)=  0.09149348 RMS(Int)=  0.01166734
 Iteration  2 RMS(Cart)=  0.02140369 RMS(Int)=  0.00067529
 Iteration  3 RMS(Cart)=  0.00043370 RMS(Int)=  0.00053394
 Iteration  4 RMS(Cart)=  0.00000019 RMS(Int)=  0.00053394
 ITry= 1 IFail=0 DXMaxC= 3.65D-01 DCOld= 1.00D+10 DXMaxT= 3.00D-01 DXLimC= 3.00D+00 Rises=F
 Variable       Old X    -DE/DX   Delta X   Delta X   Delta X     New X
                                 (Linear)    (Quad)   (Total)
    R1        2.32688   0.01164   0.00000   0.00881   0.00881   2.33569
    R2        2.65391   0.00055   0.00000  -0.00956  -0.00956   2.64435
    R3        2.52421   0.00860   0.00000   0.00395   0.00395   2.52816
    R4        3.59960  -0.01281   0.00000  -0.09373  -0.09373   3.50587
    R5        2.88862  -0.00223   0.00000  -0.00203  -0.00203   2.88658
    R6        2.42685  -0.00181   0.00000   0.00237   0.00237   2.42922
    R7        2.52934   0.00402   0.00000  -0.00302  -0.00302   2.52632
    R8        2.49767   0.00123   0.00000  -0.01838  -0.01838   2.47929
    R9        2.46908   0.01623   0.00000   0.01791   0.01791   2.48698
   R10        1.82512  -0.00172   0.00000  -0.00113  -0.00113   1.82399
    A1        2.15555  -0.01363   0.00000  -0.10960  -0.10961   2.04594
    A2        2.07035   0.02411   0.00000   0.10448   0.10453   2.17488
    A3        2.04450  -0.01016   0.00000   0.00611   0.00617   2.05066
    A4        1.67491  -0.00304   0.00000  -0.05253  -0.05253   1.62238
    A5        2.12237   0.02350   0.00000   0.07641   0.07634   2.19871
    A6        2.12818  -0.01260   0.00000  -0.02740  -0.02747   2.10071
    A7        2.03204  -0.01095   0.00000  -0.04833  -0.04839   1.98365
    A8        1.93563  -0.02719   0.00000  -0.07941  -0.08093   1.85470
    A9        1.98409  -0.01690   0.00000  -0.02429  -0.02488   1.95921
   A10        1.98177  -0.00719   0.00000  -0.03378  -0.03475   1.94702
   A11        1.83765   0.02112   0.00000   0.05762   0.05655   1.89420
   A12        1.84281   0.01606   0.00000   0.04272   0.04078   1.88358
   A13        1.87083   0.01936   0.00000   0.05102   0.05085   1.92167
   A14        1.92080  -0.00622   0.00000  -0.02915  -0.02915   1.89165
    D1       -0.78432  -0.01646   0.00000  -0.23140  -0.23108  -1.01540
    D2        2.18098  -0.01506   0.00000  -0.22287  -0.22319   1.95780
    D3       -0.35782   0.00041   0.00000   0.07839   0.07836  -0.27946
    D4        2.82212   0.00217   0.00000   0.05728   0.05716   2.87928
    D5        2.95764  -0.00420   0.00000   0.06051   0.06063   3.01827
    D6       -0.14560  -0.00244   0.00000   0.03940   0.03943  -0.10617
    D7       -0.03385  -0.00038   0.00000  -0.00133  -0.00178  -0.03563
    D8        2.94266   0.00030   0.00000  -0.00596  -0.00551   2.93714
    D9       -2.37537   0.00245   0.00000   0.02105   0.02145  -2.35392
   D10       -0.30880  -0.00100   0.00000   0.02261   0.02302  -0.28578
   D11        1.83618   0.00590   0.00000   0.04510   0.04439   1.88057
   D12        0.72988   0.00069   0.00000   0.04131   0.04164   0.77152
   D13        2.79645  -0.00275   0.00000   0.04287   0.04321   2.83966
   D14       -1.34175   0.00414   0.00000   0.06535   0.06458  -1.27717
         Item               Value     Threshold  Converged?
 Maximum Force            0.027191     0.000450     NO 
 RMS     Force            0.011657     0.000300     NO 
 Maximum Displacement     0.364546     0.001800     NO 
 RMS     Displacement     0.101617     0.001200     NO 
 Predicted change in Energy=-1.290803D-02
 Lowest energy point so far.  Saving SCF results.
 GradGradGradGradGradGradGradGradGradGradGradGradGradGradGradGradGradGrad

 Leave Link  103 at Sat May 24 06:36:19 2025, MaxMem=  3758096384 cpu:               0.1 elap:               0.0
 (Enter /apps/easybuild-2022/easybuild/software/Compiler/NVHPC/22.11-CUDA-11.7.0/Gaussian/g16c01-CUDA-11.7.0/g16/l202.exe)
                          Input orientation:                          
 ---------------------------------------------------------------------
 Center     Atomic      Atomic             Coordinates (Angstroms)
 Number     Number       Type             X           Y           Z
 ---------------------------------------------------------------------
      1          6           0        1.537694    0.211477    0.162296
      2          8           0        1.769781   -0.589609   -0.749889
      3          6           0        1.123129    1.496676   -0.204471
      4          6           0        1.252137    2.118926   -1.593522
      5          9           0        1.715472    3.358957   -1.406790
      6          9           0        2.100138    1.466970   -2.353225
      7          9           0        0.084198    2.209061   -2.193350
      8          9           0        0.055887   -0.442538   -1.444725
      9          9           0        0.593497    2.281445    0.665074
     10          8           0        1.475870   -0.110816    1.459266
     11          1           0        1.609492   -1.063064    1.543008
 ---------------------------------------------------------------------
                    Distance matrix (angstroms):
                    1          2          3          4          5
     1  C    0.000000
     2  O    1.235995   0.000000
     3  C    1.399327   2.251271   0.000000
     4  C    2.608218   2.883718   1.527514   0.000000
     5  F    3.521401   4.003204   2.294458   1.336872   0.000000
     6  F    2.867133   2.628562   2.360630   1.311984   2.150191
     7  F    3.413511   3.571739   2.354254   1.316054   2.145225
     8  F    2.281667   1.855225   2.537279   2.830945   4.148135
     9  F    2.330034   3.410090   1.285489   2.358278   2.590846
    10  O    1.337844   2.279471   2.340187   3.786993   4.506774
    11  H    1.880418   2.346748   3.137275   4.482251   5.316654
                    6          7          8          9         10
     6  F    0.000000
     7  F    2.154129   0.000000
     8  F    2.941183   2.755398   0.000000
     9  F    3.470369   2.904344   3.487171   0.000000
    10  O    4.173033   4.545348   3.249547   2.670625   0.000000
    11  H    4.671448   5.195545   3.424220   3.603991   0.965216
                   11
    11  H    0.000000
 Symmetry turned off by external request.
 Stoichiometry    C3HF5O2
 Rotational constants (GHZ):           1.8830987           1.1600229           0.9387444
 Leave Link  202 at Sat May 24 06:36:19 2025, MaxMem=  3758096384 cpu:               0.1 elap:               0.0
 (Enter /apps/easybuild-2022/easybuild/software/Compiler/NVHPC/22.11-CUDA-11.7.0/Gaussian/g16c01-CUDA-11.7.0/g16/l301.exe)
 Standard basis: def2TZVPP (5D, 7F)
 Ernie: Thresh=  0.10000D-02 Tol=  0.10000D-05 Strict=F.
   324 basis functions,   527 primitive gaussians,   375 cartesian basis functions
    40 alpha electrons       40 beta electrons
       nuclear repulsion energy       623.6582410304 Hartrees.
 IExCor= 4336 DFT=T Ex+Corr=M062X ExCW=0 ScaHFX=  0.540000
 ScaDFX=  1.000000  1.000000  1.000000  1.000000 ScalE2=  1.000000  1.000000
 IRadAn=      5 IRanWt=     -1 IRanGd=            0 ICorTp=0 IEmpDi=  4
 NAtoms=   11 NActive=   11 NUniq=   11 SFac= 1.00D+00 NAtFMM=   60 NAOKFM=F Big=F
 Integral buffers will be    131072 words long.
 Raffenetti 2 integral format.
 Two-electron integral symmetry is turned off.
 Leave Link  301 at Sat May 24 06:36:19 2025, MaxMem=  3758096384 cpu:               0.0 elap:               0.0
 (Enter /apps/easybuild-2022/easybuild/software/Compiler/NVHPC/22.11-CUDA-11.7.0/Gaussian/g16c01-CUDA-11.7.0/g16/l302.exe)
 NPDir=0 NMtPBC=     1 NCelOv=     1 NCel=       1 NClECP=     1 NCelD=      1
         NCelK=      1 NCelE2=     1 NClLst=     1 CellRange=     0.0.
 One-electron integrals computed using PRISM.
   1 Symmetry operations used in ECPInt.
 ECPInt:  NShTT=    6786 NPrTT=   21959 LenC2=    6421 LenP2D=   15746.
 LDataN:  DoStor=T MaxTD1= 6 Len=  172
 NBasis=   324 RedAO= T EigKep=  1.53D-04  NBF=   324
 NBsUse=   324 1.00D-06 EigRej= -1.00D+00 NBFU=   324
 Precomputing XC quadrature grid using
 IXCGrd= 4 IRadAn=           5 IRanWt=          -1 IRanGd=           0 AccXCQ= 0.00D+00.
 Generated NRdTot=       0 NPtTot=           0 NUsed=           0 NTot=          32
 NSgBfM=   373   373   373   373   373 MxSgAt=    11 MxSgA2=    11.
 Leave Link  302 at Sat May 24 06:36:19 2025, MaxMem=  3758096384 cpu:               1.1 elap:               0.3
 (Enter /apps/easybuild-2022/easybuild/software/Compiler/NVHPC/22.11-CUDA-11.7.0/Gaussian/g16c01-CUDA-11.7.0/g16/l303.exe)
 DipDrv:  MaxL=1.
 Leave Link  303 at Sat May 24 06:36:19 2025, MaxMem=  3758096384 cpu:               0.1 elap:               0.0
 (Enter /apps/easybuild-2022/easybuild/software/Compiler/NVHPC/22.11-CUDA-11.7.0/Gaussian/g16c01-CUDA-11.7.0/g16/l401.exe)
 Initial guess from the checkpoint file:  "/tmp/Gau-253033.chk"
 B after Tr=     0.026613   -0.010519    0.025056
         Rot=    0.999993    0.000260   -0.003129   -0.002216 Ang=   0.44 deg.
 Guess basis will be translated and rotated to current coordinates.
 JPrj=2 DoOrth=T DoCkMO=T.
 Generating alternative initial guess.
 ExpMin= 9.52D-02 ExpMax= 3.55D+04 ExpMxC= 1.21D+03 IAcc=3 IRadAn=         5 AccDes= 0.00D+00
 Harris functional with IExCor= 1009 and IRadAn=       5 diagonalized for initial guess.
 HarFok:  IExCor= 1009 AccDes= 0.00D+00 IRadAn=         5 IDoV= 1 UseB2=F ITyADJ=14
 ICtDFT=  3500011 ScaDFX=  1.000000  1.000000  1.000000  1.000000
 FoFCou: FMM=F IPFlag=           0 FMFlag=      100000 FMFlg1=           0
         NFxFlg=           0 DoJE=T BraDBF=F KetDBF=T FulRan=T
         wScrn=  0.000000 ICntrl=       500 IOpCl=  0 I1Cent=   200000004 NGrid=           0
         NMat0=    1 NMatS0=      1 NMatT0=    0 NMatD0=    1 NMtDS0=    0 NMtDT0=    0
 Symmetry not used in FoFCou.
 Harris En= -764.077840037073    
 Leave Link  401 at Sat May 24 06:36:20 2025, MaxMem=  3758096384 cpu:               3.8 elap:               0.7
 (Enter /apps/easybuild-2022/easybuild/software/Compiler/NVHPC/22.11-CUDA-11.7.0/Gaussian/g16c01-CUDA-11.7.0/g16/l502.exe)
 Keep R1 ints in memory in canonical form, NReq=1412617130.
 FoFCou: FMM=F IPFlag=           0 FMFlag=           0 FMFlg1=           0
         NFxFlg=           0 DoJE=F BraDBF=F KetDBF=F FulRan=T
         wScrn=  0.000000 ICntrl=       600 IOpCl=  0 I1Cent=           0 NGrid=           0
         NMat0=    1 NMatS0=  52650 NMatT0=    0 NMatD0=    1 NMtDS0=    0 NMtDT0=    0
 Symmetry not used in FoFCou.
 Two-electron integral symmetry not used.
 Closed shell SCF:
 Using DIIS extrapolation, IDIIS=  1040.
 NGot=  3758096384 LenX=  2371771924 LenY=  2371630858
 Requested convergence on RMS density matrix=1.00D-08 within  32 cycles.
 Requested convergence on MAX density matrix=1.00D-06.
 Requested convergence on             energy=1.00D-06.
 No special actions if energy rises.
 Integral accuracy reduced to 1.0D-05 until final iterations.

 Cycle   1  Pass 0  IDiag  1:
 E= -764.434527826254    
 DIIS: error= 2.74D-03 at cycle   1 NSaved=   1.
 NSaved= 1 IEnMin= 1 EnMin= -764.434527826254     IErMin= 1 ErrMin= 2.74D-03
 ErrMax= 2.74D-03  0.00D+00 EMaxC= 1.00D-01 BMatC= 1.39D-02 BMatP= 1.39D-02
 IDIUse=3 WtCom= 9.73D-01 WtEn= 2.74D-02
 Coeff-Com:  0.100D+01
 Coeff-En:   0.100D+01
 Coeff:      0.100D+01
 Gap=     1.012 Goal=   None    Shift=    0.000
 GapD=    1.012 DampG=2.000 DampE=1.000 DampFc=2.0000 IDamp=-1.
 RMSDP=6.29D-04 MaxDP=4.01D-02              OVMax= 4.10D-02

 Cycle   2  Pass 0  IDiag  1:
 E= -764.452204894859     Delta-E=       -0.017677068606 Rises=F Damp=F
 DIIS: error= 6.58D-04 at cycle   2 NSaved=   2.
 NSaved= 2 IEnMin= 2 EnMin= -764.452204894859     IErMin= 2 ErrMin= 6.58D-04
 ErrMax= 6.58D-04  0.00D+00 EMaxC= 1.00D-01 BMatC= 5.97D-04 BMatP= 1.39D-02
 IDIUse=3 WtCom= 9.93D-01 WtEn= 6.58D-03
 Coeff-Com: -0.116D+00 0.112D+01
 Coeff-En:   0.000D+00 0.100D+01
 Coeff:     -0.115D+00 0.111D+01
 Gap=     0.175 Goal=   None    Shift=    0.000
 RMSDP=1.71D-04 MaxDP=1.35D-02 DE=-1.77D-02 OVMax= 2.08D-02

 Cycle   3  Pass 0  IDiag  1:
 E= -764.453205244022     Delta-E=       -0.001000349163 Rises=F Damp=F
 DIIS: error= 8.02D-04 at cycle   3 NSaved=   3.
 NSaved= 3 IEnMin= 3 EnMin= -764.453205244022     IErMin= 2 ErrMin= 6.58D-04
 ErrMax= 8.02D-04  0.00D+00 EMaxC= 1.00D-01 BMatC= 4.79D-04 BMatP= 5.97D-04
 IDIUse=3 WtCom= 9.92D-01 WtEn= 8.02D-03
 Coeff-Com: -0.811D-01 0.582D+00 0.499D+00
 Coeff-En:   0.000D+00 0.000D+00 0.100D+01
 Coeff:     -0.805D-01 0.578D+00 0.503D+00
 Gap=     0.177 Goal=   None    Shift=    0.000
 RMSDP=7.43D-05 MaxDP=4.00D-03 DE=-1.00D-03 OVMax= 1.21D-02

 Cycle   4  Pass 0  IDiag  1:
 E= -764.453479317657     Delta-E=       -0.000274073634 Rises=F Damp=F
 DIIS: error= 5.71D-04 at cycle   4 NSaved=   4.
 NSaved= 4 IEnMin= 4 EnMin= -764.453479317657     IErMin= 4 ErrMin= 5.71D-04
 ErrMax= 5.71D-04  0.00D+00 EMaxC= 1.00D-01 BMatC= 1.74D-04 BMatP= 4.79D-04
 IDIUse=3 WtCom= 9.94D-01 WtEn= 5.71D-03
[...]
               11            12            13            14            15 
     11  0.146042D+00
     12 -0.802075D-01  0.161675D+00
     13 -0.669445D-01 -0.804133D-01  0.147829D+00
     14 -0.253801D-01  0.294293D-01 -0.737026D-02  0.371940D-01
     15  0.314646D-01 -0.222319D-01 -0.908746D-02  0.336544D-02  0.175470D+00
     16 -0.258890D-02  0.318124D-02 -0.708880D-03 -0.138856D-02 -0.886474D-01
     17 -0.288966D-01  0.190552D-01  0.981027D-02 -0.203269D-02 -0.868377D-01
     18 -0.158915D-01  0.743847D-02  0.819522D-02 -0.564706D-02 -0.615192D-02
     19  0.381929D-01 -0.176543D-01 -0.207884D-01 -0.321752D-03  0.412229D-01
     20 -0.828425D-02  0.185231D-02  0.656336D-02  0.125843D-02  0.211130D-02
     21 -0.984688D-02  0.555884D-02  0.433793D-02  0.162977D-02 -0.178532D-01
     22  0.462474D-03  0.235817D-03 -0.670278D-03  0.912859D-03 -0.655047D-02
     23 -0.647568D-02  0.345667D-02  0.330870D-02  0.197478D-02 -0.146910D-01
     24  0.781459D-03 -0.230994D-01  0.220539D-01 -0.704734D-02  0.460655D-02
     25  0.181998D-01 -0.666965D-02 -0.116315D-01  0.493820D-01 -0.448221D-02
     26  0.619365D-02 -0.115043D-01  0.781583D-02  0.274004D-01 -0.404144D-02
     27 -0.136093D-01  0.152373D-01 -0.814268D-03 -0.100055D-01 -0.612593D-02
     28 -0.113918D-01  0.146404D-01 -0.221331D-02 -0.470679D-02 -0.384098D-02
     29  0.163726D-02 -0.854807D-02  0.527411D-02  0.539009D-02 -0.445794D-02
     30  0.385472D-02 -0.914496D-02  0.387507D-02  0.106888D-01 -0.217299D-02
     31 -0.494378D-02  0.970376D-03  0.282353D-02  0.109330D-01 -0.207984D-02
     32  0.455431D-02 -0.405883D-02  0.785202D-03 -0.127592D-01  0.244898D-02
     33 -0.326832D-02  0.114793D-02  0.236146D-02  0.458681D-02 -0.311691D-02
     34 -0.361133D-02  0.262435D-02  0.965616D-03  0.257624D-02 -0.498933D-02
     35  0.875610D-02 -0.399757D-02 -0.447918D-02  0.588460D-02  0.675246D-02
     36 -0.520426D-02  0.162647D-02  0.361091D-02 -0.369240D-03 -0.546361D-02
     37 -0.554727D-02  0.310289D-02  0.221507D-02 -0.237981D-02 -0.733602D-02
     38  0.682015D-02 -0.351903D-02 -0.322973D-02  0.928547D-03  0.440576D-02
               16            17            18            19            20 
     16  0.159953D+00
     17 -0.712959D-01  0.158140D+00
     18  0.492069D-02  0.122029D-02  0.198663D+00
     19 -0.373423D-01 -0.388985D-02 -0.858992D-02  0.215018D+00
     20  0.398788D-02 -0.607825D-02  0.140446D-01 -0.124170D-01  0.185147D+00
     21  0.143322D-01  0.352978D-02 -0.974167D-01 -0.898306D-01 -0.167606D-01
     22  0.370323D-02  0.285257D-02 -0.860094D-01 -0.176148D-01 -0.795869D-01
     23  0.119575D-01  0.271940D-02 -0.194041D-01 -0.937548D-01 -0.925315D-01
     24 -0.534964D-02  0.742983D-03 -0.301113D-03 -0.145865D-02  0.687849D-03
     25  0.484652D-02 -0.351275D-03  0.603741D-02 -0.763040D-04 -0.387193D-02
     26  0.398609D-02  0.551705D-04  0.510865D-02 -0.336239D-02 -0.243209D-02
     27  0.236921D-02  0.379928D-02 -0.115259D-02 -0.678752D-02  0.497847D-02
     28  0.185939D-02  0.191681D-02 -0.134077D-03 -0.583265D-02  0.304438D-02
     29  0.267122D-02  0.184188D-02 -0.542538D-03 -0.339248D-02  0.402512D-02
     30  0.216140D-02 -0.405835D-04  0.475977D-03 -0.243762D-02  0.209103D-02
     31  0.733709D-03  0.135337D-02  0.237131D-02 -0.143597D-02 -0.783635D-03
     32 -0.314310D-03 -0.214406D-02 -0.972769D-03  0.122587D-02 -0.840949D-03
     33  0.282062D-02  0.255934D-03  0.189399D-02 -0.160126D-01  0.965371D-02
     34  0.177994D-02  0.316709D-02  0.108364D-01 -0.566268D-02 -0.904921D-02
     35 -0.611272D-02 -0.690987D-03 -0.985588D-02  0.153504D-01  0.279722D-02
     36  0.492404D-02  0.599651D-03  0.972614D-03 -0.171730D-01  0.115270D-01
     37  0.388336D-02  0.351080D-02  0.991507D-02 -0.682311D-02 -0.717595D-02
     38 -0.400930D-02 -0.347270D-03 -0.107773D-01  0.141900D-01  0.467048D-02
               21            22            23            24            25 
     21  0.143797D+00
     22  0.283685D-01  0.132134D+00
     23  0.339409D-01  0.290380D-01  0.143074D+00
     24  0.432860D-03  0.370494D-03  0.328870D-03  0.171072D+00
     25  0.741915D-03  0.117401D-02 -0.354395D-02 -0.942622D-03  0.856839D-03
     26  0.137547D-02  0.127583D-02 -0.148083D-02  0.107097D-03 -0.807866D-03
     27  0.259619D-02  0.582045D-03  0.462049D-04 -0.157248D-02  0.648138D-02
     28  0.171139D-02  0.486025D-04  0.133990D-02 -0.156105D-02  0.524407D-02
     29  0.169195D-02  0.399382D-03 -0.197008D-02  0.244813D-02  0.780804D-02
     30  0.807146D-03 -0.134060D-03 -0.676387D-03  0.245955D-02  0.657074D-02
     31  0.302058D-03  0.205968D-05 -0.296261D-03  0.122472D-03 -0.272797D-02
     32 -0.495870D-03  0.216226D-03  0.769972D-03 -0.927521D-03 -0.138777D-02
     33 -0.287703D-01  0.336522D-01  0.222546D-02  0.480160D-03 -0.142454D-02
     34  0.304333D-01 -0.128491D-03 -0.245785D-01 -0.549114D-04  0.356924D-02
     35 -0.192493D-02 -0.355382D-01  0.247791D-01 -0.137217D-03 -0.406459D-02
     36 -0.278512D-01  0.341642D-01  0.109284D-02  0.424067D-03 -0.227783D-03
     37  0.313524D-01  0.383483D-03 -0.257111D-01 -0.111005D-03  0.476600D-02
     38 -0.100587D-02 -0.350262D-01  0.236465D-01 -0.193310D-03 -0.286783D-02
               26            27            28            29            30 
     26  0.157827D-01
     27  0.111463D-01  0.953298D-02
     28  0.111571D-01  0.547175D-02  0.115817D-01
     29 -0.165902D-02  0.326889D-02 -0.196856D-02  0.134066D-01
     30 -0.164821D-02 -0.792340D-03  0.414142D-02  0.816912D-02  0.131029D-01
     31 -0.960989D-02 -0.247786D-02 -0.317466D-02  0.387009D-02  0.317329D-02
     32  0.673328D-02  0.855068D-03  0.176139D-02 -0.588936D-02 -0.498304D-02
     33  0.288093D-03  0.498575D-03  0.431056D-02 -0.986627D-03  0.282536D-02
     34  0.348025D-02 -0.109690D-02  0.287603D-02 -0.126999D-02  0.270294D-02
     35 -0.269797D-02 -0.205846D-02  0.280376D-02 -0.317716D-02  0.168506D-02
     36  0.308482D-03  0.429496D-02 -0.140086D-02  0.392305D-02 -0.177277D-02
     37  0.350064D-02  0.269949D-02 -0.283539D-02  0.363969D-02 -0.189519D-02
     38 -0.267758D-02  0.173792D-02 -0.290766D-02  0.173252D-02 -0.291306D-02
               31            32            33            34            35 
     31  0.764970D-02
     32  0.317515D-04  0.848585D-02
     33 -0.614667D-03  0.522403D-03  0.324408D-01
     34  0.522351D-03 -0.279676D-04 -0.116460D-01  0.302757D-01
     35 -0.148293D-02  0.120544D-02 -0.127503D-01 -0.127205D-01  0.326478D-01
     36  0.353818D-04 -0.316057D-03  0.288954D-01 -0.153659D-01 -0.173419D-01
     37  0.117240D-02 -0.866428D-03 -0.151914D-01  0.265559D-01 -0.173121D-01
     38 -0.832877D-03  0.366982D-03 -0.162957D-01 -0.164404D-01  0.280562D-01
               36            37            38 
     36  0.342581D-01
     37 -0.100033D-01  0.317440D-01
     38 -0.119793D-01 -0.121239D-01  0.323726D-01
 Leave Link  716 at Sat May 24 06:56:00 2025, MaxMem=  3758096384 cpu:               0.1 elap:               0.1
 (Enter /apps/easybuild-2022/easybuild/software/Compiler/NVHPC/22.11-CUDA-11.7.0/Gaussian/g16c01-CUDA-11.7.0/g16/l9999.exe)

 ----------------------------------------------------------------------

 Electric dipole moment (input orientation):
 (Debye = 10**-18 statcoulomb cm , SI units = C m)
                  (au)            (Debye)         (10**-30 SI)
   Tot        0.159217D+01      0.404688D+01      0.134990D+02
   x          0.763953D+00      0.194177D+01      0.647706D+01
   y          0.567835D+00      0.144329D+01      0.481430D+01
   z          0.127630D+01      0.324402D+01      0.108209D+02

 Dipole polarizability, Alpha (input orientation).
 (esu units = cm**3 , SI units = C**2 m**2 J**-1)
 Alpha(0;0):
               (au)            (10**-24 esu)      (10**-40 SI)
   iso        0.576446D+02      0.854205D+01      0.950431D+01
   aniso      0.303179D+02      0.449265D+01      0.499875D+01
   xx         0.450770D+02      0.667973D+01      0.743220D+01
   yx         0.359710D+01      0.533035D+00      0.593081D+00
   yy         0.738801D+02      0.109479D+02      0.121812D+02
   zx         0.554410D+01      0.821551D+00      0.914099D+00
   zy         0.672470D+01      0.996498D+00      0.110875D+01
   zz         0.539767D+02      0.799853D+01      0.889956D+01

 ----------------------------------------------------------------------

 Dipole orientation:
     6          2.41179653         -0.00056666          1.83510290
     8          3.96452675         -0.80838790          0.30197626
     6          1.78338849          2.57331684          1.67634254
     6          3.12504831          4.62354691          0.14670048
     9          3.78333201          6.42859735          1.79163920
     9          5.15101720          3.83495802         -1.02348757
     9          1.50938140          5.61186867         -1.48160407
     9          1.61064951         -0.18725121         -2.35069196
     9         -0.10031732          3.44533164          2.93353965
     8          0.98080420         -1.41215762          3.36191859
     1          1.31309210         -3.16785734          2.98996016

 Electric dipole moment (dipole orientation):
 (Debye = 10**-18 statcoulomb cm , SI units = C m)
                  (au)            (Debye)         (10**-30 SI)
   Tot        0.159217D+01      0.404688D+01      0.134990D+02
   x          0.000000D+00      0.000000D+00      0.000000D+00
   y          0.000000D+00      0.000000D+00      0.000000D+00
   z          0.159217D+01      0.404688D+01      0.134990D+02

 Dipole polarizability, Alpha (dipole orientation).
 (esu units = cm**3 , SI units = C**2 m**2 J**-1)
 Alpha(0;0):
               (au)            (10**-24 esu)      (10**-40 SI)
   iso        0.576446D+02      0.854205D+01      0.950431D+01
   aniso      0.303179D+02      0.449265D+01      0.499875D+01
   xx         0.427623D+02      0.633672D+01      0.705056D+01
   yx        -0.231431D+01     -0.342945D+00     -0.381578D+00
   yy         0.663712D+02      0.983520D+01      0.109431D+02
   zx        -0.250668D+01     -0.371451D+00     -0.413295D+00
   zy         0.112689D+02      0.166988D+01      0.185799D+01
   zz         0.638003D+02      0.945423D+01      0.105193D+02

 ----------------------------------------------------------------------
 Unable to Open any file for archive entry.
 1\1\GINC-SPARTAN-BM175\Freq\RM062X\def2TZVPP\C3H1F5O2\AKHALILOV\24-May
 -2025\0\\#P M062X/Def2TZVPP Symm(None) scf(xqc) pop(None) opt(NoFreeze
 ,TS,CalcAll,NoEigentest,MaxCycle=999)\\Gaussian input prepared by ASE\
 \0,1\C,1.5791528559,0.2248302029,0.1661683183\O,1.9471499859,-0.539858
 3927,-0.7259698361\C,1.119425803,1.4923338313,-0.2273800188\C,1.247232
 0238,2.1445507208,-1.6038394067\F,1.8780031824,3.3096627397,-1.4138730
 9\F,1.9248412211,1.4340307573,-2.4658106906\F,0.0383961169,2.404527772
 1,-2.0708463221\F,0.1559504332,-0.6166896657,-1.3707691366\F,0.5253778
 544,2.2531544491,0.6196332833\O,1.3772970664,-0.1093362641,1.443582549
 4\H,1.524469457,-1.0597201508,1.53277735\\Version=ES64L-G16RevC.01\HF=
 -764.4549723\RMSD=5.854e-09\RMSF=4.398e-06\ZeroPoint=0.0487774\Thermal
 =0.0580855\ETot=-764.3968868\HTot=-764.3959427\GTot=-764.441772\Dipole
 =0.7639527,0.5678349,1.2762975\DipoleDeriv=0.3284696,0.7777922,-0.0098
 393,-0.3677738,-1.1391795,-1.0716992,-0.0402323,-0.8364768,1.4669221,0
 .0700882,0.8620414,0.6602046,0.3134467,0.6163211,0.2403773,0.26045,1.2
 502532,-0.0762509,0.3625895,-1.050743,-0.4580432,-0.1211185,1.4974561,
 0.6848674,-0.2236988,0.6514677,0.6131294,1.5867758,0.0401965,-0.031649
 2,0.015775,1.8032038,0.0241882,-0.1172347,-0.7990597,1.3177665,-0.4040
 706,-0.2702353,-0.0274229,-0.2849769,-0.9346867,-0.0242585,0.0207144,0
 .1794137,-0.319086,-0.4046366,0.0882569,0.1799394,0.1432139,-0.3366972
 ,-0.0977,0.2636789,0.0034361,-0.5161621,-0.6993907,0.2259123,-0.153823
 4,0.1300595,-0.4177448,0.103358,-0.1886361,0.3110261,-0.3812089,-0.681
 581,-1.1435642,-0.6088982,0.0054143,-0.2095284,0.0928101,-0.0844,-0.26
 83639,-0.5150617,-0.1739702,0.6131955,0.323078,0.1118,-0.9204947,-0.39
 18986,0.1520892,-0.7684277,-0.6381756,-0.3138563,-0.1561141,0.0867349,
 0.0525897,-0.3036588,0.5646055,-0.0671095,0.4188937,-1.2841861,0.32958
 24,0.0132618,0.0397195,0.0015702,0.3450093,-0.1246502,0.024379,-0.1421
 622,0.3323132\Polar=45.077038,3.5970962,73.880104,5.5441029,6.7247009,
 53.976726\PG=Unknown\NImag=1\\0.23690653,-0.13407663,0.58510138,-0.103
 92660,-0.01984314,0.78393422,-0.13139174,0.22325500,0.15161546,0.08479
 073,0.09017421,-0.22282380,-0.21367421,-0.18838571,0.30412682,0.087866
 54,-0.09447644,-0.32347349,-0.21680613,0.23275627,0.36217276,-0.065697
 71,0.01862294,-0.06881092,0.04639798,0.05502716,0.05729247,0.27455389,
 0.04086119,-0.22426453,0.15105752,-0.01221847,-0.07376125,-0.07976508,
 -0.20568334,0.67604909,-0.02789895,0.08474572,-0.10372336,0.02071096,-
 0.04481249,0.00177348,-0.12029381,-0.03953810,0.61741307,0.01315165,0.
 00092769,-0.01288306,-0.00554847,-0.00201798,0.00361145,-0.05454324,0.
 00415248,0.00792289,0.57300708,-0.00495985,0.00192361,0.02787394,-0.00
 057343,-0.00104550,-0.00644460,-0.00326136,-0.08360965,0.07473594,-0.0
 4813380,0.55865234,0.01757682,-0.02713813,-0.00750639,0.02164490,0.022
 16888,0.02474713,0.00010320,0.06640185,-0.17482107,-0.03615895,0.01433
 970,0.62011001,-0.00192337,0.00166749,0.00178470,-0.00000722,-0.000070
 24,-0.00004302,-0.00007937,-0.02222982,0.00222939,-0.11670475,-0.08234
 136,-0.00100441,0.15760351,0.00128351,-0.00034932,-0.00218666,0.000791
 54,0.00236012,0.00410448,-0.02038229,-0.04758350,0.00132652,-0.0895380
 4,-0.24193609,-0.00377315,0.14131258,0.34143179,-0.00333811,0.00493530
 ,0.00081116,-0.00347894,-0.00413137,-0.00475356,0.01504269,0.02436195,
 0.00145042,0.00386917,0.00210276,-0.07840131,0.01898268,0.04294617,0.0
 8026655,0.00032227,-0.00265567,0.00102047,0.00418088,0.00285071,0.0003
 2300,-0.00450194,0.01139450,0.01163161,-0.14537436,0.06833603,0.099676
 65,0.01919100,-0.00096861,-0.00588018,0.18962779,-0.00095253,0.0030220
 5,-0.00336706,-0.00410076,-0.00923543,0.00540832,0.00309986,0.00311132
 ,-0.00288022,0.07283554,-0.14645907,-0.09363042,0.01043414,-0.06054770
 ,-0.05257511,-0.11667513,0.21467477,-0.00566893,0.00919970,0.00351533,
 -0.00613329,-0.00017343,-0.01163908,0.02838735,-0.03146142,-0.02400234
 ,0.10216782,-0.09124579,-0.22406889,-0.00006066,-0.03812958,-0.0083602
 5,-0.13696575,0.15106095,0.25373160,-0.00234219,0.00332181,0.00046290,
 -0.00333719,-0.00292791,-0.00489413,-0.01917868,0.01182734,-0.01378159
 ,-0.25980469,0.04960528,-0.08679906,-0.05936120,-0.02956430,-0.0283943
 5,-0.06106673,0.03512852,0.00944813,0.39518125,0.00055118,-0.00101133,
 -0.00127133,0.00169129,0.00200975,0.00201119,0.02207992,-0.00294038,0.
 01164548,0.05220518,-0.08733457,0.02795460,-0.04667786,0.00379331,-0.0
 2056116,0.04137268,-0.00591143,-0.00307979,-0.06509171,0.09286244,-0.0
 0212353,0.00584280,-0.00076803,-0.00638556,-0.00552601,-0.00617649,-0.
 03624915,0.01482331,-0.01779755,-0.09500629,0.02621394,-0.12685885,-0.
 02278372,-0.01211076,0.00607522,0.02784489,-0.01146572,0.01873218,0.12
 583849,-0.02090252,0.12341587,0.01679005,-0.13468597,-0.04255265,0.007
 27850,0.04691694,0.05570898,-0.05115405,0.04431019,-0.00252065,-0.0025
 8782,0.00328947,-0.02824121,0.00035038,-0.00319701,0.00533701,-0.00308
 043,0.00245976,0.00737241,0.00596180,-0.00218659,0.00752526,0.01050018
 ,-0.02873324,0.03144437,0.00432864,-0.02715339,-0.01871690,-0.03036159
 ,0.01379681,-0.01157629,0.00392216,0.00262803,0.00206200,0.00616751,-0
 .00075891,-0.00047335,-0.00104203,-0.00088936,-0.00172914,-0.00144232,
 -0.00229911,-0.00174185,-0.00124505,0.04246952,-0.00037935,-0.01294179
 ,-0.03308405,-0.01766913,-0.00988567,0.00719246,-0.00226710,-0.0052758
 6,0.01363116,-0.00154741,-0.00108125,-0.00219052,-0.01071868,0.0001138
 9,-0.00051873,0.00209863,-0.00008189,0.00226970,0.00337352,0.00128040,
 0.00019913,0.00230313,0.02781999,0.01588616,0.02765564,-0.01068220,0.0
 3018752,0.03472789,-0.00933385,-0.00277202,-0.01205443,-0.12991810,0.1
 1634803,0.12370729,-0.00386589,0.01354770,0.01511288,0.00053676,-0.000
 12374,-0.00181303,0.00110098,-0.00196482,0.00077344,0.00317109,-0.0026
 3590,-0.00026529,0.01386641,-0.00145613,0.00117423,0.13284537,0.043101
 48,-0.04251264,-0.05439963,0.01577248,0.00308857,0.02198817,0.11378100
 ,-0.20719606,-0.14025022,0.00126430,-0.00178086,-0.00852910,0.00017641
 ,0.00502482,0.00352005,-0.00213424,0.00277861,0.00525602,-0.00131303,0
 .00161954,0.00186285,-0.01755827,0.00418896,-0.00566030,-0.14739356,0.
 22994887,0.02435451,-0.03392946,-0.01685024,0.01080253,0.02010310,0.02
 404481,0.11830327,-0.13722463,-0.25035647,0.02670047,-0.03895642,-0.03
 265120,-0.00057779,0.00342215,0.00287647,0.00242258,0.00417012,-0.0097
 0152,-0.00128773,0.00204572,0.00339227,-0.01827554,0.00335662,-0.00425
 951,-0.15541339,0.17314144,0.27398791,-0.05732731,-0.00008951,0.038352
 24,0.01034952,0.00111082,0.03013043,0.00220776,0.01124624,-0.00363054,
 0.00092905,0.00358400,-0.00197713,0.00036962,0.00019097,-0.00007091,-0
 .00029942,-0.00022706,0.00063636,0.00067532,-0.00093315,0.00113499,0.0
 0154714,0.00311233,-0.00203365,0.00272605,-0.00539437,-0.00612410,0.06
 000688,-0.00802204,-0.11455553,0.10108592,-0.01205811,0.01305432,-0.04
 995926,0.00289229,-0.02892223,0.05249032,0.00524301,0.00005482,-0.0050
 0074,-0.00167758,-0.00236213,0.00079883,-0.00059240,0.00014956,0.00022
 465,0.00152290,-0.00152969,0.00273563,0.02012527,-0.00278444,0.0027027
 1,-0.00293336,0.00401468,0.00366646,-0.08804457,0.62931865,0.03139844,
 0.05297945,-0.30198518,0.03603312,-0.01179567,-0.07238215,0.01160826,0
 .01350312,-0.04135327,0.00166236,-0.00806068,0.01067277,0.00121016,0.0
 0507610,-0.00216504,-0.00002876,0.00129953,-0.00193805,-0.00190789,0.0
 0210708,-0.00232433,-0.00928757,0.00010503,0.00092561,-0.00706715,0.00
 514157,0.00985584,-0.06237731,-0.11656891,0.44145199,0.00219403,-0.006
 47468,0.00020959,-0.00337912,0.00009402,-0.00113516,0.00191347,-0.0000
 0835,0.00192339,0.00134143,0.00090730,0.00006632,0.00002464,0.00019540
 ,-0.00025604,-0.00010004,-0.00003752,0.00004312,0.00010123,-0.00037504
 ,0.00046990,0.00052785,-0.00071655,0.00091160,-0.00044664,-0.00030220,
 -0.00090481,-0.02118461,0.08354459,-0.00124365,0.01900776,0.00077271,-
 0.01597426,0.01039601,0.00297955,0.00094330,-0.00526145,0.00002700,0.0
 0069346,-0.00138512,0.00043357,-0.00052704,0.00103900,0.00016515,0.000
 64204,-0.00035540,-0.00003851,0.00014647,-0.00020901,-0.00020978,0.000
 18422,-0.00022847,-0.00194331,-0.00029401,-0.00042773,-0.00080373,0.00
 082553,0.00020490,0.07544431,-0.49643801,0.05621338,-0.07682698,0.5097
 9829,-0.00529840,0.05076823,-0.01628489,0.00188262,-0.00210754,0.00795
 368,-0.00010751,0.00421032,-0.00703552,-0.00080461,0.00163174,-0.00050
 352,0.00014877,-0.00015654,0.00010172,0.00003738,-0.00029008,0.0003575
 1,0.00003484,-0.00014841,0.00000657,-0.00288603,0.00032488,0.00010529,
 0.00111757,-0.00207086,-0.00033836,0.00595963,0.00782437,-0.04075820,-
 0.00008426,-0.05998612,0.05639571\\0.00000126,-0.00000130,-0.00000235,
 0.00000394,0.00000253,-0.00000487,-0.00000145,-0.00000156,0.00000177,-
 0.00000175,0.00000387,0.00000413,-0.00000526,0.00000466,0.00000882,0.0
 0000056,0.00000882,0.00000227,-0.00000229,0.00000221,0.00000399,0.0000
 0503,0.00000010,-0.00000677,-0.00000435,-0.00000595,0.00000377,0.00000
 097,-0.00000675,-0.00000375,0.00000334,-0.00000664,-0.00000700\\\@
 The archive entry for this job was punched.


 YE HAVE SOWN MUCH, AND BRING IN LITTLE.
 YE EAT, BUT YE HAVE NOT ENOUGH.
 YE DRINK, BUT YE ARE NOT FILLED WITH DRINK.
 YE CLOTHE YOU, BUT THERE IS NONE WARM.
 AND HE THAT EARNETH WAGES EARNETH WAGES TO PUT
 IT INTO A BAG WITH HOLES.
                                     HAGGAI I,6
 Job cpu time:       0 days  2 hours 50 minutes 51.3 seconds.
 Elapsed time:       0 days  0 hours 23 minutes 51.2 seconds.
 File lengths (MBytes):  RWF=    123 Int=      0 D2E=      0 Chk=      9 Scr=      1
 Normal termination of Gaussian 16 at Sat May 24 06:56:00 2025.
done
