 Entering Gaussian System, Link 0=g16
 Initial command:
 /apps/easybuild-2022/easybuild/software/Compiler/NVHPC/22.11-CUDA-11.7.0/Gaussian/g16c01-CUDA-11.7.0/g16/l1.exe "/tmp/Gau-258869.inp" -scrdir="/tmp/"
 Entering Link 1 = /apps/easybuild-2022/easybuild/software/Compiler/NVHPC/22.11-CUDA-11.7.0/Gaussian/g16c01-CUDA-11.7.0/g16/l1.exe PID=    258870.
  
 Copyright (c) 1988-2019, Gaussian, Inc.  All Rights Reserved.
  
 This is part of the Gaussian(R) 16 program.  It is based on
 the Gaussian(R) 09 system (copyright 2009, Gaussian, Inc.),
 the Gaussian(R) 03 system (copyright 2003, Gaussian, Inc.),
 the Gaussian(R) 98 system (copyright 1998, Gaussian, Inc.),
 the Gaussian(R) 94 system (copyright 1995, Gaussian, Inc.),
 the Gaussian 92(TM) system (copyright 1992, Gaussian, Inc.),
 the Gaussian 90(TM) system (copyright 1990, Gaussian, Inc.),
 the Gaussian 88(TM) system (copyright 1988, Gaussian, Inc.),
 the Gaussian 86(TM) system (copyright 1986, Carnegie Mellon
 University), and the Gaussian 82(TM) system (copyright 1983,
 Carnegie Mellon University). Gaussian is a federally registered
 trademark of Gaussian, Inc.
  
 This software contains proprietary and confidential information,
 including trade secrets, belonging to Gaussian, Inc.
  
 This software is provided under written license and may be
 used, copied, transmitted, or stored only in accord with that
 written license.
  
 The following legend is applicable only to US Government
 contracts under FAR:
  
                    RESTRICTED RIGHTS LEGEND
  
 Use, reproduction and disclosure by the US Government is
 subject to restrictions as set forth in subparagraphs (a)
 and (c) of the Commercial Computer Software - Restricted
 Rights clause in FAR 52.227-19.
  
 Gaussian, Inc.
 340 Quinnipiac St., Bldg. 40, Wallingford CT 06492
  
  
 ---------------------------------------------------------------
 Warning -- This program may not be used in any manner that
 competes with the business of Gaussian, Inc. or will provide
 assistance to any competitor of Gaussian, Inc.  The licensee
 of this program is prohibited from giving any competitor of
 Gaussian, Inc. access to this program.  By using this program,
 the user acknowledges that Gaussian, Inc. is engaged in the
 business of creating and licensing software in the field of
 computational chemistry and represents and warrants to the
 licensee that it is not a competitor of Gaussian, Inc. and that
 it will not use this program in any manner prohibited above.
 ---------------------------------------------------------------
  

 Cite this work as:
 Gaussian 16, Revision C.01,
 M. J. Frisch, G. W. Trucks, H. B. Schlegel, G. E. Scuseria, 
 M. A. Robb, J. R. Cheeseman, G. Scalmani, V. Barone, 
 G. A. Petersson, H. Nakatsuji, X. Li, M. Caricato, A. V. Marenich, 
 J. Bloino, B. G. Janesko, R. Gomperts, B. Mennucci, H. P. Hratchian, 
 J. V. Ortiz, A. F. Izmaylov, J. L. Sonnenberg, D. Williams-Young, 
 F. Ding, F. Lipparini, F. Egidi, J. Goings, B. Peng, A. Petrone, 
 T. Henderson, D. Ranasinghe, V. G. Zakrzewski, J. Gao, N. Rega, 
 G. Zheng, W. Liang, M. Hada, M. Ehara, K. Toyota, R. Fukuda, 
 J. Hasegawa, M. Ishida, T. Nakajima, Y. Honda, O. Kitao, H. Nakai, 
 T. Vreven, K. Throssell, J. A. Montgomery, Jr., J. E. Peralta, 
 F. Ogliaro, M. J. Bearpark, J. J. Heyd, E. N. Brothers, K. N. Kudin, 
 V. N. Staroverov, T. A. Keith, R. Kobayashi, J. Normand, 
 K. Raghavachari, A. P. Rendell, J. C. Burant, S. S. Iyengar, 
 J. Tomasi, M. Cossi, J. M. Millam, M. Klene, C. Adamo, R. Cammi, 
 J. W. Ochterski, R. L. Martin, K. Morokuma, O. Farkas, 
 J. B. Foresman, and D. J. Fox, Gaussian, Inc., Wallingford CT, 2019.
 
 ******************************************
 Gaussian 16:  ES64L-G16RevC.01  3-Jul-2019
                24-May-2025 
 ******************************************
 %mem=28GB
 %nprocshared=8
 Will use up to    8 processors via shared memory.
 ----------------------------------------------------------------------
 #P M062X/Def2TZVPP Symm(None) scf(xqc) pop(None) opt(NoFreeze,TS,CalcA
 ll,NoEigentest,MaxCycle=999)
 ----------------------------------------------------------------------
 1/5=1,6=999,10=4,11=1,18=20,26=3,29=2000,38=1/1,3;
 2/9=110,12=2,15=3,17=6,18=5,40=1/2;
 3/5=44,7=202,11=2,25=1,30=1,71=2,74=-55,140=1/1,2,3;
 4//1;
 5/5=2,8=3,13=1,38=5/2,8;
 8/6=4,10=90,11=11/1;
 11/6=1,8=1,9=11,15=111,16=1,31=1/1,2,10;
 10/6=1,31=1/2;
 7/10=1,25=1,30=1/1,2,3,16;
 1/5=1,6=999,10=4,11=1,18=20,26=3/3(3);
 2/9=110,15=3/2;
 7/8=1,9=1,25=1,30=1,44=-1/16;
 99//99;
 2/9=110,15=3/2;
 3/5=44,7=202,11=2,25=1,30=1,71=2,74=-55,140=1/1,2,3;
 4/5=5,16=3,69=1/1;
 5/5=2,8=3,13=1,38=5/2,8;
 8/6=4,10=90,11=11/1;
 11/6=1,8=1,9=11,15=111,16=1,31=1/1,2,10;
 10/6=1,31=1/2;
 7/10=1,25=1,30=1/1,2,3,16;
 1/5=1,6=999,10=4,11=1,18=20,26=3/3(-8);
 2/9=110,15=3/2;
 7/8=1,9=1,25=1,30=1,44=-1/16;
 99//99;
 Leave Link    1 at Sat May 24 06:32:07 2025, MaxMem=  3758096384 cpu:               0.0 elap:               0.0
 (Enter /apps/easybuild-2022/easybuild/software/Compiler/NVHPC/22.11-CUDA-11.7.0/Gaussian/g16c01-CUDA-11.7.0/g16/l101.exe)
 ------------------------------
 Gaussian input prepared by ASE
 ------------------------------
 Symbolic Z-matrix:
 Charge =  0 Multiplicity = 1
 C                     0.93837   0.27793   0.25791 
 O                     0.19771  -0.38089  -0.47254 
 C                     1.48009   1.45748  -0.27829 
 C                     1.07455   2.16658  -1.57031 
 F                     0.74689   3.41842  -1.22821 
 F                     2.11984   2.2225   -2.37726 
 F                     0.05812   1.61682  -2.18006 
 F                     1.67977  -0.74749  -1.6116 
 F                     2.42017   2.07437   0.34215 
 O                     1.44108  -0.12796   1.427 
 H                     1.16071  -1.04027   1.57487 
 
 Add virtual bond connecting atoms F8         and O2         Dist= 3.60D+00.
 ITRead=  0  0  0  0  0  0  0  0  0  0  0
 MicOpt= -1 -1 -1 -1 -1 -1 -1 -1 -1 -1 -1
 NAtoms=     11 NQM=       11 NQMF=       0 NMMI=      0 NMMIF=      0
                NMic=       0 NMicF=      0.
                    Isotopes and Nuclear Properties:
 (Nuclear quadrupole moments (NQMom) in fm**2, nuclear magnetic moments (NMagM)
  in nuclear magnetons)

  Atom         1           2           3           4           5           6           7           8           9          10
 IAtWgt=          12          16          12          12          19          19          19          19          19          16
 AtmWgt=  12.0000000  15.9949146  12.0000000  12.0000000  18.9984032  18.9984032  18.9984032  18.9984032  18.9984032  15.9949146
 NucSpn=           0           0           0           0           1           1           1           1           1           0
 AtZEff=  -0.0000000  -0.0000000  -0.0000000  -0.0000000  -0.0000000  -0.0000000  -0.0000000  -0.0000000  -0.0000000  -0.0000000
 NQMom=    0.0000000   0.0000000   0.0000000   0.0000000   0.0000000   0.0000000   0.0000000   0.0000000   0.0000000   0.0000000
 NMagM=    0.0000000   0.0000000   0.0000000   0.0000000   2.6288670   2.6288670   2.6288670   2.6288670   2.6288670   0.0000000
 AtZNuc=   6.0000000   8.0000000   6.0000000   6.0000000   9.0000000   9.0000000   9.0000000   9.0000000   9.0000000   8.0000000

  Atom        11
 IAtWgt=           1
 AtmWgt=   1.0078250
 NucSpn=           1
 AtZEff=  -0.0000000
 NQMom=    0.0000000
 NMagM=    2.7928460
 AtZNuc=   1.0000000
 Leave Link  101 at Sat May 24 06:32:08 2025, MaxMem=  3758096384 cpu:               0.2 elap:               0.2
 (Enter /apps/easybuild-2022/easybuild/software/Compiler/NVHPC/22.11-CUDA-11.7.0/Gaussian/g16c01-CUDA-11.7.0/g16/l103.exe)

 GradGradGradGradGradGradGradGradGradGradGradGradGradGradGradGradGradGrad
 Berny optimization.
 Initialization pass.
                           ----------------------------
                           !    Initial Parameters    !
                           ! (Angstroms and Degrees)  !
 --------------------------                            --------------------------
 ! Name  Definition              Value          Derivative Info.                !
 --------------------------------------------------------------------------------
 ! R1    R(1,2)                  1.2313         calculate D2E/DX2 analytically  !
 ! R2    R(1,3)                  1.4044         calculate D2E/DX2 analytically  !
 ! R3    R(1,10)                 1.3358         calculate D2E/DX2 analytically  !
 ! R4    R(2,8)                  1.9048         calculate D2E/DX2 analytically  !
 ! R5    R(3,4)                  1.5286         calculate D2E/DX2 analytically  !
 ! R6    R(3,9)                  1.2842         calculate D2E/DX2 analytically  !
 ! R7    R(4,5)                  1.3385         calculate D2E/DX2 analytically  !
 ! R8    R(4,6)                  1.3217         calculate D2E/DX2 analytically  !
 ! R9    R(4,7)                  1.3066         calculate D2E/DX2 analytically  !
 ! R10   R(10,11)                0.9658         calculate D2E/DX2 analytically  !
 ! A1    A(2,1,3)              117.0592         calculate D2E/DX2 analytically  !
 ! A2    A(2,1,10)             125.6623         calculate D2E/DX2 analytically  !
 ! A3    A(3,1,10)             116.3727         calculate D2E/DX2 analytically  !
 ! A4    A(1,2,8)               89.41           calculate D2E/DX2 analytically  !
 ! A5    A(1,3,4)              127.5896         calculate D2E/DX2 analytically  !
 ! A6    A(1,3,9)              120.0901         calculate D2E/DX2 analytically  !
 ! A7    A(4,3,9)              112.3164         calculate D2E/DX2 analytically  !
 ! A8    A(3,4,5)              106.4265         calculate D2E/DX2 analytically  !
 ! A9    A(3,4,6)              109.0173         calculate D2E/DX2 analytically  !
 ! A10   A(3,4,7)              113.9319         calculate D2E/DX2 analytically  !
 ! A11   A(5,4,6)              108.0641         calculate D2E/DX2 analytically  !
 ! A12   A(5,4,7)              108.8058         calculate D2E/DX2 analytically  !
 ! A13   A(6,4,7)              110.372          calculate D2E/DX2 analytically  !
 ! A14   A(1,10,11)            108.1662         calculate D2E/DX2 analytically  !
 ! D1    D(3,1,2,8)             66.006          calculate D2E/DX2 analytically  !
 ! D2    D(10,1,2,8)          -102.6609         calculate D2E/DX2 analytically  !
 ! D3    D(2,1,3,4)             11.9821         calculate D2E/DX2 analytically  !
 ! D4    D(2,1,3,9)           -168.8002         calculate D2E/DX2 analytically  !
 ! D5    D(10,1,3,4)          -178.2832         calculate D2E/DX2 analytically  !
 ! D6    D(10,1,3,9)             0.9344         calculate D2E/DX2 analytically  !
 ! D7    D(2,1,10,11)            2.9189         calculate D2E/DX2 analytically  !
 ! D8    D(3,1,10,11)         -165.817          calculate D2E/DX2 analytically  !
 ! D9    D(1,3,4,5)            123.6376         calculate D2E/DX2 analytically  !
 ! D10   D(1,3,4,6)           -120.0317         calculate D2E/DX2 analytically  !
 ! D11   D(1,3,4,7)              3.7347         calculate D2E/DX2 analytically  !
 ! D12   D(9,3,4,5)            -55.6307         calculate D2E/DX2 analytically  !
 ! D13   D(9,3,4,6)             60.7001         calculate D2E/DX2 analytically  !
 ! D14   D(9,3,4,7)           -175.5336         calculate D2E/DX2 analytically  !
 --------------------------------------------------------------------------------
 Trust Radius=3.00D-01 FncErr=1.00D-07 GrdErr=1.00D-06 EigMax=2.50D+02 EigMin=1.00D-04
 Number of steps in this run=    100 maximum allowed number of steps=    100.
 Search for a saddle point of order  1.
 GradGradGradGradGradGradGradGradGradGradGradGradGradGradGradGradGradGrad

 Leave Link  103 at Sat May 24 06:32:08 2025, MaxMem=  3758096384 cpu:               0.0 elap:               0.0
 (Enter /apps/easybuild-2022/easybuild/software/Compiler/NVHPC/22.11-CUDA-11.7.0/Gaussian/g16c01-CUDA-11.7.0/g16/l202.exe)
                          Input orientation:                          
 ---------------------------------------------------------------------
 Center     Atomic      Atomic             Coordinates (Angstroms)
 Number     Number       Type             X           Y           Z
 ---------------------------------------------------------------------
      1          6           0        0.938366    0.277931    0.257913
      2          8           0        0.197708   -0.380888   -0.472544
      3          6           0        1.480090    1.457475   -0.278292
      4          6           0        1.074551    2.166576   -1.570307
      5          9           0        0.746886    3.418416   -1.228211
      6          9           0        2.119838    2.222497   -2.377255
      7          9           0        0.058124    1.616821   -2.180056
      8          9           0        1.679774   -0.747488   -1.611598
      9          9           0        2.420170    2.074369    0.342148
     10          8           0        1.441084   -0.127955    1.427003
     11          1           0        1.160705   -1.040268    1.574872
 ---------------------------------------------------------------------
                    Distance matrix (angstroms):
                    1          2          3          4          5
     1  C    0.000000
     2  O    1.231334   0.000000
     3  C    1.404388   2.249848   0.000000
     4  C    2.632093   2.909211   1.528590   0.000000
     5  F    3.479637   3.912460   2.298961   1.338468   0.000000
     6  F    3.481569   3.755013   2.323829   1.321710   2.153026
     7  F    2.917387   2.631715   2.379934   1.306579   2.150848
     8  F    2.257486   1.904825   2.584461   2.976536   4.286260
     9  F    2.330242   3.410476   1.284233   2.340230   2.659393
    10  O    1.335755   2.284346   2.328764   3.792504   4.484286
    11  H    1.876556   2.356705   3.126491   4.492596   5.282839
                    6          7          8          9         10
     6  F    0.000000
     7  F    2.157868   0.000000
     8  F    3.098499   2.922815   0.000000
     9  F    2.739944   3.485703   3.511152   0.000000
    10  O    4.523020   4.238832   3.110288   2.643057   0.000000
    11  H    5.213912   4.730253   3.241719   3.578662   0.965812
                   11
    11  H    0.000000
 Symmetry turned off by external request.
 Stoichiometry    C3HF5O2
 Rotational constants (GHZ):           1.8947942           1.1301379           0.9276523
 Leave Link  202 at Sat May 24 06:32:08 2025, MaxMem=  3758096384 cpu:               0.0 elap:               0.0
 (Enter /apps/easybuild-2022/easybuild/software/Compiler/NVHPC/22.11-CUDA-11.7.0/Gaussian/g16c01-CUDA-11.7.0/g16/l301.exe)
 Standard basis: def2TZVPP (5D, 7F)
 Ernie: Thresh=  0.10000D-02 Tol=  0.10000D-05 Strict=F.
   324 basis functions,   527 primitive gaussians,   375 cartesian basis functions
    40 alpha electrons       40 beta electrons
       nuclear repulsion energy       620.9812927600 Hartrees.
 IExCor= 4336 DFT=T Ex+Corr=M062X ExCW=0 ScaHFX=  0.540000
 ScaDFX=  1.000000  1.000000  1.000000  1.000000 ScalE2=  1.000000  1.000000
 IRadAn=      5 IRanWt=     -1 IRanGd=            0 ICorTp=0 IEmpDi=  4
 NAtoms=   11 NActive=   11 NUniq=   11 SFac= 1.00D+00 NAtFMM=   60 NAOKFM=F Big=F
 Integral buffers will be    131072 words long.
 Raffenetti 2 integral format.
 Two-electron integral symmetry is turned off.
 Leave Link  301 at Sat May 24 06:32:08 2025, MaxMem=  3758096384 cpu:               0.1 elap:               0.0
 (Enter /apps/easybuild-2022/easybuild/software/Compiler/NVHPC/22.11-CUDA-11.7.0/Gaussian/g16c01-CUDA-11.7.0/g16/l302.exe)
 NPDir=0 NMtPBC=     1 NCelOv=     1 NCel=       1 NClECP=     1 NCelD=      1
         NCelK=      1 NCelE2=     1 NClLst=     1 CellRange=     0.0.
 One-electron integrals computed using PRISM.
   1 Symmetry operations used in ECPInt.
 ECPInt:  NShTT=    6786 NPrTT=   21959 LenC2=    6408 LenP2D=   15711.
 LDataN:  DoStor=T MaxTD1= 6 Len=  172
 NBasis=   324 RedAO= T EigKep=  1.58D-04  NBF=   324
 NBsUse=   324 1.00D-06 EigRej= -1.00D+00 NBFU=   324
 Precomputing XC quadrature grid using
 IXCGrd= 4 IRadAn=           5 IRanWt=          -1 IRanGd=           0 AccXCQ= 0.00D+00.
 Generated NRdTot=       0 NPtTot=           0 NUsed=           0 NTot=          32
 NSgBfM=   373   373   373   373   373 MxSgAt=    11 MxSgA2=    11.
 Leave Link  302 at Sat May 24 06:32:08 2025, MaxMem=  3758096384 cpu:               0.6 elap:               0.1
 (Enter /apps/easybuild-2022/easybuild/software/Compiler/NVHPC/22.11-CUDA-11.7.0/Gaussian/g16c01-CUDA-11.7.0/g16/l303.exe)
 DipDrv:  MaxL=1.
 Leave Link  303 at Sat May 24 06:32:08 2025, MaxMem=  3758096384 cpu:               0.1 elap:               0.0
 (Enter /apps/easybuild-2022/easybuild/software/Compiler/NVHPC/22.11-CUDA-11.7.0/Gaussian/g16c01-CUDA-11.7.0/g16/l401.exe)
 ExpMin= 9.52D-02 ExpMax= 3.55D+04 ExpMxC= 1.21D+03 IAcc=3 IRadAn=         5 AccDes= 0.00D+00
 Harris functional with IExCor= 1009 and IRadAn=       5 diagonalized for initial guess.
 HarFok:  IExCor= 1009 AccDes= 0.00D+00 IRadAn=         5 IDoV= 1 UseB2=F ITyADJ=14
 ICtDFT=  3500011 ScaDFX=  1.000000  1.000000  1.000000  1.000000
 FoFCou: FMM=F IPFlag=           0 FMFlag=      100000 FMFlg1=           0
         NFxFlg=           0 DoJE=T BraDBF=F KetDBF=T FulRan=T
         wScrn=  0.000000 ICntrl=       500 IOpCl=  0 I1Cent=   200000004 NGrid=           0
         NMat0=    1 NMatS0=      1 NMatT0=    0 NMatD0=    1 NMtDS0=    0 NMtDT0=    0
 Symmetry not used in FoFCou.
 Harris En= -764.087865315696    
 JPrj=0 DoOrth=F DoCkMO=F.
 Leave Link  401 at Sat May 24 06:32:08 2025, MaxMem=  3758096384 cpu:               3.4 elap:               0.5
 (Enter /apps/easybuild-2022/easybuild/software/Compiler/NVHPC/22.11-CUDA-11.7.0/Gaussian/g16c01-CUDA-11.7.0/g16/l502.exe)
 Keep R1 ints in memory in canonical form, NReq=1412617130.
 FoFCou: FMM=F IPFlag=           0 FMFlag=           0 FMFlg1=           0
         NFxFlg=           0 DoJE=F BraDBF=F KetDBF=F FulRan=T
         wScrn=  0.000000 ICntrl=       600 IOpCl=  0 I1Cent=           0 NGrid=           0
         NMat0=    1 NMatS0=  52650 NMatT0=    0 NMatD0=    1 NMtDS0=    0 NMtDT0=    0
 Symmetry not used in FoFCou.
 Two-electron integral symmetry not used.
 Closed shell SCF:
 Using DIIS extrapolation, IDIIS=  1040.
 NGot=  3758096384 LenX=  2371771924 LenY=  2371630858
 Requested convergence on RMS density matrix=1.00D-08 within  32 cycles.
 Requested convergence on MAX density matrix=1.00D-06.
 Requested convergence on             energy=1.00D-06.
 No special actions if energy rises.
 Integral accuracy reduced to 1.0D-05 until final iterations.

 Cycle   1  Pass 0  IDiag  1:
 E= -764.089557221512    
 DIIS: error= 3.04D-02 at cycle   1 NSaved=   1.
 NSaved= 1 IEnMin= 1 EnMin= -764.089557221512     IErMin= 1 ErrMin= 3.04D-02
 ErrMax= 3.04D-02  0.00D+00 EMaxC= 1.00D-01 BMatC= 5.04D-01 BMatP= 5.04D-01
 IDIUse=3 WtCom= 6.96D-01 WtEn= 3.04D-01
 Coeff-Com:  0.100D+01
 Coeff-En:   0.100D+01
 Coeff:      0.100D+01
 Gap=    -0.153 Goal=   None    Shift=    0.000
 GapD=   -0.153 DampG=0.250 DampE=0.500 DampFc=0.2500 IDamp=-1.
 Damping current iteration by 2.50D-01
 RMSDP=1.55D-02 MaxDP=2.21D+00              OVMax= 5.82D-01

 Cycle   2  Pass 0  IDiag  1:
 E= -764.154108454892     Delta-E=       -0.064551233380 Rises=F Damp=T
 DIIS: error= 1.08D-02 at cycle   2 NSaved=   2.
 NSaved= 2 IEnMin= 2 EnMin= -764.154108454892     IErMin= 2 ErrMin= 1.08D-02
 ErrMax= 1.08D-02  0.00D+00 EMaxC= 1.00D-01 BMatC= 1.01D-01 BMatP= 5.04D-01
 IDIUse=3 WtCom= 8.92D-01 WtEn= 1.08D-01
 Coeff-Com: -0.115D+00 0.112D+01
 Coeff-En:   0.368D+00 0.632D+00
 Coeff:     -0.631D-01 0.106D+01
 Gap=     0.214 Goal=   None    Shift=    0.000
 RMSDP=3.43D-03 MaxDP=5.10D-01 DE=-6.46D-02 OVMax= 7.37D-01

 Cycle   3  Pass 0  IDiag  1:
 E= -764.305181621283     Delta-E=       -0.151073166391 Rises=F Damp=F
 DIIS: error= 1.63D-02 at cycle   3 NSaved=   3.
 NSaved= 3 IEnMin= 3 EnMin= -764.305181621283     IErMin= 2 ErrMin= 1.08D-02
 ErrMax= 1.63D-02  0.00D+00 EMaxC= 1.00D-01 BMatC= 1.53D-01 BMatP= 1.01D-01
 IDIUse=2 WtCom= 0.00D+00 WtEn= 1.00D+00
 Coeff-En:   0.000D+00 0.541D-01 0.946D+00
 Coeff:      0.000D+00 0.541D-01 0.946D+00
 Gap=     0.026 Goal=   None    Shift=    0.000
 RMSDP=5.61D-03 MaxDP=5.63D-01 DE=-1.51D-01 OVMax= 8.69D-01

 Cycle   4  Pass 0  IDiag  1:
 E= -763.105707540462     Delta-E=        1.199474080820 Rises=F Damp=F
 DIIS: error= 5.75D-02 at cycle   4 NSaved=   4.
 NSaved= 4 IEnMin= 3 EnMin= -764.305181621283     IErMin= 2 ErrMin= 1.08D-02
 ErrMax= 5.75D-02  0.00D+00 EMaxC= 1.00D-01 BMatC= 1.43D+00 BMatP= 1.01D-01
 IDIUse=2 WtCom= 0.00D+00 WtEn= 1.00D+00
 Coeff-En:   0.000D+00 0.000D+00 0.840D+00 0.160D+00
 Coeff:      0.000D+00 0.000D+00 0.840D+00 0.160D+00
 Gap=     0.101 Goal=   None    Shift=    0.000
 RMSDP=4.20D-03 MaxDP=4.47D-01 DE= 1.20D+00 OVMax= 5.02D-01

 Cycle   5  Pass 0  IDiag  1:
 E= -764.327211110586     Delta-E=       -1.221503570124 Rises=F Damp=F
 DIIS: error= 1.91D-02 at cycle   5 NSaved=   5.
 NSaved= 5 IEnMin= 5 EnMin= -764.327211110586     IErMin= 2 ErrMin= 1.08D-02
 ErrMax= 1.91D-02  0.00D+00 EMaxC= 1.00D-01 BMatC= 1.70D-01 BMatP= 1.01D-01
 IDIUse=2 WtCom= 0.00D+00 WtEn= 1.00D+00
 Coeff-En:   0.000D+00 0.000D+00 0.470D+00 0.000D+00 0.530D+00
 Coeff:      0.000D+00 0.000D+00 0.470D+00 0.000D+00 0.530D+00
 Gap=     0.155 Goal=   None    Shift=    0.000
 RMSDP=1.32D-03 MaxDP=9.38D-02 DE=-1.22D+00 OVMax= 2.52D-01

 Cycle   6  Pass 0  IDiag  1:
 E= -764.445978998771     Delta-E=       -0.118767888185 Rises=F Damp=F
 DIIS: error= 4.44D-03 at cycle   6 NSaved=   6.
 NSaved= 6 IEnMin= 6 EnMin= -764.445978998771     IErMin= 6 ErrMin= 4.44D-03
 ErrMax= 4.44D-03  0.00D+00 EMaxC= 1.00D-01 BMatC= 8.24D-03 BMatP= 1.01D-01
 IDIUse=3 WtCom= 9.56D-01 WtEn= 4.44D-02
 Coeff-Com: -0.913D-01 0.111D+00 0.364D-01-0.327D-01 0.181D+00 0.796D+00
 Coeff-En:   0.000D+00 0.000D+00 0.000D+00 0.000D+00 0.764D-01 0.924D+00
 Coeff:     -0.872D-01 0.106D+00 0.348D-01-0.313D-01 0.176D+00 0.801D+00
 Gap=     0.165 Goal=   None    Shift=    0.000
 RMSDP=2.99D-04 MaxDP=1.96D-02 DE=-1.19D-01 OVMax= 7.57D-02

 Cycle   7  Pass 0  IDiag  1:
 E= -764.454222881311     Delta-E=       -0.008243882540 Rises=F Damp=F
 DIIS: error= 1.07D-03 at cycle   7 NSaved=   7.
 NSaved= 7 IEnMin= 7 EnMin= -764.454222881311     IErMin= 7 ErrMin= 1.07D-03
 ErrMax= 1.07D-03  0.00D+00 EMaxC= 1.00D-01 BMatC= 4.82D-04 BMatP= 8.24D-03
 IDIUse=3 WtCom= 9.89D-01 WtEn= 1.07D-02
 Coeff-Com: -0.733D-03 0.311D-02-0.576D-02-0.971D-02 0.147D-01 0.157D+00
 Coeff-Com:  0.842D+00
 Coeff-En:   0.000D+00 0.000D+00 0.000D+00 0.000D+00 0.000D+00 0.000D+00
 Coeff-En:   0.100D+01
 Coeff:     -0.725D-03 0.307D-02-0.570D-02-0.961D-02 0.145D-01 0.155D+00
 Coeff:      0.843D+00
 Gap=     0.173 Goal=   None    Shift=    0.000
 RMSDP=1.02D-04 MaxDP=5.60D-03 DE=-8.24D-03 OVMax= 2.36D-02

 Cycle   8  Pass 0  IDiag  1:
 E= -764.454230669767     Delta-E=       -0.000007788455 Rises=F Damp=F
 DIIS: error= 1.22D-03 at cycle   8 NSaved=   8.
 NSaved= 8 IEnMin= 8 EnMin= -764.454230669767     IErMin= 7 ErrMin= 1.07D-03
 ErrMax= 1.22D-03  0.00D+00 EMaxC= 1.00D-01 BMatC= 7.74D-04 BMatP= 4.82D-04
 IDIUse=3 WtCom= 9.89D-01 WtEn= 1.07D-02
 Coeff-Com:  0.360D-01-0.444D-01-0.195D-01 0.396D-02-0.631D-01-0.562D-01
 Coeff-Com:  0.426D+00 0.717D+00
 Coeff-En:   0.000D+00 0.000D+00 0.000D+00 0.000D+00 0.000D+00 0.000D+00
 Coeff-En:   0.435D+00 0.565D+00
 Coeff:      0.356D-01-0.440D-01-0.193D-01 0.392D-02-0.624D-01-0.556D-01
 Coeff:      0.427D+00 0.715D+00
 Gap=     0.177 Goal=   None    Shift=    0.000
 RMSDP=8.56D-05 MaxDP=4.71D-03 DE=-7.79D-06 OVMax= 7.30D-03

 Cycle   9  Pass 0  IDiag  1:
 E= -764.454555861128     Delta-E=       -0.000325191361 Rises=F Damp=F
 DIIS: error= 9.92D-04 at cycle   9 NSaved=   9.
 NSaved= 9 IEnMin= 9 EnMin= -764.454555861128     IErMin= 9 ErrMin= 9.92D-04
 ErrMax= 9.92D-04  0.00D+00 EMaxC= 1.00D-01 BMatC= 4.13D-04 BMatP= 4.82D-04
 IDIUse=3 WtCom= 9.90D-01 WtEn= 9.92D-03
 Coeff-Com:  0.101D-01-0.111D-01-0.219D-02-0.140D-03-0.291D-01 0.523D-01
 Coeff-Com:  0.433D-01 0.127D+00 0.810D+00
 Coeff-En:   0.000D+00 0.000D+00 0.000D+00 0.000D+00 0.000D+00 0.000D+00
 Coeff-En:   0.000D+00 0.000D+00 0.100D+01
 Coeff:      0.100D-01-0.110D-01-0.217D-02-0.138D-03-0.288D-01 0.518D-01
 Coeff:      0.429D-01 0.126D+00 0.811D+00
 Gap=     0.176 Goal=   None    Shift=    0.000
 RMSDP=5.26D-05 MaxDP=4.17D-03 DE=-3.25D-04 OVMax= 5.72D-03

 Failed to achieve initial convergence to 1.0D-08 in 10 cycles.
 Switch to full accuracy anyway.
 Cycle  10  Pass 1  IDiag  1:
 E= -764.454903084442     Delta-E=       -0.000347223314 Rises=F Damp=F
 DIIS: error= 2.73D-04 at cycle   1 NSaved=   1.
 NSaved= 1 IEnMin= 1 EnMin= -764.454903084442     IErMin= 1 ErrMin= 2.73D-04
 ErrMax= 2.73D-04  0.00D+00 EMaxC= 1.00D-01 BMatC= 4.28D-05 BMatP= 4.28D-05
 IDIUse=3 WtCom= 9.97D-01 WtEn= 2.73D-03
 Coeff-Com:  0.100D+01
 Coeff-En:   0.100D+01
 Coeff:      0.100D+01
 Gap=     0.177 Goal=   None    Shift=    0.000
 RMSDP=5.26D-05 MaxDP=4.17D-03 DE=-3.47D-04 OVMax= 9.35D-03

 Cycle  11  Pass 1  IDiag  1:
 E= -764.454759911283     Delta-E=        0.000143173159 Rises=F Damp=F
 DIIS: error= 6.75D-04 at cycle   2 NSaved=   2.
 NSaved= 2 IEnMin= 1 EnMin= -764.454903084442     IErMin= 1 ErrMin= 2.73D-04
 ErrMax= 6.75D-04  0.00D+00 EMaxC= 1.00D-01 BMatC= 2.31D-04 BMatP= 4.28D-05
 IDIUse=3 WtCom= 2.78D-01 WtEn= 7.22D-01
 Coeff-Com:  0.704D+00 0.296D+00
 Coeff-En:   0.784D+00 0.216D+00
 Coeff:      0.762D+00 0.238D+00
 Gap=     0.176 Goal=   None    Shift=    0.000
 RMSDP=3.41D-05 MaxDP=1.87D-03 DE= 1.43D-04 OVMax= 7.77D-03

 Cycle  12  Pass 1  IDiag  1:
 E= -764.454943953439     Delta-E=       -0.000184042156 Rises=F Damp=F
 DIIS: error= 7.76D-05 at cycle   3 NSaved=   3.
 NSaved= 3 IEnMin= 3 EnMin= -764.454943953439     IErMin= 3 ErrMin= 7.76D-05
 ErrMax= 7.76D-05  0.00D+00 EMaxC= 1.00D-01 BMatC= 4.88D-06 BMatP= 4.28D-05
 IDIUse=1 WtCom= 1.00D+00 WtEn= 0.00D+00
 Coeff-Com:  0.265D+00 0.232D-01 0.712D+00
 Coeff:      0.265D+00 0.232D-01 0.712D+00
 Gap=     0.176 Goal=   None    Shift=    0.000
 RMSDP=8.60D-06 MaxDP=3.22D-04 DE=-1.84D-04 OVMax= 2.50D-03

 Cycle  13  Pass 1  IDiag  1:
 E= -764.454951499043     Delta-E=       -0.000007545604 Rises=F Damp=F
 DIIS: error= 3.55D-05 at cycle   4 NSaved=   4.
 NSaved= 4 IEnMin= 4 EnMin= -764.454951499043     IErMin= 4 ErrMin= 3.55D-05
 ErrMax= 3.55D-05  0.00D+00 EMaxC= 1.00D-01 BMatC= 1.69D-06 BMatP= 4.88D-06
 IDIUse=1 WtCom= 1.00D+00 WtEn= 0.00D+00
 Coeff-Com: -0.322D+00-0.124D+00 0.401D+00 0.105D+01
 Coeff:     -0.322D+00-0.124D+00 0.401D+00 0.105D+01
 Gap=     0.176 Goal=   None    Shift=    0.000
 RMSDP=1.09D-05 MaxDP=4.17D-04 DE=-7.55D-06 OVMax= 1.86D-03

 Cycle  14  Pass 1  IDiag  1:
 E= -764.454957242214     Delta-E=       -0.000005743171 Rises=F Damp=F
 DIIS: error= 3.42D-05 at cycle   5 NSaved=   5.
 NSaved= 5 IEnMin= 5 EnMin= -764.454957242214     IErMin= 5 ErrMin= 3.42D-05
 ErrMax= 3.42D-05  0.00D+00 EMaxC= 1.00D-01 BMatC= 5.95D-07 BMatP= 1.69D-06
 IDIUse=1 WtCom= 1.00D+00 WtEn= 0.00D+00
 Coeff-Com: -0.233D+00-0.332D-01-0.378D-01 0.508D+00 0.796D+00
 Coeff:     -0.233D+00-0.332D-01-0.378D-01 0.508D+00 0.796D+00
 Gap=     0.176 Goal=   None    Shift=    0.000
 RMSDP=6.32D-06 MaxDP=3.26D-04 DE=-5.74D-06 OVMax= 1.14D-03

 Cycle  15  Pass 1  IDiag  1:
 E= -764.454959091098     Delta-E=       -0.000001848884 Rises=F Damp=F
 DIIS: error= 1.45D-05 at cycle   6 NSaved=   6.
 NSaved= 6 IEnMin= 6 EnMin= -764.454959091098     IErMin= 6 ErrMin= 1.45D-05
 ErrMax= 1.45D-05  0.00D+00 EMaxC= 1.00D-01 BMatC= 1.91D-07 BMatP= 5.95D-07
 IDIUse=1 WtCom= 1.00D+00 WtEn= 0.00D+00
 Coeff-Com:  0.137D-01 0.595D-01-0.270D+00-0.260D+00 0.452D+00 0.100D+01
 Coeff:      0.137D-01 0.595D-01-0.270D+00-0.260D+00 0.452D+00 0.100D+01
 Gap=     0.176 Goal=   None    Shift=    0.000
 RMSDP=6.11D-06 MaxDP=2.84D-04 DE=-1.85D-06 OVMax= 1.15D-03

 Cycle  16  Pass 1  IDiag  1:
 E= -764.454959878098     Delta-E=       -0.000000787000 Rises=F Damp=F
 DIIS: error= 4.93D-06 at cycle   7 NSaved=   7.
 NSaved= 7 IEnMin= 7 EnMin= -764.454959878098     IErMin= 7 ErrMin= 4.93D-06
 ErrMax= 4.93D-06  0.00D+00 EMaxC= 1.00D-01 BMatC= 1.52D-08 BMatP= 1.91D-07
 IDIUse=1 WtCom= 1.00D+00 WtEn= 0.00D+00
 Coeff-Com:  0.296D-01 0.116D-01-0.502D-01-0.113D+00 0.193D-01 0.233D+00
 Coeff-Com:  0.870D+00
 Coeff:      0.296D-01 0.116D-01-0.502D-01-0.113D+00 0.193D-01 0.233D+00
 Coeff:      0.870D+00
 Gap=     0.176 Goal=   None    Shift=    0.000
 RMSDP=8.13D-07 MaxDP=3.65D-05 DE=-7.87D-07 OVMax= 1.73D-04

 Cycle  17  Pass 1  IDiag  1:
 E= -764.454959909395     Delta-E=       -0.000000031297 Rises=F Damp=F
 DIIS: error= 3.23D-06 at cycle   8 NSaved=   8.
 NSaved= 8 IEnMin= 8 EnMin= -764.454959909395     IErMin= 8 ErrMin= 3.23D-06
 ErrMax= 3.23D-06  0.00D+00 EMaxC= 1.00D-01 BMatC= 5.94D-09 BMatP= 1.52D-08
 IDIUse=1 WtCom= 1.00D+00 WtEn= 0.00D+00
 Coeff-Com:  0.617D-02-0.142D-01 0.501D-01 0.192D-01-0.974D-01-0.135D+00
 Coeff-Com:  0.281D+00 0.890D+00
 Coeff:      0.617D-02-0.142D-01 0.501D-01 0.192D-01-0.974D-01-0.135D+00
 Coeff:      0.281D+00 0.890D+00
 Gap=     0.176 Goal=   None    Shift=    0.000
 RMSDP=3.84D-07 MaxDP=1.48D-05 DE=-3.13D-08 OVMax= 5.91D-05

 Cycle  18  Pass 1  IDiag  1:
 E= -764.454959917758     Delta-E=       -0.000000008363 Rises=F Damp=F
 DIIS: error= 7.24D-07 at cycle   9 NSaved=   9.
 NSaved= 9 IEnMin= 9 EnMin= -764.454959917758     IErMin= 9 ErrMin= 7.24D-07
 ErrMax= 7.24D-07  0.00D+00 EMaxC= 1.00D-01 BMatC= 5.36D-10 BMatP= 5.94D-09
 IDIUse=1 WtCom= 1.00D+00 WtEn= 0.00D+00
 Coeff-Com: -0.260D-02-0.807D-02 0.295D-01 0.279D-01-0.442D-01-0.889D-01
 Coeff-Com: -0.788D-01 0.355D+00 0.810D+00
 Coeff:     -0.260D-02-0.807D-02 0.295D-01 0.279D-01-0.442D-01-0.889D-01
 Coeff:     -0.788D-01 0.355D+00 0.810D+00
 Gap=     0.176 Goal=   None    Shift=    0.000
 RMSDP=1.39D-07 MaxDP=4.83D-06 DE=-8.36D-09 OVMax= 2.19D-05

 Cycle  19  Pass 1  IDiag  1:
 E= -764.454959918805     Delta-E=       -0.000000001047 Rises=F Damp=F
 DIIS: error= 3.49D-07 at cycle  10 NSaved=  10.
 NSaved=10 IEnMin=10 EnMin= -764.454959918805     IErMin=10 ErrMin= 3.49D-07
 ErrMax= 3.49D-07  0.00D+00 EMaxC= 1.00D-01 BMatC= 5.44D-11 BMatP= 5.36D-10
 IDIUse=1 WtCom= 1.00D+00 WtEn= 0.00D+00
 Coeff-Com: -0.137D-02 0.450D-03-0.112D-02 0.384D-02 0.168D-02-0.506D-04
 Coeff-Com: -0.561D-01-0.367D-01 0.191D+00 0.899D+00
 Coeff:     -0.137D-02 0.450D-03-0.112D-02 0.384D-02 0.168D-02-0.506D-04
 Coeff:     -0.561D-01-0.367D-01 0.191D+00 0.899D+00
 Gap=     0.176 Goal=   None    Shift=    0.000
 RMSDP=5.45D-08 MaxDP=2.10D-06 DE=-1.05D-09 OVMax= 1.11D-05

 Cycle  20  Pass 1  IDiag  1:
 E= -764.454959918976     Delta-E=       -0.000000000171 Rises=F Damp=F
 DIIS: error= 1.58D-07 at cycle  11 NSaved=  11.
 NSaved=11 IEnMin=11 EnMin= -764.454959918976     IErMin=11 ErrMin= 1.58D-07
 ErrMax= 1.58D-07  0.00D+00 EMaxC= 1.00D-01 BMatC= 7.09D-12 BMatP= 5.44D-11
 IDIUse=1 WtCom= 1.00D+00 WtEn= 0.00D+00
 Coeff-Com: -0.257D-04 0.885D-03-0.317D-02-0.241D-02 0.504D-02 0.856D-02
 Coeff-Com: -0.868D-03-0.441D-01-0.539D-01 0.141D+00 0.949D+00
 Coeff:     -0.257D-04 0.885D-03-0.317D-02-0.241D-02 0.504D-02 0.856D-02
 Coeff:     -0.868D-03-0.441D-01-0.539D-01 0.141D+00 0.949D+00
 Gap=     0.176 Goal=   None    Shift=    0.000
 RMSDP=2.48D-08 MaxDP=1.03D-06 DE=-1.71D-10 OVMax= 5.73D-06

 Cycle  21  Pass 1  IDiag  1:
 E= -764.454959919033     Delta-E=       -0.000000000057 Rises=F Damp=F
 DIIS: error= 6.93D-08 at cycle  12 NSaved=  12.
 NSaved=12 IEnMin=12 EnMin= -764.454959919033     IErMin=12 ErrMin= 6.93D-08
 ErrMax= 6.93D-08  0.00D+00 EMaxC= 1.00D-01 BMatC= 2.91D-12 BMatP= 7.09D-12
 IDIUse=1 WtCom= 1.00D+00 WtEn= 0.00D+00
 Coeff-Com:  0.348D-03 0.123D-03-0.462D-03-0.177D-02 0.146D-02 0.235D-02
 Coeff-Com:  0.176D-01-0.812D-02-0.878D-01-0.256D+00 0.404D+00 0.928D+00
 Coeff:      0.348D-03 0.123D-03-0.462D-03-0.177D-02 0.146D-02 0.235D-02
 Coeff:      0.176D-01-0.812D-02-0.878D-01-0.256D+00 0.404D+00 0.928D+00
 Gap=     0.176 Goal=   None    Shift=    0.000
 RMSDP=1.63D-08 MaxDP=7.20D-07 DE=-5.66D-11 OVMax= 4.43D-06

 Cycle  22  Pass 1  IDiag  1:
 E= -764.454959919046     Delta-E=       -0.000000000014 Rises=F Damp=F
 DIIS: error= 3.24D-08 at cycle  13 NSaved=  13.
 NSaved=13 IEnMin=13 EnMin= -764.454959919046     IErMin=13 ErrMin= 3.24D-08
 ErrMax= 3.24D-08  0.00D+00 EMaxC= 1.00D-01 BMatC= 6.67D-13 BMatP= 2.91D-12
 IDIUse=1 WtCom= 1.00D+00 WtEn= 0.00D+00
 Coeff-Com:  0.398D-04-0.118D-03 0.492D-03 0.289D-03-0.850D-03-0.152D-02
 Coeff-Com:  0.230D-02 0.967D-02 0.363D-02-0.536D-01-0.132D+00 0.710D-01
 Coeff-Com:  0.110D+01
 Coeff:      0.398D-04-0.118D-03 0.492D-03 0.289D-03-0.850D-03-0.152D-02
 Coeff:      0.230D-02 0.967D-02 0.363D-02-0.536D-01-0.132D+00 0.710D-01
 Coeff:      0.110D+01
 Gap=     0.176 Goal=   None    Shift=    0.000
 RMSDP=7.86D-09 MaxDP=5.20D-07 DE=-1.36D-11 OVMax= 1.28D-06

 SCF Done:  E(RM062X) =  -764.454959919     A.U. after   22 cycles
            NFock= 22  Conv=0.79D-08     -V/T= 2.0036
 KE= 7.616975579343D+02 PE=-3.054204749953D+03 EE= 9.070709393395D+02
 Leave Link  502 at Sat May 24 06:32:46 2025, MaxMem=  3758096384 cpu:             156.1 elap:              37.2
 (Enter /apps/easybuild-2022/easybuild/software/Compiler/NVHPC/22.11-CUDA-11.7.0/Gaussian/g16c01-CUDA-11.7.0/g16/l508.exe)
 QCSCF skips out because SCF is already converged.
 Leave Link  508 at Sat May 24 06:32:46 2025, MaxMem=  3758096384 cpu:               0.0 elap:               0.0
 (Enter /apps/easybuild-2022/easybuild/software/Compiler/NVHPC/22.11-CUDA-11.7.0/Gaussian/g16c01-CUDA-11.7.0/g16/l801.exe)
 DoSCS=F DFT=T ScalE2(SS,OS)=  1.000000  1.000000
 Range of M.O.s used for correlation:     1   324
 NBasis=   324 NAE=    40 NBE=    40 NFC=     0 NFV=     0
 NROrb=    324 NOA=    40 NOB=    40 NVA=   284 NVB=   284

 **** Warning!!: The largest alpha MO coefficient is  0.22962961D+02

 Leave Link  801 at Sat May 24 06:32:46 2025, MaxMem=  3758096384 cpu:               0.0 elap:               0.0
 (Enter /apps/easybuild-2022/easybuild/software/Compiler/NVHPC/22.11-CUDA-11.7.0/Gaussian/g16c01-CUDA-11.7.0/g16/l1101.exe)
 Using compressed storage, NAtomX=    11.
 Will process     12 centers per pass.
   1 Symmetry operations used in ECPInt.
 ECPInt:  NShTT=    6786 NPrTT=   21959 LenC2=    6408 LenP2D=   15711.
 LDataN:  DoStor=T MaxTD1= 7 Len=  274
 Leave Link 1101 at Sat May 24 06:32:46 2025, MaxMem=  3758096384 cpu:               0.9 elap:               0.2
 (Enter /apps/easybuild-2022/easybuild/software/Compiler/NVHPC/22.11-CUDA-11.7.0/Gaussian/g16c01-CUDA-11.7.0/g16/l1102.exe)
 Symmetrizing basis deriv contribution to polar:
 IMax=3 JMax=2 DiffMx= 0.00D+00
 Leave Link 1102 at Sat May 24 06:32:46 2025, MaxMem=  3758096384 cpu:               0.1 elap:               0.0
 (Enter /apps/easybuild-2022/easybuild/software/Compiler/NVHPC/22.11-CUDA-11.7.0/Gaussian/g16c01-CUDA-11.7.0/g16/l1110.exe)
 Forming Gx(P) for the SCF density, NAtomX=    11.
 Integral derivatives from FoFJK, PRISM(SPDF).
 Do as many integral derivatives as possible in FoFJK.
 G2DrvN: MDV=    3758095115.
 G2DrvN: will do    12 centers at a time, making    1 passes.
 Calling FoFCou, ICntrl=  3107 FMM=F I1Cent=   0 AccDes= 0.00D+00.
 FoFJK:  IHMeth= 1 ICntrl=    3107 DoSepK=F KAlg= 0 I1Cent=           0 FoldK=F
 IRaf=         0 NMat=       1 IRICut=       1 DoRegI=T DoRafI=F ISym2E= 0 IDoP0=0 IntGTp=1.
 FoFCou: FMM=F IPFlag=           0 FMFlag=      100000 FMFlg1=           0
         NFxFlg=           0 DoJE=F BraDBF=F KetDBF=F FulRan=T
         wScrn=  0.000000 ICntrl=      3107 IOpCl=  0 I1Cent=           0 NGrid=           0
         NMat0=    1 NMatS0=      1 NMatT0=    0 NMatD0=    1 NMtDS0=    0 NMtDT0=    0
 Symmetry not used in FoFCou.
 End of G2Drv F.D. properties file   721 does not exist.
 End of G2Drv F.D. properties file   722 does not exist.
 End of G2Drv F.D. properties file   788 does not exist.
 Leave Link 1110 at Sat May 24 06:33:26 2025, MaxMem=  3758096384 cpu:             319.7 elap:              40.3
 (Enter /apps/easybuild-2022/easybuild/software/Compiler/NVHPC/22.11-CUDA-11.7.0/Gaussian/g16c01-CUDA-11.7.0/g16/l1002.exe)
 Minotr:  Closed shell wavefunction.
          IDoAtm=11111111111
          Direct CPHF calculation.
          Differentiating once with respect to electric field.
                with respect to dipole field.
          Differentiating once with respect to nuclear coordinates.
          Requested convergence is 1.0D-08 RMS, and 1.0D-07 maximum.
          Secondary convergence is 1.0D-12 RMS, and 1.0D-12 maximum.
          NewPWx=T KeepS1=F KeepF1=F KeepIn=T MapXYZ=F SortEE=F KeepMc=T.
         3307 words used for storage of precomputed grid.
 Keep R1 ints in memory in canonical form, NReq=1412622537.
 FoFCou: FMM=F IPFlag=           0 FMFlag=           0 FMFlg1=           0
         NFxFlg=           0 DoJE=F BraDBF=F KetDBF=F FulRan=T
         wScrn=  0.000000 ICntrl=       600 IOpCl=  0 I1Cent=           0 NGrid=           0
         NMat0=    1 NMatS0=  52650 NMatT0=    0 NMatD0=    1 NMtDS0=    0 NMtDT0=    0
 Symmetry not used in FoFCou.
 Two-electron integral symmetry not used.
          MDV=    3758096384 using IRadAn=       1.
          Solving linear equations simultaneously, MaxMat=       0.
          There are    36 degrees of freedom in the 1st order CPHF.  IDoFFX=6 NUNeed=     3.
     33 vectors produced by pass  0 Test12= 3.16D-14 2.78D-09 XBig12= 9.35D+01 8.54D+00.
 AX will form    33 AO Fock derivatives at one time.
     33 vectors produced by pass  1 Test12= 3.16D-14 2.78D-09 XBig12= 2.73D+01 9.66D-01.
     33 vectors produced by pass  2 Test12= 3.16D-14 2.78D-09 XBig12= 1.34D+00 1.64D-01.
     33 vectors produced by pass  3 Test12= 3.16D-14 2.78D-09 XBig12= 2.91D-02 2.16D-02.
     33 vectors produced by pass  4 Test12= 3.16D-14 2.78D-09 XBig12= 3.19D-04 2.32D-03.
     33 vectors produced by pass  5 Test12= 3.16D-14 2.78D-09 XBig12= 2.83D-06 2.14D-04.
     33 vectors produced by pass  6 Test12= 3.16D-14 2.78D-09 XBig12= 1.48D-08 1.42D-05.
     16 vectors produced by pass  7 Test12= 3.16D-14 2.78D-09 XBig12= 6.20D-11 9.36D-07.
      3 vectors produced by pass  8 Test12= 3.16D-14 2.78D-09 XBig12= 2.77D-13 5.14D-08.
      2 vectors produced by pass  9 Test12= 3.16D-14 2.78D-09 XBig12= 1.42D-15 4.84D-09.
 InvSVY:  IOpt=1 It=  1 EMax= 1.78D-15
 Solved reduced A of dimension   252 with    36 vectors.
 FullF1:  Do perturbations      1 to       3.
 Isotropic polarizability for W=    0.000000       57.62 Bohr**3.
 End of Minotr F.D. properties file   721 does not exist.
 End of Minotr F.D. properties file   722 does not exist.
 End of Minotr F.D. properties file   788 does not exist.
 Leave Link 1002 at Sat May 24 06:34:29 2025, MaxMem=  3758096384 cpu:             492.6 elap:              62.6
 (Enter /apps/easybuild-2022/easybuild/software/Compiler/NVHPC/22.11-CUDA-11.7.0/Gaussian/g16c01-CUDA-11.7.0/g16/l701.exe)
 ... and contract with generalized density number  0.
 Compute integral second derivatives.
   1 Symmetry operations used in ECPInt.
 ECPInt:  NShTT=    6786 NPrTT=   21959 LenC2=    6408 LenP2D=   15711.
 LDataN:  DoStor=T MaxTD1= 8 Len=  415
 Leave Link  701 at Sat May 24 06:34:29 2025, MaxMem=  3758096384 cpu:               0.7 elap:               0.1
 (Enter /apps/easybuild-2022/easybuild/software/Compiler/NVHPC/22.11-CUDA-11.7.0/Gaussian/g16c01-CUDA-11.7.0/g16/l702.exe)
 L702 exits ... SP integral derivatives will be done elsewhere.
 Leave Link  702 at Sat May 24 06:34:29 2025, MaxMem=  3758096384 cpu:               0.0 elap:               0.0
 (Enter /apps/easybuild-2022/easybuild/software/Compiler/NVHPC/22.11-CUDA-11.7.0/Gaussian/g16c01-CUDA-11.7.0/g16/l703.exe)
 Integral derivatives from FoFJK, PRISM(SPDF).
 Compute integral second derivatives, UseDBF=F ICtDFT=           0.
 Calling FoFJK, ICntrl=    100127 FMM=F ISym2X=0 I1Cent= 0 IOpClX= 0 NMat=1 NMatS=1 NMatT=0.
 FoFJK:  IHMeth= 1 ICntrl=  100127 DoSepK=F KAlg= 0 I1Cent=           0 FoldK=F
 IRaf=         0 NMat=       1 IRICut=       1 DoRegI=T DoRafI=F ISym2E= 0 IDoP0=0 IntGTp=1.
 FoFCou: FMM=F IPFlag=           0 FMFlag=      100000 FMFlg1=         800
         NFxFlg=           0 DoJE=F BraDBF=F KetDBF=F FulRan=T
         wScrn=  0.000000 ICntrl=    100127 IOpCl=  0 I1Cent=           0 NGrid=           0
         NMat0=    1 NMatS0=      1 NMatT0=    0 NMatD0=    1 NMtDS0=    0 NMtDT0=    0
 Symmetry not used in FoFCou.
 Leave Link  703 at Sat May 24 06:35:59 2025, MaxMem=  3758096384 cpu:             719.0 elap:              90.4
 (Enter /apps/easybuild-2022/easybuild/software/Compiler/NVHPC/22.11-CUDA-11.7.0/Gaussian/g16c01-CUDA-11.7.0/g16/l716.exe)
 Dipole        =-2.46112464D-01 6.48170312D-01 1.43308817D+00
 Polarizability= 4.31783013D+01 4.03712425D+00 7.36534723D+01
                -7.74896847D-01 7.36096233D+00 5.60377606D+01
 -------------------------------------------------------------------
 Center     Atomic                   Forces (Hartrees/Bohr)
 Number     Number              X              Y              Z
 -------------------------------------------------------------------
      1        6           0.000001220   -0.000001282   -0.000004497
      2        8          -0.000006289   -0.000006185   -0.000001164
      3        6           0.000001551    0.000003859    0.000003990
      4        6           0.000006334    0.000004903    0.000002252
      5        9           0.000004611    0.000004554    0.000003502
      6        9           0.000005050    0.000002619   -0.000001884
      7        9           0.000003424    0.000009472   -0.000003421
      8        9          -0.000003472   -0.000002134   -0.000001591
      9        9           0.000001112   -0.000006924    0.000011359
     10        8          -0.000006029   -0.000003586   -0.000003660
     11        1          -0.000007512   -0.000005298   -0.000004887
 -------------------------------------------------------------------
 Cartesian Forces:  Max     0.000011359 RMS     0.000004851
 Force constants in Cartesian coordinates: 
                1             2             3             4             5 
      1  0.393231D+00
      2  0.161273D+00  0.530481D+00
      3  0.222863D+00 -0.969030D-01  0.681039D+00
      4 -0.283906D+00 -0.234565D+00 -0.208524D+00  0.320123D+00
      5 -0.140898D+00 -0.157774D+00 -0.143741D+00  0.251620D+00  0.219639D+00
      6 -0.120439D+00 -0.397523D-02 -0.235823D+00  0.277386D+00  0.118708D+00
      7 -0.450009D-01 -0.232781D-01  0.767973D-01  0.400579D-02 -0.812856D-01
      8 -0.260893D-01 -0.215568D+00  0.146784D+00 -0.265646D-01 -0.586115D-01
      9  0.242019D-01  0.852577D-01 -0.132504D+00 -0.302201D-01 -0.199248D-01
     10  0.104217D-01 -0.102860D-01  0.120470D-01 -0.852215D-02  0.986574D-02
     11  0.108956D-01  0.150779D-02  0.233603D-01 -0.135769D-03 -0.251064D-02
     12 -0.274330D-01 -0.213645D-01 -0.436354D-02 -0.706692D-02  0.229400D-01
     13 -0.154117D-02  0.649759D-04 -0.142323D-02  0.502607D-03 -0.823063D-03
     14 -0.155380D-02  0.288618D-04 -0.145223D-02  0.824676D-03  0.242401D-02
     15  0.487178D-02  0.442781D-02  0.598531D-04  0.107363D-02 -0.436425D-02
     16 -0.212524D-02 -0.127580D-02 -0.318630D-03 -0.296702D-03  0.167308D-02
     17 -0.636645D-03 -0.518316D-03 -0.105136D-02 -0.524371D-03  0.178242D-02
     18  0.365677D-02  0.607150D-02 -0.139580D-02  0.344617D-02 -0.709133D-02
     19  0.284590D-02  0.527798D-02 -0.127616D-02  0.453989D-02 -0.527758D-02
     20  0.132860D-03  0.214772D-02 -0.336551D-02  0.305799D-02 -0.889359D-02
     21  0.742110D-02  0.678469D-02  0.177899D-02  0.116142D-02  0.341060D-03
     22  0.552822D-01  0.115204D+00  0.243970D-01 -0.113016D-01 -0.452696D-01
     23  0.242237D-01  0.413927D-02 -0.994653D-02  0.159761D-01 -0.138816D-01
     24 -0.147964D-01 -0.708665D-01 -0.287348D-01  0.143624D-01  0.189587D-01
     25 -0.451127D-01 -0.391430D-01 -0.368970D-01 -0.577381D-02  0.106744D-01
     26 -0.572650D-01 -0.263392D-01 -0.324403D-01 -0.694755D-02  0.360753D-02
     27 -0.236017D-01 -0.188989D-01  0.148631D-02  0.194686D-02  0.187025D-01
     28 -0.896428D-01  0.947997D-02 -0.833516D-01 -0.159947D-01 -0.406123D-03
     29  0.312922D-01 -0.119761D+00  0.107685D+00  0.874992D-03  0.126640D-01
     30 -0.846552D-01  0.635038D-01 -0.264230D+00 -0.546584D-01 -0.243880D-02
     31  0.554820D-02  0.172483D-01 -0.431390D-02 -0.337615D-02  0.126337D-03
     32 -0.137422D-02 -0.183449D-01  0.110696D-01 -0.361694D-02  0.155407D-02
     33  0.791094D-02  0.459625D-01 -0.173137D-01  0.109338D-02 -0.209035D-02
                6             7             8             9            10 
      6  0.209892D+00
      7 -0.746621D-01  0.446552D+00
      8 -0.658423D-01  0.229692D+00  0.595390D+00
      9  0.296974D-01  0.171030D+00 -0.132677D+00  0.524018D+00
     10  0.576787D-02 -0.606291D-01  0.111270D-01 -0.283305D-01  0.614312D+00
     11 -0.672600D-02  0.206367D-01 -0.868218D-01  0.748298D-01  0.411193D-01
     12  0.289170D-01 -0.217717D-01  0.677685D-01 -0.164495D+00  0.413985D-01
     13 -0.815310D-03  0.233613D-02  0.192935D-01 -0.154682D-02 -0.895105D-01
     14  0.420728D-02  0.104946D-01 -0.543847D-01 -0.350020D-02  0.566689D-01
     15 -0.533364D-02 -0.100847D-01  0.199684D-01  0.591850D-02  0.159242D-02
     16  0.346567D-02 -0.910122D-02 -0.545552D-02  0.128450D-01 -0.207192D+00
     17  0.158542D-02 -0.156881D-01  0.188496D-02  0.149496D-01 -0.170937D-01
     18 -0.903421D-02  0.351389D-01  0.108121D-01 -0.327543D-01  0.122313D+00
     19 -0.447271D-02 -0.211299D-01 -0.161013D-01 -0.133409D-01 -0.241310D+00
     20  0.463959D-02 -0.819977D-04  0.624160D-02  0.313911D-03 -0.827070D-01
     21 -0.118998D-01 -0.346781D-01 -0.212503D-01 -0.103939D-01 -0.114923D+00
     22 -0.592534D-01 -0.523817D-01 -0.306083D-01  0.176669D-01  0.408778D-02
     23 -0.264688D-01 -0.430249D-02 -0.321822D-02  0.479085D-02 -0.105990D-02
     24  0.117725D-01  0.230898D-01  0.223382D-01 -0.868982D-02 -0.390252D-02
     25  0.253605D-01 -0.261804D+00 -0.145182D+00 -0.149236D+00 -0.225766D-01
     26  0.218549D-01 -0.143557D+00 -0.157842D+00 -0.748445D-01 -0.805318D-03
     27  0.199378D-01 -0.143191D+00 -0.720443D-01 -0.168239D+00 -0.364969D-01
     28 -0.559568D-01 -0.360518D-02 -0.112549D-01  0.141516D-02 -0.324765D-03
     29 -0.432675D-01  0.783773D-02 -0.276936D-01  0.514590D-01 -0.641157D-02
     30 -0.454602D-01 -0.201455D-01  0.199208D-01 -0.367266D-01 -0.133501D-04
     31  0.361985D-02  0.758541D-03  0.114351D-02 -0.448481D-02  0.124370D-02
     32 -0.471531D-02 -0.468342D-03  0.622866D-03 -0.654551D-03 -0.417420D-03
     33  0.733398D-02 -0.152312D-02  0.422121D-02 -0.583156D-02  0.547122D-03
               11            12            13            14            15 
     11  0.541841D+00
     12 -0.749693D-02  0.594775D+00
     13  0.514804D-01  0.520854D-02  0.103438D+00
     14 -0.267652D+00 -0.277155D-01 -0.790977D-01  0.381373D+00
     15 -0.192364D-01 -0.798225D-01 -0.200863D-01  0.822732D-01  0.941926D-01
     16 -0.153225D-01  0.114566D+00 -0.265146D-01  0.309347D-01  0.351483D-01
     17 -0.756446D-01  0.196827D-01  0.446864D-01 -0.100864D-01 -0.408002D-01
     18  0.156949D-01 -0.191075D+00  0.316671D-01 -0.268042D-01 -0.127206D-01
     19 -0.774661D-01 -0.112800D+00  0.953623D-02 -0.235494D-01 -0.104378D-01
     20 -0.117241D+00 -0.486358D-01 -0.387372D-01 -0.532430D-01 -0.449012D-01
     21 -0.472118D-01 -0.157384D+00 -0.139844D-01 -0.336080D-01 -0.598376D-02
     22 -0.367283D-02  0.242980D-01 -0.427589D-03  0.279483D-02 -0.456573D-02
     23  0.286486D-02  0.203313D-02  0.423503D-03 -0.111297D-02 -0.331756D-03
     24 -0.831622D-03 -0.183810D-01  0.574182D-03 -0.147723D-02  0.352488D-02
     25 -0.211671D-01 -0.201294D-01  0.187739D-02  0.177656D-02  0.277238D-02
     26  0.193438D-02 -0.456602D-02  0.153650D-02  0.468508D-02  0.293400D-02
     27 -0.275837D-01 -0.175175D-01  0.149093D-02  0.297845D-02  0.183052D-02
     28 -0.565342D-02  0.416436D-02  0.308763D-03  0.820971D-03 -0.502486D-03
     29  0.203912D-02 -0.386012D-02  0.131970D-02 -0.273425D-02  0.378065D-03
     30 -0.655282D-02  0.994721D-02 -0.937617D-03  0.517221D-02 -0.173676D-02
     31 -0.714306D-03 -0.434410D-03 -0.504850D-05 -0.114436D-03  0.218539D-03
     32 -0.316496D-03  0.121447D-02 -0.147053D-03  0.702064D-03 -0.347702D-03
     33  0.175431D-02 -0.600890D-03 -0.147062D-03 -0.737562D-04  0.709513D-04
               16            17            18            19            20 
     16  0.312737D+00
     17  0.118054D-01  0.794037D-01
     18 -0.185229D+00 -0.330036D-02  0.219303D+00
     19 -0.763707D-01 -0.275309D-01 -0.132247D-02  0.326522D+00
     20 -0.236247D-01  0.598542D-02  0.290197D-03  0.139060D+00  0.164844D+00
     21  0.185115D-01  0.668376D-02  0.219649D-01  0.145431D+00  0.841509D-01
     22  0.370874D-02  0.952519D-03 -0.802629D-02 -0.466219D-02 -0.123129D-02
     23  0.798882D-03 -0.224582D-02 -0.287067D-03  0.941897D-03 -0.163479D-02
     24 -0.162290D-02 -0.239302D-04  0.512047D-02  0.297871D-02  0.258660D-02
     25  0.440738D-02  0.261770D-02  0.367266D-03  0.492222D-03  0.345681D-02
     26  0.133223D-02  0.845308D-03  0.148395D-02  0.389132D-02  0.173199D-02
     27  0.139448D-02  0.101605D-02  0.278271D-02 -0.461076D-02  0.400971D-02
     28  0.712074D-03  0.108195D-02 -0.151294D-02 -0.374471D-03  0.677554D-03
     29 -0.102380D-02 -0.149509D-02  0.332319D-02  0.736965D-03 -0.812168D-04
     30  0.130224D-02  0.150401D-02 -0.236340D-02 -0.193656D-03  0.120810D-02
     31  0.352390D-04  0.329725D-03 -0.498926D-03 -0.881100D-04 -0.280551D-05
     32  0.157993D-03  0.883983D-04 -0.192918D-03  0.172997D-04  0.143324D-03
     33 -0.632377D-04 -0.245685D-03  0.171647D-03  0.450801D-04 -0.296502D-03
               21            22            23            24            25 
     21  0.166393D+00
     22 -0.513741D-02 -0.162453D-01
     23 -0.549777D-03 -0.333129D-01  0.130941D-01
     24  0.481202D-02 -0.121889D-01  0.311271D-01  0.406847D-01
     25 -0.282006D-02  0.197503D-01 -0.592937D-03 -0.954568D-02  0.300273D+00
     26  0.464952D-02  0.125563D-01  0.139159D-02 -0.925023D-02  0.183387D+00
     27 -0.795558D-02  0.116933D-01  0.495793D-03 -0.732530D-02  0.183218D+00
     28 -0.103425D-02  0.743943D-03 -0.353440D-02  0.242134D-02  0.883569D-02
     29  0.232545D-03 -0.188869D-01  0.130726D-02  0.819744D-02  0.316344D-02
     30 -0.167886D-02  0.857789D-02 -0.504516D-03 -0.238947D-02  0.834102D-02
     31  0.519629D-04  0.144545D-02  0.438511D-03 -0.136998D-02 -0.368472D-03
     32 -0.222566D-03  0.147408D-02 -0.703734D-03 -0.758571D-03  0.100923D-02
     33  0.346546D-03  0.253859D-02 -0.358386D-03 -0.394113D-03 -0.143150D-02
               26            27            28            29            30 
     26  0.167051D+00
     27  0.901020D-01  0.169835D+00
     28  0.595748D-02  0.722328D-02  0.161290D+00
     29  0.228313D-02  0.145620D-02  0.136482D+00  0.589823D+00
     30  0.193955D-02  0.540545D-02  0.129531D+00 -0.168018D+00  0.379369D+00
     31 -0.864632D-04  0.933125D-03 -0.619487D-01 -0.155385D+00  0.128512D-01
     32  0.650979D-03 -0.233828D-03 -0.133651D+00 -0.456352D+00  0.842656D-01
     33 -0.186284D-02 -0.240642D-03 -0.239755D-02  0.424137D-01 -0.401372D-01
               31            32            33 
     31  0.567554D-01
     32  0.137017D+00  0.471956D+00
     33 -0.657264D-02 -0.894243D-01  0.565950D-01
 FormGI is forming the generalized inverse of G from B-inverse, IUseBI=4.
 Force constants in internal coordinates: 
                1             2             3             4             5 
      1  0.626151D+00
      2  0.110329D+00  0.439496D+00
      3  0.535334D-01  0.356992D-01  0.460562D+00
      4  0.112459D+00 -0.449814D-01  0.153047D-01  0.336745D-01
      5  0.893877D-02  0.985352D-02 -0.321779D-02 -0.778693D-02  0.294651D+00
      6 -0.360340D-01  0.332919D-01  0.997564D-02  0.292263D-01  0.192973D-01
      7 -0.284990D-02  0.174025D-02  0.490217D-02  0.182513D-02  0.309165D-01
      8 -0.908011D-02  0.207551D-02  0.359007D-02  0.862172D-02  0.307576D-01
      9 -0.580358D-02  0.357766D-02  0.696443D-03  0.843834D-02  0.217731D-01
     10 -0.447123D-02 -0.184023D-02  0.877745D-02 -0.182653D-02  0.598230D-04
     11 -0.132127D-01  0.369981D-01 -0.454665D-01  0.363757D-01  0.229840D-01
     12  0.655171D-01 -0.577112D-01  0.785085D-02 -0.336221D-01 -0.130556D-01
     13 -0.547129D-01  0.227895D-01  0.381113D-01 -0.402810D-03 -0.952745D-02
     14 -0.103590D+00  0.511978D-01 -0.204727D-01  0.174531D+00  0.808094D-02
     15 -0.109470D-01  0.261181D-01  0.871712D-02 -0.495824D-03  0.278822D-01
     16  0.161860D-01  0.314743D-02 -0.930425D-02  0.173077D-02 -0.308476D-01
     17 -0.523261D-02 -0.292721D-01  0.590193D-03 -0.123248D-02  0.295774D-02
     18 -0.105140D-01 -0.124259D-02  0.401586D-02  0.102039D-01  0.192064D-01
     19 -0.363492D-02  0.171109D-02  0.328017D-02  0.577744D-02  0.194888D-01
     20 -0.450814D-02  0.198814D-01  0.169732D-02  0.151885D-02  0.329099D-01
     21  0.618573D-02 -0.360467D-02 -0.373620D-02 -0.593784D-02 -0.210417D-01
     22  0.549889D-02 -0.909777D-02 -0.280146D-02 -0.500322D-02 -0.271135D-01
     23  0.700578D-02 -0.849551D-02 -0.258299D-02 -0.649490D-02 -0.249243D-01
     24 -0.846788D-02  0.914938D-02  0.485566D-01  0.526743D-02  0.696469D-03
     25 -0.421499D-01  0.260673D-01  0.823321D-02  0.393951D-01  0.594849D-02
     26 -0.203539D-01  0.971006D-02  0.147719D-02  0.241705D-01  0.415562D-02
     27  0.554286D-02 -0.133497D-02 -0.115421D-02 -0.458314D-02  0.251979D-02
     28  0.614810D-02 -0.222018D-02 -0.858964D-03 -0.434713D-02  0.174217D-02
     29 -0.725283D-03  0.389951D-02  0.254883D-02  0.484098D-02  0.329871D-02
     30 -0.120038D-03  0.301431D-02  0.284407D-02  0.507700D-02  0.252109D-02
     31 -0.829227D-02  0.855437D-02 -0.231879D-02  0.935775D-02  0.236029D-02
     32  0.930884D-02 -0.921432D-02 -0.643316D-03 -0.951230D-02 -0.270060D-02
     33 -0.137239D-02  0.122422D-02  0.380824D-03  0.806962D-03  0.730309D-03
     34 -0.152970D-02 -0.279678D-02 -0.220795D-03  0.215997D-02 -0.395975D-02
     35  0.162771D-02  0.156683D-02  0.122866D-03 -0.819584D-03  0.181990D-02
     36 -0.208568D-02  0.187537D-02  0.176643D-03  0.566950D-03  0.170140D-02
     37 -0.224300D-02 -0.214562D-02 -0.424977D-03  0.191996D-02 -0.298866D-02
     38  0.914416D-03  0.221799D-02 -0.813156D-04 -0.105960D-02  0.279099D-02
                6             7             8             9            10 
      6  0.539461D+00
      7  0.507469D-02  0.424005D+00
      8  0.229026D-02  0.558418D-01  0.457330D+00
      9 -0.517465D-03  0.566145D-01  0.543843D-01  0.492704D+00
     10 -0.123832D-02 -0.572298D-03 -0.360938D-03 -0.490705D-04  0.528821D+00
     11  0.569382D-02  0.835536D-03 -0.639328D-02 -0.757568D-02  0.377141D-02
     12  0.100257D-01 -0.224349D-02  0.177806D-02  0.391129D-02 -0.716661D-02
     13 -0.170885D-01  0.153169D-02  0.404045D-02  0.360241D-02  0.334153D-02
     14 -0.245663D-01  0.330835D-03 -0.867685D-02 -0.222687D-02 -0.193635D-03
     15 -0.438148D-01  0.117529D-01  0.763788D-02 -0.136962D-01  0.167209D-03
     16  0.220272D-01 -0.431488D-02 -0.309424D-02 -0.308747D-02 -0.768027D-03
     17  0.217957D-01 -0.746226D-02 -0.451684D-02  0.167851D-01  0.600638D-03
     18 -0.953275D-02  0.269501D-01 -0.306871D-01 -0.337400D-01 -0.635517D-03
     19 -0.696555D-02 -0.289909D-01  0.212774D-01 -0.340169D-01 -0.210140D-03
     20  0.157620D-01 -0.320652D-01 -0.332203D-01  0.792468D-02 -0.371151D-03
     21 -0.510150D-03  0.210231D-01  0.265326D-01 -0.224425D-02  0.486569D-03
     22 -0.352963D-04  0.199186D-01 -0.360968D-02  0.323226D-01  0.407773D-03
     23  0.308023D-03 -0.270252D-02  0.208189D-01  0.275061D-01  0.340019D-03
     24 -0.317605D-02 -0.466144D-04  0.387815D-04 -0.753758D-04  0.283092D-01
     25 -0.105512D-01  0.229859D-02 -0.393478D-02 -0.336094D-02 -0.160624D-03
     26 -0.133891D-03  0.133088D-02 -0.742098D-03 -0.325977D-02 -0.311915D-03
     27  0.380751D-02  0.236118D-02  0.424110D-03 -0.263939D-02  0.348588D-03
     28  0.481588D-02 -0.991032D-04  0.303139D-02 -0.236522D-02  0.334561D-03
     29 -0.276850D-02  0.280653D-02 -0.259263D-02 -0.254600D-02 -0.746107D-03
     30 -0.176013D-02  0.346250D-03  0.146520D-04 -0.227182D-02 -0.760134D-03
     31 -0.338073D-02  0.238581D-03 -0.187319D-02 -0.552538D-03 -0.963067D-03
     32  0.470466D-02 -0.656831D-03  0.234898D-02  0.674498D-03 -0.116714D-02
     33  0.452005D-02 -0.311897D-03 -0.218649D-01  0.183582D-01 -0.103778D-03
     34 -0.461296D-02  0.240945D-01  0.352156D-02 -0.191571D-01  0.232953D-04
     35  0.167718D-02 -0.243989D-01  0.233214D-01 -0.362457D-02  0.423900D-04
     36  0.352818D-02  0.198197D-02 -0.243042D-01  0.182126D-01 -0.818250D-04
     37 -0.560482D-02  0.263883D-01  0.108224D-02 -0.193027D-01  0.452479D-04
     38  0.685312D-03 -0.221050D-01  0.208821D-01 -0.377015D-02  0.643426D-04
               11            12            13            14            15 
     11  0.144886D+00
     12 -0.795009D-01  0.161104D+00
     13 -0.665044D-01 -0.805372D-01  0.147508D+00
     14 -0.256835D-01  0.296763D-01 -0.735319D-02  0.368828D-01
     15  0.303301D-01 -0.218440D-01 -0.833359D-02  0.328494D-02  0.174373D+00
     16 -0.200387D-02  0.290692D-02 -0.102449D-02 -0.132370D-02 -0.877965D-01
     17 -0.283467D-01  0.189416D-01  0.937181D-02 -0.201427D-02 -0.865924D-01
     18 -0.156253D-01  0.726336D-02  0.813171D-02 -0.533457D-02 -0.626853D-02
     19 -0.808147D-02  0.178636D-02  0.641439D-02  0.124273D-02  0.173441D-02
     20  0.373611D-01 -0.173564D-01 -0.202563D-01 -0.434426D-03  0.407488D-01
     21  0.513583D-03  0.222405D-03 -0.710345D-03  0.906651D-03 -0.632339D-02
     22 -0.966105D-02  0.552514D-02  0.417811D-02  0.153356D-02 -0.174621D-01
     23 -0.630996D-02  0.343004D-02  0.316695D-02  0.190944D-02 -0.143241D-01
     24  0.795203D-03 -0.232953D-01  0.222431D-01 -0.702243D-02  0.451520D-02
     25 -0.180112D-01  0.661549D-02  0.114649D-01 -0.498354D-01  0.503482D-02
     26 -0.599671D-02  0.114330D-01 -0.795848D-02 -0.276499D-01  0.448185D-02
     27  0.136082D-01 -0.152365D-01  0.816019D-03  0.100007D-01  0.615647D-02
     28  0.113566D-01 -0.146324D-01  0.224769D-02  0.474298D-02  0.381644D-02
     29 -0.160854D-02  0.857882D-02 -0.534429D-02 -0.552990D-02  0.456566D-02
     30 -0.386010D-02  0.918287D-02 -0.391261D-02 -0.107876D-01  0.222563D-02
     31  0.488216D-02 -0.995603D-03 -0.274017D-02 -0.110908D-01  0.204636D-02
     32 -0.448655D-02  0.392723D-02 -0.709529D-03  0.128430D-01 -0.241187D-02
     33  0.312064D-02 -0.107447D-02 -0.227795D-02 -0.461233D-02  0.318684D-02
     34 -0.860420D-02  0.393099D-02  0.440886D-02 -0.576082D-02 -0.666884D-02
     35  0.356077D-02 -0.257366D-02 -0.964726D-03 -0.262826D-02  0.494998D-02
     36  0.509269D-02 -0.156164D-02 -0.356025D-02  0.304371D-03  0.557122D-02
     37 -0.663215D-02  0.344382D-02  0.312656D-02 -0.844123D-03 -0.428445D-02
     38  0.553283D-02 -0.306083D-02 -0.224703D-02  0.228844D-02  0.733436D-02
               16            17            18            19            20 
     16  0.159574D+00
     17 -0.717684D-01  0.158368D+00
     18  0.477149D-02  0.148563D-02  0.198709D+00
     19  0.386324D-02 -0.557668D-02  0.147615D-01  0.185240D+00
     20 -0.366923D-01 -0.406541D-02 -0.892921D-02 -0.131120D-01  0.215490D+00
     21  0.366076D-02  0.266789D-02 -0.861098D-01 -0.797452D-01 -0.173696D-01
     22  0.141533D-01  0.331712D-02 -0.976778D-01 -0.167861D-01 -0.896708D-01
     23  0.117765D-01  0.253421D-02 -0.194876D-01 -0.924762D-01 -0.936187D-01
     24 -0.529341D-02  0.777934D-03 -0.325300D-03  0.651982D-03 -0.145888D-02
     25 -0.513274D-02  0.862382D-04 -0.594589D-02  0.368909D-02  0.425527D-03
     26 -0.421688D-02 -0.264434D-03 -0.518936D-02  0.233920D-02  0.367279D-02
     27 -0.240958D-02 -0.378734D-02  0.109242D-02 -0.501865D-02  0.683787D-02
     28 -0.184739D-02 -0.190715D-02 -0.175939D-04 -0.298678D-02  0.587567D-02
     29 -0.276740D-02 -0.185039D-02  0.622539D-03 -0.414268D-02  0.346685D-02
     30 -0.220522D-02  0.298015D-04 -0.487474D-03 -0.211081D-02  0.250465D-02
     31 -0.709351D-03 -0.134403D-02 -0.231795D-02  0.775429D-03  0.141742D-02
     32  0.303489D-03  0.211695D-02  0.826584D-03  0.889608D-03 -0.115704D-02
     33 -0.273749D-02 -0.411659D-03 -0.237427D-02 -0.962081D-02  0.162174D-01
     34  0.600558D-02  0.711520D-03  0.968132D-02 -0.254091D-02 -0.153871D-01
     35 -0.177405D-02 -0.313551D-02 -0.108188D-01  0.903274D-02  0.570544D-02
     36 -0.482052D-02 -0.808765D-03 -0.136362D-02 -0.115790D-01  0.173675D-01
     37  0.392254D-02  0.314414D-03  0.106920D-01 -0.449911D-02 -0.142369D-01
     38 -0.385708D-02 -0.353261D-02 -0.980818D-02  0.707455D-02  0.685560D-02
               21            22            23            24            25 
     21  0.132124D+00
     22  0.283913D-01  0.143954D+00
     23  0.290649D-01  0.339129D-01  0.142977D+00
     24  0.384674D-03  0.453209D-03  0.354068D-03  0.170734D+00
     25 -0.114852D-02 -0.852727D-03  0.336674D-02  0.997472D-03  0.361274D-03
     26 -0.123131D-02 -0.142244D-02  0.133798D-02 -0.130466D-03 -0.108813D-02
     27 -0.576964D-03 -0.250786D-02 -0.900120D-04  0.157698D-02  0.649092D-02
     28 -0.308420D-04 -0.164081D-02 -0.138056D-02  0.154898D-02  0.533082D-02
     29 -0.409467D-03 -0.165019D-02  0.190463D-02 -0.242848D-02  0.763090D-02
     30  0.136655D-03 -0.783132D-03  0.614078D-03 -0.245648D-02  0.647080D-02
     31  0.594531D-05 -0.331760D-03  0.293869D-03 -0.233248D-03 -0.278511D-02
     32 -0.198722D-03  0.497592D-03 -0.767503D-03  0.761455D-03 -0.126084D-02
     33 -0.335394D-01  0.289097D-01 -0.224482D-02 -0.480288D-03 -0.129680D-02
     34  0.354992D-01  0.192044D-02 -0.247774D-01  0.122802D-03 -0.395162D-02
     35  0.123247D-03 -0.304392D-01  0.245296D-01  0.454200D-04  0.356415D-02
     36 -0.340633D-01  0.280114D-01 -0.111166D-02 -0.410844D-03 -0.173351D-03
     37  0.349753D-01  0.102214D-02 -0.236443D-01  0.192246D-03 -0.282816D-02
     38 -0.400636D-03 -0.313375D-01  0.256628D-01  0.114864D-03  0.468761D-02
               26            27            28            29            30 
     26  0.155876D-01
     27  0.111325D-01  0.944095D-02
     28  0.111786D-01  0.541064D-02  0.115088D-01
     29 -0.173572D-02  0.319326D-02 -0.197705D-02  0.132520D-01
     30 -0.168963D-02 -0.837049D-03  0.412115D-02  0.808169D-02  0.130399D-01
     31 -0.963714D-02 -0.244858D-02 -0.315390D-02  0.385978D-02  0.315446D-02
     32  0.675856D-02  0.860111D-03  0.172388D-02 -0.581238D-02 -0.494861D-02
     33  0.348043D-03  0.540408D-03  0.425765D-02 -0.881015D-03  0.283623D-02
     34 -0.267659D-02 -0.206192D-02  0.272028D-02 -0.309910D-02  0.168310D-02
     35  0.346985D-02 -0.115118D-02  0.281541D-02 -0.131380D-02  0.265279D-02
     36  0.334761D-03  0.430785D-02 -0.144220D-02  0.396545D-02 -0.178460D-02
     37 -0.268987D-02  0.170552D-02 -0.297957D-02  0.174736D-02 -0.293773D-02
     38  0.345657D-02  0.261627D-02 -0.288444D-02  0.353266D-02 -0.196804D-02
               31            32            33            34            35 
     31  0.753009D-02
     32 -0.463956D-04  0.830927D-02
     33 -0.623715D-03  0.468408D-03  0.323604D-01
     34 -0.145902D-02  0.111881D-02 -0.129376D-01  0.324540D-01
     35  0.525386D-03 -0.258723D-04 -0.116843D-01 -0.127672D-01  0.302055D-01
     36  0.341606D-04 -0.330609D-03  0.289018D-01 -0.174510D-01 -0.153975D-01
     37 -0.801141D-03  0.319790D-03 -0.163961D-01  0.279406D-01 -0.164803D-01
     38  0.118326D-02 -0.824890D-03 -0.151429D-01 -0.172806D-01  0.264923D-01
               36            37            38 
     36  0.343112D-01
     37 -0.120417D-01  0.322951D-01
     38 -0.998817D-02 -0.121259D-01  0.316470D-01
 Leave Link  716 at Sat May 24 06:35:59 2025, MaxMem=  3758096384 cpu:               0.0 elap:               0.0
 (Enter /apps/easybuild-2022/easybuild/software/Compiler/NVHPC/22.11-CUDA-11.7.0/Gaussian/g16c01-CUDA-11.7.0/g16/l103.exe)

 GradGradGradGradGradGradGradGradGradGradGradGradGradGradGradGradGradGrad
 Berny optimization.
 Red2BG is reusing G-inverse.
 Internal  Forces:  Max     0.000020488 RMS     0.000006485
 Search for a saddle point.
 Step number   1 out of a maximum of  100
 All quantities printed in internal units (Hartrees-Bohrs-Radians)
 Swapping is turned off.
 Second derivative matrix not updated -- analytic derivatives used.
 ITU=  0
     Eigenvalues ---   -0.24226   0.00249   0.00728   0.00927   0.02303
     Eigenvalues ---    0.03614   0.04260   0.11784   0.13468   0.15061
     Eigenvalues ---    0.16665   0.19802   0.20961   0.21993   0.22763
     Eigenvalues ---    0.23915   0.25205   0.31069   0.40501   0.41212
     Eigenvalues ---    0.44558   0.46842   0.49074   0.53490   0.56134
     Eigenvalues ---    0.60008   0.71747
 Eigenvectors required to have negative eigenvalues:
                          R4        A4        D1        R1        D2
   1                    0.61054  -0.61006  -0.29800  -0.21072  -0.16935
                          R2        A2        A1        D7        D3
   1                    0.16049   0.14045  -0.12476  -0.06989   0.06970
 RFO step:  Lambda0=5.117441887D-10 Lambda= 0.00000000D+00.
 Linear search not attempted -- option 19 set.
 Iteration  1 RMS(Cart)=  0.00014987 RMS(Int)=  0.00000001
 Iteration  2 RMS(Cart)=  0.00000001 RMS(Int)=  0.00000000
 ITry= 1 IFail=0 DXMaxC= 3.94D-04 DCOld= 1.00D+10 DXMaxT= 3.00D-01 DXLimC= 3.00D+00 Rises=F
 Variable       Old X    -DE/DX   Delta X   Delta X   Delta X     New X
                                 (Linear)    (Quad)   (Total)
    R1        2.32688   0.00001   0.00000  -0.00002  -0.00002   2.32687
    R2        2.65391   0.00001   0.00000   0.00003   0.00003   2.65394
    R3        2.52421  -0.00000   0.00000  -0.00000  -0.00000   2.52421
    R4        3.59960  -0.00000   0.00000   0.00015   0.00015   3.59975
    R5        2.88862   0.00001   0.00000   0.00003   0.00003   2.88865
    R6        2.42685   0.00000   0.00000  -0.00000  -0.00000   2.42685
    R7        2.52934   0.00000   0.00000  -0.00001  -0.00001   2.52933
    R8        2.49767   0.00000   0.00000   0.00000   0.00000   2.49767
    R9        2.46908   0.00000   0.00000   0.00001   0.00001   2.46908
   R10        1.82512   0.00000   0.00000   0.00000   0.00000   1.82512
    A1        2.04307   0.00002   0.00000   0.00009   0.00009   2.04316
    A2        2.19322  -0.00001   0.00000  -0.00002  -0.00002   2.19321
    A3        2.03109  -0.00001   0.00000  -0.00006  -0.00006   2.03102
    A4        1.56050   0.00001   0.00000  -0.00012  -0.00012   1.56038
    A5        2.22686   0.00001   0.00000   0.00003   0.00003   2.22689
    A6        2.09597  -0.00001   0.00000  -0.00006  -0.00006   2.09591
    A7        1.96029   0.00000   0.00000   0.00003   0.00003   1.96032
    A8        1.85749   0.00000   0.00000   0.00002   0.00002   1.85751
    A9        1.90271   0.00001   0.00000   0.00002   0.00002   1.90273
   A10        1.98849   0.00001   0.00000  -0.00003  -0.00003   1.98846
   A11        1.88607  -0.00000   0.00000   0.00001   0.00001   1.88608
   A12        1.89902  -0.00000   0.00000  -0.00000  -0.00000   1.89902
   A13        1.92636  -0.00001   0.00000  -0.00002  -0.00002   1.92634
   A14        1.88786  -0.00000   0.00000  -0.00001  -0.00001   1.88785
    D1        1.15202   0.00001   0.00000   0.00021   0.00021   1.15223
    D2       -1.79177   0.00000   0.00000   0.00012   0.00012  -1.79165
    D3        0.20913   0.00000   0.00000  -0.00017  -0.00017   0.20896
    D4       -2.94612  -0.00000   0.00000  -0.00019  -0.00019  -2.94631
    D5       -3.11163   0.00000   0.00000  -0.00009  -0.00009  -3.11172
    D6        0.01631   0.00000   0.00000  -0.00011  -0.00011   0.01620
    D7        0.05094   0.00000   0.00000   0.00015   0.00015   0.05109
    D8       -2.89405  -0.00000   0.00000   0.00005   0.00005  -2.89400
    D9        2.15788  -0.00000   0.00000   0.00018   0.00018   2.15806
   D10       -2.09495   0.00000   0.00000   0.00021   0.00021  -2.09474
   D11        0.06518   0.00000   0.00000   0.00018   0.00018   0.06537
   D12       -0.97094   0.00000   0.00000   0.00020   0.00020  -0.97074
   D13        1.05942   0.00000   0.00000   0.00023   0.00023   1.05964
   D14       -3.06364   0.00000   0.00000   0.00020   0.00020  -3.06344
         Item               Value     Threshold  Converged?
 Maximum Force            0.000020     0.000450     YES
 RMS     Force            0.000006     0.000300     YES
 Maximum Displacement     0.000394     0.001800     YES
 RMS     Displacement     0.000150     0.001200     YES
 Predicted change in Energy=-3.559725D-09
 Optimization completed.
    -- Stationary point found.
                           ----------------------------
                           !   Optimized Parameters   !
                           ! (Angstroms and Degrees)  !
 --------------------------                            --------------------------
 ! Name  Definition              Value          Derivative Info.                !
 --------------------------------------------------------------------------------
 ! R1    R(1,2)                  1.2313         -DE/DX =    0.0                 !
 ! R2    R(1,3)                  1.4044         -DE/DX =    0.0                 !
 ! R3    R(1,10)                 1.3358         -DE/DX =    0.0                 !
 ! R4    R(2,8)                  1.9048         -DE/DX =    0.0                 !
 ! R5    R(3,4)                  1.5286         -DE/DX =    0.0                 !
 ! R6    R(3,9)                  1.2842         -DE/DX =    0.0                 !
 ! R7    R(4,5)                  1.3385         -DE/DX =    0.0                 !
 ! R8    R(4,6)                  1.3217         -DE/DX =    0.0                 !
 ! R9    R(4,7)                  1.3066         -DE/DX =    0.0                 !
 ! R10   R(10,11)                0.9658         -DE/DX =    0.0                 !
 ! A1    A(2,1,3)              117.0592         -DE/DX =    0.0                 !
 ! A2    A(2,1,10)             125.6623         -DE/DX =    0.0                 !
 ! A3    A(3,1,10)             116.3727         -DE/DX =    0.0                 !
 ! A4    A(1,2,8)               89.41           -DE/DX =    0.0                 !
 ! A5    A(1,3,4)              127.5896         -DE/DX =    0.0                 !
 ! A6    A(1,3,9)              120.0901         -DE/DX =    0.0                 !
 ! A7    A(4,3,9)              112.3164         -DE/DX =    0.0                 !
 ! A8    A(3,4,5)              106.4265         -DE/DX =    0.0                 !
 ! A9    A(3,4,6)              109.0173         -DE/DX =    0.0                 !
 ! A10   A(3,4,7)              113.9319         -DE/DX =    0.0                 !
 ! A11   A(5,4,6)              108.0641         -DE/DX =    0.0                 !
 ! A12   A(5,4,7)              108.8058         -DE/DX =    0.0                 !
 ! A13   A(6,4,7)              110.372          -DE/DX =    0.0                 !
 ! A14   A(1,10,11)            108.1662         -DE/DX =    0.0                 !
 ! D1    D(3,1,2,8)             66.006          -DE/DX =    0.0                 !
 ! D2    D(10,1,2,8)          -102.6609         -DE/DX =    0.0                 !
 ! D3    D(2,1,3,4)             11.9821         -DE/DX =    0.0                 !
 ! D4    D(2,1,3,9)           -168.8002         -DE/DX =    0.0                 !
 ! D5    D(10,1,3,4)          -178.2832         -DE/DX =    0.0                 !
 ! D6    D(10,1,3,9)             0.9344         -DE/DX =    0.0                 !
 ! D7    D(2,1,10,11)            2.9189         -DE/DX =    0.0                 !
 ! D8    D(3,1,10,11)         -165.817          -DE/DX =    0.0                 !
 ! D9    D(1,3,4,5)            123.6376         -DE/DX =    0.0                 !
 ! D10   D(1,3,4,6)           -120.0317         -DE/DX =    0.0                 !
 ! D11   D(1,3,4,7)              3.7347         -DE/DX =    0.0                 !
 ! D12   D(9,3,4,5)            -55.6307         -DE/DX =    0.0                 !
 ! D13   D(9,3,4,6)             60.7001         -DE/DX =    0.0                 !
 ! D14   D(9,3,4,7)           -175.5336         -DE/DX =    0.0                 !
 --------------------------------------------------------------------------------
 Lowest energy point so far.  Saving SCF results.
 Largest change from initial coordinates is atom    0       0.000 Angstoms.
 GradGradGradGradGradGradGradGradGradGradGradGradGradGradGradGradGradGrad

 Leave Link  103 at Sat May 24 06:35:59 2025, MaxMem=  3758096384 cpu:               0.0 elap:               0.0
 (Enter /apps/easybuild-2022/easybuild/software/Compiler/NVHPC/22.11-CUDA-11.7.0/Gaussian/g16c01-CUDA-11.7.0/g16/l202.exe)
                          Input orientation:                          
 ---------------------------------------------------------------------
 Center     Atomic      Atomic             Coordinates (Angstroms)
 Number     Number       Type             X           Y           Z
 ---------------------------------------------------------------------
      1          6           0        0.938366    0.277931    0.257913
      2          8           0        0.197708   -0.380888   -0.472544
      3          6           0        1.480090    1.457475   -0.278292
      4          6           0        1.074551    2.166576   -1.570307
      5          9           0        0.746886    3.418416   -1.228211
      6          9           0        2.119838    2.222497   -2.377255
      7          9           0        0.058124    1.616821   -2.180056
      8          9           0        1.679774   -0.747488   -1.611598
      9          9           0        2.420170    2.074369    0.342148
     10          8           0        1.441084   -0.127955    1.427003
     11          1           0        1.160705   -1.040268    1.574872
 ---------------------------------------------------------------------
                    Distance matrix (angstroms):
                    1          2          3          4          5
     1  C    0.000000
     2  O    1.231334   0.000000
     3  C    1.404388   2.249848   0.000000
     4  C    2.632093   2.909211   1.528590   0.000000
     5  F    3.479637   3.912460   2.298961   1.338468   0.000000
     6  F    3.481569   3.755013   2.323829   1.321710   2.153026
     7  F    2.917387   2.631715   2.379934   1.306579   2.150848
     8  F    2.257486   1.904825   2.584461   2.976536   4.286260
     9  F    2.330242   3.410476   1.284233   2.340230   2.659393
    10  O    1.335755   2.284346   2.328764   3.792504   4.484286
    11  H    1.876556   2.356705   3.126491   4.492596   5.282839
                    6          7          8          9         10
     6  F    0.000000
     7  F    2.157868   0.000000
     8  F    3.098499   2.922815   0.000000
     9  F    2.739944   3.485703   3.511152   0.000000
    10  O    4.523020   4.238832   3.110288   2.643057   0.000000
    11  H    5.213912   4.730253   3.241719   3.578662   0.965812
                   11
    11  H    0.000000
 Symmetry turned off by external request.
 Stoichiometry    C3HF5O2
 Rotational constants (GHZ):           1.8947942           1.1301379           0.9276523
 Leave Link  202 at Sat May 24 06:35:59 2025, MaxMem=  3758096384 cpu:               0.0 elap:               0.0
 (Enter /apps/easybuild-2022/easybuild/software/Compiler/NVHPC/22.11-CUDA-11.7.0/Gaussian/g16c01-CUDA-11.7.0/g16/l716.exe)
 Dipole        =-2.46112464D-01 6.48170312D-01 1.43308817D+00
 Polarizability= 4.31783013D+01 4.03712425D+00 7.36534723D+01
                -7.74896847D-01 7.36096233D+00 5.60377606D+01
 Full mass-weighted force constant matrix:
 Low frequencies --- -522.5007  -11.2967   -7.2087   -5.0244   -0.0006   -0.0004
 Low frequencies ---    0.0005   43.1214   85.7004
 ******    1 imaginary frequencies (negative Signs) ****** 
 Diagonal vibrational polarizability:
       34.8928386      94.1975361      44.3848858
 Harmonic frequencies (cm**-1), IR intensities (KM/Mole), Raman scattering
 activities (A**4/AMU), depolarization ratios for plane and unpolarized
 incident light, reduced masses (AMU), force constants (mDyne/A),
 and normal coordinates:
                      1                      2                      3
                      A                      A                      A
 Frequencies --   -522.5007                43.1062                85.6999
 Red. masses --     15.6008                18.4743                16.6782
 Frc consts  --      2.5094                 0.0202                 0.0722
 IR Inten    --    314.4387                 1.1888                 3.3576
  Atom  AN      X      Y      Z        X      Y      Z        X      Y      Z
     1   6     0.15   0.26   0.02     0.01   0.06   0.03    -0.08   0.03  -0.09
     2   8     0.56  -0.15  -0.43    -0.18   0.14   0.15     0.07  -0.04  -0.18
     3   6    -0.15   0.13   0.15     0.10  -0.03  -0.07     0.08  -0.07  -0.14
     4   6    -0.00   0.01   0.09     0.04   0.02  -0.02    -0.04   0.09  -0.01
     5   9    -0.01   0.04  -0.03    -0.40  -0.13   0.12     0.00   0.04   0.22
     6   9    -0.01  -0.02   0.03     0.16   0.46   0.16    -0.17   0.20  -0.16
     7   9    -0.00   0.00   0.01     0.32  -0.20  -0.27    -0.13   0.17   0.06
     8   9    -0.45  -0.22   0.12    -0.31  -0.20   0.07     0.36  -0.36   0.33
     9   9     0.03   0.09   0.07     0.21  -0.10  -0.16     0.21  -0.19  -0.20
    10   8    -0.04  -0.02   0.03     0.09   0.03  -0.01    -0.34   0.14   0.06
    11   1     0.03  -0.07  -0.19    -0.01   0.07   0.04    -0.26   0.11   0.01
                      4                      5                      6
                      A                      A                      A
 Frequencies --    100.6855               191.7854               216.5264
 Red. masses --     11.0424                10.2915                10.4054
 Frc consts  --      0.0660                 0.2230                 0.2874
 IR Inten    --     10.1138                 3.3730                 8.3924
  Atom  AN      X      Y      Z        X      Y      Z        X      Y      Z
     1   6    -0.04   0.04   0.09    -0.02   0.12  -0.00    -0.11  -0.00   0.09
     2   8     0.19  -0.10  -0.04    -0.07   0.36  -0.20     0.07  -0.16   0.03
     3   6     0.06  -0.06   0.01     0.09   0.10   0.11    -0.25   0.01   0.04
     4   6     0.02  -0.09   0.01    -0.03  -0.04   0.06    -0.13   0.06   0.03
     5   9    -0.06  -0.12   0.06    -0.14  -0.01  -0.15    -0.06   0.12  -0.14
     6   9    -0.03   0.01  -0.03    -0.05  -0.10   0.03     0.09  -0.12   0.30
     7   9     0.02  -0.13   0.04    -0.00  -0.21   0.16    -0.07   0.18  -0.19
     8   9    -0.05   0.38  -0.25     0.09   0.16   0.17     0.06   0.17   0.17
     9   9     0.20  -0.15  -0.11     0.23   0.02  -0.02     0.11  -0.23  -0.25
    10   8    -0.31   0.19   0.27    -0.11  -0.30  -0.13     0.12  -0.03  -0.01
    11   1    -0.42   0.25   0.39    -0.11  -0.37  -0.52     0.58  -0.20  -0.22
                      7                      8                      9
                      A                      A                      A
 Frequencies --    266.1807               286.5729               353.5705
 Red. masses --     16.2849                15.8589                 8.8628
 Frc consts  --      0.6798                 0.7674                 0.6528
 IR Inten    --      8.9641                54.0810                 2.3552
  Atom  AN      X      Y      Z        X      Y      Z        X      Y      Z
     1   6     0.08   0.00   0.13    -0.10   0.04   0.01    -0.12   0.15  -0.17
     2   8     0.05   0.18  -0.03     0.01  -0.18   0.01    -0.07   0.11  -0.19
     3   6     0.04  -0.10  -0.03    -0.02  -0.09  -0.07    -0.04   0.05  -0.05
     4   6    -0.03  -0.21  -0.04     0.11  -0.02  -0.13     0.00  -0.09   0.06
     5   9     0.11  -0.28   0.42     0.12  -0.06   0.05    -0.02  -0.15   0.25
[...]
     38  0.685312D-03 -0.221050D-01  0.208821D-01 -0.377015D-02  0.643426D-04
               11            12            13            14            15 
     11  0.144886D+00
     12 -0.795009D-01  0.161104D+00
     13 -0.665044D-01 -0.805372D-01  0.147508D+00
     14 -0.256835D-01  0.296763D-01 -0.735319D-02  0.368828D-01
     15  0.303301D-01 -0.218440D-01 -0.833359D-02  0.328494D-02  0.174373D+00
     16 -0.200387D-02  0.290692D-02 -0.102449D-02 -0.132370D-02 -0.877965D-01
     17 -0.283467D-01  0.189416D-01  0.937181D-02 -0.201427D-02 -0.865924D-01
     18 -0.156253D-01  0.726336D-02  0.813171D-02 -0.533457D-02 -0.626853D-02
     19 -0.808147D-02  0.178636D-02  0.641439D-02  0.124273D-02  0.173441D-02
     20  0.373611D-01 -0.173564D-01 -0.202563D-01 -0.434426D-03  0.407488D-01
     21  0.513583D-03  0.222405D-03 -0.710345D-03  0.906651D-03 -0.632339D-02
     22 -0.966105D-02  0.552514D-02  0.417811D-02  0.153356D-02 -0.174621D-01
     23 -0.630996D-02  0.343004D-02  0.316695D-02  0.190944D-02 -0.143241D-01
     24  0.795203D-03 -0.232953D-01  0.222431D-01 -0.702243D-02  0.451520D-02
     25 -0.180112D-01  0.661549D-02  0.114649D-01 -0.498354D-01  0.503482D-02
     26 -0.599671D-02  0.114330D-01 -0.795848D-02 -0.276499D-01  0.448185D-02
     27  0.136082D-01 -0.152365D-01  0.816019D-03  0.100007D-01  0.615647D-02
     28  0.113566D-01 -0.146324D-01  0.224769D-02  0.474298D-02  0.381644D-02
     29 -0.160854D-02  0.857882D-02 -0.534429D-02 -0.552990D-02  0.456566D-02
     30 -0.386010D-02  0.918287D-02 -0.391261D-02 -0.107876D-01  0.222563D-02
     31  0.488216D-02 -0.995603D-03 -0.274017D-02 -0.110908D-01  0.204636D-02
     32 -0.448655D-02  0.392723D-02 -0.709529D-03  0.128430D-01 -0.241187D-02
     33  0.312064D-02 -0.107447D-02 -0.227795D-02 -0.461233D-02  0.318684D-02
     34 -0.860420D-02  0.393099D-02  0.440886D-02 -0.576082D-02 -0.666884D-02
     35  0.356077D-02 -0.257366D-02 -0.964726D-03 -0.262826D-02  0.494998D-02
     36  0.509269D-02 -0.156164D-02 -0.356025D-02  0.304371D-03  0.557122D-02
     37 -0.663215D-02  0.344382D-02  0.312656D-02 -0.844123D-03 -0.428445D-02
     38  0.553283D-02 -0.306083D-02 -0.224703D-02  0.228844D-02  0.733436D-02
               16            17            18            19            20 
     16  0.159574D+00
     17 -0.717684D-01  0.158368D+00
     18  0.477149D-02  0.148563D-02  0.198709D+00
     19  0.386324D-02 -0.557668D-02  0.147615D-01  0.185240D+00
     20 -0.366923D-01 -0.406541D-02 -0.892921D-02 -0.131120D-01  0.215490D+00
     21  0.366076D-02  0.266789D-02 -0.861098D-01 -0.797452D-01 -0.173696D-01
     22  0.141533D-01  0.331712D-02 -0.976778D-01 -0.167861D-01 -0.896708D-01
     23  0.117765D-01  0.253421D-02 -0.194876D-01 -0.924762D-01 -0.936187D-01
     24 -0.529341D-02  0.777934D-03 -0.325300D-03  0.651982D-03 -0.145888D-02
     25 -0.513274D-02  0.862382D-04 -0.594589D-02  0.368909D-02  0.425527D-03
     26 -0.421688D-02 -0.264434D-03 -0.518936D-02  0.233920D-02  0.367279D-02
     27 -0.240958D-02 -0.378734D-02  0.109242D-02 -0.501865D-02  0.683787D-02
     28 -0.184739D-02 -0.190715D-02 -0.175939D-04 -0.298678D-02  0.587567D-02
     29 -0.276740D-02 -0.185039D-02  0.622539D-03 -0.414268D-02  0.346685D-02
     30 -0.220522D-02  0.298015D-04 -0.487474D-03 -0.211081D-02  0.250465D-02
     31 -0.709351D-03 -0.134403D-02 -0.231795D-02  0.775429D-03  0.141742D-02
     32  0.303489D-03  0.211695D-02  0.826584D-03  0.889608D-03 -0.115704D-02
     33 -0.273749D-02 -0.411659D-03 -0.237427D-02 -0.962081D-02  0.162174D-01
     34  0.600558D-02  0.711520D-03  0.968132D-02 -0.254091D-02 -0.153871D-01
     35 -0.177405D-02 -0.313551D-02 -0.108188D-01  0.903274D-02  0.570544D-02
     36 -0.482052D-02 -0.808765D-03 -0.136362D-02 -0.115790D-01  0.173675D-01
     37  0.392254D-02  0.314414D-03  0.106920D-01 -0.449911D-02 -0.142369D-01
     38 -0.385708D-02 -0.353261D-02 -0.980818D-02  0.707455D-02  0.685560D-02
               21            22            23            24            25 
     21  0.132124D+00
     22  0.283913D-01  0.143954D+00
     23  0.290649D-01  0.339129D-01  0.142977D+00
     24  0.384674D-03  0.453209D-03  0.354068D-03  0.170734D+00
     25 -0.114852D-02 -0.852727D-03  0.336674D-02  0.997472D-03  0.361274D-03
     26 -0.123131D-02 -0.142244D-02  0.133798D-02 -0.130466D-03 -0.108813D-02
     27 -0.576964D-03 -0.250786D-02 -0.900120D-04  0.157698D-02  0.649092D-02
     28 -0.308420D-04 -0.164081D-02 -0.138056D-02  0.154898D-02  0.533082D-02
     29 -0.409467D-03 -0.165019D-02  0.190463D-02 -0.242848D-02  0.763090D-02
     30  0.136655D-03 -0.783132D-03  0.614078D-03 -0.245648D-02  0.647080D-02
     31  0.594531D-05 -0.331760D-03  0.293869D-03 -0.233248D-03 -0.278511D-02
     32 -0.198722D-03  0.497592D-03 -0.767503D-03  0.761455D-03 -0.126084D-02
     33 -0.335394D-01  0.289097D-01 -0.224482D-02 -0.480288D-03 -0.129680D-02
     34  0.354992D-01  0.192044D-02 -0.247774D-01  0.122802D-03 -0.395162D-02
     35  0.123247D-03 -0.304392D-01  0.245296D-01  0.454200D-04  0.356415D-02
     36 -0.340633D-01  0.280114D-01 -0.111166D-02 -0.410844D-03 -0.173351D-03
     37  0.349753D-01  0.102214D-02 -0.236443D-01  0.192246D-03 -0.282816D-02
     38 -0.400636D-03 -0.313375D-01  0.256628D-01  0.114864D-03  0.468761D-02
               26            27            28            29            30 
     26  0.155876D-01
     27  0.111325D-01  0.944095D-02
     28  0.111786D-01  0.541064D-02  0.115088D-01
     29 -0.173572D-02  0.319326D-02 -0.197705D-02  0.132520D-01
     30 -0.168963D-02 -0.837049D-03  0.412115D-02  0.808169D-02  0.130399D-01
     31 -0.963714D-02 -0.244858D-02 -0.315390D-02  0.385978D-02  0.315446D-02
     32  0.675856D-02  0.860111D-03  0.172388D-02 -0.581238D-02 -0.494861D-02
     33  0.348043D-03  0.540408D-03  0.425765D-02 -0.881015D-03  0.283623D-02
     34 -0.267659D-02 -0.206192D-02  0.272028D-02 -0.309910D-02  0.168310D-02
     35  0.346985D-02 -0.115118D-02  0.281541D-02 -0.131380D-02  0.265279D-02
     36  0.334761D-03  0.430785D-02 -0.144220D-02  0.396545D-02 -0.178460D-02
     37 -0.268987D-02  0.170552D-02 -0.297957D-02  0.174736D-02 -0.293773D-02
     38  0.345657D-02  0.261627D-02 -0.288444D-02  0.353266D-02 -0.196804D-02
               31            32            33            34            35 
     31  0.753009D-02
     32 -0.463956D-04  0.830927D-02
     33 -0.623715D-03  0.468408D-03  0.323604D-01
     34 -0.145902D-02  0.111881D-02 -0.129376D-01  0.324540D-01
     35  0.525386D-03 -0.258723D-04 -0.116843D-01 -0.127672D-01  0.302055D-01
     36  0.341606D-04 -0.330609D-03  0.289018D-01 -0.174510D-01 -0.153975D-01
     37 -0.801141D-03  0.319790D-03 -0.163961D-01  0.279406D-01 -0.164803D-01
     38  0.118326D-02 -0.824890D-03 -0.151429D-01 -0.172806D-01  0.264923D-01
               36            37            38 
     36  0.343112D-01
     37 -0.120417D-01  0.322951D-01
     38 -0.998817D-02 -0.121259D-01  0.316470D-01
 Leave Link  716 at Sat May 24 06:36:00 2025, MaxMem=  3758096384 cpu:               0.0 elap:               0.0
 (Enter /apps/easybuild-2022/easybuild/software/Compiler/NVHPC/22.11-CUDA-11.7.0/Gaussian/g16c01-CUDA-11.7.0/g16/l9999.exe)

 ----------------------------------------------------------------------

 Electric dipole moment (input orientation):
 (Debye = 10**-18 statcoulomb cm , SI units = C m)
                  (au)            (Debye)         (10**-30 SI)
   Tot        0.159199D+01      0.404644D+01      0.134975D+02
   x         -0.246112D+00     -0.625555D+00     -0.208663D+01
   y          0.648170D+00      0.164748D+01      0.549542D+01
   z          0.143309D+01      0.364255D+01      0.121502D+02

 Dipole polarizability, Alpha (input orientation).
 (esu units = cm**3 , SI units = C**2 m**2 J**-1)
 Alpha(0;0):
               (au)            (10**-24 esu)      (10**-40 SI)
   iso        0.576232D+02      0.853887D+01      0.950078D+01
   aniso      0.302565D+02      0.448355D+01      0.498862D+01
   xx         0.431783D+02      0.639836D+01      0.711914D+01
   yx         0.403712D+01      0.598240D+00      0.665632D+00
   yy         0.736535D+02      0.109143D+02      0.121438D+02
   zx        -0.774897D+00     -0.114828D+00     -0.127763D+00
   zy         0.736096D+01      0.109078D+01      0.121366D+01
   zz         0.560378D+02      0.830394D+01      0.923938D+01

 ----------------------------------------------------------------------

 Dipole orientation:
     6          1.84369596          0.33969706          0.37843994
     8          0.20702377         -0.28103627         -1.15465702
     6          2.77171751          2.82072056          0.21557050
     6          1.68193543          5.01250906         -1.31823149
     9          1.24882595          6.88805696          0.32258831
     9          3.40015572          5.79525466         -2.95327972
     9         -0.42721961          4.46976358         -2.48151539
     9          2.61678593          0.05577450         -3.80733693
     9          4.74573811          3.46626768          1.47100110
     8          3.09787857         -1.22842394          1.90803470
     1          2.56079475         -2.93336681          1.53955980

 Electric dipole moment (dipole orientation):
 (Debye = 10**-18 statcoulomb cm , SI units = C m)
                  (au)            (Debye)         (10**-30 SI)
   Tot        0.159199D+01      0.404644D+01      0.134975D+02
   x          0.000000D+00      0.000000D+00      0.000000D+00
   y          0.000000D+00      0.000000D+00      0.000000D+00
   z          0.159199D+01      0.404644D+01      0.134975D+02

 Dipole polarizability, Alpha (dipole orientation).
 (esu units = cm**3 , SI units = C**2 m**2 J**-1)
 Alpha(0;0):
               (au)            (10**-24 esu)      (10**-40 SI)
   iso        0.576232D+02      0.853887D+01      0.950078D+01
   aniso      0.302565D+02      0.448355D+01      0.498862D+01
   xx         0.436220D+02      0.646411D+01      0.719229D+01
   yx         0.500200D+01      0.741219D+00      0.824718D+00
   yy         0.654939D+02      0.970520D+01      0.107985D+02
   zx         0.381545D+01      0.565392D+00      0.629083D+00
   zy         0.108532D+02      0.160828D+01      0.178945D+01
   zz         0.637537D+02      0.944732D+01      0.105116D+02

 ----------------------------------------------------------------------
 Unable to Open any file for archive entry.
 1\1\GINC-SPARTAN-BM155\Freq\RM062X\def2TZVPP\C3H1F5O2\AKHALILOV\24-May
 -2025\0\\#P M062X/Def2TZVPP Symm(None) scf(xqc) pop(None) opt(NoFreeze
 ,TS,CalcAll,NoEigentest,MaxCycle=999)\\Gaussian input prepared by ASE\
 \0,1\C,0.938366,0.277931,0.257913\O,0.197708,-0.380888,-0.472544\C,1.4
 8009,1.457475,-0.278292\C,1.074551,2.166576,-1.570307\F,0.746886,3.418
 416,-1.228211\F,2.119838,2.222497,-2.377255\F,0.058124,1.616821,-2.180
 056\F,1.679774,-0.747488,-1.611598\F,2.42017,2.074369,0.342148\O,1.441
 084,-0.127955,1.427003\H,1.160705,-1.040268,1.574872\\Version=ES64L-G1
 6RevC.01\HF=-764.4549599\RMSD=7.862e-09\RMSF=4.851e-06\ZeroPoint=0.048
 744\Thermal=0.0580676\ETot=-764.3968923\HTot=-764.3959481\GTot=-764.44
 18606\Dipole=-0.2461125,0.6481703,1.4330882\DipoleDeriv=0.2255972,-1.2
 336302,0.1465155,-0.2063579,-0.9585207,-1.1248513,0.2556933,-0.5757122
 ,1.3884598,-0.2952999,-0.3003779,-0.5481806,-0.0642788,0.7467245,0.414
 8113,0.039325,1.4543572,0.1599595,0.8701708,1.3210489,0.5436424,0.4378
 623,1.2209399,0.5081764,0.2772981,0.2465919,0.3808871,1.5630716,-0.230
 5113,-0.0463289,0.0331314,1.8312598,0.0266991,-0.1050735,-0.7568471,1.
 3146624,-0.3110207,0.1968233,0.0268352,0.152436,-1.0190947,-0.1004233,
 0.0148299,0.103636,-0.3280767,-0.6068939,-0.0846432,0.2367549,-0.05152
 02,-0.3748309,0.0936029,0.3091391,0.3093661,-0.5146223,-0.5786617,-0.0
 428167,-0.1786116,-0.1274525,-0.2993524,-0.0199073,-0.2436394,0.075728
 9,-0.3825841,-0.2829166,1.0372608,0.5812393,0.0344624,-0.4096545,-0.02
 2717,-0.0362956,-0.6047396,-0.7132341,-0.5474666,-0.889047,-0.4480368,
 -0.2975244,-0.7382037,-0.2567602,-0.3285491,-0.492936,-0.4473315,-0.33
 31106,0.2733006,-0.2611327,0.119829,-0.3545336,0.5921845,-0.1421723,0.
 3670177,-1.2128545,0.2965304,-0.0474072,-0.0526967,-0.0305873,0.355266
 3,-0.1108153,-0.0405555,-0.1264628,0.3547344\Polar=43.1783013,4.037124
 2,73.6534723,-0.7748968,7.3609623,56.0377606\PG=Unknown\NImag=1\\0.393
 23074,0.16127268,0.53048116,0.22286324,-0.09690299,0.68103934,-0.28390
 590,-0.23456496,-0.20852406,0.32012279,-0.14089802,-0.15777396,-0.1437
 4074,0.25162040,0.21963918,-0.12043936,-0.00397523,-0.23582288,0.27738
 571,0.11870800,0.20989213,-0.04500087,-0.02327814,0.07679734,0.0040057
 9,-0.08128559,-0.07466209,0.44655182,-0.02608934,-0.21556796,0.1467843
 9,-0.02656460,-0.05861149,-0.06584231,0.22969218,0.59538986,0.02420190
 ,0.08525775,-0.13250420,-0.03022013,-0.01992481,0.02969743,0.17103011,
 -0.13267686,0.52401784,0.01042170,-0.01028602,0.01204700,-0.00852215,0
 .00986574,0.00576787,-0.06062908,0.01112699,-0.02833049,0.61431221,0.0
 1089557,0.00150779,0.02336029,-0.00013577,-0.00251064,-0.00672600,0.02
 063667,-0.08682183,0.07482979,0.04111930,0.54184098,-0.02743301,-0.021
 36445,-0.00436354,-0.00706692,0.02294001,0.02891696,-0.02177166,0.0677
 6854,-0.16449471,0.04139850,-0.00749693,0.59477470,-0.00154117,0.00006
 498,-0.00142323,0.00050261,-0.00082306,-0.00081531,0.00233613,0.019293
 48,-0.00154682,-0.08951052,0.05148044,0.00520854,0.10343785,-0.0015538
 0,0.00002886,-0.00145223,0.00082468,0.00242401,0.00420728,0.01049462,-
 0.05438468,-0.00350020,0.05666893,-0.26765205,-0.02771552,-0.07909768,
 0.38137331,0.00487178,0.00442781,0.00005985,0.00107363,-0.00436425,-0.
 00533364,-0.01008467,0.01996845,0.00591850,0.00159242,-0.01923644,-0.0
 7982252,-0.02008633,0.08227319,0.09419260,-0.00212524,-0.00127580,-0.0
 0031863,-0.00029670,0.00167308,0.00346567,-0.00910122,-0.00545552,0.01
 284502,-0.20719184,-0.01532246,0.11456639,-0.02651465,0.03093469,0.035
 14831,0.31273693,-0.00063664,-0.00051832,-0.00105136,-0.00052437,0.001
 78242,0.00158542,-0.01568808,0.00188496,0.01494959,-0.01709370,-0.0756
 4462,0.01968272,0.04468641,-0.01008637,-0.04080021,0.01180543,0.079403
 70,0.00365677,0.00607150,-0.00139580,0.00344617,-0.00709133,-0.0090342
 1,0.03513893,0.01081211,-0.03275427,0.12231328,0.01569489,-0.19107476,
 0.03166709,-0.02680417,-0.01272062,-0.18522889,-0.00330036,0.21930333,
 0.00284590,0.00527798,-0.00127616,0.00453989,-0.00527758,-0.00447271,-
 0.02112986,-0.01610125,-0.01334091,-0.24131044,-0.07746614,-0.11280033
 ,0.00953623,-0.02354936,-0.01043785,-0.07637071,-0.02753094,-0.0013224
 7,0.32652155,0.00013286,0.00214772,-0.00336551,0.00305799,-0.00889359,
 0.00463959,-0.00008200,0.00624160,0.00031391,-0.08270703,-0.11724149,-
 0.04863583,-0.03873720,-0.05324302,-0.04490116,-0.02362472,0.00598542,
 0.00029020,0.13905982,0.16484406,0.00742110,0.00678469,0.00177899,0.00
 116142,0.00034106,-0.01189980,-0.03467810,-0.02125034,-0.01039386,-0.1
 1492290,-0.04721176,-0.15738397,-0.01398437,-0.03360803,-0.00598376,0.
 01851155,0.00668376,0.02196489,0.14543105,0.08415090,0.16639339,0.0552
 8223,0.11520407,0.02439696,-0.01130162,-0.04526959,-0.05925336,-0.0523
 8173,-0.03060830,0.01766694,0.00408778,-0.00367283,0.02429798,-0.00042
 759,0.00279483,-0.00456573,0.00370874,0.00095252,-0.00802629,-0.004662
 19,-0.00123129,-0.00513741,-0.01624528,0.02422368,0.00413927,-0.009946
 53,0.01597613,-0.01388158,-0.02646882,-0.00430249,-0.00321822,0.004790
 85,-0.00105990,0.00286486,0.00203313,0.00042350,-0.00111297,-0.0003317
 6,0.00079888,-0.00224582,-0.00028707,0.00094190,-0.00163479,-0.0005497
 8,-0.03331288,0.01309414,-0.01479640,-0.07086647,-0.02873482,0.0143624
 0,0.01895870,0.01177246,0.02308975,0.02233823,-0.00868982,-0.00390252,
 -0.00083162,-0.01838099,0.00057418,-0.00147723,0.00352488,-0.00162290,
 -0.00002393,0.00512047,0.00297871,0.00258660,0.00481202,-0.01218890,0.
 03112708,0.04068469,-0.04511273,-0.03914300,-0.03689696,-0.00577381,0.
 01067441,0.02536051,-0.26180435,-0.14518227,-0.14923597,-0.02257659,-0
 .02116705,-0.02012943,0.00187739,0.00177656,0.00277238,0.00440738,0.00
 261770,0.00036727,0.00049222,0.00345681,-0.00282006,0.01975026,-0.0005
 9294,-0.00954568,0.30027302,-0.05726495,-0.02633918,-0.03244035,-0.006
 94755,0.00360753,0.02185489,-0.14355658,-0.15784153,-0.07484452,-0.000
 80532,0.00193438,-0.00456602,0.00153650,0.00468508,0.00293400,0.001332
 23,0.00084531,0.00148395,0.00389132,0.00173199,0.00464952,0.01255625,0
 .00139159,-0.00925023,0.18338710,0.16705072,-0.02360174,-0.01889890,0.
 00148631,0.00194686,0.01870250,0.01993778,-0.14319097,-0.07204427,-0.1
 6823875,-0.03649694,-0.02758372,-0.01751750,0.00149093,0.00297845,0.00
 183052,0.00139448,0.00101605,0.00278271,-0.00461076,0.00400971,-0.0079
 5558,0.01169332,0.00049579,-0.00732530,0.18321841,0.09010202,0.1698349
 9,-0.08964284,0.00947997,-0.08335160,-0.01599474,-0.00040612,-0.055956
 77,-0.00360518,-0.01125488,0.00141516,-0.00032477,-0.00565342,0.004164
 36,0.00030876,0.00082097,-0.00050249,0.00071207,0.00108195,-0.00151294
 ,-0.00037447,0.00067755,-0.00103425,0.00074394,-0.00353440,0.00242134,
 0.00883569,0.00595748,0.00722328,0.16129026,0.03129219,-0.11976050,0.1
 0768538,0.00087499,0.01266405,-0.04326752,0.00783773,-0.02769358,0.051
 45904,-0.00641157,0.00203912,-0.00386012,0.00131970,-0.00273425,0.0003
 7806,-0.00102380,-0.00149509,0.00332319,0.00073696,-0.00008122,0.00023
 255,-0.01888686,0.00130726,0.00819744,0.00316344,0.00228313,0.00145620
 ,0.13648238,0.58982342,-0.08465522,0.06350376,-0.26422953,-0.05465845,
 -0.00243880,-0.04546021,-0.02014552,0.01992084,-0.03672661,-0.00001335
 ,-0.00655282,0.00994721,-0.00093762,0.00517221,-0.00173676,0.00130224,
 0.00150401,-0.00236340,-0.00019366,0.00120810,-0.00167886,0.00857789,-
 0.00050452,-0.00238947,0.00834102,0.00193955,0.00540545,0.12953147,-0.
 16801793,0.37936937,0.00554820,0.01724825,-0.00431390,-0.00337615,0.00
 012634,0.00361985,0.00075854,0.00114351,-0.00448481,0.00124370,-0.0007
 1431,-0.00043441,-0.00000505,-0.00011444,0.00021854,0.00003524,0.00032
 972,-0.00049893,-0.00008811,-0.00000281,0.00005196,0.00144545,0.000438
 51,-0.00136998,-0.00036847,-0.00008646,0.00093313,-0.06194872,-0.15538
 517,0.01285120,0.05675538,-0.00137422,-0.01834487,0.01106965,-0.003616
 94,0.00155407,-0.00471531,-0.00046834,0.00062287,-0.00065455,-0.000417
 42,-0.00031650,0.00121447,-0.00014705,0.00070206,-0.00034770,0.0001579
 9,0.00008840,-0.00019292,0.00001730,0.00014332,-0.00022257,0.00147408,
 -0.00070373,-0.00075857,0.00100923,0.00065098,-0.00023383,-0.13365147,
 -0.45635234,0.08426558,0.13701684,0.47195574,0.00791094,0.04596255,-0.
 01731372,0.00109338,-0.00209035,0.00733398,-0.00152312,0.00422121,-0.0
 0583156,0.00054712,0.00175431,-0.00060089,-0.00014706,-0.00007376,0.00
 007095,-0.00006324,-0.00024568,0.00017165,0.00004508,-0.00029650,0.000
 34655,0.00253859,-0.00035839,-0.00039411,-0.00143150,-0.00186284,-0.00
 024064,-0.00239755,0.04241371,-0.04013720,-0.00657264,-0.08942426,0.05
 659499\\-0.00000122,0.00000128,0.00000450,0.00000629,0.00000618,0.0000
 0116,-0.00000155,-0.00000386,-0.00000399,-0.00000633,-0.00000490,-0.00
 000225,-0.00000461,-0.00000455,-0.00000350,-0.00000505,-0.00000262,0.0
 0000188,-0.00000342,-0.00000947,0.00000342,0.00000347,0.00000213,0.000
 00159,-0.00000111,0.00000692,-0.00001136,0.00000603,0.00000359,0.00000
 366,0.00000751,0.00000530,0.00000489\\\@
 The archive entry for this job was punched.


 GOD GAVE US TWO ENDS... ONE TO SIT ON...    
 AND THE OTHER TO THINK WITH...              
 YOUR SUCCESS DEPENDS UPON WHICH END YOU     
 USE THE MOST...                             
                                             
 IT'S A CASE OF HEADS YOU WIN TAILS YOU LOSE.
          SOURCE UNKNOWN(IT'S JUST AS WELL.) 
 Job cpu time:       0 days  0 hours 28 minutes 14.0 seconds.
 Elapsed time:       0 days  0 hours  3 minutes 51.9 seconds.
 File lengths (MBytes):  RWF=    117 Int=      0 D2E=      0 Chk=      9 Scr=      1
 Normal termination of Gaussian 16 at Sat May 24 06:36:00 2025.
done
