11
energy = -764.416473632
C 0.62775500 2.09720900 -0.87181500
O 0.95854300 0.09932500 0.09295200
C 0.98140700 3.58541600 -0.74248200
C 1.80888200 4.03210800 -1.96646100
F 2.16581800 5.29951300 -1.83856500
F 2.90433200 3.28067500 -2.04950100
F 1.10828300 3.89329800 -3.08046400
F -0.16954200 4.27571400 -0.72878900
F 1.67835900 3.91531200 0.35813900
O 1.19597400 1.50588500 0.07186100
H 0.38795800 -0.00303200 -0.69162900
11
energy = -764.41643212
C 0.63454900 2.03471900 0.89792100
O 0.69971000 0.12881900 -0.28308300
C 1.11971700 3.49117000 0.88763600
C -0.09258000 4.44323600 0.80869700
F 0.31677000 5.69966000 0.74650300
F -0.79621400 4.16301000 -0.28578800
F -0.87159000 4.29711000 1.86838900
F 1.76265000 3.71206400 2.04489900
F 1.95088800 3.81146100 -0.11853400
O 1.06652600 1.50076700 -0.14673600
H 0.17745100 -0.00393300 0.53010700
11
energy = -764.4140988659999
C 2.47106000 1.75466700 -0.04400800
O 1.04904400 0.04645000 0.12954100
C 2.52809000 3.28945200 -0.11692100
C 3.23571500 3.84129500 1.13879700
F 3.24262300 5.16510200 1.11351400
F 2.57708300 3.43584200 2.22307900
F 4.48283900 3.40780500 1.20685900
F 3.25147000 3.62007800 -1.19732500
F 1.33841900 3.91652300 -0.21131100
O 1.25762200 1.47106500 0.05252900
H 0.08358600 0.02907800 0.20198900
11
energy = -764.416432074
C 0.63607400 2.03391700 -0.89886100
O 0.70127300 0.12784200 0.28185900
C 1.12094800 3.49045900 -0.88817100
C -0.09155800 4.44227600 -0.80947400
F 0.31754300 5.69876200 -0.74688800
F -0.87016500 4.29621700 -1.86947000
F -0.79552400 4.16170100 0.28470700
F 1.95170500 3.81073700 0.11834800
F 1.76423600 3.71169000 -2.04517200
O 1.06785100 1.49988700 0.14583900
H 0.17923000 -0.00487000 -0.53147800
11
energy = -764.416470642
C 0.62555800 2.09723700 0.87061100
O 0.95746100 0.09913000 -0.09336000
C 0.97984100 3.58529700 0.74155200
C 1.80747900 4.03124000 1.96568300
F 2.16512600 5.29847300 1.83807600
F 1.10672200 3.89258700 3.07960700
F 2.90248900 3.27916100 2.04863700
F 1.67700200 3.91505900 -0.35897500
F -0.17072300 4.27622100 0.72797800
O 1.19503900 1.50563700 -0.07214300
H 0.38567800 -0.00304300 0.69036900
11
energy = -764.4140998119999
C 2.47075900 1.75435700 0.04606800
O 1.04915100 0.04581000 -0.12744200
C 2.52760200 3.28915100 0.11829900
C 3.23591000 3.84037300 -1.13730800
F 3.24267700 5.16419200 -1.11272400
F 4.48310800 3.40697500 -1.20445600
F 2.57790100 3.43426500 -2.22173000
F 1.33786600 3.91625400 0.21167500
F 3.25031200 3.62033000 1.19897900
O 1.25742600 1.47049100 -0.05090200
H 0.08368500 0.02821000 -0.19973300
11
energy = -764.4157001460001
C 0.61887600 1.97707300 -0.86335000
O 0.82125500 0.04762600 0.26404200
C 0.99420900 3.47116300 -0.85318100
C 1.85838900 4.03240600 0.29524400
F 2.06905600 5.32842500 0.11308400
F 1.24312000 3.86259600 1.45910500
F 3.03210000 3.41297900 0.33078800
F 1.65074300 3.70828600 -1.99873500
F -0.16114700 4.15342100 -0.85447200
O 1.10542300 1.44223800 0.15862600
H 0.29469500 -0.09344700 -0.54545500
11
energy = -764.4157011460001
C 0.61722200 1.97735800 0.86225700
O 0.82097400 0.04749400 -0.26409600
C 0.99242600 3.47146900 0.85208100
C 1.85695000 4.03271300 -0.29608300
F 2.06707200 5.32885400 -0.11415900
F 3.03090000 3.41370600 -0.33095100
F 1.24225400 3.86238000 -1.46017200
F -0.16296700 4.15364900 0.85290600
F 1.64853400 3.70870600 1.99786000
O 1.10480200 1.44221000 -0.15902800
H 0.29279400 -0.09311400 0.54446300
11
energy = -764.4131894489999
C 2.43347300 1.68157400 0.00102100
O 0.96855100 0.00000700 0.00060400
C 2.56307000 3.22072800 0.00110100
C 1.29858400 4.10498800 0.00076100
F 1.63388500 5.38714000 0.00087700
F 0.56436600 3.86105000 -1.08028700
F 0.56375800 3.86101400 1.08138800
F 3.26793200 3.54340100 1.09626800
F 3.26856300 3.54346200 -1.09364000
O 1.20865600 1.42289400 0.00071200
H 0.00009200 -0.00007800 0.00042300
