 Entering Gaussian System, Link 0=g16
 Initial command:
 /apps/easybuild-2022/easybuild/software/Compiler/NVHPC/22.11-CUDA-11.7.0/Gaussian/g16c01-CUDA-11.7.0/g16/l1.exe "/tmp/Gau-277852.inp" -scrdir="/tmp/"
 Entering Link 1 = /apps/easybuild-2022/easybuild/software/Compiler/NVHPC/22.11-CUDA-11.7.0/Gaussian/g16c01-CUDA-11.7.0/g16/l1.exe PID=    277853.
  
 Copyright (c) 1988-2019, Gaussian, Inc.  All Rights Reserved.
  
 This is part of the Gaussian(R) 16 program.  It is based on
 the Gaussian(R) 09 system (copyright 2009, Gaussian, Inc.),
 the Gaussian(R) 03 system (copyright 2003, Gaussian, Inc.),
 the Gaussian(R) 98 system (copyright 1998, Gaussian, Inc.),
 the Gaussian(R) 94 system (copyright 1995, Gaussian, Inc.),
 the Gaussian 92(TM) system (copyright 1992, Gaussian, Inc.),
 the Gaussian 90(TM) system (copyright 1990, Gaussian, Inc.),
 the Gaussian 88(TM) system (copyright 1988, Gaussian, Inc.),
 the Gaussian 86(TM) system (copyright 1986, Carnegie Mellon
 University), and the Gaussian 82(TM) system (copyright 1983,
 Carnegie Mellon University). Gaussian is a federally registered
 trademark of Gaussian, Inc.
  
 This software contains proprietary and confidential information,
 including trade secrets, belonging to Gaussian, Inc.
  
 This software is provided under written license and may be
 used, copied, transmitted, or stored only in accord with that
 written license.
  
 The following legend is applicable only to US Government
 contracts under FAR:
  
                    RESTRICTED RIGHTS LEGEND
  
 Use, reproduction and disclosure by the US Government is
 subject to restrictions as set forth in subparagraphs (a)
 and (c) of the Commercial Computer Software - Restricted
 Rights clause in FAR 52.227-19.
  
 Gaussian, Inc.
 340 Quinnipiac St., Bldg. 40, Wallingford CT 06492
  
  
 ---------------------------------------------------------------
 Warning -- This program may not be used in any manner that
 competes with the business of Gaussian, Inc. or will provide
 assistance to any competitor of Gaussian, Inc.  The licensee
 of this program is prohibited from giving any competitor of
 Gaussian, Inc. access to this program.  By using this program,
 the user acknowledges that Gaussian, Inc. is engaged in the
 business of creating and licensing software in the field of
 computational chemistry and represents and warrants to the
 licensee that it is not a competitor of Gaussian, Inc. and that
 it will not use this program in any manner prohibited above.
 ---------------------------------------------------------------
  

 Cite this work as:
 Gaussian 16, Revision C.01,
 M. J. Frisch, G. W. Trucks, H. B. Schlegel, G. E. Scuseria, 
 M. A. Robb, J. R. Cheeseman, G. Scalmani, V. Barone, 
 G. A. Petersson, H. Nakatsuji, X. Li, M. Caricato, A. V. Marenich, 
 J. Bloino, B. G. Janesko, R. Gomperts, B. Mennucci, H. P. Hratchian, 
 J. V. Ortiz, A. F. Izmaylov, J. L. Sonnenberg, D. Williams-Young, 
 F. Ding, F. Lipparini, F. Egidi, J. Goings, B. Peng, A. Petrone, 
 T. Henderson, D. Ranasinghe, V. G. Zakrzewski, J. Gao, N. Rega, 
 G. Zheng, W. Liang, M. Hada, M. Ehara, K. Toyota, R. Fukuda, 
 J. Hasegawa, M. Ishida, T. Nakajima, Y. Honda, O. Kitao, H. Nakai, 
 T. Vreven, K. Throssell, J. A. Montgomery, Jr., J. E. Peralta, 
 F. Ogliaro, M. J. Bearpark, J. J. Heyd, E. N. Brothers, K. N. Kudin, 
 V. N. Staroverov, T. A. Keith, R. Kobayashi, J. Normand, 
 K. Raghavachari, A. P. Rendell, J. C. Burant, S. S. Iyengar, 
 J. Tomasi, M. Cossi, J. M. Millam, M. Klene, C. Adamo, R. Cammi, 
 J. W. Ochterski, R. L. Martin, K. Morokuma, O. Farkas, 
 J. B. Foresman, and D. J. Fox, Gaussian, Inc., Wallingford CT, 2019.
 
 ******************************************
 Gaussian 16:  ES64L-G16RevC.01  3-Jul-2019
                24-May-2025 
 ******************************************
 %mem=28GB
 %nprocshared=8
 Will use up to    8 processors via shared memory.
 -----------------------------------------------------------------
 #P M062X/Def2TZVPP Symm(None) scf(xqc) pop(None) freq opt(CalcFC)
 -----------------------------------------------------------------
 1/10=4,18=20,19=15,26=3,38=1/1,3;
 2/9=110,12=2,15=3,17=6,18=5,40=1/2;
 3/5=44,7=202,11=2,25=1,30=1,71=2,74=-55,140=1/1,2,3;
 4//1;
 5/5=2,8=3,13=1,38=5/2,8;
 8/6=4,10=90,11=11/1;
 11/6=1,8=1,9=11,15=111,16=1,31=1/1,2,10;
 10/6=1,13=1,31=1/2;
 7/10=1,25=1,30=1/1,2,3,16;
 1/10=4,18=20,19=15,26=3/3(2);
 2/9=110,15=3/2;
 99//99;
 2/9=110,15=3/2;
 3/5=44,7=202,11=2,25=1,30=1,71=1,74=-55/1,2,3;
 4/5=5,16=3,69=1/1;
 5/5=2,8=3,13=1,38=5/2,8;
 7/30=1/1,2,3,16;
 1/18=20,19=15,26=3/3(-5);
 2/9=110,15=3/2;
 99/9=1/99;
 Leave Link    1 at Sat May 24 04:49:22 2025, MaxMem=  3758096384 cpu:               0.1 elap:               0.0
 (Enter /apps/easybuild-2022/easybuild/software/Compiler/NVHPC/22.11-CUDA-11.7.0/Gaussian/g16c01-CUDA-11.7.0/g16/l101.exe)
 ------------------------------
 Gaussian input prepared by ASE
 ------------------------------
 Symbolic Z-matrix:
 Charge =  0 Multiplicity = 1
 C                     0.        0.        0. 
 O                     1.35895   0.        0. 
 C                     1.29076   2.25173  -0.91747 
 C                     1.99775   1.22559   0. 
 F                     1.88552   3.42957  -0.80141 
 F                     1.93574   1.67812   1.24864 
 F                     3.26929   1.12234  -0.35853 
 F                     1.33959   1.86447  -2.1796 
 F                     0.02122   2.37085  -0.55041 
 O                    -0.35683   0.62889   1.07119 
 H                     0.40119   0.94138   1.60266 
 
 ITRead=  0  0  0  0  0  0  0  0  0  0  0
 MicOpt= -1 -1 -1 -1 -1 -1 -1 -1 -1 -1 -1
 NAtoms=     11 NQM=       11 NQMF=       0 NMMI=      0 NMMIF=      0
                NMic=       0 NMicF=      0.
                    Isotopes and Nuclear Properties:
 (Nuclear quadrupole moments (NQMom) in fm**2, nuclear magnetic moments (NMagM)
  in nuclear magnetons)

  Atom         1           2           3           4           5           6           7           8           9          10
 IAtWgt=          12          16          12          12          19          19          19          19          19          16
 AtmWgt=  12.0000000  15.9949146  12.0000000  12.0000000  18.9984032  18.9984032  18.9984032  18.9984032  18.9984032  15.9949146
 NucSpn=           0           0           0           0           1           1           1           1           1           0
 AtZEff=  -0.0000000  -0.0000000  -0.0000000  -0.0000000  -0.0000000  -0.0000000  -0.0000000  -0.0000000  -0.0000000  -0.0000000
 NQMom=    0.0000000   0.0000000   0.0000000   0.0000000   0.0000000   0.0000000   0.0000000   0.0000000   0.0000000   0.0000000
 NMagM=    0.0000000   0.0000000   0.0000000   0.0000000   2.6288670   2.6288670   2.6288670   2.6288670   2.6288670   0.0000000
 AtZNuc=   6.0000000   8.0000000   6.0000000   6.0000000   9.0000000   9.0000000   9.0000000   9.0000000   9.0000000   8.0000000

  Atom        11
 IAtWgt=           1
 AtmWgt=   1.0078250
 NucSpn=           1
 AtZEff=  -0.0000000
 NQMom=    0.0000000
 NMagM=    2.7928460
 AtZNuc=   1.0000000
 Leave Link  101 at Sat May 24 04:49:22 2025, MaxMem=  3758096384 cpu:               0.2 elap:               0.2
 (Enter /apps/easybuild-2022/easybuild/software/Compiler/NVHPC/22.11-CUDA-11.7.0/Gaussian/g16c01-CUDA-11.7.0/g16/l103.exe)

 GradGradGradGradGradGradGradGradGradGradGradGradGradGradGradGradGradGrad
 Berny optimization.
 Initialization pass.
                           ----------------------------
                           !    Initial Parameters    !
                           ! (Angstroms and Degrees)  !
 --------------------------                            --------------------------
 ! Name  Definition              Value          Derivative Info.                !
 --------------------------------------------------------------------------------
 ! R1    R(1,2)                  1.359          calculate D2E/DX2 analytically  !
 ! R2    R(1,10)                 1.2924         calculate D2E/DX2 analytically  !
 ! R3    R(2,4)                  1.3821         calculate D2E/DX2 analytically  !
 ! R4    R(3,4)                  1.5474         calculate D2E/DX2 analytically  !
 ! R5    R(3,5)                  1.3246         calculate D2E/DX2 analytically  !
 ! R6    R(3,8)                  1.3211         calculate D2E/DX2 analytically  !
 ! R7    R(3,9)                  1.3269         calculate D2E/DX2 analytically  !
 ! R8    R(4,6)                  1.3296         calculate D2E/DX2 analytically  !
 ! R9    R(4,7)                  1.3251         calculate D2E/DX2 analytically  !
 ! R10   R(10,11)                0.9771         calculate D2E/DX2 analytically  !
 ! A1    A(2,1,10)             106.0278         calculate D2E/DX2 analytically  !
 ! A2    A(1,2,4)              117.5295         calculate D2E/DX2 analytically  !
 ! A3    A(4,3,5)              109.4245         calculate D2E/DX2 analytically  !
 ! A4    A(4,3,8)              110.8028         calculate D2E/DX2 analytically  !
 ! A5    A(4,3,9)              109.4297         calculate D2E/DX2 analytically  !
 ! A6    A(5,3,8)              109.1336         calculate D2E/DX2 analytically  !
 ! A7    A(5,3,9)              108.9987         calculate D2E/DX2 analytically  !
 ! A8    A(8,3,9)              109.0235         calculate D2E/DX2 analytically  !
 ! A9    A(2,4,3)              112.1398         calculate D2E/DX2 analytically  !
 ! A10   A(2,4,6)              106.276          calculate D2E/DX2 analytically  !
 ! A11   A(2,4,7)              111.9882         calculate D2E/DX2 analytically  !
 ! A12   A(3,4,6)              108.0472         calculate D2E/DX2 analytically  !
 ! A13   A(3,4,7)              109.2477         calculate D2E/DX2 analytically  !
 ! A14   A(6,4,7)              108.9876         calculate D2E/DX2 analytically  !
 ! A15   A(1,10,11)            113.0952         calculate D2E/DX2 analytically  !
 ! D1    D(10,1,2,4)           -59.583          calculate D2E/DX2 analytically  !
 ! D2    D(2,1,10,11)            0.0258         calculate D2E/DX2 analytically  !
 ! D3    D(1,2,4,3)            -39.7986         calculate D2E/DX2 analytically  !
 ! D4    D(1,2,4,6)             78.0551         calculate D2E/DX2 analytically  !
 ! D5    D(1,2,4,7)           -163.0353         calculate D2E/DX2 analytically  !
 ! D6    D(5,3,4,2)            175.4067         calculate D2E/DX2 analytically  !
 ! D7    D(5,3,4,6)             58.6116         calculate D2E/DX2 analytically  !
 ! D8    D(5,3,4,7)            -59.8279         calculate D2E/DX2 analytically  !
 ! D9    D(8,3,4,2)            -64.2111         calculate D2E/DX2 analytically  !
 ! D10   D(8,3,4,6)            178.9938         calculate D2E/DX2 analytically  !
 ! D11   D(8,3,4,7)             60.5544         calculate D2E/DX2 analytically  !
 ! D12   D(9,3,4,2)             56.0379         calculate D2E/DX2 analytically  !
 ! D13   D(9,3,4,6)            -60.7572         calculate D2E/DX2 analytically  !
 ! D14   D(9,3,4,7)           -179.1967         calculate D2E/DX2 analytically  !
 --------------------------------------------------------------------------------
 Trust Radius=3.00D-01 FncErr=1.00D-07 GrdErr=1.00D-06 EigMax=2.50D+02 EigMin=1.00D-04
 Number of steps in this run=     49 maximum allowed number of steps=    100.
 GradGradGradGradGradGradGradGradGradGradGradGradGradGradGradGradGradGrad

 Leave Link  103 at Sat May 24 04:49:22 2025, MaxMem=  3758096384 cpu:               0.1 elap:               0.0
 (Enter /apps/easybuild-2022/easybuild/software/Compiler/NVHPC/22.11-CUDA-11.7.0/Gaussian/g16c01-CUDA-11.7.0/g16/l202.exe)
                          Input orientation:                          
 ---------------------------------------------------------------------
 Center     Atomic      Atomic             Coordinates (Angstroms)
 Number     Number       Type             X           Y           Z
 ---------------------------------------------------------------------
      1          6           0        0.000000    0.000000    0.000000
      2          8           0        1.358950    0.000000    0.000000
      3          6           0        1.290759    2.251734   -0.917470
      4          6           0        1.997754    1.225588    0.000000
      5          9           0        1.885523    3.429571   -0.801412
      6          9           0        1.935743    1.678117    1.248641
      7          9           0        3.269291    1.122339   -0.358529
      8          9           0        1.339589    1.864468   -2.179600
      9          9           0        0.021218    2.370852   -0.550413
     10          8           0       -0.356834    0.628889    1.071186
     11          1           0        0.401188    0.941382    1.602656
 ---------------------------------------------------------------------
                    Distance matrix (angstroms):
                    1          2          3          4          5
     1  C    0.000000
     2  O    1.358950   0.000000
     3  C    2.752838   2.432428   0.000000
     4  C    2.343734   1.382076   1.547439   0.000000
     5  F    3.994924   3.561109   1.324581   2.347850   0.000000
     6  F    2.849962   2.169763   2.331754   1.329561   2.696819
     7  F    3.475119   2.244458   2.345748   1.325145   2.726588
     8  F    3.165659   2.868322   1.321111   2.364743   2.155690
     9  F    2.433998   2.777305   1.326897   2.349741   2.158592
    10  O    1.292390   2.118220   3.050072   2.654727   4.047049
    11  H    1.901489   2.090937   2.976473   2.279979   3.764821
                    6          7          8          9         10
     6  F    0.000000
     7  F    2.161072   0.000000
     8  F    3.484676   2.755142   0.000000
     9  F    2.716963   3.485052   2.156103   0.000000
    10  O    2.527504   3.928913   3.869382   2.409760   0.000000
    11  H    1.738667   3.479225   4.004766   2.612177   0.977093
                   11
    11  H    0.000000
 Symmetry turned off by external request.
 Stoichiometry    C3HF5O2
 Rotational constants (GHZ):           1.9115275           1.4160499           1.1840392
 Leave Link  202 at Sat May 24 04:49:22 2025, MaxMem=  3758096384 cpu:               0.1 elap:               0.0
 (Enter /apps/easybuild-2022/easybuild/software/Compiler/NVHPC/22.11-CUDA-11.7.0/Gaussian/g16c01-CUDA-11.7.0/g16/l301.exe)
 Standard basis: def2TZVPP (5D, 7F)
 Ernie: Thresh=  0.10000D-02 Tol=  0.10000D-05 Strict=F.
   324 basis functions,   527 primitive gaussians,   375 cartesian basis functions
    40 alpha electrons       40 beta electrons
       nuclear repulsion energy       661.1836811600 Hartrees.
 IExCor= 4336 DFT=T Ex+Corr=M062X ExCW=0 ScaHFX=  0.540000
 ScaDFX=  1.000000  1.000000  1.000000  1.000000 ScalE2=  1.000000  1.000000
 IRadAn=      5 IRanWt=     -1 IRanGd=            0 ICorTp=0 IEmpDi=  4
 NAtoms=   11 NActive=   11 NUniq=   11 SFac= 1.00D+00 NAtFMM=   60 NAOKFM=F Big=F
 Integral buffers will be    131072 words long.
 Raffenetti 2 integral format.
 Two-electron integral symmetry is turned off.
 Leave Link  301 at Sat May 24 04:49:22 2025, MaxMem=  3758096384 cpu:               0.1 elap:               0.0
 (Enter /apps/easybuild-2022/easybuild/software/Compiler/NVHPC/22.11-CUDA-11.7.0/Gaussian/g16c01-CUDA-11.7.0/g16/l302.exe)
 NPDir=0 NMtPBC=     1 NCelOv=     1 NCel=       1 NClECP=     1 NCelD=      1
         NCelK=      1 NCelE2=     1 NClLst=     1 CellRange=     0.0.
 One-electron integrals computed using PRISM.
   1 Symmetry operations used in ECPInt.
 ECPInt:  NShTT=    6786 NPrTT=   21959 LenC2=    6541 LenP2D=   16283.
 LDataN:  DoStor=T MaxTD1= 6 Len=  172
 NBasis=   324 RedAO= T EigKep=  4.08D-04  NBF=   324
 NBsUse=   324 1.00D-06 EigRej= -1.00D+00 NBFU=   324
 Precomputing XC quadrature grid using
 IXCGrd= 4 IRadAn=           5 IRanWt=          -1 IRanGd=           0 AccXCQ= 0.00D+00.
 Generated NRdTot=       0 NPtTot=           0 NUsed=           0 NTot=          32
 NSgBfM=   373   373   373   373   373 MxSgAt=    11 MxSgA2=    11.
 Leave Link  302 at Sat May 24 04:49:23 2025, MaxMem=  3758096384 cpu:               1.1 elap:               0.2
 (Enter /apps/easybuild-2022/easybuild/software/Compiler/NVHPC/22.11-CUDA-11.7.0/Gaussian/g16c01-CUDA-11.7.0/g16/l303.exe)
 DipDrv:  MaxL=1.
 Leave Link  303 at Sat May 24 04:49:23 2025, MaxMem=  3758096384 cpu:               0.1 elap:               0.1
 (Enter /apps/easybuild-2022/easybuild/software/Compiler/NVHPC/22.11-CUDA-11.7.0/Gaussian/g16c01-CUDA-11.7.0/g16/l401.exe)
 ExpMin= 9.52D-02 ExpMax= 3.55D+04 ExpMxC= 1.21D+03 IAcc=3 IRadAn=         5 AccDes= 0.00D+00
 Harris functional with IExCor= 1009 and IRadAn=       5 diagonalized for initial guess.
 HarFok:  IExCor= 1009 AccDes= 0.00D+00 IRadAn=         5 IDoV= 1 UseB2=F ITyADJ=14
 ICtDFT=  3500011 ScaDFX=  1.000000  1.000000  1.000000  1.000000
 FoFCou: FMM=F IPFlag=           0 FMFlag=      100000 FMFlg1=           0
         NFxFlg=           0 DoJE=T BraDBF=F KetDBF=T FulRan=T
         wScrn=  0.000000 ICntrl=       500 IOpCl=  0 I1Cent=   200000004 NGrid=           0
         NMat0=    1 NMatS0=      1 NMatT0=    0 NMatD0=    1 NMtDS0=    0 NMtDT0=    0
 Symmetry not used in FoFCou.
 Harris En= -764.076077056703    
 JPrj=0 DoOrth=F DoCkMO=F.
 Leave Link  401 at Sat May 24 04:49:23 2025, MaxMem=  3758096384 cpu:               3.5 elap:               0.6
 (Enter /apps/easybuild-2022/easybuild/software/Compiler/NVHPC/22.11-CUDA-11.7.0/Gaussian/g16c01-CUDA-11.7.0/g16/l502.exe)
 Keep R1 ints in memory in canonical form, NReq=1412617130.
 FoFCou: FMM=F IPFlag=           0 FMFlag=           0 FMFlg1=           0
         NFxFlg=           0 DoJE=F BraDBF=F KetDBF=F FulRan=T
         wScrn=  0.000000 ICntrl=       600 IOpCl=  0 I1Cent=           0 NGrid=           0
         NMat0=    1 NMatS0=  52650 NMatT0=    0 NMatD0=    1 NMtDS0=    0 NMtDT0=    0
 Symmetry not used in FoFCou.
 Two-electron integral symmetry not used.
 Closed shell SCF:
 Using DIIS extrapolation, IDIIS=  1040.
 NGot=  3758096384 LenX=  2371771924 LenY=  2371630858
 Requested convergence on RMS density matrix=1.00D-08 within  32 cycles.
 Requested convergence on MAX density matrix=1.00D-06.
 Requested convergence on             energy=1.00D-06.
 No special actions if energy rises.
 Integral accuracy reduced to 1.0D-05 until final iterations.

 Cycle   1  Pass 0  IDiag  1:
 E= -764.412040913817    
 DIIS: error= 1.81D-02 at cycle   1 NSaved=   1.
 NSaved= 1 IEnMin= 1 EnMin= -764.412040913817     IErMin= 1 ErrMin= 1.81D-02
 ErrMax= 1.81D-02  0.00D+00 EMaxC= 1.00D-01 BMatC= 3.16D-01 BMatP= 3.16D-01
 IDIUse=3 WtCom= 8.19D-01 WtEn= 1.81D-01
 Coeff-Com:  0.100D+01
 Coeff-En:   0.100D+01
 Coeff:      0.100D+01
 Gap=     0.313 Goal=   None    Shift=    0.000
 GapD=    0.313 DampG=1.000 DampE=0.500 DampFc=0.5000 IDamp=-1.
 Damping current iteration by 5.00D-01
 RMSDP=1.91D-03 MaxDP=5.97D-02              OVMax= 1.17D-01

 Cycle   2  Pass 0  IDiag  1:
 E= -764.477851572204     Delta-E=       -0.065810658387 Rises=F Damp=T
 DIIS: error= 7.36D-03 at cycle   2 NSaved=   2.
 NSaved= 2 IEnMin= 2 EnMin= -764.477851572204     IErMin= 2 ErrMin= 7.36D-03
 ErrMax= 7.36D-03  0.00D+00 EMaxC= 1.00D-01 BMatC= 3.20D-02 BMatP= 3.16D-01
 IDIUse=3 WtCom= 9.26D-01 WtEn= 7.36D-02
 Coeff-Com: -0.378D-01 0.104D+01
 Coeff-En:   0.653D-01 0.935D+00
 Coeff:     -0.303D-01 0.103D+01
 Gap=     0.317 Goal=   None    Shift=    0.000
 RMSDP=5.95D-04 MaxDP=2.32D-02 DE=-6.58D-02 OVMax= 6.49D-02

 Cycle   3  Pass 0  IDiag  1:
 E= -764.555350891827     Delta-E=       -0.077499319623 Rises=F Damp=F
 DIIS: error= 2.91D-03 at cycle   3 NSaved=   3.
 NSaved= 3 IEnMin= 3 EnMin= -764.555350891827     IErMin= 3 ErrMin= 2.91D-03
 ErrMax= 2.91D-03  0.00D+00 EMaxC= 1.00D-01 BMatC= 6.63D-03 BMatP= 3.20D-02
 IDIUse=3 WtCom= 9.71D-01 WtEn= 2.91D-02
 Coeff-Com: -0.121D+00 0.275D+00 0.846D+00
 Coeff-En:   0.000D+00 0.000D+00 0.100D+01
 Coeff:     -0.117D+00 0.267D+00 0.851D+00
 Gap=     0.318 Goal=   None    Shift=    0.000
 RMSDP=1.75D-04 MaxDP=7.28D-03 DE=-7.75D-02 OVMax= 1.36D-02

 Cycle   4  Pass 0  IDiag  1:
 E= -764.559208709323     Delta-E=       -0.003857817497 Rises=F Damp=F
 DIIS: error= 8.76D-04 at cycle   4 NSaved=   4.
 NSaved= 4 IEnMin= 4 EnMin= -764.559208709323     IErMin= 4 ErrMin= 8.76D-04
 ErrMax= 8.76D-04  0.00D+00 EMaxC= 1.00D-01 BMatC= 5.15D-04 BMatP= 6.63D-03
 IDIUse=3 WtCom= 9.91D-01 WtEn= 8.76D-03
 Coeff-Com: -0.510D-01 0.970D-01 0.385D+00 0.569D+00
 Coeff-En:   0.000D+00 0.000D+00 0.000D+00 0.100D+01
 Coeff:     -0.506D-01 0.962D-01 0.382D+00 0.573D+00
 Gap=     0.316 Goal=   None    Shift=    0.000
 RMSDP=5.45D-05 MaxDP=2.86D-03 DE=-3.86D-03 OVMax= 5.08D-03

 Cycle   5  Pass 0  IDiag  1:
 E= -764.559564059636     Delta-E=       -0.000355350312 Rises=F Damp=F
 DIIS: error= 1.88D-04 at cycle   5 NSaved=   5.
 NSaved= 5 IEnMin= 5 EnMin= -764.559564059636     IErMin= 5 ErrMin= 1.88D-04
 ErrMax= 1.88D-04  0.00D+00 EMaxC= 1.00D-01 BMatC= 3.92D-05 BMatP= 5.15D-04
 IDIUse=3 WtCom= 9.98D-01 WtEn= 1.88D-03
 Coeff-Com: -0.157D-01 0.270D-01 0.118D+00 0.263D+00 0.607D+00
 Coeff-En:   0.000D+00 0.000D+00 0.000D+00 0.000D+00 0.100D+01
 Coeff:     -0.157D-01 0.270D-01 0.118D+00 0.262D+00 0.608D+00
 Gap=     0.317 Goal=   None    Shift=    0.000
 RMSDP=1.18D-05 MaxDP=5.79D-04 DE=-3.55D-04 OVMax= 1.39D-03

 Cycle   6  Pass 0  IDiag  1:
 E= -764.559589144558     Delta-E=       -0.000025084922 Rises=F Damp=F
 DIIS: error= 4.93D-05 at cycle   6 NSaved=   6.
 NSaved= 6 IEnMin= 6 EnMin= -764.559589144558     IErMin= 6 ErrMin= 4.93D-05
 ErrMax= 4.93D-05  0.00D+00 EMaxC= 1.00D-01 BMatC= 2.95D-06 BMatP= 3.92D-05
 IDIUse=1 WtCom= 1.00D+00 WtEn= 0.00D+00
 Coeff-Com: -0.878D-03 0.603D-03 0.206D-02 0.306D-01 0.220D+00 0.747D+00
 Coeff:     -0.878D-03 0.603D-03 0.206D-02 0.306D-01 0.220D+00 0.747D+00
 Gap=     0.317 Goal=   None    Shift=    0.000
 RMSDP=4.33D-06 MaxDP=1.89D-04 DE=-2.51D-05 OVMax= 3.84D-04

 Initial convergence to 1.0D-05 achieved.  Increase integral accuracy.
 Cycle   7  Pass 1  IDiag  1:
 E= -764.559576418015     Delta-E=        0.000012726543 Rises=F Damp=F
 DIIS: error= 3.31D-05 at cycle   1 NSaved=   1.
 NSaved= 1 IEnMin= 1 EnMin= -764.559576418015     IErMin= 1 ErrMin= 3.31D-05
 ErrMax= 3.31D-05  0.00D+00 EMaxC= 1.00D-01 BMatC= 7.20D-07 BMatP= 7.20D-07
 IDIUse=1 WtCom= 1.00D+00 WtEn= 0.00D+00
 Coeff-Com:  0.100D+01
 Coeff:      0.100D+01
 Gap=     0.317 Goal=   None    Shift=    0.000
 RMSDP=4.33D-06 MaxDP=1.89D-04 DE= 1.27D-05 OVMax= 2.26D-04

 Cycle   8  Pass 1  IDiag  1:
 E= -764.559576856042     Delta-E=       -0.000000438027 Rises=F Damp=F
 DIIS: error= 1.61D-05 at cycle   2 NSaved=   2.
 NSaved= 2 IEnMin= 2 EnMin= -764.559576856042     IErMin= 2 ErrMin= 1.61D-05
 ErrMax= 1.61D-05  0.00D+00 EMaxC= 1.00D-01 BMatC= 2.27D-07 BMatP= 7.20D-07
 IDIUse=1 WtCom= 1.00D+00 WtEn= 0.00D+00
 Coeff-Com:  0.304D+00 0.696D+00
 Coeff:      0.304D+00 0.696D+00
 Gap=     0.317 Goal=   None    Shift=    0.000
 RMSDP=1.43D-06 MaxDP=5.12D-05 DE=-4.38D-07 OVMax= 1.07D-04

 Cycle   9  Pass 1  IDiag  1:
 E= -764.559576975785     Delta-E=       -0.000000119743 Rises=F Damp=F
 DIIS: error= 7.45D-06 at cycle   3 NSaved=   3.
 NSaved= 3 IEnMin= 3 EnMin= -764.559576975785     IErMin= 3 ErrMin= 7.45D-06
 ErrMax= 7.45D-06  0.00D+00 EMaxC= 1.00D-01 BMatC= 6.23D-08 BMatP= 2.27D-07
 IDIUse=1 WtCom= 1.00D+00 WtEn= 0.00D+00
 Coeff-Com: -0.176D-01 0.333D+00 0.685D+00
 Coeff:     -0.176D-01 0.333D+00 0.685D+00
 Gap=     0.317 Goal=   None    Shift=    0.000
 RMSDP=5.46D-07 MaxDP=2.30D-05 DE=-1.20D-07 OVMax= 5.91D-05

 Cycle  10  Pass 1  IDiag  1:
 E= -764.559577015081     Delta-E=       -0.000000039296 Rises=F Damp=F
 DIIS: error= 2.34D-06 at cycle   4 NSaved=   4.
 NSaved= 4 IEnMin= 4 EnMin= -764.559577015081     IErMin= 4 ErrMin= 2.34D-06
 ErrMax= 2.34D-06  0.00D+00 EMaxC= 1.00D-01 BMatC= 4.15D-09 BMatP= 6.23D-08
 IDIUse=1 WtCom= 1.00D+00 WtEn= 0.00D+00
 Coeff-Com: -0.224D-01 0.124D+00 0.326D+00 0.572D+00
 Coeff:     -0.224D-01 0.124D+00 0.326D+00 0.572D+00
 Gap=     0.317 Goal=   None    Shift=    0.000
 RMSDP=1.61D-07 MaxDP=1.02D-05 DE=-3.93D-08 OVMax= 1.32D-05

 Cycle  11  Pass 1  IDiag  1:
 E= -764.559577018206     Delta-E=       -0.000000003125 Rises=F Damp=F
 DIIS: error= 6.03D-07 at cycle   5 NSaved=   5.
 NSaved= 5 IEnMin= 5 EnMin= -764.559577018206     IErMin= 5 ErrMin= 6.03D-07
 ErrMax= 6.03D-07  0.00D+00 EMaxC= 1.00D-01 BMatC= 1.60D-10 BMatP= 4.15D-09
 IDIUse=1 WtCom= 1.00D+00 WtEn= 0.00D+00
 Coeff-Com: -0.127D-02-0.197D-01-0.264D-01 0.111D+00 0.937D+00
 Coeff:     -0.127D-02-0.197D-01-0.264D-01 0.111D+00 0.937D+00
 Gap=     0.317 Goal=   None    Shift=    0.000
 RMSDP=5.30D-08 MaxDP=1.72D-06 DE=-3.12D-09 OVMax= 8.20D-06

 Cycle  12  Pass 1  IDiag  1:
 E= -764.559577018381     Delta-E=       -0.000000000175 Rises=F Damp=F
 DIIS: error= 2.10D-07 at cycle   6 NSaved=   6.
 NSaved= 6 IEnMin= 6 EnMin= -764.559577018381     IErMin= 6 ErrMin= 2.10D-07
 ErrMax= 2.10D-07  0.00D+00 EMaxC= 1.00D-01 BMatC= 4.13D-11 BMatP= 1.60D-10
 IDIUse=1 WtCom= 1.00D+00 WtEn= 0.00D+00
 Coeff-Com:  0.157D-02-0.223D-01-0.441D-01-0.428D-02 0.436D+00 0.633D+00
 Coeff:      0.157D-02-0.223D-01-0.441D-01-0.428D-02 0.436D+00 0.633D+00
 Gap=     0.317 Goal=   None    Shift=    0.000
 RMSDP=1.54D-08 MaxDP=4.26D-07 DE=-1.75D-10 OVMax= 2.31D-06

 Cycle  13  Pass 1  IDiag  1:
 E= -764.559577018481     Delta-E=       -0.000000000100 Rises=F Damp=F
 DIIS: error= 4.58D-08 at cycle   7 NSaved=   7.
 NSaved= 7 IEnMin= 7 EnMin= -764.559577018481     IErMin= 7 ErrMin= 4.58D-08
 ErrMax= 4.58D-08  0.00D+00 EMaxC= 1.00D-01 BMatC= 2.48D-12 BMatP= 4.13D-11
 IDIUse=1 WtCom= 1.00D+00 WtEn= 0.00D+00
 Coeff-Com:  0.580D-03-0.407D-02-0.844D-02-0.162D-01 0.551D-02 0.152D+00
 Coeff-Com:  0.870D+00
 Coeff:      0.580D-03-0.407D-02-0.844D-02-0.162D-01 0.551D-02 0.152D+00
 Coeff:      0.870D+00
 Gap=     0.317 Goal=   None    Shift=    0.000
 RMSDP=7.58D-09 MaxDP=2.43D-07 DE=-9.98D-11 OVMax= 1.53D-06

 SCF Done:  E(RM062X) =  -764.559577018     A.U. after   13 cycles
            NFock= 13  Conv=0.76D-08     -V/T= 2.0033
 KE= 7.620666454012D+02 PE=-3.133518630066D+03 EE= 9.457087264865D+02
 Leave Link  502 at Sat May 24 04:49:51 2025, MaxMem=  3758096384 cpu:             110.6 elap:              27.8
 (Enter /apps/easybuild-2022/easybuild/software/Compiler/NVHPC/22.11-CUDA-11.7.0/Gaussian/g16c01-CUDA-11.7.0/g16/l508.exe)
 QCSCF skips out because SCF is already converged.
 Leave Link  508 at Sat May 24 04:49:51 2025, MaxMem=  3758096384 cpu:               0.1 elap:               0.0
 (Enter /apps/easybuild-2022/easybuild/software/Compiler/NVHPC/22.11-CUDA-11.7.0/Gaussian/g16c01-CUDA-11.7.0/g16/l801.exe)
 DoSCS=F DFT=T ScalE2(SS,OS)=  1.000000  1.000000
 Range of M.O.s used for correlation:     1   324
 NBasis=   324 NAE=    40 NBE=    40 NFC=     0 NFV=     0
 NROrb=    324 NOA=    40 NOB=    40 NVA=   284 NVB=   284

 **** Warning!!: The largest alpha MO coefficient is  0.12130433D+02

 Leave Link  801 at Sat May 24 04:49:51 2025, MaxMem=  3758096384 cpu:               0.0 elap:               0.0
 (Enter /apps/easybuild-2022/easybuild/software/Compiler/NVHPC/22.11-CUDA-11.7.0/Gaussian/g16c01-CUDA-11.7.0/g16/l1101.exe)
 Using compressed storage, NAtomX=    11.
 Will process     12 centers per pass.
   1 Symmetry operations used in ECPInt.
 ECPInt:  NShTT=    6786 NPrTT=   21959 LenC2=    6541 LenP2D=   16283.
 LDataN:  DoStor=T MaxTD1= 7 Len=  274
 Leave Link 1101 at Sat May 24 04:49:52 2025, MaxMem=  3758096384 cpu:               1.3 elap:               0.3
 (Enter /apps/easybuild-2022/easybuild/software/Compiler/NVHPC/22.11-CUDA-11.7.0/Gaussian/g16c01-CUDA-11.7.0/g16/l1102.exe)
 Symmetrizing basis deriv contribution to polar:
 IMax=3 JMax=2 DiffMx= 0.00D+00
 Leave Link 1102 at Sat May 24 04:49:52 2025, MaxMem=  3758096384 cpu:               0.1 elap:               0.1
 (Enter /apps/easybuild-2022/easybuild/software/Compiler/NVHPC/22.11-CUDA-11.7.0/Gaussian/g16c01-CUDA-11.7.0/g16/l1110.exe)
 Forming Gx(P) for the SCF density, NAtomX=    11.
 Integral derivatives from FoFJK, PRISM(SPDF).
 Do as many integral derivatives as possible in FoFJK.
 G2DrvN: MDV=    3758095115.
 G2DrvN: will do    12 centers at a time, making    1 passes.
 Calling FoFCou, ICntrl=  3107 FMM=F I1Cent=   0 AccDes= 0.00D+00.
 FoFJK:  IHMeth= 1 ICntrl=    3107 DoSepK=F KAlg= 0 I1Cent=           0 FoldK=F
 IRaf=         0 NMat=       1 IRICut=       1 DoRegI=T DoRafI=F ISym2E= 0 IDoP0=0 IntGTp=1.
 FoFCou: FMM=F IPFlag=           0 FMFlag=      100000 FMFlg1=           0
         NFxFlg=           0 DoJE=F BraDBF=F KetDBF=F FulRan=T
         wScrn=  0.000000 ICntrl=      3107 IOpCl=  0 I1Cent=           0 NGrid=           0
         NMat0=    1 NMatS0=      1 NMatT0=    0 NMatD0=    1 NMtDS0=    0 NMtDT0=    0
 Symmetry not used in FoFCou.
 End of G2Drv F.D. properties file   721 does not exist.
 End of G2Drv F.D. properties file   722 does not exist.
 End of G2Drv F.D. properties file   788 does not exist.
 Leave Link 1110 at Sat May 24 04:50:33 2025, MaxMem=  3758096384 cpu:             326.9 elap:              41.8
 (Enter /apps/easybuild-2022/easybuild/software/Compiler/NVHPC/22.11-CUDA-11.7.0/Gaussian/g16c01-CUDA-11.7.0/g16/l1002.exe)
 Minotr:  Closed shell wavefunction.
          IDoAtm=11111111111
          Direct CPHF calculation.
          Differentiating once with respect to nuclear coordinates.
          Requested convergence is 1.0D-08 RMS, and 1.0D-07 maximum.
          Secondary convergence is 1.0D-12 RMS, and 1.0D-12 maximum.
          NewPWx=T KeepS1=F KeepF1=F KeepIn=T MapXYZ=F SortEE=F KeepMc=T.
         3293 words used for storage of precomputed grid.
 Keep R1 ints in memory in canonical form, NReq=1412622523.
 FoFCou: FMM=F IPFlag=           0 FMFlag=           0 FMFlg1=           0
         NFxFlg=           0 DoJE=F BraDBF=F KetDBF=F FulRan=T
         wScrn=  0.000000 ICntrl=       600 IOpCl=  0 I1Cent=           0 NGrid=           0
         NMat0=    1 NMatS0=  52650 NMatT0=    0 NMatD0=    1 NMtDS0=    0 NMtDT0=    0
 Symmetry not used in FoFCou.
 Two-electron integral symmetry not used.
          MDV=    3758096384 using IRadAn=       1.
          Solving linear equations simultaneously, MaxMat=       0.
          There are    36 degrees of freedom in the 1st order CPHF.  IDoFFX=6 NUNeed=     0.
     30 vectors produced by pass  0 Test12= 3.16D-14 2.78D-09 XBig12= 1.10D-01 1.73D-01.
 AX will form    30 AO Fock derivatives at one time.
     30 vectors produced by pass  1 Test12= 3.16D-14 2.78D-09 XBig12= 1.80D-02 3.59D-02.
     30 vectors produced by pass  2 Test12= 3.16D-14 2.78D-09 XBig12= 1.03D-03 5.30D-03.
     30 vectors produced by pass  3 Test12= 3.16D-14 2.78D-09 XBig12= 2.10D-05 6.53D-04.
     30 vectors produced by pass  4 Test12= 3.16D-14 2.78D-09 XBig12= 2.69D-07 6.68D-05.
     30 vectors produced by pass  5 Test12= 3.16D-14 2.78D-09 XBig12= 2.57D-09 5.88D-06.
     30 vectors produced by pass  6 Test12= 3.16D-14 2.78D-09 XBig12= 1.94D-11 5.52D-07.
     13 vectors produced by pass  7 Test12= 3.16D-14 2.78D-09 XBig12= 1.14D-13 3.24D-08.
 InvSVY:  IOpt=1 It=  1 EMax= 6.66D-16
 Solved reduced A of dimension   223 with    30 vectors.
 End of Minotr F.D. properties file   721 does not exist.
 End of Minotr F.D. properties file   722 does not exist.
 End of Minotr F.D. properties file   788 does not exist.
 Leave Link 1002 at Sat May 24 04:51:33 2025, MaxMem=  3758096384 cpu:             466.2 elap:              59.8
 (Enter /apps/easybuild-2022/easybuild/software/Compiler/NVHPC/22.11-CUDA-11.7.0/Gaussian/g16c01-CUDA-11.7.0/g16/l701.exe)
 ... and contract with generalized density number  0.
 Compute integral second derivatives.
   1 Symmetry operations used in ECPInt.
 ECPInt:  NShTT=    6786 NPrTT=   21959 LenC2=    6541 LenP2D=   16283.
 LDataN:  DoStor=T MaxTD1= 8 Len=  415
 Leave Link  701 at Sat May 24 04:51:34 2025, MaxMem=  3758096384 cpu:               1.0 elap:               0.2
 (Enter /apps/easybuild-2022/easybuild/software/Compiler/NVHPC/22.11-CUDA-11.7.0/Gaussian/g16c01-CUDA-11.7.0/g16/l702.exe)
 L702 exits ... SP integral derivatives will be done elsewhere.
 Leave Link  702 at Sat May 24 04:51:34 2025, MaxMem=  3758096384 cpu:               0.1 elap:               0.0
 (Enter /apps/easybuild-2022/easybuild/software/Compiler/NVHPC/22.11-CUDA-11.7.0/Gaussian/g16c01-CUDA-11.7.0/g16/l703.exe)
 Integral derivatives from FoFJK, PRISM(SPDF).
 Compute integral second derivatives, UseDBF=F ICtDFT=           0.
 Calling FoFJK, ICntrl=    100127 FMM=F ISym2X=0 I1Cent= 0 IOpClX= 0 NMat=1 NMatS=1 NMatT=0.
 FoFJK:  IHMeth= 1 ICntrl=  100127 DoSepK=F KAlg= 0 I1Cent=           0 FoldK=F
 IRaf=         0 NMat=       1 IRICut=       1 DoRegI=T DoRafI=F ISym2E= 0 IDoP0=0 IntGTp=1.
 FoFCou: FMM=F IPFlag=           0 FMFlag=      100000 FMFlg1=         800
         NFxFlg=           0 DoJE=F BraDBF=F KetDBF=F FulRan=T
         wScrn=  0.000000 ICntrl=    100127 IOpCl=  0 I1Cent=           0 NGrid=           0
         NMat0=    1 NMatS0=      1 NMatT0=    0 NMatD0=    1 NMtDS0=    0 NMtDT0=    0
 Symmetry not used in FoFCou.
 Leave Link  703 at Sat May 24 04:53:11 2025, MaxMem=  3758096384 cpu:             739.2 elap:              97.0
 (Enter /apps/easybuild-2022/easybuild/software/Compiler/NVHPC/22.11-CUDA-11.7.0/Gaussian/g16c01-CUDA-11.7.0/g16/l716.exe)
 Dipole        = 5.28557395D-01 4.62105992D-01 6.08429176D-01
 Polarizability= 0.00000000D+00 0.00000000D+00 0.00000000D+00
                 0.00000000D+00 0.00000000D+00 0.00000000D+00
 -------------------------------------------------------------------
 Center     Atomic                   Forces (Hartrees/Bohr)
 Number     Number              X              Y              Z
 -------------------------------------------------------------------
      1        6          -0.023522039   -0.009269005    0.019323877
      2        8           0.047376795    0.004547348   -0.034830793
      3        6           0.001719650    0.005854085   -0.005576628
      4        6          -0.007653443   -0.020279335   -0.009756349
      5        9           0.000449680   -0.000358444    0.000558940
      6        9           0.016856351    0.024542505    0.022797118
      7        9          -0.008611874   -0.005834455    0.002112340
      8        9           0.001246285   -0.001332278    0.001872408
      9        9           0.003721150    0.014845671   -0.009716753
     10        8          -0.019923397   -0.010441214    0.010887090
     11        1          -0.011659158   -0.002274878    0.002328750
 -------------------------------------------------------------------
 Cartesian Forces:  Max     0.047376795 RMS     0.015325142
 Force constants in Cartesian coordinates: 
                1             2             3             4             5 
      1  0.395320D+00
      2  0.434176D-01  0.195072D+00
      3 -0.148391D-01  0.223031D+00  0.402948D+00
      4 -0.255356D+00 -0.136767D-01 -0.103279D-01  0.473310D+00
      5 -0.138688D-01 -0.553192D-01 -0.251149D-01  0.505978D-01  0.321306D+00
      6 -0.163649D-01 -0.415692D-01 -0.436501D-01 -0.735987D-01  0.494453D-01
      7  0.250329D-01 -0.934177D-02 -0.438580D-02 -0.181122D-01 -0.340215D-01
      8 -0.813347D-02 -0.240530D-02  0.727232D-02  0.405864D-02 -0.278394D-01
      9  0.817961D-02  0.773463D-02  0.299200D-02 -0.657899D-02 -0.108404D-01
     10 -0.601457D-01 -0.256013D-01 -0.869897D-03 -0.862598D-01 -0.119239D-01
     11 -0.601989D-01  0.152758D-01  0.124142D-01 -0.794120D-02 -0.199003D+00
     12 -0.374164D-01  0.127853D-01  0.493665D-02  0.356652D-01  0.309498D-01
     13 -0.310614D-02  0.816420D-03  0.678386D-03  0.337638D-02  0.310119D-02
     14  0.843423D-02 -0.118114D-02 -0.254189D-02 -0.426941D-02 -0.113734D-01
     15 -0.320581D-02 -0.104417D-03  0.249866D-03  0.229536D-02  0.586897D-02
     16 -0.738566D-02  0.497177D-02  0.429792D-02  0.184084D-01 -0.174325D-01
     17  0.498179D-02 -0.433782D-02 -0.671884D-02 -0.232387D-01 -0.466763D-01
     18  0.171567D-01 -0.536732D-02 -0.122806D-01 -0.300036D-01 -0.520493D-01
     19  0.133992D-01 -0.407881D-02 -0.718595D-03 -0.566420D-01 -0.279550D-01
     20  0.717029D-02 -0.444644D-02 -0.198213D-02 -0.527947D-01  0.799075D-03
     21 -0.290252D-04  0.125510D-02  0.243204D-02  0.105203D-01  0.281479D-02
     22 -0.360573D-02 -0.149019D-04  0.659906D-03  0.303132D-02  0.366579D-02
     23  0.174696D-02 -0.159868D-02 -0.128015D-02 -0.935177D-03  0.175929D-02
     24 -0.141302D-02 -0.269354D-02 -0.205318D-02  0.118170D-02  0.477009D-02
     25 -0.103687D-01  0.194923D-02  0.446206D-02  0.134588D-01  0.706869D-02
     26 -0.108401D-02 -0.138650D-01  0.397370D-02 -0.693970D-03  0.464060D-02
     27  0.264005D-02 -0.179886D-02 -0.477518D-02 -0.155982D-02  0.263030D-03
     28 -0.120726D+00  0.795128D-02  0.252031D-01 -0.811213D-01  0.403547D-01
     29  0.277287D-01 -0.127198D+00 -0.173187D+00  0.560667D-01  0.236241D-01
     30  0.710952D-01 -0.160232D+00 -0.319740D+00  0.774496D-01 -0.138531D-01
     31  0.269421D-01 -0.639285D-02 -0.416005D-02 -0.140936D-01  0.413574D-03
     32 -0.101944D-01  0.371328D-05 -0.358664D-01 -0.717335D-02 -0.119183D-01
     33 -0.258033D-01 -0.330408D-01 -0.310594D-01 -0.504308D-02  0.774569D-02
                6             7             8             9            10 
      6  0.113924D+00
      7  0.114515D-01  0.599352D+00
      8  0.125400D-01 -0.703660D-02  0.618355D+00
      9  0.435968D-02  0.108474D-01 -0.176419D-01  0.625787D+00
     10  0.140295D-01 -0.776138D-01  0.535219D-01 -0.471512D-01  0.633507D+00
     11  0.258315D-01  0.558522D-01 -0.122454D+00  0.691525D-01 -0.365876D-01
     12 -0.608866D-01 -0.504806D-01  0.746119D-01 -0.101216D+00 -0.584286D-02
     13 -0.509021D-03 -0.111377D+00 -0.845084D-01 -0.331958D-02  0.693136D-03
     14  0.618040D-02 -0.760759D-01 -0.291207D+00  0.573851D-02 -0.312155D-01
     15 -0.153067D-02 -0.503404D-02 -0.763606D-03 -0.803167D-01  0.847116D-02
     16 -0.193361D-01  0.237105D-02 -0.618995D-02 -0.125639D-01 -0.710104D-01
     17 -0.597217D-01 -0.229708D-02  0.601138D-02  0.858915D-02 -0.778730D-03
     18 -0.158683D-01  0.906321D-02 -0.290534D-01 -0.456866D-01 -0.123772D-01
     19  0.784795D-02 -0.433061D-01 -0.448363D-02  0.220539D-01 -0.311493D+00
     20  0.674403D-02  0.212274D-01  0.331696D-02 -0.967642D-02  0.365026D-01
     21  0.459031D-02 -0.877873D-02 -0.779409D-03  0.637971D-02  0.459844D-01
     22 -0.297083D-03 -0.784682D-01  0.417898D-02 -0.523207D-02  0.454743D-02
     23  0.849546D-03  0.247836D-02 -0.928167D-01 -0.486835D-01 -0.120719D-02
     24  0.212966D-02 -0.106521D-01 -0.391280D-01 -0.322203D+00  0.943374D-02
     25 -0.264993D-02 -0.299181D+00  0.477454D-01  0.359241D-01 -0.410239D-01
     26 -0.221696D-02  0.417338D-01 -0.863958D-01 -0.307203D-02  0.242381D-01
     27 -0.138559D-03  0.422955D-01 -0.472023D-02 -0.868726D-01 -0.920181D-02
     28  0.800459D-01 -0.378854D-02  0.235510D-02 -0.277647D-02  0.894467D-02
     29 -0.733935D-02  0.954794D-02 -0.456207D-02 -0.331388D-02 -0.781170D-02
     30 -0.390258D-02  0.291942D-02 -0.408950D-02  0.173158D-04 -0.137105D-01
     31 -0.619161D-03  0.509089D-02 -0.150803D-02  0.617173D-03 -0.145862D-03
     32  0.925649D-02 -0.206682D-02 -0.399149D-05  0.201333D-02  0.863381D-03
     33  0.973243D-03  0.275430D-02  0.175186D-02 -0.324162D-02  0.112346D-01
               11            12            13            14            15 
     11  0.520851D+00
     12 -0.302434D-01  0.587720D+00
     13 -0.709327D-03 -0.123563D-02  0.154120D+00
     14 -0.396936D-01 -0.115572D-01  0.151510D+00  0.373707D+00
     15  0.130287D-01  0.463044D-02  0.112834D-01  0.314947D-01  0.825247D-01
     16 -0.742856D-02 -0.171125D-01  0.115868D-02  0.298955D-02  0.526319D-03
     17 -0.909414D-01 -0.691188D-01  0.131627D-02  0.351608D-02  0.209670D-02
     18 -0.438129D-01 -0.293882D+00 -0.283039D-04  0.481522D-02  0.302079D-02
     19  0.466108D-01  0.368857D-01  0.520096D-02  0.436388D-02 -0.212639D-02
     20 -0.836578D-01 -0.147341D-03  0.132156D-02  0.183479D-02  0.284629D-03
     21 -0.247469D-02 -0.864659D-01 -0.283152D-03  0.943955D-03  0.193540D-03
     22 -0.640888D-02 -0.106348D-01  0.769986D-02 -0.166868D-01 -0.213375D-01
     23  0.823179D-02  0.991654D-02 -0.161720D-01 -0.347773D-01 -0.597313D-01
     24 -0.251919D-01 -0.390523D-01 -0.150229D-01 -0.428635D-01 -0.205958D-01
     25 -0.682364D-02  0.224686D-01 -0.574066D-01 -0.372990D-01  0.886385D-02
     26  0.245804D-02 -0.866553D-02 -0.552577D-01 -0.219011D-02  0.831363D-02
     27  0.111302D-02  0.616366D-02  0.868377D-02  0.544594D-02  0.120531D-01
     28  0.137113D-01  0.271464D-02  0.596854D-03 -0.139729D-02  0.606038D-03
     29 -0.240103D-01 -0.193975D-01 -0.155274D-02  0.196919D-02 -0.349076D-03
     30 -0.235905D-01 -0.183247D-01  0.346074D-03  0.345921D-02 -0.496929D-03
     31  0.992382D-02  0.249885D-01 -0.956740D-03 -0.353459D-03 -0.342396D-03
     32  0.129426D-01  0.108662D-01  0.134978D-03 -0.604414D-03 -0.138894D-03
     33  0.377348D-02 -0.362344D-02 -0.593089D-03 -0.111535D-02  0.267676D-03
               16            17            18            19            20 
     16  0.974350D-01
     17  0.210935D-01  0.127820D+00
     18 -0.509723D-02  0.130946D+00  0.392945D+00
     19 -0.172673D-01  0.122660D-01  0.409067D-01  0.416361D+00
     20  0.189996D-01  0.608749D-02 -0.172686D-01 -0.368910D-01  0.781223D-01
     21  0.586821D-01 -0.178638D-01 -0.361508D-01 -0.970392D-01  0.133182D-01
     22 -0.439781D-03  0.176888D-02 -0.516289D-02  0.319939D-02 -0.531757D-03
     23  0.153217D-02 -0.639926D-03  0.620724D-02  0.277742D-03  0.671582D-04
     24 -0.370054D-02  0.599506D-02 -0.115021D-01 -0.500504D-02  0.304790D-02
     25  0.366372D-02  0.141592D-02 -0.464678D-02 -0.800743D-02  0.756171D-02
     26 -0.449619D-03  0.905614D-03  0.285323D-02  0.724466D-02 -0.341748D-02
     27 -0.494130D-03  0.758848D-03  0.400104D-02 -0.485436D-02  0.227225D-02
     28 -0.146502D-01 -0.739687D-02  0.201452D-02 -0.247036D-02 -0.120919D-02
     29 -0.126121D-01  0.390280D-02  0.101578D-01  0.263579D-02  0.337950D-02
     30 -0.149956D-02  0.668427D-02  0.162332D-01  0.315292D-02  0.333499D-02
     31 -0.122836D-01 -0.913104D-02 -0.118250D-01  0.102563D-02 -0.135654D-02
     32 -0.547393D-02 -0.564768D-02 -0.742751D-02  0.963112D-05 -0.208563D-02
     33 -0.370244D-02 -0.164641D-02 -0.829146D-03 -0.110364D-02  0.724739D-04
               21            22            23            24            25 
     21  0.105496D+00
     22 -0.977019D-03  0.810488D-01
     23  0.474399D-03 -0.206256D-03  0.110543D+00
     24  0.336576D-02 -0.167105D-01  0.110471D+00  0.426980D+00
     25 -0.523160D-02 -0.168230D-01  0.124337D-01  0.423183D-01  0.413853D+00
     26  0.260374D-02  0.151321D-01  0.778022D-02 -0.158387D-01 -0.253887D-01
     27 -0.421039D-03  0.600190D-01 -0.194118D-01 -0.387790D-01 -0.101415D+00
     28 -0.216814D-03  0.816949D-03 -0.373887D-03  0.890833D-03  0.449938D-02
     29  0.105116D-02 -0.103521D-02  0.162788D-02  0.262543D-02 -0.942076D-02
     30  0.553863D-03 -0.795346D-04  0.117546D-02  0.767777D-03  0.123811D-02
     31 -0.263135D-02 -0.100716D-02  0.425612D-03 -0.132052D-02 -0.266423D-02
     32 -0.134340D-02  0.138100D-03 -0.176784D-03 -0.119415D-02  0.757383D-03
     33  0.265805D-04 -0.247580D-03  0.121778D-04  0.942047D-03 -0.133156D-02
               26            27            28            29            30 
     26  0.104998D+00
     27 -0.502172D-02  0.116847D+00
     28 -0.416875D-02  0.299832D-02  0.517933D+00
     29 -0.146291D-01  0.217685D-01  0.342703D-01  0.201479D+00
     30  0.182189D-01 -0.927293D-02  0.344651D-01  0.233906D+00  0.481922D+00
     31 -0.130592D-02  0.888605D-03 -0.310034D+00 -0.978169D-01 -0.175377D+00
     32 -0.285251D-03 -0.669010D-03 -0.840967D-01 -0.655835D-01 -0.650135D-01
     33 -0.114828D-02  0.119430D-02 -0.145945D+00 -0.659216D-01 -0.147757D+00
               31            32            33 
     31  0.308127D+00
     32  0.107102D+00  0.733593D-01
     33  0.169781D+00  0.895169D-01  0.183106D+00
 FormGI is forming the generalized inverse of G from B-inverse, IUseBI=4.
 Force constants in internal coordinates: 
                1             2             3             4             5 
      1  0.413756D+00
      2  0.101729D+00  0.523208D+00
      3  0.725264D-01 -0.104279D-01  0.400396D+00
      4  0.129862D-01  0.413293D-02  0.462347D-01  0.306908D+00
      5 -0.412545D-02  0.239895D-02  0.641670D-02  0.172728D-01  0.453974D+00
      6 -0.109422D-02 -0.261932D-02  0.311976D-02  0.160829D-01  0.568185D-01
      7 -0.945317D-02  0.604498D-02 -0.761984D-03  0.834087D-02  0.560135D-01
      8 -0.458919D-02  0.187889D-01  0.751246D-01  0.169339D-01  0.541883D-02
      9 -0.118939D-01  0.262955D-02  0.447749D-01  0.176235D-01  0.541381D-02
     10 -0.224037D-01  0.244761D-01 -0.317859D-02 -0.165130D-02 -0.140254D-02
     11  0.236093D+00  0.998362D-01  0.473573D-01  0.151231D-01  0.163424D-02
     12  0.148722D+00  0.419812D-02  0.202649D+00  0.108144D+00  0.161285D-02
     13 -0.145205D-01  0.964735D-03  0.447527D-02  0.655072D-02  0.174719D-01
     14 -0.736082D-02  0.115484D-02 -0.110026D-01  0.563267D-02 -0.295115D-01
     15  0.186331D-01  0.738673D-02  0.552814D-01  0.703770D-01 -0.289990D-01
     16  0.586466D-02 -0.161033D-02 -0.360085D-02 -0.148372D-01  0.193092D-01
     17 -0.128025D-02 -0.663868D-02 -0.262846D-01 -0.376603D-01  0.197991D-01
     18 -0.124783D-02 -0.143977D-02 -0.194986D-01 -0.312532D-01  0.277878D-02
     19  0.169422D-02  0.181726D-01  0.883507D-01  0.808238D-01  0.158476D-01
     20  0.250904D-01 -0.461483D-02  0.189763D-01 -0.290181D-01 -0.250228D-02
     21 -0.165750D-01 -0.256079D-02 -0.165474D-01 -0.380816D-01 -0.368063D-02
     22  0.356740D-03 -0.800945D-02 -0.257740D-01  0.141577D-01 -0.416454D-02
     23  0.325346D-02 -0.656583D-02 -0.587181D-01 -0.261321D-01 -0.487127D-02
     24 -0.134017D-01  0.316944D-02 -0.649007D-02 -0.142332D-02 -0.963975D-03
     25  0.223501D-01  0.545745D-01  0.160434D-01  0.196732D-02 -0.965091D-03
     26 -0.528521D-01 -0.121061D-01 -0.832432D-01 -0.626369D-01 -0.940391D-03
     27 -0.204547D-01 -0.352314D-02 -0.239467D-02 -0.215326D-03  0.373430D-03
     28  0.482380D-02 -0.185846D-03 -0.347485D-01 -0.404147D-01  0.331342D-03
     29  0.215963D-01 -0.280044D-02 -0.608957D-02  0.294545D-02  0.239746D-02
     30  0.117270D-01 -0.325198D-02 -0.113618D-01 -0.380388D-01 -0.237840D-02
     31  0.196995D-01 -0.968128D-03  0.260205D-01  0.165239D-01  0.312313D-03
     32 -0.121255D-01 -0.731892D-03 -0.315663D-01 -0.293627D-02 -0.308983D-02
     33  0.190385D-02  0.373969D-02  0.238534D-01  0.527349D-02  0.317981D-02
     34  0.129395D-01 -0.161492D-02  0.174952D-01  0.588898D-02  0.169688D-01
     35 -0.188855D-01 -0.137868D-02 -0.400915D-01 -0.135712D-01  0.135667D-01
     36 -0.485614D-02  0.309290D-02  0.153281D-01 -0.536147D-02  0.198363D-01
     37  0.187817D-01  0.209333D-02  0.220434D-01  0.160676D-01 -0.168896D-01
     38 -0.130434D-01  0.232957D-02 -0.355434D-01 -0.339260D-02 -0.202917D-01
     39  0.986028D-03  0.680115D-02  0.198763D-01  0.481717D-02 -0.140221D-01
                6             7             8             9            10 
      6  0.462395D+00
      7  0.564022D-01  0.446469D+00
      8  0.642653D-02  0.525377D-02  0.445056D+00
      9  0.577188D-02  0.584615D-02  0.543796D-01  0.448018D+00
     10  0.754382D-03  0.262041D-02 -0.139232D-01  0.989097D-03  0.474591D+00
     11 -0.708919D-03 -0.338875D-02  0.294933D-01 -0.386145D-02 -0.652702D-01
     12 -0.136491D-02 -0.338107D-01  0.198820D-01  0.198893D-02 -0.316942D-01
     13 -0.297607D-01 -0.243324D-01 -0.410613D-02 -0.388279D-02  0.112978D-02
     14  0.156120D-01 -0.253953D-01  0.181638D-01 -0.325195D-02  0.186935D-02
     15 -0.304257D-01 -0.102423D-01 -0.392162D-02  0.176906D-01 -0.350059D-02
     16  0.208287D-01  0.285463D-02 -0.426205D-02 -0.201374D-02 -0.576313D-03
     17  0.277056D-02  0.304136D-01 -0.188335D-02 -0.408679D-02  0.113599D-02
     18  0.211497D-01  0.278703D-01 -0.426053D-02 -0.454757D-02 -0.559906D-04
     19 -0.343377D-02 -0.285387D-01 -0.312633D-01 -0.236260D-01 -0.159911D-02
     20 -0.492887D-02  0.287695D-02  0.285144D-01 -0.323394D-02 -0.850758D-02
     21 -0.811517D-03  0.482969D-02 -0.265640D-02  0.734337D-02  0.337132D-02
     22  0.138265D-01 -0.190249D-02  0.131314D-01 -0.145928D-01  0.969455D-03
     23 -0.180118D-02  0.265445D-01 -0.118900D-01  0.204705D-01 -0.760400D-03
     24 -0.226790D-02 -0.454117D-02  0.693771D-02  0.129635D-01  0.660238D-02
     25 -0.152208D-02 -0.197519D-02  0.822657D-02 -0.304396D-02 -0.380554D-03
     26  0.457214D-03  0.247362D-01 -0.217726D-01  0.444455D-02  0.229623D-01
     27  0.254057D-02 -0.266801D-02 -0.116217D-01  0.170582D-02  0.637490D-02
     28 -0.659291D-02  0.199030D-01 -0.159845D-01  0.150928D-01 -0.449191D-02
     29  0.522900D-02  0.380970D-02  0.373053D-03 -0.174254D-01 -0.941891D-02
     30 -0.104313D-02  0.277738D-02  0.250644D-01  0.380220D-03 -0.482626D-02
     31 -0.148008D-01  0.710315D-02  0.162590D-01 -0.791410D-02 -0.514728D-02
     32 -0.154008D-01  0.210519D-01 -0.886950D-02  0.185664D-01  0.555197D-02
     33 -0.196062D-01  0.127275D-01 -0.180580D-01 -0.500993D-04 -0.248796D-02
     34  0.167296D-02 -0.211348D-01  0.197779D-01 -0.149820D-01 -0.395155D-02
     35  0.107298D-02 -0.718602D-02 -0.535055D-02  0.114984D-01  0.674771D-02
     36 -0.313240D-02 -0.155104D-01 -0.145390D-01 -0.711801D-02 -0.129223D-02
     37  0.181223D-01 -0.914401D-02  0.233987D-01 -0.112564D-01 -0.510322D-02
     38  0.175223D-01  0.480474D-02 -0.172982D-02  0.152240D-01  0.559604D-02
     39  0.133170D-01 -0.351963D-02 -0.109183D-01 -0.339242D-02 -0.244390D-02
               11            12            13            14            15 
     11  0.890598D+00
     12  0.214581D+00  0.734950D+00
     13 -0.502927D-02 -0.425484D-01  0.196833D+00
     14 -0.982242D-02 -0.353739D-01 -0.570447D-03  0.188216D+00
     15  0.271397D-01  0.204010D+00 -0.153343D-01 -0.114145D-01  0.298710D+00
     16  0.246547D-02  0.592884D-02 -0.949531D-01 -0.892505D-01 -0.134265D-01
     17 -0.734794D-02 -0.752994D-01 -0.828517D-01 -0.452360D-02 -0.135269D+00
     18 -0.749828D-02 -0.583384D-01 -0.581310D-02 -0.854366D-01 -0.127046D+00
     19 -0.974472D-02  0.252632D+00 -0.681203D-02 -0.252086D-01  0.136007D+00
     20  0.556385D-01 -0.154945D-01  0.149260D-02 -0.336671D-02 -0.312355D-01
     21 -0.158676D-01 -0.103180D+00  0.366672D-02  0.107994D-01 -0.588428D-01
     22  0.837947D-03  0.750383D-02 -0.651791D-02  0.190563D-01 -0.157913D-02
     23  0.600524D-02 -0.128652D+00  0.729281D-02  0.511216D-02 -0.523801D-01
     24 -0.365578D-01 -0.106963D-01  0.393211D-03 -0.584015D-02  0.844620D-02
     25  0.502975D-01  0.379977D-01 -0.186690D-02 -0.229577D-02  0.407277D-03
     26 -0.203399D+00 -0.322120D+00  0.250421D-01  0.233132D-01 -0.128091D+00
     27 -0.541676D-01 -0.391487D-01 -0.827987D-03 -0.823743D-04  0.299522D-02
     28  0.150243D-01 -0.117864D+00  0.165353D-01  0.299075D-02 -0.725862D-01
     29  0.449129D-01  0.194335D-01  0.585515D-02  0.102255D-01 -0.195343D-01
     30  0.263520D-01 -0.606143D-01  0.930208D-02  0.705233D-02 -0.614756D-01
     31  0.318758D-01  0.829110D-01 -0.463684D-02 -0.103357D-01  0.379346D-01
     32 -0.310233D-01 -0.469520D-01  0.147037D-02 -0.366488D-02 -0.537563D-03
     33  0.893037D-02  0.335585D-01  0.656252D-03 -0.104595D-01  0.195646D-01
     34  0.254808D-01  0.404021D-01  0.442805D-02 -0.271412D-02  0.412384D-02
     35 -0.374183D-01 -0.894610D-01  0.105353D-01  0.395670D-02 -0.343484D-01
     36  0.253542D-02 -0.895044D-02  0.972114D-02 -0.283788D-02 -0.142462D-01
     37  0.275042D-01  0.773881D-01 -0.130461D-01  0.241144D-02  0.320371D-01
     38 -0.353949D-01 -0.524749D-01 -0.693890D-02  0.908225D-02 -0.643515D-02
     39  0.455876D-02  0.280356D-01 -0.775302D-02  0.228768D-02  0.136671D-01
               16            17            18            19            20 
     16  0.125319D+00
     17  0.375125D-01  0.137756D+00
     18  0.375639D-01  0.511947D-01  0.132557D+00
     19 -0.381221D-02 -0.627678D-01 -0.388284D-01  0.394638D+00
     20  0.490438D-02  0.164230D-01  0.122889D-01 -0.135339D+00  0.138701D+00
     21  0.142434D-02  0.252743D-01  0.182574D-01 -0.141891D+00  0.298804D-01
     22 -0.536719D-02  0.114399D-02 -0.696339D-02 -0.508318D-02 -0.674006D-01
     23  0.136047D-02  0.237010D-01  0.154936D-01 -0.154432D+00  0.525708D-01
     24  0.140894D-02 -0.381867D-02 -0.614612D-03  0.421424D-01 -0.189507D-01
     25  0.161273D-02  0.851006D-03  0.135336D-02  0.129339D-02  0.301721D-02
     26 -0.407248D-02  0.443379D-01  0.404318D-01 -0.139445D+00  0.212323D-01
     27 -0.458697D-03 -0.546629D-03 -0.109887D-02  0.179006D-02 -0.422101D-02
     28  0.116297D-02  0.283755D-01  0.242681D-01 -0.128496D+00  0.548142D-01
     29 -0.439343D-02  0.562766D-02  0.222687D-02 -0.263774D-02 -0.152682D-01
     30  0.116209D-02  0.252824D-01  0.192915D-01 -0.114709D+00  0.647048D-01
     31 -0.189248D-01  0.682896D-02 -0.107569D-01  0.408134D-01  0.197226D-01
     32 -0.194088D-01  0.218750D-01  0.709063D-03 -0.159173D-01 -0.306168D-01
     33 -0.187797D-01  0.125291D-01 -0.323182D-02  0.229416D-01  0.132218D-02
     34  0.189401D-01 -0.304541D-02 -0.218099D-01  0.157498D-01  0.246548D-01
     35  0.184560D-01  0.120006D-01 -0.103440D-01 -0.409809D-01 -0.256846D-01
     36  0.190851D-01  0.265472D-02 -0.142849D-01 -0.212201D-02  0.625437D-02
     37  0.687337D-03 -0.296583D-01  0.692303D-02  0.394623D-01  0.176270D-01
     38  0.203239D-03 -0.146123D-01  0.183890D-01 -0.172683D-01 -0.327123D-01
     39  0.832369D-03 -0.239582D-01  0.144481D-01  0.215905D-01 -0.773377D-03
               21            22            23            24            25 
     21  0.121713D+00
     22  0.744857D-02  0.114627D+00
     23 -0.133655D-01 -0.114035D-01  0.171877D+00
     24 -0.317942D-02 -0.357927D-01 -0.492029D-01  0.667396D-01
     25 -0.221644D-02  0.376281D-03  0.616039D-03 -0.310917D-02  0.211285D+00
     26  0.529099D-01 -0.211441D-01  0.807992D-01  0.368146D-02 -0.437456D-01
     27 -0.181825D-02  0.573622D-03  0.769945D-03  0.294642D-02 -0.253963D-01
     28  0.298342D-01 -0.398395D-01  0.944880D-01 -0.135568D-01  0.846517D-03
     29 -0.201597D-01  0.546109D-01  0.287978D-01 -0.455144D-01  0.386080D-02
     30  0.623178D-01 -0.266380D-01 -0.562604D-02  0.219127D-01  0.732331D-03
     31 -0.353238D-01 -0.550291D-02 -0.165424D-01 -0.218372D-02  0.235593D-02
     32  0.451896D-02  0.858775D-02  0.144436D-01  0.191185D-01 -0.229962D-02
     33  0.115357D-01 -0.789656D-02 -0.162641D-01 -0.127678D-01  0.864485D-03
     34 -0.243615D-01 -0.435399D-02 -0.690450D-02 -0.386714D-02  0.170136D-02
     35  0.154812D-01  0.973667D-02  0.240815D-01  0.174351D-01 -0.295419D-02
     36  0.224979D-01 -0.674764D-02 -0.662618D-02 -0.144512D-01  0.209915D-03
     37 -0.328775D-01 -0.201440D-02 -0.182621D-01 -0.285672D-02  0.219824D-02
     38  0.696525D-02  0.120763D-01  0.127240D-01  0.184455D-01 -0.245731D-02
     39  0.139820D-01 -0.440806D-02 -0.179838D-01 -0.134408D-01  0.706800D-03
               26            27            28            29            30 
     26  0.194449D+00
     27  0.227933D-01  0.485403D-01
     28  0.938211D-01 -0.768213D-03  0.888006D-01
     29  0.526463D-02 -0.169213D-02  0.423741D-02  0.594676D-01
     30  0.523948D-01 -0.175592D-02  0.385106D-01 -0.164911D-01  0.850615D-01
     31 -0.457065D-01 -0.521114D-03 -0.238285D-01  0.388750D-02 -0.614352D-02
     32  0.210388D-01  0.325595D-02  0.726236D-02 -0.984271D-02 -0.318524D-02
     33 -0.164638D-01 -0.103368D-02 -0.652735D-02 -0.275714D-02 -0.110089D-01
     34 -0.198371D-01 -0.167877D-02 -0.979439D-02  0.867648D-02  0.577349D-02
     35  0.469082D-01  0.209830D-02  0.212965D-01 -0.505373D-02  0.873177D-02
     36  0.940565D-02 -0.219134D-02  0.750676D-02  0.203184D-02  0.908123D-03
     37 -0.376433D-01 -0.116138D-02 -0.246386D-01  0.527237D-02 -0.551847D-02
     38  0.291020D-01  0.261569D-02  0.645226D-02 -0.845784D-02 -0.256019D-02
     39 -0.840058D-02 -0.167394D-02 -0.733745D-02 -0.137227D-02 -0.103838D-01
               31            32            33            34            35 
     31  0.460813D-01
     32  0.212818D-02  0.432669D-01
     33  0.171585D-01  0.735446D-02  0.362813D-01
     34  0.130445D-01 -0.233450D-01 -0.123509D-01  0.377241D-01
     35 -0.309086D-01  0.177936D-01 -0.221549D-01  0.133456D-02  0.500368D-01
     36 -0.158783D-01 -0.181188D-01  0.677191D-02  0.123287D-01  0.100883D-01
     37  0.176674D-01 -0.251203D-01 -0.103222D-01  0.116014D-01 -0.311863D-01
     38 -0.262857D-01  0.160184D-01 -0.201262D-01 -0.247882D-01  0.175160D-01
     39 -0.112554D-01 -0.198940D-01  0.880064D-02 -0.137941D-01 -0.224326D-01
               36            37            38            39 
     36  0.349789D-01
     37 -0.163882D-01  0.423947D-01
     38 -0.186287D-01 -0.392948D-03  0.419112D-01
     39  0.626201D-02  0.144051D-01  0.576658D-02  0.344612D-01
 Leave Link  716 at Sat May 24 04:53:11 2025, MaxMem=  3758096384 cpu:               0.1 elap:               0.0
 (Enter /apps/easybuild-2022/easybuild/software/Compiler/NVHPC/22.11-CUDA-11.7.0/Gaussian/g16c01-CUDA-11.7.0/g16/l103.exe)

 GradGradGradGradGradGradGradGradGradGradGradGradGradGradGradGradGradGrad
 Berny optimization.
 Red2BG is reusing G-inverse.
 Internal  Forces:  Max     0.106187844 RMS     0.028953359
 Search for a local minimum.
 Step number   1 out of a maximum of   49
 All quantities printed in internal units (Hartrees-Bohrs-Radians)
 RMS Force = .28953D-01 SwitMx=.10000D-02 MixMth= 1
 Mixed Optimization -- RFO/linear search
 Second derivative matrix not updated -- analytic derivatives used.
 ITU=  0
     Eigenvalues ---   -0.01272   0.00116   0.03744   0.04635   0.08386
     Eigenvalues ---    0.10666   0.11185   0.11973   0.18522   0.19973
     Eigenvalues ---    0.21063   0.22829   0.24422   0.25505   0.28813
     Eigenvalues ---    0.29774   0.35817   0.39530   0.41338   0.42522
     Eigenvalues ---    0.42929   0.45251   0.54144   0.55811   0.59306
     Eigenvalues ---    0.98534   1.58760
 Eigenvalue     1 is  -1.27D-02 should be greater than     0.000000 Eigenvector:
                          D1        D3        D4        D5        A2
   1                   -0.68966   0.36504   0.29509   0.29162  -0.20365
                          D14       D13       A1        D11       D10
   1                    0.16205   0.15902  -0.13187   0.13099   0.12797
 RFO step:  Lambda=-3.23540923D-02 EMin=-1.27217528D-02
 Linear search not attempted -- first point.
 Maximum step size (   0.300) exceeded in Quadratic search.
    -- Step size scaled by   0.828
 Iteration  1 RMS(Cart)=  0.12935694 RMS(Int)=  0.05015782
 Iteration  2 RMS(Cart)=  0.07413082 RMS(Int)=  0.01363795
 Iteration  3 RMS(Cart)=  0.04428424 RMS(Int)=  0.00113861
 Iteration  4 RMS(Cart)=  0.00148908 RMS(Int)=  0.00033727
 Iteration  5 RMS(Cart)=  0.00000130 RMS(Int)=  0.00033727
 Iteration  6 RMS(Cart)=  0.00000000 RMS(Int)=  0.00033727
 ITry= 1 IFail=0 DXMaxC= 5.50D-01 DCOld= 1.00D+10 DXMaxT= 3.00D-01 DXLimC= 3.00D+00 Rises=F
 Variable       Old X    -DE/DX   Delta X   Delta X   Delta X     New X
                                 (Linear)    (Quad)   (Total)
    R1        2.56804   0.05511   0.00000   0.03012   0.03012   2.59816
    R2        2.44226   0.01349   0.00000  -0.01087  -0.01087   2.43140
    R3        2.61175   0.01904   0.00000  -0.04812  -0.04812   2.56362
    R4        2.92424   0.01697   0.00000   0.00282   0.00282   2.92705
    R5        2.50310  -0.00007   0.00000  -0.00272  -0.00272   2.50038
    R6        2.49654  -0.00135   0.00000   0.00050   0.00050   2.49703
    R7        2.50747  -0.00492   0.00000  -0.00113  -0.00113   2.50634
    R8        2.51251   0.02898   0.00000   0.05266   0.05266   2.56517
    R9        2.50416  -0.00838   0.00000  -0.01007  -0.01007   2.49409
   R10        1.84644  -0.00851   0.00000  -0.00801  -0.00801   1.83843
    A1        1.85053   0.08560   0.00000   0.13572   0.13572   1.98625
    A2        2.05128   0.10619   0.00000   0.20965   0.20965   2.26092
    A3        1.90982  -0.00667   0.00000   0.01003   0.00991   1.91973
    A4        1.93387  -0.00815   0.00000  -0.02710  -0.02705   1.90682
    A5        1.90991   0.03159   0.00000   0.01673   0.01663   1.92653
    A6        1.90474   0.00231   0.00000   0.00481   0.00485   1.90959
    A7        1.90239  -0.01187   0.00000   0.00555   0.00529   1.90768
    A8        1.90282  -0.00742   0.00000  -0.00966  -0.00960   1.89322
    A9        1.95721   0.04393   0.00000  -0.01708  -0.01802   1.93919
   A10        1.85487   0.01061   0.00000   0.07309   0.07295   1.92781
   A11        1.95456  -0.02851   0.00000  -0.03733  -0.03812   1.91645
   A12        1.88578  -0.00667   0.00000   0.01918   0.01877   1.90454
   A13        1.90673  -0.01683   0.00000  -0.01510  -0.01604   1.89069
   A14        1.90219  -0.00209   0.00000  -0.01882  -0.01827   1.88392
   A15        1.97388   0.01481   0.00000   0.08650   0.08650   2.06038
    D1       -1.03992  -0.04511   0.00000   0.49876   0.49876  -0.54116
    D2        0.00045  -0.00533   0.00000   0.03406   0.03406   0.03451
    D3       -0.69462  -0.02194   0.00000  -0.28368  -0.28349  -0.97810
    D4        1.36232   0.00046   0.00000  -0.22489  -0.22422   1.13809
    D5       -2.84550  -0.01134   0.00000  -0.22300  -0.22386  -3.06936
    D6        3.06142   0.02116   0.00000   0.02158   0.02152   3.08294
    D7        1.02297  -0.01272   0.00000  -0.06982  -0.06981   0.95316
    D8       -1.04419   0.00303   0.00000  -0.04982  -0.04953  -1.09372
    D9       -1.12069   0.01457   0.00000   0.01693   0.01679  -1.10390
   D10        3.12403  -0.01931   0.00000  -0.07447  -0.07454   3.04950
   D11        1.05687  -0.00357   0.00000  -0.05448  -0.05426   1.00261
   D12        0.97805   0.02061   0.00000  -0.00133  -0.00156   0.97649
   D13       -1.06041  -0.01326   0.00000  -0.09273  -0.09289  -1.15330
   D14       -3.12757   0.00248   0.00000  -0.07274  -0.07261   3.08300
         Item               Value     Threshold  Converged?
 Maximum Force            0.106188     0.000450     NO 
 RMS     Force            0.028953     0.000300     NO 
 Maximum Displacement     0.549634     0.001800     NO 
 RMS     Displacement     0.183266     0.001200     NO 
 Predicted change in Energy=-2.439673D-02
 Lowest energy point so far.  Saving SCF results.
 GradGradGradGradGradGradGradGradGradGradGradGradGradGradGradGradGradGrad

 Leave Link  103 at Sat May 24 04:53:11 2025, MaxMem=  3758096384 cpu:               0.1 elap:               0.0
 (Enter /apps/easybuild-2022/easybuild/software/Compiler/NVHPC/22.11-CUDA-11.7.0/Gaussian/g16c01-CUDA-11.7.0/g16/l202.exe)
                          Input orientation:                          
 ---------------------------------------------------------------------
 Center     Atomic      Atomic             Coordinates (Angstroms)
 Number     Number       Type             X           Y           Z
 ---------------------------------------------------------------------
      1          6           0        0.070095   -0.262247    0.197966
      2          8           0        1.380999    0.036075   -0.089878
      3          6           0        1.315617    2.294348   -0.895430
      4          6           0        2.029155    1.226317   -0.029775
      5          9           0        1.922955    3.462522   -0.764210
      6          9           0        2.096190    1.665753    1.252804
      7          9           0        3.263126    1.086584   -0.476664
      8          9           0        1.349458    1.921694   -2.162716
      9          9           0        0.047371    2.415745   -0.526803
     10          8           0       -0.442118    0.480400    1.115329
     11          1           0        0.110335    1.185749    1.494436
 ---------------------------------------------------------------------
                    Distance matrix (angstroms):
                    1          2          3          4          5
     1  C    0.000000
     2  O    1.374888   0.000000
     3  C    3.046804   2.398539   0.000000
     4  C    2.470951   1.356611   1.548931   0.000000
     5  F    4.269985   3.533975   1.323144   2.356117   0.000000
     6  F    2.989135   2.229382   2.370514   1.357427   2.706794
     7  F    3.531277   2.189880   2.329560   1.319818   2.742959
     8  F    3.461096   2.802359   1.321374   2.344136   2.158441
     9  F    2.774427   2.762661   1.326299   2.364158   2.160999
    10  O    1.286640   2.230180   3.228497   2.823977   4.244913
    11  H    1.944003   2.333750   2.897095   2.450864   3.683852
                    6          7          8          9         10
     6  F    0.000000
     7  F    2.165234   0.000000
     8  F    3.505551   2.683711   0.000000
     9  F    2.815519   3.479980   2.148424   0.000000
    10  O    2.804812   4.078080   4.004079   2.584910   0.000000
    11  H    2.057282   3.719565   3.930878   2.366910   0.972854
                   11
    11  H    0.000000
 Symmetry turned off by external request.
 Stoichiometry    C3HF5O2
 Rotational constants (GHZ):           1.8927369           1.3178406           1.1202640
 Leave Link  202 at Sat May 24 04:53:11 2025, MaxMem=  3758096384 cpu:               0.1 elap:               0.0
 (Enter /apps/easybuild-2022/easybuild/software/Compiler/NVHPC/22.11-CUDA-11.7.0/Gaussian/g16c01-CUDA-11.7.0/g16/l301.exe)
 Standard basis: def2TZVPP (5D, 7F)
 Ernie: Thresh=  0.10000D-02 Tol=  0.10000D-05 Strict=F.
   324 basis functions,   527 primitive gaussians,   375 cartesian basis functions
    40 alpha electrons       40 beta electrons
       nuclear repulsion energy       650.6961917989 Hartrees.
 IExCor= 4336 DFT=T Ex+Corr=M062X ExCW=0 ScaHFX=  0.540000
 ScaDFX=  1.000000  1.000000  1.000000  1.000000 ScalE2=  1.000000  1.000000
 IRadAn=      5 IRanWt=     -1 IRanGd=            0 ICorTp=0 IEmpDi=  4
 NAtoms=   11 NActive=   11 NUniq=   11 SFac= 1.00D+00 NAtFMM=   60 NAOKFM=F Big=F
 Integral buffers will be    131072 words long.
 Raffenetti 2 integral format.
 Two-electron integral symmetry is turned off.
 Leave Link  301 at Sat May 24 04:53:11 2025, MaxMem=  3758096384 cpu:               0.1 elap:               0.0
 (Enter /apps/easybuild-2022/easybuild/software/Compiler/NVHPC/22.11-CUDA-11.7.0/Gaussian/g16c01-CUDA-11.7.0/g16/l302.exe)
 NPDir=0 NMtPBC=     1 NCelOv=     1 NCel=       1 NClECP=     1 NCelD=      1
         NCelK=      1 NCelE2=     1 NClLst=     1 CellRange=     0.0.
 One-electron integrals computed using PRISM.
   1 Symmetry operations used in ECPInt.
 ECPInt:  NShTT=    6786 NPrTT=   21959 LenC2=    6523 LenP2D=   16167.
 LDataN:  DoStor=T MaxTD1= 6 Len=  172
 NBasis=   324 RedAO= T EigKep=  4.49D-04  NBF=   324
 NBsUse=   324 1.00D-06 EigRej= -1.00D+00 NBFU=   324
 Precomputing XC quadrature grid using
 IXCGrd= 4 IRadAn=           5 IRanWt=          -1 IRanGd=           0 AccXCQ= 0.00D+00.
 Generated NRdTot=       0 NPtTot=           0 NUsed=           0 NTot=          32
 NSgBfM=   373   373   373   373   373 MxSgAt=    11 MxSgA2=    11.
 Leave Link  302 at Sat May 24 04:53:11 2025, MaxMem=  3758096384 cpu:               1.0 elap:               0.3
 (Enter /apps/easybuild-2022/easybuild/software/Compiler/NVHPC/22.11-CUDA-11.7.0/Gaussian/g16c01-CUDA-11.7.0/g16/l303.exe)
 DipDrv:  MaxL=1.
 Leave Link  303 at Sat May 24 04:53:11 2025, MaxMem=  3758096384 cpu:               0.2 elap:               0.1
 (Enter /apps/easybuild-2022/easybuild/software/Compiler/NVHPC/22.11-CUDA-11.7.0/Gaussian/g16c01-CUDA-11.7.0/g16/l401.exe)
 Initial guess from the checkpoint file:  "/tmp/Gau-277853.chk"
 B after Tr=     0.065656   -0.042926    0.011956
         Rot=    0.999819   -0.011957   -0.014770   -0.000831 Ang=  -2.18 deg.
 Guess basis will be translated and rotated to current coordinates.
 JPrj=2 DoOrth=T DoCkMO=T.
 Generating alternative initial guess.
 ExpMin= 9.52D-02 ExpMax= 3.55D+04 ExpMxC= 1.21D+03 IAcc=3 IRadAn=         5 AccDes= 0.00D+00
 Harris functional with IExCor= 1009 and IRadAn=       5 diagonalized for initial guess.
 HarFok:  IExCor= 1009 AccDes= 0.00D+00 IRadAn=         5 IDoV= 1 UseB2=F ITyADJ=14
 ICtDFT=  3500011 ScaDFX=  1.000000  1.000000  1.000000  1.000000
 FoFCou: FMM=F IPFlag=           0 FMFlag=      100000 FMFlg1=           0
         NFxFlg=           0 DoJE=T BraDBF=F KetDBF=T FulRan=T
         wScrn=  0.000000 ICntrl=       500 IOpCl=  0 I1Cent=   200000004 NGrid=           0
         NMat0=    1 NMatS0=      1 NMatT0=    0 NMatD0=    1 NMtDS0=    0 NMtDT0=    0
 Symmetry not used in FoFCou.
 Harris En= -764.094491858913    
 Leave Link  401 at Sat May 24 04:53:12 2025, MaxMem=  3758096384 cpu:               4.5 elap:               0.9
 (Enter /apps/easybuild-2022/easybuild/software/Compiler/NVHPC/22.11-CUDA-11.7.0/Gaussian/g16c01-CUDA-11.7.0/g16/l502.exe)
 Keep R1 ints in memory in canonical form, NReq=1412617130.
 FoFCou: FMM=F IPFlag=           0 FMFlag=           0 FMFlg1=           0
         NFxFlg=           0 DoJE=F BraDBF=F KetDBF=F FulRan=T
         wScrn=  0.000000 ICntrl=       600 IOpCl=  0 I1Cent=           0 NGrid=           0
         NMat0=    1 NMatS0=  52650 NMatT0=    0 NMatD0=    1 NMtDS0=    0 NMtDT0=    0
 Symmetry not used in FoFCou.
 Two-electron integral symmetry not used.
 Closed shell SCF:
 Using DIIS extrapolation, IDIIS=  1040.
 NGot=  3758096384 LenX=  2371771924 LenY=  2371630858
 Requested convergence on RMS density matrix=1.00D-08 within  32 cycles.
 Requested convergence on MAX density matrix=1.00D-06.
 Requested convergence on             energy=1.00D-06.
 No special actions if energy rises.
 Integral accuracy reduced to 1.0D-05 until final iterations.

 Cycle   1  Pass 0  IDiag  1:
 E= -764.461238929111    
 DIIS: error= 9.81D-03 at cycle   1 NSaved=   1.
 NSaved= 1 IEnMin= 1 EnMin= -764.461238929111     IErMin= 1 ErrMin= 9.81D-03
 ErrMax= 9.81D-03  0.00D+00 EMaxC= 1.00D-01 BMatC= 7.46D-02 BMatP= 7.46D-02
 IDIUse=3 WtCom= 9.02D-01 WtEn= 9.81D-02
 Coeff-Com:  0.100D+01
 Coeff-En:   0.100D+01
 Coeff:      0.100D+01
 Gap=     0.803 Goal=   None    Shift=    0.000
 GapD=    0.803 DampG=2.000 DampE=1.000 DampFc=2.0000 IDamp=-1.
 RMSDP=9.83D-04 MaxDP=4.48D-02              OVMax= 1.55D-01

 Cycle   2  Pass 0  IDiag  1:
 E= -764.569056476136     Delta-E=       -0.107817547025 Rises=F Damp=F
 DIIS: error= 2.17D-03 at cycle   2 NSaved=   2.
 NSaved= 2 IEnMin= 2 EnMin= -764.569056476136     IErMin= 2 ErrMin= 2.17D-03
 ErrMax= 2.17D-03  0.00D+00 EMaxC= 1.00D-01 BMatC= 4.66D-03 BMatP= 7.46D-02
 IDIUse=3 WtCom= 9.78D-01 WtEn= 2.17D-02
 Coeff-Com: -0.743D-01 0.107D+01
 Coeff-En:   0.000D+00 0.100D+01
 Coeff:     -0.727D-01 0.107D+01
 Gap=     0.319 Goal=   None    Shift=    0.000
 RMSDP=3.13D-04 MaxDP=9.89D-03 DE=-1.08D-01 OVMax= 5.66D-02

 Cycle   3  Pass 0  IDiag  1:
 E= -764.576699454741     Delta-E=       -0.007642978605 Rises=F Damp=F
 DIIS: error= 1.51D-03 at cycle   3 NSaved=   3.
 NSaved= 3 IEnMin= 3 EnMin= -764.576699454741     IErMin= 3 ErrMin= 1.51D-03
 ErrMax= 1.51D-03  0.00D+00 EMaxC= 1.00D-01 BMatC= 2.27D-03 BMatP= 4.66D-03
 IDIUse=3 WtCom= 9.85D-01 WtEn= 1.51D-02
 Coeff-Com: -0.780D-01 0.446D+00 0.632D+00
 Coeff-En:   0.000D+00 0.000D+00 0.100D+01
 Coeff:     -0.768D-01 0.440D+00 0.637D+00
 Gap=     0.323 Goal=   None    Shift=    0.000
 RMSDP=1.06D-04 MaxDP=5.51D-03 DE=-7.64D-03 OVMax= 1.98D-02

 Cycle   4  Pass 0  IDiag  1:
 E= -764.578505291742     Delta-E=       -0.001805837001 Rises=F Damp=F
 DIIS: error= 5.58D-04 at cycle   4 NSaved=   4.
 NSaved= 4 IEnMin= 4 EnMin= -764.578505291742     IErMin= 4 ErrMin= 5.58D-04
 ErrMax= 5.58D-04  0.00D+00 EMaxC= 1.00D-01 BMatC= 2.47D-04 BMatP= 2.27D-03
 IDIUse=3 WtCom= 9.94D-01 WtEn= 5.58D-03
 Coeff-Com: -0.488D-02-0.597D-01 0.200D+00 0.864D+00
 Coeff-En:   0.000D+00 0.000D+00 0.000D+00 0.100D+01
 Coeff:     -0.486D-02-0.594D-01 0.199D+00 0.865D+00
 Gap=     0.322 Goal=   None    Shift=    0.000
 RMSDP=5.75D-05 MaxDP=2.29D-03 DE=-1.81D-03 OVMax= 1.39D-02

 Cycle   5  Pass 0  IDiag  1:
 E= -764.578834006289     Delta-E=       -0.000328714547 Rises=F Damp=F
 DIIS: error= 2.38D-04 at cycle   5 NSaved=   5.
 NSaved= 5 IEnMin= 5 EnMin= -764.578834006289     IErMin= 5 ErrMin= 2.38D-04
 ErrMax= 2.38D-04  0.00D+00 EMaxC= 1.00D-01 BMatC= 2.70D-05 BMatP= 2.47D-04
 IDIUse=3 WtCom= 9.98D-01 WtEn= 2.38D-03
 Coeff-Com:  0.819D-02-0.794D-01-0.728D-02 0.283D+00 0.795D+00
 Coeff-En:   0.000D+00 0.000D+00 0.000D+00 0.000D+00 0.100D+01
 Coeff:      0.817D-02-0.792D-01-0.726D-02 0.282D+00 0.796D+00
 Gap=     0.323 Goal=   None    Shift=    0.000
 RMSDP=2.45D-05 MaxDP=1.15D-03 DE=-3.29D-04 OVMax= 5.15D-03

 Cycle   6  Pass 0  IDiag  1:
 E= -764.578876475307     Delta-E=       -0.000042469018 Rises=F Damp=F
 DIIS: error= 5.83D-05 at cycle   6 NSaved=   6.
 NSaved= 6 IEnMin= 6 EnMin= -764.578876475307     IErMin= 6 ErrMin= 5.83D-05
 ErrMax= 5.83D-05  0.00D+00 EMaxC= 1.00D-01 BMatC= 2.63D-06 BMatP= 2.70D-05
 IDIUse=1 WtCom= 1.00D+00 WtEn= 0.00D+00
 Coeff-Com:  0.306D-02-0.152D-01-0.229D-01-0.303D-01 0.158D+00 0.908D+00
 Coeff:      0.306D-02-0.152D-01-0.229D-01-0.303D-01 0.158D+00 0.908D+00
 Gap=     0.323 Goal=   None    Shift=    0.000
 RMSDP=8.95D-06 MaxDP=3.14D-04 DE=-4.25D-05 OVMax= 2.06D-03

 Initial convergence to 1.0D-05 achieved.  Increase integral accuracy.
 Cycle   7  Pass 1  IDiag  1:
 E= -764.578885664581     Delta-E=       -0.000009189274 Rises=F Damp=F
 DIIS: error= 2.87D-05 at cycle   1 NSaved=   1.
 NSaved= 1 IEnMin= 1 EnMin= -764.578885664581     IErMin= 1 ErrMin= 2.87D-05
 ErrMax= 2.87D-05  0.00D+00 EMaxC= 1.00D-01 BMatC= 1.49D-06 BMatP= 1.49D-06
 IDIUse=1 WtCom= 1.00D+00 WtEn= 0.00D+00
 Coeff-Com:  0.100D+01
 Coeff:      0.100D+01
 Gap=     0.323 Goal=   None    Shift=    0.000
 RMSDP=8.95D-06 MaxDP=3.14D-04 DE=-9.19D-06 OVMax= 4.87D-04

 Cycle   8  Pass 1  IDiag  1:
 E= -764.578886029298     Delta-E=       -0.000000364717 Rises=F Damp=F
 DIIS: error= 3.13D-05 at cycle   2 NSaved=   2.
 NSaved= 2 IEnMin= 2 EnMin= -764.578886029298     IErMin= 1 ErrMin= 2.87D-05
 ErrMax= 3.13D-05  0.00D+00 EMaxC= 1.00D-01 BMatC= 1.39D-06 BMatP= 1.49D-06
 IDIUse=1 WtCom= 1.00D+00 WtEn= 0.00D+00
 Coeff-Com:  0.490D+00 0.510D+00
 Coeff:      0.490D+00 0.510D+00
 Gap=     0.323 Goal=   None    Shift=    0.000
 RMSDP=2.00D-06 MaxDP=9.54D-05 DE=-3.65D-07 OVMax= 1.99D-04

 Cycle   9  Pass 1  IDiag  1:
 E= -764.578886849014     Delta-E=       -0.000000819715 Rises=F Damp=F
 DIIS: error= 6.35D-06 at cycle   3 NSaved=   3.
 NSaved= 3 IEnMin= 3 EnMin= -764.578886849014     IErMin= 3 ErrMin= 6.35D-06
 ErrMax= 6.35D-06  0.00D+00 EMaxC= 1.00D-01 BMatC= 6.07D-08 BMatP= 1.39D-06
 IDIUse=1 WtCom= 1.00D+00 WtEn= 0.00D+00
 Coeff-Com: -0.155D-01 0.147D+00 0.869D+00
 Coeff:     -0.155D-01 0.147D+00 0.869D+00
 Gap=     0.323 Goal=   None    Shift=    0.000
 RMSDP=7.88D-07 MaxDP=2.59D-05 DE=-8.20D-07 OVMax= 1.18D-04

 Cycle  10  Pass 1  IDiag  1:
 E= -764.578886899265     Delta-E=       -0.000000050251 Rises=F Damp=F
 DIIS: error= 2.92D-06 at cycle   4 NSaved=   4.
 NSaved= 4 IEnMin= 4 EnMin= -764.578886899265     IErMin= 4 ErrMin= 2.92D-06
 ErrMax= 2.92D-06  0.00D+00 EMaxC= 1.00D-01 BMatC= 1.06D-08 BMatP= 6.07D-08
 IDIUse=1 WtCom= 1.00D+00 WtEn= 0.00D+00
 Coeff-Com: -0.332D-01 0.373D-01 0.404D+00 0.592D+00
 Coeff:     -0.332D-01 0.373D-01 0.404D+00 0.592D+00
 Gap=     0.323 Goal=   None    Shift=    0.000
 RMSDP=2.33D-07 MaxDP=1.02D-05 DE=-5.03D-08 OVMax= 3.96D-05

 Cycle  11  Pass 1  IDiag  1:
 E= -764.578886908088     Delta-E=       -0.000000008823 Rises=F Damp=F
 DIIS: error= 1.07D-06 at cycle   5 NSaved=   5.
 NSaved= 5 IEnMin= 5 EnMin= -764.578886908088     IErMin= 5 ErrMin= 1.07D-06
 ErrMax= 1.07D-06  0.00D+00 EMaxC= 1.00D-01 BMatC= 8.68D-10 BMatP= 1.06D-08
 IDIUse=1 WtCom= 1.00D+00 WtEn= 0.00D+00
 Coeff-Com: -0.152D-02-0.255D-01-0.996D-01 0.131D+00 0.996D+00
 Coeff:     -0.152D-02-0.255D-01-0.996D-01 0.131D+00 0.996D+00
 Gap=     0.323 Goal=   None    Shift=    0.000
 RMSDP=1.64D-07 MaxDP=6.08D-06 DE=-8.82D-09 OVMax= 3.98D-05

 Cycle  12  Pass 1  IDiag  1:
 E= -764.578886909883     Delta-E=       -0.000000001795 Rises=F Damp=F
 DIIS: error= 4.27D-07 at cycle   6 NSaved=   6.
 NSaved= 6 IEnMin= 6 EnMin= -764.578886909883     IErMin= 6 ErrMin= 4.27D-07
 ErrMax= 4.27D-07  0.00D+00 EMaxC= 1.00D-01 BMatC= 1.43D-10 BMatP= 8.68D-10
 IDIUse=1 WtCom= 1.00D+00 WtEn= 0.00D+00
 Coeff-Com:  0.349D-02-0.163D-01-0.935D-01-0.220D-01 0.376D+00 0.753D+00
 Coeff:      0.349D-02-0.163D-01-0.935D-01-0.220D-01 0.376D+00 0.753D+00
 Gap=     0.323 Goal=   None    Shift=    0.000
 RMSDP=5.35D-08 MaxDP=2.03D-06 DE=-1.80D-09 OVMax= 1.13D-05

 Cycle  13  Pass 1  IDiag  1:
 E= -764.578886910034     Delta-E=       -0.000000000151 Rises=F Damp=F
 DIIS: error= 9.21D-08 at cycle   7 NSaved=   7.
 NSaved= 7 IEnMin= 7 EnMin= -764.578886910034     IErMin= 7 ErrMin= 9.21D-08
 ErrMax= 9.21D-08  0.00D+00 EMaxC= 1.00D-01 BMatC= 1.12D-11 BMatP= 1.43D-10
 IDIUse=1 WtCom= 1.00D+00 WtEn= 0.00D+00
 Coeff-Com:  0.137D-02-0.305D-02-0.226D-01-0.212D-01 0.235D-01 0.247D+00
 Coeff-Com:  0.775D+00
 Coeff:      0.137D-02-0.305D-02-0.226D-01-0.212D-01 0.235D-01 0.247D+00
 Coeff:      0.775D+00
 Gap=     0.323 Goal=   None    Shift=    0.000
 RMSDP=1.54D-08 MaxDP=4.90D-07 DE=-1.51D-10 OVMax= 3.03D-06

 Cycle  14  Pass 1  IDiag  1:
 E= -764.578886910095     Delta-E=       -0.000000000061 Rises=F Damp=F
 DIIS: error= 3.12D-08 at cycle   8 NSaved=   8.
 NSaved= 8 IEnMin= 8 EnMin= -764.578886910095     IErMin= 8 ErrMin= 3.12D-08
 ErrMax= 3.12D-08  0.00D+00 EMaxC= 1.00D-01 BMatC= 1.33D-12 BMatP= 1.12D-11
 IDIUse=1 WtCom= 1.00D+00 WtEn= 0.00D+00
 Coeff-Com: -0.531D-04 0.136D-02 0.633D-02-0.216D-02-0.410D-01-0.297D-01
 Coeff-Com:  0.256D+00 0.809D+00
 Coeff:     -0.531D-04 0.136D-02 0.633D-02-0.216D-02-0.410D-01-0.297D-01
 Coeff:      0.256D+00 0.809D+00
 Gap=     0.323 Goal=   None    Shift=    0.000
 RMSDP=5.04D-09 MaxDP=1.80D-07 DE=-6.14D-11 OVMax= 7.31D-07

 SCF Done:  E(RM062X) =  -764.578886910     A.U. after   14 cycles
            NFock= 14  Conv=0.50D-08     -V/T= 2.0035
 KE= 7.618774371745D+02 PE=-3.112402338928D+03 EE= 9.352498230444D+02
 Leave Link  502 at Sat May 24 04:53:39 2025, MaxMem=  3758096384 cpu:             117.3 elap:              27.2
 (Enter /apps/easybuild-2022/easybuild/software/Compiler/NVHPC/22.11-CUDA-11.7.0/Gaussian/g16c01-CUDA-11.7.0/g16/l508.exe)
 QCSCF skips out because SCF is already converged.
 Leave Link  508 at Sat May 24 04:53:39 2025, MaxMem=  3758096384 cpu:               0.1 elap:               0.0
 (Enter /apps/easybuild-2022/easybuild/software/Compiler/NVHPC/22.11-CUDA-11.7.0/Gaussian/g16c01-CUDA-11.7.0/g16/l701.exe)
 ... and contract with generalized density number  0.
 Compute integral first derivatives.
   1 Symmetry operations used in ECPInt.
 ECPInt:  NShTT=    6786 NPrTT=   21959 LenC2=    6523 LenP2D=   16167.
 LDataN:  DoStor=T MaxTD1= 7 Len=  274
 Leave Link  701 at Sat May 24 04:53:39 2025, MaxMem=  3758096384 cpu:               1.1 elap:               0.3
 (Enter /apps/easybuild-2022/easybuild/software/Compiler/NVHPC/22.11-CUDA-11.7.0/Gaussian/g16c01-CUDA-11.7.0/g16/l702.exe)
 L702 exits ... SP integral derivatives will be done elsewhere.
 Leave Link  702 at Sat May 24 04:53:40 2025, MaxMem=  3758096384 cpu:               0.1 elap:               0.0
 (Enter /apps/easybuild-2022/easybuild/software/Compiler/NVHPC/22.11-CUDA-11.7.0/Gaussian/g16c01-CUDA-11.7.0/g16/l703.exe)
 Integral derivatives from FoFJK, PRISM(SPDF).
 Compute integral first derivatives, UseDBF=F ICtDFT=           0.
 Calling FoFJK, ICntrl=      2127 FMM=F ISym2X=0 I1Cent= 0 IOpClX= 0 NMat=1 NMatS=1 NMatT=0.
 FoFJK:  IHMeth= 1 ICntrl=    2127 DoSepK=F KAlg= 0 I1Cent=           0 FoldK=F
 IRaf=         0 NMat=       1 IRICut=       1 DoRegI=T DoRafI=F ISym2E= 0 IDoP0=0 IntGTp=1.
[...]
   R10        1.83640  -0.00000   0.00000  -0.00000  -0.00000   1.83639
    A1        1.99965  -0.00003   0.00000  -0.00013  -0.00013   1.99952
    A2        2.28721   0.00013   0.00000   0.00051   0.00051   2.28772
    A3        1.92125  -0.00001   0.00000  -0.00004  -0.00004   1.92121
    A4        1.92499  -0.00000   0.00000  -0.00003  -0.00003   1.92496
    A5        1.90433   0.00004   0.00000   0.00004   0.00004   1.90437
    A6        1.91103   0.00000   0.00000  -0.00002  -0.00002   1.91102
    A7        1.89773  -0.00001   0.00000   0.00003   0.00003   1.89776
    A8        1.90418  -0.00001   0.00000   0.00001   0.00001   1.90419
    A9        1.95988   0.00002   0.00000  -0.00015  -0.00015   1.95974
   A10        1.96261  -0.00003   0.00000  -0.00006  -0.00006   1.96255
   A11        1.87930   0.00001   0.00000   0.00009   0.00009   1.87939
   A12        1.88130   0.00004   0.00000   0.00019   0.00019   1.88149
   A13        1.89531  -0.00004   0.00000  -0.00004  -0.00004   1.89527
   A14        1.88310  -0.00000   0.00000  -0.00003  -0.00003   1.88306
   A15        2.06886  -0.00001   0.00000  -0.00014  -0.00014   2.06872
    D1       -0.03386  -0.00005   0.00000  -0.00054  -0.00054  -0.03440
    D2       -0.02057   0.00000   0.00000   0.00036   0.00036  -0.02021
    D3       -1.44184  -0.00004   0.00000  -0.00065  -0.00065  -1.44250
    D4        0.68365  -0.00000   0.00000  -0.00056  -0.00056   0.68309
    D5        2.75577  -0.00002   0.00000  -0.00058  -0.00058   2.75519
    D6       -3.09519   0.00000   0.00000  -0.00011  -0.00011  -3.09531
    D7        1.01677   0.00000   0.00000  -0.00008  -0.00008   1.01669
    D8       -1.01900   0.00001   0.00000  -0.00012  -0.00012  -1.01912
    D9       -0.98456  -0.00000   0.00000  -0.00018  -0.00018  -0.98474
   D10        3.12740  -0.00000   0.00000  -0.00014  -0.00014   3.12726
   D11        1.09164  -0.00000   0.00000  -0.00018  -0.00018   1.09146
   D12        1.10680  -0.00000   0.00000  -0.00016  -0.00016   1.10665
   D13       -1.06442   0.00000   0.00000  -0.00012  -0.00012  -1.06454
   D14       -3.10019   0.00000   0.00000  -0.00016  -0.00016  -3.10035
         Item               Value     Threshold  Converged?
 Maximum Force            0.000126     0.000450     YES
 RMS     Force            0.000030     0.000300     YES
 Maximum Displacement     0.001885     0.001800     NO 
 RMS     Displacement     0.000687     0.001200     YES
 Predicted change in Energy=-8.407336D-08
                           ----------------------------
                           ! Non-Optimized Parameters !
                           ! (Angstroms and Degrees)  !
 --------------------------                            --------------------------
 ! Name  Definition              Value          Derivative Info.                !
 --------------------------------------------------------------------------------
 ! R1    R(1,2)                  1.3704         -DE/DX =   -0.0001              !
 ! R2    R(1,10)                 1.2938         -DE/DX =    0.0                 !
 ! R3    R(2,4)                  1.3739         -DE/DX =    0.0                 !
 ! R4    R(3,4)                  1.5461         -DE/DX =    0.0                 !
 ! R5    R(3,5)                  1.3222         -DE/DX =    0.0                 !
 ! R6    R(3,8)                  1.3184         -DE/DX =    0.0                 !
 ! R7    R(3,9)                  1.3332         -DE/DX =    0.0                 !
 ! R8    R(4,6)                  1.3516         -DE/DX =    0.0                 !
 ! R9    R(4,7)                  1.323          -DE/DX =    0.0                 !
 ! R10   R(10,11)                0.9718         -DE/DX =    0.0                 !
 ! A1    A(2,1,10)             114.5641         -DE/DX =    0.0                 !
 ! A2    A(1,2,4)              131.0767         -DE/DX =    0.0001              !
 ! A3    A(4,3,5)              110.0774         -DE/DX =    0.0                 !
 ! A4    A(4,3,8)              110.2923         -DE/DX =    0.0                 !
 ! A5    A(4,3,9)              109.1125         -DE/DX =    0.0                 !
 ! A6    A(5,3,8)              109.4932         -DE/DX =    0.0                 !
 ! A7    A(5,3,9)              108.7338         -DE/DX =    0.0                 !
 ! A8    A(8,3,9)              109.1019         -DE/DX =    0.0                 !
 ! A9    A(2,4,3)              112.2847         -DE/DX =    0.0                 !
 ! A10   A(2,4,6)              112.4456         -DE/DX =    0.0                 !
 ! A11   A(2,4,7)              107.681          -DE/DX =    0.0                 !
 ! A12   A(3,4,6)              107.8013         -DE/DX =    0.0                 !
 ! A13   A(3,4,7)              108.5912         -DE/DX =    0.0                 !
 ! A14   A(6,4,7)              107.8916         -DE/DX =    0.0                 !
 ! A15   A(1,10,11)            118.529          -DE/DX =    0.0                 !
 ! D1    D(10,1,2,4)            -1.971          -DE/DX =   -0.0001              !
 ! D2    D(2,1,10,11)           -1.1577         -DE/DX =    0.0                 !
 ! D3    D(1,2,4,3)            -82.6491         -DE/DX =    0.0                 !
 ! D4    D(1,2,4,6)             39.1385         -DE/DX =    0.0                 !
 ! D5    D(1,2,4,7)            157.8609         -DE/DX =    0.0                 !
 ! D6    D(5,3,4,2)           -177.3481         -DE/DX =    0.0                 !
 ! D7    D(5,3,4,6)             58.2522         -DE/DX =    0.0                 !
 ! D8    D(5,3,4,7)            -58.391          -DE/DX =    0.0                 !
 ! D9    D(8,3,4,2)            -56.4213         -DE/DX =    0.0                 !
 ! D10   D(8,3,4,6)            179.179          -DE/DX =    0.0                 !
 ! D11   D(8,3,4,7)             62.5358         -DE/DX =    0.0                 !
 ! D12   D(9,3,4,2)             63.4062         -DE/DX =    0.0                 !
 ! D13   D(9,3,4,6)            -60.9935         -DE/DX =    0.0                 !
 ! D14   D(9,3,4,7)           -177.6368         -DE/DX =    0.0                 !
 --------------------------------------------------------------------------------
 GradGradGradGradGradGradGradGradGradGradGradGradGradGradGradGradGradGrad

 Leave Link  103 at Sat May 24 05:03:27 2025, MaxMem=  3758096384 cpu:               0.1 elap:               0.0
 (Enter /apps/easybuild-2022/easybuild/software/Compiler/NVHPC/22.11-CUDA-11.7.0/Gaussian/g16c01-CUDA-11.7.0/g16/l9999.exe)

 ----------------------------------------------------------------------

 Electric dipole moment (input orientation):
 (Debye = 10**-18 statcoulomb cm , SI units = C m)
                  (au)            (Debye)         (10**-30 SI)
   Tot        0.979888D+00      0.249063D+01      0.830784D+01
   x          0.219621D+00      0.558220D+00      0.186202D+01
   y          0.898329D+00      0.228332D+01      0.761635D+01
   z          0.323963D+00      0.823433D+00      0.274668D+01

 Dipole polarizability, Alpha (input orientation).
 (esu units = cm**3 , SI units = C**2 m**2 J**-1)
 Alpha(0;0):
               (au)            (10**-24 esu)      (10**-40 SI)
   iso        0.464233D+02      0.687923D+01      0.765417D+01
   aniso      0.124412D+02      0.184360D+01      0.205128D+01
   xx         0.479245D+02      0.710168D+01      0.790169D+01
   yx         0.487139D+01      0.721866D+00      0.803184D+00
   yy         0.475256D+02      0.704257D+01      0.783592D+01
   zx        -0.475069D+01     -0.703979D+00     -0.783282D+00
   zy        -0.414585D+00     -0.614351D-01     -0.683558D-01
   zz         0.438198D+02      0.649343D+01      0.722491D+01

 ----------------------------------------------------------------------

 Dipole orientation:
     6          0.25770775         -0.98878062         -0.46341281
     8          2.45278180          0.00204675          0.48915119
     6          2.17294719          2.85083504          4.07221670
     6          3.23321423          0.37625930          2.93687768
     9          3.05936110          3.18254223          6.38462320
     9          2.55697406         -1.54309784          4.48045166
     9          5.72963793          0.50985620          2.92564065
     9          2.80911397          4.79573942          2.65100794
     9         -0.33938658          2.69744636          4.18303008
     8         -1.32757585         -1.76204747          1.22978638
     1         -0.85746522         -1.62434295          2.99964153

 Electric dipole moment (dipole orientation):
 (Debye = 10**-18 statcoulomb cm , SI units = C m)
                  (au)            (Debye)         (10**-30 SI)
   Tot        0.979888D+00      0.249063D+01      0.830784D+01
   x          0.000000D+00      0.000000D+00      0.000000D+00
   y          0.000000D+00      0.000000D+00      0.000000D+00
   z          0.979888D+00      0.249063D+01      0.830784D+01

 Dipole polarizability, Alpha (dipole orientation).
 (esu units = cm**3 , SI units = C**2 m**2 J**-1)
 Alpha(0;0):
               (au)            (10**-24 esu)      (10**-40 SI)
   iso        0.464233D+02      0.687923D+01      0.765417D+01
   aniso      0.124412D+02      0.184360D+01      0.205128D+01
   xx         0.482816D+02      0.715459D+01      0.796056D+01
   yx         0.502411D+01      0.744497D+00      0.828364D+00
   yy         0.428013D+02      0.634249D+01      0.705698D+01
   zx         0.332301D+01      0.492420D+00      0.547891D+00
   zy         0.233860D+01      0.346545D+00      0.385583D+00
   zz         0.481871D+02      0.714060D+01      0.794498D+01

 ----------------------------------------------------------------------
 Unable to Open any file for archive entry.
 1\1\GINC-SPARTAN-BM177\Freq\RM062X\def2TZVPP\C3H1F5O2\AKHALILOV\24-May
 -2025\0\\#P Geom=AllCheck Guess=TCheck SCRF=Check GenChk RM062X/def2TZ
 VPP Freq\\Gaussian input prepared by ASE\\0,1\C,0.1570611162,-0.438618
 5167,0.3680489342\O,1.306803397,0.0372712247,-0.2063235401\C,1.3564857
 203,2.3537136439,-0.9283062203\C,1.9639295694,1.2339139594,-0.05219197
 05\F,2.0550015333,3.467762363,-0.789798313\F,1.9595034497,1.6638700313
 ,1.2292069356\F,3.2228578221,1.05050762,-0.4150550677\F,1.3529318402,1
 .9913754344,-2.1959379377\F,0.1028834905,2.5828697636,-0.5365333504\O,
 -0.386157019,0.361616362,1.2274357345\H,0.0518818087,1.2086574613,1.41
 45148724\\Version=ES64L-G16RevC.01\HF=-764.5834511\RMSD=8.674e-10\RMSF
 =2.867e-05\ZeroPoint=0.0508752\Thermal=0.0597388\ETot=-764.5237123\HTo
 t=-764.5227681\GTot=-764.5671178\Dipole=0.2196208,0.8983291,0.3239634\
 DipoleDeriv=1.1426212,0.3703785,-0.841933,0.153749,0.5895476,0.3068357
 ,-0.9012718,0.1468582,0.646341,-1.2729824,-0.4416745,0.5281774,-0.8207
 566,-0.8728827,0.3279887,0.337679,0.1226109,-0.5229408,1.4310792,0.112
 2672,-0.0530493,0.2023185,1.5064745,0.0660104,-0.1697029,0.0219466,1.5
 467011,1.6148925,0.1640603,-0.1569728,0.2606982,1.2711965,-0.0448418,0
 .0359821,0.1171497,1.3246936,-0.4321795,-0.2371992,-0.0405836,-0.36545
 82,-0.8359688,0.0110471,-0.0033487,0.0292435,-0.3044781,-0.3734988,-0.
 0875277,-0.037371,-0.0748576,-0.4153931,-0.0817291,-0.0595753,-0.20111
 44,-0.8004971,-0.9319054,0.014033,0.2279048,0.0818564,-0.3110274,0.027
 2907,0.1194022,0.0350305,-0.3185972,-0.2584525,0.0075558,-0.0439429,0.
 0028467,-0.336146,-0.0613767,0.0227927,-0.1116568,-0.877282,-0.7846477
 ,0.0838228,0.1644788,0.1372528,-0.368328,0.0101897,0.1254477,0.0564179
 ,-0.3588903,-0.4913616,0.0439553,0.2530623,0.441639,-0.477085,-0.49749
 96,0.4840829,-0.1672283,-0.7061805,0.356435,-0.0296715,0.0002294,-0.01
 92881,0.2496125,-0.063915,0.0085122,-0.0492577,0.3711303\Polar=47.9245
 232,4.8713906,47.5256416,-4.750687,-0.4145845,43.8198051\PG=Unknown\NI
 mag=0\\0.26862267,0.03419145,0.40639219,-0.15390153,0.18634157,0.25800
 091,-0.13975754,-0.04912947,0.06008783,0.34190382,-0.04776244,-0.10294
 169,-0.00435947,0.12713390,0.31399616,0.05325363,-0.01020322,-0.073429
 11,-0.12646526,0.03486879,0.19611841,0.01536156,-0.00570614,-0.0128833
 2,-0.01004940,-0.03345842,0.01439580,0.58971404,-0.00886099,-0.0023746
 3,0.00601024,0.00235185,-0.02387558,0.00614079,-0.00530054,0.62508385,
 0.00206602,0.00200950,-0.00235636,-0.00416595,-0.00987700,0.00726809,0
 .01423677,-0.01399416,0.63060481,-0.03861325,-0.03400141,0.01421618,-0
 .09209312,-0.02472643,0.00454857,-0.06653570,0.05224802,-0.04111906,0.
 61369397,-0.07160200,-0.02479249,0.02879528,-0.01392440,-0.18111046,-0
 .00812596,0.04830633,-0.13571675,0.07162504,-0.03339946,0.54779369,-0.
 02129117,0.01079041,0.02899457,0.02641502,0.00921920,-0.09436701,-0.03
 933489,0.07815391,-0.09580286,-0.00723513,-0.03382674,0.55043261,-0.00
 108177,0.00081627,0.00078155,0.00207405,0.00139046,0.00006481,-0.12934
 426,-0.10242094,-0.00534021,-0.00271627,-0.00321345,-0.00257446,0.1855
 3562,0.00661160,0.00020287,-0.00625115,-0.00254072,-0.01319087,0.00892
 240,-0.09347851,-0.27901084,0.00134893,-0.03537656,-0.03634929,-0.0121
 8533,0.17103806,0.34537054,-0.00161667,-0.00012155,0.00151725,0.001275
 29,0.00522269,-0.00209879,-0.00737168,-0.00485248,-0.08067268,0.009056
 13,0.01142623,0.00480347,0.01750195,0.03610028,0.08367163,-0.00355735,
 0.00141196,0.00446960,0.01239834,-0.00879611,-0.02213369,0.00141763,-0
 .00605229,-0.01143197,-0.07612138,-0.00719149,-0.02211335,0.00150227,0
 .00280065,0.00082151,0.08851829,0.01069578,0.00004193,-0.00411328,-0.0
 1711765,-0.02714139,-0.04898462,-0.00100439,0.00633997,0.01026593,-0.0
 0372277,-0.08785620,-0.04056338,0.00119633,0.00281107,0.00193295,0.006
 73215,0.10071775,0.01712835,-0.00287878,-0.01248491,-0.02251708,-0.038
 75078,-0.01562923,0.00509435,-0.02776366,-0.04484837,-0.02047443,-0.02
 766522,-0.25529538,0.00054984,0.00446208,0.00322252,-0.00011823,0.0921
 4759,0.36102934,0.01143774,0.00009392,-0.00988940,-0.06880775,-0.03746
 516,0.01826404,-0.04303461,-0.00018282,0.02114281,-0.31015110,0.061309
 21,0.04031086,0.00567676,0.00383342,-0.00203126,-0.01332091,0.01270071
 ,0.03961377,0.42361088,0.00694825,-0.00084071,-0.00639716,-0.05833991,
 -0.00446314,0.01165999,0.02673760,0.00122758,-0.01119211,0.05221500,-0
 .08696496,-0.00335965,0.00112997,0.00147609,0.00042903,0.01852554,0.00
 412964,-0.01883124,-0.05122075,0.08865173,-0.00031743,0.00132334,0.000
 91478,0.00881270,0.00191688,0.00863828,-0.00837222,0.00004241,0.005670
 64,0.05006339,-0.00543196,-0.08601774,-0.00024258,0.00086002,0.0003321
 6,0.05727535,-0.02174368,-0.03835204,-0.09992778,0.01975068,0.10466958
 ,-0.00181767,0.00018748,0.00121922,0.00207106,0.00333911,0.00001225,-0
 .07837378,0.00257787,-0.01290045,0.00398562,-0.00571805,-0.01098866,0.
 00381900,-0.02005849,-0.02753102,-0.00036713,0.00168068,-0.00444814,0.
 00310848,-0.00077354,-0.00096441,0.08013530,0.00291687,0.00015332,-0.0
 0146237,-0.00103438,-0.00014733,0.00221960,0.00027348,-0.09203821,-0.0
 4528123,-0.00082252,0.00882684,0.01256947,-0.01977509,-0.02888743,-0.0
 5752130,0.00163884,-0.00112759,0.00666360,0.00022113,0.00001304,0.0005
 2251,0.00401830,0.10645540,0.00016956,-0.00141263,-0.00011908,-0.00022
 730,0.00382716,0.00195976,-0.01774310,-0.03405009,-0.33089031,0.006870
 05,-0.02365627,-0.04107846,-0.01947220,-0.04116618,-0.02211545,-0.0035
 3927,0.00638019,-0.01073375,-0.00467923,0.00326380,0.00364342,-0.00097
 240,0.10505737,0.43891882,-0.00862412,0.00264063,0.00589884,0.01079424
 ,0.00694122,-0.00444858,-0.27756979,0.06391889,0.03573419,-0.03897678,
 -0.00267702,0.02162962,-0.06532137,-0.03142024,0.00997392,0.00298471,0
 .00065053,-0.00410718,-0.00718106,0.00794173,-0.00471803,-0.01257949,0
 .01321708,0.04068805,0.39526840,0.00160438,0.00037734,-0.00094537,-0.0
 0162213,0.00113178,0.00085438,0.05736821,-0.09762609,-0.00526944,0.027
 64296,0.00208799,-0.01294730,-0.04946153,0.00579962,0.00778918,-0.0009
 7620,0.00042785,0.00335837,0.00800161,-0.00531030,0.00315378,0.0153205
 0,0.00599771,-0.01868947,-0.05701602,0.09072983,0.00295136,-0.00112927
 ,-0.00269814,-0.00121168,-0.00114579,0.00138781,0.04053738,-0.00778483
 ,-0.08737515,-0.00740922,0.00159144,0.00459703,0.00986899,0.00514982,0
 .01206650,-0.00146809,0.00111670,0.00398951,-0.00440755,0.00220110,-0.
 00009054,0.05768163,-0.02374363,-0.04050497,-0.09609733,0.01929519,0.1
 0859636,-0.12420119,0.03820401,0.08671797,-0.05300089,0.01275112,0.065
 53318,-0.00576657,0.00385991,0.00020964,0.01065403,0.02185219,0.000208
 39,0.00069341,-0.00145209,0.00031715,-0.00828564,-0.00711172,-0.002086
 42,-0.00242851,-0.00201524,0.00021848,0.00082699,-0.00116766,-0.000117
 76,0.00389927,-0.00093853,-0.00106382,0.31765598,0.07058459,-0.2430024
 0,-0.17166524,0.01896956,0.03629720,-0.00666984,0.01000279,-0.00337228
 ,-0.00174475,-0.00453548,-0.01311295,-0.01037808,-0.00114167,0.0024138
 1,-0.00033952,-0.00239773,0.00554812,0.01111322,0.00234581,0.00301742,
 -0.00001443,-0.00100972,0.00118373,0.00130499,-0.00583117,-0.00132789,
 0.00414879,0.10649432,0.56390624,0.10657107,-0.14828360,-0.19892096,0.
 06546767,-0.00434936,-0.02823484,0.00489870,-0.00328988,0.00155323,-0.
 01516724,-0.01767795,-0.01565473,0.00008407,0.00352204,-0.00069753,0.0
 0021820,0.00398600,0.01120731,0.00292487,0.00283859,0.00092319,-0.0004
 4354,0.00078252,0.00001154,-0.00148601,0.00317408,-0.00102293,-0.13456
 558,0.23123509,0.27663054,0.02223093,0.01129132,0.00328306,-0.00553281
 ,0.00065275,-0.00302476,0.00418089,-0.00213895,0.00156821,-0.00312603,
 0.00625812,0.01497376,-0.00083746,0.00004289,-0.00039532,-0.00516884,-
 0.00469964,-0.00863484,0.00109008,-0.00114865,-0.00182747,-0.00080839,
 0.00051395,-0.00097640,-0.00269402,0.00007675,0.00061832,-0.14004688,-
 0.19348133,-0.02850221,0.13071251,-0.00532748,-0.03321573,-0.02595304,
 -0.00474664,0.00144531,0.00931769,-0.00374043,0.00136297,0.00210928,0.
 00447865,0.00719458,0.00252748,0.00044159,-0.00063555,-0.00006550,-0.0
 0569532,-0.00389115,-0.00185518,0.00036292,-0.00093640,-0.00037955,0.0
 0043585,-0.00042949,-0.00085888,0.00163437,-0.00228783,0.00030049,-0.1
 7047631,-0.35155099,-0.07193754,0.18263279,0.38294429,-0.00501319,-0.0
 3643578,0.00058105,-0.00747126,0.00342767,-0.00161338,0.00654221,0.001
 38774,-0.00315104,0.00665075,0.00294611,-0.00061149,-0.00122177,-0.000
 76290,-0.00002908,-0.00198007,-0.00042440,-0.00210500,-0.00132114,-0.0
 0036304,-0.00033173,-0.00066448,0.00019348,0.00090848,-0.00306748,0.00
 022660,0.00105451,-0.01537122,-0.05699024,-0.04579483,0.02291764,0.086
 79475,0.05109250\\-0.00002329,0.00000656,0.00004041,0.00008306,-0.0000
 3296,-0.00010189,0.00001009,0.00001221,0.00000198,-0.00001126,-0.00002
 796,-0.00000546,-0.00000153,-0.00000066,0.00000142,0.00000695,0.000030
 96,0.00002539,-0.00001543,-0.00001710,-0.00000866,-0.00000717,0.000004
 27,0.00000301,-0.00001497,-0.00000528,0.00002620,-0.00003339,0.0000271
 0,0.00000822,0.00000695,0.00000286,0.00000938\\\@
 The archive entry for this job was punched.


          EVOLUTION
 IN THE BEGINNING GOD MADE MAN.
 HE WORKED THE DIRT WITH HIS HANDS.
 THEN GOD DECIDED TO GIVE MAN SCIENCE,
 MAN SHOULD BE USEFUL (LIKE AN APPLIANCE.)
 BUT SOON MAN'S KNOWLEDGE GREW TOO GREAT,
 TO THE HEADING SCIENCE HE COULDN'T RELATE
 SO GOD SAID "LETS HAVE DIFFERENT FIELDS,
 WE'LL DIVIDE THEM UP, SEE WHAT IT YIELDS."
 ENTER PHYSICS, CHEMISTRY, BIO
 THEY SPRANG UP AROUND THE NILE.
 BUT CHEMISTRY SURPASSED THE REST
 FAR AND AWAY IT WAS THE BEST.
 EXPERIMENT WAS GOD'S DECREE
 EXPERIMENT DID CHEMISTS WITH LOTS OF GLEE
 BUT SOON THEIR TESTS BEGAN TO BOG,
 THEY FOUND THEMSELVES DEEP IN A FOG.
 "GIVE US SOME HELP" THEY CRIED TO GOD.
 GOD LOOKED AROUND, THEN GAVE THE NOD.
 ENTER EINSTEIN, HEISENBERG, BOHR,
 REACTION PATHS WERE CLEAR ONCE MORE.
 WITH THEORISTS GOD SEND DIRECTION
 AND THEN HE STOPPED, HE'D MADE PERFECTION.
          -- THOMAS A. HOLME, 1981
 Job cpu time:       0 days  0 hours 26 minutes 55.4 seconds.
 Elapsed time:       0 days  0 hours  3 minutes 27.3 seconds.
 File lengths (MBytes):  RWF=    116 Int=      0 D2E=      0 Chk=      9 Scr=      1
 Normal termination of Gaussian 16 at Sat May 24 05:03:27 2025.
done
