11
energy = -764.4062159189999
C 0.93836600 0.27793100 0.25791300
O 0.19770800 -0.38088800 -0.47254400
C 1.48009000 1.45747500 -0.27829200
C 1.07455100 2.16657600 -1.57030700
F 0.74688600 3.41841600 -1.22821100
F 2.11983800 2.22249700 -2.37725500
F 0.05812400 1.61682100 -2.18005600
F 1.67977400 -0.74748800 -1.61159800
F 2.42017000 2.07436900 0.34214800
O 1.44108400 -0.12795500 1.42700300
H 1.16070500 -1.04026800 1.57487200
11
energy = -764.4061953110001
C 1.57915300 0.22483000 0.16616800
O 1.94715000 -0.53985800 -0.72597000
C 1.11942600 1.49233400 -0.22738000
C 1.24723200 2.14455100 -1.60383900
F 1.87800300 3.30966300 -1.41387300
F 1.92484100 1.43403100 -2.46581100
F 0.03839600 2.40452800 -2.07084600
F 0.15595000 -0.61669000 -1.37076900
F 0.52537800 2.25315400 0.61963300
O 1.37729700 -0.10933600 1.44358300
H 1.52446900 -1.05972000 1.53277700
11
energy = -764.40621591
C 0.94449600 0.27970700 0.26148800
O 0.21053800 -0.38989700 -0.46590400
C 1.47549900 1.46148400 -0.28054400
C 1.06426900 2.15991700 -1.57658200
F 0.72477100 3.41047400 -1.24137600
F 2.10950800 2.22123800 -2.38319500
F 0.05338000 1.59750800 -2.18400300
F 1.69686600 -0.74864200 -1.60197600
F 2.40927800 2.09041300 0.33732100
O 1.45018100 -0.11525400 1.43303700
H 1.17851100 -1.02946200 1.58540700
11
energy = -764.4062166220002
C 0.93974700 0.27827400 0.25866100
O 0.19799700 -0.38105800 -0.47020600
C 1.48039300 1.45769400 -0.27895100
C 1.07277000 2.16609300 -1.57071300
F 0.74552900 3.41808400 -1.22877600
F 2.11676600 2.22166600 -2.37935600
F 0.05543000 1.61591700 -2.17856400
F 1.67847100 -0.74814600 -1.61130300
F 2.42123800 2.07508000 0.33983200
O 1.44443300 -0.12690200 1.42714700
H 1.16452400 -1.03921700 1.57590300
