11
energy = -764.480653717
C 1.52888100 0.11024000 -0.16298200
O 2.23211700 -0.61890900 0.54302100
C -0.01745500 0.00150700 -0.04097200
C 1.47682800 -0.47635800 -1.77526100
F 1.08867000 -1.74442700 -1.81867300
F 0.71549500 0.22404600 -2.61766100
F 2.72727200 -0.38996600 -2.17053700
F -0.54569200 -1.10224800 0.26120600
F -0.84733500 0.80053000 -0.56231000
O 1.79373700 1.47191300 -0.32769000
H 2.65481200 1.59381500 0.08889400
11
energy = -764.4806674340001
C 1.35503100 0.10302800 0.01623500
O 1.98975700 -0.64049200 0.77046300
C -0.18436500 -0.08642000 -0.09796600
C 1.56887900 -0.36883800 -1.61990800
F 1.26457800 -1.64761900 -1.80077700
F 0.89709300 0.35285400 -2.51872900
F 2.85602200 -0.19489000 -1.82080800
F -0.68726200 -1.23242200 0.05142700
F -0.97457000 0.70858000 -0.68309800
O 1.56247400 1.48403300 -0.02064100
H 2.34652800 1.61664100 0.52479200
11
energy = -764.4806798510001
C 1.55483800 -0.00030100 0.00007100
O 2.14699700 -0.84969700 0.67272400
C -0.00025000 0.00069500 -0.00026000
C 1.58894600 -0.41548800 -1.66483600
F 1.11656500 -1.63831600 -1.87039700
F 0.94796700 0.42381600 -2.48005800
F 2.86970200 -0.38817900 -1.95871300
F -0.62716300 -1.08293100 0.14585600
F -0.72814100 0.91011800 -0.49214300
O 1.92685500 1.34623100 0.00080000
H 2.75981900 1.35763500 0.48649200
