 Entering Gaussian System, Link 0=g16
 Initial command:
 /apps/easybuild-2022/easybuild/software/Compiler/NVHPC/22.11-CUDA-11.7.0/Gaussian/g16c01-CUDA-11.7.0/g16/l1.exe "/tmp/Gau-233937.inp" -scrdir="/tmp/"
 Entering Link 1 = /apps/easybuild-2022/easybuild/software/Compiler/NVHPC/22.11-CUDA-11.7.0/Gaussian/g16c01-CUDA-11.7.0/g16/l1.exe PID=    233939.
  
 Copyright (c) 1988-2019, Gaussian, Inc.  All Rights Reserved.
  
 This is part of the Gaussian(R) 16 program.  It is based on
 the Gaussian(R) 09 system (copyright 2009, Gaussian, Inc.),
 the Gaussian(R) 03 system (copyright 2003, Gaussian, Inc.),
 the Gaussian(R) 98 system (copyright 1998, Gaussian, Inc.),
 the Gaussian(R) 94 system (copyright 1995, Gaussian, Inc.),
 the Gaussian 92(TM) system (copyright 1992, Gaussian, Inc.),
 the Gaussian 90(TM) system (copyright 1990, Gaussian, Inc.),
 the Gaussian 88(TM) system (copyright 1988, Gaussian, Inc.),
 the Gaussian 86(TM) system (copyright 1986, Carnegie Mellon
 University), and the Gaussian 82(TM) system (copyright 1983,
 Carnegie Mellon University). Gaussian is a federally registered
 trademark of Gaussian, Inc.
  
 This software contains proprietary and confidential information,
 including trade secrets, belonging to Gaussian, Inc.
  
 This software is provided under written license and may be
 used, copied, transmitted, or stored only in accord with that
 written license.
  
 The following legend is applicable only to US Government
 contracts under FAR:
  
                    RESTRICTED RIGHTS LEGEND
  
 Use, reproduction and disclosure by the US Government is
 subject to restrictions as set forth in subparagraphs (a)
 and (c) of the Commercial Computer Software - Restricted
 Rights clause in FAR 52.227-19.
  
 Gaussian, Inc.
 340 Quinnipiac St., Bldg. 40, Wallingford CT 06492
  
  
 ---------------------------------------------------------------
 Warning -- This program may not be used in any manner that
 competes with the business of Gaussian, Inc. or will provide
 assistance to any competitor of Gaussian, Inc.  The licensee
 of this program is prohibited from giving any competitor of
 Gaussian, Inc. access to this program.  By using this program,
 the user acknowledges that Gaussian, Inc. is engaged in the
 business of creating and licensing software in the field of
 computational chemistry and represents and warrants to the
 licensee that it is not a competitor of Gaussian, Inc. and that
 it will not use this program in any manner prohibited above.
 ---------------------------------------------------------------
  

 Cite this work as:
 Gaussian 16, Revision C.01,
 M. J. Frisch, G. W. Trucks, H. B. Schlegel, G. E. Scuseria, 
 M. A. Robb, J. R. Cheeseman, G. Scalmani, V. Barone, 
 G. A. Petersson, H. Nakatsuji, X. Li, M. Caricato, A. V. Marenich, 
 J. Bloino, B. G. Janesko, R. Gomperts, B. Mennucci, H. P. Hratchian, 
 J. V. Ortiz, A. F. Izmaylov, J. L. Sonnenberg, D. Williams-Young, 
 F. Ding, F. Lipparini, F. Egidi, J. Goings, B. Peng, A. Petrone, 
 T. Henderson, D. Ranasinghe, V. G. Zakrzewski, J. Gao, N. Rega, 
 G. Zheng, W. Liang, M. Hada, M. Ehara, K. Toyota, R. Fukuda, 
 J. Hasegawa, M. Ishida, T. Nakajima, Y. Honda, O. Kitao, H. Nakai, 
 T. Vreven, K. Throssell, J. A. Montgomery, Jr., J. E. Peralta, 
 F. Ogliaro, M. J. Bearpark, J. J. Heyd, E. N. Brothers, K. N. Kudin, 
 V. N. Staroverov, T. A. Keith, R. Kobayashi, J. Normand, 
 K. Raghavachari, A. P. Rendell, J. C. Burant, S. S. Iyengar, 
 J. Tomasi, M. Cossi, J. M. Millam, M. Klene, C. Adamo, R. Cammi, 
 J. W. Ochterski, R. L. Martin, K. Morokuma, O. Farkas, 
 J. B. Foresman, and D. J. Fox, Gaussian, Inc., Wallingford CT, 2019.
 
 ******************************************
 Gaussian 16:  ES64L-G16RevC.01  3-Jul-2019
                24-May-2025 
 ******************************************
 %mem=28GB
 %nprocshared=8
 Will use up to    8 processors via shared memory.
 ----------------------------------------------------------------------
 #P M062X/Def2TZVPP Symm(None) scf(xqc) pop(None) opt(NoFreeze,TS,CalcA
 ll,NoEigentest,MaxCycle=999)
 ----------------------------------------------------------------------
 1/5=1,6=999,10=4,11=1,18=20,26=3,29=2000,38=1/1,3;
 2/9=110,12=2,15=3,17=6,18=5,40=1/2;
 3/5=44,7=202,11=2,25=1,30=1,71=2,74=-55,140=1/1,2,3;
 4//1;
 5/5=2,8=3,13=1,38=5/2,8;
 8/6=4,10=90,11=11/1;
 11/6=1,8=1,9=11,15=111,16=1,31=1/1,2,10;
 10/6=1,31=1/2;
 7/10=1,25=1,30=1/1,2,3,16;
 1/5=1,6=999,10=4,11=1,18=20,26=3/3(3);
 2/9=110,15=3/2;
 7/8=1,9=1,25=1,30=1,44=-1/16;
 99//99;
 2/9=110,15=3/2;
 3/5=44,7=202,11=2,25=1,30=1,71=2,74=-55,140=1/1,2,3;
 4/5=5,16=3,69=1/1;
 5/5=2,8=3,13=1,38=5/2,8;
 8/6=4,10=90,11=11/1;
 11/6=1,8=1,9=11,15=111,16=1,31=1/1,2,10;
 10/6=1,31=1/2;
 7/10=1,25=1,30=1/1,2,3,16;
 1/5=1,6=999,10=4,11=1,18=20,26=3/3(-8);
 2/9=110,15=3/2;
 7/8=1,9=1,25=1,30=1,44=-1/16;
 99//99;
 Leave Link    1 at Sat May 24 07:33:25 2025, MaxMem=  3758096384 cpu:               0.0 elap:               0.0
 (Enter /apps/easybuild-2022/easybuild/software/Compiler/NVHPC/22.11-CUDA-11.7.0/Gaussian/g16c01-CUDA-11.7.0/g16/l101.exe)
 ------------------------------
 Gaussian input prepared by ASE
 ------------------------------
 Symbolic Z-matrix:
 Charge =  0 Multiplicity = 1
 C                     2.16284   1.09274  -0.09778 
 O                     1.14143   1.71117   0.27159 
 C                     1.98759  -0.34043  -0.04622 
 C                    -0.22774   0.4753    0.0198 
 F                    -0.59306  -0.7686   -0.15558 
 F                    -0.70652   0.90314   1.1699 
 F                    -0.56676   1.18184  -1.01859 
 F                     2.25562  -1.10811  -1.11389 
 F                     2.46019  -1.00289   1.03675 
 O                     3.26246   1.73457  -0.38631 
 H                     3.15238   2.6917   -0.29368 
 
 Add virtual bond connecting atoms C4         and O2         Dist= 3.52D+00.
 ITRead=  0  0  0  0  0  0  0  0  0  0  0
 MicOpt= -1 -1 -1 -1 -1 -1 -1 -1 -1 -1 -1
 NAtoms=     11 NQM=       11 NQMF=       0 NMMI=      0 NMMIF=      0
                NMic=       0 NMicF=      0.
                    Isotopes and Nuclear Properties:
 (Nuclear quadrupole moments (NQMom) in fm**2, nuclear magnetic moments (NMagM)
  in nuclear magnetons)

  Atom         1           2           3           4           5           6           7           8           9          10
 IAtWgt=          12          16          12          12          19          19          19          19          19          16
 AtmWgt=  12.0000000  15.9949146  12.0000000  12.0000000  18.9984032  18.9984032  18.9984032  18.9984032  18.9984032  15.9949146
 NucSpn=           0           0           0           0           1           1           1           1           1           0
 AtZEff=  -0.0000000  -0.0000000  -0.0000000  -0.0000000  -0.0000000  -0.0000000  -0.0000000  -0.0000000  -0.0000000  -0.0000000
 NQMom=    0.0000000   0.0000000   0.0000000   0.0000000   0.0000000   0.0000000   0.0000000   0.0000000   0.0000000   0.0000000
 NMagM=    0.0000000   0.0000000   0.0000000   0.0000000   2.6288670   2.6288670   2.6288670   2.6288670   2.6288670   0.0000000
 AtZNuc=   6.0000000   8.0000000   6.0000000   6.0000000   9.0000000   9.0000000   9.0000000   9.0000000   9.0000000   8.0000000

  Atom        11
 IAtWgt=           1
 AtmWgt=   1.0078250
 NucSpn=           1
 AtZEff=  -0.0000000
 NQMom=    0.0000000
 NMagM=    2.7928460
 AtZNuc=   1.0000000
 Leave Link  101 at Sat May 24 07:33:25 2025, MaxMem=  3758096384 cpu:               0.2 elap:               0.2
 (Enter /apps/easybuild-2022/easybuild/software/Compiler/NVHPC/22.11-CUDA-11.7.0/Gaussian/g16c01-CUDA-11.7.0/g16/l103.exe)

 GradGradGradGradGradGradGradGradGradGradGradGradGradGradGradGradGradGrad
 Berny optimization.
 Initialization pass.
                           ----------------------------
                           !    Initial Parameters    !
                           ! (Angstroms and Degrees)  !
 --------------------------                            --------------------------
 ! Name  Definition              Value          Derivative Info.                !
 --------------------------------------------------------------------------------
 ! R1    R(1,2)                  1.2499         calculate D2E/DX2 analytically  !
 ! R2    R(1,3)                  1.4448         calculate D2E/DX2 analytically  !
 ! R3    R(1,10)                 1.3055         calculate D2E/DX2 analytically  !
 ! R4    R(2,4)                  1.8616         calculate D2E/DX2 analytically  !
 ! R5    R(3,8)                  1.3421         calculate D2E/DX2 analytically  !
 ! R6    R(3,9)                  1.3546         calculate D2E/DX2 analytically  !
 ! R7    R(4,5)                  1.3082         calculate D2E/DX2 analytically  !
 ! R8    R(4,6)                  1.3172         calculate D2E/DX2 analytically  !
 ! R9    R(4,7)                  1.3009         calculate D2E/DX2 analytically  !
 ! R10   R(10,11)                0.9679         calculate D2E/DX2 analytically  !
 ! A1    A(2,1,3)              112.4047         calculate D2E/DX2 analytically  !
 ! A2    A(2,1,10)             120.6892         calculate D2E/DX2 analytically  !
 ! A3    A(3,1,10)             126.7092         calculate D2E/DX2 analytically  !
 ! A4    A(1,2,4)              103.4499         calculate D2E/DX2 analytically  !
 ! A5    A(1,3,8)              120.9845         calculate D2E/DX2 analytically  !
 ! A6    A(1,3,9)              118.1203         calculate D2E/DX2 analytically  !
 ! A7    A(8,3,9)              106.6543         calculate D2E/DX2 analytically  !
 ! A8    A(2,4,5)              148.7325         calculate D2E/DX2 analytically  !
 ! A9    A(2,4,6)               86.193          calculate D2E/DX2 analytically  !
 ! A10   A(2,4,7)               86.5069         calculate D2E/DX2 analytically  !
 ! A11   A(5,4,6)              108.9282         calculate D2E/DX2 analytically  !
 ! A12   A(5,4,7)              109.671          calculate D2E/DX2 analytically  !
 ! A13   A(6,4,7)              115.202          calculate D2E/DX2 analytically  !
 ! A14   A(1,10,11)            111.668          calculate D2E/DX2 analytically  !
 ! D1    D(3,1,2,4)            -22.3514         calculate D2E/DX2 analytically  !
 ! D2    D(10,1,2,4)           162.4172         calculate D2E/DX2 analytically  !
 ! D3    D(2,1,3,8)            127.7406         calculate D2E/DX2 analytically  !
 ! D4    D(2,1,3,9)            -97.8366         calculate D2E/DX2 analytically  !
 ! D5    D(10,1,3,8)           -57.3754         calculate D2E/DX2 analytically  !
 ! D6    D(10,1,3,9)            77.0474         calculate D2E/DX2 analytically  !
 ! D7    D(2,1,10,11)           -1.3035         calculate D2E/DX2 analytically  !
 ! D8    D(3,1,10,11)         -175.8022         calculate D2E/DX2 analytically  !
 ! D9    D(1,2,4,5)             17.7805         calculate D2E/DX2 analytically  !
 ! D10   D(1,2,4,6)            138.8966         calculate D2E/DX2 analytically  !
 ! D11   D(1,2,4,7)           -105.5337         calculate D2E/DX2 analytically  !
 --------------------------------------------------------------------------------
 Trust Radius=3.00D-01 FncErr=1.00D-07 GrdErr=1.00D-06 EigMax=2.50D+02 EigMin=1.00D-04
 Number of steps in this run=    100 maximum allowed number of steps=    100.
 Search for a saddle point of order  1.
 GradGradGradGradGradGradGradGradGradGradGradGradGradGradGradGradGradGrad

 Leave Link  103 at Sat May 24 07:33:25 2025, MaxMem=  3758096384 cpu:               0.0 elap:               0.0
 (Enter /apps/easybuild-2022/easybuild/software/Compiler/NVHPC/22.11-CUDA-11.7.0/Gaussian/g16c01-CUDA-11.7.0/g16/l202.exe)
                          Input orientation:                          
 ---------------------------------------------------------------------
 Center     Atomic      Atomic             Coordinates (Angstroms)
 Number     Number       Type             X           Y           Z
 ---------------------------------------------------------------------
      1          6           0        2.162844    1.092736   -0.097785
      2          8           0        1.141429    1.711169    0.271588
      3          6           0        1.987590   -0.340428   -0.046216
      4          6           0       -0.227740    0.475301    0.019796
      5          9           0       -0.593061   -0.768597   -0.155585
      6          9           0       -0.706522    0.903138    1.169899
      7          9           0       -0.566759    1.181837   -1.018592
      8          9           0        2.255620   -1.108110   -1.113894
      9          9           0        2.460189   -1.002886    1.036746
     10          8           0        3.262459    1.734575   -0.386305
     11          1           0        3.152376    2.691704   -0.293677
 ---------------------------------------------------------------------
                    Distance matrix (angstroms):
                    1          2          3          4          5
     1  C    0.000000
     2  O    1.249874   0.000000
     3  C    1.444761   2.241883   0.000000
     4  C    2.471830   1.861556   2.361664   0.000000
     5  F    3.326096   3.056170   2.618215   1.308243   0.000000
     6  F    3.142647   2.207895   3.206810   1.317199   2.136464
     7  F    2.882110   2.205145   3.128499   1.300914   2.132995
     8  F    2.425862   3.333064   1.342055   3.155870   3.024666
     9  F    2.401500   3.112987   1.354623   3.231746   3.286164
    10  O    1.305509   2.220842   2.458982   3.732582   4.602622
    11  H    1.890567   2.307570   3.257574   4.054120   5.101083
                    6          7          8          9         10
     6  F    0.000000
     7  F    2.210588   0.000000
     8  F    4.246777   3.635762   0.000000
     9  F    3.698474   4.261436   2.162908   0.000000
    10  O    4.343485   3.920231   3.102252   3.187852   0.000000
    11  H    4.498012   4.078868   3.989425   3.987372   0.967881
                   11
    11  H    0.000000
 Symmetry turned off by external request.
 Stoichiometry    C3HF5O2
 Rotational constants (GHZ):           1.7680273           1.1237278           0.9186510
 Leave Link  202 at Sat May 24 07:33:25 2025, MaxMem=  3758096384 cpu:               0.0 elap:               0.0
 (Enter /apps/easybuild-2022/easybuild/software/Compiler/NVHPC/22.11-CUDA-11.7.0/Gaussian/g16c01-CUDA-11.7.0/g16/l301.exe)
 Standard basis: def2TZVPP (5D, 7F)
 Ernie: Thresh=  0.10000D-02 Tol=  0.10000D-05 Strict=F.
   324 basis functions,   527 primitive gaussians,   375 cartesian basis functions
    40 alpha electrons       40 beta electrons
       nuclear repulsion energy       619.1002876734 Hartrees.
 IExCor= 4336 DFT=T Ex+Corr=M062X ExCW=0 ScaHFX=  0.540000
 ScaDFX=  1.000000  1.000000  1.000000  1.000000 ScalE2=  1.000000  1.000000
 IRadAn=      5 IRanWt=     -1 IRanGd=            0 ICorTp=0 IEmpDi=  4
 NAtoms=   11 NActive=   11 NUniq=   11 SFac= 1.00D+00 NAtFMM=   60 NAOKFM=F Big=F
 Integral buffers will be    131072 words long.
 Raffenetti 2 integral format.
 Two-electron integral symmetry is turned off.
 Leave Link  301 at Sat May 24 07:33:25 2025, MaxMem=  3758096384 cpu:               0.0 elap:               0.0
 (Enter /apps/easybuild-2022/easybuild/software/Compiler/NVHPC/22.11-CUDA-11.7.0/Gaussian/g16c01-CUDA-11.7.0/g16/l302.exe)
 NPDir=0 NMtPBC=     1 NCelOv=     1 NCel=       1 NClECP=     1 NCelD=      1
         NCelK=      1 NCelE2=     1 NClLst=     1 CellRange=     0.0.
 One-electron integrals computed using PRISM.
   1 Symmetry operations used in ECPInt.
 ECPInt:  NShTT=    6786 NPrTT=   21959 LenC2=    6412 LenP2D=   15605.
 LDataN:  DoStor=T MaxTD1= 6 Len=  172
 NBasis=   324 RedAO= T EigKep=  2.21D-04  NBF=   324
 NBsUse=   324 1.00D-06 EigRej= -1.00D+00 NBFU=   324
 Precomputing XC quadrature grid using
 IXCGrd= 4 IRadAn=           5 IRanWt=          -1 IRanGd=           0 AccXCQ= 0.00D+00.
 Generated NRdTot=       0 NPtTot=           0 NUsed=           0 NTot=          32
 NSgBfM=   371   370   371   371   371 MxSgAt=    11 MxSgA2=    11.
 Leave Link  302 at Sat May 24 07:33:25 2025, MaxMem=  3758096384 cpu:               0.6 elap:               0.1
 (Enter /apps/easybuild-2022/easybuild/software/Compiler/NVHPC/22.11-CUDA-11.7.0/Gaussian/g16c01-CUDA-11.7.0/g16/l303.exe)
 DipDrv:  MaxL=1.
 Leave Link  303 at Sat May 24 07:33:25 2025, MaxMem=  3758096384 cpu:               0.1 elap:               0.0
 (Enter /apps/easybuild-2022/easybuild/software/Compiler/NVHPC/22.11-CUDA-11.7.0/Gaussian/g16c01-CUDA-11.7.0/g16/l401.exe)
 ExpMin= 9.52D-02 ExpMax= 3.55D+04 ExpMxC= 1.21D+03 IAcc=3 IRadAn=         5 AccDes= 0.00D+00
 Harris functional with IExCor= 1009 and IRadAn=       5 diagonalized for initial guess.
 HarFok:  IExCor= 1009 AccDes= 0.00D+00 IRadAn=         5 IDoV= 1 UseB2=F ITyADJ=14
 ICtDFT=  3500011 ScaDFX=  1.000000  1.000000  1.000000  1.000000
 FoFCou: FMM=F IPFlag=           0 FMFlag=      100000 FMFlg1=           0
         NFxFlg=           0 DoJE=T BraDBF=F KetDBF=T FulRan=T
         wScrn=  0.000000 ICntrl=       500 IOpCl=  0 I1Cent=   200000004 NGrid=           0
         NMat0=    1 NMatS0=      1 NMatT0=    0 NMatD0=    1 NMtDS0=    0 NMtDT0=    0
 Symmetry not used in FoFCou.
 Harris En= -764.025300854473    
 JPrj=0 DoOrth=F DoCkMO=F.
 Leave Link  401 at Sat May 24 07:33:26 2025, MaxMem=  3758096384 cpu:               3.3 elap:               0.5
 (Enter /apps/easybuild-2022/easybuild/software/Compiler/NVHPC/22.11-CUDA-11.7.0/Gaussian/g16c01-CUDA-11.7.0/g16/l502.exe)
 Keep R1 ints in memory in canonical form, NReq=1412617130.
 FoFCou: FMM=F IPFlag=           0 FMFlag=           0 FMFlg1=           0
         NFxFlg=           0 DoJE=F BraDBF=F KetDBF=F FulRan=T
         wScrn=  0.000000 ICntrl=       600 IOpCl=  0 I1Cent=           0 NGrid=           0
         NMat0=    1 NMatS0=  52650 NMatT0=    0 NMatD0=    1 NMtDS0=    0 NMtDT0=    0
 Symmetry not used in FoFCou.
 Two-electron integral symmetry not used.
 Closed shell SCF:
 Using DIIS extrapolation, IDIIS=  1040.
 NGot=  3758096384 LenX=  2371771924 LenY=  2371630858
 Requested convergence on RMS density matrix=1.00D-08 within  32 cycles.
 Requested convergence on MAX density matrix=1.00D-06.
 Requested convergence on             energy=1.00D-06.
 No special actions if energy rises.
 Integral accuracy reduced to 1.0D-05 until final iterations.

 Cycle   1  Pass 0  IDiag  1:
 E= -764.317099646476    
 DIIS: error= 2.13D-02 at cycle   1 NSaved=   1.
 NSaved= 1 IEnMin= 1 EnMin= -764.317099646476     IErMin= 1 ErrMin= 2.13D-02
 ErrMax= 2.13D-02  0.00D+00 EMaxC= 1.00D-01 BMatC= 3.15D-01 BMatP= 3.15D-01
 IDIUse=3 WtCom= 7.87D-01 WtEn= 2.13D-01
 Coeff-Com:  0.100D+01
 Coeff-En:   0.100D+01
 Coeff:      0.100D+01
 Gap=     0.243 Goal=   None    Shift=    0.000
 GapD=    0.243 DampG=1.000 DampE=0.500 DampFc=0.5000 IDamp=-1.
 Damping current iteration by 5.00D-01
 RMSDP=2.13D-03 MaxDP=1.66D-01              OVMax= 1.59D-01

 Cycle   2  Pass 0  IDiag  1:
 E= -764.381048076553     Delta-E=       -0.063948430077 Rises=F Damp=T
 DIIS: error= 8.94D-03 at cycle   2 NSaved=   2.
 NSaved= 2 IEnMin= 2 EnMin= -764.381048076553     IErMin= 2 ErrMin= 8.94D-03
 ErrMax= 8.94D-03  0.00D+00 EMaxC= 1.00D-01 BMatC= 3.39D-02 BMatP= 3.15D-01
 IDIUse=3 WtCom= 9.11D-01 WtEn= 8.94D-02
 Coeff-Com:  0.219D-02 0.998D+00
 Coeff-En:   0.139D+00 0.861D+00
 Coeff:      0.145D-01 0.986D+00
 Gap=     0.250 Goal=   None    Shift=    0.000
 RMSDP=7.56D-04 MaxDP=5.11D-02 DE=-6.39D-02 OVMax= 1.07D-01

 Cycle   3  Pass 0  IDiag  1:
 E= -764.464460458825     Delta-E=       -0.083412382272 Rises=F Damp=F
 DIIS: error= 3.85D-03 at cycle   3 NSaved=   3.
 NSaved= 3 IEnMin= 3 EnMin= -764.464460458825     IErMin= 3 ErrMin= 3.85D-03
 ErrMax= 3.85D-03  0.00D+00 EMaxC= 1.00D-01 BMatC= 7.51D-03 BMatP= 3.39D-02
 IDIUse=3 WtCom= 9.61D-01 WtEn= 3.85D-02
 Coeff-Com: -0.106D+00 0.280D+00 0.827D+00
 Coeff-En:   0.000D+00 0.000D+00 0.100D+01
 Coeff:     -0.102D+00 0.269D+00 0.833D+00
 Gap=     0.227 Goal=   None    Shift=    0.000
 RMSDP=2.78D-04 MaxDP=2.35D-02 DE=-8.34D-02 OVMax= 2.55D-02

 Cycle   4  Pass 0  IDiag  1:
 E= -764.468815623932     Delta-E=       -0.004355165107 Rises=F Damp=F
 DIIS: error= 1.89D-03 at cycle   4 NSaved=   4.
 NSaved= 4 IEnMin= 4 EnMin= -764.468815623932     IErMin= 4 ErrMin= 1.89D-03
 ErrMax= 1.89D-03  0.00D+00 EMaxC= 1.00D-01 BMatC= 1.60D-03 BMatP= 7.51D-03
 IDIUse=3 WtCom= 9.81D-01 WtEn= 1.89D-02
 Coeff-Com: -0.515D-01 0.105D+00 0.445D+00 0.501D+00
 Coeff-En:   0.000D+00 0.000D+00 0.847D-01 0.915D+00
 Coeff:     -0.505D-01 0.103D+00 0.438D+00 0.509D+00
 Gap=     0.226 Goal=   None    Shift=    0.000
 RMSDP=1.15D-04 MaxDP=5.25D-03 DE=-4.36D-03 OVMax= 1.40D-02

 Cycle   5  Pass 0  IDiag  1:
 E= -764.469768657990     Delta-E=       -0.000953034058 Rises=F Damp=F
 DIIS: error= 6.15D-04 at cycle   5 NSaved=   5.
 NSaved= 5 IEnMin= 5 EnMin= -764.469768657990     IErMin= 5 ErrMin= 6.15D-04
 ErrMax= 6.15D-04  0.00D+00 EMaxC= 1.00D-01 BMatC= 2.25D-04 BMatP= 1.60D-03
 IDIUse=3 WtCom= 9.94D-01 WtEn= 6.15D-03
 Coeff-Com: -0.194D-01 0.339D-01 0.179D+00 0.312D+00 0.495D+00
 Coeff-En:   0.000D+00 0.000D+00 0.000D+00 0.101D+00 0.899D+00
 Coeff:     -0.193D-01 0.337D-01 0.178D+00 0.311D+00 0.497D+00
 Gap=     0.227 Goal=   None    Shift=    0.000
 RMSDP=5.12D-05 MaxDP=4.91D-03 DE=-9.53D-04 OVMax= 6.32D-03

 Cycle   6  Pass 0  IDiag  1:
 E= -764.469948765447     Delta-E=       -0.000180107457 Rises=F Damp=F
 DIIS: error= 1.37D-04 at cycle   6 NSaved=   6.
 NSaved= 6 IEnMin= 6 EnMin= -764.469948765447     IErMin= 6 ErrMin= 1.37D-04
 ErrMax= 1.37D-04  0.00D+00 EMaxC= 1.00D-01 BMatC= 8.84D-06 BMatP= 2.25D-04
 IDIUse=3 WtCom= 9.99D-01 WtEn= 1.37D-03
 Coeff-Com: -0.129D-02 0.547D-03 0.157D-01 0.523D-01 0.178D+00 0.754D+00
 Coeff-En:   0.000D+00 0.000D+00 0.000D+00 0.000D+00 0.000D+00 0.100D+01
 Coeff:     -0.128D-02 0.547D-03 0.157D-01 0.522D-01 0.178D+00 0.755D+00
 Gap=     0.227 Goal=   None    Shift=    0.000
 RMSDP=2.43D-05 MaxDP=1.12D-03 DE=-1.80D-04 OVMax= 4.25D-03

 Cycle   7  Pass 0  IDiag  1:
 E= -764.469964569368     Delta-E=       -0.000015803921 Rises=F Damp=F
 DIIS: error= 6.69D-05 at cycle   7 NSaved=   7.
 NSaved= 7 IEnMin= 7 EnMin= -764.469964569368     IErMin= 7 ErrMin= 6.69D-05
 ErrMax= 6.69D-05  0.00D+00 EMaxC= 1.00D-01 BMatC= 3.99D-06 BMatP= 8.84D-06
 IDIUse=1 WtCom= 1.00D+00 WtEn= 0.00D+00
 Coeff-Com:  0.332D-02-0.675D-02-0.291D-01-0.436D-01-0.365D-01 0.417D+00
 Coeff-Com:  0.696D+00
 Coeff:      0.332D-02-0.675D-02-0.291D-01-0.436D-01-0.365D-01 0.417D+00
 Coeff:      0.696D+00
 Gap=     0.227 Goal=   None    Shift=    0.000
 RMSDP=1.14D-05 MaxDP=5.23D-04 DE=-1.58D-05 OVMax= 2.03D-03

 Cycle   8  Pass 0  IDiag  1:
 E= -764.469971737356     Delta-E=       -0.000007167987 Rises=F Damp=F
 DIIS: error= 1.95D-05 at cycle   8 NSaved=   8.
 NSaved= 8 IEnMin= 8 EnMin= -764.469971737356     IErMin= 8 ErrMin= 1.95D-05
 ErrMax= 1.95D-05  0.00D+00 EMaxC= 1.00D-01 BMatC= 3.71D-07 BMatP= 3.99D-06
 IDIUse=1 WtCom= 1.00D+00 WtEn= 0.00D+00
 Coeff-Com:  0.135D-02-0.226D-02-0.102D-01-0.229D-01-0.515D-01 0.110D-01
 Coeff-Com:  0.118D+00 0.956D+00
 Coeff:      0.135D-02-0.226D-02-0.102D-01-0.229D-01-0.515D-01 0.110D-01
 Coeff:      0.118D+00 0.956D+00
 Gap=     0.227 Goal=   None    Shift=    0.000
 RMSDP=9.53D-06 MaxDP=4.64D-04 DE=-7.17D-06 OVMax= 1.71D-03

 Initial convergence to 1.0D-05 achieved.  Increase integral accuracy.
 Cycle   9  Pass 1  IDiag  1:
 E= -764.469995068789     Delta-E=       -0.000023331433 Rises=F Damp=F
 DIIS: error= 2.13D-05 at cycle   1 NSaved=   1.
 NSaved= 1 IEnMin= 1 EnMin= -764.469995068789     IErMin= 1 ErrMin= 2.13D-05
 ErrMax= 2.13D-05  0.00D+00 EMaxC= 1.00D-01 BMatC= 6.59D-07 BMatP= 6.59D-07
 IDIUse=1 WtCom= 1.00D+00 WtEn= 0.00D+00
 Coeff-Com:  0.100D+01
 Coeff:      0.100D+01
 Gap=     0.227 Goal=   None    Shift=    0.000
 RMSDP=9.53D-06 MaxDP=4.64D-04 DE=-2.33D-05 OVMax= 7.47D-04

 Cycle  10  Pass 1  IDiag  1:
 E= -764.469995911054     Delta-E=       -0.000000842265 Rises=F Damp=F
 DIIS: error= 1.43D-05 at cycle   2 NSaved=   2.
 NSaved= 2 IEnMin= 2 EnMin= -764.469995911054     IErMin= 2 ErrMin= 1.43D-05
 ErrMax= 1.43D-05  0.00D+00 EMaxC= 1.00D-01 BMatC= 1.60D-07 BMatP= 6.59D-07
 IDIUse=1 WtCom= 1.00D+00 WtEn= 0.00D+00
 Coeff-Com:  0.214D+00 0.786D+00
 Coeff:      0.214D+00 0.786D+00
 Gap=     0.227 Goal=   None    Shift=    0.000
 RMSDP=3.37D-06 MaxDP=1.30D-04 DE=-8.42D-07 OVMax= 5.91D-04

 Cycle  11  Pass 1  IDiag  1:
 E= -764.469996053220     Delta-E=       -0.000000142166 Rises=F Damp=F
 DIIS: error= 1.67D-05 at cycle   3 NSaved=   3.
 NSaved= 3 IEnMin= 3 EnMin= -764.469996053220     IErMin= 2 ErrMin= 1.43D-05
 ErrMax= 1.67D-05  0.00D+00 EMaxC= 1.00D-01 BMatC= 1.96D-07 BMatP= 1.60D-07
 IDIUse=1 WtCom= 1.00D+00 WtEn= 0.00D+00
 Coeff-Com: -0.478D-01 0.542D+00 0.506D+00
 Coeff:     -0.478D-01 0.542D+00 0.506D+00
 Gap=     0.227 Goal=   None    Shift=    0.000
 RMSDP=1.78D-06 MaxDP=6.28D-05 DE=-1.42D-07 OVMax= 3.12D-04

 Cycle  12  Pass 1  IDiag  1:
 E= -764.469996286516     Delta-E=       -0.000000233296 Rises=F Damp=F
 DIIS: error= 3.82D-06 at cycle   4 NSaved=   4.
 NSaved= 4 IEnMin= 4 EnMin= -764.469996286516     IErMin= 4 ErrMin= 3.82D-06
 ErrMax= 3.82D-06  0.00D+00 EMaxC= 1.00D-01 BMatC= 1.63D-08 BMatP= 1.60D-07
 IDIUse=1 WtCom= 1.00D+00 WtEn= 0.00D+00
 Coeff-Com: -0.455D-01 0.217D+00 0.238D+00 0.590D+00
 Coeff:     -0.455D-01 0.217D+00 0.238D+00 0.590D+00
 Gap=     0.227 Goal=   None    Shift=    0.000
 RMSDP=9.45D-07 MaxDP=4.14D-05 DE=-2.33D-07 OVMax= 1.75D-04

 Cycle  13  Pass 1  IDiag  1:
 E= -764.469996333801     Delta-E=       -0.000000047285 Rises=F Damp=F
 DIIS: error= 3.07D-06 at cycle   5 NSaved=   5.
 NSaved= 5 IEnMin= 5 EnMin= -764.469996333801     IErMin= 5 ErrMin= 3.07D-06
 ErrMax= 3.07D-06  0.00D+00 EMaxC= 1.00D-01 BMatC= 5.86D-09 BMatP= 1.63D-08
 IDIUse=1 WtCom= 1.00D+00 WtEn= 0.00D+00
 Coeff-Com:  0.192D-01-0.339D+00-0.353D+00 0.237D+00 0.144D+01
 Coeff:      0.192D-01-0.339D+00-0.353D+00 0.237D+00 0.144D+01
 Gap=     0.227 Goal=   None    Shift=    0.000
 RMSDP=2.25D-06 MaxDP=1.19D-04 DE=-4.73D-08 OVMax= 4.17D-04

 Cycle  14  Pass 1  IDiag  1:
 E= -764.469996389493     Delta-E=       -0.000000055692 Rises=F Damp=F
 DIIS: error= 8.85D-07 at cycle   6 NSaved=   6.
 NSaved= 6 IEnMin= 6 EnMin= -764.469996389493     IErMin= 6 ErrMin= 8.85D-07
 ErrMax= 8.85D-07  0.00D+00 EMaxC= 1.00D-01 BMatC= 6.71D-10 BMatP= 5.86D-09
 IDIUse=1 WtCom= 1.00D+00 WtEn= 0.00D+00
 Coeff-Com:  0.121D-01-0.151D+00-0.168D+00 0.170D-01 0.521D+00 0.768D+00
 Coeff:      0.121D-01-0.151D+00-0.168D+00 0.170D-01 0.521D+00 0.768D+00
 Gap=     0.227 Goal=   None    Shift=    0.000
 RMSDP=4.74D-07 MaxDP=2.33D-05 DE=-5.57D-08 OVMax= 9.13D-05

 Cycle  15  Pass 1  IDiag  1:
 E= -764.469996392624     Delta-E=       -0.000000003131 Rises=F Damp=F
 DIIS: error= 4.38D-07 at cycle   7 NSaved=   7.
 NSaved= 7 IEnMin= 7 EnMin= -764.469996392624     IErMin= 7 ErrMin= 4.38D-07
 ErrMax= 4.38D-07  0.00D+00 EMaxC= 1.00D-01 BMatC= 1.39D-10 BMatP= 6.71D-10
 IDIUse=1 WtCom= 1.00D+00 WtEn= 0.00D+00
 Coeff-Com:  0.447D-03 0.170D-01 0.127D-01-0.420D-01-0.116D+00 0.327D+00
 Coeff-Com:  0.800D+00
 Coeff:      0.447D-03 0.170D-01 0.127D-01-0.420D-01-0.116D+00 0.327D+00
 Coeff:      0.800D+00
 Gap=     0.227 Goal=   None    Shift=    0.000
 RMSDP=1.58D-07 MaxDP=1.14D-05 DE=-3.13D-09 OVMax= 2.67D-05

 Cycle  16  Pass 1  IDiag  1:
 E= -764.469996392912     Delta-E=       -0.000000000287 Rises=F Damp=F
 DIIS: error= 1.05D-07 at cycle   8 NSaved=   8.
 NSaved= 8 IEnMin= 8 EnMin= -764.469996392912     IErMin= 8 ErrMin= 1.05D-07
 ErrMax= 1.05D-07  0.00D+00 EMaxC= 1.00D-01 BMatC= 8.66D-12 BMatP= 1.39D-10
 IDIUse=1 WtCom= 1.00D+00 WtEn= 0.00D+00
 Coeff-Com: -0.107D-02 0.205D-01 0.213D-01-0.169D-01-0.964D-01 0.462D-01
 Coeff-Com:  0.244D+00 0.783D+00
 Coeff:     -0.107D-02 0.205D-01 0.213D-01-0.169D-01-0.964D-01 0.462D-01
 Coeff:      0.244D+00 0.783D+00
 Gap=     0.227 Goal=   None    Shift=    0.000
 RMSDP=3.96D-08 MaxDP=3.27D-06 DE=-2.87D-10 OVMax= 6.33D-06

 Cycle  17  Pass 1  IDiag  1:
 E= -764.469996392903     Delta-E=        0.000000000009 Rises=F Damp=F
 DIIS: error= 4.22D-08 at cycle   9 NSaved=   9.
 NSaved= 9 IEnMin= 8 EnMin= -764.469996392912     IErMin= 9 ErrMin= 4.22D-08
 ErrMax= 4.22D-08  0.00D+00 EMaxC= 1.00D-01 BMatC= 1.19D-12 BMatP= 8.66D-12
 IDIUse=1 WtCom= 1.00D+00 WtEn= 0.00D+00
 Coeff-Com: -0.322D-03 0.396D-02 0.530D-02-0.898D-03-0.176D-01-0.766D-02
 Coeff-Com: -0.142D-01 0.221D+00 0.810D+00
 Coeff:     -0.322D-03 0.396D-02 0.530D-02-0.898D-03-0.176D-01-0.766D-02
 Coeff:     -0.142D-01 0.221D+00 0.810D+00
 Gap=     0.227 Goal=   None    Shift=    0.000
 RMSDP=5.47D-09 MaxDP=4.80D-07 DE= 8.64D-12 OVMax= 7.05D-07

 SCF Done:  E(RM062X) =  -764.469996393     A.U. after   17 cycles
            NFock= 17  Conv=0.55D-08     -V/T= 2.0036
 KE= 7.617560405507D+02 PE=-3.051285435183D+03 EE= 9.059591105657D+02
 Leave Link  502 at Sat May 24 07:33:56 2025, MaxMem=  3758096384 cpu:             127.4 elap:              30.4
 (Enter /apps/easybuild-2022/easybuild/software/Compiler/NVHPC/22.11-CUDA-11.7.0/Gaussian/g16c01-CUDA-11.7.0/g16/l508.exe)
 QCSCF skips out because SCF is already converged.
 Leave Link  508 at Sat May 24 07:33:56 2025, MaxMem=  3758096384 cpu:               0.0 elap:               0.0
 (Enter /apps/easybuild-2022/easybuild/software/Compiler/NVHPC/22.11-CUDA-11.7.0/Gaussian/g16c01-CUDA-11.7.0/g16/l801.exe)
 DoSCS=F DFT=T ScalE2(SS,OS)=  1.000000  1.000000
 Range of M.O.s used for correlation:     1   324
 NBasis=   324 NAE=    40 NBE=    40 NFC=     0 NFV=     0
 NROrb=    324 NOA=    40 NOB=    40 NVA=   284 NVB=   284

 **** Warning!!: The largest alpha MO coefficient is  0.16804379D+02

 Leave Link  801 at Sat May 24 07:33:56 2025, MaxMem=  3758096384 cpu:               0.0 elap:               0.0
 (Enter /apps/easybuild-2022/easybuild/software/Compiler/NVHPC/22.11-CUDA-11.7.0/Gaussian/g16c01-CUDA-11.7.0/g16/l1101.exe)
 Using compressed storage, NAtomX=    11.
 Will process     12 centers per pass.
   1 Symmetry operations used in ECPInt.
 ECPInt:  NShTT=    6786 NPrTT=   21959 LenC2=    6412 LenP2D=   15605.
 LDataN:  DoStor=T MaxTD1= 7 Len=  274
 Leave Link 1101 at Sat May 24 07:33:56 2025, MaxMem=  3758096384 cpu:               0.9 elap:               0.2
 (Enter /apps/easybuild-2022/easybuild/software/Compiler/NVHPC/22.11-CUDA-11.7.0/Gaussian/g16c01-CUDA-11.7.0/g16/l1102.exe)
 Symmetrizing basis deriv contribution to polar:
 IMax=3 JMax=2 DiffMx= 0.00D+00
 Leave Link 1102 at Sat May 24 07:33:56 2025, MaxMem=  3758096384 cpu:               0.1 elap:               0.0
 (Enter /apps/easybuild-2022/easybuild/software/Compiler/NVHPC/22.11-CUDA-11.7.0/Gaussian/g16c01-CUDA-11.7.0/g16/l1110.exe)
 Forming Gx(P) for the SCF density, NAtomX=    11.
 Integral derivatives from FoFJK, PRISM(SPDF).
 Do as many integral derivatives as possible in FoFJK.
 G2DrvN: MDV=    3758095115.
 G2DrvN: will do    12 centers at a time, making    1 passes.
 Calling FoFCou, ICntrl=  3107 FMM=F I1Cent=   0 AccDes= 0.00D+00.
 FoFJK:  IHMeth= 1 ICntrl=    3107 DoSepK=F KAlg= 0 I1Cent=           0 FoldK=F
 IRaf=         0 NMat=       1 IRICut=       1 DoRegI=T DoRafI=F ISym2E= 0 IDoP0=0 IntGTp=1.
 FoFCou: FMM=F IPFlag=           0 FMFlag=      100000 FMFlg1=           0
         NFxFlg=           0 DoJE=F BraDBF=F KetDBF=F FulRan=T
         wScrn=  0.000000 ICntrl=      3107 IOpCl=  0 I1Cent=           0 NGrid=           0
         NMat0=    1 NMatS0=      1 NMatT0=    0 NMatD0=    1 NMtDS0=    0 NMtDT0=    0
 Symmetry not used in FoFCou.
 End of G2Drv F.D. properties file   721 does not exist.
 End of G2Drv F.D. properties file   722 does not exist.
 End of G2Drv F.D. properties file   788 does not exist.
 Leave Link 1110 at Sat May 24 07:34:38 2025, MaxMem=  3758096384 cpu:             328.5 elap:              41.4
 (Enter /apps/easybuild-2022/easybuild/software/Compiler/NVHPC/22.11-CUDA-11.7.0/Gaussian/g16c01-CUDA-11.7.0/g16/l1002.exe)
 Minotr:  Closed shell wavefunction.
          IDoAtm=11111111111
          Direct CPHF calculation.
          Differentiating once with respect to electric field.
                with respect to dipole field.
          Differentiating once with respect to nuclear coordinates.
          Requested convergence is 1.0D-08 RMS, and 1.0D-07 maximum.
          Secondary convergence is 1.0D-12 RMS, and 1.0D-12 maximum.
          NewPWx=T KeepS1=F KeepF1=F KeepIn=T MapXYZ=F SortEE=F KeepMc=T.
         3300 words used for storage of precomputed grid.
 Keep R1 ints in memory in canonical form, NReq=1412622530.
 FoFCou: FMM=F IPFlag=           0 FMFlag=           0 FMFlg1=           0
         NFxFlg=           0 DoJE=F BraDBF=F KetDBF=F FulRan=T
         wScrn=  0.000000 ICntrl=       600 IOpCl=  0 I1Cent=           0 NGrid=           0
         NMat0=    1 NMatS0=  52650 NMatT0=    0 NMatD0=    1 NMtDS0=    0 NMtDT0=    0
 Symmetry not used in FoFCou.
 Two-electron integral symmetry not used.
          MDV=    3758096384 using IRadAn=       1.
          Solving linear equations simultaneously, MaxMat=       0.
          There are    36 degrees of freedom in the 1st order CPHF.  IDoFFX=6 NUNeed=     3.
     33 vectors produced by pass  0 Test12= 3.16D-14 2.78D-09 XBig12= 5.35D+01 4.18D+00.
 AX will form    33 AO Fock derivatives at one time.
     33 vectors produced by pass  1 Test12= 3.16D-14 2.78D-09 XBig12= 1.24D+01 6.07D-01.
     33 vectors produced by pass  2 Test12= 3.16D-14 2.78D-09 XBig12= 3.08D-01 8.59D-02.
     33 vectors produced by pass  3 Test12= 3.16D-14 2.78D-09 XBig12= 6.40D-03 7.81D-03.
     33 vectors produced by pass  4 Test12= 3.16D-14 2.78D-09 XBig12= 1.18D-04 1.27D-03.
     33 vectors produced by pass  5 Test12= 3.16D-14 2.78D-09 XBig12= 1.29D-06 1.27D-04.
     33 vectors produced by pass  6 Test12= 3.16D-14 2.78D-09 XBig12= 6.34D-09 1.01D-05.
     16 vectors produced by pass  7 Test12= 3.16D-14 2.78D-09 XBig12= 3.07D-11 5.92D-07.
      3 vectors produced by pass  8 Test12= 3.16D-14 2.78D-09 XBig12= 1.48D-13 4.11D-08.
 InvSVY:  IOpt=1 It=  1 EMax= 3.11D-15
 Solved reduced A of dimension   250 with    36 vectors.
 FullF1:  Do perturbations      1 to       3.
 Isotropic polarizability for W=    0.000000       53.81 Bohr**3.
 End of Minotr F.D. properties file   721 does not exist.
 End of Minotr F.D. properties file   722 does not exist.
 End of Minotr F.D. properties file   788 does not exist.
 Leave Link 1002 at Sat May 24 07:35:44 2025, MaxMem=  3758096384 cpu:             519.0 elap:              66.0
 (Enter /apps/easybuild-2022/easybuild/software/Compiler/NVHPC/22.11-CUDA-11.7.0/Gaussian/g16c01-CUDA-11.7.0/g16/l701.exe)
 ... and contract with generalized density number  0.
 Compute integral second derivatives.
   1 Symmetry operations used in ECPInt.
 ECPInt:  NShTT=    6786 NPrTT=   21959 LenC2=    6412 LenP2D=   15605.
 LDataN:  DoStor=T MaxTD1= 8 Len=  415
 Leave Link  701 at Sat May 24 07:35:44 2025, MaxMem=  3758096384 cpu:               0.8 elap:               0.1
 (Enter /apps/easybuild-2022/easybuild/software/Compiler/NVHPC/22.11-CUDA-11.7.0/Gaussian/g16c01-CUDA-11.7.0/g16/l702.exe)
 L702 exits ... SP integral derivatives will be done elsewhere.
 Leave Link  702 at Sat May 24 07:35:44 2025, MaxMem=  3758096384 cpu:               0.0 elap:               0.0
 (Enter /apps/easybuild-2022/easybuild/software/Compiler/NVHPC/22.11-CUDA-11.7.0/Gaussian/g16c01-CUDA-11.7.0/g16/l703.exe)
 Integral derivatives from FoFJK, PRISM(SPDF).
 Compute integral second derivatives, UseDBF=F ICtDFT=           0.
 Calling FoFJK, ICntrl=    100127 FMM=F ISym2X=0 I1Cent= 0 IOpClX= 0 NMat=1 NMatS=1 NMatT=0.
 FoFJK:  IHMeth= 1 ICntrl=  100127 DoSepK=F KAlg= 0 I1Cent=           0 FoldK=F
 IRaf=         0 NMat=       1 IRICut=       1 DoRegI=T DoRafI=F ISym2E= 0 IDoP0=0 IntGTp=1.
 FoFCou: FMM=F IPFlag=           0 FMFlag=      100000 FMFlg1=         800
         NFxFlg=           0 DoJE=F BraDBF=F KetDBF=F FulRan=T
         wScrn=  0.000000 ICntrl=    100127 IOpCl=  0 I1Cent=           0 NGrid=           0
         NMat0=    1 NMatS0=      1 NMatT0=    0 NMatD0=    1 NMtDS0=    0 NMtDT0=    0
 Symmetry not used in FoFCou.
 Leave Link  703 at Sat May 24 07:37:17 2025, MaxMem=  3758096384 cpu:             739.9 elap:              93.1
 (Enter /apps/easybuild-2022/easybuild/software/Compiler/NVHPC/22.11-CUDA-11.7.0/Gaussian/g16c01-CUDA-11.7.0/g16/l716.exe)
 Dipole        = 6.05084734D-01 1.24568318D+00-1.99306342D-01
 Polarizability= 6.89269265D+01-4.15849437D+00 5.30265196D+01
                -2.95753409D+00 1.69903551D-01 3.94683039D+01
 -------------------------------------------------------------------
 Center     Atomic                   Forces (Hartrees/Bohr)
 Number     Number              X              Y              Z
 -------------------------------------------------------------------
      1        6          -0.026814180    0.067039041    0.031202611
      2        8           0.081445790    0.030383122   -0.013776654
      3        6          -0.060757466   -0.050311701   -0.002903138
      4        6           0.049830040   -0.045935658    0.016930371
      5        9          -0.032674330   -0.014938834   -0.004615170
      6        9          -0.013760335   -0.007636927   -0.009155766
      7        9          -0.014490378   -0.001794530   -0.004663656
      8        9           0.009444391    0.014570764    0.001022205
      9        9          -0.000445164    0.020574499   -0.008948599
     10        8           0.012587653   -0.010338406   -0.004612684
     11        1          -0.004366021   -0.001611369   -0.000479520
 -------------------------------------------------------------------
 Cartesian Forces:  Max     0.081445790 RMS     0.029148135
 Force constants in Cartesian coordinates: 
                1             2             3             4             5 
      1  0.742551D+00
      2  0.314803D-01  0.723038D+00
      3 -0.154107D+00  0.284237D-02  0.284892D+00
      4 -0.332793D+00  0.120840D+00  0.879280D-01  0.485513D+00
      5  0.187436D+00 -0.254049D+00 -0.742999D-01 -0.194396D+00  0.337990D+00
      6  0.954600D-01 -0.533889D-01 -0.123952D+00 -0.132091D+00  0.867602D-01
      7 -0.266167D-01  0.204303D-01 -0.639574D-02 -0.146079D-01  0.934506D-03
      8 -0.460122D-01 -0.283156D+00  0.189236D-01  0.327809D-01 -0.765849D-01
      9 -0.195444D-02  0.897578D-03 -0.635672D-01  0.630195D-02 -0.256642D-01
     10 -0.489747D-01 -0.275017D-01  0.126552D-01  0.168445D-01  0.796140D-02
     11 -0.705441D-01  0.798000D-01  0.214131D-01  0.762254D-01 -0.326887D-01
     12 -0.138264D-02  0.631071D-02  0.665798D-02  0.860866D-02  0.114117D-02
     13 -0.190152D-01  0.320480D-01  0.354375D-02  0.163648D-01 -0.860362D-02
     14 -0.105689D-01  0.177314D-01  0.160278D-02  0.663171D-02  0.753684D-03
     15 -0.340132D-02  0.521878D-02  0.192976D-03  0.258789D-02 -0.382363D-03
     16 -0.117810D-02 -0.148729D-02  0.817870D-03 -0.483014D-01 -0.135918D-01
     17  0.708966D-02 -0.139282D-01 -0.128923D-02 -0.310790D-01  0.349105D-02
     18  0.375132D-02 -0.117175D-02 -0.620264D-03  0.257245D-01  0.586129D-02
     19  0.354984D-02  0.525322D-02 -0.888192D-02 -0.410771D-01 -0.372283D-02
     20  0.109434D-01 -0.143558D-01 -0.339897D-02 -0.247807D-01  0.724100D-02
     21 -0.410779D-03  0.404580D-02 -0.588415D-02 -0.343085D-01 -0.350239D-02
     22 -0.141072D-01  0.131369D-02 -0.391776D-02  0.196183D-01  0.215035D-01
     23  0.225139D-01 -0.153297D-01 -0.385383D-01 -0.608625D-02 -0.163329D-01
     24  0.175754D-01 -0.179675D-01 -0.126199D-01 -0.185585D-01 -0.146124D-01
     25 -0.108599D-01 -0.174339D-01  0.721735D-02  0.863097D-02  0.212274D-01
     26  0.235081D-01 -0.139103D-01  0.337548D-01 -0.623268D-02 -0.604328D-02
     27 -0.168448D-01  0.218590D-01 -0.863655D-02  0.168983D-01  0.109220D-01
     28 -0.295768D+00 -0.115269D+00  0.632668D-01 -0.114348D+00 -0.248368D-01
     29 -0.145236D+00 -0.198284D+00  0.370449D-01  0.133252D-01  0.325337D-01
     30  0.595959D-01  0.234205D-01 -0.785732D-01  0.432791D-01  0.137315D-01
     31  0.321155D-02 -0.496732D-01 -0.212633D-02  0.415623D-02  0.608866D-02
     32 -0.106097D-01 -0.275556D-01  0.194486D-02  0.127722D-01  0.368900D-02
     33  0.171855D-02  0.793347D-02  0.211030D-02 -0.637068D-02  0.452634D-04
                6             7             8             9            10 
      6  0.114757D+00
      7 -0.301184D-02  0.189561D+00
      8 -0.270971D-01 -0.647019D-01  0.693356D+00
      9  0.315819D-01  0.175341D-01  0.329823D-01  0.440729D+00
     10  0.282802D-02  0.863409D-02  0.141596D-01  0.497052D-02  0.243546D+00
     11 -0.759544D-02 -0.538131D-02 -0.911671D-02  0.107984D-01  0.133437D-01
     12 -0.151491D-01  0.449089D-02  0.957824D-02 -0.286003D-01 -0.179307D-01
     13 -0.456485D-02 -0.227175D-01 -0.371364D-01 -0.260343D-02 -0.818048D-01
     14 -0.209513D-02  0.413323D-02 -0.198512D-01 -0.445213D-02 -0.559292D-01
     15  0.881613D-04 -0.984651D-03 -0.750811D-02  0.922964D-02 -0.841335D-02
     16  0.302336D-01  0.860468D-02 -0.112530D-01  0.457446D-02 -0.103352D+00
     17  0.157741D-01 -0.303330D-02  0.529238D-02 -0.417228D-02  0.294282D-01
     18 -0.289826D-02 -0.644994D-02  0.639342D-02 -0.187745D-02  0.640251D-01
     19 -0.341229D-01  0.628268D-02 -0.111050D-01 -0.765881D-02 -0.848557D-01
     20 -0.115622D-01 -0.562224D-02  0.520685D-02  0.452603D-02  0.383795D-01
     21 -0.167667D-01  0.372842D-02 -0.904243D-02 -0.270470D-02 -0.450868D-01
     22 -0.861545D-03 -0.644425D-01  0.484341D-01  0.641876D-01  0.154293D-01
     23  0.510330D-02  0.412864D-01 -0.168210D+00 -0.121547D+00 -0.170346D-01
     24  0.117934D-02  0.473808D-01 -0.120581D+00 -0.202841D+00 -0.224464D-01
     25  0.982812D-02 -0.724066D-01  0.763862D-01 -0.911375D-01  0.165523D-01
     26 -0.545067D-02  0.513019D-01 -0.141231D+00  0.965906D-01 -0.137318D-01
     27  0.556616D-03 -0.680145D-01  0.919346D-01 -0.189588D+00  0.187709D-01
     28  0.367274D-01 -0.102345D-01 -0.215430D-02  0.311552D-02  0.198454D-01
     29  0.225954D-02 -0.378391D-01 -0.790176D-02  0.102976D-01  0.135988D-01
     30  0.150376D-01  0.564199D-02  0.154594D-02  0.341632D-02 -0.957468D-02
     31 -0.425343D-03 -0.205696D-02  0.602031D-03  0.266999D-02 -0.186413D-02
     32 -0.270770D-02 -0.150833D-02  0.219643D-02 -0.256893D-03 -0.267392D-02
     33 -0.443389D-02  0.608041D-02  0.287055D-02  0.422102D-02  0.202174D-03
               11            12            13            14            15 
     11  0.541285D+00
     12 -0.339001D-01  0.618316D+00
     13 -0.119191D+00 -0.154863D-01  0.901922D-01
     14 -0.309840D+00 -0.338511D-01  0.946060D-01  0.413076D+00
     15 -0.379797D-01 -0.713653D-01  0.113870D-01  0.475314D-01  0.806116D-01
     16  0.423351D-01  0.988367D-01  0.159602D-01 -0.527750D-02 -0.640605D-02
     17 -0.101223D+00 -0.687757D-01  0.169483D-01 -0.450091D-01 -0.578725D-01
     18 -0.703517D-01 -0.252931D+00  0.107413D-01 -0.428910D-01 -0.225234D-01
     19  0.589012D-01 -0.774439D-01  0.152224D-01 -0.126729D-01  0.812963D-02
     20 -0.156981D+00  0.124145D+00  0.128832D-01 -0.681095D-01  0.481196D-01
     21  0.126723D+00 -0.249389D+00 -0.461996D-02  0.301265D-01  0.991495D-03
     22 -0.149415D-01  0.782559D-02 -0.693030D-02 -0.926657D-02 -0.510369D-02
     23  0.284596D-02 -0.687167D-02  0.104973D-01  0.104398D-01  0.384563D-02
     24  0.124543D-01 -0.522776D-02  0.133645D-01  0.144395D-01  0.393282D-02
     25 -0.669087D-02 -0.142029D-01 -0.796665D-02 -0.107783D-01  0.236685D-02
     26  0.132332D-02  0.396536D-02  0.929417D-02  0.789498D-02  0.721348D-03
     27 -0.139516D-01 -0.511453D-02 -0.134701D-01 -0.117779D-01 -0.134003D-02
     28  0.308094D-01  0.734692D-02  0.193460D-02 -0.391938D-03 -0.271770D-04
     29 -0.985654D-02 -0.123077D-02 -0.106616D-01 -0.690749D-02 -0.159973D-02
     30 -0.115432D-01  0.158707D-02  0.137455D-03  0.557664D-03 -0.399023D-04
     31 -0.486647D-02 -0.662345D-03 -0.123970D-02 -0.485704D-03 -0.135149D-03
     32 -0.554837D-02 -0.511068D-03 -0.684838D-03 -0.178624D-03 -0.943709D-04
     33  0.393264D-02  0.121609D-02  0.157058D-02  0.809288D-03  0.221954D-03
               16            17            18            19            20 
     16  0.128286D+00
     17 -0.134144D-01  0.136269D+00
     18 -0.121952D+00  0.100706D+00  0.344035D+00
     19  0.130957D-01 -0.649471D-02  0.154529D-01  0.997570D-01
     20 -0.309886D-02  0.145186D-01  0.494826D-02 -0.332277D-01  0.212974D+00
     21 -0.637688D-02  0.151223D-01 -0.638758D-01  0.964843D-01 -0.166097D+00
     22 -0.318420D-02  0.309657D-02  0.226930D-02 -0.332682D-02  0.338320D-02
     23  0.470970D-02 -0.163845D-02 -0.217070D-02  0.397016D-02 -0.220239D-02
     24  0.584068D-02 -0.311384D-02 -0.301749D-02  0.592866D-02 -0.537359D-02
     25 -0.347407D-02  0.105789D-02  0.427089D-02 -0.298652D-02  0.355232D-02
     26  0.348798D-02 -0.116374D-02 -0.316969D-02  0.400726D-02 -0.182208D-02
     27 -0.590753D-02  0.380776D-02  0.536642D-02 -0.474948D-02  0.426050D-02
     28 -0.674468D-02 -0.420391D-02  0.226502D-02 -0.571783D-02 -0.299436D-02
     29 -0.314946D-02  0.267669D-02  0.221384D-02 -0.593156D-02  0.281268D-02
     30  0.494972D-03  0.328943D-03 -0.141470D-02  0.651860D-02  0.104949D-02
     31  0.288517D-03  0.604693D-03 -0.979073D-04  0.563902D-04  0.582172D-03
     32  0.739494D-03  0.714593D-03 -0.368270D-03  0.102284D-02  0.717431D-03
     33 -0.155304D-03 -0.515775D-03 -0.242613D-03  0.342909D-03 -0.617510D-03
               21            22            23            24            25 
     21  0.330072D+00
     22 -0.423303D-02  0.377004D-01
     23  0.378928D-02 -0.461509D-01  0.168382D+00
     24  0.530305D-02 -0.435907D-01  0.148972D+00  0.287902D+00
     25 -0.262208D-03  0.136342D-01 -0.102998D-01  0.113988D-02  0.546769D-01
     26  0.213266D-02 -0.951678D-02  0.211403D-01 -0.128269D-01 -0.587832D-01
     27 -0.264062D-02 -0.173023D-01  0.507848D-02 -0.768357D-01  0.856376D-01
     28 -0.488625D-02  0.558590D-02 -0.413856D-02 -0.687118D-02  0.582212D-02
     29 -0.407481D-02  0.255607D-02  0.204882D-03 -0.181225D-02  0.229443D-02
     30  0.483191D-02 -0.675897D-03  0.222420D-02  0.254377D-02 -0.255015D-02
     31 -0.283061D-04  0.229012D-04  0.732736D-03  0.236751D-03 -0.162266D-02
     32  0.776417D-03 -0.411377D-03  0.700740D-03  0.421941D-03 -0.532245D-03
     33  0.627408D-04  0.140233D-02  0.114974D-03 -0.319013D-03 -0.230796D-02
               26            27            28            29            30 
     26  0.134505D+00
     27 -0.113087D+00  0.277885D+00
     28 -0.318331D-02  0.502353D-02  0.451235D+00
     29 -0.134456D-02  0.122795D-02  0.810472D-01  0.671174D+00
     30 -0.995473D-03 -0.789949D-04 -0.117117D+00  0.116150D-01  0.760610D-01
     31 -0.151705D-03 -0.416958D-04 -0.516106D-01  0.899964D-01  0.142500D-01
     32  0.650659D-03 -0.273743D-03  0.453155D-01 -0.485107D+00 -0.419345D-01
     33 -0.163493D-02  0.426438D-03  0.111567D-01 -0.559413D-01 -0.233708D-01
               31            32            33 
     31  0.506585D-01
     32 -0.434296D-01  0.509721D+00
     33 -0.136397D-01  0.430033D-01  0.201078D-01
 FormGI is forming the generalized inverse of G from B-inverse, IUseBI=4.
 GSVD:  received Info=                   1 from GESDD.
 Force constants in internal coordinates: 
                1             2             3             4             5 
      1  0.585183D+00
      2  0.428360D-01  0.419788D+00
      3  0.829436D-01  0.133062D-01  0.528018D+00
      4  0.858947D-01 -0.338093D-01 -0.773596D-02  0.101560D+00
      5 -0.159914D-01  0.246798D-01  0.818522D-02  0.178058D-01  0.398819D+00
      6 -0.134077D-01  0.171363D-01  0.683399D-02  0.190798D-01  0.483253D-01
      7  0.406677D-01 -0.975819D-02  0.593091D-02  0.177715D-01  0.242557D-01
      8  0.809509D-02 -0.284083D-02  0.472489D-02  0.349415D-01  0.779132D-02
      9  0.912797D-02 -0.394462D-02  0.752035D-02  0.320193D-01  0.111458D-01
     10 -0.967529D-02 -0.330159D-02  0.100571D-01  0.309445D-02 -0.691239D-03
     11 -0.673610D-01  0.642168D-01 -0.406884D-01  0.576954D-01 -0.320665D-03
     12  0.971722D-01 -0.383856D-01  0.369139D-01 -0.519513D-01  0.346398D-02
     13 -0.291960D-01 -0.259869D-01  0.389377D-02 -0.622614D-02 -0.295858D-02
     14 -0.765067D-01 -0.118274D+00  0.106468D-01  0.220457D+00 -0.308200D-01
     15  0.209831D-01  0.520261D-02 -0.550093D-02 -0.711951D-02  0.225919D-01
     16  0.386030D-02  0.132475D-01 -0.230473D-02 -0.458541D-02 -0.344244D-01
     17 -0.107104D-01 -0.744264D-02  0.140540D-02  0.373258D-02  0.231148D-01
     18  0.841731D-01 -0.394260D-01  0.207175D-02  0.177057D-01  0.219412D-01
     19 -0.203180D-01  0.622826D-02  0.817263D-02  0.673404D-01  0.229260D-02
     20 -0.315700D-01  0.586783D-02  0.117637D-01  0.636956D-01  0.245681D-03
     21 -0.130266D-01  0.895380D-02 -0.728827D-02 -0.611242D-01 -0.741631D-02
     22 -0.123082D-01  0.129661D-01 -0.949650D-02 -0.597660D-01 -0.960981D-02
     23 -0.134858D-01  0.673304D-02 -0.383578D-02 -0.101601D-01 -0.999402D-02
     24 -0.585477D-02 -0.980527D-03  0.454663D-01  0.115504D-01 -0.147962D-02
     25  0.263985D-01  0.623959D-02 -0.224788D-02 -0.191004D-01  0.865149D-02
     26  0.211107D-01  0.908631D-02 -0.359866D-02 -0.133687D-01  0.658867D-02
     27 -0.204647D-01  0.541812D-02  0.262736D-02  0.117897D-01 -0.118282D-01
     28 -0.614914D-02  0.172454D-01 -0.537768D-02  0.263765D-02  0.124073D-01
     29 -0.767729D-02  0.205802D-02  0.577861D-02  0.329339D-02 -0.923271D-02
     30  0.663830D-02  0.138853D-01 -0.222643D-02 -0.585867D-02  0.150028D-01
     31  0.675542D-02 -0.885601D-03 -0.178868D-02 -0.417240D-02  0.156750D-02
     32  0.122844D-02 -0.201494D-02 -0.145301D-02 -0.292931D-03 -0.101385D-02
     33 -0.412730D-02  0.412660D-03  0.851963D-03  0.120820D-02 -0.243446D-02
     34  0.694402D-02 -0.488154D-02  0.259352D-02  0.138557D-01  0.616636D-02
     35 -0.136543D-02  0.675573D-03 -0.329423D-02 -0.963675D-02 -0.415244D-02
                6             7             8             9            10 
      6  0.372661D+00
      7  0.213145D-01  0.445123D+00
      8  0.104812D-01  0.499799D-01  0.431349D+00
      9  0.735311D-02  0.499047D-01  0.425411D-01  0.473432D+00
     10 -0.628598D-03  0.160137D-03 -0.414264D-03 -0.570747D-03  0.517517D+00
     11 -0.650602D-02  0.585477D-01  0.513631D-02  0.536847D-02  0.143306D-02
     12  0.494737D-02 -0.380254D-01 -0.422094D-02 -0.506656D-02 -0.813525D-02
     13  0.141784D-02 -0.209074D-01 -0.848689D-03 -0.361819D-03  0.671704D-02
     14 -0.243920D-01  0.131218D+00  0.202498D-01  0.226217D-01 -0.222173D-02
     15 -0.314399D-01 -0.450806D-02 -0.145191D-02 -0.445743D-02 -0.293226D-03
     16  0.218068D-01 -0.322755D-02 -0.243442D-02  0.579033D-03 -0.285900D-04
     17  0.231315D-01 -0.100621D-02  0.338372D-03  0.341514D-03  0.498581D-03
     18  0.235722D-01 -0.812569D-02 -0.427369D-01 -0.457266D-01  0.167926D-02
     19 -0.577263D-03 -0.450939D-01  0.933860D-02 -0.866587D-02 -0.151585D-02
     20  0.234779D-03 -0.455402D-01 -0.938579D-02  0.634679D-02 -0.225467D-02
     21 -0.931422D-02  0.431974D-01  0.253874D-01 -0.265955D-03  0.710439D-03
     22 -0.697985D-02  0.435779D-01 -0.413007D-03  0.290934D-01  0.102159D-02
     23 -0.966856D-02 -0.757101D-02  0.293150D-01  0.289939D-01 -0.145570D-03
     24 -0.127538D-02  0.215104D-02  0.138035D-03  0.665357D-03  0.217419D-01
     25 -0.293965D-02 -0.189594D-01  0.965230D-03 -0.807782D-02  0.115632D-02
     26 -0.126967D-02 -0.135834D-01  0.168813D-03 -0.737480D-02  0.590915D-03
     27 -0.146880D-01  0.100367D-01  0.251114D-02  0.445748D-02  0.428790D-04
     28  0.140786D-01 -0.217881D-02 -0.215129D-02 -0.105102D-03  0.496440D-03
     29 -0.163121D-01  0.364215D-02  0.319827D-02  0.345790D-02 -0.230984D-03
     30  0.124545D-01 -0.857340D-02 -0.146417D-02 -0.110468D-02  0.222577D-03
     31 -0.945771D-03 -0.198990D-02  0.311194D-03 -0.550629D-03  0.843261D-04
     32  0.134245D-02  0.390811D-03 -0.873199D-03  0.219017D-04 -0.142990D-03
     33  0.238926D-02  0.586266D-03 -0.271187D-01  0.240202D-01 -0.170614D-03
     34  0.303035D-02  0.370155D-03  0.547174D-02 -0.347691D-01  0.288598D-04
     35 -0.667398D-02  0.192174D-02  0.350333D-01 -0.535934D-02  0.265261D-03
               11            12            13            14            15 
     11  0.599668D-01
     12 -0.491875D-01  0.143022D+00
     13 -0.100985D-01 -0.948694D-01  0.105434D+00
     14 -0.161004D+00  0.925485D-01  0.691499D-01  0.177945D+00
     15  0.235435D-01 -0.943425D-02 -0.135339D-01  0.356047D-01  0.133618D+00
     16  0.199012D-02 -0.243841D-02 -0.329464D-03  0.321562D-01 -0.206805D-01
     17 -0.152019D-01  0.736391D-02  0.795753D-02 -0.135589D-01 -0.873066D-01
     18  0.117975D+00 -0.785633D-01 -0.403757D-01  0.298238D+00 -0.149894D-02
     19 -0.301750D-01  0.238250D-01  0.671932D-02 -0.467437D-01  0.168785D-02
     20 -0.345104D-01  0.243796D-01  0.102872D-01 -0.588443D-01 -0.675542D-04
     21 -0.193783D-01  0.958694D-02  0.101342D-01 -0.784972D-01 -0.906066D-03
     22 -0.250225D-01  0.142330D-01  0.108226D-01 -0.824742D-01 -0.201259D-03
     23 -0.144068D-01  0.127254D-01  0.178822D-02 -0.362536D-01  0.235290D-02
     24 -0.677080D-02 -0.159662D-01  0.227988D-01 -0.255043D-02 -0.812459D-03
     25  0.396132D-01 -0.293550D-01 -0.882141D-02  0.259188D-01  0.110383D-02
     26  0.315055D-01 -0.111843D-01 -0.202594D-01  0.148869D-01 -0.526498D-02
     27 -0.826970D-02  0.475438D-02  0.278694D-02 -0.426494D-01 -0.446966D-02
     28 -0.105193D-02  0.188016D-02 -0.163669D-02  0.247694D-01 -0.896508D-02
     29 -0.150768D-02 -0.814446D-03  0.298336D-02 -0.305078D-01  0.276781D-02
     30  0.571009D-02 -0.368867D-02 -0.144027D-02  0.369109D-01 -0.172762D-02
     31  0.911816D-02 -0.949372D-02  0.121760D-02  0.196345D-02  0.254191D-02
     32 -0.334879D-02  0.662536D-02 -0.401560D-02  0.585225D-03 -0.671792D-02
     33 -0.321546D-02  0.145840D-02  0.145578D-02 -0.125984D-02  0.422138D-03
     34  0.671386D-02 -0.520573D-02 -0.126542D-02  0.165154D-01  0.294464D-03
     35 -0.123952D-02  0.272929D-02 -0.119237D-02 -0.928633D-02  0.250317D-02
               16            17            18            19            20 
     16  0.129534D+00
     17 -0.847182D-01  0.153117D+00
     18  0.187607D-03 -0.127757D-02  0.245594D+00
     19 -0.298506D-04 -0.105896D-02 -0.238478D-01  0.251427D+00
     20  0.269196D-02 -0.171187D-02 -0.272778D-01  0.225822D-01  0.240491D+00
     21  0.173153D-03  0.138583D-02 -0.729936D-01 -0.178144D+00 -0.184000D-01
     22 -0.310567D-02  0.238048D-02 -0.764677D-01 -0.202928D-01 -0.169669D+00
     23  0.114952D-02 -0.651795D-03 -0.580646D-01 -0.195307D-01 -0.188448D-01
     24  0.995127D-03  0.914669D-03  0.648681D-02 -0.343373D-02 -0.274152D-02
     25 -0.852952D-02  0.315559D-02 -0.414751D-01  0.235469D-01 -0.899923D-02
     26  0.864406D-03  0.138283D-02 -0.284741D-01  0.189391D-01 -0.112024D-01
     27  0.526610D-02 -0.198698D-01  0.115229D-01 -0.313687D-02 -0.236497D-02
     28  0.407324D-02  0.194694D-01  0.750854D-02 -0.280007D-02 -0.181907D-02
     29 -0.492346D-02 -0.181071D-01 -0.390960D-02  0.262578D-02  0.608247D-03
     30 -0.611632D-02  0.212321D-01 -0.792395D-02  0.296257D-02  0.115415D-02
     31 -0.129195D-02 -0.270635D-03 -0.551542D-02  0.261261D-02  0.492540D-03
     32  0.945111D-02 -0.114230D-02  0.191098D-02 -0.102657D-02  0.579416D-04
     33 -0.104827D-02  0.381116D-03  0.347495D-02 -0.224458D-01  0.185258D-01
     34 -0.563169D-03  0.172592D-03  0.278749D-01  0.491797D-01 -0.319379D-02
     35  0.320324D-03 -0.202204D-03 -0.254223D-01  0.216517D-02 -0.491843D-01
               21            22            23            24            25 
     21  0.191789D+00
     22  0.337207D-01  0.189278D+00
     23  0.939174D-02  0.983497D-02  0.138673D+00
     24  0.232202D-03 -0.186756D-03 -0.143437D-02  0.163555D+00
     25  0.151520D-01  0.724853D-02  0.617059D-02  0.756855D-03  0.585370D-01
     26  0.105933D-01  0.643321D-02  0.489002D-02 -0.121198D-02  0.413833D-01
     27 -0.152704D-02 -0.256091D-02 -0.341844D-02 -0.342115D-03 -0.979930D-03
     28 -0.433196D-04 -0.284445D-02  0.139053D-03  0.155245D-02 -0.554480D-02
     29  0.319847D-02 -0.165206D-02 -0.148726D-02 -0.599415D-03  0.164592D-01
     30  0.468218D-02 -0.193560D-02  0.207023D-02  0.129515D-02  0.118944D-01
     31  0.205752D-02 -0.897970D-04  0.859372D-03 -0.230731D-03  0.117606D-01
     32 -0.170851D-02  0.739635D-03  0.813448D-04 -0.597750D-03 -0.102505D-01
     33 -0.120102D-01  0.115807D-01 -0.718131D-04  0.203806D-03 -0.211755D-01
     34 -0.523962D-02 -0.247666D-01 -0.700253D-01  0.176128D-03  0.174944D-01
     35  0.238406D-01  0.462932D-02  0.735216D-01 -0.644497D-03  0.222926D-01
               26            27            28            29            30 
     26  0.415312D-01
     27  0.772101D-02  0.241050D-01
     28  0.431576D-02 -0.993594D-02  0.181793D-01
     29  0.832036D-02  0.148333D-01 -0.203096D-01  0.233259D-01
     30  0.491511D-02 -0.192076D-01  0.780565D-02 -0.118170D-01  0.151963D-01
     31  0.145711D-02 -0.470431D-02 -0.354941D-02  0.576817D-02  0.692308D-02
     32 -0.107792D-02  0.586984D-02  0.775932D-02 -0.335445D-02 -0.146498D-02
     33 -0.175950D-01 -0.758386D-03 -0.948340D-03 -0.462088D-02 -0.481083D-02
     34  0.145841D-01  0.634472D-03  0.565840D-03  0.356587D-02  0.349723D-02
     35  0.187779D-01 -0.225270D-02  0.117183D-02  0.174406D-02  0.516860D-02
               31            32            33            34            35 
     31  0.164582D-01
     32  0.428768D-02  0.147224D-01
     33 -0.220888D-02  0.215725D-02  0.303461D-01
     34  0.204743D-02 -0.167018D-02 -0.343675D-01  0.726220D-01
     35  0.260225D-02 -0.149206D-02 -0.341140D-01 -0.246819D-02  0.764276D-01
 Leave Link  716 at Sat May 24 07:37:17 2025, MaxMem=  3758096384 cpu:               0.1 elap:               0.0
 (Enter /apps/easybuild-2022/easybuild/software/Compiler/NVHPC/22.11-CUDA-11.7.0/Gaussian/g16c01-CUDA-11.7.0/g16/l103.exe)

 GradGradGradGradGradGradGradGradGradGradGradGradGradGradGradGradGradGrad
 Berny optimization.
 Red2BG is reusing G-inverse.
 Internal  Forces:  Max     0.117298636 RMS     0.033510641
 Search for a saddle point.
 Step number   1 out of a maximum of  100
 All quantities printed in internal units (Hartrees-Bohrs-Radians)
 Swapping is turned off.
 Second derivative matrix not updated -- analytic derivatives used.
 ITU=  0
     Eigenvalues ---   -0.43036  -0.00704  -0.00186   0.02016   0.02644
     Eigenvalues ---    0.05114   0.06321   0.07565   0.13828   0.14189
     Eigenvalues ---    0.16123   0.18458   0.19857   0.23739   0.25230
     Eigenvalues ---    0.31865   0.35080   0.35548   0.39719   0.42227
     Eigenvalues ---    0.47131   0.49244   0.50755   0.52863   0.61079
     Eigenvalues ---    0.68300   0.73867
 Eigenvectors required to have negative eigenvalues:
                          A4        A1        A8        R4        A2
   1                   -0.59551  -0.39020   0.37811   0.35084   0.23691
                          R1        A3        D1        R7        A10
   1                   -0.17599   0.15640   0.14063   0.13633  -0.11486
 Eigenvalue     2 is  -7.04D-03 should be greater than     0.000000 Eigenvector:
                          D6        D4        D5        D3        D9
   1                   -0.58115  -0.47503  -0.42856  -0.32244  -0.20740
                          D8        D2        D11       D10       D7
   1                    0.19269   0.15214  -0.09918  -0.09711   0.07731
 Eigenvalue     3 is  -1.86D-03 should be greater than     0.000000 Eigenvector:
                          D9        D10       D11       D6        D4
   1                   -0.75253  -0.41515  -0.40313   0.15473   0.12602
                          D5        A10       A11       A9        D2
   1                    0.10185  -0.09565   0.08540   0.08440  -0.07892
 RFO step:  Lambda0=5.702217550D-02 Lambda=-4.31015020D-02.
 Linear search not attempted -- option 19 set.
 Maximum step size (   0.300) exceeded in Quadratic search.
    -- Step size scaled by   0.710
 Iteration  1 RMS(Cart)=  0.20553402 RMS(Int)=  0.05153005
 Iteration  2 RMS(Cart)=  0.06923332 RMS(Int)=  0.00697937
 Iteration  3 RMS(Cart)=  0.00499508 RMS(Int)=  0.00522626
 Iteration  4 RMS(Cart)=  0.00006344 RMS(Int)=  0.00522612
 Iteration  5 RMS(Cart)=  0.00000150 RMS(Int)=  0.00522612
 Iteration  6 RMS(Cart)=  0.00000004 RMS(Int)=  0.00522612
 ITry= 1 IFail=0 DXMaxC= 9.42D-01 DCOld= 1.00D+10 DXMaxT= 3.00D-01 DXLimC= 3.00D+00 Rises=F
 Variable       Old X    -DE/DX   Delta X   Delta X   Delta X     New X
                                 (Linear)    (Quad)   (Total)
    R1        2.36192  -0.08176   0.00000  -0.01374  -0.01374   2.34818
    R2        2.73020   0.02094   0.00000   0.02508   0.02508   2.75529
    R3        2.46705   0.00218   0.00000  -0.00374  -0.00374   2.46331
    R4        3.51783   0.05504   0.00000  -0.10528  -0.10528   3.41256
    R5        2.53612  -0.00726   0.00000   0.01191   0.01191   2.54803
    R6        2.55987  -0.01737   0.00000  -0.00131  -0.00131   2.55856
    R7        2.47222   0.02395   0.00000  -0.00281  -0.00281   2.46941
    R8        2.48915  -0.00547   0.00000  -0.00561  -0.00561   2.48354
    R9        2.45837   0.00652   0.00000  -0.00668  -0.00668   2.45169
   R10        1.82903  -0.00114   0.00000   0.00105   0.00105   1.83009
    A1        1.96183  -0.06409   0.00000   0.06400   0.06319   2.02502
    A2        2.10642   0.04588   0.00000  -0.00447  -0.00529   2.10114
    A3        2.21149   0.01902   0.00000  -0.05371  -0.05454   2.15695
    A4        1.80554  -0.11730   0.00000   0.11635   0.11635   1.92189
    A5        2.11158  -0.02015   0.00000  -0.12620  -0.13717   1.97441
    A6        2.06159  -0.02110   0.00000  -0.09449  -0.10564   1.95595
    A7        1.86147   0.01968   0.00000   0.03570   0.01624   1.87771
    A8        2.59587   0.04319   0.00000  -0.08639  -0.08658   2.50929
    A9        1.50435   0.01741   0.00000   0.03395   0.02928   1.53364
   A10        1.50983   0.01021   0.00000   0.10862   0.11075   1.62058
   A11        1.90116  -0.02758   0.00000  -0.06210  -0.06761   1.83355
   A12        1.91412  -0.02618   0.00000   0.03106   0.03339   1.94751
   A13        2.01065  -0.01698   0.00000  -0.02759  -0.03066   1.97999
   A14        1.94897  -0.00776   0.00000  -0.00532  -0.00532   1.94365
    D1       -0.39011   0.03322   0.00000   0.01970   0.02104  -0.36907
    D2        2.83471   0.02286   0.00000  -0.04810  -0.04943   2.78528
    D3        2.22949   0.00779   0.00000   0.31384   0.30647   2.53596
    D4       -1.70757  -0.01301   0.00000   0.07954   0.08694  -1.62063
    D5       -1.00139   0.02008   0.00000   0.38995   0.38255  -0.61884
    D6        1.34473  -0.00072   0.00000   0.15564   0.16302   1.50775
    D7       -0.02275   0.00266   0.00000  -0.04424  -0.04545  -0.06820
    D8       -3.06833  -0.00539   0.00000  -0.12891  -0.12770   3.08716
    D9        0.31033  -0.00131   0.00000   0.36704   0.36287   0.67319
   D10        2.42420   0.01222   0.00000   0.21934   0.21938   2.64358
   D11       -1.84191  -0.00767   0.00000   0.17699   0.18112  -1.66079
         Item               Value     Threshold  Converged?
 Maximum Force            0.117299     0.000450     NO 
 RMS     Force            0.033511     0.000300     NO 
 Maximum Displacement     0.941608     0.001800     NO 
 RMS     Displacement     0.248740     0.001200     NO 
 Predicted change in Energy= 2.801905D-03
 Lowest energy point so far.  Saving SCF results.
 GradGradGradGradGradGradGradGradGradGradGradGradGradGradGradGradGradGrad

 Leave Link  103 at Sat May 24 07:37:17 2025, MaxMem=  3758096384 cpu:               0.1 elap:               0.0
 (Enter /apps/easybuild-2022/easybuild/software/Compiler/NVHPC/22.11-CUDA-11.7.0/Gaussian/g16c01-CUDA-11.7.0/g16/l202.exe)
                          Input orientation:                          
 ---------------------------------------------------------------------
 Center     Atomic      Atomic             Coordinates (Angstroms)
 Number     Number       Type             X           Y           Z
 ---------------------------------------------------------------------
      1          6           0        2.151711    1.002707   -0.078883
      2          8           0        1.133761    1.590873    0.323493
      3          6           0        2.053705   -0.448423   -0.181262
      4          6           0       -0.322692    0.552713    0.074397
      5          9           0       -0.762470   -0.676671    0.127529
      6          9           0       -0.868331    1.155366    1.107011
      7          9           0       -0.608074    1.113062   -1.060399
      8          9           0        2.753898   -0.954761   -1.216360
      9          9           0        2.481652   -1.067816    0.944058
     10          8           0        3.230332    1.674808   -0.368788
     11          1           0        3.084934    2.628582   -0.284821
 ---------------------------------------------------------------------
                    Distance matrix (angstroms):
                    1          2          3          4          5
     1  C    0.000000
     2  O    1.242605   0.000000
     3  C    1.458034   2.293426   0.000000
     4  C    2.519655   1.805847   2.591313   0.000000
     5  F    3.369772   2.962406   2.842234   1.306756   0.000000
     6  F    3.248123   2.193614   3.573525   1.314232   2.080132
     7  F    2.931205   2.275401   3.208767   1.297380   2.153637
     8  F    2.342683   3.387660   1.348360   3.661139   3.774680
     9  F    2.332881   3.044756   1.353932   3.353621   3.368092
    10  O    1.303530   2.209504   2.434693   3.752265   4.660285
    11  H    1.885944   2.292152   3.246863   4.006269   5.088934
                    6          7          8          9         10
     6  F    0.000000
     7  F    2.183389   0.000000
     8  F    4.792831   3.950072   0.000000
     9  F    4.023864   4.280243   2.180437   0.000000
    10  O    4.387123   3.940463   2.803570   3.131466   0.000000
    11  H    4.442507   4.066526   3.717216   3.941757   0.968439
                   11
    11  H    0.000000
 Symmetry turned off by external request.
 Stoichiometry    C3HF5O2
 Rotational constants (GHZ):           1.9212171           0.9851155           0.8437278
 Leave Link  202 at Sat May 24 07:37:17 2025, MaxMem=  3758096384 cpu:               0.0 elap:               0.0
 (Enter /apps/easybuild-2022/easybuild/software/Compiler/NVHPC/22.11-CUDA-11.7.0/Gaussian/g16c01-CUDA-11.7.0/g16/l301.exe)
 Standard basis: def2TZVPP (5D, 7F)
 Ernie: Thresh=  0.10000D-02 Tol=  0.10000D-05 Strict=F.
   324 basis functions,   527 primitive gaussians,   375 cartesian basis functions
    40 alpha electrons       40 beta electrons
       nuclear repulsion energy       610.9705451411 Hartrees.
 IExCor= 4336 DFT=T Ex+Corr=M062X ExCW=0 ScaHFX=  0.540000
 ScaDFX=  1.000000  1.000000  1.000000  1.000000 ScalE2=  1.000000  1.000000
 IRadAn=      5 IRanWt=     -1 IRanGd=            0 ICorTp=0 IEmpDi=  4
 NAtoms=   11 NActive=   11 NUniq=   11 SFac= 1.00D+00 NAtFMM=   60 NAOKFM=F Big=F
 Integral buffers will be    131072 words long.
 Raffenetti 2 integral format.
 Two-electron integral symmetry is turned off.
 Leave Link  301 at Sat May 24 07:37:17 2025, MaxMem=  3758096384 cpu:               0.0 elap:               0.0
 (Enter /apps/easybuild-2022/easybuild/software/Compiler/NVHPC/22.11-CUDA-11.7.0/Gaussian/g16c01-CUDA-11.7.0/g16/l302.exe)
 NPDir=0 NMtPBC=     1 NCelOv=     1 NCel=       1 NClECP=     1 NCelD=      1
         NCelK=      1 NCelE2=     1 NClLst=     1 CellRange=     0.0.
 One-electron integrals computed using PRISM.
   1 Symmetry operations used in ECPInt.
 ECPInt:  NShTT=    6786 NPrTT=   21959 LenC2=    6377 LenP2D=   15506.
 LDataN:  DoStor=T MaxTD1= 6 Len=  172
 NBasis=   324 RedAO= T EigKep=  3.04D-04  NBF=   324
 NBsUse=   324 1.00D-06 EigRej= -1.00D+00 NBFU=   324
 Precomputing XC quadrature grid using
 IXCGrd= 4 IRadAn=           5 IRanWt=          -1 IRanGd=           0 AccXCQ= 0.00D+00.
 Generated NRdTot=       0 NPtTot=           0 NUsed=           0 NTot=          32
 NSgBfM=   370   370   370   370   370 MxSgAt=    11 MxSgA2=    11.
 Leave Link  302 at Sat May 24 07:37:17 2025, MaxMem=  3758096384 cpu:               0.6 elap:               0.1
 (Enter /apps/easybuild-2022/easybuild/software/Compiler/NVHPC/22.11-CUDA-11.7.0/Gaussian/g16c01-CUDA-11.7.0/g16/l303.exe)
 DipDrv:  MaxL=1.
 Leave Link  303 at Sat May 24 07:37:17 2025, MaxMem=  3758096384 cpu:               0.1 elap:               0.0
 (Enter /apps/easybuild-2022/easybuild/software/Compiler/NVHPC/22.11-CUDA-11.7.0/Gaussian/g16c01-CUDA-11.7.0/g16/l401.exe)
 Initial guess from the checkpoint file:  "/tmp/Gau-233939.chk"
 B after Tr=     0.018174    0.020160    0.003023
         Rot=    0.999997    0.002338    0.000339   -0.001178 Ang=   0.30 deg.
 Guess basis will be translated and rotated to current coordinates.
 JPrj=2 DoOrth=T DoCkMO=T.
 Generating alternative initial guess.
 ExpMin= 9.52D-02 ExpMax= 3.55D+04 ExpMxC= 1.21D+03 IAcc=3 IRadAn=         5 AccDes= 0.00D+00
 Harris functional with IExCor= 1009 and IRadAn=       5 diagonalized for initial guess.
 HarFok:  IExCor= 1009 AccDes= 0.00D+00 IRadAn=         5 IDoV= 1 UseB2=F ITyADJ=14
 ICtDFT=  3500011 ScaDFX=  1.000000  1.000000  1.000000  1.000000
 FoFCou: FMM=F IPFlag=           0 FMFlag=      100000 FMFlg1=           0
         NFxFlg=           0 DoJE=T BraDBF=F KetDBF=T FulRan=T
         wScrn=  0.000000 ICntrl=       500 IOpCl=  0 I1Cent=   200000004 NGrid=           0
         NMat0=    1 NMatS0=      1 NMatT0=    0 NMatD0=    1 NMtDS0=    0 NMtDT0=    0
 Symmetry not used in FoFCou.
 Harris En= -764.033915770654    
 Leave Link  401 at Sat May 24 07:37:18 2025, MaxMem=  3758096384 cpu:               3.8 elap:               0.6
 (Enter /apps/easybuild-2022/easybuild/software/Compiler/NVHPC/22.11-CUDA-11.7.0/Gaussian/g16c01-CUDA-11.7.0/g16/l502.exe)
 Keep R1 ints in memory in canonical form, NReq=1412617130.
 FoFCou: FMM=F IPFlag=           0 FMFlag=           0 FMFlg1=           0
         NFxFlg=           0 DoJE=F BraDBF=F KetDBF=F FulRan=T
         wScrn=  0.000000 ICntrl=       600 IOpCl=  0 I1Cent=           0 NGrid=           0
         NMat0=    1 NMatS0=  52650 NMatT0=    0 NMatD0=    1 NMtDS0=    0 NMtDT0=    0
 Symmetry not used in FoFCou.
 Two-electron integral symmetry not used.
 Closed shell SCF:
 Using DIIS extrapolation, IDIIS=  1040.
 NGot=  3758096384 LenX=  2371771924 LenY=  2371630858
 Requested convergence on RMS density matrix=1.00D-08 within  32 cycles.
 Requested convergence on MAX density matrix=1.00D-06.
 Requested convergence on             energy=1.00D-06.
 No special actions if energy rises.
 Integral accuracy reduced to 1.0D-05 until final iterations.

 Cycle   1  Pass 0  IDiag  1:
 E= -764.349661604578    
 DIIS: error= 1.00D-02 at cycle   1 NSaved=   1.
 NSaved= 1 IEnMin= 1 EnMin= -764.349661604578     IErMin= 1 ErrMin= 1.00D-02
 ErrMax= 1.00D-02  0.00D+00 EMaxC= 1.00D-01 BMatC= 8.17D-02 BMatP= 8.17D-02
 IDIUse=3 WtCom= 9.00D-01 WtEn= 1.00D-01
 Coeff-Com:  0.100D+01
 Coeff-En:   0.100D+01
 Coeff:      0.100D+01
 Recover alternate guess density for next cycle.
 RMSDP=2.70D-03 MaxDP=1.63D-01              OVMax= 0.00D+00

 Cycle   2  Pass 0  IDiag  1:
 E= -764.298310715807     Delta-E=        0.051350888771 Rises=F Damp=F
 Switch densities from cycles 1 and 2 for lowest energy.
 DIIS: error= 2.03D-02 at cycle   2 NSaved=   2.
 NSaved= 2 IEnMin= 1 EnMin= -764.349661604578     IErMin= 1 ErrMin= 1.00D-02
 ErrMax= 2.03D-02  0.00D+00 EMaxC= 1.00D+00 BMatC= 3.20D-01 BMatP= 8.17D-02
 IDIUse=1 WtCom= 1.00D+00 WtEn= 0.00D+00
 Coeff-Com:  0.818D+00 0.182D+00
 Coeff:      0.818D+00 0.182D+00
 Gap=     0.199 Goal=   None    Shift=    0.000
 RMSDP=1.20D-03 MaxDP=4.41D-02 DE= 5.14D-02 OVMax= 2.68D-01

 Cycle   3  Pass 0  IDiag  1:
 E= -764.453347271409     Delta-E=       -0.155036555603 Rises=F Damp=F
 DIIS: error= 4.61D-03 at cycle   3 NSaved=   3.
 NSaved= 3 IEnMin= 3 EnMin= -764.453347271409     IErMin= 3 ErrMin= 4.61D-03
 ErrMax= 4.61D-03  0.00D+00 EMaxC= 1.00D+00 BMatC= 1.66D-02 BMatP= 8.17D-02
 IDIUse=1 WtCom= 1.00D+00 WtEn= 0.00D+00
 Coeff-Com: -0.873D-02 0.157D+00 0.852D+00
 Coeff:     -0.873D-02 0.157D+00 0.852D+00
 Gap=     0.196 Goal=   None    Shift=    0.000
 RMSDP=5.38D-04 MaxDP=2.00D-02 DE=-1.55D-01 OVMax= 9.01D-02

 Cycle   4  Pass 0  IDiag  1:
 E= -764.465519288341     Delta-E=       -0.012172016932 Rises=F Damp=F
 DIIS: error= 2.09D-03 at cycle   4 NSaved=   4.
 NSaved= 4 IEnMin= 4 EnMin= -764.465519288341     IErMin= 4 ErrMin= 2.09D-03
 ErrMax= 2.09D-03  0.00D+00 EMaxC= 1.00D+00 BMatC= 3.88D-03 BMatP= 1.66D-02
 IDIUse=1 WtCom= 1.00D+00 WtEn= 0.00D+00
 Coeff-Com: -0.565D-01 0.304D-01 0.375D+00 0.651D+00
 Coeff:     -0.565D-01 0.304D-01 0.375D+00 0.651D+00
 Gap=     0.193 Goal=   None    Shift=    0.000
 RMSDP=1.68D-04 MaxDP=5.70D-03 DE=-1.22D-02 OVMax= 2.03D-02

 Cycle   5  Pass 0  IDiag  1:
 E= -764.467773489500     Delta-E=       -0.002254201158 Rises=F Damp=F
 DIIS: error= 7.72D-04 at cycle   5 NSaved=   5.
 NSaved= 5 IEnMin= 5 EnMin= -764.467773489500     IErMin= 5 ErrMin= 7.72D-04
 ErrMax= 7.72D-04  0.00D+00 EMaxC= 1.00D+00 BMatC= 7.76D-04 BMatP= 3.88D-03
 IDIUse=1 WtCom= 1.00D+00 WtEn= 0.00D+00
 Coeff-Com: -0.255D-01-0.313D-02 0.129D+00 0.371D+00 0.528D+00
 Coeff:     -0.255D-01-0.313D-02 0.129D+00 0.371D+00 0.528D+00
 Gap=     0.197 Goal=   None    Shift=    0.000
 RMSDP=9.45D-05 MaxDP=4.64D-03 DE=-2.25D-03 OVMax= 1.53D-02

 Cycle   6  Pass 0  IDiag  1:
 E= -764.468363806374     Delta-E=       -0.000590316874 Rises=F Damp=F
 DIIS: error= 3.18D-04 at cycle   6 NSaved=   6.
 NSaved= 6 IEnMin= 6 EnMin= -764.468363806374     IErMin= 6 ErrMin= 3.18D-04
 ErrMax= 3.18D-04  0.00D+00 EMaxC= 1.00D+00 BMatC= 9.58D-05 BMatP= 7.76D-04
 IDIUse=1 WtCom= 1.00D+00 WtEn= 0.00D+00
 Coeff-Com: -0.597D-02-0.476D-02 0.161D-01 0.918D-01 0.291D+00 0.612D+00
 Coeff:     -0.597D-02-0.476D-02 0.161D-01 0.918D-01 0.291D+00 0.612D+00
 Gap=     0.195 Goal=   None    Shift=    0.000
 RMSDP=4.06D-05 MaxDP=2.05D-03 DE=-5.90D-04 OVMax= 7.03D-03

 Cycle   7  Pass 0  IDiag  1:
 E= -764.468492257310     Delta-E=       -0.000128450936 Rises=F Damp=F
 DIIS: error= 1.09D-04 at cycle   7 NSaved=   7.
 NSaved= 7 IEnMin= 7 EnMin= -764.468492257310     IErMin= 7 ErrMin= 1.09D-04
 ErrMax= 1.09D-04  0.00D+00 EMaxC= 1.00D+00 BMatC= 1.32D-05 BMatP= 9.58D-05
 IDIUse=1 WtCom= 1.00D+00 WtEn= 0.00D+00
 Coeff-Com:  0.272D-02-0.139D-03-0.247D-01-0.669D-01 0.657D-02 0.226D+00
 Coeff-Com:  0.857D+00
 Coeff:      0.272D-02-0.139D-03-0.247D-01-0.669D-01 0.657D-02 0.226D+00
 Coeff:      0.857D+00
 Gap=     0.196 Goal=   None    Shift=    0.000
 RMSDP=4.76D-05 MaxDP=2.01D-03 DE=-1.28D-04 OVMax= 8.97D-03

 Cycle   8  Pass 0  IDiag  1:
 E= -764.468550686458     Delta-E=       -0.000058429149 Rises=F Damp=F
 DIIS: error= 7.69D-05 at cycle   8 NSaved=   8.
 NSaved= 8 IEnMin= 8 EnMin= -764.468550686458     IErMin= 8 ErrMin= 7.69D-05
 ErrMax= 7.69D-05  0.00D+00 EMaxC= 1.00D+00 BMatC= 4.68D-06 BMatP= 1.32D-05
 IDIUse=1 WtCom= 1.00D+00 WtEn= 0.00D+00
 Coeff-Com:  0.223D-02 0.628D-03-0.885D-02-0.462D-01-0.581D-01-0.123D+00
 Coeff-Com:  0.256D+00 0.977D+00
 Coeff:      0.223D-02 0.628D-03-0.885D-02-0.462D-01-0.581D-01-0.123D+00
 Coeff:      0.256D+00 0.977D+00
 Gap=     0.195 Goal=   None    Shift=    0.000
 RMSDP=3.30D-05 MaxDP=1.53D-03 DE=-5.84D-05 OVMax= 5.96D-03

 Cycle   9  Pass 0  IDiag  1:
 E= -764.468574332098     Delta-E=       -0.000023645640 Rises=F Damp=F
 DIIS: error= 3.04D-05 at cycle   9 NSaved=   9.
 NSaved= 9 IEnMin= 9 EnMin= -764.468574332098     IErMin= 9 ErrMin= 3.04D-05
 ErrMax= 3.04D-05  0.00D+00 EMaxC= 1.00D+00 BMatC= 6.35D-07 BMatP= 4.68D-06
 IDIUse=1 WtCom= 1.00D+00 WtEn= 0.00D+00
 Coeff-Com: -0.953D-04 0.205D-03 0.554D-02 0.663D-02-0.122D-01-0.107D+00
 Coeff-Com: -0.161D+00 0.148D+00 0.112D+01
 Coeff:     -0.953D-04 0.205D-03 0.554D-02 0.663D-02-0.122D-01-0.107D+00
 Coeff:     -0.161D+00 0.148D+00 0.112D+01
 Gap=     0.195 Goal=   None    Shift=    0.000
 RMSDP=2.27D-05 MaxDP=1.03D-03 DE=-2.36D-05 OVMax= 4.30D-03

 Failed to achieve initial convergence to 1.0D-08 in 10 cycles.
 Switch to full accuracy anyway.
 Cycle  10  Pass 1  IDiag  1:
 E= -764.468626473368     Delta-E=       -0.000052141269 Rises=F Damp=F
 DIIS: error= 2.45D-05 at cycle   1 NSaved=   1.
 NSaved= 1 IEnMin= 1 EnMin= -764.468626473368     IErMin= 1 ErrMin= 2.45D-05
 ErrMax= 2.45D-05  0.00D+00 EMaxC= 1.00D+00 BMatC= 6.58D-07 BMatP= 6.58D-07
 IDIUse=1 WtCom= 1.00D+00 WtEn= 0.00D+00
 Coeff-Com:  0.100D+01
 Coeff:      0.100D+01
 Gap=     0.195 Goal=   None    Shift=    0.000
 RMSDP=2.27D-05 MaxDP=1.03D-03 DE=-5.21D-05 OVMax= 5.91D-04

 Cycle  11  Pass 1  IDiag  1:
 E= -764.468627104005     Delta-E=       -0.000000630638 Rises=F Damp=F
 DIIS: error= 1.83D-05 at cycle   2 NSaved=   2.
 NSaved= 2 IEnMin= 2 EnMin= -764.468627104005     IErMin= 2 ErrMin= 1.83D-05
 ErrMax= 1.83D-05  0.00D+00 EMaxC= 1.00D+00 BMatC= 1.90D-07 BMatP= 6.58D-07
 IDIUse=1 WtCom= 1.00D+00 WtEn= 0.00D+00
 Coeff-Com:  0.276D+00 0.724D+00
 Coeff:      0.276D+00 0.724D+00
 Gap=     0.195 Goal=   None    Shift=    0.000
 RMSDP=3.06D-06 MaxDP=3.49D-04 DE=-6.31D-07 OVMax= 3.60D-04

 Cycle  12  Pass 1  IDiag  1:
 E= -764.468627259996     Delta-E=       -0.000000155991 Rises=F Damp=F
 DIIS: error= 1.26D-05 at cycle   3 NSaved=   3.
 NSaved= 3 IEnMin= 3 EnMin= -764.468627259996     IErMin= 3 ErrMin= 1.26D-05
 ErrMax= 1.26D-05  0.00D+00 EMaxC= 1.00D+00 BMatC= 8.87D-08 BMatP= 1.90D-07
 IDIUse=1 WtCom= 1.00D+00 WtEn= 0.00D+00
 Coeff-Com: -0.459D-01 0.394D+00 0.652D+00
 Coeff:     -0.459D-01 0.394D+00 0.652D+00
 Gap=     0.195 Goal=   None    Shift=    0.000
 RMSDP=1.59D-06 MaxDP=1.72D-04 DE=-1.56D-07 OVMax= 2.24D-04

 Cycle  13  Pass 1  IDiag  1:
 E= -764.468627365446     Delta-E=       -0.000000105450 Rises=F Damp=F
 DIIS: error= 2.62D-06 at cycle   4 NSaved=   4.
 NSaved= 4 IEnMin= 4 EnMin= -764.468627365446     IErMin= 4 ErrMin= 2.62D-06
 ErrMax= 2.62D-06  0.00D+00 EMaxC= 1.00D+00 BMatC= 5.18D-09 BMatP= 8.87D-08
 IDIUse=1 WtCom= 1.00D+00 WtEn= 0.00D+00
 Coeff-Com: -0.267D-01 0.775D-01 0.156D+00 0.793D+00
 Coeff:     -0.267D-01 0.775D-01 0.156D+00 0.793D+00
 Gap=     0.195 Goal=   None    Shift=    0.000
 RMSDP=1.01D-06 MaxDP=8.15D-05 DE=-1.05D-07 OVMax= 1.67D-04

 Cycle  14  Pass 1  IDiag  1:
 E= -764.468627388732     Delta-E=       -0.000000023286 Rises=F Damp=F
 DIIS: error= 2.51D-06 at cycle   5 NSaved=   5.
 NSaved= 5 IEnMin= 5 EnMin= -764.468627388732     IErMin= 5 ErrMin= 2.51D-06
 ErrMax= 2.51D-06  0.00D+00 EMaxC= 1.00D+00 BMatC= 5.27D-09 BMatP= 5.18D-09
 IDIUse=1 WtCom= 1.00D+00 WtEn= 0.00D+00
 Coeff-Com:  0.947D-02-0.190D+00-0.321D+00 0.661D+00 0.841D+00
 Coeff:      0.947D-02-0.190D+00-0.321D+00 0.661D+00 0.841D+00
 Gap=     0.195 Goal=   None    Shift=    0.000
 RMSDP=1.10D-06 MaxDP=8.51D-05 DE=-2.33D-08 OVMax= 1.97D-04

 Cycle  15  Pass 1  IDiag  1:
 E= -764.468627409567     Delta-E=       -0.000000020835 Rises=F Damp=F
 DIIS: error= 8.22D-07 at cycle   6 NSaved=   6.
 NSaved= 6 IEnMin= 6 EnMin= -764.468627409567     IErMin= 6 ErrMin= 8.22D-07
 ErrMax= 8.22D-07  0.00D+00 EMaxC= 1.00D+00 BMatC= 6.83D-10 BMatP= 5.18D-09
 IDIUse=1 WtCom= 1.00D+00 WtEn= 0.00D+00
 Coeff-Com:  0.104D-01-0.109D+00-0.206D+00 0.162D+00 0.382D+00 0.759D+00
 Coeff:      0.104D-01-0.109D+00-0.206D+00 0.162D+00 0.382D+00 0.759D+00
 Gap=     0.195 Goal=   None    Shift=    0.000
 RMSDP=4.41D-07 MaxDP=2.15D-05 DE=-2.08D-08 OVMax= 8.69D-05

 Cycle  16  Pass 1  IDiag  1:
 E= -764.468627412841     Delta-E=       -0.000000003274 Rises=F Damp=F
 DIIS: error= 3.63D-07 at cycle   7 NSaved=   7.
 NSaved= 7 IEnMin= 7 EnMin= -764.468627412841     IErMin= 7 ErrMin= 3.63D-07
 ErrMax= 3.63D-07  0.00D+00 EMaxC= 1.00D+00 BMatC= 1.43D-10 BMatP= 6.83D-10
 IDIUse=1 WtCom= 1.00D+00 WtEn= 0.00D+00
[...]
     21 -0.612689D-02  0.667911D-01  0.425391D-01 -0.209758D-02  0.786073D-03
     22 -0.564671D-02  0.492281D-01 -0.553127D-02  0.350958D-01  0.438197D-03
     23 -0.898567D-02  0.723473D-04  0.431209D-01  0.499652D-01  0.408281D-03
     24 -0.292449D-04  0.106628D-02 -0.129469D-02  0.850864D-03  0.228514D-01
     25 -0.101016D-01  0.113452D-01 -0.367126D-02 -0.154674D-01  0.717837D-03
     26 -0.671751D-02  0.107719D-01 -0.370253D-02 -0.118348D-01  0.100623D-02
     27 -0.228756D-01  0.842990D-02  0.123473D-02  0.512575D-02 -0.580754D-03
     28  0.186216D-01  0.102763D-01 -0.663410D-03  0.241038D-02  0.761101D-03
     29 -0.258723D-01  0.983765D-02  0.956980D-03  0.199799D-02  0.641516D-04
     30  0.156248D-01  0.116840D-01 -0.941162D-03 -0.717378D-03  0.140601D-02
     31 -0.942860D-03 -0.380594D-02 -0.294737D-03 -0.401654D-02  0.600496D-04
     32  0.167278D-02  0.603069D-03  0.569685D-04  0.297864D-02  0.119699D-03
     33  0.290733D-02 -0.157111D-01 -0.469765D-01  0.167562D-02  0.146494D-03
     34 -0.389660D-02  0.229995D-01  0.399761D-02 -0.375920D-01 -0.187080D-03
     35 -0.126642D-01  0.150413D-01  0.471984D-01  0.103094D-01 -0.107806D-03
               11            12            13            14            15 
     11  0.183083D+00
     12 -0.102862D+00  0.166906D+00
     13 -0.789562D-01 -0.650091D-01  0.143981D+00
     14  0.889204D-01 -0.304367D-01 -0.575451D-01  0.625639D+00
     15  0.247624D-01 -0.117404D-01 -0.131084D-01  0.280183D-01  0.205575D+00
     16 -0.476441D-01  0.191160D-01  0.288806D-01 -0.375706D-01 -0.284155D-01
     17 -0.192738D-01  0.130494D-01  0.575621D-02 -0.170814D-01 -0.874966D-01
     18  0.169165D+00 -0.985734D-01 -0.705328D-01  0.316152D+00 -0.103132D-01
     19 -0.699418D-01  0.477155D-01  0.217043D-01 -0.979485D-01  0.426669D-02
     20 -0.173837D-01  0.979771D-02  0.838498D-02 -0.185944D-01  0.382001D-03
     21 -0.493933D-01  0.248115D-01  0.243093D-01 -0.121411D+00  0.209275D-02
     22 -0.385460D-01  0.211148D-01  0.175594D-01 -0.756336D-01  0.335754D-02
     23 -0.377643D-01  0.224186D-01  0.145945D-01 -0.867538D-01  0.281331D-02
     24 -0.534692D-02 -0.148179D-01  0.200516D-01 -0.442203D-02 -0.339556D-02
     25 -0.599451D-01  0.388098D-01  0.179485D-01 -0.123738D+00  0.370585D-02
     26 -0.532346D-01  0.242803D-01  0.285637D-01 -0.119106D+00  0.214961D-02
     27 -0.121715D-01  0.100905D-01  0.334992D-02 -0.409153D-01 -0.145050D-01
     28 -0.570725D-01  0.338551D-01  0.240716D-01 -0.722310D-01  0.528794D-02
     29 -0.174335D-01  0.672972D-02  0.921305D-02 -0.479149D-01 -0.130817D-01
     30 -0.623345D-01  0.304944D-01  0.299347D-01 -0.792306D-01  0.671118D-02
     31 -0.762660D-02  0.366324D-02  0.241632D-02 -0.241854D-02  0.141685D-02
     32  0.177900D-01 -0.128330D-01 -0.340589D-02  0.130601D-01  0.240164D-02
     33  0.831774D-01 -0.483174D-01 -0.346150D-01  0.171252D+00 -0.256416D-02
     34 -0.431178D-02  0.437096D-02 -0.763886D-03  0.392477D-03  0.141440D-02
     35 -0.558070D-01  0.360295D-01  0.182446D-01 -0.105933D+00  0.504942D-02
               16            17            18            19            20 
     16  0.186158D+00
     17 -0.861587D-01  0.139348D+00
     18 -0.654897D-02 -0.356379D-02  0.157474D+00
     19 -0.319417D-02  0.972948D-05  0.179016D-02  0.267492D+00
     20  0.401604D-02 -0.431180D-03 -0.234258D-01  0.191229D-01  0.150359D+00
     21  0.758678D-04  0.199883D-02 -0.497166D-01 -0.159888D+00 -0.241270D-01
     22  0.404959D-02  0.166892D-02 -0.676648D-01 -0.390376D-01 -0.925673D-01
     23  0.327213D-03  0.924136D-03 -0.358884D-01 -0.595996D-01 -0.288167D-01
     24  0.411703D-02  0.531758D-03  0.338516D-02 -0.459189D-02 -0.492179D-03
     25  0.169645D-01  0.110004D-01 -0.339194D-02  0.111875D-01 -0.262079D-01
     26  0.218889D-01  0.713451D-02 -0.680736D-02  0.762240D-02 -0.186556D-01
     27  0.223990D-03 -0.219941D-01  0.634804D-02 -0.411162D-02  0.420645D-02
     28  0.115909D-01  0.281311D-01 -0.117597D-01 -0.333486D-02  0.715026D-02
     29 -0.390874D-02 -0.186139D-01  0.117031D-01 -0.241671D-02 -0.352828D-02
     30  0.745820D-02  0.315114D-01 -0.640463D-02 -0.163995D-02 -0.584479D-03
     31  0.563917D-02  0.121505D-02 -0.918777D-02  0.726363D-02 -0.330684D-02
     32  0.551483D-02 -0.465417D-02  0.369994D-02 -0.280054D-02  0.305097D-02
     33  0.574946D-02 -0.172935D-02  0.591739D-01 -0.317517D-01 -0.517936D-02
     34 -0.486111D-05 -0.631027D-04  0.450472D-01  0.237484D-01 -0.285755D-01
     35 -0.100220D-03  0.862362D-03  0.806395D-02  0.116756D-01 -0.490850D-01
               21            22            23            24            25 
     21  0.198519D+00
     22  0.213807D-01  0.147716D+00
     23  0.553144D-03  0.723868D-02  0.175506D+00
     24  0.386304D-03  0.208719D-03 -0.497442D-03  0.176920D+00
     25  0.660170D-02  0.498906D-02  0.194897D-01 -0.204037D-02  0.109582D+00
     26  0.563273D-02  0.713382D-02  0.136415D-01 -0.152993D-02  0.822710D-01
     27 -0.383955D-02 -0.129378D-02 -0.569589D-02 -0.138266D-02 -0.455860D-02
     28  0.545819D-03  0.682667D-02 -0.199328D-02 -0.916055D-05  0.267729D-01
     29 -0.280407D-02 -0.367586D-02 -0.313311D-03  0.858879D-03  0.215960D-01
     30  0.158131D-02  0.444459D-02  0.338930D-02  0.223238D-02  0.529275D-01
     31  0.371204D-02  0.114551D-02  0.577316D-02  0.281115D-02  0.176270D-01
     32 -0.249470D-02 -0.442735D-03 -0.414662D-02  0.130563D-02 -0.171474D-01
     33 -0.648820D-01  0.157517D-01  0.439596D-02  0.204174D-02  0.327285D-03
     34  0.364215D-01 -0.198196D-01 -0.727699D-01 -0.115225D-02  0.210328D-01
     35  0.754707D-02 -0.227381D-01  0.938959D-01 -0.249599D-02  0.419038D-01
               26            27            28            29            30 
     26  0.805532D-01
     27  0.680194D-02  0.315950D-01
     28  0.356698D-01 -0.915800D-02  0.421565D-01
     29  0.898105D-02  0.195699D-01 -0.188411D-01  0.325866D-01
     30  0.378489D-01 -0.211831D-01  0.324734D-01 -0.582440D-02  0.478320D-01
     31  0.407594D-02 -0.681738D-02  0.454456D-03  0.683580D-02  0.141076D-01
     32 -0.354443D-02  0.441161D-02  0.444962D-02 -0.866842D-02 -0.863041D-02
     33  0.562095D-03  0.445804D-02  0.474735D-02  0.514397D-02  0.543328D-02
     34  0.147073D-01 -0.338070D-02 -0.236578D-02  0.263491D-02  0.364982D-02
     35  0.292674D-01 -0.975378D-02 -0.473268D-02  0.175891D-02  0.678001D-02
               31            32            33            34            35 
     31  0.167459D-01
     32  0.142431D-02  0.175186D-01
     33 -0.603254D-02  0.236658D-02  0.854664D-01
     34  0.401396D-02 -0.302194D-02 -0.234579D-01  0.726826D-01
     35  0.110610D-01 -0.762751D-02 -0.248504D-01  0.196255D-02  0.977158D-01
 Leave Link  716 at Sat May 24 08:05:02 2025, MaxMem=  3758096384 cpu:               0.0 elap:               0.0
 (Enter /apps/easybuild-2022/easybuild/software/Compiler/NVHPC/22.11-CUDA-11.7.0/Gaussian/g16c01-CUDA-11.7.0/g16/l9999.exe)

 ----------------------------------------------------------------------

 Electric dipole moment (input orientation):
 (Debye = 10**-18 statcoulomb cm , SI units = C m)
                  (au)            (Debye)         (10**-30 SI)
   Tot        0.131216D+01      0.333517D+01      0.111249D+02
   x          0.173162D+00      0.440134D+00      0.146813D+01
   y          0.129985D+01      0.330389D+01      0.110206D+02
   z         -0.464228D-01     -0.117995D+00     -0.393589D+00

 Dipole polarizability, Alpha (input orientation).
 (esu units = cm**3 , SI units = C**2 m**2 J**-1)
 Alpha(0;0):
               (au)            (10**-24 esu)      (10**-40 SI)
   iso        0.558066D+02      0.826968D+01      0.920127D+01
   aniso      0.306938D+02      0.454834D+01      0.506072D+01
   xx         0.711142D+02      0.105380D+02      0.117251D+02
   yx         0.153798D+01      0.227904D+00      0.253578D+00
   yy         0.556844D+02      0.825158D+01      0.918112D+01
   zx        -0.824821D+01     -0.122226D+01     -0.135995D+01
   zy         0.334220D+01      0.495263D+00      0.551055D+00
   zz         0.406212D+02      0.601944D+01      0.669753D+01

 ----------------------------------------------------------------------

 Dipole orientation:
     6          3.77797898         -0.53425329          2.51998709
     8          1.70261211         -1.27995765          3.36580576
     6          3.77394742          0.13570459         -0.12661609
     6         -0.55750671         -0.19757802          0.89654888
     9         -0.81103450         -0.53042312         -1.53976480
     9         -2.29579664         -1.63401443          1.94943102
     9         -0.87946504          2.13458373          1.60301904
     9          5.77127192          1.51761242         -0.85635128
     9          3.65634988         -1.92024228         -1.64704086
     8          5.71317767         -0.14113745          3.99881385
     1          5.20682239         -0.28552549          5.75037712

 Electric dipole moment (dipole orientation):
 (Debye = 10**-18 statcoulomb cm , SI units = C m)
                  (au)            (Debye)         (10**-30 SI)
   Tot        0.131216D+01      0.333517D+01      0.111249D+02
   x          0.000000D+00      0.000000D+00      0.000000D+00
   y          0.000000D+00      0.000000D+00      0.000000D+00
   z          0.131216D+01      0.333517D+01      0.111249D+02

 Dipole polarizability, Alpha (dipole orientation).
 (esu units = cm**3 , SI units = C**2 m**2 J**-1)
 Alpha(0;0):
               (au)            (10**-24 esu)      (10**-40 SI)
   iso        0.558066D+02      0.826968D+01      0.920127D+01
   aniso      0.306938D+02      0.454834D+01      0.506072D+01
   xx         0.721476D+02      0.106912D+02      0.118955D+02
   yx         0.431167D+01      0.638924D+00      0.710899D+00
   yy         0.390930D+02      0.579298D+01      0.644556D+01
   zx         0.340696D+01      0.504860D+00      0.561733D+00
   zy        -0.325290D+01     -0.482030D+00     -0.536331D+00
   zz         0.561792D+02      0.832489D+01      0.926269D+01

 ----------------------------------------------------------------------
 Unable to Open any file for archive entry.
 1\1\GINC-SPARTAN-BM189\Freq\RM062X\def2TZVPP\C3H1F5O2\AKHALILOV\24-May
 -2025\0\\#P M062X/Def2TZVPP Symm(None) scf(xqc) pop(None) opt(NoFreeze
 ,TS,CalcAll,NoEigentest,MaxCycle=999)\\Gaussian input prepared by ASE\
 \0,1\C,2.1774223315,1.0549686477,-0.0309474302\O,1.2115597767,1.654034
 2211,0.4890583243\C,1.9424567695,-0.3382729847,-0.3323186604\C,-0.2129
 140545,0.5117781083,0.1257214104\F,-0.4909206113,-0.744140014,0.363520
 7716\F,-0.9396264633,1.2015479651,0.9804030454\F,-0.4981301082,0.88382
 89831,-1.0875750256\F,2.8302469176,-0.8767215892,-1.1825549701\F,1.922
 6182228,-1.1080197836,0.7821165617\O,3.2580765577,1.6878015818,-0.3998
 539815\H,3.1276366612,2.6436348644,-0.3215950454\\Version=ES64L-G16Rev
 C.01\HF=-764.4863345\RMSD=7.537e-09\RMSF=1.332e-06\ZeroPoint=0.0491804
 \Thermal=0.0578573\ETot=-764.4284772\HTot=-764.427533\GTot=-764.471768
 9\Dipole=0.1731621,1.2998515,-0.0464228\DipoleDeriv=1.118271,0.5465218
 ,-0.2635924,1.5302303,1.0521532,-0.0370242,-0.1448172,-0.0592076,0.414
 4845,-0.0830407,-0.2485559,-0.0033477,0.3134182,-0.9986818,-0.3811759,
 0.0476963,-0.2085541,-0.4578445,0.1488368,-0.9377995,-0.5010208,-1.010
 617,0.6189318,-0.0212135,-0.1888165,-0.4452627,0.8513729,3.1431445,0.0
 787645,-0.3740144,-0.5732537,2.0319783,0.1367786,-0.2491814,0.0070054,
 1.7947819,-1.0631892,-0.1243655,0.217015,-0.6989999,-0.6842712,0.25237
 77,0.164592,0.1118094,-0.2675253,-0.8256526,0.1453586,0.3023471,0.3350
 84,-0.4190658,-0.2288054,0.3641701,-0.1628989,-0.5316485,-0.8591212,0.
 0860588,-0.1153098,0.2432086,-0.3233532,0.1508641,-0.5769661,0.1865176
 ,-0.7071471,-0.8076127,0.5944085,0.5873244,0.3709713,-0.4477812,-0.252
 2869,0.3825519,-0.2173827,-0.5571699,-0.0703547,0.3026227,-0.0085972,0
 .2237015,-0.5550607,0.2587665,-0.1643492,0.6003233,-0.5476564,-1.01445
 69,-0.5543993,0.130273,-0.8230712,-0.6511052,0.1429011,0.2760821,0.181
 4078,-0.3318528,0.3131757,0.1113852,0.0289228,0.0893277,0.3762558,-0.0
 211822,0.0890378,0.0062424,0.3402051\Polar=71.1141761,1.5379753,55.684
 4395,-8.2482065,3.3422011,40.6211797\PG=Unknown\NImag=1\\0.73033544,0.
 06255697,0.59762482,-0.22163932,0.00611406,0.30692827,-0.27104132,0.00
 906197,0.08589613,0.30250941,0.18534506,-0.26796705,-0.12710061,-0.234
 71171,0.29299802,0.13741941,-0.06261622,-0.13594187,-0.17688145,0.1537
 4779,0.16333839,-0.06706411,0.10843181,0.03109507,0.06546623,0.0074121
 4,-0.01673200,0.25125953,-0.05767929,-0.19314676,0.00898625,0.07946214
 ,-0.03189141,-0.05851265,-0.12417555,0.57785642,0.00284676,-0.01908369
 ,-0.06387276,0.00600075,-0.06673505,-0.01053221,-0.12886633,-0.0080976
 7,0.39565950,-0.05595736,-0.02844398,0.01451245,0.01275443,0.01913382,
 0.00461380,0.00804058,0.01611519,-0.03087421,0.26713382,-0.08102844,0.
 15202653,0.06197328,0.15760220,-0.02808782,-0.02332168,-0.04651626,-0.
 04527913,0.00720360,-0.04121664,0.48486616,-0.01297793,0.05140827,0.02
 264661,0.04269390,0.00298752,-0.03879494,-0.03130316,-0.01334174,0.000
 05191,-0.01882399,-0.08742217,0.59540630,-0.02291294,0.05408109,0.0144
 1224,0.04375912,-0.00070422,-0.01029426,-0.03631443,-0.03536302,0.0199
 9272,-0.06078276,-0.09828017,0.00335133,0.07536768,-0.01421427,0.02945
 283,0.00674924,0.02129356,0.00510546,-0.00533445,-0.00824054,-0.022744
 47,0.02034977,-0.02381404,-0.32184493,0.03956722,0.02550179,0.42125091
 ,0.00448110,-0.01351109,-0.00387960,-0.00804626,0.00127615,0.00506030,
 0.01725694,0.01312061,-0.00328205,0.00228421,0.05232770,-0.08007105,-0
 .02783857,-0.05784746,0.09311444,0.00277426,-0.01660078,-0.00606742,-0
 .06853809,0.00262871,0.02164716,0.00706095,-0.00411236,0.00226786,-0.1
 3739969,0.08609306,0.09684084,0.01256603,0.01421769,0.00539607,0.18302
 443,0.00359088,-0.01211741,-0.00376088,-0.02067170,0.00835439,0.005170
 18,0.00203434,0.00550477,-0.00022611,0.05998286,-0.13745649,-0.0729616
 7,0.03852324,-0.09045858,-0.04427911,-0.08767194,0.21029984,-0.0002460
 6,0.00005194,0.00107575,0.01500659,-0.00112370,0.00609546,0.00076711,0
 .00232450,-0.00097345,0.06878501,-0.07504122,-0.17229213,0.01093288,-0
 .02867439,0.00890037,-0.13223496,0.12620589,0.24017277,-0.00718368,0.0
 2492708,-0.00170250,0.00464301,0.00446647,-0.01479277,-0.01094924,-0.0
 1069156,-0.00438440,-0.07228356,0.01121307,-0.08400119,0.00531526,-0.0
 1157844,0.01057640,0.01175314,0.00305424,0.03367767,0.08080430,0.01246
 971,-0.02431170,-0.00858921,-0.02799461,0.00361097,-0.00431473,0.01078
 796,0.00745272,0.00300221,0.01175745,-0.08692013,0.08011799,0.01458695
 ,-0.02917748,0.05079385,-0.00054226,0.01525163,-0.02219031,-0.02430574
 ,0.11372437,-0.00595812,0.01634317,-0.00213109,-0.00000558,0.00521214,
 -0.00764321,-0.00284666,-0.01045152,0.00073649,-0.03899264,0.06270461,
 -0.31831819,-0.01200777,0.03363481,-0.02084178,0.01048895,-0.00973008,
 -0.08263789,0.05990517,-0.09931098,0.42693652,-0.02495662,0.00075909,0
 .01346282,0.02017209,0.02424254,0.00609856,-0.17584165,0.10438757,0.13
 021306,0.02875266,-0.01875161,-0.00282736,-0.01587024,-0.01246749,0.00
 257947,-0.00296992,0.00213046,0.00122688,-0.00852449,0.00468652,-0.007
 55113,0.17120002,0.04102993,-0.02132810,-0.03254885,-0.00627082,-0.014
 53120,-0.00037396,0.08429090,-0.12081228,-0.06788079,-0.01177913,0.004
 22053,0.00035478,0.00674058,0.00517083,-0.00161194,0.00232395,-0.00097
 791,-0.00072658,0.00365659,-0.00171134,0.00325756,-0.09933486,0.128505
 02,0.02214994,-0.01922424,-0.02260611,-0.00375821,-0.00453861,0.005304
 62,0.10024663,-0.06994606,-0.13754205,-0.00522555,0.00364369,-0.003472
 54,0.00485686,0.00337077,0.00021454,0.00205689,-0.00113992,-0.00025314
 ,0.00375135,-0.00195085,0.00372139,-0.15873820,0.09014500,0.21297912,0
 .00110372,-0.05513696,-0.00581141,-0.02407445,0.00765385,0.01023682,-0
 .01706108,0.04460923,-0.00160417,-0.00896727,0.01597808,0.00247833,-0.
 00104273,0.00927325,-0.00719660,-0.00146361,-0.00051069,0.00052669,-0.
 00006607,-0.00094444,0.00053386,-0.00268452,-0.02022425,0.03822026,0.0
 4976843,0.01074547,-0.04406513,0.04277413,-0.01693600,-0.00316540,-0.0
 0180104,0.01847908,-0.16081774,0.11926260,-0.01022223,0.00081397,0.009
 13855,0.00585947,0.00983285,-0.00307631,0.00256295,-0.00073856,-0.0014
 9673,0.00710994,-0.00223080,0.00387914,-0.00940099,0.01846909,-0.00233
 060,-0.00406801,0.18565424,-0.00767332,0.00709159,-0.00815106,0.008832
 00,0.01636440,0.00714365,0.01167176,0.13582553,-0.19327613,0.01507685,
 0.00055571,-0.00904129,-0.00742572,-0.01466443,0.00206602,-0.00409681,
 0.00119116,0.00209708,-0.00915653,0.00292935,-0.00464965,0.02157417,0.
 01031610,-0.06007137,-0.03406020,-0.16238014,0.26582820,-0.28629386,-0
 .10763077,0.07815487,-0.08860283,-0.02073030,0.04020236,-0.02412538,-0
 .01322073,-0.00138444,0.02160781,0.01765412,0.00548987,0.00003415,-0.0
 0012385,0.00050395,-0.00759509,-0.00048305,0.00177282,-0.00336965,-0.0
 0084956,-0.00340056,0.01108906,-0.00090781,-0.00363068,0.00583131,-0.0
 0276143,0.00593598,0.42539015,-0.15136609,-0.18372789,0.04475781,0.029
 38155,0.03091163,-0.00036587,-0.05364572,-0.01975927,0.00962865,0.0121
 2414,-0.01865552,-0.00937056,-0.01059437,-0.00628552,0.00284489,-0.000
 43584,0.00232405,0.00123292,-0.00831402,0.00394931,-0.00595088,0.00452
 450,0.00188351,0.00153794,0.00453651,-0.00396560,0.00353609,0.07447986
 ,0.67664418,0.07882331,0.02512075,-0.09393656,0.04170911,0.02049399,0.
 00965125,0.00820322,-0.00226939,0.00802647,-0.01164165,-0.00974415,-0.
 00034238,0.00153270,0.00153562,-0.00034661,0.00449618,0.00007519,-0.00
 198456,0.00498187,0.00048941,0.00454736,-0.00508082,0.00026929,0.00189
 341,-0.00117941,-0.00193401,-0.00089119,-0.13721285,0.00053952,0.09555
 697,0.00119648,-0.05200551,-0.00231293,0.00295239,0.00526363,-0.001517
 63,-0.00047140,0.00066839,0.00579239,-0.00289866,-0.00274742,-0.000920
 65,-0.00011913,0.00015234,0.00000327,0.00078760,0.00002135,-0.00021462
 ,-0.00013903,0.00034801,-0.00016553,-0.00036640,0.00047493,0.00007071,
 -0.00134374,-0.00136825,-0.00067817,-0.05396566,0.09930949,0.01536834,
 0.05436755,-0.01144994,-0.03244015,0.00064477,0.00978343,0.00466241,-0
 .00227737,0.00114185,0.00363714,0.00257648,-0.00363744,-0.00368317,-0.
 00047819,-0.00035135,-0.00030190,-0.00003730,0.00153682,0.00001427,-0.
 00056233,0.00046237,0.00036246,0.00041203,-0.00077572,0.00111185,0.000
 43290,-0.00116658,0.00021308,-0.00076536,0.05457351,-0.48331889,-0.034
 57620,-0.05011696,0.50974291,0.00277421,0.00830546,-0.00013159,-0.0114
 4699,-0.00058402,-0.00368143,0.01050744,0.00236214,0.00500429,0.000285
 73,0.00712063,0.00422771,0.00248757,0.00131329,-0.00093457,-0.00079476
 ,-0.00054466,-0.00020025,0.00114492,-0.00097672,0.00028005,-0.00095745
 ,-0.00120061,-0.00016787,-0.00214417,-0.00203557,-0.00105427,0.0135686
 8,-0.04839051,-0.02217416,-0.01542519,0.03463057,0.01883212\\0.0000005
 2,-0.00000122,-0.00000112,-0.00000005,0.00000014,0.00000046,0.00000008
 ,0.00000119,-0.00000099,0.00000064,-0.00000008,0.00000209,0.,-0.000000
 13,0.00000248,0.00000145,-0.00000037,0.00000306,-0.00000120,0.00000009
 ,0.00000257,-0.00000129,0.00000037,-0.00000219,0.00000102,-0.00000014,
 -0.00000157,-0.00000058,-0.00000001,-0.00000253,-0.00000060,0.00000017
 ,-0.00000226\\\@
 The archive entry for this job was punched.


 THE CHYMISTS ARE A STRANGE CLASS OF MORTALS IMPELLED
 BY AN ALMOST INSANE IMPULSE TO SEEK THEIR PLEASURE
 AMONG SMOKE AND VAPOR, SOOT AND FLAME, POISONS AND
 POVERTY; YET AMONG ALL THESE EVILS I SEEM TO LIVE
 SO SWEETLY, THAT I MAY DIE IF I WOULD CHANGE PLACES
 WITH THE PERSIAN KING.
   --  JOHANN JOACHIM BECHER, 1635-1682
 ACTA LABORATORII CHYMICA MONACENSIS, 1669
 Job cpu time:       0 days  3 hours 55 minutes 31.5 seconds.
 Elapsed time:       0 days  0 hours 31 minutes 36.6 seconds.
 File lengths (MBytes):  RWF=    122 Int=      0 D2E=      0 Chk=      9 Scr=      1
 Normal termination of Gaussian 16 at Sat May 24 08:05:03 2025.
done
