 Entering Gaussian System, Link 0=g16
 Initial command:
 /apps/easybuild-2022/easybuild/software/Compiler/NVHPC/22.11-CUDA-11.7.0/Gaussian/g16c01-CUDA-11.7.0/g16/l1.exe "/tmp/Gau-170518.inp" -scrdir="/tmp/"
 Entering Link 1 = /apps/easybuild-2022/easybuild/software/Compiler/NVHPC/22.11-CUDA-11.7.0/Gaussian/g16c01-CUDA-11.7.0/g16/l1.exe PID=    170519.
  
 Copyright (c) 1988-2019, Gaussian, Inc.  All Rights Reserved.
  
 This is part of the Gaussian(R) 16 program.  It is based on
 the Gaussian(R) 09 system (copyright 2009, Gaussian, Inc.),
 the Gaussian(R) 03 system (copyright 2003, Gaussian, Inc.),
 the Gaussian(R) 98 system (copyright 1998, Gaussian, Inc.),
 the Gaussian(R) 94 system (copyright 1995, Gaussian, Inc.),
 the Gaussian 92(TM) system (copyright 1992, Gaussian, Inc.),
 the Gaussian 90(TM) system (copyright 1990, Gaussian, Inc.),
 the Gaussian 88(TM) system (copyright 1988, Gaussian, Inc.),
 the Gaussian 86(TM) system (copyright 1986, Carnegie Mellon
 University), and the Gaussian 82(TM) system (copyright 1983,
 Carnegie Mellon University). Gaussian is a federally registered
 trademark of Gaussian, Inc.
  
 This software contains proprietary and confidential information,
 including trade secrets, belonging to Gaussian, Inc.
  
 This software is provided under written license and may be
 used, copied, transmitted, or stored only in accord with that
 written license.
  
 The following legend is applicable only to US Government
 contracts under FAR:
  
                    RESTRICTED RIGHTS LEGEND
  
 Use, reproduction and disclosure by the US Government is
 subject to restrictions as set forth in subparagraphs (a)
 and (c) of the Commercial Computer Software - Restricted
 Rights clause in FAR 52.227-19.
  
 Gaussian, Inc.
 340 Quinnipiac St., Bldg. 40, Wallingford CT 06492
  
  
 ---------------------------------------------------------------
 Warning -- This program may not be used in any manner that
 competes with the business of Gaussian, Inc. or will provide
 assistance to any competitor of Gaussian, Inc.  The licensee
 of this program is prohibited from giving any competitor of
 Gaussian, Inc. access to this program.  By using this program,
 the user acknowledges that Gaussian, Inc. is engaged in the
 business of creating and licensing software in the field of
 computational chemistry and represents and warrants to the
 licensee that it is not a competitor of Gaussian, Inc. and that
 it will not use this program in any manner prohibited above.
 ---------------------------------------------------------------
  

 Cite this work as:
 Gaussian 16, Revision C.01,
 M. J. Frisch, G. W. Trucks, H. B. Schlegel, G. E. Scuseria, 
 M. A. Robb, J. R. Cheeseman, G. Scalmani, V. Barone, 
 G. A. Petersson, H. Nakatsuji, X. Li, M. Caricato, A. V. Marenich, 
 J. Bloino, B. G. Janesko, R. Gomperts, B. Mennucci, H. P. Hratchian, 
 J. V. Ortiz, A. F. Izmaylov, J. L. Sonnenberg, D. Williams-Young, 
 F. Ding, F. Lipparini, F. Egidi, J. Goings, B. Peng, A. Petrone, 
 T. Henderson, D. Ranasinghe, V. G. Zakrzewski, J. Gao, N. Rega, 
 G. Zheng, W. Liang, M. Hada, M. Ehara, K. Toyota, R. Fukuda, 
 J. Hasegawa, M. Ishida, T. Nakajima, Y. Honda, O. Kitao, H. Nakai, 
 T. Vreven, K. Throssell, J. A. Montgomery, Jr., J. E. Peralta, 
 F. Ogliaro, M. J. Bearpark, J. J. Heyd, E. N. Brothers, K. N. Kudin, 
 V. N. Staroverov, T. A. Keith, R. Kobayashi, J. Normand, 
 K. Raghavachari, A. P. Rendell, J. C. Burant, S. S. Iyengar, 
 J. Tomasi, M. Cossi, J. M. Millam, M. Klene, C. Adamo, R. Cammi, 
 J. W. Ochterski, R. L. Martin, K. Morokuma, O. Farkas, 
 J. B. Foresman, and D. J. Fox, Gaussian, Inc., Wallingford CT, 2019.
 
 ******************************************
 Gaussian 16:  ES64L-G16RevC.01  3-Jul-2019
                24-May-2025 
 ******************************************
 %mem=28GB
 %nprocshared=8
 Will use up to    8 processors via shared memory.
 -----------------------------------------------------------------
 #P M062X/Def2TZVPP Symm(None) scf(xqc) pop(None) freq opt(CalcFC)
 -----------------------------------------------------------------
 1/10=4,18=20,19=15,26=3,38=1/1,3;
 2/9=110,12=2,15=3,17=6,18=5,40=1/2;
 3/5=44,7=202,11=2,25=1,30=1,71=2,74=-55,140=1/1,2,3;
 4//1;
 5/5=2,8=3,13=1,38=5/2,8;
 8/6=4,10=90,11=11/1;
 11/6=1,8=1,9=11,15=111,16=1,31=1/1,2,10;
 10/6=1,13=1,31=1/2;
 7/10=1,25=1,30=1/1,2,3,16;
 1/10=4,18=20,19=15,26=3/3(2);
 2/9=110,15=3/2;
 99//99;
 2/9=110,15=3/2;
 3/5=44,7=202,11=2,25=1,30=1,71=1,74=-55/1,2,3;
 4/5=5,16=3,69=1/1;
 5/5=2,8=3,13=1,38=5/2,8;
 7/30=1/1,2,3,16;
 1/18=20,19=15,26=3/3(-5);
 2/9=110,15=3/2;
 99/9=1/99;
 Leave Link    1 at Sat May 24 08:42:07 2025, MaxMem=  3758096384 cpu:               0.0 elap:               0.0
 (Enter /apps/easybuild-2022/easybuild/software/Compiler/NVHPC/22.11-CUDA-11.7.0/Gaussian/g16c01-CUDA-11.7.0/g16/l101.exe)
 ------------------------------
 Gaussian input prepared by ASE
 ------------------------------
 Symbolic Z-matrix:
 Charge =  0 Multiplicity = 1
 C                     0.71313   1.97203  -1.00993 
 O                     0.96845   0.        0. 
 C                    -0.80591   1.69534  -0.96645 
 C                    -1.48652   0.92439  -2.11682 
 F                    -2.78432   0.79663  -1.8808 
 F                    -1.32867   1.57437  -3.26566 
 F                    -0.95792  -0.28956  -2.2356 
 F                    -1.03497   1.00327   0.15996 
 F                    -1.40825   2.89149  -0.88434 
 O                     1.20869   1.42288   0. 
 H                     0.        0.        0. 
 
 ITRead=  0  0  0  0  0  0  0  0  0  0  0
 MicOpt= -1 -1 -1 -1 -1 -1 -1 -1 -1 -1 -1
 NAtoms=     11 NQM=       11 NQMF=       0 NMMI=      0 NMMIF=      0
                NMic=       0 NMicF=      0.
                    Isotopes and Nuclear Properties:
 (Nuclear quadrupole moments (NQMom) in fm**2, nuclear magnetic moments (NMagM)
  in nuclear magnetons)

  Atom         1           2           3           4           5           6           7           8           9          10
 IAtWgt=          12          16          12          12          19          19          19          19          19          16
 AtmWgt=  12.0000000  15.9949146  12.0000000  12.0000000  18.9984032  18.9984032  18.9984032  18.9984032  18.9984032  15.9949146
 NucSpn=           0           0           0           0           1           1           1           1           1           0
 AtZEff=  -0.0000000  -0.0000000  -0.0000000  -0.0000000  -0.0000000  -0.0000000  -0.0000000  -0.0000000  -0.0000000  -0.0000000
 NQMom=    0.0000000   0.0000000   0.0000000   0.0000000   0.0000000   0.0000000   0.0000000   0.0000000   0.0000000   0.0000000
 NMagM=    0.0000000   0.0000000   0.0000000   0.0000000   2.6288670   2.6288670   2.6288670   2.6288670   2.6288670   0.0000000
 AtZNuc=   6.0000000   8.0000000   6.0000000   6.0000000   9.0000000   9.0000000   9.0000000   9.0000000   9.0000000   8.0000000

  Atom        11
 IAtWgt=           1
 AtmWgt=   1.0078250
 NucSpn=           1
 AtZEff=  -0.0000000
 NQMom=    0.0000000
 NMagM=    2.7928460
 AtZNuc=   1.0000000
 Leave Link  101 at Sat May 24 08:42:07 2025, MaxMem=  3758096384 cpu:               0.2 elap:               0.2
 (Enter /apps/easybuild-2022/easybuild/software/Compiler/NVHPC/22.11-CUDA-11.7.0/Gaussian/g16c01-CUDA-11.7.0/g16/l103.exe)

 GradGradGradGradGradGradGradGradGradGradGradGradGradGradGradGradGradGrad
 Berny optimization.
 Initialization pass.
                           ----------------------------
                           !    Initial Parameters    !
                           ! (Angstroms and Degrees)  !
 --------------------------                            --------------------------
 ! Name  Definition              Value          Derivative Info.                !
 --------------------------------------------------------------------------------
 ! R1    R(1,3)                  1.5447         calculate D2E/DX2 analytically  !
 ! R2    R(1,10)                 1.2518         calculate D2E/DX2 analytically  !
 ! R3    R(2,10)                 1.443          calculate D2E/DX2 analytically  !
 ! R4    R(2,11)                 0.9685         calculate D2E/DX2 analytically  !
 ! R5    R(3,4)                  1.543          calculate D2E/DX2 analytically  !
 ! R6    R(3,8)                  1.3417         calculate D2E/DX2 analytically  !
 ! R7    R(3,9)                  1.3418         calculate D2E/DX2 analytically  !
 ! R8    R(4,5)                  1.3253         calculate D2E/DX2 analytically  !
 ! R9    R(4,6)                  1.3294         calculate D2E/DX2 analytically  !
 ! R10   R(4,7)                  1.3294         calculate D2E/DX2 analytically  !
 ! A1    A(3,1,10)             106.739          calculate D2E/DX2 analytically  !
 ! A2    A(10,2,11)             99.5833         calculate D2E/DX2 analytically  !
 ! A3    A(1,3,4)              120.1511         calculate D2E/DX2 analytically  !
 ! A4    A(1,3,8)              106.4943         calculate D2E/DX2 analytically  !
 ! A5    A(1,3,9)              106.4695         calculate D2E/DX2 analytically  !
 ! A6    A(4,3,8)              107.0302         calculate D2E/DX2 analytically  !
 ! A7    A(4,3,9)              107.0389         calculate D2E/DX2 analytically  !
 ! A8    A(8,3,9)              109.3793         calculate D2E/DX2 analytically  !
 ! A9    A(3,4,5)              110.3244         calculate D2E/DX2 analytically  !
 ! A10   A(3,4,6)              110.3418         calculate D2E/DX2 analytically  !
 ! A11   A(3,4,7)              110.3328         calculate D2E/DX2 analytically  !
 ! A12   A(5,4,6)              108.5013         calculate D2E/DX2 analytically  !
 ! A13   A(5,4,7)              108.4983         calculate D2E/DX2 analytically  !
 ! A14   A(6,4,7)              108.7877         calculate D2E/DX2 analytically  !
 ! A15   A(1,10,2)             111.5088         calculate D2E/DX2 analytically  !
 ! D1    D(10,1,3,4)          -119.8565         calculate D2E/DX2 analytically  !
 ! D2    D(10,1,3,8)             1.8276         calculate D2E/DX2 analytically  !
 ! D3    D(10,1,3,9)           118.469          calculate D2E/DX2 analytically  !
 ! D4    D(3,1,10,2)            59.9644         calculate D2E/DX2 analytically  !
 ! D5    D(11,2,10,1)          -60.1286         calculate D2E/DX2 analytically  !
 ! D6    D(1,3,4,5)            179.9465         calculate D2E/DX2 analytically  !
 ! D7    D(1,3,4,6)            -60.1711         calculate D2E/DX2 analytically  !
 ! D8    D(1,3,4,7)             60.0734         calculate D2E/DX2 analytically  !
 ! D9    D(8,3,4,5)             58.5252         calculate D2E/DX2 analytically  !
 ! D10   D(8,3,4,6)            178.4077         calculate D2E/DX2 analytically  !
 ! D11   D(8,3,4,7)            -61.3478         calculate D2E/DX2 analytically  !
 ! D12   D(9,3,4,5)            -58.6584         calculate D2E/DX2 analytically  !
 ! D13   D(9,3,4,6)             61.224          calculate D2E/DX2 analytically  !
 ! D14   D(9,3,4,7)           -178.5315         calculate D2E/DX2 analytically  !
 --------------------------------------------------------------------------------
 Trust Radius=3.00D-01 FncErr=1.00D-07 GrdErr=1.00D-06 EigMax=2.50D+02 EigMin=1.00D-04
 Number of steps in this run=     49 maximum allowed number of steps=    100.
 GradGradGradGradGradGradGradGradGradGradGradGradGradGradGradGradGradGrad

 Leave Link  103 at Sat May 24 08:42:07 2025, MaxMem=  3758096384 cpu:               0.0 elap:               0.0
 (Enter /apps/easybuild-2022/easybuild/software/Compiler/NVHPC/22.11-CUDA-11.7.0/Gaussian/g16c01-CUDA-11.7.0/g16/l202.exe)
                          Input orientation:                          
 ---------------------------------------------------------------------
 Center     Atomic      Atomic             Coordinates (Angstroms)
 Number     Number       Type             X           Y           Z
 ---------------------------------------------------------------------
      1          6           0        0.713133    1.972027   -1.009931
      2          8           0        0.968454    0.000000    0.000000
      3          6           0       -0.805914    1.695336   -0.966448
      4          6           0       -1.486521    0.924390   -2.116824
      5          9           0       -2.784321    0.796633   -1.880804
      6          9           0       -1.328668    1.574368   -3.265658
      7          9           0       -0.957921   -0.289557   -2.235596
      8          9           0       -1.034974    1.003267    0.159960
      9          9           0       -1.408248    2.891486   -0.884344
     10          8           0        1.208690    1.422883    0.000000
     11          1           0        0.000000    0.000000    0.000000
 ---------------------------------------------------------------------
                    Distance matrix (angstroms):
                    1          2          3          4          5
     1  C    0.000000
     2  O    2.230256   0.000000
     3  C    1.544653   2.637530   0.000000
     4  C    2.676048   3.370807   1.543033   0.000000
     5  F    3.791062   4.272630   2.357500   1.325259   0.000000
     6  F    3.068450   4.291844   2.360990   1.329364   2.154442
     7  F    3.067481   2.965240   2.360857   1.329358   2.154397
     8  F    2.315819   2.246298   1.341724   2.322469   2.695855
     9  F    2.315476   3.845967   1.341760   2.322628   2.697205
    10  O    1.251838   1.443021   2.250974   3.463178   4.457998
    11  H    2.327533   0.968454   2.111322   2.746850   3.453186
                    6          7          8          9         10
     6  F    0.000000
     7  F    2.161643   0.000000
     8  F    3.485294   2.723238   0.000000
     9  F    2.722460   3.485357   2.189811   0.000000
    10  O    4.138315   3.553103   2.288164   3.128454   0.000000
    11  H    3.861154   2.449356   1.450277   3.335553   1.866957
                   11
    11  H    0.000000
 Symmetry turned off by external request.
 Stoichiometry    C3HF5O2
 Rotational constants (GHZ):           2.1508951           1.1575957           1.0273906
 Leave Link  202 at Sat May 24 08:42:07 2025, MaxMem=  3758096384 cpu:               0.0 elap:               0.0
 (Enter /apps/easybuild-2022/easybuild/software/Compiler/NVHPC/22.11-CUDA-11.7.0/Gaussian/g16c01-CUDA-11.7.0/g16/l301.exe)
 Standard basis: def2TZVPP (5D, 7F)
 Ernie: Thresh=  0.10000D-02 Tol=  0.10000D-05 Strict=F.
   324 basis functions,   527 primitive gaussians,   375 cartesian basis functions
    40 alpha electrons       40 beta electrons
       nuclear repulsion energy       643.4788930981 Hartrees.
 IExCor= 4336 DFT=T Ex+Corr=M062X ExCW=0 ScaHFX=  0.540000
 ScaDFX=  1.000000  1.000000  1.000000  1.000000 ScalE2=  1.000000  1.000000
 IRadAn=      5 IRanWt=     -1 IRanGd=            0 ICorTp=0 IEmpDi=  4
 NAtoms=   11 NActive=   11 NUniq=   11 SFac= 1.00D+00 NAtFMM=   60 NAOKFM=F Big=F
 Integral buffers will be    131072 words long.
 Raffenetti 2 integral format.
 Two-electron integral symmetry is turned off.
 Leave Link  301 at Sat May 24 08:42:07 2025, MaxMem=  3758096384 cpu:               0.1 elap:               0.0
 (Enter /apps/easybuild-2022/easybuild/software/Compiler/NVHPC/22.11-CUDA-11.7.0/Gaussian/g16c01-CUDA-11.7.0/g16/l302.exe)
 NPDir=0 NMtPBC=     1 NCelOv=     1 NCel=       1 NClECP=     1 NCelD=      1
         NCelK=      1 NCelE2=     1 NClLst=     1 CellRange=     0.0.
 One-electron integrals computed using PRISM.
   1 Symmetry operations used in ECPInt.
 ECPInt:  NShTT=    6786 NPrTT=   21959 LenC2=    6495 LenP2D=   16089.
 LDataN:  DoStor=T MaxTD1= 6 Len=  172
 NBasis=   324 RedAO= T EigKep=  4.13D-04  NBF=   324
 NBsUse=   324 1.00D-06 EigRej= -1.00D+00 NBFU=   324
 Precomputing XC quadrature grid using
 IXCGrd= 4 IRadAn=           5 IRanWt=          -1 IRanGd=           0 AccXCQ= 0.00D+00.
 Generated NRdTot=       0 NPtTot=           0 NUsed=           0 NTot=          32
 NSgBfM=   373   373   373   373   373 MxSgAt=    11 MxSgA2=    11.
 Leave Link  302 at Sat May 24 08:42:07 2025, MaxMem=  3758096384 cpu:               0.7 elap:               0.2
 (Enter /apps/easybuild-2022/easybuild/software/Compiler/NVHPC/22.11-CUDA-11.7.0/Gaussian/g16c01-CUDA-11.7.0/g16/l303.exe)
 DipDrv:  MaxL=1.
 Leave Link  303 at Sat May 24 08:42:07 2025, MaxMem=  3758096384 cpu:               0.1 elap:               0.0
 (Enter /apps/easybuild-2022/easybuild/software/Compiler/NVHPC/22.11-CUDA-11.7.0/Gaussian/g16c01-CUDA-11.7.0/g16/l401.exe)
 ExpMin= 9.52D-02 ExpMax= 3.55D+04 ExpMxC= 1.21D+03 IAcc=3 IRadAn=         5 AccDes= 0.00D+00
 Harris functional with IExCor= 1009 and IRadAn=       5 diagonalized for initial guess.
 HarFok:  IExCor= 1009 AccDes= 0.00D+00 IRadAn=         5 IDoV= 1 UseB2=F ITyADJ=14
 ICtDFT=  3500011 ScaDFX=  1.000000  1.000000  1.000000  1.000000
 FoFCou: FMM=F IPFlag=           0 FMFlag=      100000 FMFlg1=           0
         NFxFlg=           0 DoJE=T BraDBF=F KetDBF=T FulRan=T
         wScrn=  0.000000 ICntrl=       500 IOpCl=  0 I1Cent=   200000004 NGrid=           0
         NMat0=    1 NMatS0=      1 NMatT0=    0 NMatD0=    1 NMtDS0=    0 NMtDT0=    0
 Symmetry not used in FoFCou.
 Harris En= -763.925643316462    
 JPrj=0 DoOrth=F DoCkMO=F.
 Leave Link  401 at Sat May 24 08:42:08 2025, MaxMem=  3758096384 cpu:               3.9 elap:               0.6
 (Enter /apps/easybuild-2022/easybuild/software/Compiler/NVHPC/22.11-CUDA-11.7.0/Gaussian/g16c01-CUDA-11.7.0/g16/l502.exe)
 Keep R1 ints in memory in canonical form, NReq=1412617130.
 FoFCou: FMM=F IPFlag=           0 FMFlag=           0 FMFlg1=           0
         NFxFlg=           0 DoJE=F BraDBF=F KetDBF=F FulRan=T
         wScrn=  0.000000 ICntrl=       600 IOpCl=  0 I1Cent=           0 NGrid=           0
         NMat0=    1 NMatS0=  52650 NMatT0=    0 NMatD0=    1 NMtDS0=    0 NMtDT0=    0
 Symmetry not used in FoFCou.
 Two-electron integral symmetry not used.
 Closed shell SCF:
 Using DIIS extrapolation, IDIIS=  1040.
 NGot=  3758096384 LenX=  2371771924 LenY=  2371630858
 Requested convergence on RMS density matrix=1.00D-08 within  32 cycles.
 Requested convergence on MAX density matrix=1.00D-06.
 Requested convergence on             energy=1.00D-06.
 No special actions if energy rises.
 Integral accuracy reduced to 1.0D-05 until final iterations.

 Cycle   1  Pass 0  IDiag  1:
 E= -764.272299680677    
 DIIS: error= 1.62D-02 at cycle   1 NSaved=   1.
 NSaved= 1 IEnMin= 1 EnMin= -764.272299680677     IErMin= 1 ErrMin= 1.62D-02
 ErrMax= 1.62D-02  0.00D+00 EMaxC= 1.00D-01 BMatC= 2.69D-01 BMatP= 2.69D-01
 IDIUse=3 WtCom= 8.38D-01 WtEn= 1.62D-01
 Coeff-Com:  0.100D+01
 Coeff-En:   0.100D+01
 Coeff:      0.100D+01
 Gap=     0.224 Goal=   None    Shift=    0.000
 GapD=    0.224 DampG=1.000 DampE=0.500 DampFc=0.5000 IDamp=-1.
 Damping current iteration by 5.00D-01
 RMSDP=1.90D-03 MaxDP=6.22D-02              OVMax= 1.52D-01

 Cycle   2  Pass 0  IDiag  1:
 E= -764.326770534159     Delta-E=       -0.054470853481 Rises=F Damp=T
 DIIS: error= 6.62D-03 at cycle   2 NSaved=   2.
 NSaved= 2 IEnMin= 2 EnMin= -764.326770534159     IErMin= 2 ErrMin= 6.62D-03
 ErrMax= 6.62D-03  0.00D+00 EMaxC= 1.00D-01 BMatC= 3.50D-02 BMatP= 2.69D-01
 IDIUse=3 WtCom= 9.34D-01 WtEn= 6.62D-02
 Coeff-Com: -0.465D-01 0.105D+01
 Coeff-En:   0.593D-01 0.941D+00
 Coeff:     -0.395D-01 0.104D+01
 Gap=     0.245 Goal=   None    Shift=    0.000
 RMSDP=6.50D-04 MaxDP=2.02D-02 DE=-5.45D-02 OVMax= 7.75D-02

 Cycle   3  Pass 0  IDiag  1:
 E= -764.390202115074     Delta-E=       -0.063431580916 Rises=F Damp=F
 DIIS: error= 3.05D-03 at cycle   3 NSaved=   3.
 NSaved= 3 IEnMin= 3 EnMin= -764.390202115074     IErMin= 3 ErrMin= 3.05D-03
 ErrMax= 3.05D-03  0.00D+00 EMaxC= 1.00D-01 BMatC= 1.12D-02 BMatP= 3.50D-02
 IDIUse=3 WtCom= 9.70D-01 WtEn= 3.05D-02
 Coeff-Com: -0.147D+00 0.378D+00 0.769D+00
 Coeff-En:   0.000D+00 0.000D+00 0.100D+01
 Coeff:     -0.142D+00 0.366D+00 0.776D+00
 Gap=     0.231 Goal=   None    Shift=    0.000
 RMSDP=2.68D-04 MaxDP=1.42D-02 DE=-6.34D-02 OVMax= 4.66D-02

 Cycle   4  Pass 0  IDiag  1:
 E= -764.396984082330     Delta-E=       -0.006781967256 Rises=F Damp=F
 DIIS: error= 1.52D-03 at cycle   4 NSaved=   4.
 NSaved= 4 IEnMin= 4 EnMin= -764.396984082330     IErMin= 4 ErrMin= 1.52D-03
 ErrMax= 1.52D-03  0.00D+00 EMaxC= 1.00D-01 BMatC= 1.85D-03 BMatP= 1.12D-02
 IDIUse=3 WtCom= 9.85D-01 WtEn= 1.52D-02
 Coeff-Com: -0.708D-01 0.141D+00 0.420D+00 0.510D+00
 Coeff-En:   0.000D+00 0.000D+00 0.326D-01 0.967D+00
 Coeff:     -0.697D-01 0.139D+00 0.414D+00 0.517D+00
 Gap=     0.231 Goal=   None    Shift=    0.000
 RMSDP=8.54D-05 MaxDP=4.63D-03 DE=-6.78D-03 OVMax= 7.20D-03

 Cycle   5  Pass 0  IDiag  1:
 E= -764.398270069355     Delta-E=       -0.001285987025 Rises=F Damp=F
 DIIS: error= 2.71D-04 at cycle   5 NSaved=   5.
 NSaved= 5 IEnMin= 5 EnMin= -764.398270069355     IErMin= 5 ErrMin= 2.71D-04
 ErrMax= 2.71D-04  0.00D+00 EMaxC= 1.00D-01 BMatC= 7.66D-05 BMatP= 1.85D-03
 IDIUse=3 WtCom= 9.97D-01 WtEn= 2.71D-03
 Coeff-Com: -0.164D-01 0.252D-01 0.115D+00 0.195D+00 0.681D+00
 Coeff-En:   0.000D+00 0.000D+00 0.000D+00 0.000D+00 0.100D+01
 Coeff:     -0.163D-01 0.251D-01 0.115D+00 0.195D+00 0.681D+00
 Gap=     0.231 Goal=   None    Shift=    0.000
 RMSDP=4.04D-05 MaxDP=3.18D-03 DE=-1.29D-03 OVMax= 8.30D-03

 Cycle   6  Pass 0  IDiag  1:
 E= -764.398385682205     Delta-E=       -0.000115612850 Rises=F Damp=F
 DIIS: error= 2.05D-04 at cycle   6 NSaved=   6.
 NSaved= 6 IEnMin= 6 EnMin= -764.398385682205     IErMin= 6 ErrMin= 2.05D-04
 ErrMax= 2.05D-04  0.00D+00 EMaxC= 1.00D-01 BMatC= 2.17D-05 BMatP= 7.66D-05
 IDIUse=3 WtCom= 9.98D-01 WtEn= 2.05D-03
 Coeff-Com:  0.534D-02-0.128D-01-0.208D-01-0.498D-01 0.207D+00 0.872D+00
 Coeff-En:   0.000D+00 0.000D+00 0.000D+00 0.000D+00 0.000D+00 0.100D+01
 Coeff:      0.533D-02-0.128D-01-0.207D-01-0.497D-01 0.206D+00 0.872D+00
 Gap=     0.232 Goal=   None    Shift=    0.000
 RMSDP=3.17D-05 MaxDP=2.01D-03 DE=-1.16D-04 OVMax= 7.26D-03

 Cycle   7  Pass 0  IDiag  1:
 E= -764.398440048672     Delta-E=       -0.000054366467 Rises=F Damp=F
 DIIS: error= 8.92D-05 at cycle   7 NSaved=   7.
 NSaved= 7 IEnMin= 7 EnMin= -764.398440048672     IErMin= 7 ErrMin= 8.92D-05
 ErrMax= 8.92D-05  0.00D+00 EMaxC= 1.00D-01 BMatC= 5.90D-06 BMatP= 2.17D-05
 IDIUse=1 WtCom= 1.00D+00 WtEn= 0.00D+00
 Coeff-Com:  0.852D-02-0.156D-01-0.461D-01-0.997D-01-0.859D-01 0.356D+00
 Coeff-Com:  0.883D+00
 Coeff:      0.852D-02-0.156D-01-0.461D-01-0.997D-01-0.859D-01 0.356D+00
 Coeff:      0.883D+00
 Gap=     0.232 Goal=   None    Shift=    0.000
 RMSDP=2.68D-05 MaxDP=2.21D-03 DE=-5.44D-05 OVMax= 6.10D-03

 Cycle   8  Pass 0  IDiag  1:
 E= -764.398464468250     Delta-E=       -0.000024419579 Rises=F Damp=F
 DIIS: error= 5.75D-05 at cycle   8 NSaved=   8.
 NSaved= 8 IEnMin= 8 EnMin= -764.398464468250     IErMin= 8 ErrMin= 5.75D-05
 ErrMax= 5.75D-05  0.00D+00 EMaxC= 1.00D-01 BMatC= 1.75D-06 BMatP= 5.90D-06
 IDIUse=1 WtCom= 1.00D+00 WtEn= 0.00D+00
 Coeff-Com:  0.170D-02-0.248D-02-0.788D-02-0.222D-01-0.565D-01-0.130D+00
 Coeff-Com:  0.369D+00 0.849D+00
 Coeff:      0.170D-02-0.248D-02-0.788D-02-0.222D-01-0.565D-01-0.130D+00
 Coeff:      0.369D+00 0.849D+00
 Gap=     0.232 Goal=   None    Shift=    0.000
 RMSDP=1.28D-05 MaxDP=1.00D-03 DE=-2.44D-05 OVMax= 3.01D-03

 Cycle   9  Pass 0  IDiag  1:
 E= -764.398469990731     Delta-E=       -0.000005522481 Rises=F Damp=F
 DIIS: error= 1.79D-05 at cycle   9 NSaved=   9.
 NSaved= 9 IEnMin= 9 EnMin= -764.398469990731     IErMin= 9 ErrMin= 1.79D-05
 ErrMax= 1.79D-05  0.00D+00 EMaxC= 1.00D-01 BMatC= 2.18D-07 BMatP= 1.75D-06
 IDIUse=1 WtCom= 1.00D+00 WtEn= 0.00D+00
 Coeff-Com: -0.139D-02 0.271D-02 0.925D-02 0.206D-01 0.957D-02-0.158D+00
 Coeff-Com: -0.112D+00 0.187D+00 0.104D+01
 Coeff:     -0.139D-02 0.271D-02 0.925D-02 0.206D-01 0.957D-02-0.158D+00
 Coeff:     -0.112D+00 0.187D+00 0.104D+01
 Gap=     0.232 Goal=   None    Shift=    0.000
 RMSDP=7.67D-06 MaxDP=5.87D-04 DE=-5.52D-06 OVMax= 1.90D-03

 Initial convergence to 1.0D-05 achieved.  Increase integral accuracy.
 Cycle  10  Pass 1  IDiag  1:
 E= -764.398519432581     Delta-E=       -0.000049441850 Rises=F Damp=F
 DIIS: error= 2.16D-05 at cycle   1 NSaved=   1.
 NSaved= 1 IEnMin= 1 EnMin= -764.398519432581     IErMin= 1 ErrMin= 2.16D-05
 ErrMax= 2.16D-05  0.00D+00 EMaxC= 1.00D-01 BMatC= 6.71D-07 BMatP= 6.71D-07
 IDIUse=1 WtCom= 1.00D+00 WtEn= 0.00D+00
 Coeff-Com:  0.100D+01
 Coeff:      0.100D+01
 Gap=     0.232 Goal=   None    Shift=    0.000
 RMSDP=7.67D-06 MaxDP=5.87D-04 DE=-4.94D-05 OVMax= 2.17D-04

 Cycle  11  Pass 1  IDiag  1:
 E= -764.398519923848     Delta-E=       -0.000000491266 Rises=F Damp=F
 DIIS: error= 4.35D-06 at cycle   2 NSaved=   2.
 NSaved= 2 IEnMin= 2 EnMin= -764.398519923848     IErMin= 2 ErrMin= 4.35D-06
 ErrMax= 4.35D-06  0.00D+00 EMaxC= 1.00D-01 BMatC= 3.33D-08 BMatP= 6.71D-07
 IDIUse=1 WtCom= 1.00D+00 WtEn= 0.00D+00
 Coeff-Com:  0.267D-01 0.973D+00
 Coeff:      0.267D-01 0.973D+00
 Gap=     0.232 Goal=   None    Shift=    0.000
 RMSDP=1.44D-06 MaxDP=1.29D-04 DE=-4.91D-07 OVMax= 1.24D-04

 Cycle  12  Pass 1  IDiag  1:
 E= -764.398519936969     Delta-E=       -0.000000013122 Rises=F Damp=F
 DIIS: error= 5.31D-06 at cycle   3 NSaved=   3.
 NSaved= 3 IEnMin= 3 EnMin= -764.398519936969     IErMin= 2 ErrMin= 4.35D-06
 ErrMax= 5.31D-06  0.00D+00 EMaxC= 1.00D-01 BMatC= 3.76D-08 BMatP= 3.33D-08
 IDIUse=1 WtCom= 1.00D+00 WtEn= 0.00D+00
 Coeff-Com: -0.367D-01 0.529D+00 0.507D+00
 Coeff:     -0.367D-01 0.529D+00 0.507D+00
 Gap=     0.232 Goal=   None    Shift=    0.000
 RMSDP=4.28D-07 MaxDP=2.62D-05 DE=-1.31D-08 OVMax= 5.05D-05

 Cycle  13  Pass 1  IDiag  1:
 E= -764.398519962631     Delta-E=       -0.000000025662 Rises=F Damp=F
 DIIS: error= 1.04D-06 at cycle   4 NSaved=   4.
 NSaved= 4 IEnMin= 4 EnMin= -764.398519962631     IErMin= 4 ErrMin= 1.04D-06
 ErrMax= 1.04D-06  0.00D+00 EMaxC= 1.00D-01 BMatC= 6.37D-10 BMatP= 3.33D-08
 IDIUse=1 WtCom= 1.00D+00 WtEn= 0.00D+00
 Coeff-Com: -0.689D-02 0.166D-01 0.618D-01 0.928D+00
 Coeff:     -0.689D-02 0.166D-01 0.618D-01 0.928D+00
 Gap=     0.232 Goal=   None    Shift=    0.000
 RMSDP=2.54D-07 MaxDP=2.73D-05 DE=-2.57D-08 OVMax= 4.56D-05

 Cycle  14  Pass 1  IDiag  1:
 E= -764.398519964985     Delta-E=       -0.000000002354 Rises=F Damp=F
 DIIS: error= 7.10D-07 at cycle   5 NSaved=   5.
 NSaved= 5 IEnMin= 5 EnMin= -764.398519964985     IErMin= 5 ErrMin= 7.10D-07
 ErrMax= 7.10D-07  0.00D+00 EMaxC= 1.00D-01 BMatC= 3.15D-10 BMatP= 6.37D-10
 IDIUse=1 WtCom= 1.00D+00 WtEn= 0.00D+00
 Coeff-Com:  0.396D-02-0.917D-01-0.741D-01 0.379D+00 0.783D+00
 Coeff:      0.396D-02-0.917D-01-0.741D-01 0.379D+00 0.783D+00
 Gap=     0.232 Goal=   None    Shift=    0.000
 RMSDP=1.42D-07 MaxDP=1.15D-05 DE=-2.35D-09 OVMax= 3.24D-05

 Cycle  15  Pass 1  IDiag  1:
 E= -764.398519965952     Delta-E=       -0.000000000967 Rises=F Damp=F
 DIIS: error= 3.10D-07 at cycle   6 NSaved=   6.
 NSaved= 6 IEnMin= 6 EnMin= -764.398519965952     IErMin= 6 ErrMin= 3.10D-07
 ErrMax= 3.10D-07  0.00D+00 EMaxC= 1.00D-01 BMatC= 6.44D-11 BMatP= 3.15D-10
 IDIUse=1 WtCom= 1.00D+00 WtEn= 0.00D+00
 Coeff-Com:  0.277D-02-0.274D-01-0.370D-01-0.155D+00 0.204D+00 0.101D+01
 Coeff:      0.277D-02-0.274D-01-0.370D-01-0.155D+00 0.204D+00 0.101D+01
 Gap=     0.232 Goal=   None    Shift=    0.000
 RMSDP=1.11D-07 MaxDP=9.24D-06 DE=-9.67D-10 OVMax= 2.68D-05

 Cycle  16  Pass 1  IDiag  1:
 E= -764.398519966308     Delta-E=       -0.000000000357 Rises=F Damp=F
 DIIS: error= 2.39D-07 at cycle   7 NSaved=   7.
 NSaved= 7 IEnMin= 7 EnMin= -764.398519966308     IErMin= 7 ErrMin= 2.39D-07
 ErrMax= 2.39D-07  0.00D+00 EMaxC= 1.00D-01 BMatC= 2.09D-11 BMatP= 6.44D-11
 IDIUse=1 WtCom= 1.00D+00 WtEn= 0.00D+00
 Coeff-Com: -0.353D-03 0.201D-01 0.105D-01-0.179D+00-0.177D+00 0.398D+00
 Coeff-Com:  0.928D+00
 Coeff:     -0.353D-03 0.201D-01 0.105D-01-0.179D+00-0.177D+00 0.398D+00
 Coeff:      0.928D+00
 Gap=     0.232 Goal=   None    Shift=    0.000
 RMSDP=6.21D-08 MaxDP=4.77D-06 DE=-3.57D-10 OVMax= 1.51D-05

 Cycle  17  Pass 1  IDiag  1:
 E= -764.398519966481     Delta-E=       -0.000000000173 Rises=F Damp=F
 DIIS: error= 5.99D-08 at cycle   8 NSaved=   8.
 NSaved= 8 IEnMin= 8 EnMin= -764.398519966481     IErMin= 8 ErrMin= 5.99D-08
 ErrMax= 5.99D-08  0.00D+00 EMaxC= 1.00D-01 BMatC= 2.54D-12 BMatP= 2.09D-11
 IDIUse=1 WtCom= 1.00D+00 WtEn= 0.00D+00
 Coeff-Com: -0.392D-03 0.103D-01 0.815D-02-0.480D-01-0.945D-01 0.294D-01
 Coeff-Com:  0.367D+00 0.728D+00
 Coeff:     -0.392D-03 0.103D-01 0.815D-02-0.480D-01-0.945D-01 0.294D-01
 Coeff:      0.367D+00 0.728D+00
 Gap=     0.232 Goal=   None    Shift=    0.000
 RMSDP=1.35D-08 MaxDP=8.16D-07 DE=-1.73D-10 OVMax= 3.39D-06

 Cycle  18  Pass 1  IDiag  1:
 E= -764.398519966437     Delta-E=        0.000000000045 Rises=F Damp=F
 DIIS: error= 3.77D-08 at cycle   9 NSaved=   9.
 NSaved= 9 IEnMin= 8 EnMin= -764.398519966481     IErMin= 9 ErrMin= 3.77D-08
 ErrMax= 3.77D-08  0.00D+00 EMaxC= 1.00D-01 BMatC= 7.67D-13 BMatP= 2.54D-12
 IDIUse=1 WtCom= 1.00D+00 WtEn= 0.00D+00
 Coeff-Com: -0.213D-03 0.246D-02 0.331D-02 0.669D-02-0.215D-01-0.649D-01
 Coeff-Com:  0.988D-02 0.365D+00 0.699D+00
 Coeff:     -0.213D-03 0.246D-02 0.331D-02 0.669D-02-0.215D-01-0.649D-01
 Coeff:      0.988D-02 0.365D+00 0.699D+00
 Gap=     0.232 Goal=   None    Shift=    0.000
 RMSDP=6.23D-09 MaxDP=4.19D-07 DE= 4.48D-11 OVMax= 1.40D-06

 SCF Done:  E(RM062X) =  -764.398519966     A.U. after   18 cycles
            NFock= 18  Conv=0.62D-08     -V/T= 2.0031
 KE= 7.620413552101D+02 PE=-3.098030417168D+03 EE= 9.281116488936D+02
 Leave Link  502 at Sat May 24 08:42:42 2025, MaxMem=  3758096384 cpu:             142.5 elap:              34.5
 (Enter /apps/easybuild-2022/easybuild/software/Compiler/NVHPC/22.11-CUDA-11.7.0/Gaussian/g16c01-CUDA-11.7.0/g16/l508.exe)
 QCSCF skips out because SCF is already converged.
 Leave Link  508 at Sat May 24 08:42:43 2025, MaxMem=  3758096384 cpu:               0.0 elap:               0.0
 (Enter /apps/easybuild-2022/easybuild/software/Compiler/NVHPC/22.11-CUDA-11.7.0/Gaussian/g16c01-CUDA-11.7.0/g16/l801.exe)
 DoSCS=F DFT=T ScalE2(SS,OS)=  1.000000  1.000000
 Range of M.O.s used for correlation:     1   324
 NBasis=   324 NAE=    40 NBE=    40 NFC=     0 NFV=     0
 NROrb=    324 NOA=    40 NOB=    40 NVA=   284 NVB=   284

 **** Warning!!: The largest alpha MO coefficient is  0.15014203D+02

 Leave Link  801 at Sat May 24 08:42:43 2025, MaxMem=  3758096384 cpu:               0.0 elap:               0.0
 (Enter /apps/easybuild-2022/easybuild/software/Compiler/NVHPC/22.11-CUDA-11.7.0/Gaussian/g16c01-CUDA-11.7.0/g16/l1101.exe)
 Using compressed storage, NAtomX=    11.
 Will process     12 centers per pass.
   1 Symmetry operations used in ECPInt.
 ECPInt:  NShTT=    6786 NPrTT=   21959 LenC2=    6495 LenP2D=   16089.
 LDataN:  DoStor=T MaxTD1= 7 Len=  274
 Leave Link 1101 at Sat May 24 08:42:43 2025, MaxMem=  3758096384 cpu:               1.0 elap:               0.2
 (Enter /apps/easybuild-2022/easybuild/software/Compiler/NVHPC/22.11-CUDA-11.7.0/Gaussian/g16c01-CUDA-11.7.0/g16/l1102.exe)
 Symmetrizing basis deriv contribution to polar:
 IMax=3 JMax=2 DiffMx= 0.00D+00
 Leave Link 1102 at Sat May 24 08:42:43 2025, MaxMem=  3758096384 cpu:               0.1 elap:               0.0
 (Enter /apps/easybuild-2022/easybuild/software/Compiler/NVHPC/22.11-CUDA-11.7.0/Gaussian/g16c01-CUDA-11.7.0/g16/l1110.exe)
 Forming Gx(P) for the SCF density, NAtomX=    11.
 Integral derivatives from FoFJK, PRISM(SPDF).
 Do as many integral derivatives as possible in FoFJK.
 G2DrvN: MDV=    3758095115.
 G2DrvN: will do    12 centers at a time, making    1 passes.
 Calling FoFCou, ICntrl=  3107 FMM=F I1Cent=   0 AccDes= 0.00D+00.
 FoFJK:  IHMeth= 1 ICntrl=    3107 DoSepK=F KAlg= 0 I1Cent=           0 FoldK=F
 IRaf=         0 NMat=       1 IRICut=       1 DoRegI=T DoRafI=F ISym2E= 0 IDoP0=0 IntGTp=1.
 FoFCou: FMM=F IPFlag=           0 FMFlag=      100000 FMFlg1=           0
         NFxFlg=           0 DoJE=F BraDBF=F KetDBF=F FulRan=T
         wScrn=  0.000000 ICntrl=      3107 IOpCl=  0 I1Cent=           0 NGrid=           0
         NMat0=    1 NMatS0=      1 NMatT0=    0 NMatD0=    1 NMtDS0=    0 NMtDT0=    0
 Symmetry not used in FoFCou.
 End of G2Drv F.D. properties file   721 does not exist.
 End of G2Drv F.D. properties file   722 does not exist.
 End of G2Drv F.D. properties file   788 does not exist.
 Leave Link 1110 at Sat May 24 08:43:28 2025, MaxMem=  3758096384 cpu:             360.7 elap:              45.5
 (Enter /apps/easybuild-2022/easybuild/software/Compiler/NVHPC/22.11-CUDA-11.7.0/Gaussian/g16c01-CUDA-11.7.0/g16/l1002.exe)
 Minotr:  Closed shell wavefunction.
          IDoAtm=11111111111
          Direct CPHF calculation.
          Differentiating once with respect to nuclear coordinates.
          Requested convergence is 1.0D-08 RMS, and 1.0D-07 maximum.
          Secondary convergence is 1.0D-12 RMS, and 1.0D-12 maximum.
          NewPWx=T KeepS1=F KeepF1=F KeepIn=T MapXYZ=F SortEE=F KeepMc=T.
         3307 words used for storage of precomputed grid.
 Keep R1 ints in memory in canonical form, NReq=1412622537.
 FoFCou: FMM=F IPFlag=           0 FMFlag=           0 FMFlg1=           0
         NFxFlg=           0 DoJE=F BraDBF=F KetDBF=F FulRan=T
         wScrn=  0.000000 ICntrl=       600 IOpCl=  0 I1Cent=           0 NGrid=           0
         NMat0=    1 NMatS0=  52650 NMatT0=    0 NMatD0=    1 NMtDS0=    0 NMtDT0=    0
 Symmetry not used in FoFCou.
 Two-electron integral symmetry not used.
          MDV=    3758096384 using IRadAn=       1.
          Solving linear equations simultaneously, MaxMat=       0.
          There are    36 degrees of freedom in the 1st order CPHF.  IDoFFX=6 NUNeed=     0.
     30 vectors produced by pass  0 Test12= 3.16D-14 2.78D-09 XBig12= 1.17D-01 2.17D-01.
 AX will form    30 AO Fock derivatives at one time.
     30 vectors produced by pass  1 Test12= 3.16D-14 2.78D-09 XBig12= 1.67D-02 4.68D-02.
     30 vectors produced by pass  2 Test12= 3.16D-14 2.78D-09 XBig12= 9.92D-04 7.30D-03.
     30 vectors produced by pass  3 Test12= 3.16D-14 2.78D-09 XBig12= 2.19D-05 1.02D-03.
     30 vectors produced by pass  4 Test12= 3.16D-14 2.78D-09 XBig12= 3.20D-07 7.55D-05.
     30 vectors produced by pass  5 Test12= 3.16D-14 2.78D-09 XBig12= 3.33D-09 7.69D-06.
     30 vectors produced by pass  6 Test12= 3.16D-14 2.78D-09 XBig12= 2.34D-11 5.38D-07.
     15 vectors produced by pass  7 Test12= 3.16D-14 2.78D-09 XBig12= 1.25D-13 4.14D-08.
      1 vectors produced by pass  8 Test12= 3.16D-14 2.78D-09 XBig12= 6.83D-16 2.79D-09.
 InvSVY:  IOpt=1 It=  1 EMax= 9.99D-16
 Solved reduced A of dimension   226 with    30 vectors.
 End of Minotr F.D. properties file   721 does not exist.
 End of Minotr F.D. properties file   722 does not exist.
 End of Minotr F.D. properties file   788 does not exist.
 Leave Link 1002 at Sat May 24 08:44:31 2025, MaxMem=  3758096384 cpu:             488.1 elap:              63.1
 (Enter /apps/easybuild-2022/easybuild/software/Compiler/NVHPC/22.11-CUDA-11.7.0/Gaussian/g16c01-CUDA-11.7.0/g16/l701.exe)
 ... and contract with generalized density number  0.
 Compute integral second derivatives.
   1 Symmetry operations used in ECPInt.
 ECPInt:  NShTT=    6786 NPrTT=   21959 LenC2=    6495 LenP2D=   16089.
 LDataN:  DoStor=T MaxTD1= 8 Len=  415
 Leave Link  701 at Sat May 24 08:44:32 2025, MaxMem=  3758096384 cpu:               0.8 elap:               0.1
 (Enter /apps/easybuild-2022/easybuild/software/Compiler/NVHPC/22.11-CUDA-11.7.0/Gaussian/g16c01-CUDA-11.7.0/g16/l702.exe)
 L702 exits ... SP integral derivatives will be done elsewhere.
 Leave Link  702 at Sat May 24 08:44:32 2025, MaxMem=  3758096384 cpu:               0.0 elap:               0.0
 (Enter /apps/easybuild-2022/easybuild/software/Compiler/NVHPC/22.11-CUDA-11.7.0/Gaussian/g16c01-CUDA-11.7.0/g16/l703.exe)
 Integral derivatives from FoFJK, PRISM(SPDF).
 Compute integral second derivatives, UseDBF=F ICtDFT=           0.
 Calling FoFJK, ICntrl=    100127 FMM=F ISym2X=0 I1Cent= 0 IOpClX= 0 NMat=1 NMatS=1 NMatT=0.
 FoFJK:  IHMeth= 1 ICntrl=  100127 DoSepK=F KAlg= 0 I1Cent=           0 FoldK=F
 IRaf=         0 NMat=       1 IRICut=       1 DoRegI=T DoRafI=F ISym2E= 0 IDoP0=0 IntGTp=1.
 FoFCou: FMM=F IPFlag=           0 FMFlag=      100000 FMFlg1=         800
         NFxFlg=           0 DoJE=F BraDBF=F KetDBF=F FulRan=T
         wScrn=  0.000000 ICntrl=    100127 IOpCl=  0 I1Cent=           0 NGrid=           0
         NMat0=    1 NMatS0=      1 NMatT0=    0 NMatD0=    1 NMtDS0=    0 NMtDT0=    0
 Symmetry not used in FoFCou.
 Leave Link  703 at Sat May 24 08:46:18 2025, MaxMem=  3758096384 cpu:             841.4 elap:             106.0
 (Enter /apps/easybuild-2022/easybuild/software/Compiler/NVHPC/22.11-CUDA-11.7.0/Gaussian/g16c01-CUDA-11.7.0/g16/l716.exe)
 Dipole        =-5.25325678D-01-3.70780452D-01 1.40412799D-01
 Polarizability= 0.00000000D+00 0.00000000D+00 0.00000000D+00
                 0.00000000D+00 0.00000000D+00 0.00000000D+00
 -------------------------------------------------------------------
 Center     Atomic                   Forces (Hartrees/Bohr)
 Number     Number              X              Y              Z
 -------------------------------------------------------------------
      1        6          -0.014205881    0.051768657    0.002117158
      2        8           0.004133436   -0.026627602    0.013339441
      3        6          -0.009281134   -0.007057625   -0.038800403
      4        6          -0.000344038    0.004961349   -0.009123589
      5        9           0.000874311    0.000043740    0.001725835
      6        9           0.001457826   -0.001912969    0.005748261
      7        9           0.001161869   -0.000067144    0.001896172
      8        9          -0.059171139    0.012808700    0.022316909
      9        9           0.008198748   -0.007418987    0.005389878
     10        8           0.057010698   -0.004218512   -0.013217539
     11        1           0.010165305   -0.022279607    0.008607878
 -------------------------------------------------------------------
 Cartesian Forces:  Max     0.059171139 RMS     0.020610696
 Force constants in Cartesian coordinates: 
                1             2             3             4             5 
      1  0.314345D+00
      2 -0.493121D-01  0.266525D+00
      3  0.143621D+00 -0.241672D+00  0.312931D+00
      4  0.198939D-01 -0.105090D-01  0.192944D-01  0.580293D+00
      5  0.202768D-01 -0.839324D-01  0.104980D+00 -0.225354D-01  0.265746D+00
      6  0.436772D-02  0.307153D-01 -0.317352D-01  0.395977D-02 -0.198957D-01
      7 -0.114001D+00 -0.211212D-01 -0.142946D-01 -0.602824D-02 -0.109141D-01
      8 -0.309345D-01 -0.726845D-01 -0.812075D-03  0.353712D-02  0.190587D-02
      9  0.429051D-01  0.104781D-01 -0.192398D-01  0.250681D-01 -0.501997D-02
     10 -0.708081D-02 -0.754130D-02 -0.132159D-01  0.267846D-02 -0.738456D-03
     11 -0.104493D-01  0.531382D-02  0.678044D-03 -0.430737D-02 -0.710792D-02
     12 -0.184049D-01 -0.112601D-02  0.363148D-02 -0.151370D-02 -0.132989D-03
     13  0.968115D-02 -0.136481D-02 -0.253611D-02  0.229740D-02  0.923191D-03
     14  0.408930D-02 -0.102838D-02 -0.128267D-02  0.145219D-02  0.108770D-02
     15  0.377186D-02 -0.462883D-03 -0.156973D-02  0.704237D-03  0.193525D-03
     16 -0.939119D-03 -0.414488D-03 -0.249455D-03 -0.175643D-03  0.730841D-03
     17 -0.910738D-03 -0.954899D-03 -0.598277D-03  0.667697D-03  0.148914D-02
     18  0.242140D-02 -0.233199D-03  0.816529D-03 -0.857020D-03 -0.297206D-03
     19  0.322610D-03  0.135085D-02  0.262316D-02 -0.151494D-02 -0.146566D-02
     20  0.266122D-02 -0.854104D-04 -0.117922D-02  0.127136D-02  0.332350D-02
     21  0.140773D-02  0.639928D-03  0.206885D-03 -0.145344D-02 -0.750114D-03
     22 -0.362650D-01 -0.257758D-01  0.244640D-01 -0.503143D-01  0.325485D-01
     23 -0.167628D-01 -0.804935D-02  0.111686D-01  0.532917D-01 -0.735958D-02
     24  0.189460D-01  0.244745D-01 -0.152355D-01 -0.121342D-01 -0.147106D-01
     25 -0.293992D-01  0.406274D-01  0.329268D-02 -0.564362D-03 -0.662903D-04
     26  0.105212D-01 -0.742038D-02  0.842402D-02  0.376504D-02 -0.165909D-03
     27  0.242772D-02 -0.492454D-02  0.372988D-02 -0.294928D-02 -0.532153D-04
     28 -0.162460D+00  0.784956D-01 -0.159220D+00 -0.830146D-01 -0.386857D-02
     29  0.715763D-01 -0.940360D-01  0.116178D+00 -0.484214D-01 -0.131217D+00
     30 -0.205438D+00  0.177001D+00 -0.257614D+00 -0.311408D-01 -0.658856D-01
     31  0.590247D-02 -0.443515D-02 -0.378014D-02 -0.463550D+00 -0.148910D-01
     32 -0.755434D-03 -0.364703D-02  0.411597D-02  0.217881D-01 -0.437695D-01
     33  0.397402D-02  0.510944D-02  0.407811D-02  0.102192D-02  0.157203D-02
                6             7             8             9            10 
      6 -0.855658D-03
      7  0.873845D-03  0.488234D+00
      8 -0.164455D-02 -0.256786D-01  0.537571D+00
      9 -0.663413D-03  0.163356D-01 -0.162212D-01  0.560171D+00
     10  0.348245D-02 -0.951241D-01 -0.454930D-01 -0.668408D-01  0.596392D+00
     11 -0.354247D-02 -0.252449D-01 -0.760323D-01 -0.648549D-01  0.778163D-02
     12 -0.131720D-04 -0.225611D-01 -0.503166D-01 -0.129015D+00  0.172236D-01
     13 -0.108657D-02 -0.562776D-01 -0.684975D-02  0.107826D-01 -0.311427D+00
     14  0.320820D-03 -0.259456D-01 -0.147145D-02  0.302565D-02 -0.353957D-01
     15  0.286920D-03 -0.253697D-01 -0.417340D-02  0.441697D-02  0.192003D-01
     16 -0.280188D-03  0.924773D-02  0.771547D-02 -0.635656D-02 -0.803892D-01
     17  0.569660D-03  0.771659D-03  0.190375D-02  0.306322D-03 -0.732693D-02
     18 -0.467340D-04  0.602453D-02  0.308191D-01 -0.331356D-01  0.472913D-02
     19 -0.374018D-02  0.776874D-02 -0.231330D-02 -0.123077D-02 -0.101134D+00
     20  0.139497D-02  0.198489D-01 -0.353885D-01  0.664104D-02  0.635147D-01
     21 -0.212535D-02  0.986402D-02 -0.229518D-01  0.469682D-02  0.798762D-02
     22  0.485228D-02 -0.725061D-01 -0.222812D-01  0.472404D-01  0.256863D-02
     23 -0.527017D-02 -0.222060D-01 -0.946007D-01  0.878772D-01  0.174914D-02
     24  0.105339D-01  0.460746D-01  0.809433D-01 -0.262613D+00  0.184771D-01
     25  0.135217D-02 -0.115456D+00  0.106633D+00  0.290418D-01 -0.633713D-03
     26  0.221145D-03  0.941974D-01 -0.259030D+00 -0.478372D-01  0.259370D-01
     27  0.821995D-03  0.120786D-01 -0.299154D-01 -0.778498D-01  0.173819D-01
     28 -0.124363D-01 -0.562090D-01 -0.615998D-02 -0.730945D-01 -0.681103D-02
     29 -0.598349D-02  0.142966D-01  0.126642D-01  0.310399D-02 -0.312740D-02
     30  0.251721D-01 -0.223520D-01  0.880806D-02 -0.514396D-01 -0.328354D-02
     31 -0.134498D-02  0.103521D-01  0.218251D-01 -0.238511D-01  0.961028D-03
     32  0.311452D-02  0.199579D-02 -0.148367D-01  0.225010D-01  0.640306D-03
     33 -0.137537D-02 -0.667387D-02  0.546455D-02  0.467180D-02 -0.514197D-02
               11            12            13            14            15 
     11  0.597111D+00
     12  0.140537D-01  0.611472D+00
     13 -0.397877D-01  0.134878D-01  0.433240D+00
     14 -0.830889D-01 -0.120231D-02  0.315796D-01  0.838024D-01
     15 -0.769888D-04 -0.828615D-01 -0.682610D-01 -0.100874D-01  0.893838D-01
     16 -0.896849D-02  0.782179D-02 -0.259678D-01 -0.288509D-01  0.574363D-01
     17 -0.116329D+00  0.847400D-01 -0.221878D-01  0.648950D-03  0.230294D-01
     18  0.754216D-01 -0.277246D+00  0.406414D-01  0.208969D-01 -0.227270D-01
     19  0.682164D-01  0.104346D-01 -0.550468D-01  0.565952D-01  0.163884D-01
     20 -0.281361D+00 -0.475345D-01  0.384236D-01 -0.423034D-02 -0.655786D-02
     21 -0.417695D-01 -0.899250D-01  0.121384D-01 -0.790877D-02  0.107482D-01
     22  0.589856D-02 -0.977668D-02  0.443521D-02  0.141114D-02 -0.125619D-02
     23 -0.214272D-02 -0.212958D-02  0.134604D-02  0.189384D-02 -0.762405D-03
     24  0.349052D-01 -0.425237D-01 -0.205576D-02 -0.215063D-02  0.384659D-02
     25 -0.412537D-03 -0.566093D-02  0.715966D-02 -0.107762D-02  0.438706D-03
     26 -0.437742D-01  0.202755D-02 -0.279438D-02  0.333099D-02 -0.328064D-03
     27 -0.248240D-01  0.110018D-02 -0.962560D-03  0.914471D-03  0.515100D-03
     28  0.691065D-02  0.132079D-01 -0.650578D-02 -0.339914D-02 -0.375426D-02
     29  0.267862D-02 -0.432124D-03  0.855872D-04 -0.515380D-03 -0.336471D-03
     30  0.336115D-02  0.691116D-02 -0.344777D-02 -0.192701D-02 -0.160715D-02
     31  0.363084D-03 -0.425842D-02 -0.158759D-02 -0.458470D-03  0.701294D-03
     32  0.473229D-02  0.205294D-02  0.626427D-03 -0.429475D-03 -0.437487D-03
     33  0.664825D-02 -0.152990D-02  0.129963D-02 -0.599080D-03 -0.432212D-03
               16            17            18            19            20 
     16  0.864639D-01
     17  0.185303D-01  0.166010D+00
     18 -0.407464D-01 -0.155810D+00  0.345100D+00
     19  0.108576D-01  0.120707D-01 -0.839759D-02  0.137250D+00
     20  0.143186D-01 -0.572809D-01  0.358968D-01 -0.133312D+00  0.383066D+00
     21 -0.128951D-01  0.528933D-01 -0.681588D-03 -0.154189D-01  0.283822D-01
     22 -0.531949D-03 -0.211130D-03 -0.587932D-02  0.740921D-03 -0.181035D-02
     23 -0.727841D-03  0.112770D-02 -0.132200D-02 -0.592663D-03  0.507657D-02
     24 -0.508800D-02 -0.296244D-02 -0.127301D-01 -0.626538D-03 -0.461896D-02
     25  0.560783D-03 -0.113818D-02  0.845966D-03  0.141221D-02 -0.234371D-02
     26 -0.209435D-02  0.455659D-02 -0.412455D-02 -0.256957D-02 -0.892762D-02
     27 -0.649871D-03 -0.121458D-02  0.151393D-02 -0.194728D-02 -0.827447D-02
     28  0.907988D-03  0.168817D-03 -0.163234D-02  0.103017D-02 -0.271640D-02
     29  0.170292D-04 -0.507095D-03  0.166580D-03  0.131077D-02 -0.152779D-02
     30  0.768710D-03  0.127076D-03 -0.126670D-02  0.694302D-04 -0.905457D-03
     31 -0.343141D-04 -0.434376D-03  0.285023D-02 -0.168666D-02  0.143655D-03
     32 -0.256139D-03 -0.664544D-03 -0.141401D-02  0.708897D-03 -0.266515D-02
     33  0.238723D-03 -0.108054D-02  0.403441D-03  0.184562D-02 -0.324452D-02
               21            22            23            24            25 
     21  0.805042D-01
     22 -0.677065D-03  0.175788D+00
     23 -0.668379D-03 -0.150322D-01  0.165427D+00
     24  0.204272D-02 -0.667231D-01 -0.141821D+00  0.318697D+00
     25 -0.238308D-03  0.815916D-02  0.381671D-02 -0.964283D-02  0.130728D+00
     26 -0.816562D-02  0.152933D-01 -0.540110D-01  0.304580D-01 -0.138500D+00
     27 -0.494536D-02 -0.165619D-01  0.469630D-01  0.810093D-03 -0.155502D-01
     28 -0.122036D-02 -0.725779D-02 -0.474541D-02 -0.918886D-02 -0.519516D-03
     29  0.487172D-03 -0.622907D-02 -0.686171D-02  0.896517D-02 -0.665097D-02
     30 -0.107047D-02  0.188430D-01  0.804306D-02  0.687032D-03 -0.475399D-02
     31  0.505373D-03 -0.248165D-01 -0.136697D-03  0.219617D-01 -0.144708D-02
     32 -0.188432D-03  0.161883D-01 -0.500254D-03 -0.134830D-01 -0.887342D-03
     33  0.548877D-03  0.547456D-02 -0.207865D-02 -0.351529D-02  0.874908D-03
               26            27            28            29            30 
     26  0.360160D+00
     27  0.234490D-01  0.737384D-01
     28  0.193899D-02  0.304449D-02  0.336632D+00
     29  0.195988D-02  0.982066D-05 -0.160404D-01  0.235172D+00
     30 -0.438984D-02  0.237953D-02  0.248084D+00 -0.119078D+00  0.283107D+00
     31 -0.569434D-02  0.368833D-02 -0.157922D-01 -0.681702D-02  0.265079D-02
     32  0.332205D-02 -0.213012D-02 -0.505842D-01 -0.178103D-01 -0.515461D-02
     33  0.265577D-03 -0.181393D-02 -0.379051D-02 -0.308020D-02 -0.525890D-02
               31            32            33 
     31  0.491699D+00
     32  0.105352D-01  0.762686D-01
     33  0.876961D-03 -0.897685D-02  0.422338D-02
 FormGI is forming the generalized inverse of G from B-inverse, IUseBI=4.
 Force constants in internal coordinates: 
                1             2             3             4             5 
      1  0.308136D+00
      2  0.744529D-01  0.628164D+00
      3  0.264752D-01  0.140311D+00  0.249785D+00
      4 -0.152053D-01 -0.116008D-01  0.380991D-03  0.491688D+00
      5  0.120547D-01  0.328496D-02 -0.744731D-03 -0.136895D-02  0.277160D+00
      6  0.230289D-01  0.374379D-02  0.285928D-01 -0.227440D-01  0.152020D-01
      7  0.204988D-01 -0.472181D-02 -0.296241D-02  0.419348D-02  0.195027D-01
      8 -0.384791D-02  0.541469D-02  0.169384D-02 -0.172381D-02  0.193106D-01
      9 -0.234975D-02 -0.205063D-03 -0.167470D-02  0.264591D-02  0.164608D-01
     10 -0.169628D-02  0.138816D-02  0.120083D-02  0.842703D-03  0.193430D-01
     11  0.353541D+00  0.272488D+00  0.546726D-01 -0.672327D-01  0.120738D-01
     12  0.302994D-01  0.412116D-01  0.684873D-01 -0.303402D-02  0.232092D-02
     13 -0.482791D-01  0.127074D-01 -0.109970D-01  0.503591D-02  0.359332D-02
     14  0.114106D+00  0.130981D-01  0.301719D-01 -0.181218D-01 -0.141021D-01
     15  0.564697D-02 -0.124272D-01 -0.496789D-02  0.124716D-02 -0.148481D-01
     16 -0.435423D-01  0.134990D-02 -0.108952D-01  0.489642D-02  0.168069D-01
     17  0.420801D-02 -0.339376D-04  0.696514D-02 -0.196010D-02  0.149057D-01
     18 -0.344468D-01 -0.179769D-01 -0.113544D-01  0.101055D-01 -0.794539D-02
     19 -0.463145D-02  0.568489D-02  0.139499D-02  0.536203D-03  0.220732D-01
     20 -0.682700D-03 -0.252244D-02  0.708386D-03  0.173124D-02  0.107171D-01
     21  0.311844D-02  0.637137D-02 -0.293107D-02 -0.151238D-02  0.167525D-01
     22  0.180618D-02 -0.182428D-02 -0.448915D-03 -0.870393D-03 -0.160257D-01
     23  0.730510D-03 -0.555946D-02  0.362612D-03  0.914156D-03 -0.188264D-01
     24 -0.284815D-03 -0.244070D-02  0.944806D-03 -0.820250D-03 -0.162227D-01
     25  0.942963D-01  0.150886D+00  0.913705D-01 -0.405753D-01  0.129509D-01
     26  0.250885D-01  0.128600D-01  0.110468D-01 -0.526171D-02 -0.582575D-02
     27  0.307159D-01  0.350020D-01  0.146223D-01 -0.107504D-01  0.728594D-02
     28  0.485773D-01  0.146863D-01  0.136687D-01 -0.723906D-02 -0.157136D-01
     29  0.165084D+00  0.107125D+00  0.629306D-01 -0.611858D-01  0.275722D-02
     30 -0.173888D-02 -0.349680D-02 -0.126170D-01  0.100475D-01 -0.120440D-02
     31  0.356320D-01  0.125726D-01  0.101999D-01 -0.691454D-02  0.113829D-02
     32  0.344756D-01  0.123292D-01  0.109884D-01 -0.654545D-02  0.220113D-02
     33  0.356922D-01  0.117707D-01  0.107319D-01 -0.742681D-02 -0.296895D-03
     34 -0.471918D-01 -0.154700D-01 -0.134994D-01  0.986946D-02  0.315308D-02
     35 -0.483482D-01 -0.157134D-01 -0.127109D-01  0.102385D-01  0.421592D-02
     36 -0.471316D-01 -0.162719D-01 -0.129675D-01  0.935719D-02  0.171789D-02
     37  0.125072D-01  0.472333D-02  0.164491D-02 -0.332696D-02 -0.354314D-02
     38  0.113508D-01  0.447990D-02  0.243341D-02 -0.295788D-02 -0.248029D-02
     39  0.125675D-01  0.392135D-02  0.217687D-02 -0.383924D-02 -0.497832D-02
                6             7             8             9            10 
      6  0.413050D+00
      7  0.491805D-01  0.427122D+00
      8  0.409008D-02  0.522149D-02  0.449206D+00
      9  0.584584D-02  0.536737D-02  0.568099D-01  0.440795D+00
     10  0.532304D-02  0.623754D-02  0.563028D-01  0.558720D-01  0.444334D+00
     11 -0.222728D-01  0.458353D-02  0.664040D-02 -0.441710D-02  0.115581D-02
     12  0.253060D-01 -0.592289D-02  0.119769D-02 -0.160223D-02 -0.500905D-02
     13 -0.211306D-01 -0.199235D-01  0.118529D-01 -0.371842D-02 -0.310588D-02
     14 -0.306552D-02 -0.251675D-02 -0.344207D-03 -0.675612D-02 -0.119656D-02
     15  0.207917D-03  0.362703D-02  0.335081D-03  0.990162D-03 -0.572801D-02
     16  0.258808D-01 -0.108835D-01 -0.581174D-02  0.131577D-01 -0.104547D-02
     17 -0.960786D-02  0.222829D-01 -0.647784D-02 -0.247914D-02  0.128194D-01
     18  0.101310D-01  0.976229D-02 -0.651692D-04 -0.127862D-02 -0.196409D-02
     19 -0.595231D-02 -0.464934D-02  0.127116D-01 -0.291772D-01 -0.308223D-01
     20  0.173652D-01 -0.375598D-02 -0.283246D-01  0.145249D-01 -0.296351D-01
     21 -0.328761D-02  0.182255D-01 -0.300102D-01 -0.295141D-01  0.194566D-01
     22 -0.325925D-02 -0.162280D-02  0.212930D-01  0.211035D-01  0.356459D-02
     23 -0.117954D-02 -0.392616D-02  0.221961D-01  0.339864D-02  0.199802D-01
     24 -0.397248D-02 -0.460563D-02  0.369487D-02  0.209769D-01  0.186687D-01
     25  0.284453D-01 -0.620297D-02 -0.609012D-03 -0.498809D-02 -0.209648D-02
     26 -0.138680D-01  0.133762D-01  0.376032D-03 -0.559346D-02  0.309337D-02
     27  0.362400D-02 -0.176269D-01  0.576138D-03  0.376413D-02 -0.155322D-02
     28  0.138826D-01 -0.588871D-02  0.497061D-03 -0.466754D-03 -0.712814D-02
     29  0.910916D-02 -0.657371D-02  0.174455D-02 -0.400110D-02 -0.134116D-01
     30  0.505181D-02  0.475118D-03  0.239192D-02  0.150367D-02 -0.659604D-02
     31  0.517407D-02 -0.845852D-02  0.167535D-03 -0.160396D-01  0.154062D-01
     32  0.842545D-02 -0.158594D-01  0.166611D-01  0.824878D-03 -0.188723D-01
     33  0.125553D-01 -0.122637D-01 -0.163690D-01  0.172987D-01 -0.216711D-02
     34  0.196350D-02  0.186282D-01 -0.278177D-02 -0.156221D-01  0.201566D-01
     35  0.521488D-02  0.112273D-01  0.137118D-01  0.124233D-02 -0.141218D-01
     36  0.934469D-02  0.148230D-01 -0.193183D-01  0.177162D-01  0.258331D-02
     37 -0.179561D-01  0.158527D-02  0.346054D-02 -0.194981D-01  0.165277D-01
     38 -0.147047D-01 -0.581560D-02  0.199541D-01 -0.263359D-02 -0.177508D-01
     39 -0.105749D-01 -0.221990D-02 -0.130760D-01  0.138402D-01 -0.104560D-02
               11            12            13            14            15 
     11  0.143954D+01
     12  0.124859D+00  0.236867D+00
     13 -0.839939D-01 -0.543776D-02  0.134108D+00
     14  0.268599D+00  0.218901D-01 -0.977103D-01  0.199098D+00
     15 -0.480721D-01 -0.459473D-02 -0.325890D-01 -0.109554D-02  0.800061D-01
     16 -0.766706D-01 -0.622460D-02  0.111868D-01 -0.105505D+00  0.993535D-02
     17  0.380668D-01  0.469262D-02 -0.498608D-01  0.395678D-01 -0.606420D-01
     18 -0.109420D+00 -0.117616D-01  0.332815D-01 -0.338753D-01  0.751146D-02
     19  0.662777D-02 -0.892251D-03  0.162082D-01 -0.147266D-02 -0.681673D-03
     20 -0.101231D-01 -0.412017D-02 -0.822351D-02 -0.100856D-01  0.389522D-02
     21  0.148019D-01  0.479451D-03 -0.227725D-02  0.166755D-02 -0.950205D-02
     22 -0.226511D-03  0.174180D-02 -0.258091D-02  0.476389D-02 -0.182203D-03
     23 -0.938218D-02  0.116716D-02 -0.420690D-02  0.106657D-02  0.388846D-02
     24 -0.204439D-02  0.176810D-02  0.950362D-03  0.437529D-02  0.278295D-02
     25  0.371997D+00  0.683657D-01 -0.149015D-01  0.796234D-01 -0.273924D-01
     26  0.971015D-01  0.675769D-02 -0.405681D-01  0.659717D-01 -0.147972D-01
     27  0.166295D+00  0.134235D-01 -0.152168D-01  0.262538D-01 -0.253050D-01
     28  0.146389D+00  0.821207D-02 -0.394782D-01  0.822735D-01  0.211612D-01
     29  0.830522D+00  0.642869D-01 -0.931818D-01  0.207277D+00 -0.262870D-01
     30 -0.100899D-01 -0.322549D-01 -0.429133D-02  0.734241D-02 -0.160791D-03
     31  0.112475D+00  0.934837D-02 -0.117274D-01  0.497479D-01 -0.171664D-01
     32  0.109957D+00  0.830576D-02 -0.982257D-02  0.482736D-01 -0.153358D-01
     33  0.110429D+00  0.816098D-02 -0.154124D-01  0.482968D-01 -0.154850D-01
     34 -0.126064D+00 -0.111174D-01  0.156276D-01 -0.595242D-01 -0.103744D-02
     35 -0.128582D+00 -0.121600D-01  0.175324D-01 -0.609985D-01  0.793173D-03
     36 -0.128110D+00 -0.123048D-01  0.119426D-01 -0.609753D-01  0.643951D-03
     37  0.202430D-01  0.329568D-02 -0.357685D-02  0.128659D-01  0.156894D-01
     38  0.177248D-01  0.225308D-02 -0.167207D-02  0.113917D-01  0.175200D-01
     39  0.181964D-01  0.210830D-02 -0.726189D-02  0.114148D-01  0.173707D-01
               16            17            18            19            20 
     16  0.120990D+00
     17 -0.169496D-01  0.125367D+00
     18 -0.246466D-01 -0.419357D-01  0.685369D-01
     19 -0.942549D-02 -0.938198D-02  0.478370D-02  0.186829D+00
     20  0.212545D-01 -0.258341D-02 -0.467472D-02  0.216997D-02  0.179447D+00
     21 -0.208658D-02  0.160859D-01 -0.454450D-02 -0.108503D-02 -0.116781D-02
     22 -0.529299D-02  0.269752D-02  0.873389D-03 -0.926382D-01 -0.889159D-01
     23  0.173350D-02 -0.294560D-02  0.801950D-03 -0.913742D-01 -0.904593D-02
     24 -0.653053D-02 -0.403655D-02  0.292012D-02 -0.942907D-02 -0.883091D-01
     25 -0.788307D-02  0.105767D-01 -0.460356D-01 -0.673478D-02 -0.500503D-02
     26 -0.495278D-01  0.522620D-01 -0.132494D-01 -0.314258D-03 -0.633806D-02
     27  0.310392D-01  0.283064D-01 -0.524519D-01 -0.291098D-02  0.792821D-02
     28 -0.430530D-01 -0.299449D-01  0.135796D-01  0.154690D-02 -0.403218D-03
     29 -0.399930D-01  0.418578D-01 -0.995742D-01 -0.948773D-02 -0.775253D-02
     30 -0.113888D-02  0.357293D-02 -0.600608D-02 -0.238544D-02 -0.185593D-02
     31 -0.143477D-01  0.593923D-02 -0.138130D-01 -0.743258D-03 -0.478003D-02
     32 -0.133604D-01  0.163230D-02 -0.126558D-01  0.506181D-02  0.891781D-03
     33 -0.913504D-02  0.531322D-02 -0.149639D-01 -0.599119D-02  0.582928D-02
     34  0.160533D-01  0.246585D-02  0.298565D-01 -0.213177D-02 -0.364858D-02
     35  0.170406D-01 -0.184108D-02  0.310137D-01  0.367331D-02  0.202323D-02
     36  0.212659D-01  0.183984D-02  0.287055D-01 -0.737969D-02  0.696073D-02
     37 -0.756901D-02 -0.328271D-02 -0.162390D-01  0.175634D-02 -0.759589D-02
     38 -0.658172D-02 -0.758964D-02 -0.150819D-01  0.756142D-02 -0.192408D-02
     39 -0.235640D-02 -0.390871D-02 -0.173900D-01 -0.349158D-02  0.301341D-02
               21            22            23            24            25 
     21  0.194354D+00
     22 -0.947127D-02  0.123581D+00
     23 -0.942486D-01  0.371045D-01  0.125264D+00
     24 -0.945840D-01  0.362719D-01  0.383586D-01  0.123804D+00
     25  0.179497D-01  0.273835D-02 -0.580377D-02 -0.336947D-02  0.485693D+00
     26 -0.124290D-02  0.271245D-02  0.205328D-02  0.338445D-02  0.351895D-01
     27 -0.423644D-02 -0.216144D-02  0.235333D-02 -0.100799D-02  0.828827D-01
     28 -0.132103D-01  0.103694D-02  0.564984D-02  0.577539D-02  0.550700D-01
     29  0.712933D-02  0.525267D-02  0.229841D-02  0.285501D-02  0.475957D+00
     30  0.404264D-02  0.500362D-03  0.804576D-05 -0.311265D-03 -0.682757D-01
     31  0.640802D-02 -0.189485D-01  0.185035D-01 -0.467995D-03  0.450985D-01
     32 -0.681604D-02  0.185228D-01  0.348720D-03 -0.179250D-01  0.409873D-01
     33 -0.627205D-04  0.261904D-03 -0.184857D-01  0.183929D-01  0.451400D-01
     34  0.757807D-02 -0.189871D-01  0.185525D-01 -0.142516D-02 -0.456334D-01
     35 -0.564598D-02  0.184842D-01  0.397772D-03 -0.188822D-01 -0.497446D-01
     36  0.110734D-02  0.223308D-03 -0.184366D-01  0.174357D-01 -0.455918D-01
     37  0.582609D-02 -0.186974D-01  0.182302D-01  0.489959D-03  0.641853D-02
     38 -0.739796D-02  0.187738D-01  0.754648D-04 -0.169671D-01  0.230734D-02
     39 -0.644644D-03  0.512935D-03 -0.187589D-01  0.193508D-01  0.646007D-02
               26            27            28            29            30 
     26  0.431731D-01
     27  0.448237D-02  0.585153D-01
     28  0.137984D-01 -0.124060D-02  0.639277D-01
     29  0.956416D-01  0.154983D+00  0.127434D+00  0.703720D+00
     30  0.495934D-02  0.673805D-02  0.328646D-02 -0.156004D-01 -0.110375D-01
     31  0.769627D-02  0.230177D-01  0.227746D-01  0.837190D-01  0.289836D-02
     32  0.681129D-02  0.235406D-01  0.247970D-01  0.792134D-01  0.804860D-03
     33  0.613912D-02  0.246654D-01  0.232121D-01  0.823707D-01  0.182797D-02
     34 -0.100217D-01 -0.287363D-01 -0.234947D-01 -0.967544D-01 -0.302859D-02
     35 -0.109067D-01 -0.282133D-01 -0.214723D-01 -0.101260D+00 -0.512209D-02
     36 -0.115788D-01 -0.270886D-01 -0.230572D-01 -0.981028D-01 -0.409898D-02
     37  0.398115D-02  0.233049D-02 -0.261739D-02  0.178228D-01  0.271749D-02
     38  0.309617D-02  0.285341D-02 -0.594989D-03  0.133171D-01  0.623993D-03
     39  0.242399D-02  0.397818D-02 -0.217992D-02  0.164744D-01  0.164711D-02
               31            32            33            34            35 
     31  0.425160D-01
     32  0.154093D-01  0.422628D-01
     33  0.158769D-01  0.160978D-01  0.427436D-01
     34 -0.427014D-02 -0.315897D-01 -0.308303D-01  0.515379D-01
     35 -0.313768D-01 -0.473618D-02 -0.306094D-01  0.242184D-01  0.508590D-01
     36 -0.309093D-01 -0.309012D-01 -0.396366D-02  0.249777D-01  0.249858D-01
     37  0.159735D-01 -0.110229D-01 -0.115533D-01  0.761020D-02 -0.193862D-01
     38 -0.111331D-01  0.158307D-01 -0.113323D-01 -0.197094D-01  0.725445D-02
     39 -0.106656D-01 -0.103344D-01  0.153134D-01 -0.189500D-01 -0.186188D-01
               36            37            38            39 
     36  0.519234D-01
     37 -0.199166D-01  0.318934D-01
     38 -0.199086D-01  0.489697D-02  0.318608D-01
     39  0.702899D-02  0.436656D-02  0.469777D-02  0.303455D-01
 Leave Link  716 at Sat May 24 08:46:18 2025, MaxMem=  3758096384 cpu:               0.0 elap:               0.0
 (Enter /apps/easybuild-2022/easybuild/software/Compiler/NVHPC/22.11-CUDA-11.7.0/Gaussian/g16c01-CUDA-11.7.0/g16/l103.exe)

 GradGradGradGradGradGradGradGradGradGradGradGradGradGradGradGradGradGrad
 Berny optimization.
 Red2BG is reusing G-inverse.
 Internal  Forces:  Max     0.190411511 RMS     0.042424574
 Search for a local minimum.
 Step number   1 out of a maximum of   49
 All quantities printed in internal units (Hartrees-Bohrs-Radians)
 RMS Force = .42425D-01 SwitMx=.10000D-02 MixMth= 1
 Mixed Optimization -- RFO/linear search
 Second derivative matrix not updated -- analytic derivatives used.
 ITU=  0
     Eigenvalues ---   -0.03784  -0.02535   0.00189   0.02155   0.06901
     Eigenvalues ---    0.09928   0.10461   0.10934   0.14803   0.15551
     Eigenvalues ---    0.17159   0.21979   0.23127   0.24035   0.25268
     Eigenvalues ---    0.26165   0.32095   0.37284   0.39551   0.40763
     Eigenvalues ---    0.41376   0.46413   0.48161   0.51423   0.58016
     Eigenvalues ---    0.64675   2.56623
 Eigenvalue     1 is  -3.78D-02 should be greater than     0.000000 Eigenvector:
                          D5        D4        A15       A1        D1
   1                    0.79021  -0.41108   0.38123   0.14635   0.08555
                          D3        R2        D2        R1        A3
   1                    0.08524  -0.07526   0.06957  -0.06671  -0.05909
 Eigenvalue     2 is  -2.53D-02 should be greater than     0.000000 Eigenvector:
                          D2        D5        D1        D4        D3
   1                    0.47298  -0.43528   0.42719  -0.41510   0.40739
                          A15       A1        A2        R1        A8
   1                    0.13172   0.11533  -0.07456  -0.06093  -0.05360
 RFO step:  Lambda=-9.67210568D-02 EMin=-3.78428556D-02
 Linear search not attempted -- first point.
 Maximum step size (   0.300) exceeded in Quadratic search.
    -- Step size scaled by   0.406
 Iteration  1 RMS(Cart)=  0.13375351 RMS(Int)=  0.02595156
 Iteration  2 RMS(Cart)=  0.07863700 RMS(Int)=  0.00428325
 Iteration  3 RMS(Cart)=  0.00590343 RMS(Int)=  0.00013850
 Iteration  4 RMS(Cart)=  0.00003196 RMS(Int)=  0.00013656
 Iteration  5 RMS(Cart)=  0.00000000 RMS(Int)=  0.00013656
 ITry= 1 IFail=0 DXMaxC= 8.38D-01 DCOld= 1.00D+10 DXMaxT= 3.00D-01 DXLimC= 3.00D+00 Rises=F
 Variable       Old X    -DE/DX   Delta X   Delta X   Delta X     New X
                                 (Linear)    (Quad)   (Total)
    R1        2.91897   0.05561   0.00000  -0.03976  -0.03976   2.87922
    R2        2.36563   0.05857   0.00000  -0.03346  -0.03346   2.33217
    R3        2.72691   0.04584   0.00000   0.02808   0.02808   2.75499
    R4        1.83011  -0.01017   0.00000  -0.00476  -0.00476   1.82535
    R5        2.91591  -0.00308   0.00000  -0.00726  -0.00726   2.90865
    R6        2.53549   0.02223   0.00000   0.01419   0.01419   2.54968
    R7        2.53556  -0.00996   0.00000  -0.00737  -0.00737   2.52819
    R8        2.50438  -0.00055   0.00000  -0.00103  -0.00103   2.50334
    R9        2.51213  -0.00573   0.00000  -0.00387  -0.00387   2.50827
   R10        2.51212   0.00036   0.00000  -0.00433  -0.00433   2.50779
    A1        1.86295   0.19041   0.00000   0.14661   0.14661   2.00955
    A2        1.73806   0.04077   0.00000   0.00886   0.00886   1.74692
    A3        2.09703  -0.02754   0.00000  -0.05606  -0.05577   2.04126
    A4        1.85868   0.05789   0.00000   0.04624   0.04647   1.90514
    A5        1.85824  -0.01169   0.00000   0.00946   0.00947   1.86772
    A6        1.86803  -0.01609   0.00000   0.00862   0.00906   1.87709
    A7        1.86818   0.01735   0.00000   0.02045   0.02044   1.88862
    A8        1.90903  -0.02171   0.00000  -0.03059  -0.03076   1.87827
    A9        1.92552  -0.00148   0.00000  -0.00102  -0.00102   1.92450
   A10        1.92583  -0.00247   0.00000  -0.00180  -0.00182   1.92401
   A11        1.92567  -0.00317   0.00000  -0.01261  -0.01263   1.91304
   A12        1.89370   0.00303   0.00000   0.00412   0.00412   1.89783
   A13        1.89365   0.00188   0.00000   0.00742   0.00740   1.90106
   A14        1.89870   0.00244   0.00000   0.00439   0.00436   1.90306
   A15        1.94620   0.10469   0.00000   0.23710   0.23710   2.18329
    D1       -2.09189   0.01395   0.00000   0.05162   0.05200  -2.03989
    D2        0.03190   0.02278   0.00000   0.06371   0.06325   0.09515
    D3        2.06767   0.02000   0.00000   0.05529   0.05537   2.12304
    D4        1.04658   0.04718   0.00000  -0.32231  -0.32231   0.72426
    D5       -1.04944  -0.01554   0.00000   0.12434   0.12434  -0.92510
    D6        3.14066   0.02142   0.00000   0.00959   0.00961  -3.13291
    D7       -1.05018   0.02266   0.00000   0.01291   0.01292  -1.03726
    D8        1.04848   0.02205   0.00000   0.00908   0.00911   1.05759
    D9        1.02146  -0.02363   0.00000  -0.02071  -0.02070   1.00076
   D10        3.11380  -0.02239   0.00000  -0.01739  -0.01739   3.09641
   D11       -1.07072  -0.02299   0.00000  -0.02122  -0.02120  -1.09192
   D12       -1.02378   0.00093   0.00000   0.00019   0.00015  -1.02363
   D13        1.06856   0.00217   0.00000   0.00351   0.00346   1.07202
   D14       -3.11596   0.00157   0.00000  -0.00032  -0.00035  -3.11631
         Item               Value     Threshold  Converged?
 Maximum Force            0.190412     0.000450     NO 
 RMS     Force            0.042425     0.000300     NO 
 Maximum Displacement     0.837948     0.001800     NO 
 RMS     Displacement     0.203824     0.001200     NO 
 Predicted change in Energy=-4.419820D-02
 Lowest energy point so far.  Saving SCF results.
 GradGradGradGradGradGradGradGradGradGradGradGradGradGradGradGradGradGrad

 Leave Link  103 at Sat May 24 08:46:18 2025, MaxMem=  3758096384 cpu:               0.0 elap:               0.0
 (Enter /apps/easybuild-2022/easybuild/software/Compiler/NVHPC/22.11-CUDA-11.7.0/Gaussian/g16c01-CUDA-11.7.0/g16/l202.exe)
                          Input orientation:                          
 ---------------------------------------------------------------------
 Center     Atomic      Atomic             Coordinates (Angstroms)
 Number     Number       Type             X           Y           Z
 ---------------------------------------------------------------------
      1          6           0        0.634419    1.925315   -1.077314
      2          8           0        1.104457   -0.032940    0.211700
      3          6           0       -0.866359    1.676570   -0.992490
      4          6           0       -1.526101    0.974150   -2.192678
      5          9           0       -2.826973    0.835125   -1.984676
      6          9           0       -1.344750    1.686309   -3.297990
      7          9           0       -0.985951   -0.226695   -2.357956
      8          9           0       -1.131639    0.939826    0.106267
      9          9           0       -1.452227    2.868556   -0.831890
     10          8           0        1.311440    1.342178   -0.226039
     11          1           0        0.167395    0.002438    0.443423
 ---------------------------------------------------------------------
                    Distance matrix (angstroms):
                    1          2          3          4          5
     1  C    0.000000
     2  O    2.391078   0.000000
     3  C    1.523615   2.873433   0.000000
     4  C    2.610861   3.703390   1.539190   0.000000
     5  F    3.740729   4.586256   2.352971   1.324712   0.000000
     6  F    2.984231   4.612196   2.354630   1.327318   2.155526
     7  F    2.982749   3.318204   2.345468   1.327068   2.157814
     8  F    2.343291   2.440802   1.349234   2.332794   2.693913
     9  F    2.303048   4.005545   1.337858   2.333662   2.711768
    10  O    1.234129   1.457878   2.332825   3.471995   4.525082
    11  H    2.495637   0.965936   2.435818   3.280423   3.944017
                    6          7          8          9         10
     6  F    0.000000
     7  F    2.161478   0.000000
     8  F    3.491650   2.730274   0.000000
     9  F    2.736953   3.482366   2.168621   0.000000
    10  O    4.075617   3.504917   2.498189   3.214769   0.000000
    11  H    4.372662   3.038163   1.637027   3.530472   1.884654
                   11
    11  H    0.000000
 Symmetry turned off by external request.
 Stoichiometry    C3HF5O2
 Rotational constants (GHZ):           2.1283148           1.0806523           0.9879612
 Leave Link  202 at Sat May 24 08:46:18 2025, MaxMem=  3758096384 cpu:               0.0 elap:               0.0
 (Enter /apps/easybuild-2022/easybuild/software/Compiler/NVHPC/22.11-CUDA-11.7.0/Gaussian/g16c01-CUDA-11.7.0/g16/l301.exe)
 Standard basis: def2TZVPP (5D, 7F)
 Ernie: Thresh=  0.10000D-02 Tol=  0.10000D-05 Strict=F.
   324 basis functions,   527 primitive gaussians,   375 cartesian basis functions
    40 alpha electrons       40 beta electrons
       nuclear repulsion energy       634.2593333984 Hartrees.
 IExCor= 4336 DFT=T Ex+Corr=M062X ExCW=0 ScaHFX=  0.540000
 ScaDFX=  1.000000  1.000000  1.000000  1.000000 ScalE2=  1.000000  1.000000
 IRadAn=      5 IRanWt=     -1 IRanGd=            0 ICorTp=0 IEmpDi=  4
 NAtoms=   11 NActive=   11 NUniq=   11 SFac= 1.00D+00 NAtFMM=   60 NAOKFM=F Big=F
 Integral buffers will be    131072 words long.
 Raffenetti 2 integral format.
 Two-electron integral symmetry is turned off.
 Leave Link  301 at Sat May 24 08:46:18 2025, MaxMem=  3758096384 cpu:               0.0 elap:               0.0
 (Enter /apps/easybuild-2022/easybuild/software/Compiler/NVHPC/22.11-CUDA-11.7.0/Gaussian/g16c01-CUDA-11.7.0/g16/l302.exe)
 NPDir=0 NMtPBC=     1 NCelOv=     1 NCel=       1 NClECP=     1 NCelD=      1
         NCelK=      1 NCelE2=     1 NClLst=     1 CellRange=     0.0.
 One-electron integrals computed using PRISM.
   1 Symmetry operations used in ECPInt.
 ECPInt:  NShTT=    6786 NPrTT=   21959 LenC2=    6462 LenP2D=   15951.
 LDataN:  DoStor=T MaxTD1= 6 Len=  172
 NBasis=   324 RedAO= T EigKep=  4.13D-04  NBF=   324
 NBsUse=   324 1.00D-06 EigRej= -1.00D+00 NBFU=   324
 Precomputing XC quadrature grid using
 IXCGrd= 4 IRadAn=           5 IRanWt=          -1 IRanGd=           0 AccXCQ= 0.00D+00.
 Generated NRdTot=       0 NPtTot=           0 NUsed=           0 NTot=          32
 NSgBfM=   373   373   373   373   373 MxSgAt=    11 MxSgA2=    11.
 Leave Link  302 at Sat May 24 08:46:18 2025, MaxMem=  3758096384 cpu:               0.6 elap:               0.1
 (Enter /apps/easybuild-2022/easybuild/software/Compiler/NVHPC/22.11-CUDA-11.7.0/Gaussian/g16c01-CUDA-11.7.0/g16/l303.exe)
 DipDrv:  MaxL=1.
 Leave Link  303 at Sat May 24 08:46:18 2025, MaxMem=  3758096384 cpu:               0.1 elap:               0.0
 (Enter /apps/easybuild-2022/easybuild/software/Compiler/NVHPC/22.11-CUDA-11.7.0/Gaussian/g16c01-CUDA-11.7.0/g16/l401.exe)
 Initial guess from the checkpoint file:  "/tmp/Gau-170519.chk"
 B after Tr=    -0.020809   -0.058326   -0.134094
         Rot=    0.999904   -0.013868   -0.000363   -0.000484 Ang=  -1.59 deg.
 Guess basis will be translated and rotated to current coordinates.
 JPrj=2 DoOrth=T DoCkMO=T.
 Generating alternative initial guess.
 ExpMin= 9.52D-02 ExpMax= 3.55D+04 ExpMxC= 1.21D+03 IAcc=3 IRadAn=         5 AccDes= 0.00D+00
 Harris functional with IExCor= 1009 and IRadAn=       5 diagonalized for initial guess.
 HarFok:  IExCor= 1009 AccDes= 0.00D+00 IRadAn=         5 IDoV= 1 UseB2=F ITyADJ=14
 ICtDFT=  3500011 ScaDFX=  1.000000  1.000000  1.000000  1.000000
 FoFCou: FMM=F IPFlag=           0 FMFlag=      100000 FMFlg1=           0
         NFxFlg=           0 DoJE=T BraDBF=F KetDBF=T FulRan=T
         wScrn=  0.000000 ICntrl=       500 IOpCl=  0 I1Cent=   200000004 NGrid=           0
         NMat0=    1 NMatS0=      1 NMatT0=    0 NMatD0=    1 NMtDS0=    0 NMtDT0=    0
 Symmetry not used in FoFCou.
 Harris En= -763.967717477270    
 Leave Link  401 at Sat May 24 08:46:18 2025, MaxMem=  3758096384 cpu:               3.5 elap:               0.5
 (Enter /apps/easybuild-2022/easybuild/software/Compiler/NVHPC/22.11-CUDA-11.7.0/Gaussian/g16c01-CUDA-11.7.0/g16/l502.exe)
 Keep R1 ints in memory in canonical form, NReq=1412617130.
 FoFCou: FMM=F IPFlag=           0 FMFlag=           0 FMFlg1=           0
         NFxFlg=           0 DoJE=F BraDBF=F KetDBF=F FulRan=T
         wScrn=  0.000000 ICntrl=       600 IOpCl=  0 I1Cent=           0 NGrid=           0
         NMat0=    1 NMatS0=  52650 NMatT0=    0 NMatD0=    1 NMtDS0=    0 NMtDT0=    0
 Symmetry not used in FoFCou.
 Two-electron integral symmetry not used.
 Closed shell SCF:
 Using DIIS extrapolation, IDIIS=  1040.
 NGot=  3758096384 LenX=  2371771924 LenY=  2371630858
 Requested convergence on RMS density matrix=1.00D-08 within  32 cycles.
 Requested convergence on MAX density matrix=1.00D-06.
 Requested convergence on             energy=1.00D-06.
 No special actions if energy rises.
 Integral accuracy reduced to 1.0D-05 until final iterations.

 Cycle   1  Pass 0  IDiag  1:
 E= -764.346940966118    
 DIIS: error= 7.41D-03 at cycle   1 NSaved=   1.
 NSaved= 1 IEnMin= 1 EnMin= -764.346940966118     IErMin= 1 ErrMin= 7.41D-03
 ErrMax= 7.41D-03  0.00D+00 EMaxC= 1.00D-01 BMatC= 5.17D-02 BMatP= 5.17D-02
 IDIUse=3 WtCom= 9.26D-01 WtEn= 7.41D-02
 Coeff-Com:  0.100D+01
 Coeff-En:   0.100D+01
 Coeff:      0.100D+01
 Gap=     0.879 Goal=   None    Shift=    0.000
 GapD=    0.879 DampG=2.000 DampE=1.000 DampFc=2.0000 IDamp=-1.
 RMSDP=8.16D-04 MaxDP=2.82D-02              OVMax= 1.06D-01

 Cycle   2  Pass 0  IDiag  1:
 E= -764.427162552624     Delta-E=       -0.080221586506 Rises=F Damp=F
 DIIS: error= 3.14D-03 at cycle   2 NSaved=   2.
 NSaved= 2 IEnMin= 2 EnMin= -764.427162552624     IErMin= 2 ErrMin= 3.14D-03
 ErrMax= 3.14D-03  0.00D+00 EMaxC= 1.00D-01 BMatC= 4.18D-03 BMatP= 5.17D-02
 IDIUse=3 WtCom= 9.69D-01 WtEn= 3.14D-02
 Coeff-Com: -0.710D-01 0.107D+01
 Coeff-En:   0.000D+00 0.100D+01
 Coeff:     -0.688D-01 0.107D+01
 Gap=     0.250 Goal=   None    Shift=    0.000
 RMSDP=2.85D-04 MaxDP=1.16D-02 DE=-8.02D-02 OVMax= 3.59D-02

 Cycle   3  Pass 0  IDiag  1:
 E= -764.432073178822     Delta-E=       -0.004910626198 Rises=F Damp=F
 DIIS: error= 2.16D-03 at cycle   3 NSaved=   3.
 NSaved= 3 IEnMin= 3 EnMin= -764.432073178822     IErMin= 3 ErrMin= 2.16D-03
 ErrMax= 2.16D-03  0.00D+00 EMaxC= 1.00D-01 BMatC= 4.61D-03 BMatP= 4.18D-03
 IDIUse=3 WtCom= 1.77D-01 WtEn= 8.23D-01
 Coeff-Com: -0.998D-01 0.598D+00 0.502D+00
 Coeff-En:   0.000D+00 0.000D+00 0.100D+01
 Coeff:     -0.177D-01 0.106D+00 0.912D+00
 Gap=     0.257 Goal=   None    Shift=    0.000
 RMSDP=2.22D-04 MaxDP=1.68D-02 DE=-4.91D-03 OVMax= 3.08D-02

 Cycle   4  Pass 0  IDiag  1:
 E= -764.430377496917     Delta-E=        0.001695681905 Rises=F Damp=F
 DIIS: error= 3.24D-03 at cycle   4 NSaved=   4.
 NSaved= 4 IEnMin= 3 EnMin= -764.432073178822     IErMin= 3 ErrMin= 2.16D-03
 ErrMax= 3.24D-03  0.00D+00 EMaxC= 1.00D-01 BMatC= 7.90D-03 BMatP= 4.18D-03
 IDIUse=3 WtCom= 1.49D-01 WtEn= 8.51D-01
 Coeff-Com: -0.250D-02-0.151D+00 0.616D+00 0.537D+00
 Coeff-En:   0.000D+00 0.000D+00 0.587D+00 0.413D+00
 Coeff:     -0.373D-03-0.225D-01 0.591D+00 0.432D+00
 Gap=     0.252 Goal=   None    Shift=    0.000
 RMSDP=1.24D-04 MaxDP=8.07D-03 DE= 1.70D-03 OVMax= 1.26D-02

 Cycle   5  Pass 0  IDiag  1:
 E= -764.435774022765     Delta-E=       -0.005396525848 Rises=F Damp=F
 DIIS: error= 2.27D-04 at cycle   5 NSaved=   5.
 NSaved= 5 IEnMin= 5 EnMin= -764.435774022765     IErMin= 5 ErrMin= 2.27D-04
 ErrMax= 2.27D-04  0.00D+00 EMaxC= 1.00D-01 BMatC= 3.16D-05 BMatP= 4.18D-03
 IDIUse=3 WtCom= 9.98D-01 WtEn= 2.27D-03
 Coeff-Com:  0.845D-02-0.119D+00 0.895D-01 0.993D-01 0.922D+00
 Coeff-En:   0.000D+00 0.000D+00 0.000D+00 0.000D+00 0.100D+01
 Coeff:      0.843D-02-0.119D+00 0.893D-01 0.991D-01 0.922D+00
 Gap=     0.252 Goal=   None    Shift=    0.000
 RMSDP=3.23D-05 MaxDP=1.50D-03 DE=-5.40D-03 OVMax= 6.35D-03

 Cycle   6  Pass 0  IDiag  1:
 E= -764.435846736878     Delta-E=       -0.000072714113 Rises=F Damp=F
 DIIS: error= 6.71D-05 at cycle   6 NSaved=   6.
 NSaved= 6 IEnMin= 6 EnMin= -764.435846736878     IErMin= 6 ErrMin= 6.71D-05
 ErrMax= 6.71D-05  0.00D+00 EMaxC= 1.00D-01 BMatC= 5.14D-06 BMatP= 3.16D-05
 IDIUse=1 WtCom= 1.00D+00 WtEn= 0.00D+00
 Coeff-Com:  0.357D-02-0.248D-01-0.573D-01-0.390D-01 0.370D+00 0.747D+00
 Coeff:      0.357D-02-0.248D-01-0.573D-01-0.390D-01 0.370D+00 0.747D+00
 Gap=     0.252 Goal=   None    Shift=    0.000
 RMSDP=8.04D-06 MaxDP=3.64D-04 DE=-7.27D-05 OVMax= 1.73D-03

 Initial convergence to 1.0D-05 achieved.  Increase integral accuracy.
 Cycle   7  Pass 1  IDiag  1:
 E= -764.435926427134     Delta-E=       -0.000079690256 Rises=F Damp=F
 DIIS: error= 3.47D-05 at cycle   1 NSaved=   1.
 NSaved= 1 IEnMin= 1 EnMin= -764.435926427134     IErMin= 1 ErrMin= 3.47D-05
 ErrMax= 3.47D-05  0.00D+00 EMaxC= 1.00D-01 BMatC= 1.08D-06 BMatP= 1.08D-06
 IDIUse=1 WtCom= 1.00D+00 WtEn= 0.00D+00
 Coeff-Com:  0.100D+01
 Coeff:      0.100D+01
 Gap=     0.252 Goal=   None    Shift=    0.000
 RMSDP=8.04D-06 MaxDP=3.64D-04 DE=-7.97D-05 OVMax= 7.75D-04

 Cycle   8  Pass 1  IDiag  1:
 E= -764.435927662507     Delta-E=       -0.000001235373 Rises=F Damp=F
 DIIS: error= 1.90D-05 at cycle   2 NSaved=   2.
 NSaved= 2 IEnMin= 2 EnMin= -764.435927662507     IErMin= 2 ErrMin= 1.90D-05
 ErrMax= 1.90D-05  0.00D+00 EMaxC= 1.00D-01 BMatC= 4.75D-07 BMatP= 1.08D-06
 IDIUse=1 WtCom= 1.00D+00 WtEn= 0.00D+00
 Coeff-Com:  0.350D+00 0.650D+00
 Coeff:      0.350D+00 0.650D+00
 Gap=     0.252 Goal=   None    Shift=    0.000
 RMSDP=1.91D-06 MaxDP=7.29D-05 DE=-1.24D-06 OVMax= 2.21D-04

 Cycle   9  Pass 1  IDiag  1:
 E= -764.435928011523     Delta-E=       -0.000000349016 Rises=F Damp=F
 DIIS: error= 1.36D-05 at cycle   3 NSaved=   3.
 NSaved= 3 IEnMin= 3 EnMin= -764.435928011523     IErMin= 3 ErrMin= 1.36D-05
 ErrMax= 1.36D-05  0.00D+00 EMaxC= 1.00D-01 BMatC= 1.05D-07 BMatP= 4.75D-07
 IDIUse=1 WtCom= 1.00D+00 WtEn= 0.00D+00
 Coeff-Com: -0.788D-01 0.270D+00 0.809D+00
 Coeff:     -0.788D-01 0.270D+00 0.809D+00
 Gap=     0.252 Goal=   None    Shift=    0.000
 RMSDP=1.30D-06 MaxDP=7.16D-05 DE=-3.49D-07 OVMax= 2.71D-04

 Cycle  10  Pass 1  IDiag  1:
 E= -764.435928154641     Delta-E=       -0.000000143118 Rises=F Damp=F
 DIIS: error= 3.63D-06 at cycle   4 NSaved=   4.
 NSaved= 4 IEnMin= 4 EnMin= -764.435928154641     IErMin= 4 ErrMin= 3.63D-06
 ErrMax= 3.63D-06  0.00D+00 EMaxC= 1.00D-01 BMatC= 1.11D-08 BMatP= 1.05D-07
 IDIUse=1 WtCom= 1.00D+00 WtEn= 0.00D+00
 Coeff-Com: -0.611D-01-0.413D-02 0.207D+00 0.858D+00
 Coeff:     -0.611D-01-0.413D-02 0.207D+00 0.858D+00
 Gap=     0.252 Goal=   None    Shift=    0.000
 RMSDP=5.42D-07 MaxDP=2.45D-05 DE=-1.43D-07 OVMax= 1.29D-04

 Cycle  11  Pass 1  IDiag  1:
 E= -764.435928180434     Delta-E=       -0.000000025793 Rises=F Damp=F
 DIIS: error= 3.24D-06 at cycle   5 NSaved=   5.
 NSaved= 5 IEnMin= 5 EnMin= -764.435928180434     IErMin= 5 ErrMin= 3.24D-06
 ErrMax= 3.24D-06  0.00D+00 EMaxC= 1.00D-01 BMatC= 3.61D-09 BMatP= 1.11D-08
 IDIUse=1 WtCom= 1.00D+00 WtEn= 0.00D+00
 Coeff-Com: -0.304D-02-0.795D-01-0.135D+00 0.374D+00 0.843D+00
 Coeff:     -0.304D-02-0.795D-01-0.135D+00 0.374D+00 0.843D+00
 Gap=     0.252 Goal=   None    Shift=    0.000
 RMSDP=3.46D-07 MaxDP=1.57D-05 DE=-2.58D-08 OVMax= 9.08D-05

 Cycle  12  Pass 1  IDiag  1:
[...]
    R2        2.26986   0.00000   0.00000  -0.00001  -0.00001   2.26985
    R3        3.05880   0.00001   0.00000   0.00014   0.00014   3.05894
    R4        1.82501   0.00001   0.00000   0.00001   0.00001   1.82502
    R5        2.92795   0.00000   0.00000   0.00003   0.00003   2.92798
    R6        2.52199  -0.00001   0.00000  -0.00003  -0.00003   2.52196
    R7        2.53519  -0.00000   0.00000  -0.00001  -0.00001   2.53518
    R8        2.49936  -0.00000   0.00000  -0.00000  -0.00000   2.49935
    R9        2.50863   0.00000   0.00000   0.00000   0.00000   2.50864
   R10        2.49868  -0.00000   0.00000   0.00000   0.00000   2.49868
    A1        2.15125  -0.00001   0.00000  -0.00004  -0.00004   2.15120
    A2        1.68258  -0.00003   0.00000  -0.00026  -0.00026   1.68232
    A3        1.93447  -0.00001   0.00000  -0.00006  -0.00006   1.93441
    A4        1.98439   0.00002   0.00000   0.00010   0.00010   1.98449
    A5        1.87898  -0.00000   0.00000   0.00001   0.00001   1.87899
    A6        1.90970  -0.00002   0.00000  -0.00011  -0.00011   1.90959
    A7        1.87109   0.00001   0.00000   0.00004   0.00004   1.87112
    A8        1.88080   0.00000   0.00000   0.00002   0.00002   1.88082
    A9        1.90674   0.00000   0.00000  -0.00000  -0.00000   1.90673
   A10        1.91088   0.00000   0.00000   0.00003   0.00003   1.91090
   A11        1.93775  -0.00000   0.00000  -0.00001  -0.00001   1.93774
   A12        1.90330  -0.00000   0.00000  -0.00001  -0.00001   1.90329
   A13        1.90571   0.00000   0.00000  -0.00000  -0.00000   1.90571
   A14        1.89915   0.00000   0.00000   0.00000   0.00000   1.89915
   A15        2.07324   0.00001   0.00000   0.00004   0.00004   2.07329
    D1       -1.49818   0.00001   0.00000  -0.00003  -0.00003  -1.49821
    D2        0.66161  -0.00001   0.00000  -0.00015  -0.00015   0.66147
    D3        2.74375   0.00001   0.00000  -0.00005  -0.00005   2.74370
    D4       -0.01257   0.00001   0.00000  -0.00001  -0.00001  -0.01258
    D5        2.96013  -0.00001   0.00000  -0.00157  -0.00157   2.95856
    D6       -3.11874   0.00000   0.00000  -0.00020  -0.00020  -3.11894
    D7       -1.03552   0.00000   0.00000  -0.00020  -0.00020  -1.03572
    D8        1.06172   0.00000   0.00000  -0.00019  -0.00019   1.06154
    D9        0.96243  -0.00000   0.00000  -0.00021  -0.00021   0.96222
   D10        3.04565  -0.00000   0.00000  -0.00021  -0.00021   3.04545
   D11       -1.14029  -0.00000   0.00000  -0.00020  -0.00020  -1.14048
   D12       -1.07263   0.00000   0.00000  -0.00020  -0.00020  -1.07283
   D13        1.01059   0.00000   0.00000  -0.00019  -0.00019   1.01039
   D14        3.10783   0.00000   0.00000  -0.00018  -0.00018   3.10765
         Item               Value     Threshold  Converged?
 Maximum Force            0.000033     0.000450     YES
 RMS     Force            0.000008     0.000300     YES
 Maximum Displacement     0.001754     0.001800     YES
 RMS     Displacement     0.000383     0.001200     YES
 Predicted change in Energy=-1.314562D-08
 Optimization completed.
    -- Stationary point found.
                           ----------------------------
                           !   Optimized Parameters   !
                           ! (Angstroms and Degrees)  !
 --------------------------                            --------------------------
 ! Name  Definition              Value          Derivative Info.                !
 --------------------------------------------------------------------------------
 ! R1    R(1,3)                  1.5311         -DE/DX =    0.0                 !
 ! R2    R(1,10)                 1.2012         -DE/DX =    0.0                 !
 ! R3    R(2,10)                 1.6186         -DE/DX =    0.0                 !
 ! R4    R(2,11)                 0.9658         -DE/DX =    0.0                 !
 ! R5    R(3,4)                  1.5494         -DE/DX =    0.0                 !
 ! R6    R(3,8)                  1.3346         -DE/DX =    0.0                 !
 ! R7    R(3,9)                  1.3416         -DE/DX =    0.0                 !
 ! R8    R(4,5)                  1.3226         -DE/DX =    0.0                 !
 ! R9    R(4,6)                  1.3275         -DE/DX =    0.0                 !
 ! R10   R(4,7)                  1.3222         -DE/DX =    0.0                 !
 ! A1    A(3,1,10)             123.2573         -DE/DX =    0.0                 !
 ! A2    A(10,2,11)             96.4047         -DE/DX =    0.0                 !
 ! A3    A(1,3,4)              110.8367         -DE/DX =    0.0                 !
 ! A4    A(1,3,8)              113.6972         -DE/DX =    0.0                 !
 ! A5    A(1,3,9)              107.6578         -DE/DX =    0.0                 !
 ! A6    A(4,3,8)              109.4179         -DE/DX =    0.0                 !
 ! A7    A(4,3,9)              107.2053         -DE/DX =    0.0                 !
 ! A8    A(8,3,9)              107.762          -DE/DX =    0.0                 !
 ! A9    A(3,4,5)              109.2481         -DE/DX =    0.0                 !
 ! A10   A(3,4,6)              109.4851         -DE/DX =    0.0                 !
 ! A11   A(3,4,7)              111.0247         -DE/DX =    0.0                 !
 ! A12   A(5,4,6)              109.0512         -DE/DX =    0.0                 !
 ! A13   A(5,4,7)              109.1893         -DE/DX =    0.0                 !
 ! A14   A(6,4,7)              108.8131         -DE/DX =    0.0                 !
 ! A15   A(1,10,2)             118.788          -DE/DX =    0.0                 !
 ! D1    D(10,1,3,4)           -85.8392         -DE/DX =    0.0                 !
 ! D2    D(10,1,3,8)            37.9077         -DE/DX =    0.0                 !
 ! D3    D(10,1,3,9)           157.2052         -DE/DX =    0.0                 !
 ! D4    D(3,1,10,2)            -0.7204         -DE/DX =    0.0                 !
 ! D5    D(11,2,10,1)          169.603          -DE/DX =    0.0                 !
 ! D6    D(1,3,4,5)           -178.6907         -DE/DX =    0.0                 !
 ! D7    D(1,3,4,6)            -59.331          -DE/DX =    0.0                 !
 ! D8    D(1,3,4,7)             60.8323         -DE/DX =    0.0                 !
 ! D9    D(8,3,4,5)             55.1433         -DE/DX =    0.0                 !
 ! D10   D(8,3,4,6)            174.503          -DE/DX =    0.0                 !
 ! D11   D(8,3,4,7)            -65.3337         -DE/DX =    0.0                 !
 ! D12   D(9,3,4,5)            -61.4573         -DE/DX =    0.0                 !
 ! D13   D(9,3,4,6)             57.9024         -DE/DX =    0.0                 !
 ! D14   D(9,3,4,7)            178.0657         -DE/DX =    0.0                 !
 --------------------------------------------------------------------------------
 GradGradGradGradGradGradGradGradGradGradGradGradGradGradGradGradGradGrad

 Leave Link  103 at Sat May 24 09:06:15 2025, MaxMem=  3758096384 cpu:               0.0 elap:               0.0
 (Enter /apps/easybuild-2022/easybuild/software/Compiler/NVHPC/22.11-CUDA-11.7.0/Gaussian/g16c01-CUDA-11.7.0/g16/l9999.exe)

 ----------------------------------------------------------------------

 Electric dipole moment (input orientation):
 (Debye = 10**-18 statcoulomb cm , SI units = C m)
                  (au)            (Debye)         (10**-30 SI)
   Tot        0.710456D+00      0.180580D+01      0.602349D+01
   x          0.618616D+00      0.157237D+01      0.524485D+01
   y         -0.323193D+00     -0.821475D+00     -0.274015D+01
   z          0.132692D+00      0.337268D+00      0.112501D+01

 Dipole polarizability, Alpha (input orientation).
 (esu units = cm**3 , SI units = C**2 m**2 J**-1)
 Alpha(0;0):
               (au)            (10**-24 esu)      (10**-40 SI)
   iso        0.539948D+02      0.800121D+01      0.890255D+01
   aniso      0.332813D+02      0.493177D+01      0.548734D+01
   xx         0.496549D+02      0.735810D+01      0.818699D+01
   yx        -0.684058D+01     -0.101367D+01     -0.112786D+01
   yy         0.639308D+02      0.947357D+01      0.105408D+02
   zx         0.621806D+01      0.921421D+00      0.102522D+01
   zy        -0.144679D+02     -0.214392D+01     -0.238543D+01
   zz         0.483988D+02      0.717196D+01      0.797988D+01

 ----------------------------------------------------------------------

 Dipole orientation:
     6          3.01154986          2.70494056         -1.34872275
     8         -0.15971347          0.47589352          1.13524043
     6          1.95930877          1.35628423         -3.68230516
     6          3.21461252         -1.26679684         -4.02370113
     9          2.30353191         -2.35472151         -6.08115876
     9          5.69394633         -0.98124348         -4.27786920
     9          2.77067613         -2.73647104         -2.05230770
     9         -0.54824821          1.08842241         -3.65355707
     9          2.56524280          2.74763081         -5.71311215
     8          2.19300690          2.39128176          0.74504360
     1         -0.08723970          0.43315151          2.95830886

 Electric dipole moment (dipole orientation):
 (Debye = 10**-18 statcoulomb cm , SI units = C m)
                  (au)            (Debye)         (10**-30 SI)
   Tot        0.710456D+00      0.180580D+01      0.602349D+01
   x          0.000000D+00      0.000000D+00      0.000000D+00
   y          0.000000D+00      0.000000D+00      0.000000D+00
   z          0.710456D+00      0.180580D+01      0.602349D+01

 Dipole polarizability, Alpha (dipole orientation).
 (esu units = cm**3 , SI units = C**2 m**2 J**-1)
 Alpha(0;0):
               (au)            (10**-24 esu)      (10**-40 SI)
   iso        0.539948D+02      0.800121D+01      0.890255D+01
   aniso      0.332813D+02      0.493177D+01      0.548734D+01
   xx         0.531425D+02      0.787490D+01      0.876201D+01
   yx         0.904848D+01      0.134085D+01      0.149189D+01
   yy         0.463766D+02      0.687230D+01      0.764646D+01
   zx        -0.137551D+02     -0.203830D+01     -0.226791D+01
   zy        -0.573390D+01     -0.849676D+00     -0.945392D+00
   zz         0.624655D+02      0.925643D+01      0.102992D+02

 ----------------------------------------------------------------------
 Unable to Open any file for archive entry.
 1\1\GINC-SPARTAN-BM189\Freq\RM062X\def2TZVPP\C3H1F5O2\AKHALILOV\24-May
 -2025\0\\#P Geom=AllCheck Guess=TCheck SCRF=Check GenChk RM062X/def2TZ
 VPP Freq\\Gaussian input prepared by ASE\\0,1\C,0.4318346961,2.0383746
 031,-0.8697815316\O,0.5766168655,-0.0935742053,0.300352932\C,-1.082709
 1079,1.8250537679,-0.9402360019\C,-1.4634076395,0.9829223052,-2.183834
 7237\F,-2.7776929808,0.8419767111,-2.2292759277\F,-1.0562616779,1.6067
 711084,-3.2826208897\F,-0.8994628804,-0.2121595475,-2.138231934\F,-1.5
 959911762,1.2582144948,0.1535342288\F,-1.656905013,3.02882897,-1.08521
 0424\O,1.1847521424,1.2527357918,-0.361190867\H,1.4229360727,-0.538311
 3428,0.4368515083\\Version=ES64L-G16RevC.01\HF=-764.4632886\RMSD=2.456
 e-09\RMSF=9.955e-06\ZeroPoint=0.0484018\Thermal=0.0581778\ETot=-764.40
 51108\HTot=-764.4041666\GTot=-764.4505757\Dipole=0.6186164,-0.3231933,
 0.1326916\DipoleDeriv=0.1525714,0.5000857,-0.1281033,0.0189275,-0.8955
 312,0.4508875,-0.0354141,0.479947,-0.3628704,-0.1011611,-0.2249132,0.0
 965423,0.3272636,-1.3625702,0.6422025,-0.2164048,0.5323386,-0.646166,1
 .0185134,-0.4476451,0.0050477,-0.3956284,1.2836666,-0.3202862,-0.21774
 51,-0.1038262,0.9994581,1.6205484,-0.0078759,-0.0351073,0.1420781,1.28
 45141,0.0468393,0.1691238,-0.2103376,1.5312693,-0.9768546,-0.0206049,-
 0.0991675,-0.1631121,-0.2430134,-0.0779303,-0.1522462,0.0020037,-0.355
 9261,-0.3347165,-0.0753091,0.0905926,-0.1009934,-0.3635379,0.1343195,0
 .0996496,0.2533376,-0.7963551,-0.3760265,0.1533373,-0.0218999,0.189323
 7,-0.6905832,-0.057949,-0.0266626,-0.0734323,-0.3207243,-0.5083201,0.0
 709298,0.054037,-0.0835342,-0.2436605,0.0752785,0.2537271,0.0496044,-0
 .5557068,-0.3969278,0.2808458,-0.0552994,0.2500149,-0.7421959,0.063700
 4,0.0095129,-0.0108145,-0.2776302,-0.3185437,-0.0944076,-0.0041036,-0.
 1652985,1.6738958,-0.9744695,0.0907926,-0.9427036,0.4536639,0.220917,-
 0.1344428,0.0974614,-0.0190414,0.2990158,0.0174074,0.0256668,0.023883,
 0.3309876\Polar=49.6549443,-6.8405775,63.9308034,6.2180585,-14.4678699
 ,48.3987803\PG=Unknown\NImag=0\\0.56573375,-0.23849597,0.39322841,0.17
 607311,-0.18230199,0.21666401,0.05079602,-0.00462895,0.00306070,0.5095
 0193,0.05412447,-0.09698498,0.07240128,-0.18869360,0.18361215,-0.02500
 300,0.06076811,-0.01230182,0.05533201,-0.06427801,0.03784990,-0.128485
 58,-0.01689228,-0.00963860,-0.00649858,-0.02768458,0.01168687,0.505223
 52,-0.04128488,-0.05880446,-0.01790324,0.00588313,0.00830865,-0.012771
 71,-0.02705126,0.53136901,0.00870998,-0.00703591,-0.06472331,0.0034681
 2,-0.00477309,-0.01426927,-0.03603173,-0.01734765,0.53497501,-0.010292
 38,-0.01387273,-0.02316157,0.00278091,0.00117120,-0.00212379,-0.074247
 97,-0.03721070,-0.05216424,0.60323440,-0.00559298,-0.00240688,0.004581
 97,-0.00517850,-0.01506300,0.00392277,-0.01451071,-0.07747714,-0.06358
 707,0.00349832,0.60584514,-0.01623440,-0.00507392,0.00425283,-0.001167
 75,-0.00348195,0.00419395,-0.01278738,-0.06094497,-0.12990034,0.010585
 36,0.01211779,0.60054225,0.00406242,-0.00016949,-0.00468019,0.00073274
 ,0.00217424,-0.00279354,-0.04949304,-0.00642891,-0.00242261,-0.3128936
 4,-0.04156655,-0.03458824,0.45074495,0.00133416,-0.00002437,-0.0037247
 3,0.00108460,0.00286526,-0.00152975,-0.02701455,-0.00241382,-0.0037804
 7,-0.03910184,-0.08419260,-0.00868091,0.03837414,0.08416341,0.00241573
 ,-0.00041131,-0.00430863,0.00084215,0.00171179,-0.00172021,-0.03530106
 ,-0.00641772,-0.00278624,-0.02921035,-0.00845556,-0.08503822,0.0106101
 0,-0.00270292,0.07617387,-0.00207614,0.00033303,-0.00077697,-0.0000068
 1,0.00133568,0.00027525,0.00784003,0.00121047,0.00385497,-0.09128850,-
 0.02459688,0.05002922,-0.04544364,-0.03093699,0.05228848,0.11360183,-0
 .00171562,0.00031517,-0.00161725,0.00074953,0.00296575,-0.00015733,0.0
 0162090,0.00196273,-0.00142708,-0.02481170,-0.11251053,0.07949670,-0.0
 2602013,0.00084915,0.01761951,0.04927663,0.16044822,-0.00034931,-0.000
 45782,-0.00141618,0.00019208,0.00115716,-0.00127587,0.01660885,0.03123
 732,-0.03482105,0.04865227,0.07057141,-0.27120518,0.03504848,0.0136088
 2,-0.00242719,-0.09362374,-0.14647394,0.32920288,-0.00004897,0.0004154
 1,0.00271102,-0.00279412,-0.00252417,-0.00260603,0.00459379,0.00559140
 ,0.00014893,-0.11109875,0.08403487,0.00377162,-0.05912398,0.05616720,-
 0.00101054,0.01533820,0.00090276,-0.00532098,0.15014524,0.00022211,0.0
 0295367,-0.00371706,0.00196574,0.00688240,-0.00075139,0.02023884,-0.03
 578326,0.01112836,0.08187192,-0.29251131,-0.02279633,0.03721765,-0.002
 17780,0.00258171,0.00690886,-0.05553764,0.04023403,-0.14593711,0.39036
 135,0.00147789,0.00029317,-0.00006729,-0.00360389,0.00037379,-0.004558
 10,0.00980616,-0.02081788,0.00869042,0.00076775,-0.01538678,-0.0842275
 2,-0.00375660,0.00483861,0.01346762,-0.01034224,0.05637812,-0.00765074
 ,0.00614896,-0.01814564,0.07803905,-0.03402494,-0.01225566,0.02578618,
 -0.00026728,0.02234991,-0.00575931,-0.10970690,-0.03354853,0.09690426,
 -0.00042691,-0.00295121,0.00040091,0.00605897,0.00219339,-0.00100092,0
 .00044157,0.00018581,-0.00125900,0.00092299,-0.00075681,-0.00051710,0.
 11263334,-0.01537139,0.00393265,0.00688749,0.00725924,0.00247567,-0.00
 029153,-0.03815232,-0.09750991,0.07934857,0.00489996,0.00460722,-0.003
 57228,0.00190820,0.00126992,-0.00056308,-0.00071880,0.00040912,-0.0042
 7927,-0.00060565,0.00342648,0.00050525,0.04602976,0.14143345,0.0217075
 7,0.00430722,-0.00286837,-0.00530981,-0.01109902,0.00625302,0.08076688
 ,0.06550812,-0.25106615,0.02584602,0.02738404,-0.03700493,-0.00135539,
 -0.00136139,0.00305792,-0.00113142,-0.00276974,-0.01329541,-0.00104364
 ,-0.00471593,0.00153689,-0.11254430,-0.13513554,0.31628421,-0.03283570
 ,0.04442518,-0.00350820,-0.00023001,0.00126111,0.00111538,-0.11720185,
 0.10091281,0.00542949,-0.00216054,0.00455806,-0.00614176,0.00671675,-0
 .00106056,0.00199786,0.00062735,-0.00063640,0.00040452,0.00111524,-0.0
 0018867,0.00097823,0.01536726,-0.00730824,-0.00318447,0.13803730,0.017
 96362,-0.01004643,0.00597111,-0.00015702,-0.00003682,-0.00030997,0.093
 91494,-0.26010544,-0.00521634,0.02570477,-0.04389392,0.01087900,-0.002
 72460,0.00322281,-0.00121986,-0.00123227,0.00443065,-0.00437936,-0.000
 57782,-0.00951919,-0.00855485,0.00340798,-0.04918609,0.04118224,-0.139
 83955,0.36376672,-0.00364236,0.00598306,0.00685839,-0.00020076,0.00004
 977,0.00128989,-0.00627738,0.00796865,-0.06916955,0.01459866,-0.020336
 64,0.00339980,0.00053776,0.00041187,0.00082564,-0.00071583,-0.00241366
 ,0.00191868,-0.00035687,-0.00753033,-0.00425619,-0.01066751,0.05443879
 ,-0.01449460,0.00834848,-0.03720954,0.07556252,-0.41338494,0.25245460,
 -0.17331146,-0.12009142,-0.07106855,0.03178038,-0.02902154,0.03227653,
 -0.02957734,-0.00353581,0.00396609,0.00667854,-0.00192297,-0.00142095,
 -0.00192883,0.00078280,0.00014945,-0.00045020,0.00117470,-0.00216146,-
 0.00078727,0.00821589,-0.00002496,-0.00166477,-0.00983674,0.00338823,-
 0.00137051,0.55292523,0.23358824,-0.22400750,0.11320723,0.00943675,0.0
 2572560,-0.02404636,0.03540825,-0.00787679,0.01362450,-0.00225170,0.01
 728488,0.00109153,-0.00242800,-0.00338222,-0.00191081,-0.00164741,-0.0
 0337253,-0.00087026,0.00278825,-0.00791542,0.00107106,-0.02270369,-0.0
 1185842,0.01594822,-0.00175333,0.00102697,-0.00119784,-0.24762597,0.22
 616704,-0.16691971,0.11764271,-0.14034792,-0.00665001,-0.03047650,-0.0
 0214782,-0.01903291,0.03119670,0.02297548,0.00676618,-0.01153957,-0.00
 516828,0.00307476,0.00302161,0.00275346,0.00006729,0.00153738,0.000895
 37,-0.00256449,0.00429345,-0.00040173,0.00733667,0.00328795,-0.0085210
 7,-0.00560990,-0.00081960,-0.00195250,0.18446373,-0.12133926,0.1354806
 5,0.00055645,-0.01131313,0.00744598,-0.43392338,0.20755429,-0.06190422
 ,-0.00300190,-0.00035006,0.00168016,-0.00007080,-0.00166051,-0.0005461
 2,0.00056144,0.00038140,0.00029738,0.00018332,0.00029877,0.00009703,-0
 .00022434,0.00061893,-0.00017190,0.00078601,0.00208419,-0.00208668,0.0
 0040093,0.00015171,-0.00025367,0.01469480,-0.00281137,-0.00093161,0.42
 003746,-0.00477177,-0.00815529,0.00621518,0.17227908,-0.12075068,0.039
 44516,0.00012278,-0.00166957,-0.00093382,0.00010250,0.00031813,0.00096
 536,-0.00033656,-0.00017975,-0.00023173,0.00006769,0.00003990,-0.00034
 809,-0.00025514,-0.00017928,-0.00055483,-0.00195096,0.00099991,0.00075
 178,-0.00037041,0.00034074,-0.00016413,0.03006700,-0.01179162,0.003195
 13,-0.19495422,0.14102750,0.00176450,0.00628669,-0.00174171,-0.0459628
 6,0.03841479,-0.01331367,0.00020030,0.00029237,0.00009499,-0.00055628,
 0.00072765,0.00015563,0.00032546,-0.00010074,0.00000199,0.00007500,-0.
 00017270,0.00007469,0.00012200,-0.00058086,-0.00057240,0.00132012,-0.0
 0062635,0.00011849,0.00017037,-0.00032282,0.00001792,-0.01383226,0.004
 42199,-0.00356565,0.05637365,-0.04834002,0.01872972\\-0.00000841,-0.00
 000684,0.00001587,0.00002159,0.00001508,-0.00000392,-0.00000400,-0.000
 00739,-0.00002858,0.00000137,0.00000897,-0.00000574,0.00000002,0.00000
 156,-0.00000157,0.00000453,-0.00000462,0.00000116,0.00000017,-0.000002
 83,0.00000006,0.00000831,0.00000692,0.00001664,0.00000192,0.00000151,-
 0.00000397,-0.00000699,-0.00000295,-0.00000441,-0.00001851,-0.00000942
 ,0.00001446\\\@
 The archive entry for this job was punched.


 WHEN YOU REACH FOR THE STARS, YOU MAY NOT QUITE GET ONE,
 BUT YOU WON'T COME UP WITH A HANDFUL OF MUD, EITHER.

                                         -- LEO BURNETT (AD AGENCY HEAD)
 Job cpu time:       0 days  0 hours 28 minutes 14.1 seconds.
 Elapsed time:       0 days  0 hours  3 minutes 36.7 seconds.
 File lengths (MBytes):  RWF=    116 Int=      0 D2E=      0 Chk=      9 Scr=      1
 Normal termination of Gaussian 16 at Sat May 24 09:06:16 2025.
done
