11
energy = -764.412930835
C 2.18644800 0.04985800 -0.14137700
O 2.55922800 -0.87604400 -0.73733000
C -0.07085800 -0.14005500 -0.05143400
C 0.92138500 -0.07980100 1.35593000
F 0.54570600 1.13397000 1.80248000
F 0.34032300 -1.10290300 1.97938400
F 2.21716300 -0.16986600 2.01043500
F -0.03939500 0.86954700 -0.89882000
F -0.02562400 -1.24223800 -0.73110600
O 2.60039200 1.28794400 -0.13261900
H 2.13826400 1.82072800 0.53123800
11
energy = -764.4111933330001
C 2.20670400 -0.00053600 0.00005600
O 2.62991200 -0.95454700 -0.53214500
C 0.00007800 0.00005700 0.00013300
C 0.93269300 -0.11524800 1.43185200
F 0.44620300 0.96281500 2.04550200
F 0.43361700 -1.28339700 1.83555500
F 2.21308900 -0.19356800 2.12416900
F 0.01366600 1.09861600 -0.70669500
F -0.01295800 -1.01615300 -0.80604300
O 2.59976900 1.25143200 -0.00144400
H 3.42145200 1.32732800 -0.51230400
