 Entering Gaussian System, Link 0=g16
 Initial command:
 /apps/easybuild-2022/easybuild/software/Compiler/NVHPC/22.11-CUDA-11.7.0/Gaussian/g16c01-CUDA-11.7.0/g16/l1.exe "/tmp/Gau-187254.inp" -scrdir="/tmp/"
 Entering Link 1 = /apps/easybuild-2022/easybuild/software/Compiler/NVHPC/22.11-CUDA-11.7.0/Gaussian/g16c01-CUDA-11.7.0/g16/l1.exe PID=    187256.
  
 Copyright (c) 1988-2019, Gaussian, Inc.  All Rights Reserved.
  
 This is part of the Gaussian(R) 16 program.  It is based on
 the Gaussian(R) 09 system (copyright 2009, Gaussian, Inc.),
 the Gaussian(R) 03 system (copyright 2003, Gaussian, Inc.),
 the Gaussian(R) 98 system (copyright 1998, Gaussian, Inc.),
 the Gaussian(R) 94 system (copyright 1995, Gaussian, Inc.),
 the Gaussian 92(TM) system (copyright 1992, Gaussian, Inc.),
 the Gaussian 90(TM) system (copyright 1990, Gaussian, Inc.),
 the Gaussian 88(TM) system (copyright 1988, Gaussian, Inc.),
 the Gaussian 86(TM) system (copyright 1986, Carnegie Mellon
 University), and the Gaussian 82(TM) system (copyright 1983,
 Carnegie Mellon University). Gaussian is a federally registered
 trademark of Gaussian, Inc.
  
 This software contains proprietary and confidential information,
 including trade secrets, belonging to Gaussian, Inc.
  
 This software is provided under written license and may be
 used, copied, transmitted, or stored only in accord with that
 written license.
  
 The following legend is applicable only to US Government
 contracts under FAR:
  
                    RESTRICTED RIGHTS LEGEND
  
 Use, reproduction and disclosure by the US Government is
 subject to restrictions as set forth in subparagraphs (a)
 and (c) of the Commercial Computer Software - Restricted
 Rights clause in FAR 52.227-19.
  
 Gaussian, Inc.
 340 Quinnipiac St., Bldg. 40, Wallingford CT 06492
  
  
 ---------------------------------------------------------------
 Warning -- This program may not be used in any manner that
 competes with the business of Gaussian, Inc. or will provide
 assistance to any competitor of Gaussian, Inc.  The licensee
 of this program is prohibited from giving any competitor of
 Gaussian, Inc. access to this program.  By using this program,
 the user acknowledges that Gaussian, Inc. is engaged in the
 business of creating and licensing software in the field of
 computational chemistry and represents and warrants to the
 licensee that it is not a competitor of Gaussian, Inc. and that
 it will not use this program in any manner prohibited above.
 ---------------------------------------------------------------
  

 Cite this work as:
 Gaussian 16, Revision C.01,
 M. J. Frisch, G. W. Trucks, H. B. Schlegel, G. E. Scuseria, 
 M. A. Robb, J. R. Cheeseman, G. Scalmani, V. Barone, 
 G. A. Petersson, H. Nakatsuji, X. Li, M. Caricato, A. V. Marenich, 
 J. Bloino, B. G. Janesko, R. Gomperts, B. Mennucci, H. P. Hratchian, 
 J. V. Ortiz, A. F. Izmaylov, J. L. Sonnenberg, D. Williams-Young, 
 F. Ding, F. Lipparini, F. Egidi, J. Goings, B. Peng, A. Petrone, 
 T. Henderson, D. Ranasinghe, V. G. Zakrzewski, J. Gao, N. Rega, 
 G. Zheng, W. Liang, M. Hada, M. Ehara, K. Toyota, R. Fukuda, 
 J. Hasegawa, M. Ishida, T. Nakajima, Y. Honda, O. Kitao, H. Nakai, 
 T. Vreven, K. Throssell, J. A. Montgomery, Jr., J. E. Peralta, 
 F. Ogliaro, M. J. Bearpark, J. J. Heyd, E. N. Brothers, K. N. Kudin, 
 V. N. Staroverov, T. A. Keith, R. Kobayashi, J. Normand, 
 K. Raghavachari, A. P. Rendell, J. C. Burant, S. S. Iyengar, 
 J. Tomasi, M. Cossi, J. M. Millam, M. Klene, C. Adamo, R. Cammi, 
 J. W. Ochterski, R. L. Martin, K. Morokuma, O. Farkas, 
 J. B. Foresman, and D. J. Fox, Gaussian, Inc., Wallingford CT, 2019.
 
 ******************************************
 Gaussian 16:  ES64L-G16RevC.01  3-Jul-2019
                24-May-2025 
 ******************************************
 %mem=28GB
 %nprocshared=8
 Will use up to    8 processors via shared memory.
 ----------------------------------------------------------------------
 #P M062X/Def2TZVPP Symm(None) scf(xqc) pop(None) opt(NoFreeze,TS,CalcA
 ll,NoEigentest,MaxCycle=999)
 ----------------------------------------------------------------------
 1/5=1,6=999,10=4,11=1,18=20,26=3,29=2000,38=1/1,3;
 2/9=110,12=2,15=3,17=6,18=5,40=1/2;
 3/5=44,7=202,11=2,25=1,30=1,71=2,74=-55,140=1/1,2,3;
 4//1;
 5/5=2,8=3,13=1,38=5/2,8;
 8/6=4,10=90,11=11/1;
 11/6=1,8=1,9=11,15=111,16=1,31=1/1,2,10;
 10/6=1,31=1/2;
 7/10=1,25=1,30=1/1,2,3,16;
 1/5=1,6=999,10=4,11=1,18=20,26=3/3(3);
 2/9=110,15=3/2;
 7/8=1,9=1,25=1,30=1,44=-1/16;
 99//99;
 2/9=110,15=3/2;
 3/5=44,7=202,11=2,25=1,30=1,71=2,74=-55,140=1/1,2,3;
 4/5=5,16=3,69=1/1;
 5/5=2,8=3,13=1,38=5/2,8;
 8/6=4,10=90,11=11/1;
 11/6=1,8=1,9=11,15=111,16=1,31=1/1,2,10;
 10/6=1,31=1/2;
 7/10=1,25=1,30=1/1,2,3,16;
 1/5=1,6=999,10=4,11=1,18=20,26=3/3(-8);
 2/9=110,15=3/2;
 7/8=1,9=1,25=1,30=1,44=-1/16;
 99//99;
 Leave Link    1 at Sat May 24 05:26:55 2025, MaxMem=  3758096384 cpu:               0.1 elap:               0.1
 (Enter /apps/easybuild-2022/easybuild/software/Compiler/NVHPC/22.11-CUDA-11.7.0/Gaussian/g16c01-CUDA-11.7.0/g16/l101.exe)
 ------------------------------
 Gaussian input prepared by ASE
 ------------------------------
 Symbolic Z-matrix:
 Charge =  0 Multiplicity = 1
 C                     2.20652   0.        0. 
 O                     2.62957  -0.95335  -0.53346 
 C                     0.        0.        0. 
 C                     0.93265  -0.11513   1.43178 
 F                     0.44846   0.96375   2.04548 
 F                     0.4317   -1.28235   1.83603 
 F                     2.21353  -0.19612   2.12339 
 F                     0.0147    1.09721  -0.709 
 F                    -0.01325  -1.01772  -0.80429 
 O                     2.5995    1.25198   0. 
 H                     3.42084   1.32852  -0.5113 
 
 Add virtual bond connecting atoms C4         and C1         Dist= 3.63D+00.
 ITRead=  0  0  0  0  0  0  0  0  0  0  0
 MicOpt= -1 -1 -1 -1 -1 -1 -1 -1 -1 -1 -1
 NAtoms=     11 NQM=       11 NQMF=       0 NMMI=      0 NMMIF=      0
                NMic=       0 NMicF=      0.
                    Isotopes and Nuclear Properties:
 (Nuclear quadrupole moments (NQMom) in fm**2, nuclear magnetic moments (NMagM)
  in nuclear magnetons)

  Atom         1           2           3           4           5           6           7           8           9          10
 IAtWgt=          12          16          12          12          19          19          19          19          19          16
 AtmWgt=  12.0000000  15.9949146  12.0000000  12.0000000  18.9984032  18.9984032  18.9984032  18.9984032  18.9984032  15.9949146
 NucSpn=           0           0           0           0           1           1           1           1           1           0
 AtZEff=  -0.0000000  -0.0000000  -0.0000000  -0.0000000  -0.0000000  -0.0000000  -0.0000000  -0.0000000  -0.0000000  -0.0000000
 NQMom=    0.0000000   0.0000000   0.0000000   0.0000000   0.0000000   0.0000000   0.0000000   0.0000000   0.0000000   0.0000000
 NMagM=    0.0000000   0.0000000   0.0000000   0.0000000   2.6288670   2.6288670   2.6288670   2.6288670   2.6288670   0.0000000
 AtZNuc=   6.0000000   8.0000000   6.0000000   6.0000000   9.0000000   9.0000000   9.0000000   9.0000000   9.0000000   8.0000000

  Atom        11
 IAtWgt=           1
 AtmWgt=   1.0078250
 NucSpn=           1
 AtZEff=  -0.0000000
 NQMom=    0.0000000
 NMagM=    2.7928460
 AtZNuc=   1.0000000
 Leave Link  101 at Sat May 24 05:26:55 2025, MaxMem=  3758096384 cpu:               0.3 elap:               0.2
 (Enter /apps/easybuild-2022/easybuild/software/Compiler/NVHPC/22.11-CUDA-11.7.0/Gaussian/g16c01-CUDA-11.7.0/g16/l103.exe)

 GradGradGradGradGradGradGradGradGradGradGradGradGradGradGradGradGradGrad
 Berny optimization.
 Initialization pass.
                           ----------------------------
                           !    Initial Parameters    !
                           ! (Angstroms and Degrees)  !
 --------------------------                            --------------------------
 ! Name  Definition              Value          Derivative Info.                !
 --------------------------------------------------------------------------------
 ! R1    R(1,2)                  1.1715         calculate D2E/DX2 analytically  !
 ! R2    R(1,4)                  1.9199         calculate D2E/DX2 analytically  !
 ! R3    R(1,10)                 1.3122         calculate D2E/DX2 analytically  !
 ! R4    R(3,4)                  1.7126         calculate D2E/DX2 analytically  !
 ! R5    R(3,8)                  1.3064         calculate D2E/DX2 analytically  !
 ! R6    R(3,9)                  1.2972         calculate D2E/DX2 analytically  !
 ! R7    R(4,5)                  1.3323         calculate D2E/DX2 analytically  !
 ! R8    R(4,6)                  1.333          calculate D2E/DX2 analytically  !
 ! R9    R(4,7)                  1.4579         calculate D2E/DX2 analytically  !
 ! R10   R(10,11)                0.9705         calculate D2E/DX2 analytically  !
 ! A1    A(2,1,4)              122.0322         calculate D2E/DX2 analytically  !
 ! A2    A(2,1,10)             131.9348         calculate D2E/DX2 analytically  !
 ! A3    A(4,1,10)             104.8281         calculate D2E/DX2 analytically  !
 ! A4    A(4,3,8)              120.2671         calculate D2E/DX2 analytically  !
 ! A5    A(4,3,9)              118.1096         calculate D2E/DX2 analytically  !
 ! A6    A(8,3,9)              108.8162         calculate D2E/DX2 analytically  !
 ! A7    A(1,4,3)               74.5637         calculate D2E/DX2 analytically  !
 ! A8    A(1,4,5)              122.418          calculate D2E/DX2 analytically  !
 ! A9    A(1,4,6)              121.873          calculate D2E/DX2 analytically  !
 ! A10   A(1,4,7)               76.948          calculate D2E/DX2 analytically  !
 ! A11   A(3,4,5)               97.6285         calculate D2E/DX2 analytically  !
 ! A12   A(3,4,6)               96.1854         calculate D2E/DX2 analytically  !
 ! A13   A(3,4,7)              151.4938         calculate D2E/DX2 analytically  !
 ! A14   A(5,4,6)              115.6468         calculate D2E/DX2 analytically  !
 ! A15   A(5,4,7)               98.3812         calculate D2E/DX2 analytically  !
 ! A16   A(6,4,7)               97.9131         calculate D2E/DX2 analytically  !
 ! A17   A(1,10,11)            109.1893         calculate D2E/DX2 analytically  !
 ! D1    D(2,1,4,3)            -90.8306         calculate D2E/DX2 analytically  !
 ! D2    D(2,1,4,5)            179.8694         calculate D2E/DX2 analytically  !
 ! D3    D(2,1,4,6)             -3.127          calculate D2E/DX2 analytically  !
 ! D4    D(2,1,4,7)             88.1489         calculate D2E/DX2 analytically  !
 ! D5    D(10,1,4,3)           100.3285         calculate D2E/DX2 analytically  !
 ! D6    D(10,1,4,5)            11.0284         calculate D2E/DX2 analytically  !
 ! D7    D(10,1,4,6)          -171.968          calculate D2E/DX2 analytically  !
 ! D8    D(10,1,4,7)           -80.6921         calculate D2E/DX2 analytically  !
 ! D9    D(2,1,10,11)           -3.837          calculate D2E/DX2 analytically  !
 ! D10   D(4,1,10,11)          163.4217         calculate D2E/DX2 analytically  !
 ! D11   D(8,3,4,1)            -66.7684         calculate D2E/DX2 analytically  !
 ! D12   D(8,3,4,5)             54.8417         calculate D2E/DX2 analytically  !
 ! D13   D(8,3,4,6)            171.8268         calculate D2E/DX2 analytically  !
 ! D14   D(8,3,4,7)            -68.852          calculate D2E/DX2 analytically  !
 ! D15   D(9,3,4,1)             70.5477         calculate D2E/DX2 analytically  !
 ! D16   D(9,3,4,5)           -167.8422         calculate D2E/DX2 analytically  !
 ! D17   D(9,3,4,6)            -50.857          calculate D2E/DX2 analytically  !
 ! D18   D(9,3,4,7)             68.4642         calculate D2E/DX2 analytically  !
 --------------------------------------------------------------------------------
 Trust Radius=3.00D-01 FncErr=1.00D-07 GrdErr=1.00D-06 EigMax=2.50D+02 EigMin=1.00D-04
 Number of steps in this run=    100 maximum allowed number of steps=    100.
 Search for a saddle point of order  1.
 GradGradGradGradGradGradGradGradGradGradGradGradGradGradGradGradGradGrad

 Leave Link  103 at Sat May 24 05:26:55 2025, MaxMem=  3758096384 cpu:               0.1 elap:               0.0
 (Enter /apps/easybuild-2022/easybuild/software/Compiler/NVHPC/22.11-CUDA-11.7.0/Gaussian/g16c01-CUDA-11.7.0/g16/l202.exe)
                          Input orientation:                          
 ---------------------------------------------------------------------
 Center     Atomic      Atomic             Coordinates (Angstroms)
 Number     Number       Type             X           Y           Z
 ---------------------------------------------------------------------
      1          6           0        2.206522    0.000000    0.000000
      2          8           0        2.629574   -0.953351   -0.533456
      3          6           0        0.000000    0.000000    0.000000
      4          6           0        0.932646   -0.115127    1.431780
      5          9           0        0.448461    0.963754    2.045480
      6          9           0        0.431696   -1.282349    1.836031
      7          9           0        2.213532   -0.196117    2.123391
      8          9           0        0.014698    1.097214   -0.708995
      9          9           0       -0.013252   -1.017724   -0.804295
     10          8           0        2.599501    1.251982    0.000000
     11          1           0        3.420842    1.328517   -0.511300
 ---------------------------------------------------------------------
                    Distance matrix (angstroms):
                    1          2          3          4          5
     1  C    0.000000
     2  O    1.171507   0.000000
     3  C    2.206522   2.847475   0.000000
     4  C    1.919898   2.728432   1.712623   0.000000
     5  F    2.864191   3.883743   2.305196   1.332308   0.000000
     6  F    2.857523   3.248596   2.280743   1.332958   2.255909
     7  F    2.132440   2.793803   3.073593   1.457927   2.113491
     8  F    2.551597   3.327643   1.306434   2.625894   2.791611
     9  F    2.571001   2.657447   1.297239   2.590258   3.501521
    10  O    1.312209   2.269136   2.885284   2.587931   2.982287
    11  H    1.871085   2.415268   3.705205   3.471425   3.937667
                    6          7          8          9         10
     6  F    0.000000
     7  F    2.106517   0.000000
     8  F    3.509040   3.811822   0.000000
     9  F    2.690599   3.768945   2.117269   0.000000
    10  O    3.806996   2.598990   2.684740   3.553158   0.000000
    11  H    4.611028   3.274706   3.419708   4.169376   0.970509
                   11
    11  H    0.000000
 Symmetry turned off by external request.
 Stoichiometry    C3HF5O2
 Rotational constants (GHZ):           1.5528152           1.3989726           1.1931050
 Leave Link  202 at Sat May 24 05:26:55 2025, MaxMem=  3758096384 cpu:               0.0 elap:               0.0
 (Enter /apps/easybuild-2022/easybuild/software/Compiler/NVHPC/22.11-CUDA-11.7.0/Gaussian/g16c01-CUDA-11.7.0/g16/l301.exe)
 Standard basis: def2TZVPP (5D, 7F)
 Ernie: Thresh=  0.10000D-02 Tol=  0.10000D-05 Strict=F.
   324 basis functions,   527 primitive gaussians,   375 cartesian basis functions
    40 alpha electrons       40 beta electrons
       nuclear repulsion energy       638.0766827025 Hartrees.
 IExCor= 4336 DFT=T Ex+Corr=M062X ExCW=0 ScaHFX=  0.540000
 ScaDFX=  1.000000  1.000000  1.000000  1.000000 ScalE2=  1.000000  1.000000
 IRadAn=      5 IRanWt=     -1 IRanGd=            0 ICorTp=0 IEmpDi=  4
 NAtoms=   11 NActive=   11 NUniq=   11 SFac= 1.00D+00 NAtFMM=   60 NAOKFM=F Big=F
 Integral buffers will be    131072 words long.
 Raffenetti 2 integral format.
 Two-electron integral symmetry is turned off.
 Leave Link  301 at Sat May 24 05:26:55 2025, MaxMem=  3758096384 cpu:               0.1 elap:               0.0
 (Enter /apps/easybuild-2022/easybuild/software/Compiler/NVHPC/22.11-CUDA-11.7.0/Gaussian/g16c01-CUDA-11.7.0/g16/l302.exe)
 NPDir=0 NMtPBC=     1 NCelOv=     1 NCel=       1 NClECP=     1 NCelD=      1
         NCelK=      1 NCelE2=     1 NClLst=     1 CellRange=     0.0.
 One-electron integrals computed using PRISM.
   1 Symmetry operations used in ECPInt.
 ECPInt:  NShTT=    6786 NPrTT=   21959 LenC2=    6511 LenP2D=   16011.
 LDataN:  DoStor=T MaxTD1= 6 Len=  172
 NBasis=   324 RedAO= T EigKep=  5.03D-04  NBF=   324
 NBsUse=   324 1.00D-06 EigRej= -1.00D+00 NBFU=   324
 Precomputing XC quadrature grid using
 IXCGrd= 4 IRadAn=           5 IRanWt=          -1 IRanGd=           0 AccXCQ= 0.00D+00.
 Generated NRdTot=       0 NPtTot=           0 NUsed=           0 NTot=          32
 NSgBfM=   372   372   372   372   372 MxSgAt=    11 MxSgA2=    11.
 Leave Link  302 at Sat May 24 05:26:56 2025, MaxMem=  3758096384 cpu:               1.1 elap:               0.3
 (Enter /apps/easybuild-2022/easybuild/software/Compiler/NVHPC/22.11-CUDA-11.7.0/Gaussian/g16c01-CUDA-11.7.0/g16/l303.exe)
 DipDrv:  MaxL=1.
 Leave Link  303 at Sat May 24 05:26:56 2025, MaxMem=  3758096384 cpu:               0.1 elap:               0.0
 (Enter /apps/easybuild-2022/easybuild/software/Compiler/NVHPC/22.11-CUDA-11.7.0/Gaussian/g16c01-CUDA-11.7.0/g16/l401.exe)
 ExpMin= 9.52D-02 ExpMax= 3.55D+04 ExpMxC= 1.21D+03 IAcc=3 IRadAn=         5 AccDes= 0.00D+00
 Harris functional with IExCor= 1009 and IRadAn=       5 diagonalized for initial guess.
 HarFok:  IExCor= 1009 AccDes= 0.00D+00 IRadAn=         5 IDoV= 1 UseB2=F ITyADJ=14
 ICtDFT=  3500011 ScaDFX=  1.000000  1.000000  1.000000  1.000000
 FoFCou: FMM=F IPFlag=           0 FMFlag=      100000 FMFlg1=           0
         NFxFlg=           0 DoJE=T BraDBF=F KetDBF=T FulRan=T
         wScrn=  0.000000 ICntrl=       500 IOpCl=  0 I1Cent=   200000004 NGrid=           0
         NMat0=    1 NMatS0=      1 NMatT0=    0 NMatD0=    1 NMtDS0=    0 NMtDT0=    0
 Symmetry not used in FoFCou.
 Harris En= -764.027156524635    
 JPrj=0 DoOrth=F DoCkMO=F.
 Leave Link  401 at Sat May 24 05:26:56 2025, MaxMem=  3758096384 cpu:               3.7 elap:               0.6
 (Enter /apps/easybuild-2022/easybuild/software/Compiler/NVHPC/22.11-CUDA-11.7.0/Gaussian/g16c01-CUDA-11.7.0/g16/l502.exe)
 Keep R1 ints in memory in canonical form, NReq=1412617152.
 FoFCou: FMM=F IPFlag=           0 FMFlag=           0 FMFlg1=           0
         NFxFlg=           0 DoJE=F BraDBF=F KetDBF=F FulRan=T
         wScrn=  0.000000 ICntrl=       600 IOpCl=  0 I1Cent=           0 NGrid=           0
         NMat0=    1 NMatS0=  52650 NMatT0=    0 NMatD0=    1 NMtDS0=    0 NMtDT0=    0
 Symmetry not used in FoFCou.
 Two-electron integral symmetry not used.
 Closed shell SCF:
 Using DIIS extrapolation, IDIIS=  1040.
 NGot=  3758096384 LenX=  2371771902 LenY=  2371630836
 Requested convergence on RMS density matrix=1.00D-08 within  32 cycles.
 Requested convergence on MAX density matrix=1.00D-06.
 Requested convergence on             energy=1.00D-06.
 No special actions if energy rises.
 Integral accuracy reduced to 1.0D-05 until final iterations.

 Cycle   1  Pass 0  IDiag  1:
 E= -764.264306615313    
 DIIS: error= 1.96D-02 at cycle   1 NSaved=   1.
 NSaved= 1 IEnMin= 1 EnMin= -764.264306615313     IErMin= 1 ErrMin= 1.96D-02
 ErrMax= 1.96D-02  0.00D+00 EMaxC= 1.00D-01 BMatC= 3.77D-01 BMatP= 3.77D-01
 IDIUse=3 WtCom= 8.04D-01 WtEn= 1.96D-01
 Coeff-Com:  0.100D+01
 Coeff-En:   0.100D+01
 Coeff:      0.100D+01
 Gap=     0.253 Goal=   None    Shift=    0.000
 GapD=    0.253 DampG=1.000 DampE=0.500 DampFc=0.5000 IDamp=-1.
 Damping current iteration by 5.00D-01
 RMSDP=2.17D-03 MaxDP=9.95D-02              OVMax= 2.86D-01

 Cycle   2  Pass 0  IDiag  1:
 E= -764.318771932036     Delta-E=       -0.054465316723 Rises=F Damp=T
 DIIS: error= 9.39D-03 at cycle   2 NSaved=   2.
 NSaved= 2 IEnMin= 2 EnMin= -764.318771932036     IErMin= 2 ErrMin= 9.39D-03
 ErrMax= 9.39D-03  0.00D+00 EMaxC= 1.00D-01 BMatC= 5.08D-02 BMatP= 3.77D-01
 IDIUse=3 WtCom= 9.06D-01 WtEn= 9.39D-02
 Coeff-Com:  0.125D+00 0.875D+00
 Coeff-En:   0.331D+00 0.669D+00
 Coeff:      0.144D+00 0.856D+00
 Gap=     0.302 Goal=   None    Shift=    0.000
 RMSDP=6.98D-04 MaxDP=1.99D-02 DE=-5.45D-02 OVMax= 1.45D-01

 Cycle   3  Pass 0  IDiag  1:
 E= -764.444857169481     Delta-E=       -0.126085237446 Rises=F Damp=F
 DIIS: error= 5.09D-03 at cycle   3 NSaved=   3.
 NSaved= 3 IEnMin= 3 EnMin= -764.444857169481     IErMin= 3 ErrMin= 5.09D-03
 ErrMax= 5.09D-03  0.00D+00 EMaxC= 1.00D-01 BMatC= 1.75D-02 BMatP= 5.08D-02
 IDIUse=3 WtCom= 9.49D-01 WtEn= 5.09D-02
 Coeff-Com: -0.594D-01 0.332D+00 0.728D+00
 Coeff-En:   0.000D+00 0.000D+00 0.100D+01
 Coeff:     -0.563D-01 0.315D+00 0.741D+00
 Gap=     0.255 Goal=   None    Shift=    0.000
 RMSDP=3.38D-04 MaxDP=1.68D-02 DE=-1.26D-01 OVMax= 5.41D-02

 Cycle   4  Pass 0  IDiag  1:
 E= -764.453889240148     Delta-E=       -0.009032070667 Rises=F Damp=F
 DIIS: error= 2.62D-03 at cycle   4 NSaved=   4.
 NSaved= 4 IEnMin= 4 EnMin= -764.453889240148     IErMin= 4 ErrMin= 2.62D-03
 ErrMax= 2.62D-03  0.00D+00 EMaxC= 1.00D-01 BMatC= 6.14D-03 BMatP= 1.75D-02
 IDIUse=3 WtCom= 9.74D-01 WtEn= 2.62D-02
 Coeff-Com: -0.480D-01 0.971D-01 0.433D+00 0.518D+00
 Coeff-En:   0.000D+00 0.000D+00 0.225D+00 0.775D+00
 Coeff:     -0.467D-01 0.946D-01 0.427D+00 0.525D+00
 Gap=     0.256 Goal=   None    Shift=    0.000
 RMSDP=1.25D-04 MaxDP=6.68D-03 DE=-9.03D-03 OVMax= 1.62D-02

 Cycle   5  Pass 0  IDiag  1:
 E= -764.457801072789     Delta-E=       -0.003911832641 Rises=F Damp=F
 DIIS: error= 3.28D-04 at cycle   5 NSaved=   5.
 NSaved= 5 IEnMin= 5 EnMin= -764.457801072789     IErMin= 5 ErrMin= 3.28D-04
 ErrMax= 3.28D-04  0.00D+00 EMaxC= 1.00D-01 BMatC= 9.75D-05 BMatP= 6.14D-03
 IDIUse=3 WtCom= 9.97D-01 WtEn= 3.28D-03
 Coeff-Com: -0.134D-01 0.205D-01 0.113D+00 0.188D+00 0.691D+00
 Coeff-En:   0.000D+00 0.000D+00 0.000D+00 0.000D+00 0.100D+01
 Coeff:     -0.134D-01 0.205D-01 0.113D+00 0.188D+00 0.692D+00
 Gap=     0.256 Goal=   None    Shift=    0.000
 RMSDP=2.78D-05 MaxDP=1.09D-03 DE=-3.91D-03 OVMax= 3.25D-03

 Cycle   6  Pass 0  IDiag  1:
 E= -764.457879710735     Delta-E=       -0.000078637946 Rises=F Damp=F
 DIIS: error= 1.18D-04 at cycle   6 NSaved=   6.
 NSaved= 6 IEnMin= 6 EnMin= -764.457879710735     IErMin= 6 ErrMin= 1.18D-04
 ErrMax= 1.18D-04  0.00D+00 EMaxC= 1.00D-01 BMatC= 1.19D-05 BMatP= 9.75D-05
 IDIUse=3 WtCom= 9.99D-01 WtEn= 1.18D-03
 Coeff-Com: -0.214D-02 0.153D-02 0.930D-02 0.287D-01 0.274D+00 0.689D+00
 Coeff-En:   0.000D+00 0.000D+00 0.000D+00 0.000D+00 0.000D+00 0.100D+01
 Coeff:     -0.214D-02 0.153D-02 0.929D-02 0.286D-01 0.274D+00 0.689D+00
 Gap=     0.256 Goal=   None    Shift=    0.000
 RMSDP=1.00D-05 MaxDP=4.02D-04 DE=-7.86D-05 OVMax= 1.37D-03

 Cycle   7  Pass 0  IDiag  1:
 E= -764.457889886964     Delta-E=       -0.000010176229 Rises=F Damp=F
 DIIS: error= 5.60D-05 at cycle   7 NSaved=   7.
 NSaved= 7 IEnMin= 7 EnMin= -764.457889886964     IErMin= 7 ErrMin= 5.60D-05
 ErrMax= 5.60D-05  0.00D+00 EMaxC= 1.00D-01 BMatC= 2.37D-06 BMatP= 1.19D-05
 IDIUse=1 WtCom= 1.00D+00 WtEn= 0.00D+00
 Coeff-Com:  0.158D-02-0.328D-02-0.200D-01-0.272D-01-0.222D-02 0.311D+00
 Coeff-Com:  0.740D+00
 Coeff:      0.158D-02-0.328D-02-0.200D-01-0.272D-01-0.222D-02 0.311D+00
 Coeff:      0.740D+00
 Gap=     0.257 Goal=   None    Shift=    0.000
 RMSDP=5.00D-06 MaxDP=1.42D-04 DE=-1.02D-05 OVMax= 5.60D-04

 Initial convergence to 1.0D-05 achieved.  Increase integral accuracy.
 Cycle   8  Pass 1  IDiag  1:
 E= -764.457807043692     Delta-E=        0.000082843271 Rises=F Damp=F
 DIIS: error= 3.33D-05 at cycle   1 NSaved=   1.
 NSaved= 1 IEnMin= 1 EnMin= -764.457807043692     IErMin= 1 ErrMin= 3.33D-05
 ErrMax= 3.33D-05  0.00D+00 EMaxC= 1.00D-01 BMatC= 1.16D-06 BMatP= 1.16D-06
 IDIUse=1 WtCom= 1.00D+00 WtEn= 0.00D+00
 Coeff-Com:  0.100D+01
 Coeff:      0.100D+01
 Gap=     0.257 Goal=   None    Shift=    0.000
 RMSDP=5.00D-06 MaxDP=1.42D-04 DE= 8.28D-05 OVMax= 3.70D-04

 Cycle   9  Pass 1  IDiag  1:
 E= -764.457807765306     Delta-E=       -0.000000721613 Rises=F Damp=F
 DIIS: error= 1.67D-05 at cycle   2 NSaved=   2.
 NSaved= 2 IEnMin= 2 EnMin= -764.457807765306     IErMin= 2 ErrMin= 1.67D-05
 ErrMax= 1.67D-05  0.00D+00 EMaxC= 1.00D-01 BMatC= 3.49D-07 BMatP= 1.16D-06
 IDIUse=1 WtCom= 1.00D+00 WtEn= 0.00D+00
 Coeff-Com:  0.283D+00 0.717D+00
 Coeff:      0.283D+00 0.717D+00
 Gap=     0.257 Goal=   None    Shift=    0.000
 RMSDP=2.34D-06 MaxDP=6.93D-05 DE=-7.22D-07 OVMax= 4.09D-04

 Cycle  10  Pass 1  IDiag  1:
 E= -764.457807901278     Delta-E=       -0.000000135973 Rises=F Damp=F
 DIIS: error= 1.29D-05 at cycle   3 NSaved=   3.
 NSaved= 3 IEnMin= 3 EnMin= -764.457807901278     IErMin= 3 ErrMin= 1.29D-05
 ErrMax= 1.29D-05  0.00D+00 EMaxC= 1.00D-01 BMatC= 2.08D-07 BMatP= 3.49D-07
 IDIUse=1 WtCom= 1.00D+00 WtEn= 0.00D+00
 Coeff-Com: -0.353D-01 0.435D+00 0.600D+00
 Coeff:     -0.353D-01 0.435D+00 0.600D+00
 Gap=     0.257 Goal=   None    Shift=    0.000
 RMSDP=1.06D-06 MaxDP=3.30D-05 DE=-1.36D-07 OVMax= 1.62D-04

 Cycle  11  Pass 1  IDiag  1:
 E= -764.457808058815     Delta-E=       -0.000000157537 Rises=F Damp=F
 DIIS: error= 2.37D-06 at cycle   4 NSaved=   4.
 NSaved= 4 IEnMin= 4 EnMin= -764.457808058815     IErMin= 4 ErrMin= 2.37D-06
 ErrMax= 2.37D-06  0.00D+00 EMaxC= 1.00D-01 BMatC= 3.13D-09 BMatP= 2.08D-07
 IDIUse=1 WtCom= 1.00D+00 WtEn= 0.00D+00
 Coeff-Com: -0.205D-01 0.134D+00 0.198D+00 0.688D+00
 Coeff:     -0.205D-01 0.134D+00 0.198D+00 0.688D+00
 Gap=     0.257 Goal=   None    Shift=    0.000
 RMSDP=1.72D-07 MaxDP=1.13D-05 DE=-1.58D-07 OVMax= 3.37D-05

 Cycle  12  Pass 1  IDiag  1:
 E= -764.457808061566     Delta-E=       -0.000000002751 Rises=F Damp=F
 DIIS: error= 1.16D-06 at cycle   5 NSaved=   5.
 NSaved= 5 IEnMin= 5 EnMin= -764.457808061566     IErMin= 5 ErrMin= 1.16D-06
 ErrMax= 1.16D-06  0.00D+00 EMaxC= 1.00D-01 BMatC= 1.30D-09 BMatP= 3.13D-09
 IDIUse=1 WtCom= 1.00D+00 WtEn= 0.00D+00
 Coeff-Com: -0.247D-02-0.290D-01-0.417D-01 0.369D+00 0.704D+00
 Coeff:     -0.247D-02-0.290D-01-0.417D-01 0.369D+00 0.704D+00
 Gap=     0.257 Goal=   None    Shift=    0.000
 RMSDP=1.20D-07 MaxDP=5.74D-06 DE=-2.75D-09 OVMax= 1.81D-05

 Cycle  13  Pass 1  IDiag  1:
 E= -764.457808062763     Delta-E=       -0.000000001197 Rises=F Damp=F
 DIIS: error= 4.92D-07 at cycle   6 NSaved=   6.
 NSaved= 6 IEnMin= 6 EnMin= -764.457808062763     IErMin= 6 ErrMin= 4.92D-07
 ErrMax= 4.92D-07  0.00D+00 EMaxC= 1.00D-01 BMatC= 1.56D-10 BMatP= 1.30D-09
 IDIUse=1 WtCom= 1.00D+00 WtEn= 0.00D+00
 Coeff-Com:  0.312D-02-0.413D-01-0.624D-01 0.442D-01 0.319D+00 0.737D+00
 Coeff:      0.312D-02-0.413D-01-0.624D-01 0.442D-01 0.319D+00 0.737D+00
 Gap=     0.257 Goal=   None    Shift=    0.000
 RMSDP=4.90D-08 MaxDP=1.96D-06 DE=-1.20D-09 OVMax= 7.72D-06

 Cycle  14  Pass 1  IDiag  1:
 E= -764.457808063000     Delta-E=       -0.000000000237 Rises=F Damp=F
 DIIS: error= 1.10D-07 at cycle   7 NSaved=   7.
 NSaved= 7 IEnMin= 7 EnMin= -764.457808063000     IErMin= 7 ErrMin= 1.10D-07
 ErrMax= 1.10D-07  0.00D+00 EMaxC= 1.00D-01 BMatC= 1.40D-11 BMatP= 1.56D-10
 IDIUse=1 WtCom= 1.00D+00 WtEn= 0.00D+00
 Coeff-Com:  0.140D-02-0.137D-01-0.207D-01-0.592D-02 0.610D-01 0.290D+00
 Coeff-Com:  0.688D+00
 Coeff:      0.140D-02-0.137D-01-0.207D-01-0.592D-02 0.610D-01 0.290D+00
 Coeff:      0.688D+00
 Gap=     0.257 Goal=   None    Shift=    0.000
 RMSDP=1.28D-08 MaxDP=4.29D-07 DE=-2.37D-10 OVMax= 1.54D-06

 Cycle  15  Pass 1  IDiag  1:
 E= -764.457808062932     Delta-E=        0.000000000068 Rises=F Damp=F
 DIIS: error= 4.68D-08 at cycle   8 NSaved=   8.
 NSaved= 8 IEnMin= 7 EnMin= -764.457808063000     IErMin= 8 ErrMin= 4.68D-08
 ErrMax= 4.68D-08  0.00D+00 EMaxC= 1.00D-01 BMatC= 2.60D-12 BMatP= 1.40D-11
 IDIUse=1 WtCom= 1.00D+00 WtEn= 0.00D+00
 Coeff-Com: -0.434D-04 0.250D-02 0.376D-02-0.134D-01-0.453D-01-0.127D-01
 Coeff-Com:  0.308D+00 0.757D+00
 Coeff:     -0.434D-04 0.250D-02 0.376D-02-0.134D-01-0.453D-01-0.127D-01
 Coeff:      0.308D+00 0.757D+00
 Gap=     0.257 Goal=   None    Shift=    0.000
 RMSDP=5.72D-09 MaxDP=2.02D-07 DE= 6.78D-11 OVMax= 6.21D-07

 SCF Done:  E(RM062X) =  -764.457808063     A.U. after   15 cycles
            NFock= 15  Conv=0.57D-08     -V/T= 2.0036
 KE= 7.616828662759D+02 PE=-3.088621118214D+03 EE= 9.244037611723D+02
 Leave Link  502 at Sat May 24 05:27:26 2025, MaxMem=  3758096384 cpu:             124.4 elap:              29.7
 (Enter /apps/easybuild-2022/easybuild/software/Compiler/NVHPC/22.11-CUDA-11.7.0/Gaussian/g16c01-CUDA-11.7.0/g16/l508.exe)
 QCSCF skips out because SCF is already converged.
 Leave Link  508 at Sat May 24 05:27:26 2025, MaxMem=  3758096384 cpu:               0.1 elap:               0.0
 (Enter /apps/easybuild-2022/easybuild/software/Compiler/NVHPC/22.11-CUDA-11.7.0/Gaussian/g16c01-CUDA-11.7.0/g16/l801.exe)
 DoSCS=F DFT=T ScalE2(SS,OS)=  1.000000  1.000000
 Range of M.O.s used for correlation:     1   324
 NBasis=   324 NAE=    40 NBE=    40 NFC=     0 NFV=     0
 NROrb=    324 NOA=    40 NOB=    40 NVA=   284 NVB=   284

 **** Warning!!: The largest alpha MO coefficient is  0.13252688D+02

 Leave Link  801 at Sat May 24 05:27:26 2025, MaxMem=  3758096384 cpu:               0.1 elap:               0.1
 (Enter /apps/easybuild-2022/easybuild/software/Compiler/NVHPC/22.11-CUDA-11.7.0/Gaussian/g16c01-CUDA-11.7.0/g16/l1101.exe)
 Using compressed storage, NAtomX=    11.
 Will process     12 centers per pass.
   1 Symmetry operations used in ECPInt.
 ECPInt:  NShTT=    6786 NPrTT=   21959 LenC2=    6511 LenP2D=   16011.
 LDataN:  DoStor=T MaxTD1= 7 Len=  274
 Leave Link 1101 at Sat May 24 05:27:27 2025, MaxMem=  3758096384 cpu:               1.6 elap:               0.4
 (Enter /apps/easybuild-2022/easybuild/software/Compiler/NVHPC/22.11-CUDA-11.7.0/Gaussian/g16c01-CUDA-11.7.0/g16/l1102.exe)
 Symmetrizing basis deriv contribution to polar:
 IMax=3 JMax=2 DiffMx= 0.00D+00
 Leave Link 1102 at Sat May 24 05:27:27 2025, MaxMem=  3758096384 cpu:               0.2 elap:               0.1
 (Enter /apps/easybuild-2022/easybuild/software/Compiler/NVHPC/22.11-CUDA-11.7.0/Gaussian/g16c01-CUDA-11.7.0/g16/l1110.exe)
 Forming Gx(P) for the SCF density, NAtomX=    11.
 Integral derivatives from FoFJK, PRISM(SPDF).
 Do as many integral derivatives as possible in FoFJK.
 G2DrvN: MDV=    3758095093.
 G2DrvN: will do    12 centers at a time, making    1 passes.
 Calling FoFCou, ICntrl=  3107 FMM=F I1Cent=   0 AccDes= 0.00D+00.
 FoFJK:  IHMeth= 1 ICntrl=    3107 DoSepK=F KAlg= 0 I1Cent=           0 FoldK=F
 IRaf=         0 NMat=       1 IRICut=       1 DoRegI=T DoRafI=F ISym2E= 0 IDoP0=0 IntGTp=1.
 FoFCou: FMM=F IPFlag=           0 FMFlag=      100000 FMFlg1=           0
         NFxFlg=           0 DoJE=F BraDBF=F KetDBF=F FulRan=T
         wScrn=  0.000000 ICntrl=      3107 IOpCl=  0 I1Cent=           0 NGrid=           0
         NMat0=    1 NMatS0=      1 NMatT0=    0 NMatD0=    1 NMtDS0=    0 NMtDT0=    0
 Symmetry not used in FoFCou.
 End of G2Drv F.D. properties file   721 does not exist.
 End of G2Drv F.D. properties file   722 does not exist.
 End of G2Drv F.D. properties file   788 does not exist.
 Leave Link 1110 at Sat May 24 05:28:15 2025, MaxMem=  3758096384 cpu:             334.6 elap:              48.4
 (Enter /apps/easybuild-2022/easybuild/software/Compiler/NVHPC/22.11-CUDA-11.7.0/Gaussian/g16c01-CUDA-11.7.0/g16/l1002.exe)
 Minotr:  Closed shell wavefunction.
          IDoAtm=11111111111
          Direct CPHF calculation.
          Differentiating once with respect to electric field.
                with respect to dipole field.
          Differentiating once with respect to nuclear coordinates.
          Requested convergence is 1.0D-08 RMS, and 1.0D-07 maximum.
          Secondary convergence is 1.0D-12 RMS, and 1.0D-12 maximum.
          NewPWx=T KeepS1=F KeepF1=F KeepIn=T MapXYZ=F SortEE=F KeepMc=T.
         3293 words used for storage of precomputed grid.
 Keep R1 ints in memory in canonical form, NReq=1412622545.
 FoFCou: FMM=F IPFlag=           0 FMFlag=           0 FMFlg1=           0
         NFxFlg=           0 DoJE=F BraDBF=F KetDBF=F FulRan=T
         wScrn=  0.000000 ICntrl=       600 IOpCl=  0 I1Cent=           0 NGrid=           0
         NMat0=    1 NMatS0=  52650 NMatT0=    0 NMatD0=    1 NMtDS0=    0 NMtDT0=    0
 Symmetry not used in FoFCou.
 Two-electron integral symmetry not used.
          MDV=    3758096384 using IRadAn=       1.
          Solving linear equations simultaneously, MaxMat=       0.
          There are    36 degrees of freedom in the 1st order CPHF.  IDoFFX=6 NUNeed=     3.
     33 vectors produced by pass  0 Test12= 3.16D-14 2.78D-09 XBig12= 6.16D+01 6.88D+00.
 AX will form    33 AO Fock derivatives at one time.
     33 vectors produced by pass  1 Test12= 3.16D-14 2.78D-09 XBig12= 9.62D+00 6.53D-01.
     33 vectors produced by pass  2 Test12= 3.16D-14 2.78D-09 XBig12= 2.73D-01 7.90D-02.
     33 vectors produced by pass  3 Test12= 3.16D-14 2.78D-09 XBig12= 4.78D-03 1.22D-02.
     33 vectors produced by pass  4 Test12= 3.16D-14 2.78D-09 XBig12= 6.64D-05 9.81D-04.
     33 vectors produced by pass  5 Test12= 3.16D-14 2.78D-09 XBig12= 6.29D-07 8.09D-05.
     33 vectors produced by pass  6 Test12= 3.16D-14 2.78D-09 XBig12= 3.97D-09 8.39D-06.
     16 vectors produced by pass  7 Test12= 3.16D-14 2.78D-09 XBig12= 2.18D-11 5.11D-07.
      3 vectors produced by pass  8 Test12= 3.16D-14 2.78D-09 XBig12= 1.08D-13 3.54D-08.
 InvSVY:  IOpt=1 It=  1 EMax= 1.78D-15
 Solved reduced A of dimension   250 with    36 vectors.
 FullF1:  Do perturbations      1 to       3.
 Isotropic polarizability for W=    0.000000       56.22 Bohr**3.
 End of Minotr F.D. properties file   721 does not exist.
 End of Minotr F.D. properties file   722 does not exist.
 End of Minotr F.D. properties file   788 does not exist.
 Leave Link 1002 at Sat May 24 05:29:37 2025, MaxMem=  3758096384 cpu:             568.5 elap:              81.8
 (Enter /apps/easybuild-2022/easybuild/software/Compiler/NVHPC/22.11-CUDA-11.7.0/Gaussian/g16c01-CUDA-11.7.0/g16/l701.exe)
 ... and contract with generalized density number  0.
 Compute integral second derivatives.
   1 Symmetry operations used in ECPInt.
 ECPInt:  NShTT=    6786 NPrTT=   21959 LenC2=    6511 LenP2D=   16011.
 LDataN:  DoStor=T MaxTD1= 8 Len=  415
 Leave Link  701 at Sat May 24 05:29:37 2025, MaxMem=  3758096384 cpu:               1.3 elap:               0.3
 (Enter /apps/easybuild-2022/easybuild/software/Compiler/NVHPC/22.11-CUDA-11.7.0/Gaussian/g16c01-CUDA-11.7.0/g16/l702.exe)
 L702 exits ... SP integral derivatives will be done elsewhere.
 Leave Link  702 at Sat May 24 05:29:37 2025, MaxMem=  3758096384 cpu:               0.1 elap:               0.0
 (Enter /apps/easybuild-2022/easybuild/software/Compiler/NVHPC/22.11-CUDA-11.7.0/Gaussian/g16c01-CUDA-11.7.0/g16/l703.exe)
 Integral derivatives from FoFJK, PRISM(SPDF).
 Compute integral second derivatives, UseDBF=F ICtDFT=           0.
 Calling FoFJK, ICntrl=    100127 FMM=F ISym2X=0 I1Cent= 0 IOpClX= 0 NMat=1 NMatS=1 NMatT=0.
 FoFJK:  IHMeth= 1 ICntrl=  100127 DoSepK=F KAlg= 0 I1Cent=           0 FoldK=F
 IRaf=         0 NMat=       1 IRICut=       1 DoRegI=T DoRafI=F ISym2E= 0 IDoP0=0 IntGTp=1.
 FoFCou: FMM=F IPFlag=           0 FMFlag=      100000 FMFlg1=         800
         NFxFlg=           0 DoJE=F BraDBF=F KetDBF=F FulRan=T
         wScrn=  0.000000 ICntrl=    100127 IOpCl=  0 I1Cent=           0 NGrid=           0
         NMat0=    1 NMatS0=      1 NMatT0=    0 NMatD0=    1 NMtDS0=    0 NMtDT0=    0
 Symmetry not used in FoFCou.
 Leave Link  703 at Sat May 24 05:31:09 2025, MaxMem=  3758096384 cpu:             725.5 elap:              92.1
 (Enter /apps/easybuild-2022/easybuild/software/Compiler/NVHPC/22.11-CUDA-11.7.0/Gaussian/g16c01-CUDA-11.7.0/g16/l716.exe)
 Dipole        = 3.38007668D-01 7.27723139D-01-8.76381608D-01
 Polarizability= 7.06186121D+01 9.55255530D-01 4.76738924D+01
                -6.30487071D-02 5.37637619D-01 5.03747719D+01
 -------------------------------------------------------------------
 Center     Atomic                   Forces (Hartrees/Bohr)
 Number     Number              X              Y              Z
 -------------------------------------------------------------------
      1        6          -0.000000961    0.000001589    0.000010789
      2        8          -0.000002906   -0.000005565   -0.000000370
      3        6           0.000005192   -0.000009266   -0.000003088
      4        6           0.000086266   -0.000049311   -0.000000352
      5        9          -0.000028814   -0.000011765   -0.000057823
      6        9           0.000009339    0.000013810    0.000034644
      7        9          -0.000065189    0.000034352    0.000024962
      8        9          -0.000009491   -0.000000626    0.000011152
      9        9          -0.000008038    0.000014292   -0.000006050
     10        8           0.000007450   -0.000002188   -0.000017731
     11        1           0.000007150    0.000014679    0.000003868
 -------------------------------------------------------------------
 Cartesian Forces:  Max     0.000086266 RMS     0.000026500
 Force constants in Cartesian coordinates: 
                1             2             3             4             5 
      1  0.384676D+00
      2 -0.128034D+00  0.979079D+00
      3 -0.160035D+00  0.288846D+00  0.322032D+00
      4 -0.187498D+00  0.242362D+00  0.150534D+00  0.171703D+00
      5  0.230570D+00 -0.615214D+00 -0.298314D+00 -0.253184D+00  0.704691D+00
      6  0.141489D+00 -0.305002D+00 -0.232453D+00 -0.156654D+00  0.344289D+00
      7 -0.505490D-02 -0.835286D-02  0.572615D-01 -0.306305D-01  0.179456D-01
      8 -0.248954D-03  0.303220D-01  0.164777D-02 -0.180008D-02 -0.102400D-01
      9 -0.461551D-01  0.621918D-02  0.637251D-01  0.266420D-01 -0.215949D-01
     10 -0.504140D-02 -0.263927D-02 -0.398309D-01 -0.878003D-02  0.633388D-02
     11 -0.513794D-02 -0.229258D-01 -0.270905D-02  0.171436D-01 -0.887398D-02
     12  0.540820D-01 -0.144788D-02  0.150454D-01 -0.167331D-01  0.518006D-02
     13  0.320602D-02  0.538225D-02  0.111016D-02 -0.100674D-02  0.205870D-03
     14 -0.315328D-02 -0.475468D-02  0.748855D-03  0.149953D-02  0.135878D-02
     15 -0.119636D-01 -0.671845D-02  0.451245D-02  0.543684D-02 -0.143592D-02
     16  0.283498D-02 -0.609949D-02 -0.259350D-03  0.133742D-02  0.102968D-02
     17  0.483624D-02 -0.530218D-02 -0.375932D-02 -0.365347D-02  0.498306D-02
     18 -0.108826D-01  0.649975D-02  0.607037D-02  0.255762D-02 -0.297635D-02
     19 -0.234431D-01  0.462102D-02 -0.335892D-01  0.133563D-01 -0.536374D-02
     20  0.255347D-02  0.110117D-02  0.613272D-02 -0.363961D-02  0.369957D-02
     21 -0.205264D-01  0.555020D-02 -0.724107D-01  0.806447D-02 -0.373752D-02
     22 -0.173276D-01  0.687955D-02 -0.508163D-02  0.862664D-02 -0.504713D-02
     23 -0.797415D-02 -0.168754D-01  0.353778D-01  0.837187D-02 -0.117779D-02
     24  0.118197D-01  0.678252D-02 -0.184892D-01 -0.978892D-02  0.476283D-02
     25 -0.215759D-01 -0.249076D-02 -0.226028D-02  0.600390D-02 -0.107134D-01
     26  0.810912D-02 -0.160354D-01 -0.358210D-01 -0.262696D-02  0.100206D-01
     27  0.131195D-01 -0.126900D-01 -0.228766D-01 -0.591658D-02  0.108662D-01
     28 -0.111875D+00 -0.951333D-01  0.181197D-01  0.256538D-01  0.102397D-01
     29 -0.525352D-01 -0.314356D+00 -0.201840D-01 -0.100247D-01 -0.931903D-01
     30  0.233549D-01  0.618711D-02 -0.689596D-01 -0.156154D-02 -0.343253D-01
     31 -0.189007D-01 -0.164951D-01  0.140304D-01  0.123441D-02  0.798324D-02
     32 -0.489857D-01 -0.150383D-01  0.280337D-01  0.555204D-02  0.394245D-02
     33  0.569773D-02  0.577368D-02  0.380413D-02 -0.258107D-02 -0.271447D-02
                6             7             8             9            10 
      6  0.228282D+00
      7  0.875580D-02 -0.319147D-02
      8 -0.584506D-02  0.762415D-02  0.555330D+00
      9 -0.300790D-01 -0.508159D-01  0.894099D-02  0.527708D+00
     10  0.198156D-01  0.132501D+00 -0.307404D-02  0.581172D-01  0.147311D+00
     11 -0.143192D-01 -0.373027D-02 -0.184356D-01  0.363910D-02  0.161425D-01
     12  0.152006D-02  0.462458D-01 -0.651519D-03 -0.650209D-01 -0.130703D+00
     13  0.687278D-03 -0.820173D-02 -0.750083D-02 -0.174247D-01 -0.851705D-01
     14 -0.756618D-03 -0.142279D-01 -0.212866D-01 -0.267117D-01  0.694529D-01
     15 -0.362683D-02 -0.130913D-01 -0.435077D-01 -0.425274D-01  0.620178D-01
     16 -0.171442D-02 -0.764814D-02  0.889845D-02 -0.156290D-01 -0.862489D-01
     17  0.306804D-02  0.169275D-01 -0.377048D-01  0.303380D-01 -0.810105D-01
     18 -0.142863D-02 -0.120567D-01  0.465510D-01 -0.324007D-01  0.497308D-01
     19  0.907268D-04 -0.338474D-02  0.409272D-03 -0.659802D-03 -0.536134D-01
     20 -0.963714D-03 -0.141248D-02 -0.951146D-03 -0.223989D-02  0.535390D-02
     21 -0.219084D-03  0.121998D-01 -0.256432D-03  0.243741D-01 -0.651216D-01
     22 -0.439506D-02 -0.251395D-01 -0.896020D-02  0.127128D-01 -0.162577D-01
     23 -0.105232D-01 -0.137684D-01 -0.250605D+00  0.134610D+00  0.233617D-01
     24  0.919365D-02 -0.247815D-01  0.148129D+00 -0.197332D+00  0.176908D-01
     25 -0.945868D-02 -0.282970D-01  0.616713D-02  0.103827D-01 -0.114517D-01
     26  0.131601D-01  0.104750D-01 -0.235494D+00 -0.148816D+00 -0.246923D-01
     27  0.136684D-01 -0.250344D-01 -0.158092D+00 -0.234162D+00  0.134500D-01
     28  0.372502D-02 -0.178641D-01 -0.114109D-02  0.206222D-01 -0.143657D-01
     29 -0.216168D-01 -0.936919D-02 -0.103430D-01  0.127151D-01 -0.607180D-02
     30  0.189638D-01  0.334590D-02  0.287882D-02 -0.143263D-01  0.114905D-01
     31 -0.234085D-02 -0.308896D-02 -0.373796D-03  0.220763D-02  0.111729D-02
     32 -0.149027D-02 -0.211115D-02 -0.592789D-03  0.289987D-02 -0.315697D-02
     33 -0.382077D-02 -0.202896D-02  0.205129D-03  0.409705D-04  0.334254D-02
               11            12            13            14            15 
     11  0.578484D+00
     12  0.302796D-01  0.295178D+00
     13  0.560830D-01  0.435206D-01  0.141882D+00
     14 -0.203481D+00 -0.727750D-01 -0.108564D+00  0.285771D+00
     15 -0.933588D-01 -0.127602D+00 -0.262123D-01  0.132362D+00  0.154726D+00
     16 -0.633928D-01  0.330452D-01  0.124700D-01  0.139197D-02 -0.592366D-02
     17 -0.227767D+00  0.514059D-01 -0.133683D-02 -0.509645D-01  0.337555D-03
     18  0.712559D-01 -0.988140D-01 -0.632150D-02 -0.130797D-01  0.164097D-01
     19 -0.299330D-02  0.275665D-01 -0.675192D-01  0.466402D-01 -0.129589D-01
     20 -0.599634D-01 -0.106957D-03  0.580929D-01 -0.189534D-01  0.765631D-02
     21  0.202838D-02 -0.686563D-01  0.843646D-02 -0.427406D-02  0.174523D-01
     22  0.795887D-02 -0.204825D-01  0.395672D-03  0.276259D-02  0.133958D-02
     23 -0.110355D-01 -0.221922D-01 -0.353705D-02  0.842314D-02  0.334737D-02
     24  0.204309D-01  0.260028D-01  0.150750D-02 -0.740679D-02 -0.334366D-02
     25 -0.490516D-02 -0.211717D-01  0.237750D-02  0.169531D-02 -0.147101D-02
     26 -0.141814D-01  0.182542D-01  0.102477D-02 -0.491755D-03 -0.184783D-02
     27 -0.275689D-01  0.222693D-01 -0.428630D-02 -0.750925D-02 -0.151657D-01
     28 -0.158092D-01 -0.128302D-01  0.105006D-02  0.225528D-02  0.319248D-02
     29 -0.871664D-02 -0.579847D-02 -0.517022D-03  0.386952D-02  0.312370D-02
     30  0.105071D-01 -0.142194D-02 -0.327231D-03 -0.691890D-03 -0.818800D-03
     31 -0.135942D-02 -0.253985D-02  0.516963D-03  0.247615D-03 -0.365960D-03
     32 -0.310421D-02 -0.214763D-02  0.667204D-03  0.509578D-03  0.414162D-04
     33 -0.185095D-03  0.150005D-02 -0.690052D-03  0.938636D-04 -0.160039D-04
               16            17            18            19            20 
     16  0.146587D+00
     17  0.114286D+00  0.324816D+00
     18 -0.512191D-02 -0.989501D-01  0.112935D+00
     19 -0.719011D-01 -0.439848D-01 -0.213895D-01  0.191733D+00
     20 -0.592686D-01 -0.157375D-01 -0.133735D-01 -0.268533D-02  0.888960D-01
     21 -0.268575D-02 -0.222209D-02  0.157811D-01  0.474106D-01 -0.481539D-02
     22  0.310900D-02 -0.177379D-02 -0.107824D-02  0.159721D-02 -0.262022D-03
     23 -0.585290D-03 -0.190362D-02  0.306522D-02  0.548449D-02 -0.422032D-03
     24 -0.419110D-02  0.107930D-01 -0.139113D-01 -0.476902D-02 -0.288810D-03
     25 -0.186111D-03 -0.309788D-02  0.631386D-03  0.198910D-02 -0.299124D-03
     26  0.357120D-02  0.878616D-02 -0.514606D-03 -0.461661D-02  0.261167D-02
     27  0.189007D-02  0.779319D-02 -0.251526D-02 -0.495954D-02  0.200447D-02
     28 -0.575311D-03 -0.129234D-02  0.417433D-02  0.945841D-02  0.569838D-03
     29  0.785295D-04  0.842113D-03  0.102613D-02  0.976140D-03 -0.536017D-03
     30  0.120655D-02  0.125056D-02 -0.210680D-02  0.388096D-02  0.585744D-02
     31  0.221117D-03  0.995770D-04 -0.243769D-03  0.172771D-02  0.997057D-03
     32  0.900363D-04 -0.476430D-04  0.496222D-03  0.151261D-02  0.255036D-03
     33 -0.616669D-03 -0.547346D-04 -0.199575D-04 -0.622853D-03  0.137291D-03
               21            22            23            24            25 
     21  0.101693D+00
     22  0.271097D-02  0.351807D-01
     23  0.154846D-01 -0.905102D-02  0.354152D+00
     24 -0.736269D-02  0.180665D-01 -0.157701D+00  0.164360D+00
     25  0.429435D-02  0.548125D-02 -0.562193D-02  0.169543D-02  0.407624D-01
     26 -0.140444D-01  0.525209D-03 -0.909342D-01 -0.176868D-01  0.161703D-01
     27 -0.838925D-02  0.115083D-02  0.640206D-02  0.346028D-01  0.200268D-01
     28  0.485872D-02  0.256405D-02  0.297639D-02 -0.644963D-02  0.413343D-02
     29  0.660201D-02  0.569620D-02  0.939587D-02 -0.690866D-02  0.254421D-02
     30 -0.284203D-02 -0.494506D-02 -0.678543D-02  0.620231D-02 -0.248605D-02
     31  0.358473D-03  0.177032D-02  0.343394D-03 -0.799869D-03  0.763154D-03
     32 -0.315332D-03  0.127175D-02  0.982284D-03 -0.906608D-03  0.551237D-03
     33  0.579761D-03  0.174919D-05 -0.108509D-02  0.769987D-04 -0.182918D-03
               26            27            28            29            30 
     26  0.337100D+00
     27  0.182043D+00  0.207641D+00
     28 -0.747248D-02 -0.854991D-02  0.452165D+00
     29 -0.302791D-03 -0.203026D-02  0.104923D+00  0.452202D+00
     30  0.494256D-02  0.513350D-02 -0.244855D+00  0.154554D-01  0.207185D+00
     31 -0.467261D-03 -0.890402D-03 -0.350345D+00 -0.356999D-01  0.210896D+00
     32 -0.107916D-02 -0.121859D-02 -0.115659D-03 -0.388648D-01 -0.527637D-02
     33  0.330055D-03 -0.205448D-03  0.217992D+00  0.176158D-01 -0.147009D+00
               31            32            33 
     31  0.364984D+00
     32  0.447246D-01  0.530375D-01
     33 -0.220311D+00 -0.201164D-01  0.145070D+00
 FormGI is forming the generalized inverse of G from B-inverse, IUseBI=4.
 Leave Link  716 at Sat May 24 05:31:10 2025, MaxMem=  3758096384 cpu:               0.1 elap:               0.0
 (Enter /apps/easybuild-2022/easybuild/software/Compiler/NVHPC/22.11-CUDA-11.7.0/Gaussian/g16c01-CUDA-11.7.0/g16/l103.exe)

 GradGradGradGradGradGradGradGradGradGradGradGradGradGradGradGradGradGrad
 Berny optimization.
 Red2BG is reusing G-inverse.
 Internal  Forces:  Max     0.000070764 RMS     0.000024928
 Search for a saddle point.
 Step number   1 out of a maximum of  100
 All quantities printed in internal units (Hartrees-Bohrs-Radians)
 Swapping is turned off.
 Second derivative matrix not updated -- analytic derivatives used.
 ITU=  0
     Eigenvalues ---   -0.11985   0.00435   0.00887   0.01049   0.01263
     Eigenvalues ---    0.01803   0.04652   0.05373   0.05758   0.10702
     Eigenvalues ---    0.13123   0.13787   0.14114   0.17185   0.19777
     Eigenvalues ---    0.22176   0.23729   0.25492   0.31670   0.38034
     Eigenvalues ---    0.40602   0.45988   0.47176   0.50466   0.51453
     Eigenvalues ---    0.55104   1.01145
 Eigenvectors required to have negative eigenvalues:
                          R4        R2        A13       A7        A11
   1                   -0.64522   0.47329  -0.31175  -0.19770   0.15753
                          A12       D12       D17       D18       D11
   1                    0.15680  -0.14336   0.12376   0.12223  -0.11854
 RFO step:  Lambda0=6.236950623D-09 Lambda=-5.51766404D-07.
 Linear search not attempted -- option 19 set.
 Iteration  1 RMS(Cart)=  0.00180554 RMS(Int)=  0.00000198
 Iteration  2 RMS(Cart)=  0.00000252 RMS(Int)=  0.00000051
 Iteration  3 RMS(Cart)=  0.00000000 RMS(Int)=  0.00000051
 ITry= 1 IFail=0 DXMaxC= 4.82D-03 DCOld= 1.00D+10 DXMaxT= 3.00D-01 DXLimC= 3.00D+00 Rises=F
 Variable       Old X    -DE/DX   Delta X   Delta X   Delta X     New X
                                 (Linear)    (Quad)   (Total)
    R1        2.21383   0.00001   0.00000   0.00004   0.00004   2.21387
    R2        3.62808   0.00002   0.00000   0.00014   0.00014   3.62823
    R3        2.47971   0.00001   0.00000   0.00002   0.00002   2.47974
    R4        3.23639   0.00000   0.00000  -0.00011  -0.00011   3.23628
    R5        2.46880  -0.00000   0.00000  -0.00011  -0.00011   2.46870
    R6        2.45143  -0.00002   0.00000  -0.00004  -0.00004   2.45139
    R7        2.51770  -0.00003   0.00000   0.00029   0.00029   2.51799
    R8        2.51892  -0.00000   0.00000  -0.00011  -0.00011   2.51882
    R9        2.75508  -0.00004   0.00000  -0.00046  -0.00046   2.75463
   R10        1.83400   0.00001   0.00000   0.00001   0.00001   1.83401
    A1        2.12986  -0.00002   0.00000  -0.00067  -0.00067   2.12919
    A2        2.30270  -0.00001   0.00000  -0.00010  -0.00010   2.30260
    A3        1.82960   0.00002   0.00000   0.00072   0.00072   1.83032
    A4        2.09906  -0.00004   0.00000  -0.00087  -0.00087   2.09819
    A5        2.06140   0.00006   0.00000   0.00127   0.00127   2.06267
    A6        1.89920  -0.00001   0.00000   0.00008   0.00008   1.89928
    A7        1.30138   0.00003   0.00000   0.00006   0.00006   1.30144
    A8        2.13660  -0.00000   0.00000   0.00151   0.00151   2.13811
    A9        2.12708   0.00001   0.00000  -0.00160  -0.00160   2.12549
   A10        1.34300   0.00004   0.00000   0.00039   0.00039   1.34338
   A11        1.70394  -0.00006   0.00000  -0.00105  -0.00105   1.70289
   A12        1.67875   0.00002   0.00000   0.00057   0.00057   1.67932
   A13        2.64406   0.00007   0.00000   0.00052   0.00051   2.64458
   A14        2.01842  -0.00001   0.00000   0.00006   0.00006   2.01848
   A15        1.71708   0.00000   0.00000  -0.00032  -0.00032   1.71676
   A16        1.70891  -0.00003   0.00000   0.00029   0.00029   1.70919
   A17        1.90571   0.00002   0.00000   0.00014   0.00014   1.90585
    D1       -1.58529  -0.00002   0.00000  -0.00112  -0.00112  -1.58641
    D2        3.13931   0.00003   0.00000   0.00055   0.00055   3.13987
    D3       -0.05458   0.00001   0.00000   0.00009   0.00009  -0.05449
    D4        1.53849   0.00000   0.00000   0.00102   0.00102   1.53950
    D5        1.75106  -0.00003   0.00000  -0.00090  -0.00090   1.75017
    D6        0.19248   0.00003   0.00000   0.00077   0.00077   0.19325
    D7       -3.00141   0.00001   0.00000   0.00031   0.00031  -3.00110
    D8       -1.40834  -0.00000   0.00000   0.00124   0.00124  -1.40711
    D9       -0.06697  -0.00001   0.00000  -0.00042  -0.00042  -0.06739
   D10        2.85225  -0.00000   0.00000  -0.00075  -0.00075   2.85150
   D11       -1.16533  -0.00002   0.00000  -0.00243  -0.00243  -1.16775
   D12        0.95717  -0.00001   0.00000  -0.00060  -0.00060   0.95657
   D13        2.99894  -0.00003   0.00000  -0.00062  -0.00062   2.99832
   D14       -1.20169   0.00002   0.00000   0.00190   0.00190  -1.19980
   D15        1.23129  -0.00001   0.00000  -0.00167  -0.00168   1.22961
   D16       -2.92940   0.00000   0.00000   0.00015   0.00015  -2.92925
   D17       -0.88762  -0.00001   0.00000   0.00013   0.00013  -0.88749
   D18        1.19493   0.00003   0.00000   0.00265   0.00265   1.19757
         Item               Value     Threshold  Converged?
 Maximum Force            0.000071     0.000450     YES
 RMS     Force            0.000025     0.000300     YES
 Maximum Displacement     0.004816     0.001800     NO 
 RMS     Displacement     0.001806     0.001200     NO 
 Predicted change in Energy=-2.727647D-07
 Lowest energy point so far.  Saving SCF results.
 GradGradGradGradGradGradGradGradGradGradGradGradGradGradGradGradGradGrad

 Leave Link  103 at Sat May 24 05:31:10 2025, MaxMem=  3758096384 cpu:               0.1 elap:               0.1
 (Enter /apps/easybuild-2022/easybuild/software/Compiler/NVHPC/22.11-CUDA-11.7.0/Gaussian/g16c01-CUDA-11.7.0/g16/l202.exe)
                          Input orientation:                          
 ---------------------------------------------------------------------
 Center     Atomic      Atomic             Coordinates (Angstroms)
 Number     Number       Type             X           Y           Z
 ---------------------------------------------------------------------
      1          6           0        2.206704   -0.000536    0.000056
      2          8           0        2.629912   -0.954547   -0.532145
      3          6           0        0.000078    0.000057    0.000133
      4          6           0        0.932693   -0.115248    1.431852
      5          9           0        0.446203    0.962815    2.045502
      6          9           0        0.433617   -1.283397    1.835555
      7          9           0        2.213089   -0.193568    2.124169
      8          9           0        0.013666    1.098616   -0.706695
      9          9           0       -0.012958   -1.016153   -0.806043
     10          8           0        2.599769    1.251432   -0.001444
     11          1           0        3.421452    1.327328   -0.512304
 ---------------------------------------------------------------------
                    Distance matrix (angstroms):
                    1          2          3          4          5
     1  C    0.000000
     2  O    1.171529   0.000000
     3  C    2.206626   2.847914   0.000000
     4  C    1.919975   2.728051   1.712568   0.000000
     5  F    2.865529   3.884473   2.304228   1.332464   0.000000
     6  F    2.856331   3.246207   2.281224   1.332901   2.256038
     7  F    2.132875   2.794429   3.073506   1.457686   2.113125
     8  F    2.552851   3.330268   1.306377   2.625160   2.789287
     9  F    2.570637   2.657739   1.297217   2.591151   3.501208
    10  O    1.312222   2.269117   2.885193   2.588686   2.985153
    11  H    1.871189   2.415343   3.705407   3.471987   3.940476
                    6          7          8          9         10
     6  F    0.000000
     7  F    2.106548   0.000000
     8  F    3.509042   3.810642   0.000000
     9  F    2.692376   3.770686   2.117269   0.000000
    10  O    3.806854   2.599187   2.684895   3.551854   0.000000
    11  H    4.610367   3.274791   3.420980   4.168136   0.970516
                   11
    11  H    0.000000
 Symmetry turned off by external request.
 Stoichiometry    C3HF5O2
 Rotational constants (GHZ):           1.5525033           1.3988117           1.1931365
 Leave Link  202 at Sat May 24 05:31:10 2025, MaxMem=  3758096384 cpu:               0.1 elap:               0.1
 (Enter /apps/easybuild-2022/easybuild/software/Compiler/NVHPC/22.11-CUDA-11.7.0/Gaussian/g16c01-CUDA-11.7.0/g16/l301.exe)
 Standard basis: def2TZVPP (5D, 7F)
 Ernie: Thresh=  0.10000D-02 Tol=  0.10000D-05 Strict=F.
   324 basis functions,   527 primitive gaussians,   375 cartesian basis functions
    40 alpha electrons       40 beta electrons
       nuclear repulsion energy       638.0566692054 Hartrees.
 IExCor= 4336 DFT=T Ex+Corr=M062X ExCW=0 ScaHFX=  0.540000
 ScaDFX=  1.000000  1.000000  1.000000  1.000000 ScalE2=  1.000000  1.000000
 IRadAn=      5 IRanWt=     -1 IRanGd=            0 ICorTp=0 IEmpDi=  4
 NAtoms=   11 NActive=   11 NUniq=   11 SFac= 1.00D+00 NAtFMM=   60 NAOKFM=F Big=F
 Integral buffers will be    131072 words long.
 Raffenetti 2 integral format.
 Two-electron integral symmetry is turned off.
 Leave Link  301 at Sat May 24 05:31:10 2025, MaxMem=  3758096384 cpu:               0.1 elap:               0.0
 (Enter /apps/easybuild-2022/easybuild/software/Compiler/NVHPC/22.11-CUDA-11.7.0/Gaussian/g16c01-CUDA-11.7.0/g16/l302.exe)
 NPDir=0 NMtPBC=     1 NCelOv=     1 NCel=       1 NClECP=     1 NCelD=      1
         NCelK=      1 NCelE2=     1 NClLst=     1 CellRange=     0.0.
 One-electron integrals computed using PRISM.
   1 Symmetry operations used in ECPInt.
 ECPInt:  NShTT=    6786 NPrTT=   21959 LenC2=    6511 LenP2D=   16011.
 LDataN:  DoStor=T MaxTD1= 6 Len=  172
 NBasis=   324 RedAO= T EigKep=  5.04D-04  NBF=   324
 NBsUse=   324 1.00D-06 EigRej= -1.00D+00 NBFU=   324
 Precomputing XC quadrature grid using
 IXCGrd= 4 IRadAn=           5 IRanWt=          -1 IRanGd=           0 AccXCQ= 0.00D+00.
 Generated NRdTot=       0 NPtTot=           0 NUsed=           0 NTot=          32
 NSgBfM=   372   372   372   372   372 MxSgAt=    11 MxSgA2=    11.
 Leave Link  302 at Sat May 24 05:31:10 2025, MaxMem=  3758096384 cpu:               0.9 elap:               0.2
 (Enter /apps/easybuild-2022/easybuild/software/Compiler/NVHPC/22.11-CUDA-11.7.0/Gaussian/g16c01-CUDA-11.7.0/g16/l303.exe)
 DipDrv:  MaxL=1.
 Leave Link  303 at Sat May 24 05:31:10 2025, MaxMem=  3758096384 cpu:               0.1 elap:               0.0
 (Enter /apps/easybuild-2022/easybuild/software/Compiler/NVHPC/22.11-CUDA-11.7.0/Gaussian/g16c01-CUDA-11.7.0/g16/l401.exe)
 Initial guess from the checkpoint file:  "/tmp/Gau-187256.chk"
 B after Tr=    -0.000092    0.000023    0.000045
         Rot=    1.000000   -0.000075    0.000030   -0.000102 Ang=  -0.01 deg.
 Guess basis will be translated and rotated to current coordinates.
 JPrj=2 DoOrth=T DoCkMO=T.
 Leave Link  401 at Sat May 24 05:31:10 2025, MaxMem=  3758096384 cpu:               0.3 elap:               0.1
 (Enter /apps/easybuild-2022/easybuild/software/Compiler/NVHPC/22.11-CUDA-11.7.0/Gaussian/g16c01-CUDA-11.7.0/g16/l502.exe)
 Keep R1 ints in memory in canonical form, NReq=1412617152.
 FoFCou: FMM=F IPFlag=           0 FMFlag=           0 FMFlg1=           0
         NFxFlg=           0 DoJE=F BraDBF=F KetDBF=F FulRan=T
         wScrn=  0.000000 ICntrl=       600 IOpCl=  0 I1Cent=           0 NGrid=           0
         NMat0=    1 NMatS0=  52650 NMatT0=    0 NMatD0=    1 NMtDS0=    0 NMtDT0=    0
 Symmetry not used in FoFCou.
 Two-electron integral symmetry not used.
 Closed shell SCF:
 Using DIIS extrapolation, IDIIS=  1040.
 NGot=  3758096384 LenX=  2371771902 LenY=  2371630836
 Requested convergence on RMS density matrix=1.00D-08 within  32 cycles.
 Requested convergence on MAX density matrix=1.00D-06.
 Requested convergence on             energy=1.00D-06.
 No special actions if energy rises.

 Cycle   1  Pass 1  IDiag  1:
 E= -764.457799846848    
 DIIS: error= 7.85D-05 at cycle   1 NSaved=   1.
 NSaved= 1 IEnMin= 1 EnMin= -764.457799846848     IErMin= 1 ErrMin= 7.85D-05
 ErrMax= 7.85D-05  0.00D+00 EMaxC= 1.00D-01 BMatC= 6.64D-06 BMatP= 6.64D-06
 IDIUse=1 WtCom= 1.00D+00 WtEn= 0.00D+00
 Coeff-Com:  0.100D+01
 Coeff:      0.100D+01
 Gap=     0.975 Goal=   None    Shift=    0.000
 RMSDP=7.41D-06 MaxDP=1.73D-04              OVMax= 5.38D-04

 Cycle   2  Pass 1  IDiag  1:
 E= -764.457807917528     Delta-E=       -0.000008070681 Rises=F Damp=F
 DIIS: error= 1.61D-05 at cycle   2 NSaved=   2.
 NSaved= 2 IEnMin= 2 EnMin= -764.457807917528     IErMin= 2 ErrMin= 1.61D-05
 ErrMax= 1.61D-05  0.00D+00 EMaxC= 1.00D-01 BMatC= 2.37D-07 BMatP= 6.64D-06
 IDIUse=1 WtCom= 1.00D+00 WtEn= 0.00D+00
 Coeff-Com: -0.136D+00 0.114D+01
 Coeff:     -0.136D+00 0.114D+01
 Gap=     0.257 Goal=   None    Shift=    0.000
 RMSDP=2.01D-06 MaxDP=4.67D-05 DE=-8.07D-06 OVMax= 1.34D-04

 Cycle   3  Pass 1  IDiag  1:
 E= -764.457808263502     Delta-E=       -0.000000345974 Rises=F Damp=F
 DIIS: error= 9.98D-06 at cycle   3 NSaved=   3.
 NSaved= 3 IEnMin= 3 EnMin= -764.457808263502     IErMin= 3 ErrMin= 9.98D-06
 ErrMax= 9.98D-06  0.00D+00 EMaxC= 1.00D-01 BMatC= 1.04D-07 BMatP= 2.37D-07
 IDIUse=1 WtCom= 1.00D+00 WtEn= 0.00D+00
 Coeff-Com: -0.788D-01 0.518D+00 0.561D+00
 Coeff:     -0.788D-01 0.518D+00 0.561D+00
 Gap=     0.257 Goal=   None    Shift=    0.000
 RMSDP=6.86D-07 MaxDP=2.45D-05 DE=-3.46D-07 OVMax= 9.45D-05

 Cycle   4  Pass 1  IDiag  1:
 E= -764.457808325577     Delta-E=       -0.000000062075 Rises=F Damp=F
 DIIS: error= 2.93D-06 at cycle   4 NSaved=   4.
 NSaved= 4 IEnMin= 4 EnMin= -764.457808325577     IErMin= 4 ErrMin= 2.93D-06
 ErrMax= 2.93D-06  0.00D+00 EMaxC= 1.00D-01 BMatC= 8.70D-09 BMatP= 1.04D-07
 IDIUse=1 WtCom= 1.00D+00 WtEn= 0.00D+00
 Coeff-Com:  0.320D-02-0.741D-01 0.188D+00 0.882D+00
 Coeff:      0.320D-02-0.741D-01 0.188D+00 0.882D+00
 Gap=     0.257 Goal=   None    Shift=    0.000
 RMSDP=2.60D-07 MaxDP=7.53D-06 DE=-6.21D-08 OVMax= 1.96D-05

 Cycle   5  Pass 1  IDiag  1:
 E= -764.457808332696     Delta-E=       -0.000000007119 Rises=F Damp=F
 DIIS: error= 7.34D-07 at cycle   5 NSaved=   5.
 NSaved= 5 IEnMin= 5 EnMin= -764.457808332696     IErMin= 5 ErrMin= 7.34D-07
 ErrMax= 7.34D-07  0.00D+00 EMaxC= 1.00D-01 BMatC= 5.44D-10 BMatP= 8.70D-09
 IDIUse=1 WtCom= 1.00D+00 WtEn= 0.00D+00
 Coeff-Com:  0.390D-02-0.490D-01 0.609D-01 0.364D+00 0.621D+00
 Coeff:      0.390D-02-0.490D-01 0.609D-01 0.364D+00 0.621D+00
 Gap=     0.257 Goal=   None    Shift=    0.000
 RMSDP=7.21D-08 MaxDP=2.29D-06 DE=-7.12D-09 OVMax= 1.32D-05

 Cycle   6  Pass 1  IDiag  1:
 E= -764.457808333115     Delta-E=       -0.000000000418 Rises=F Damp=F
 DIIS: error= 3.10D-07 at cycle   6 NSaved=   6.
 NSaved= 6 IEnMin= 6 EnMin= -764.457808333115     IErMin= 6 ErrMin= 3.10D-07
 ErrMax= 3.10D-07  0.00D+00 EMaxC= 1.00D-01 BMatC= 1.20D-10 BMatP= 5.44D-10
 IDIUse=1 WtCom= 1.00D+00 WtEn= 0.00D+00
 Coeff-Com:  0.131D-02-0.936D-02-0.109D-01-0.135D-01 0.306D+00 0.727D+00
 Coeff:      0.131D-02-0.936D-02-0.109D-01-0.135D-01 0.306D+00 0.727D+00
 Gap=     0.257 Goal=   None    Shift=    0.000
 RMSDP=3.04D-08 MaxDP=9.53D-07 DE=-4.18D-10 OVMax= 2.78D-06

 Cycle   7  Pass 1  IDiag  1:
 E= -764.457808333232     Delta-E=       -0.000000000118 Rises=F Damp=F
 DIIS: error= 9.64D-08 at cycle   7 NSaved=   7.
 NSaved= 7 IEnMin= 7 EnMin= -764.457808333232     IErMin= 7 ErrMin= 9.64D-08
 ErrMax= 9.64D-08  0.00D+00 EMaxC= 1.00D-01 BMatC= 7.74D-12 BMatP= 1.20D-10
 IDIUse=1 WtCom= 1.00D+00 WtEn= 0.00D+00
 Coeff-Com: -0.833D-04 0.357D-02-0.111D-01-0.517D-01 0.250D-01 0.221D+00
 Coeff-Com:  0.813D+00
 Coeff:     -0.833D-04 0.357D-02-0.111D-01-0.517D-01 0.250D-01 0.221D+00
 Coeff:      0.813D+00
 Gap=     0.257 Goal=   None    Shift=    0.000
 RMSDP=1.07D-08 MaxDP=3.73D-07 DE=-1.18D-10 OVMax= 1.18D-06

 Cycle   8  Pass 1  IDiag  1:
 E= -764.457808333227     Delta-E=        0.000000000005 Rises=F Damp=F
 DIIS: error= 6.65D-08 at cycle   8 NSaved=   8.
 NSaved= 8 IEnMin= 7 EnMin= -764.457808333232     IErMin= 8 ErrMin= 6.65D-08
 ErrMax= 6.65D-08  0.00D+00 EMaxC= 1.00D-01 BMatC= 3.86D-12 BMatP= 7.74D-12
 IDIUse=1 WtCom= 1.00D+00 WtEn= 0.00D+00
 Coeff-Com: -0.211D-03 0.327D-02-0.479D-02-0.280D-01-0.207D-01 0.343D-01
 Coeff-Com:  0.481D+00 0.535D+00
 Coeff:     -0.211D-03 0.327D-02-0.479D-02-0.280D-01-0.207D-01 0.343D-01
 Coeff:      0.481D+00 0.535D+00
 Gap=     0.257 Goal=   None    Shift=    0.000
 RMSDP=3.88D-09 MaxDP=1.73D-07 DE= 5.23D-12 OVMax= 5.24D-07

 SCF Done:  E(RM062X) =  -764.457808333     A.U. after    8 cycles
            NFock=  8  Conv=0.39D-08     -V/T= 2.0036
 KE= 7.616830066362D+02 PE=-3.088581583305D+03 EE= 9.243840991305D+02
 Leave Link  502 at Sat May 24 05:31:30 2025, MaxMem=  3758096384 cpu:              98.0 elap:              20.2
 (Enter /apps/easybuild-2022/easybuild/software/Compiler/NVHPC/22.11-CUDA-11.7.0/Gaussian/g16c01-CUDA-11.7.0/g16/l508.exe)
 QCSCF skips out because SCF is already converged.
 Leave Link  508 at Sat May 24 05:31:30 2025, MaxMem=  3758096384 cpu:               0.1 elap:               0.0
 (Enter /apps/easybuild-2022/easybuild/software/Compiler/NVHPC/22.11-CUDA-11.7.0/Gaussian/g16c01-CUDA-11.7.0/g16/l801.exe)
 DoSCS=F DFT=T ScalE2(SS,OS)=  1.000000  1.000000
 Range of M.O.s used for correlation:     1   324
 NBasis=   324 NAE=    40 NBE=    40 NFC=     0 NFV=     0
 NROrb=    324 NOA=    40 NOB=    40 NVA=   284 NVB=   284

 **** Warning!!: The largest alpha MO coefficient is  0.13251869D+02

 Leave Link  801 at Sat May 24 05:31:30 2025, MaxMem=  3758096384 cpu:               0.1 elap:               0.1
 (Enter /apps/easybuild-2022/easybuild/software/Compiler/NVHPC/22.11-CUDA-11.7.0/Gaussian/g16c01-CUDA-11.7.0/g16/l1101.exe)
 Using compressed storage, NAtomX=    11.
 Will process     12 centers per pass.
   1 Symmetry operations used in ECPInt.
 ECPInt:  NShTT=    6786 NPrTT=   21959 LenC2=    6511 LenP2D=   16011.
 LDataN:  DoStor=T MaxTD1= 7 Len=  274
 Leave Link 1101 at Sat May 24 05:31:31 2025, MaxMem=  3758096384 cpu:               1.6 elap:               0.4
 (Enter /apps/easybuild-2022/easybuild/software/Compiler/NVHPC/22.11-CUDA-11.7.0/Gaussian/g16c01-CUDA-11.7.0/g16/l1102.exe)
 Symmetrizing basis deriv contribution to polar:
 IMax=3 JMax=2 DiffMx= 0.00D+00
 Leave Link 1102 at Sat May 24 05:31:31 2025, MaxMem=  3758096384 cpu:               0.1 elap:               0.0
 (Enter /apps/easybuild-2022/easybuild/software/Compiler/NVHPC/22.11-CUDA-11.7.0/Gaussian/g16c01-CUDA-11.7.0/g16/l1110.exe)
 Forming Gx(P) for the SCF density, NAtomX=    11.
 Integral derivatives from FoFJK, PRISM(SPDF).
 Do as many integral derivatives as possible in FoFJK.
 G2DrvN: MDV=    3758095093.
 G2DrvN: will do    12 centers at a time, making    1 passes.
 Calling FoFCou, ICntrl=  3107 FMM=F I1Cent=   0 AccDes= 0.00D+00.
 FoFJK:  IHMeth= 1 ICntrl=    3107 DoSepK=F KAlg= 0 I1Cent=           0 FoldK=F
 IRaf=         0 NMat=       1 IRICut=       1 DoRegI=T DoRafI=F ISym2E= 0 IDoP0=0 IntGTp=1.
 FoFCou: FMM=F IPFlag=           0 FMFlag=      100000 FMFlg1=           0
         NFxFlg=           0 DoJE=F BraDBF=F KetDBF=F FulRan=T
         wScrn=  0.000000 ICntrl=      3107 IOpCl=  0 I1Cent=           0 NGrid=           0
         NMat0=    1 NMatS0=      1 NMatT0=    0 NMatD0=    1 NMtDS0=    0 NMtDT0=    0
 Symmetry not used in FoFCou.
 End of G2Drv F.D. properties file   721 does not exist.
 End of G2Drv F.D. properties file   722 does not exist.
 End of G2Drv F.D. properties file   788 does not exist.
 Leave Link 1110 at Sat May 24 05:32:14 2025, MaxMem=  3758096384 cpu:             337.7 elap:              43.0
 (Enter /apps/easybuild-2022/easybuild/software/Compiler/NVHPC/22.11-CUDA-11.7.0/Gaussian/g16c01-CUDA-11.7.0/g16/l1002.exe)
 Minotr:  Closed shell wavefunction.
          IDoAtm=11111111111
          Direct CPHF calculation.
          Differentiating once with respect to electric field.
                with respect to dipole field.
          Differentiating once with respect to nuclear coordinates.
          Requested convergence is 1.0D-08 RMS, and 1.0D-07 maximum.
          Secondary convergence is 1.0D-12 RMS, and 1.0D-12 maximum.
          NewPWx=T KeepS1=F KeepF1=F KeepIn=T MapXYZ=F SortEE=F KeepMc=T.
         3293 words used for storage of precomputed grid.
 Keep R1 ints in memory in canonical form, NReq=1412622545.
 FoFCou: FMM=F IPFlag=           0 FMFlag=           0 FMFlg1=           0
         NFxFlg=           0 DoJE=F BraDBF=F KetDBF=F FulRan=T
         wScrn=  0.000000 ICntrl=       600 IOpCl=  0 I1Cent=           0 NGrid=           0
         NMat0=    1 NMatS0=  52650 NMatT0=    0 NMatD0=    1 NMtDS0=    0 NMtDT0=    0
 Symmetry not used in FoFCou.
 Two-electron integral symmetry not used.
          MDV=    3758096384 using IRadAn=       1.
          Solving linear equations simultaneously, MaxMat=       0.
          There are    36 degrees of freedom in the 1st order CPHF.  IDoFFX=6 NUNeed=     3.
     33 vectors produced by pass  0 Test12= 3.16D-14 2.78D-09 XBig12= 6.15D+01 6.88D+00.
 AX will form    33 AO Fock derivatives at one time.
     33 vectors produced by pass  1 Test12= 3.16D-14 2.78D-09 XBig12= 9.62D+00 6.53D-01.
     33 vectors produced by pass  2 Test12= 3.16D-14 2.78D-09 XBig12= 2.73D-01 7.87D-02.
     33 vectors produced by pass  3 Test12= 3.16D-14 2.78D-09 XBig12= 4.78D-03 1.22D-02.
     33 vectors produced by pass  4 Test12= 3.16D-14 2.78D-09 XBig12= 6.64D-05 9.82D-04.
     33 vectors produced by pass  5 Test12= 3.16D-14 2.78D-09 XBig12= 6.28D-07 8.08D-05.
     33 vectors produced by pass  6 Test12= 3.16D-14 2.78D-09 XBig12= 3.97D-09 8.38D-06.
     16 vectors produced by pass  7 Test12= 3.16D-14 2.78D-09 XBig12= 2.18D-11 5.17D-07.
      3 vectors produced by pass  8 Test12= 3.16D-14 2.78D-09 XBig12= 1.08D-13 3.55D-08.
 InvSVY:  IOpt=1 It=  1 EMax= 1.15D-15
 Solved reduced A of dimension   250 with    36 vectors.
 FullF1:  Do perturbations      1 to       3.
 Isotropic polarizability for W=    0.000000       56.22 Bohr**3.
 End of Minotr F.D. properties file   721 does not exist.
 End of Minotr F.D. properties file   722 does not exist.
 End of Minotr F.D. properties file   788 does not exist.
 Leave Link 1002 at Sat May 24 05:33:30 2025, MaxMem=  3758096384 cpu:             562.1 elap:              75.8
 (Enter /apps/easybuild-2022/easybuild/software/Compiler/NVHPC/22.11-CUDA-11.7.0/Gaussian/g16c01-CUDA-11.7.0/g16/l701.exe)
 ... and contract with generalized density number  0.
 Compute integral second derivatives.
   1 Symmetry operations used in ECPInt.
 ECPInt:  NShTT=    6786 NPrTT=   21959 LenC2=    6511 LenP2D=   16011.
 LDataN:  DoStor=T MaxTD1= 8 Len=  415
 Leave Link  701 at Sat May 24 05:33:30 2025, MaxMem=  3758096384 cpu:               1.3 elap:               0.4
 (Enter /apps/easybuild-2022/easybuild/software/Compiler/NVHPC/22.11-CUDA-11.7.0/Gaussian/g16c01-CUDA-11.7.0/g16/l702.exe)
 L702 exits ... SP integral derivatives will be done elsewhere.
 Leave Link  702 at Sat May 24 05:33:30 2025, MaxMem=  3758096384 cpu:               0.1 elap:               0.0
 (Enter /apps/easybuild-2022/easybuild/software/Compiler/NVHPC/22.11-CUDA-11.7.0/Gaussian/g16c01-CUDA-11.7.0/g16/l703.exe)
 Integral derivatives from FoFJK, PRISM(SPDF).
 Compute integral second derivatives, UseDBF=F ICtDFT=           0.
 Calling FoFJK, ICntrl=    100127 FMM=F ISym2X=0 I1Cent= 0 IOpClX= 0 NMat=1 NMatS=1 NMatT=0.
 FoFJK:  IHMeth= 1 ICntrl=  100127 DoSepK=F KAlg= 0 I1Cent=           0 FoldK=F
 IRaf=         0 NMat=       1 IRICut=       1 DoRegI=T DoRafI=F ISym2E= 0 IDoP0=0 IntGTp=1.
 FoFCou: FMM=F IPFlag=           0 FMFlag=      100000 FMFlg1=         800
         NFxFlg=           0 DoJE=F BraDBF=F KetDBF=F FulRan=T
         wScrn=  0.000000 ICntrl=    100127 IOpCl=  0 I1Cent=           0 NGrid=           0
         NMat0=    1 NMatS0=      1 NMatT0=    0 NMatD0=    1 NMtDS0=    0 NMtDT0=    0
 Symmetry not used in FoFCou.
 Leave Link  703 at Sat May 24 05:35:05 2025, MaxMem=  3758096384 cpu:             748.5 elap:              94.4
 (Enter /apps/easybuild-2022/easybuild/software/Compiler/NVHPC/22.11-CUDA-11.7.0/Gaussian/g16c01-CUDA-11.7.0/g16/l716.exe)
 Dipole        = 3.38007868D-01 7.26571234D-01-8.77274884D-01
 Polarizability= 7.06213704D+01 9.44296757D-01 4.76779979D+01
                -6.88308604D-02 5.43034750D-01 5.03693457D+01
 -------------------------------------------------------------------
 Center     Atomic                   Forces (Hartrees/Bohr)
 Number     Number              X              Y              Z
 -------------------------------------------------------------------
      1        6           0.000001245    0.000001277    0.000003505
      2        8           0.000007690   -0.000000074    0.000009523
      3        6           0.000002715   -0.000007373   -0.000003800
      4        6          -0.000003120    0.000003257   -0.000000528
      5        9          -0.000008867    0.000004407   -0.000007161
      6        9           0.000000601    0.000003467    0.000003900
      7        9          -0.000004345    0.000011817    0.000004078
      8        9           0.000000120   -0.000011352   -0.000009884
      9        9           0.000008732   -0.000011836    0.000001048
     10        8          -0.000003100    0.000002939   -0.000001525
     11        1          -0.000001671    0.000003470    0.000000845
 -------------------------------------------------------------------
 Cartesian Forces:  Max     0.000011836 RMS     0.000005758
 Force constants in Cartesian coordinates: 
                1             2             3             4             5 
      1  0.384836D+00
      2 -0.128227D+00  0.979612D+00
      3 -0.159914D+00  0.288030D+00  0.321243D+00
      4 -0.187592D+00  0.242591D+00  0.150258D+00  0.171764D+00
      5  0.230801D+00 -0.615861D+00 -0.297774D+00 -0.253437D+00  0.705460D+00
      6  0.141245D+00 -0.304465D+00 -0.231641D+00 -0.156359D+00  0.343615D+00
      7 -0.506771D-02 -0.846615D-02  0.573623D-01 -0.305703D-01  0.179566D-01
      8 -0.140804D-03  0.303141D-01  0.162648D-02 -0.186013D-02 -0.101994D-01
      9 -0.461365D-01  0.627780D-02  0.636770D-01  0.266364D-01 -0.216241D-01
     10 -0.512722D-02 -0.251964D-02 -0.399660D-01 -0.878862D-02  0.634715D-02
     11 -0.522058D-02 -0.229268D-01 -0.258814D-02  0.171777D-01 -0.892729D-02
     12  0.540640D-01 -0.144946D-02  0.150548D-01 -0.167331D-01  0.519717D-02
     13  0.322528D-02  0.535978D-02  0.109767D-02 -0.100316D-02  0.202776D-03
     14 -0.312021D-02 -0.471191D-02  0.737774D-03  0.148765D-02  0.135832D-02
     15 -0.119423D-01 -0.668165D-02  0.454676D-02  0.542324D-02 -0.143635D-02
     16  0.282823D-02 -0.613197D-02 -0.218028D-03  0.134648D-02  0.101859D-02
     17  0.486680D-02 -0.535263D-02 -0.377318D-02 -0.365983D-02  0.501003D-02
     18 -0.108672D-01  0.652397D-02  0.604764D-02  0.255309D-02 -0.297524D-02
     19 -0.234111D-01  0.455224D-02 -0.335302D-01  0.133511D-01 -0.536018D-02
     20  0.251975D-02  0.112284D-02  0.601442D-02 -0.362500D-02  0.368990D-02
     21 -0.205619D-01  0.548316D-02 -0.724726D-01  0.808832D-02 -0.374935D-02
     22 -0.172533D-01  0.689618D-02 -0.510231D-02  0.858901D-02 -0.503424D-02
     23 -0.803594D-02 -0.168857D-01  0.353708D-01  0.841559D-02 -0.120363D-02
     24  0.118218D-01  0.674057D-02 -0.183748D-01 -0.977856D-02  0.476623D-02
     25 -0.216074D-01 -0.244927D-02 -0.228726D-02  0.600201D-02 -0.107242D-01
     26  0.805846D-02 -0.159998D-01 -0.358119D-01 -0.262404D-02  0.100098D-01
     27  0.131245D-01 -0.127102D-01 -0.229296D-01 -0.595015D-02  0.108855D-01
     28 -0.111923D+00 -0.951281D-01  0.182575D-01  0.256631D-01  0.102495D-01
     29 -0.525159D-01 -0.314325D+00 -0.198613D-01 -0.100175D-01 -0.932754D-01
     30  0.234175D-01  0.645630D-02 -0.689216D-01 -0.155443D-02 -0.341842D-01
     31 -0.189076D-01 -0.164767D-01  0.140421D-01  0.123916D-02  0.797983D-02
     32 -0.489854D-01 -0.149872D-01  0.280294D-01  0.555154D-02  0.393846D-02
     33  0.574845D-02  0.579461D-02  0.377067D-02 -0.258396D-02 -0.272128D-02
                6             7             8             9            10 
      6  0.227344D+00
      7  0.868265D-02 -0.331312D-02
      8 -0.579690D-02  0.723798D-02  0.555531D+00
      9 -0.300523D-01 -0.506424D-01  0.903222D-02  0.527941D+00
     10  0.198498D-01  0.132591D+00 -0.301333D-02  0.580810D-01  0.147507D+00
     11 -0.143367D-01 -0.359798D-02 -0.184567D-01  0.370548D-02  0.157612D-01
     12  0.151771D-02  0.462247D-01 -0.414945D-03 -0.650311D-01 -0.130522D+00
     13  0.680175D-03 -0.812343D-02 -0.743582D-02 -0.173786D-01 -0.853915D-01
     14 -0.748000D-03 -0.142537D-01 -0.213589D-01 -0.268152D-01  0.695735D-01
     15 -0.361772D-02 -0.131436D-01 -0.436124D-01 -0.427023D-01  0.621754D-01
     16 -0.173013D-02 -0.770371D-02  0.896800D-02 -0.156537D-01 -0.860695D-01
     17  0.306368D-02  0.169142D-01 -0.376607D-01  0.302689D-01 -0.808765D-01
     18 -0.141914D-02 -0.120492D-01  0.464964D-01 -0.323011D-01  0.495708D-01
     19  0.830149D-04 -0.338254D-02  0.396227D-03 -0.682407D-03 -0.538238D-01
     20 -0.958969D-03 -0.143073D-02 -0.946844D-03 -0.221442D-02  0.530487D-02
     21 -0.195016D-03  0.122489D-01 -0.315378D-03  0.243581D-01 -0.651961D-01
     22 -0.435894D-02 -0.251565D-01 -0.877005D-02  0.125618D-01 -0.162637D-01
     23 -0.105321D-01 -0.134998D-01 -0.251298D+00  0.134598D+00  0.233480D-01
     24  0.915157D-02 -0.249656D-01  0.148025D+00 -0.196843D+00  0.176850D-01
     25 -0.944920D-02 -0.282743D-01  0.618526D-02  0.103679D-01 -0.114429D-01
     26  0.131370D-01  0.106122D-01 -0.234954D+00 -0.148828D+00 -0.247239D-01
     27  0.136951D-01 -0.250439D-01 -0.158156D+00 -0.234759D+00  0.135002D-01
     28  0.370859D-02 -0.179041D-01 -0.119125D-02  0.206400D-01 -0.143165D-01
     29 -0.214819D-01 -0.935369D-02 -0.103700D-01  0.126994D-01 -0.605453D-02
     30  0.190370D-01  0.335834D-02  0.290541D-02 -0.143234D-01  0.114688D-01
     31 -0.235231D-02 -0.309484D-02 -0.376080D-03  0.220650D-02  0.112599D-02
     32 -0.149687D-02 -0.211896D-02 -0.600130D-03  0.290072D-02 -0.314681D-02
     33 -0.381970D-02 -0.203218D-02  0.209813D-03  0.361890D-04  0.335346D-02
               11            12            13            14            15 
     11  0.578432D+00
     12  0.297940D-01  0.294956D+00
     13  0.561786D-01  0.435681D-01  0.142308D+00
     14 -0.202987D+00 -0.724848D-01 -0.108794D+00  0.285075D+00
     15 -0.931056D-01 -0.127471D+00 -0.262865D-01  0.132183D+00  0.154765D+00
     16 -0.632489D-01  0.329339D-01  0.124724D-01  0.151175D-02 -0.592235D-02
     17 -0.228152D+00  0.514536D-01 -0.121113D-02 -0.509285D-01  0.314644D-03
     18  0.712914D-01 -0.987827D-01 -0.629768D-02 -0.130949D-01  0.164022D-01
     19 -0.297031D-02  0.274945D-01 -0.678069D-01  0.466134D-01 -0.130181D-01
     20 -0.599916D-01 -0.629435D-04  0.580840D-01 -0.187912D-01  0.764960D-02
     21  0.196516D-02 -0.686627D-01  0.839026D-02 -0.424572D-02  0.174704D-01
     22  0.796369D-02 -0.204703D-01  0.383256D-03  0.276598D-02  0.134327D-02
     23 -0.111061D-01 -0.222775D-01 -0.356072D-02  0.845791D-02  0.334210D-02
     24  0.204872D-01  0.259499D-01  0.151582D-02 -0.738099D-02 -0.334387D-02
     25 -0.490545D-02 -0.211554D-01  0.237305D-02  0.170702D-02 -0.145637D-02
     26 -0.141007D-01  0.182020D-01  0.103268D-02 -0.479555D-03 -0.181588D-02
     27 -0.275230D-01  0.223703D-01 -0.427108D-02 -0.754049D-02 -0.152056D-01
     28 -0.157820D-01 -0.128599D-01  0.104806D-02  0.226068D-02  0.319118D-02
     29 -0.868444D-02 -0.581010D-02 -0.520066D-03  0.385802D-02  0.311880D-02
     30  0.104849D-01 -0.140550D-02 -0.326613D-03 -0.701842D-03 -0.824730D-03
     31 -0.135594D-02 -0.254424D-02  0.514854D-03  0.248322D-03 -0.363713D-03
     32 -0.309939D-02 -0.214695D-02  0.664245D-03  0.507818D-03  0.435972D-04
     33 -0.174749D-03  0.150441D-02 -0.691494D-03  0.910789D-04 -0.187680D-04
               16            17            18            19            20 
     16  0.146199D+00
     17  0.114086D+00  0.325389D+00
     18 -0.495723D-02 -0.988765D-01  0.112831D+00
     19 -0.716454D-01 -0.440710D-01 -0.214233D-01  0.191961D+00
     20 -0.593488D-01 -0.159304D-01 -0.134564D-01 -0.253763D-02  0.889176D-01
     21 -0.272822D-02 -0.225545D-02  0.157465D-01  0.475363D-01 -0.463804D-02
     22  0.310968D-02 -0.175423D-02 -0.109480D-02  0.159067D-02 -0.252496D-03
     23 -0.575114D-03 -0.192410D-02  0.309283D-02  0.547882D-02 -0.397071D-03
     24 -0.420560D-02  0.107729D-01 -0.138932D-01 -0.475034D-02 -0.307517D-03
     25 -0.178111D-03 -0.308776D-02  0.629235D-03  0.198382D-02 -0.287808D-03
     26  0.355193D-02  0.875542D-02 -0.524531D-03 -0.460223D-02  0.258689D-02
     27  0.189046D-02  0.782648D-02 -0.250005D-02 -0.496390D-02  0.198902D-02
     28 -0.580258D-03 -0.130531D-02  0.417971D-02  0.945710D-02  0.576933D-03
     29  0.804320D-04  0.843933D-03  0.102576D-02  0.988500D-03 -0.515796D-03
     30  0.120727D-02  0.126048D-02 -0.210981D-02  0.387957D-02  0.584916D-02
     31  0.220831D-03  0.986346D-04 -0.243481D-03  0.172607D-02  0.996866D-03
     32  0.878516D-04 -0.505248D-04  0.497187D-03  0.151225D-02  0.255840D-03
[...]
     11 -0.143367D-01 -0.359798D-02 -0.184567D-01  0.370548D-02  0.157612D-01
     12  0.151771D-02  0.462247D-01 -0.414945D-03 -0.650311D-01 -0.130522D+00
     13  0.680175D-03 -0.812343D-02 -0.743582D-02 -0.173786D-01 -0.853915D-01
     14 -0.748000D-03 -0.142537D-01 -0.213589D-01 -0.268152D-01  0.695735D-01
     15 -0.361772D-02 -0.131436D-01 -0.436124D-01 -0.427023D-01  0.621754D-01
     16 -0.173013D-02 -0.770371D-02  0.896800D-02 -0.156537D-01 -0.860695D-01
     17  0.306368D-02  0.169142D-01 -0.376607D-01  0.302689D-01 -0.808765D-01
     18 -0.141914D-02 -0.120492D-01  0.464964D-01 -0.323011D-01  0.495708D-01
     19  0.830149D-04 -0.338254D-02  0.396227D-03 -0.682407D-03 -0.538238D-01
     20 -0.958969D-03 -0.143073D-02 -0.946844D-03 -0.221442D-02  0.530487D-02
     21 -0.195016D-03  0.122489D-01 -0.315378D-03  0.243581D-01 -0.651961D-01
     22 -0.435894D-02 -0.251565D-01 -0.877005D-02  0.125618D-01 -0.162637D-01
     23 -0.105321D-01 -0.134998D-01 -0.251298D+00  0.134598D+00  0.233480D-01
     24  0.915157D-02 -0.249656D-01  0.148025D+00 -0.196843D+00  0.176850D-01
     25 -0.944920D-02 -0.282743D-01  0.618526D-02  0.103679D-01 -0.114429D-01
     26  0.131370D-01  0.106122D-01 -0.234954D+00 -0.148828D+00 -0.247239D-01
     27  0.136951D-01 -0.250439D-01 -0.158156D+00 -0.234759D+00  0.135002D-01
     28  0.370859D-02 -0.179041D-01 -0.119125D-02  0.206400D-01 -0.143165D-01
     29 -0.214819D-01 -0.935369D-02 -0.103700D-01  0.126994D-01 -0.605453D-02
     30  0.190370D-01  0.335834D-02  0.290541D-02 -0.143234D-01  0.114688D-01
     31 -0.235231D-02 -0.309484D-02 -0.376080D-03  0.220650D-02  0.112599D-02
     32 -0.149687D-02 -0.211896D-02 -0.600130D-03  0.290072D-02 -0.314681D-02
     33 -0.381970D-02 -0.203218D-02  0.209813D-03  0.361890D-04  0.335346D-02
               11            12            13            14            15 
     11  0.578432D+00
     12  0.297940D-01  0.294956D+00
     13  0.561786D-01  0.435681D-01  0.142308D+00
     14 -0.202987D+00 -0.724848D-01 -0.108794D+00  0.285075D+00
     15 -0.931056D-01 -0.127471D+00 -0.262865D-01  0.132183D+00  0.154765D+00
     16 -0.632489D-01  0.329339D-01  0.124724D-01  0.151175D-02 -0.592235D-02
     17 -0.228152D+00  0.514536D-01 -0.121113D-02 -0.509285D-01  0.314644D-03
     18  0.712914D-01 -0.987827D-01 -0.629768D-02 -0.130949D-01  0.164022D-01
     19 -0.297031D-02  0.274945D-01 -0.678069D-01  0.466134D-01 -0.130181D-01
     20 -0.599916D-01 -0.629435D-04  0.580840D-01 -0.187912D-01  0.764960D-02
     21  0.196516D-02 -0.686627D-01  0.839026D-02 -0.424572D-02  0.174704D-01
     22  0.796369D-02 -0.204703D-01  0.383256D-03  0.276598D-02  0.134327D-02
     23 -0.111061D-01 -0.222775D-01 -0.356072D-02  0.845791D-02  0.334210D-02
     24  0.204872D-01  0.259499D-01  0.151582D-02 -0.738099D-02 -0.334387D-02
     25 -0.490545D-02 -0.211554D-01  0.237305D-02  0.170702D-02 -0.145637D-02
     26 -0.141007D-01  0.182020D-01  0.103268D-02 -0.479555D-03 -0.181588D-02
     27 -0.275230D-01  0.223703D-01 -0.427108D-02 -0.754049D-02 -0.152056D-01
     28 -0.157820D-01 -0.128599D-01  0.104806D-02  0.226068D-02  0.319118D-02
     29 -0.868444D-02 -0.581010D-02 -0.520066D-03  0.385802D-02  0.311880D-02
     30  0.104849D-01 -0.140550D-02 -0.326613D-03 -0.701842D-03 -0.824730D-03
     31 -0.135594D-02 -0.254424D-02  0.514854D-03  0.248322D-03 -0.363713D-03
     32 -0.309939D-02 -0.214695D-02  0.664245D-03  0.507818D-03  0.435972D-04
     33 -0.174749D-03  0.150441D-02 -0.691494D-03  0.910789D-04 -0.187680D-04
               16            17            18            19            20 
     16  0.146199D+00
     17  0.114086D+00  0.325389D+00
     18 -0.495723D-02 -0.988765D-01  0.112831D+00
     19 -0.716454D-01 -0.440710D-01 -0.214233D-01  0.191961D+00
     20 -0.593488D-01 -0.159304D-01 -0.134564D-01 -0.253763D-02  0.889176D-01
     21 -0.272822D-02 -0.225545D-02  0.157465D-01  0.475363D-01 -0.463804D-02
     22  0.310968D-02 -0.175423D-02 -0.109480D-02  0.159067D-02 -0.252496D-03
     23 -0.575114D-03 -0.192410D-02  0.309283D-02  0.547882D-02 -0.397071D-03
     24 -0.420560D-02  0.107729D-01 -0.138932D-01 -0.475034D-02 -0.307517D-03
     25 -0.178111D-03 -0.308776D-02  0.629235D-03  0.198382D-02 -0.287808D-03
     26  0.355193D-02  0.875542D-02 -0.524531D-03 -0.460223D-02  0.258689D-02
     27  0.189046D-02  0.782648D-02 -0.250005D-02 -0.496390D-02  0.198902D-02
     28 -0.580258D-03 -0.130531D-02  0.417971D-02  0.945710D-02  0.576933D-03
     29  0.804320D-04  0.843933D-03  0.102576D-02  0.988500D-03 -0.515796D-03
     30  0.120727D-02  0.126048D-02 -0.210981D-02  0.387957D-02  0.584916D-02
     31  0.220831D-03  0.986346D-04 -0.243481D-03  0.172607D-02  0.996866D-03
     32  0.878516D-04 -0.505248D-04  0.497187D-03  0.151225D-02  0.255840D-03
     33 -0.616383D-03 -0.554426D-04 -0.216707D-04 -0.625158D-03  0.136062D-03
               21            22            23            24            25 
     21  0.101764D+00
     22  0.269669D-02  0.351689D-01
     23  0.155086D-01 -0.935290D-02  0.354871D+00
     24 -0.733632D-02  0.181951D-01 -0.157371D+00  0.163840D+00
     25  0.429085D-02  0.548992D-02 -0.555700D-02  0.171249D-02  0.407327D-01
     26 -0.140305D-01  0.585664D-03 -0.909101D-01 -0.179336D-01  0.160182D-01
     27 -0.840546D-02  0.115745D-02  0.615216D-02  0.345791D-01  0.200215D-01
     28  0.487276D-02  0.257208D-02  0.299861D-02 -0.643331D-02  0.415673D-02
     29  0.659088D-02  0.568087D-02  0.941172D-02 -0.689371D-02  0.254708D-02
     30 -0.285004D-02 -0.492691D-02 -0.679423D-02  0.619245D-02 -0.249381D-02
     31  0.362103D-03  0.176995D-02  0.340478D-03 -0.796903D-03  0.764562D-03
     32 -0.313344D-03  0.127152D-02  0.984429D-03 -0.905757D-03  0.553926D-03
     33  0.582673D-03 -0.103389D-05 -0.108974D-02  0.782119D-04 -0.180009D-03
               26            27            28            29            30 
     26  0.336463D+00
     27  0.182334D+00  0.208216D+00
     28 -0.744451D-02 -0.857180D-02  0.452431D+00
     29 -0.295723D-03 -0.203650D-02  0.104601D+00  0.452205D+00
     30  0.493562D-02  0.514241D-02 -0.244819D+00  0.152030D-01  0.206797D+00
     31 -0.464514D-03 -0.893339D-03 -0.350604D+00 -0.354358D-01  0.210789D+00
     32 -0.107525D-02 -0.122082D-02  0.164973D-03 -0.388532D-01 -0.541464D-02
     33  0.336424D-03 -0.202885D-03  0.217834D+00  0.174457D-01 -0.146733D+00
               31            32            33 
     31  0.365245D+00
     32  0.444448D-01  0.529792D-01
     33 -0.220206D+00 -0.199725D-01  0.144824D+00
 Red2BG is reusing G-inverse.
 Leave Link  716 at Sat May 24 05:35:05 2025, MaxMem=  3758096384 cpu:               0.1 elap:               0.1
 (Enter /apps/easybuild-2022/easybuild/software/Compiler/NVHPC/22.11-CUDA-11.7.0/Gaussian/g16c01-CUDA-11.7.0/g16/l9999.exe)

 ----------------------------------------------------------------------

 Electric dipole moment (input orientation):
 (Debye = 10**-18 statcoulomb cm , SI units = C m)
                  (au)            (Debye)         (10**-30 SI)
   Tot        0.118818D+01      0.302005D+01      0.100738D+02
   x          0.338008D+00      0.859130D+00      0.286575D+01
   y          0.726571D+00      0.184676D+01      0.616013D+01
   z         -0.877275D+00     -0.222981D+01     -0.743785D+01

 Dipole polarizability, Alpha (input orientation).
 (esu units = cm**3 , SI units = C**2 m**2 J**-1)
 Alpha(0;0):
               (au)            (10**-24 esu)      (10**-40 SI)
   iso        0.562229D+02      0.833137D+01      0.926990D+01
   aniso      0.218052D+02      0.323120D+01      0.359519D+01
   xx         0.706214D+02      0.104650D+02      0.116439D+02
   yx         0.944297D+00      0.139930D+00      0.155694D+00
   yy         0.476780D+02      0.706515D+01      0.786104D+01
   zx        -0.688309D-01     -0.101997D-01     -0.113487D-01
   zy         0.543035D+00      0.804694D-01      0.895343D-01
   zz         0.503693D+02      0.746397D+01      0.830478D+01

 ----------------------------------------------------------------------

 Dipole orientation:
     6          3.97606365          0.41803252          1.18558541
     8          4.63288866          2.52807480          1.05322510
     6          0.00020051         -0.00022309         -0.00007738
     6          2.47201269         -1.30728572         -1.62957594
     9          1.72149560         -3.70741268         -1.50152522
     9          2.01072868         -0.13553934         -3.81101275
     9          5.16595521         -1.74900668         -1.99771931
     9         -0.56303974         -0.81027823          2.26289131
     9         -0.26449930          2.43617446         -0.05656604
     8          4.44670760         -1.36285580          2.84571771
     1          5.63819445         -0.72970835          4.08792184

 Electric dipole moment (dipole orientation):
 (Debye = 10**-18 statcoulomb cm , SI units = C m)
                  (au)            (Debye)         (10**-30 SI)
   Tot        0.118818D+01      0.302005D+01      0.100738D+02
   x          0.000000D+00      0.000000D+00      0.000000D+00
   y          0.000000D+00      0.000000D+00      0.000000D+00
   z          0.118818D+01      0.302005D+01      0.100738D+02

 Dipole polarizability, Alpha (dipole orientation).
 (esu units = cm**3 , SI units = C**2 m**2 J**-1)
 Alpha(0;0):
               (au)            (10**-24 esu)      (10**-40 SI)
   iso        0.562229D+02      0.833137D+01      0.926990D+01
   aniso      0.218052D+02      0.323120D+01      0.359519D+01
   xx         0.685042D+02      0.101513D+02      0.112948D+02
   yx         0.954931D+00      0.141506D+00      0.157447D+00
   yy         0.492955D+02      0.730484D+01      0.812773D+01
   zx         0.635884D+01      0.942283D+00      0.104843D+01
   zy         0.184391D+01      0.273239D+00      0.304019D+00
   zz         0.508690D+02      0.753801D+01      0.838716D+01

 ----------------------------------------------------------------------
 Unable to Open any file for archive entry.
 1\1\GINC-SPARTAN-BM178\Freq\RM062X\def2TZVPP\C3H1F5O2\AKHALILOV\24-May
 -2025\0\\#P M062X/Def2TZVPP Symm(None) scf(xqc) pop(None) opt(NoFreeze
 ,TS,CalcAll,NoEigentest,MaxCycle=999)\\Gaussian input prepared by ASE\
 \0,1\C,2.2067035521,-0.0005357758,0.0000561563\O,2.629911955,-0.954546
 777,-0.5321450681\C,0.0000777006,0.0000570007,0.0001326076\C,0.9326929
 253,-0.1152480611,1.4318524644\F,0.4462026613,0.9628154297,2.045502372
 \F,0.4336165743,-1.2833966865,1.8355546768\F,2.2130887063,-0.193567825
 6,2.1241685635\F,0.0136657722,1.0986156434,-0.706695397\F,-0.012957956
 3,-1.0161532985,-0.8060431084\O,2.5997688799,1.251431901,-0.001444198\
 H,3.4214515289,1.3273284726,-0.5123040848\\Version=ES64L-G16RevC.01\HF
 =-764.4578083\RMSD=3.884e-09\RMSF=5.758e-06\ZeroPoint=0.0466153\Therma
 l=0.0560147\ETot=-764.4017936\HTot=-764.4008494\GTot=-764.4462363\Dipo
 le=0.3380079,0.7265712,-0.8772749\DipoleDeriv=1.7251002,0.1093261,-0.5
 778995,0.0251107,1.7537868,0.287201,-1.1519675,0.2870837,0.63081,-1.01
 49345,0.2307869,0.3398104,0.4081554,-0.9029703,-0.2983327,0.6453014,-0
 .3031494,-0.5057526,-0.2744449,0.0066584,0.3576845,0.0238936,1.4674284
 ,0.0239226,1.1644468,0.024002,0.9806185,1.1734324,-0.017783,0.0217777,
 -0.034179,1.532091,-0.0948163,0.4934183,-0.0895894,2.2458683,-0.321062
 ,0.1834657,0.1100521,0.1534216,-0.6330537,-0.3581145,0.1361856,-0.2960
 49,-0.6102304,-0.3214113,-0.1908565,0.0677813,-0.1780536,-0.7438046,0.
 3394601,0.0947583,0.265975,-0.4885475,-0.8203994,0.0447568,-0.4160868,
 0.0596013,-0.3160445,0.0765241,-0.6058038,0.0699649,-1.097176,0.193409
 6,-0.0334144,-0.0221591,0.5509699,-0.7534706,0.4005016,-0.5160788,0.47
 41172,-0.5442606,0.2190866,0.0110606,-0.0095248,-0.5373495,-0.6428413,
 -0.3871324,-0.581623,-0.468019,-0.6058803,-0.8446765,-0.4043696,0.0880
 937,-0.4891439,-1.0785097,0.0510502,0.2895857,0.0841185,-0.3315549,0.2
 858997,0.0603688,0.0404705,0.0175736,0.3173885,-0.0402638,0.031777,-0.
 0484545,0.3261055\Polar=70.6213704,0.9442968,47.6779979,-0.0688309,0.5
 430348,50.3693457\PG=Unknown\NImag=1\\0.38483590,-0.12822730,0.9796122
 1,-0.15991376,0.28802956,0.32124282,-0.18759239,0.24259095,0.15025799,
 0.17176352,0.23080112,-0.61586057,-0.29777389,-0.25343688,0.70545971,0
 .14124531,-0.30446471,-0.23164108,-0.15635892,0.34361547,0.22734357,-0
 .00506771,-0.00846615,0.05736228,-0.03057029,0.01795662,0.00868265,-0.
 00331312,-0.00014080,0.03031413,0.00162648,-0.00186013,-0.01019936,-0.
 00579690,0.00723798,0.55553052,-0.04613652,0.00627780,0.06367697,0.026
 63642,-0.02162412,-0.03005230,-0.05064240,0.00903222,0.52794056,-0.005
 12722,-0.00251964,-0.03996596,-0.00878862,0.00634715,0.01984976,0.1325
 9059,-0.00301333,0.05808096,0.14750717,-0.00522058,-0.02292677,-0.0025
 8814,0.01717765,-0.00892729,-0.01433669,-0.00359798,-0.01845666,0.0037
 0548,0.01576120,0.57843199,0.05406398,-0.00144946,0.01505480,-0.016733
 05,0.00519717,0.00151771,0.04622470,-0.00041494,-0.06503109,-0.1305222
 5,0.02979401,0.29495601,0.00322528,0.00535978,0.00109767,-0.00100316,0
 .00020278,0.00068017,-0.00812343,-0.00743582,-0.01737861,-0.08539154,0
 .05617865,0.04356808,0.14230804,-0.00312021,-0.00471191,0.00073777,0.0
 0148765,0.00135832,-0.00074800,-0.01425368,-0.02135888,-0.02681524,0.0
 6957353,-0.20298724,-0.07248484,-0.10879439,0.28507520,-0.01194231,-0.
 00668165,0.00454676,0.00542324,-0.00143635,-0.00361772,-0.01314364,-0.
 04361245,-0.04270231,0.06217536,-0.09310558,-0.12747102,-0.02628653,0.
 13218316,0.15476471,0.00282823,-0.00613197,-0.00021803,0.00134648,0.00
 101859,-0.00173013,-0.00770371,0.00896800,-0.01565367,-0.08606954,-0.0
 6324889,0.03293388,0.01247244,0.00151175,-0.00592235,0.14619931,0.0048
 6680,-0.00535263,-0.00377318,-0.00365983,0.00501003,0.00306368,0.01691
 421,-0.03766072,0.03026886,-0.08087654,-0.22815176,0.05145359,-0.00121
 113,-0.05092846,0.00031464,0.11408619,0.32538926,-0.01086716,0.0065239
 7,0.00604764,0.00255309,-0.00297524,-0.00141914,-0.01204918,0.04649642
 ,-0.03230115,0.04957076,0.07129138,-0.09878273,-0.00629768,-0.01309489
 ,0.01640219,-0.00495723,-0.09887654,0.11283146,-0.02341110,0.00455224,
 -0.03353020,0.01335113,-0.00536018,0.00008301,-0.00338254,0.00039623,-
 0.00068241,-0.05382378,-0.00297031,0.02749448,-0.06780685,0.04661335,-
 0.01301814,-0.07164536,-0.04407104,-0.02142327,0.19196083,0.00251975,0
 .00112284,0.00601442,-0.00362500,0.00368990,-0.00095897,-0.00143073,-0
 .00094684,-0.00221442,0.00530487,-0.05999164,-0.00006294,0.05808400,-0
 .01879122,0.00764960,-0.05934876,-0.01593044,-0.01345636,-0.00253763,0
 .08891755,-0.02056188,0.00548316,-0.07247257,0.00808832,-0.00374935,-0
 .00019502,0.01224889,-0.00031538,0.02435813,-0.06519612,0.00196516,-0.
 06866275,0.00839026,-0.00424572,0.01747039,-0.00272822,-0.00225545,0.0
 1574648,0.04753635,-0.00463804,0.10176448,-0.01725331,0.00689618,-0.00
 510231,0.00858901,-0.00503424,-0.00435894,-0.02515649,-0.00877005,0.01
 256177,-0.01626367,0.00796369,-0.02047033,0.00038326,0.00276598,0.0013
 4327,0.00310968,-0.00175423,-0.00109480,0.00159067,-0.00025250,0.00269
 669,0.03516891,-0.00803594,-0.01688571,0.03537085,0.00841559,-0.001203
 63,-0.01053209,-0.01349983,-0.25129783,0.13459752,0.02334800,-0.011106
 13,-0.02227748,-0.00356072,0.00845791,0.00334210,-0.00057511,-0.001924
 10,0.00309283,0.00547882,-0.00039707,0.01550859,-0.00935290,0.35487052
 ,0.01182185,0.00674057,-0.01837484,-0.00977856,0.00476623,0.00915157,-
 0.02496555,0.14802514,-0.19684280,0.01768498,0.02048721,0.02594989,0.0
 0151582,-0.00738099,-0.00334387,-0.00420560,0.01077288,-0.01389321,-0.
 00475034,-0.00030752,-0.00733632,0.01819513,-0.15737050,0.16383987,-0.
 02160744,-0.00244927,-0.00228726,0.00600201,-0.01072423,-0.00944920,-0
 .02827433,0.00618526,0.01036793,-0.01144292,-0.00490545,-0.02115537,0.
 00237305,0.00170702,-0.00145637,-0.00017811,-0.00308776,0.00062923,0.0
 0198382,-0.00028781,0.00429085,0.00548992,-0.00555700,0.00171249,0.040
 73270,0.00805846,-0.01599983,-0.03581191,-0.00262404,0.01000981,0.0131
 3696,0.01061221,-0.23495418,-0.14882819,-0.02472390,-0.01410067,0.0182
 0195,0.00103268,-0.00047956,-0.00181588,0.00355193,0.00875542,-0.00052
 453,-0.00460223,0.00258689,-0.01403051,0.00058566,-0.09091011,-0.01793
 356,0.01601824,0.33646320,0.01312450,-0.01271016,-0.02292957,-0.005950
 15,0.01088554,0.01369508,-0.02504390,-0.15815582,-0.23475877,0.0135002
 3,-0.02752303,0.02237026,-0.00427108,-0.00754049,-0.01520564,0.0018904
 6,0.00782648,-0.00250005,-0.00496390,0.00198902,-0.00840546,0.00115745
 ,0.00615216,0.03457905,0.02002152,0.18233362,0.20821557,-0.11192261,-0
 .09512813,0.01825752,0.02566314,0.01024946,0.00370859,-0.01790412,-0.0
 0119125,0.02064003,-0.01431647,-0.01578204,-0.01285987,0.00104806,0.00
 226068,0.00319118,-0.00058026,-0.00130531,0.00417971,0.00945710,0.0005
 7693,0.00487276,0.00257208,0.00299861,-0.00643331,0.00415673,-0.007444
 51,-0.00857180,0.45243055,-0.05251591,-0.31432452,-0.01986132,-0.01001
 752,-0.09327537,-0.02148187,-0.00935369,-0.01037005,0.01269938,-0.0060
 5453,-0.00868444,-0.00581010,-0.00052007,0.00385802,0.00311880,0.00008
 043,0.00084393,0.00102576,0.00098850,-0.00051580,0.00659088,0.00568087
 ,0.00941172,-0.00689371,0.00254708,-0.00029572,-0.00203650,0.10460058,
 0.45220543,0.02341754,0.00645630,-0.06892159,-0.00155443,-0.03418419,0
 .01903703,0.00335834,0.00290541,-0.01432345,0.01146881,0.01048494,-0.0
 0140550,-0.00032661,-0.00070184,-0.00082473,0.00120727,0.00126048,-0.0
 0210981,0.00387957,0.00584916,-0.00285004,-0.00492691,-0.00679423,0.00
 619245,-0.00249381,0.00493562,0.00514241,-0.24481911,0.01520300,0.2067
 9657,-0.01890763,-0.01647668,0.01404205,0.00123916,0.00797983,-0.00235
 231,-0.00309484,-0.00037608,0.00220650,0.00112599,-0.00135594,-0.00254
 424,0.00051485,0.00024832,-0.00036371,0.00022083,0.00009863,-0.0002434
 8,0.00172607,0.00099687,0.00036210,0.00176995,0.00034048,-0.00079690,0
 .00076456,-0.00046451,-0.00089334,-0.35060421,-0.03543576,0.21078934,0
 .36524527,-0.04898538,-0.01498724,0.02802935,0.00555154,0.00393846,-0.
 00149687,-0.00211896,-0.00060013,0.00290072,-0.00314681,-0.00309939,-0
 .00214695,0.00066424,0.00050782,0.00004360,0.00008785,-0.00005052,0.00
 049719,0.00151225,0.00025584,-0.00031334,0.00127152,0.00098443,-0.0009
 0576,0.00055393,-0.00107525,-0.00122082,0.00016497,-0.03885322,-0.0054
 1464,0.04444484,0.05297922,0.00574845,0.00579461,0.00377067,-0.0025839
 6,-0.00272128,-0.00381970,-0.00203218,0.00020981,0.00003619,0.00335346
 ,-0.00017475,0.00150441,-0.00069149,0.00009108,-0.00001877,-0.00061638
 ,-0.00005544,-0.00002167,-0.00062516,0.00013606,0.00058267,-0.00000103
 ,-0.00108974,0.00007821,-0.00018001,0.00033642,-0.00020288,0.21783431,
 0.01744568,-0.14673333,-0.22020601,-0.01997247,0.14482421\\-0.00000124
 ,-0.00000128,-0.00000351,-0.00000769,0.00000007,-0.00000952,-0.0000027
 2,0.00000737,0.00000380,0.00000312,-0.00000326,0.00000053,0.00000887,-
 0.00000441,0.00000716,-0.00000060,-0.00000347,-0.00000390,0.00000435,-
 0.00001182,-0.00000408,-0.00000012,0.00001135,0.00000988,-0.00000873,0
 .00001184,-0.00000105,0.00000310,-0.00000294,0.00000152,0.00000167,-0.
 00000347,-0.00000084\\\@
 The archive entry for this job was punched.


 LET US LEARN TO DREAM, GENTLEMEN, THEN PERHAPS WE SHALL
 DISCOVER THE TRUTH;  BUT LET US BEWARE OF PUBLISHING
 OUR DREAMS ABROAD BEFORE THEY HAVE BEEN SCRUTINIZED
 BY OUR VIGILANT INTELLECT ... LET US ALWAYS ALLOW
 THE FRUIT TO HANG UNTIL IT IS RIPE.  UNRIPE FRUIT
 BRINGS EVEN THE GROWER BUT LITTLE PROFIT; IT DAMAGES
 THE HEALTH OF THOSE WHO CONSUME IT; IT ENDANGERS
 PARTICULARLY THE YOUTH WHO CANNOT YET DISTINGUISH
 BETWEEN RIPE AND UNRIPE FRUIT.

                                  -- KEKULE, 1890
 Job cpu time:       0 days  0 hours 58 minutes 33.9 seconds.
 Elapsed time:       0 days  0 hours  8 minutes  9.6 seconds.
 File lengths (MBytes):  RWF=    119 Int=      0 D2E=      0 Chk=      9 Scr=      1
 Normal termination of Gaussian 16 at Sat May 24 05:35:05 2025.
done
