 Entering Gaussian System, Link 0=g16
 Initial command:
 /apps/easybuild-2022/easybuild/software/Compiler/NVHPC/22.11-CUDA-11.7.0/Gaussian/g16c01-CUDA-11.7.0/g16/l1.exe "/tmp/Gau-256351.inp" -scrdir="/tmp/"
 Entering Link 1 = /apps/easybuild-2022/easybuild/software/Compiler/NVHPC/22.11-CUDA-11.7.0/Gaussian/g16c01-CUDA-11.7.0/g16/l1.exe PID=    256353.
  
 Copyright (c) 1988-2019, Gaussian, Inc.  All Rights Reserved.
  
 This is part of the Gaussian(R) 16 program.  It is based on
 the Gaussian(R) 09 system (copyright 2009, Gaussian, Inc.),
 the Gaussian(R) 03 system (copyright 2003, Gaussian, Inc.),
 the Gaussian(R) 98 system (copyright 1998, Gaussian, Inc.),
 the Gaussian(R) 94 system (copyright 1995, Gaussian, Inc.),
 the Gaussian 92(TM) system (copyright 1992, Gaussian, Inc.),
 the Gaussian 90(TM) system (copyright 1990, Gaussian, Inc.),
 the Gaussian 88(TM) system (copyright 1988, Gaussian, Inc.),
 the Gaussian 86(TM) system (copyright 1986, Carnegie Mellon
 University), and the Gaussian 82(TM) system (copyright 1983,
 Carnegie Mellon University). Gaussian is a federally registered
 trademark of Gaussian, Inc.
  
 This software contains proprietary and confidential information,
 including trade secrets, belonging to Gaussian, Inc.
  
 This software is provided under written license and may be
 used, copied, transmitted, or stored only in accord with that
 written license.
  
 The following legend is applicable only to US Government
 contracts under FAR:
  
                    RESTRICTED RIGHTS LEGEND
  
 Use, reproduction and disclosure by the US Government is
 subject to restrictions as set forth in subparagraphs (a)
 and (c) of the Commercial Computer Software - Restricted
 Rights clause in FAR 52.227-19.
  
 Gaussian, Inc.
 340 Quinnipiac St., Bldg. 40, Wallingford CT 06492
  
  
 ---------------------------------------------------------------
 Warning -- This program may not be used in any manner that
 competes with the business of Gaussian, Inc. or will provide
 assistance to any competitor of Gaussian, Inc.  The licensee
 of this program is prohibited from giving any competitor of
 Gaussian, Inc. access to this program.  By using this program,
 the user acknowledges that Gaussian, Inc. is engaged in the
 business of creating and licensing software in the field of
 computational chemistry and represents and warrants to the
 licensee that it is not a competitor of Gaussian, Inc. and that
 it will not use this program in any manner prohibited above.
 ---------------------------------------------------------------
  

 Cite this work as:
 Gaussian 16, Revision C.01,
 M. J. Frisch, G. W. Trucks, H. B. Schlegel, G. E. Scuseria, 
 M. A. Robb, J. R. Cheeseman, G. Scalmani, V. Barone, 
 G. A. Petersson, H. Nakatsuji, X. Li, M. Caricato, A. V. Marenich, 
 J. Bloino, B. G. Janesko, R. Gomperts, B. Mennucci, H. P. Hratchian, 
 J. V. Ortiz, A. F. Izmaylov, J. L. Sonnenberg, D. Williams-Young, 
 F. Ding, F. Lipparini, F. Egidi, J. Goings, B. Peng, A. Petrone, 
 T. Henderson, D. Ranasinghe, V. G. Zakrzewski, J. Gao, N. Rega, 
 G. Zheng, W. Liang, M. Hada, M. Ehara, K. Toyota, R. Fukuda, 
 J. Hasegawa, M. Ishida, T. Nakajima, Y. Honda, O. Kitao, H. Nakai, 
 T. Vreven, K. Throssell, J. A. Montgomery, Jr., J. E. Peralta, 
 F. Ogliaro, M. J. Bearpark, J. J. Heyd, E. N. Brothers, K. N. Kudin, 
 V. N. Staroverov, T. A. Keith, R. Kobayashi, J. Normand, 
 K. Raghavachari, A. P. Rendell, J. C. Burant, S. S. Iyengar, 
 J. Tomasi, M. Cossi, J. M. Millam, M. Klene, C. Adamo, R. Cammi, 
 J. W. Ochterski, R. L. Martin, K. Morokuma, O. Farkas, 
 J. B. Foresman, and D. J. Fox, Gaussian, Inc., Wallingford CT, 2019.
 
 ******************************************
 Gaussian 16:  ES64L-G16RevC.01  3-Jul-2019
                24-May-2025 
 ******************************************
 %mem=28GB
 %nprocshared=8
 Will use up to    8 processors via shared memory.
 -----------------------------------------------------------------
 #P M062X/Def2TZVPP Symm(None) scf(xqc) pop(None) freq opt(CalcFC)
 -----------------------------------------------------------------
 1/10=4,18=20,19=15,26=3,38=1/1,3;
 2/9=110,12=2,15=3,17=6,18=5,40=1/2;
 3/5=44,7=202,11=2,25=1,30=1,71=2,74=-55,140=1/1,2,3;
 4//1;
 5/5=2,8=3,13=1,38=5/2,8;
 8/6=4,10=90,11=11/1;
 11/6=1,8=1,9=11,15=111,16=1,31=1/1,2,10;
 10/6=1,13=1,31=1/2;
 7/10=1,25=1,30=1/1,2,3,16;
 1/10=4,18=20,19=15,26=3/3(2);
 2/9=110,15=3/2;
 99//99;
 2/9=110,15=3/2;
 3/5=44,7=202,11=2,25=1,30=1,71=1,74=-55/1,2,3;
 4/5=5,16=3,69=1/1;
 5/5=2,8=3,13=1,38=5/2,8;
 7/30=1/1,2,3,16;
 1/18=20,19=15,26=3/3(-5);
 2/9=110,15=3/2;
 99/9=1/99;
 Leave Link    1 at Sat May 24 06:29:41 2025, MaxMem=  3758096384 cpu:               0.0 elap:               0.0
 (Enter /apps/easybuild-2022/easybuild/software/Compiler/NVHPC/22.11-CUDA-11.7.0/Gaussian/g16c01-CUDA-11.7.0/g16/l101.exe)
 ------------------------------
 Gaussian input prepared by ASE
 ------------------------------
 Symbolic Z-matrix:
 Charge =  0 Multiplicity = 1
 C                     1.34684   0.        0. 
 O                     0.        0.        0. 
 C                     1.9968   -1.15946  -0.08556 
 C                     1.43195  -2.55006   0.0354 
 F                     1.39628  -3.15125  -1.15679 
 F                     2.22716  -3.27692   0.82069 
 F                     0.21139  -2.57068   0.54713 
 F                    -0.39638  -1.36618  -0.15459 
 F                     3.29903  -1.16609  -0.33495 
 O                     1.97554   1.17671   0. 
 H                     1.34431   1.87737  -0.20039 
 
 ITRead=  0  0  0  0  0  0  0  0  0  0  0
 MicOpt= -1 -1 -1 -1 -1 -1 -1 -1 -1 -1 -1
 NAtoms=     11 NQM=       11 NQMF=       0 NMMI=      0 NMMIF=      0
                NMic=       0 NMicF=      0.
                    Isotopes and Nuclear Properties:
 (Nuclear quadrupole moments (NQMom) in fm**2, nuclear magnetic moments (NMagM)
  in nuclear magnetons)

  Atom         1           2           3           4           5           6           7           8           9          10
 IAtWgt=          12          16          12          12          19          19          19          19          19          16
 AtmWgt=  12.0000000  15.9949146  12.0000000  12.0000000  18.9984032  18.9984032  18.9984032  18.9984032  18.9984032  15.9949146
 NucSpn=           0           0           0           0           1           1           1           1           1           0
 AtZEff=  -0.0000000  -0.0000000  -0.0000000  -0.0000000  -0.0000000  -0.0000000  -0.0000000  -0.0000000  -0.0000000  -0.0000000
 NQMom=    0.0000000   0.0000000   0.0000000   0.0000000   0.0000000   0.0000000   0.0000000   0.0000000   0.0000000   0.0000000
 NMagM=    0.0000000   0.0000000   0.0000000   0.0000000   2.6288670   2.6288670   2.6288670   2.6288670   2.6288670   0.0000000
 AtZNuc=   6.0000000   8.0000000   6.0000000   6.0000000   9.0000000   9.0000000   9.0000000   9.0000000   9.0000000   8.0000000

  Atom        11
 IAtWgt=           1
 AtmWgt=   1.0078250
 NucSpn=           1
 AtZEff=  -0.0000000
 NQMom=    0.0000000
 NMagM=    2.7928460
 AtZNuc=   1.0000000
 Leave Link  101 at Sat May 24 06:29:41 2025, MaxMem=  3758096384 cpu:               0.2 elap:               0.2
 (Enter /apps/easybuild-2022/easybuild/software/Compiler/NVHPC/22.11-CUDA-11.7.0/Gaussian/g16c01-CUDA-11.7.0/g16/l103.exe)

 GradGradGradGradGradGradGradGradGradGradGradGradGradGradGradGradGradGrad
 Berny optimization.
 Initialization pass.
                           ----------------------------
                           !    Initial Parameters    !
                           ! (Angstroms and Degrees)  !
 --------------------------                            --------------------------
 ! Name  Definition              Value          Derivative Info.                !
 --------------------------------------------------------------------------------
 ! R1    R(1,2)                  1.3468         calculate D2E/DX2 analytically  !
 ! R2    R(1,3)                  1.332          calculate D2E/DX2 analytically  !
 ! R3    R(1,10)                 1.3341         calculate D2E/DX2 analytically  !
 ! R4    R(2,8)                  1.4309         calculate D2E/DX2 analytically  !
 ! R5    R(3,4)                  1.5058         calculate D2E/DX2 analytically  !
 ! R6    R(3,9)                  1.3259         calculate D2E/DX2 analytically  !
 ! R7    R(4,5)                  1.3357         calculate D2E/DX2 analytically  !
 ! R8    R(4,6)                  1.3332         calculate D2E/DX2 analytically  !
 ! R9    R(4,7)                  1.3237         calculate D2E/DX2 analytically  !
 ! R10   R(7,8)                  1.5207         calculate D2E/DX2 analytically  !
 ! R11   R(10,11)                0.9641         calculate D2E/DX2 analytically  !
 ! A1    A(2,1,3)              119.2075         calculate D2E/DX2 analytically  !
 ! A2    A(2,1,10)             118.115          calculate D2E/DX2 analytically  !
 ! A3    A(3,1,10)             122.5355         calculate D2E/DX2 analytically  !
 ! A4    A(1,2,8)              106.0823         calculate D2E/DX2 analytically  !
 ! A5    A(1,3,4)              128.0019         calculate D2E/DX2 analytically  !
 ! A6    A(1,3,9)              119.7157         calculate D2E/DX2 analytically  !
 ! A7    A(4,3,9)              112.2655         calculate D2E/DX2 analytically  !
 ! A8    A(3,4,5)              110.7316         calculate D2E/DX2 analytically  !
 ! A9    A(3,4,6)              109.0907         calculate D2E/DX2 analytically  !
 ! A10   A(3,4,7)              113.0377         calculate D2E/DX2 analytically  !
 ! A11   A(5,4,6)              107.2352         calculate D2E/DX2 analytically  !
 ! A12   A(5,4,7)              108.266          calculate D2E/DX2 analytically  !
 ! A13   A(6,4,7)              108.2885         calculate D2E/DX2 analytically  !
 ! A14   A(4,7,8)              100.2417         calculate D2E/DX2 analytically  !
 ! A15   A(2,8,7)              126.5605         calculate D2E/DX2 analytically  !
 ! A16   A(1,10,11)            109.4176         calculate D2E/DX2 analytically  !
 ! D1    D(3,1,2,8)             -2.2354         calculate D2E/DX2 analytically  !
 ! D2    D(10,1,2,8)           173.5443         calculate D2E/DX2 analytically  !
 ! D3    D(2,1,3,4)            -10.8306         calculate D2E/DX2 analytically  !
 ! D4    D(2,1,3,9)            167.5518         calculate D2E/DX2 analytically  !
 ! D5    D(10,1,3,4)           173.585          calculate D2E/DX2 analytically  !
 ! D6    D(10,1,3,9)            -8.0326         calculate D2E/DX2 analytically  !
 ! D7    D(2,1,10,11)          -12.7313         calculate D2E/DX2 analytically  !
 ! D8    D(3,1,10,11)          162.899          calculate D2E/DX2 analytically  !
 ! D9    D(1,2,8,7)             42.9766         calculate D2E/DX2 analytically  !
 ! D10   D(1,3,4,5)            107.2192         calculate D2E/DX2 analytically  !
 ! D11   D(1,3,4,6)           -134.99           calculate D2E/DX2 analytically  !
 ! D12   D(1,3,4,7)            -14.4578         calculate D2E/DX2 analytically  !
 ! D13   D(9,3,4,5)            -71.2627         calculate D2E/DX2 analytically  !
 ! D14   D(9,3,4,6)             46.5281         calculate D2E/DX2 analytically  !
 ! D15   D(9,3,4,7)            167.0603         calculate D2E/DX2 analytically  !
 ! D16   D(3,4,7,8)             40.5413         calculate D2E/DX2 analytically  !
 ! D17   D(5,4,7,8)            -82.5133         calculate D2E/DX2 analytically  !
 ! D18   D(6,4,7,8)            161.5295         calculate D2E/DX2 analytically  !
 ! D19   D(4,7,8,2)            -64.9671         calculate D2E/DX2 analytically  !
 --------------------------------------------------------------------------------
 Trust Radius=3.00D-01 FncErr=1.00D-07 GrdErr=1.00D-06 EigMax=2.50D+02 EigMin=1.00D-04
 Number of steps in this run=     56 maximum allowed number of steps=    100.
 GradGradGradGradGradGradGradGradGradGradGradGradGradGradGradGradGradGrad

 Leave Link  103 at Sat May 24 06:29:41 2025, MaxMem=  3758096384 cpu:               0.0 elap:               0.0
 (Enter /apps/easybuild-2022/easybuild/software/Compiler/NVHPC/22.11-CUDA-11.7.0/Gaussian/g16c01-CUDA-11.7.0/g16/l202.exe)
                          Input orientation:                          
 ---------------------------------------------------------------------
 Center     Atomic      Atomic             Coordinates (Angstroms)
 Number     Number       Type             X           Y           Z
 ---------------------------------------------------------------------
      1          6           0        1.346841    0.000000    0.000000
      2          8           0        0.000000    0.000000    0.000000
      3          6           0        1.996801   -1.159457   -0.085557
      4          6           0        1.431954   -2.550061    0.035396
      5          9           0        1.396277   -3.151250   -1.156791
      6          9           0        2.227164   -3.276921    0.820691
      7          9           0        0.211387   -2.570682    0.547125
      8          9           0       -0.396384   -1.366178   -0.154586
      9          9           0        3.299031   -1.166093   -0.334947
     10          8           0        1.975539    1.176707    0.000000
     11          1           0        1.344307    1.877370   -0.200388
 ---------------------------------------------------------------------
                    Distance matrix (angstroms):
                    1          2          3          4          5
     1  C    0.000000
     2  O    1.346841   0.000000
     3  C    1.331957   2.310601   0.000000
     4  C    2.551726   2.924817   1.505809   0.000000
     5  F    3.357229   3.635675   2.339959   1.335669   0.000000
     6  F    3.490948   4.046234   2.314737   1.333181   2.148628
     7  F    2.863042   2.636747   2.362107   1.323661   2.155077
     8  F    2.220174   1.430894   2.403089   2.186434   2.721127
     9  F    2.298479   3.515048   1.325911   2.353400   2.869973
    10  O    1.334129   2.299434   2.337827   3.766369   4.517180
    11  H    1.888036   2.317722   3.108256   4.434571   5.119026
                    6          7          8          9         10
     6  F    0.000000
     7  F    2.153363   0.000000
     8  F    3.388969   1.520728   0.000000
     9  F    2.634386   3.504920   3.705220   0.000000
    10  O    4.535599   4.177859   3.480830   2.711555   0.000000
    11  H    5.328111   4.650532   3.681400   3.619630   0.964126
                   11
    11  H    0.000000
 Symmetry turned off by external request.
 Stoichiometry    C3HF5O2
 Rotational constants (GHZ):           1.9740890           1.3097062           0.9188884
 Leave Link  202 at Sat May 24 06:29:41 2025, MaxMem=  3758096384 cpu:               0.0 elap:               0.0
 (Enter /apps/easybuild-2022/easybuild/software/Compiler/NVHPC/22.11-CUDA-11.7.0/Gaussian/g16c01-CUDA-11.7.0/g16/l301.exe)
 Standard basis: def2TZVPP (5D, 7F)
 Ernie: Thresh=  0.10000D-02 Tol=  0.10000D-05 Strict=F.
   324 basis functions,   527 primitive gaussians,   375 cartesian basis functions
    40 alpha electrons       40 beta electrons
       nuclear repulsion energy       645.2324722350 Hartrees.
 IExCor= 4336 DFT=T Ex+Corr=M062X ExCW=0 ScaHFX=  0.540000
 ScaDFX=  1.000000  1.000000  1.000000  1.000000 ScalE2=  1.000000  1.000000
 IRadAn=      5 IRanWt=     -1 IRanGd=            0 ICorTp=0 IEmpDi=  4
 NAtoms=   11 NActive=   11 NUniq=   11 SFac= 1.00D+00 NAtFMM=   60 NAOKFM=F Big=F
 Integral buffers will be    131072 words long.
 Raffenetti 2 integral format.
 Two-electron integral symmetry is turned off.
 Leave Link  301 at Sat May 24 06:29:41 2025, MaxMem=  3758096384 cpu:               0.0 elap:               0.0
 (Enter /apps/easybuild-2022/easybuild/software/Compiler/NVHPC/22.11-CUDA-11.7.0/Gaussian/g16c01-CUDA-11.7.0/g16/l302.exe)
 NPDir=0 NMtPBC=     1 NCelOv=     1 NCel=       1 NClECP=     1 NCelD=      1
         NCelK=      1 NCelE2=     1 NClLst=     1 CellRange=     0.0.
 One-electron integrals computed using PRISM.
   1 Symmetry operations used in ECPInt.
 ECPInt:  NShTT=    6786 NPrTT=   21959 LenC2=    6430 LenP2D=   15876.
 LDataN:  DoStor=T MaxTD1= 6 Len=  172
 NBasis=   324 RedAO= T EigKep=  8.22D-05  NBF=   324
 NBsUse=   324 1.00D-06 EigRej= -1.00D+00 NBFU=   324
 Precomputing XC quadrature grid using
 IXCGrd= 4 IRadAn=           5 IRanWt=          -1 IRanGd=           0 AccXCQ= 0.00D+00.
 Generated NRdTot=       0 NPtTot=           0 NUsed=           0 NTot=          32
 NSgBfM=   374   374   374   374   374 MxSgAt=    11 MxSgA2=    11.
 Leave Link  302 at Sat May 24 06:29:41 2025, MaxMem=  3758096384 cpu:               0.6 elap:               0.1
 (Enter /apps/easybuild-2022/easybuild/software/Compiler/NVHPC/22.11-CUDA-11.7.0/Gaussian/g16c01-CUDA-11.7.0/g16/l303.exe)
 DipDrv:  MaxL=1.
 Leave Link  303 at Sat May 24 06:29:41 2025, MaxMem=  3758096384 cpu:               0.1 elap:               0.0
 (Enter /apps/easybuild-2022/easybuild/software/Compiler/NVHPC/22.11-CUDA-11.7.0/Gaussian/g16c01-CUDA-11.7.0/g16/l401.exe)
 ExpMin= 9.52D-02 ExpMax= 3.55D+04 ExpMxC= 1.21D+03 IAcc=3 IRadAn=         5 AccDes= 0.00D+00
 Harris functional with IExCor= 1009 and IRadAn=       5 diagonalized for initial guess.
 HarFok:  IExCor= 1009 AccDes= 0.00D+00 IRadAn=         5 IDoV= 1 UseB2=F ITyADJ=14
 ICtDFT=  3500011 ScaDFX=  1.000000  1.000000  1.000000  1.000000
 FoFCou: FMM=F IPFlag=           0 FMFlag=      100000 FMFlg1=           0
         NFxFlg=           0 DoJE=T BraDBF=F KetDBF=T FulRan=T
         wScrn=  0.000000 ICntrl=       500 IOpCl=  0 I1Cent=   200000004 NGrid=           0
         NMat0=    1 NMatS0=      1 NMatT0=    0 NMatD0=    1 NMtDS0=    0 NMtDT0=    0
 Symmetry not used in FoFCou.
 Harris En= -763.864143455778    
 JPrj=0 DoOrth=F DoCkMO=F.
 Leave Link  401 at Sat May 24 06:29:42 2025, MaxMem=  3758096384 cpu:               3.3 elap:               0.5
 (Enter /apps/easybuild-2022/easybuild/software/Compiler/NVHPC/22.11-CUDA-11.7.0/Gaussian/g16c01-CUDA-11.7.0/g16/l502.exe)
 Keep R1 ints in memory in canonical form, NReq=1412617130.
 FoFCou: FMM=F IPFlag=           0 FMFlag=           0 FMFlg1=           0
         NFxFlg=           0 DoJE=F BraDBF=F KetDBF=F FulRan=T
         wScrn=  0.000000 ICntrl=       600 IOpCl=  0 I1Cent=           0 NGrid=           0
         NMat0=    1 NMatS0=  52650 NMatT0=    0 NMatD0=    1 NMtDS0=    0 NMtDT0=    0
 Symmetry not used in FoFCou.
 Two-electron integral symmetry not used.
 Closed shell SCF:
 Using DIIS extrapolation, IDIIS=  1040.
 NGot=  3758096384 LenX=  2371771924 LenY=  2371630858
 Requested convergence on RMS density matrix=1.00D-08 within  32 cycles.
 Requested convergence on MAX density matrix=1.00D-06.
 Requested convergence on             energy=1.00D-06.
 No special actions if energy rises.
 Integral accuracy reduced to 1.0D-05 until final iterations.

 Cycle   1  Pass 0  IDiag  1:
 E= -764.189366055764    
 DIIS: error= 1.68D-02 at cycle   1 NSaved=   1.
 NSaved= 1 IEnMin= 1 EnMin= -764.189366055764     IErMin= 1 ErrMin= 1.68D-02
 ErrMax= 1.68D-02  0.00D+00 EMaxC= 1.00D-01 BMatC= 2.63D-01 BMatP= 2.63D-01
 IDIUse=3 WtCom= 8.32D-01 WtEn= 1.68D-01
 Coeff-Com:  0.100D+01
 Coeff-En:   0.100D+01
 Coeff:      0.100D+01
 Gap=     0.274 Goal=   None    Shift=    0.000
 GapD=    0.274 DampG=1.000 DampE=0.500 DampFc=0.5000 IDamp=-1.
 Damping current iteration by 5.00D-01
 RMSDP=2.30D-03 MaxDP=1.35D-01              OVMax= 9.01D-02

 Cycle   2  Pass 0  IDiag  1:
 E= -764.246450506747     Delta-E=       -0.057084450983 Rises=F Damp=T
 DIIS: error= 6.14D-03 at cycle   2 NSaved=   2.
 NSaved= 2 IEnMin= 2 EnMin= -764.246450506747     IErMin= 2 ErrMin= 6.14D-03
 ErrMax= 6.14D-03  0.00D+00 EMaxC= 1.00D-01 BMatC= 3.31D-02 BMatP= 2.63D-01
 IDIUse=3 WtCom= 9.39D-01 WtEn= 6.14D-02
 Coeff-Com: -0.130D+00 0.113D+01
 Coeff-En:   0.000D+00 0.100D+01
 Coeff:     -0.122D+00 0.112D+01
 Gap=     0.294 Goal=   None    Shift=    0.000
 RMSDP=8.42D-04 MaxDP=6.06D-02 DE=-5.71D-02 OVMax= 4.98D-02

 Cycle   3  Pass 0  IDiag  1:
 E= -764.303824534556     Delta-E=       -0.057374027809 Rises=F Damp=F
 DIIS: error= 3.85D-03 at cycle   3 NSaved=   3.
 NSaved= 3 IEnMin= 3 EnMin= -764.303824534556     IErMin= 3 ErrMin= 3.85D-03
 ErrMax= 3.85D-03  0.00D+00 EMaxC= 1.00D-01 BMatC= 1.05D-02 BMatP= 3.31D-02
 IDIUse=3 WtCom= 9.62D-01 WtEn= 3.85D-02
 Coeff-Com: -0.169D+00 0.416D+00 0.753D+00
 Coeff-En:   0.000D+00 0.000D+00 0.100D+01
 Coeff:     -0.163D+00 0.400D+00 0.763D+00
 Gap=     0.288 Goal=   None    Shift=    0.000
 RMSDP=2.69D-04 MaxDP=9.90D-03 DE=-5.74D-02 OVMax= 1.74D-02

 Cycle   4  Pass 0  IDiag  1:
 E= -764.309837165152     Delta-E=       -0.006012630595 Rises=F Damp=F
 DIIS: error= 1.63D-03 at cycle   4 NSaved=   4.
 NSaved= 4 IEnMin= 4 EnMin= -764.309837165152     IErMin= 4 ErrMin= 1.63D-03
 ErrMax= 1.63D-03  0.00D+00 EMaxC= 1.00D-01 BMatC= 8.97D-04 BMatP= 1.05D-02
 IDIUse=3 WtCom= 9.84D-01 WtEn= 1.63D-02
 Coeff-Com: -0.649D-01 0.129D+00 0.341D+00 0.595D+00
 Coeff-En:   0.000D+00 0.000D+00 0.000D+00 0.100D+01
 Coeff:     -0.639D-01 0.127D+00 0.335D+00 0.601D+00
 Gap=     0.284 Goal=   None    Shift=    0.000
 RMSDP=7.93D-05 MaxDP=4.14D-03 DE=-6.01D-03 OVMax= 9.72D-03

 Cycle   5  Pass 0  IDiag  1:
 E= -764.310534125446     Delta-E=       -0.000696960295 Rises=F Damp=F
 DIIS: error= 2.86D-04 at cycle   5 NSaved=   5.
 NSaved= 5 IEnMin= 5 EnMin= -764.310534125446     IErMin= 5 ErrMin= 2.86D-04
 ErrMax= 2.86D-04  0.00D+00 EMaxC= 1.00D-01 BMatC= 5.04D-05 BMatP= 8.97D-04
 IDIUse=3 WtCom= 9.97D-01 WtEn= 2.86D-03
 Coeff-Com: -0.154D-01 0.256D-01 0.807D-01 0.240D+00 0.669D+00
 Coeff-En:   0.000D+00 0.000D+00 0.000D+00 0.000D+00 0.100D+01
 Coeff:     -0.153D-01 0.255D-01 0.805D-01 0.239D+00 0.670D+00
 Gap=     0.285 Goal=   None    Shift=    0.000
 RMSDP=1.94D-05 MaxDP=5.19D-04 DE=-6.97D-04 OVMax= 2.05D-03

 Cycle   6  Pass 0  IDiag  1:
 E= -764.310576880001     Delta-E=       -0.000042754555 Rises=F Damp=F
 DIIS: error= 6.49D-05 at cycle   6 NSaved=   6.
 NSaved= 6 IEnMin= 6 EnMin= -764.310576880001     IErMin= 6 ErrMin= 6.49D-05
 ErrMax= 6.49D-05  0.00D+00 EMaxC= 1.00D-01 BMatC= 4.68D-06 BMatP= 5.04D-05
 IDIUse=1 WtCom= 1.00D+00 WtEn= 0.00D+00
 Coeff-Com:  0.321D-02-0.799D-02-0.206D-01 0.106D-02 0.148D+00 0.877D+00
 Coeff:      0.321D-02-0.799D-02-0.206D-01 0.106D-02 0.148D+00 0.877D+00
 Gap=     0.285 Goal=   None    Shift=    0.000
 RMSDP=1.35D-05 MaxDP=4.28D-04 DE=-4.28D-05 OVMax= 2.26D-03

 Cycle   7  Pass 0  IDiag  1:
 E= -764.310586096066     Delta-E=       -0.000009216064 Rises=F Damp=F
 DIIS: error= 3.74D-05 at cycle   7 NSaved=   7.
 NSaved= 7 IEnMin= 7 EnMin= -764.310586096066     IErMin= 7 ErrMin= 3.74D-05
 ErrMax= 3.74D-05  0.00D+00 EMaxC= 1.00D-01 BMatC= 2.17D-06 BMatP= 4.68D-06
 IDIUse=1 WtCom= 1.00D+00 WtEn= 0.00D+00
 Coeff-Com:  0.423D-02-0.810D-02-0.245D-01-0.461D-01-0.111D+00 0.400D+00
 Coeff-Com:  0.786D+00
 Coeff:      0.423D-02-0.810D-02-0.245D-01-0.461D-01-0.111D+00 0.400D+00
 Coeff:      0.786D+00
 Gap=     0.285 Goal=   None    Shift=    0.000
 RMSDP=6.84D-06 MaxDP=2.21D-04 DE=-9.22D-06 OVMax= 1.03D-03

 Initial convergence to 1.0D-05 achieved.  Increase integral accuracy.
 Cycle   8  Pass 1  IDiag  1:
 E= -764.310620830033     Delta-E=       -0.000034733967 Rises=F Damp=F
 DIIS: error= 2.65D-05 at cycle   1 NSaved=   1.
 NSaved= 1 IEnMin= 1 EnMin= -764.310620830033     IErMin= 1 ErrMin= 2.65D-05
 ErrMax= 2.65D-05  0.00D+00 EMaxC= 1.00D-01 BMatC= 9.40D-07 BMatP= 9.40D-07
 IDIUse=1 WtCom= 1.00D+00 WtEn= 0.00D+00
 Coeff-Com:  0.100D+01
 Coeff:      0.100D+01
 Gap=     0.285 Goal=   None    Shift=    0.000
 RMSDP=6.84D-06 MaxDP=2.21D-04 DE=-3.47D-05 OVMax= 8.37D-04

 Cycle   9  Pass 1  IDiag  1:
 E= -764.310621080238     Delta-E=       -0.000000250205 Rises=F Damp=F
 DIIS: error= 3.90D-05 at cycle   2 NSaved=   2.
 NSaved= 2 IEnMin= 2 EnMin= -764.310621080238     IErMin= 1 ErrMin= 2.65D-05
 ErrMax= 3.90D-05  0.00D+00 EMaxC= 1.00D-01 BMatC= 1.45D-06 BMatP= 9.40D-07
 IDIUse=1 WtCom= 1.00D+00 WtEn= 0.00D+00
 Coeff-Com:  0.568D+00 0.432D+00
 Coeff:      0.568D+00 0.432D+00
 Gap=     0.285 Goal=   None    Shift=    0.000
 RMSDP=2.46D-06 MaxDP=1.14D-04 DE=-2.50D-07 OVMax= 2.80D-04

 Cycle  10  Pass 1  IDiag  1:
 E= -764.310622001874     Delta-E=       -0.000000921636 Rises=F Damp=F
 DIIS: error= 1.01D-05 at cycle   3 NSaved=   3.
 NSaved= 3 IEnMin= 3 EnMin= -764.310622001874     IErMin= 3 ErrMin= 1.01D-05
 ErrMax= 1.01D-05  0.00D+00 EMaxC= 1.00D-01 BMatC= 7.21D-08 BMatP= 9.40D-07
 IDIUse=1 WtCom= 1.00D+00 WtEn= 0.00D+00
 Coeff-Com: -0.338D-01 0.133D+00 0.901D+00
 Coeff:     -0.338D-01 0.133D+00 0.901D+00
 Gap=     0.285 Goal=   None    Shift=    0.000
 RMSDP=1.76D-06 MaxDP=7.59D-05 DE=-9.22D-07 OVMax= 2.79D-04

 Cycle  11  Pass 1  IDiag  1:
 E= -764.310622128422     Delta-E=       -0.000000126548 Rises=F Damp=F
 DIIS: error= 4.20D-06 at cycle   4 NSaved=   4.
 NSaved= 4 IEnMin= 4 EnMin= -764.310622128422     IErMin= 4 ErrMin= 4.20D-06
 ErrMax= 4.20D-06  0.00D+00 EMaxC= 1.00D-01 BMatC= 2.81D-08 BMatP= 7.21D-08
 IDIUse=1 WtCom= 1.00D+00 WtEn= 0.00D+00
 Coeff-Com: -0.785D-01-0.126D-01 0.432D+00 0.659D+00
 Coeff:     -0.785D-01-0.126D-01 0.432D+00 0.659D+00
 Gap=     0.285 Goal=   None    Shift=    0.000
 RMSDP=5.98D-07 MaxDP=1.89D-05 DE=-1.27D-07 OVMax= 9.87D-05

 Cycle  12  Pass 1  IDiag  1:
 E= -764.310622164905     Delta-E=       -0.000000036483 Rises=F Damp=F
 DIIS: error= 1.81D-06 at cycle   5 NSaved=   5.
 NSaved= 5 IEnMin= 5 EnMin= -764.310622164905     IErMin= 5 ErrMin= 1.81D-06
 ErrMax= 1.81D-06  0.00D+00 EMaxC= 1.00D-01 BMatC= 4.55D-09 BMatP= 2.81D-08
 IDIUse=1 WtCom= 1.00D+00 WtEn= 0.00D+00
 Coeff-Com:  0.884D-02-0.844D-01-0.275D+00-0.223D-02 0.135D+01
 Coeff:      0.884D-02-0.844D-01-0.275D+00-0.223D-02 0.135D+01
 Gap=     0.285 Goal=   None    Shift=    0.000
 RMSDP=7.17D-07 MaxDP=2.58D-05 DE=-3.65D-08 OVMax= 1.36D-04

 Cycle  13  Pass 1  IDiag  1:
 E= -764.310622181788     Delta-E=       -0.000000016883 Rises=F Damp=F
 DIIS: error= 7.01D-07 at cycle   6 NSaved=   6.
 NSaved= 6 IEnMin= 6 EnMin= -764.310622181788     IErMin= 6 ErrMin= 7.01D-07
 ErrMax= 7.01D-07  0.00D+00 EMaxC= 1.00D-01 BMatC= 4.83D-10 BMatP= 4.55D-09
 IDIUse=1 WtCom= 1.00D+00 WtEn= 0.00D+00
 Coeff-Com:  0.111D-01-0.343D-01-0.149D+00-0.663D-01 0.528D+00 0.710D+00
 Coeff:      0.111D-01-0.343D-01-0.149D+00-0.663D-01 0.528D+00 0.710D+00
 Gap=     0.285 Goal=   None    Shift=    0.000
 RMSDP=1.48D-07 MaxDP=4.54D-06 DE=-1.69D-08 OVMax= 2.19D-05

 Cycle  14  Pass 1  IDiag  1:
 E= -764.310622182502     Delta-E=       -0.000000000714 Rises=F Damp=F
 DIIS: error= 2.46D-07 at cycle   7 NSaved=   7.
 NSaved= 7 IEnMin= 7 EnMin= -764.310622182502     IErMin= 7 ErrMin= 2.46D-07
 ErrMax= 2.46D-07  0.00D+00 EMaxC= 1.00D-01 BMatC= 5.58D-11 BMatP= 4.83D-10
 IDIUse=1 WtCom= 1.00D+00 WtEn= 0.00D+00
 Coeff-Com:  0.276D-02-0.276D-02-0.224D-01-0.187D-01 0.321D-01 0.254D+00
 Coeff-Com:  0.755D+00
 Coeff:      0.276D-02-0.276D-02-0.224D-01-0.187D-01 0.321D-01 0.254D+00
 Coeff:      0.755D+00
 Gap=     0.285 Goal=   None    Shift=    0.000
 RMSDP=4.46D-08 MaxDP=1.97D-06 DE=-7.14D-10 OVMax= 4.88D-06

 Cycle  15  Pass 1  IDiag  1:
 E= -764.310622182611     Delta-E=       -0.000000000109 Rises=F Damp=F
 DIIS: error= 1.10D-07 at cycle   8 NSaved=   8.
 NSaved= 8 IEnMin= 8 EnMin= -764.310622182611     IErMin= 8 ErrMin= 1.10D-07
 ErrMax= 1.10D-07  0.00D+00 EMaxC= 1.00D-01 BMatC= 1.13D-11 BMatP= 5.58D-11
 IDIUse=1 WtCom= 1.00D+00 WtEn= 0.00D+00
 Coeff-Com: -0.109D-02 0.618D-02 0.212D-01 0.663D-02-0.996D-01-0.320D-01
 Coeff-Com:  0.312D+00 0.787D+00
 Coeff:     -0.109D-02 0.618D-02 0.212D-01 0.663D-02-0.996D-01-0.320D-01
 Coeff:      0.312D+00 0.787D+00
 Gap=     0.285 Goal=   None    Shift=    0.000
 RMSDP=2.47D-08 MaxDP=1.49D-06 DE=-1.09D-10 OVMax= 2.85D-06

 Cycle  16  Pass 1  IDiag  1:
 E= -764.310622182624     Delta-E=       -0.000000000013 Rises=F Damp=F
 DIIS: error= 2.57D-08 at cycle   9 NSaved=   9.
 NSaved= 9 IEnMin= 9 EnMin= -764.310622182624     IErMin= 9 ErrMin= 2.57D-08
 ErrMax= 2.57D-08  0.00D+00 EMaxC= 1.00D-01 BMatC= 6.16D-13 BMatP= 1.13D-11
 IDIUse=1 WtCom= 1.00D+00 WtEn= 0.00D+00
 Coeff-Com: -0.197D-03 0.210D-04 0.761D-03 0.161D-02 0.192D-02-0.212D-01
 Coeff-Com: -0.918D-01-0.548D-01 0.116D+01
 Coeff:     -0.197D-03 0.210D-04 0.761D-03 0.161D-02 0.192D-02-0.212D-01
 Coeff:     -0.918D-01-0.548D-01 0.116D+01
 Gap=     0.285 Goal=   None    Shift=    0.000
 RMSDP=7.77D-09 MaxDP=3.01D-07 DE=-1.30D-11 OVMax= 1.42D-06

 SCF Done:  E(RM062X) =  -764.310622183     A.U. after   16 cycles
            NFock= 16  Conv=0.78D-08     -V/T= 2.0022
 KE= 7.626438350518D+02 PE=-3.104019809543D+03 EE= 9.318328800733D+02
 Leave Link  502 at Sat May 24 06:30:12 2025, MaxMem=  3758096384 cpu:             125.9 elap:              29.8
 (Enter /apps/easybuild-2022/easybuild/software/Compiler/NVHPC/22.11-CUDA-11.7.0/Gaussian/g16c01-CUDA-11.7.0/g16/l508.exe)
 QCSCF skips out because SCF is already converged.
 Leave Link  508 at Sat May 24 06:30:12 2025, MaxMem=  3758096384 cpu:               0.0 elap:               0.0
 (Enter /apps/easybuild-2022/easybuild/software/Compiler/NVHPC/22.11-CUDA-11.7.0/Gaussian/g16c01-CUDA-11.7.0/g16/l801.exe)
 DoSCS=F DFT=T ScalE2(SS,OS)=  1.000000  1.000000
 Range of M.O.s used for correlation:     1   324
 NBasis=   324 NAE=    40 NBE=    40 NFC=     0 NFV=     0
 NROrb=    324 NOA=    40 NOB=    40 NVA=   284 NVB=   284

 **** Warning!!: The largest alpha MO coefficient is  0.19233834D+02

 Leave Link  801 at Sat May 24 06:30:12 2025, MaxMem=  3758096384 cpu:               0.0 elap:               0.0
 (Enter /apps/easybuild-2022/easybuild/software/Compiler/NVHPC/22.11-CUDA-11.7.0/Gaussian/g16c01-CUDA-11.7.0/g16/l1101.exe)
 Using compressed storage, NAtomX=    11.
 Will process     12 centers per pass.
   1 Symmetry operations used in ECPInt.
 ECPInt:  NShTT=    6786 NPrTT=   21959 LenC2=    6430 LenP2D=   15876.
 LDataN:  DoStor=T MaxTD1= 7 Len=  274
 Leave Link 1101 at Sat May 24 06:30:12 2025, MaxMem=  3758096384 cpu:               0.9 elap:               0.2
 (Enter /apps/easybuild-2022/easybuild/software/Compiler/NVHPC/22.11-CUDA-11.7.0/Gaussian/g16c01-CUDA-11.7.0/g16/l1102.exe)
 Symmetrizing basis deriv contribution to polar:
 IMax=3 JMax=2 DiffMx= 0.00D+00
 Leave Link 1102 at Sat May 24 06:30:12 2025, MaxMem=  3758096384 cpu:               0.1 elap:               0.0
 (Enter /apps/easybuild-2022/easybuild/software/Compiler/NVHPC/22.11-CUDA-11.7.0/Gaussian/g16c01-CUDA-11.7.0/g16/l1110.exe)
 Forming Gx(P) for the SCF density, NAtomX=    11.
 Integral derivatives from FoFJK, PRISM(SPDF).
 Do as many integral derivatives as possible in FoFJK.
 G2DrvN: MDV=    3758095115.
 G2DrvN: will do    12 centers at a time, making    1 passes.
 Calling FoFCou, ICntrl=  3107 FMM=F I1Cent=   0 AccDes= 0.00D+00.
 FoFJK:  IHMeth= 1 ICntrl=    3107 DoSepK=F KAlg= 0 I1Cent=           0 FoldK=F
 IRaf=         0 NMat=       1 IRICut=       1 DoRegI=T DoRafI=F ISym2E= 0 IDoP0=0 IntGTp=1.
 FoFCou: FMM=F IPFlag=           0 FMFlag=      100000 FMFlg1=           0
         NFxFlg=           0 DoJE=F BraDBF=F KetDBF=F FulRan=T
         wScrn=  0.000000 ICntrl=      3107 IOpCl=  0 I1Cent=           0 NGrid=           0
         NMat0=    1 NMatS0=      1 NMatT0=    0 NMatD0=    1 NMtDS0=    0 NMtDT0=    0
 Symmetry not used in FoFCou.
 End of G2Drv F.D. properties file   721 does not exist.
 End of G2Drv F.D. properties file   722 does not exist.
 End of G2Drv F.D. properties file   788 does not exist.
 Leave Link 1110 at Sat May 24 06:30:54 2025, MaxMem=  3758096384 cpu:             329.3 elap:              41.6
 (Enter /apps/easybuild-2022/easybuild/software/Compiler/NVHPC/22.11-CUDA-11.7.0/Gaussian/g16c01-CUDA-11.7.0/g16/l1002.exe)
 Minotr:  Closed shell wavefunction.
          IDoAtm=11111111111
          Direct CPHF calculation.
          Differentiating once with respect to nuclear coordinates.
          Requested convergence is 1.0D-08 RMS, and 1.0D-07 maximum.
          Secondary convergence is 1.0D-12 RMS, and 1.0D-12 maximum.
          NewPWx=T KeepS1=F KeepF1=F KeepIn=T MapXYZ=F SortEE=F KeepMc=T.
         3307 words used for storage of precomputed grid.
 Keep R1 ints in memory in canonical form, NReq=1412622537.
 FoFCou: FMM=F IPFlag=           0 FMFlag=           0 FMFlg1=           0
         NFxFlg=           0 DoJE=F BraDBF=F KetDBF=F FulRan=T
         wScrn=  0.000000 ICntrl=       600 IOpCl=  0 I1Cent=           0 NGrid=           0
         NMat0=    1 NMatS0=  52650 NMatT0=    0 NMatD0=    1 NMtDS0=    0 NMtDT0=    0
 Symmetry not used in FoFCou.
 Two-electron integral symmetry not used.
          MDV=    3758096384 using IRadAn=       1.
          Solving linear equations simultaneously, MaxMat=       0.
          There are    36 degrees of freedom in the 1st order CPHF.  IDoFFX=6 NUNeed=     0.
     30 vectors produced by pass  0 Test12= 3.16D-14 2.78D-09 XBig12= 1.30D-01 1.41D-01.
 AX will form    30 AO Fock derivatives at one time.
     30 vectors produced by pass  1 Test12= 3.16D-14 2.78D-09 XBig12= 5.44D-02 7.26D-02.
     30 vectors produced by pass  2 Test12= 3.16D-14 2.78D-09 XBig12= 3.25D-03 8.64D-03.
     30 vectors produced by pass  3 Test12= 3.16D-14 2.78D-09 XBig12= 6.90D-05 1.75D-03.
     30 vectors produced by pass  4 Test12= 3.16D-14 2.78D-09 XBig12= 1.11D-06 1.45D-04.
     30 vectors produced by pass  5 Test12= 3.16D-14 2.78D-09 XBig12= 1.42D-08 1.87D-05.
     30 vectors produced by pass  6 Test12= 3.16D-14 2.78D-09 XBig12= 9.17D-11 1.23D-06.
     15 vectors produced by pass  7 Test12= 3.16D-14 2.78D-09 XBig12= 4.49D-13 6.16D-08.
      2 vectors produced by pass  8 Test12= 3.16D-14 2.78D-09 XBig12= 2.31D-15 4.52D-09.
 InvSVY:  IOpt=1 It=  1 EMax= 1.33D-15
 Solved reduced A of dimension   227 with    30 vectors.
 End of Minotr F.D. properties file   721 does not exist.
 End of Minotr F.D. properties file   722 does not exist.
 End of Minotr F.D. properties file   788 does not exist.
 Leave Link 1002 at Sat May 24 06:31:51 2025, MaxMem=  3758096384 cpu:             451.7 elap:              57.6
 (Enter /apps/easybuild-2022/easybuild/software/Compiler/NVHPC/22.11-CUDA-11.7.0/Gaussian/g16c01-CUDA-11.7.0/g16/l701.exe)
 ... and contract with generalized density number  0.
 Compute integral second derivatives.
   1 Symmetry operations used in ECPInt.
 ECPInt:  NShTT=    6786 NPrTT=   21959 LenC2=    6430 LenP2D=   15876.
 LDataN:  DoStor=T MaxTD1= 8 Len=  415
 Leave Link  701 at Sat May 24 06:31:51 2025, MaxMem=  3758096384 cpu:               0.7 elap:               0.1
 (Enter /apps/easybuild-2022/easybuild/software/Compiler/NVHPC/22.11-CUDA-11.7.0/Gaussian/g16c01-CUDA-11.7.0/g16/l702.exe)
 L702 exits ... SP integral derivatives will be done elsewhere.
 Leave Link  702 at Sat May 24 06:31:51 2025, MaxMem=  3758096384 cpu:               0.0 elap:               0.0
 (Enter /apps/easybuild-2022/easybuild/software/Compiler/NVHPC/22.11-CUDA-11.7.0/Gaussian/g16c01-CUDA-11.7.0/g16/l703.exe)
 Integral derivatives from FoFJK, PRISM(SPDF).
 Compute integral second derivatives, UseDBF=F ICtDFT=           0.
 Calling FoFJK, ICntrl=    100127 FMM=F ISym2X=0 I1Cent= 0 IOpClX= 0 NMat=1 NMatS=1 NMatT=0.
 FoFJK:  IHMeth= 1 ICntrl=  100127 DoSepK=F KAlg= 0 I1Cent=           0 FoldK=F
 IRaf=         0 NMat=       1 IRICut=       1 DoRegI=T DoRafI=F ISym2E= 0 IDoP0=0 IntGTp=1.
 FoFCou: FMM=F IPFlag=           0 FMFlag=      100000 FMFlg1=         800
         NFxFlg=           0 DoJE=F BraDBF=F KetDBF=F FulRan=T
         wScrn=  0.000000 ICntrl=    100127 IOpCl=  0 I1Cent=           0 NGrid=           0
         NMat0=    1 NMatS0=      1 NMatT0=    0 NMatD0=    1 NMtDS0=    0 NMtDT0=    0
 Symmetry not used in FoFCou.
 Leave Link  703 at Sat May 24 06:33:28 2025, MaxMem=  3758096384 cpu:             768.3 elap:              97.0
 (Enter /apps/easybuild-2022/easybuild/software/Compiler/NVHPC/22.11-CUDA-11.7.0/Gaussian/g16c01-CUDA-11.7.0/g16/l716.exe)
 Dipole        =-5.20083515D-01 1.18387862D+00-4.65919082D-02
 Polarizability= 0.00000000D+00 0.00000000D+00 0.00000000D+00
                 0.00000000D+00 0.00000000D+00 0.00000000D+00
 -------------------------------------------------------------------
 Center     Atomic                   Forces (Hartrees/Bohr)
 Number     Number              X              Y              Z
 -------------------------------------------------------------------
      1        6           0.012500453   -0.032553356   -0.009602637
      2        8          -0.031945046    0.042423431   -0.006816334
      3        6          -0.003143536    0.000198602    0.002437515
      4        6           0.018584583   -0.001899878    0.001281208
      5        9          -0.002351897   -0.004115016   -0.001188184
      6        9           0.001419457   -0.001889736    0.000693606
      7        9           0.120024738   -0.283084808    0.142931043
      8        9          -0.112839977    0.280712929   -0.131703973
      9        9           0.013366259   -0.000668938    0.002045947
     10        8          -0.015861099   -0.001319883    0.000989260
     11        1           0.000246065    0.002196651   -0.001067451
 -------------------------------------------------------------------
 Cartesian Forces:  Max     0.283084808 RMS     0.083278597
 Force constants in Cartesian coordinates: 
                1             2             3             4             5 
      1  0.703205D+00
      2 -0.112103D+00  0.954413D+00
      3 -0.202358D-01  0.261095D-01  0.143227D+00
      4 -0.332130D+00  0.695709D-01  0.114582D-01  0.469850D+00
      5  0.420860D-01 -0.117192D+00 -0.419513D-02 -0.595616D-02  0.320737D+00
      6 -0.474517D-02 -0.530715D-02 -0.352254D-01 -0.586509D-02  0.463672D-01
      7 -0.199354D+00  0.211166D+00  0.131143D-01 -0.370201D-01  0.358394D-01
      8  0.161058D+00 -0.425978D+00 -0.180125D-01  0.187449D-01  0.839315D-02
      9  0.272179D-01 -0.309652D-01 -0.560203D-01 -0.680577D-02 -0.323709D-02
     10  0.494289D-01 -0.805114D-02 -0.237036D-02 -0.257581D-01 -0.318732D-01
     11  0.208994D-01 -0.447017D-01 -0.543014D-03 -0.220786D-01 -0.100545D-01
     12 -0.110728D-01 -0.214514D-02 -0.314138D-02  0.853124D-02  0.201903D-01
     13 -0.669526D-02  0.173616D-02 -0.138397D-02  0.355803D-02  0.308779D-02
     14 -0.135264D-01  0.105005D-01 -0.349080D-02  0.735077D-02 -0.325976D-03
     15 -0.455535D-02  0.368222D-02 -0.137863D-02  0.118556D-02 -0.553740D-02
     16 -0.485826D-02 -0.748282D-03 -0.832129D-03  0.450457D-02  0.103266D-01
     17 -0.958120D-02  0.822952D-02  0.558331D-02  0.349480D-02 -0.156697D-02
     18  0.317111D-02 -0.406805D-03 -0.145868D-02 -0.198729D-03 -0.163729D-03
     19 -0.437662D-01  0.176133D-01 -0.140455D-02  0.342619D-01  0.958067D-01
     20  0.238647D-01 -0.206334D-02  0.219807D-02 -0.383233D-02 -0.103063D+00
     21 -0.189036D-01  0.330397D-02 -0.128048D-02 -0.165071D-02  0.743842D-01
     22  0.101835D-01 -0.671696D-01 -0.499515D-02 -0.778881D-01 -0.103079D+00
     23 -0.607877D-01 -0.135947D-01 -0.611053D-02 -0.553776D-01 -0.945776D-01
     24  0.290058D-01 -0.692019D-02 -0.784419D-03 -0.111413D-01 -0.125714D+00
     25 -0.397971D-01 -0.212213D-01  0.117280D-01 -0.182571D-01  0.409683D-02
     26  0.379009D-01  0.473923D-02 -0.569848D-02  0.477271D-02 -0.353896D-02
     27  0.511829D-02  0.561804D-02  0.140148D-02  0.428412D-02 -0.204382D-02
     28 -0.152225D+00 -0.677116D-01 -0.110528D-01 -0.220649D-01 -0.506263D-01
     29 -0.115470D+00 -0.327611D+00 -0.444521D-02 -0.171874D-01 -0.358722D-02
     30 -0.705686D-02  0.732606D-02 -0.429038D-01  0.183199D-02  0.224083D-03
     31  0.160075D-01 -0.230807D-01  0.597422D-02  0.943524D-03  0.291830D-03
     32  0.256597D-01 -0.467404D-01  0.860483D-02  0.497994D-03  0.477619D-02
     33  0.205645D-02 -0.295304D-03 -0.243551D-02 -0.162953D-02 -0.275023D-03
                6             7             8             9            10 
      6  0.213583D-01
      7  0.115504D-02  0.745377D+00
      8 -0.694184D-02 -0.153449D+00  0.811939D+00
      9  0.781922D-02 -0.953413D-01  0.186467D-01  0.138480D+00
     10  0.364663D-02 -0.850881D-01 -0.335944D-01  0.421177D-02  0.596014D+00
     11  0.516135D-02 -0.647418D-01 -0.180603D+00  0.793167D-02 -0.834325D-03
     12 -0.507443D-02  0.451828D-02  0.134626D-01 -0.593737D-01 -0.489887D-02
     13 -0.773931D-03  0.815558D-02 -0.120824D-01 -0.100858D-01 -0.744395D-01
     14 -0.175856D-02  0.272439D-02 -0.395023D-01 -0.416979D-01 -0.955891D-02
     15 -0.203773D-03  0.424519D-02 -0.225499D-01 -0.106834D-01 -0.126554D-01
     16 -0.117569D-02 -0.237419D-02  0.789394D-02 -0.254483D-02 -0.132863D+00
     17 -0.544199D-03  0.340234D-01 -0.467983D-01  0.298148D-01  0.687966D-01
     18 -0.104812D-03 -0.139818D-01  0.183509D-01 -0.971830D-03 -0.620953D-01
     19 -0.188511D-01 -0.299679D-01 -0.750771D-02  0.169531D-01 -0.238731D+00
     20  0.162462D-01 -0.264338D-01  0.716417D-02  0.110142D-01 -0.407065D-01
     21 -0.172289D-02  0.101674D-01 -0.200746D-02  0.356616D-02  0.868862D-01
     22  0.245551D-01 -0.373061D-02  0.318776D-02 -0.184727D-02 -0.392221D-01
     23 -0.511855D-01  0.549981D-03  0.889126D-03  0.463280D-02  0.671933D-01
     24  0.244487D-03  0.449781D-02  0.402861D-02  0.669177D-04 -0.210076D-01
     25  0.478018D-02 -0.401061D+00  0.151465D-01  0.675483D-01 -0.455452D-01
     26 -0.235768D-03  0.351080D-02 -0.684072D-01 -0.131933D-02 -0.276489D-01
     27  0.117483D-01  0.696077D-01 -0.410783D-02 -0.363691D-01  0.814938D-02
     28 -0.287401D-02  0.943509D-02  0.507547D-02  0.625931D-03 -0.647308D-02
     29 -0.201704D-02 -0.400610D-01 -0.667601D-01  0.464966D-02  0.144070D-01
     30  0.110105D-02  0.166153D-02 -0.173300D-02  0.135770D-01  0.364267D-03
     31  0.148006D-03 -0.437146D-02 -0.447360D-02  0.680010D-04  0.267718D-02
     32  0.215301D-03 -0.312851D-02 -0.336542D-03  0.529635D-03  0.187055D-02
     33  0.599089D-04  0.355753D-03  0.863739D-03 -0.913025D-04 -0.230768D-03
               11            12            13            14            15 
     11  0.594989D+00
     12 -0.663109D-02  0.530077D+00
     13 -0.100207D-01 -0.109534D-01  0.776641D-01
     14 -0.138327D+00 -0.962211D-01  0.679516D-03  0.145726D+00
     15 -0.943106D-01 -0.222361D+00  0.966429D-02  0.138456D+00  0.355180D+00
     16  0.743498D-01 -0.716779D-01 -0.122419D-02  0.271525D-02 -0.319919D-01
     17 -0.164522D+00  0.798429D-01 -0.314563D-02  0.209506D-01 -0.747164D-03
     18  0.804168D-01 -0.145503D+00 -0.416339D-01  0.144421D-01 -0.734986D-01
     19 -0.278858D-01  0.726208D-01 -0.143459D-01  0.123855D-01  0.411044D-01
     20 -0.835702D-01  0.985974D-02  0.273734D-01  0.921949D-02 -0.234001D-01
     21  0.925340D-02 -0.112705D+00  0.501643D-01 -0.150709D-01 -0.480659D-01
     22  0.151154D-01 -0.195023D-03  0.233601D-02  0.130246D-02 -0.227555D-02
     23  0.211635D-02 -0.207599D-01 -0.668259D-02 -0.180574D-02  0.750331D-02
     24 -0.121454D-02  0.118437D-01  0.353010D-02  0.165780D-03 -0.126946D-02
     25  0.781544D-02  0.101647D-01  0.441139D-02 -0.295514D-02 -0.413982D-02
     26  0.305905D-02  0.549593D-02  0.141189D-02  0.157904D-02  0.501340D-03
     27  0.122040D-02 -0.270209D-02  0.432631D-03  0.177920D-02  0.135140D-02
     28  0.568437D-02  0.398649D-02  0.980652D-03 -0.258373D-03 -0.306767D-03
     29  0.235826D-01 -0.181612D-02 -0.211225D-02 -0.834311D-02 -0.389139D-02
     30 -0.799852D-04  0.617306D-02  0.698976D-03  0.232512D-02  0.794772D-03
     31  0.169687D-02 -0.102360D-02 -0.400889D-03 -0.859090D-03 -0.274639D-03
     32 -0.196918D-02 -0.127815D-02 -0.245200D-03  0.327944D-03  0.294000D-03
     33 -0.120440D-02  0.276650D-02  0.340754D-03  0.107150D-02  0.134280D-03
               16            17            18            19            20 
     16  0.204568D+00
     17 -0.115022D+00  0.180383D+00
     18  0.123749D+00 -0.111170D+00  0.202196D+00
     19 -0.812325D-01  0.249406D-01 -0.102426D-01  0.341050D+00
     20  0.342278D-01  0.764656D-02 -0.327431D-02 -0.220045D+00  0.493785D+00
     21 -0.196402D-01  0.657848D-03  0.190863D-01 -0.244214D-01 -0.274911D+00
     22  0.498261D-02 -0.504710D-03  0.739042D-03  0.272518D-01  0.218515D+00
     23 -0.105377D-01  0.869173D-03  0.195587D-03  0.125138D+00 -0.327835D+00
     24  0.373743D-02  0.444098D-03 -0.546694D-03 -0.783379D-01  0.260830D+00
     25  0.701428D-02 -0.129135D-02  0.563890D-03  0.108173D-02 -0.925367D-02
     26 -0.354998D-02  0.245783D-02 -0.858822D-03 -0.101390D-01 -0.362012D-02
     27  0.421615D-03 -0.183187D-02  0.552534D-03  0.116572D-02  0.386385D-02
     28  0.178759D-02 -0.118330D-02 -0.235308D-03  0.683829D-02 -0.515249D-02
     29  0.929380D-03 -0.828426D-02  0.253883D-02 -0.780870D-02 -0.261797D-04
     30 -0.208790D-03 -0.132875D-02  0.130805D-03  0.357200D-03 -0.206778D-02
     31 -0.305263D-03 -0.527256D-03  0.164541D-03 -0.244077D-02  0.144188D-02
     32 -0.584821D-03  0.634798D-03 -0.709758D-04 -0.249809D-02  0.236252D-02
     33  0.163308D-03 -0.721471D-03  0.118666D-03  0.105635D-02 -0.359541D-03
               21            22            23            24            25 
     21  0.161901D+00
     22 -0.874025D-01  0.895590D-01
     23  0.206022D+00 -0.726185D-01  0.441606D+00
     24 -0.216292D-01  0.747462D-01 -0.140298D+00  0.120594D-01
     25  0.294518D-02 -0.901964D-03  0.608469D-02 -0.393976D-02  0.482324D+00
     26  0.785968D-03  0.103974D-02 -0.581307D-02  0.257983D-02 -0.915101D-02
     27  0.437027D-03 -0.112293D-02 -0.795036D-03 -0.443334D-03 -0.854505D-01
     28  0.279377D-02 -0.124438D-01  0.952582D-02 -0.241163D-02  0.949256D-02
     29 -0.999677D-03  0.813724D-03  0.340555D-03  0.443982D-02  0.122836D-01
     30  0.633854D-04 -0.145711D-02 -0.155642D-03  0.182940D-02 -0.311461D-02
     31 -0.938456D-03 -0.126314D-03 -0.248733D-02  0.132076D-02  0.123839D-02
     32 -0.141855D-02  0.339769D-02 -0.219482D-02  0.165781D-02 -0.155455D-02
     33  0.349489D-03 -0.744816D-03  0.950879D-03 -0.137093D-02 -0.108559D-02
               26            27            28            29            30 
     26  0.633576D-01
     27 -0.150446D-02  0.300138D-01
     28  0.121039D-02 -0.258620D-02  0.419256D+00
     29  0.554738D-02 -0.292076D-02 -0.990221D-01  0.665481D+00
     30  0.918370D-03 -0.501607D-02  0.838802D-01 -0.754009D-01  0.464214D-01
     31  0.642460D-03 -0.198278D-04 -0.254583D+00  0.253228D+00 -0.769568D-01
     32  0.639150D-03  0.722270D-03  0.202458D+00 -0.280340D+00  0.699724D-01
     33 -0.664576D-03 -0.973924D-03 -0.718197D-01  0.798628D-01 -0.221710D-01
               31            32            33 
     31  0.241361D+00
     32 -0.225873D+00  0.322840D+00
     33  0.715378D-01 -0.792286D-01  0.236138D-01
 FormGI is forming the generalized inverse of G from B-inverse, IUseBI=4.
 Leave Link  716 at Sat May 24 06:33:28 2025, MaxMem=  3758096384 cpu:               0.0 elap:               0.0
 (Enter /apps/easybuild-2022/easybuild/software/Compiler/NVHPC/22.11-CUDA-11.7.0/Gaussian/g16c01-CUDA-11.7.0/g16/l103.exe)

 GradGradGradGradGradGradGradGradGradGradGradGradGradGradGradGradGradGrad
 Berny optimization.
 Red2BG is reusing G-inverse.
 Internal  Forces:  Max     0.322183269 RMS     0.050422260
 Search for a local minimum.
 Step number   1 out of a maximum of   56
 All quantities printed in internal units (Hartrees-Bohrs-Radians)
 RMS Force = .50422D-01 SwitMx=.10000D-02 MixMth= 1
 Mixed Optimization -- RFO/linear search
 Second derivative matrix not updated -- analytic derivatives used.
 ITU=  0
     Eigenvalues ---   -0.03276   0.00171   0.00381   0.01016   0.02650
     Eigenvalues ---    0.03965   0.05840   0.10017   0.12893   0.15728
     Eigenvalues ---    0.17205   0.18525   0.19505   0.20648   0.22227
     Eigenvalues ---    0.22643   0.27015   0.32784   0.37949   0.38802
     Eigenvalues ---    0.42463   0.47696   0.50635   0.53831   0.56461
     Eigenvalues ---    0.58517   0.69103
 Eigenvalue     1 is  -3.28D-02 should be greater than     0.000000 Eigenvector:
                          A15       D16       D17       A4        D18
   1                   -0.59365   0.28572   0.27454   0.24869   0.24270
                          A14       D19       R10       R4        D2
   1                    0.21966  -0.21690   0.20625  -0.19890  -0.18102
 RFO step:  Lambda=-1.65720698D-01 EMin=-3.27629890D-02
 Linear search not attempted -- first point.
 Maximum step size (   0.300) exceeded in Quadratic search.
    -- Step size scaled by   0.302
 Iteration  1 RMS(Cart)=  0.04988119 RMS(Int)=  0.00281785
 Iteration  2 RMS(Cart)=  0.00266472 RMS(Int)=  0.00112953
 Iteration  3 RMS(Cart)=  0.00000446 RMS(Int)=  0.00112952
 Iteration  4 RMS(Cart)=  0.00000000 RMS(Int)=  0.00112952
 ITry= 1 IFail=0 DXMaxC= 1.54D-01 DCOld= 1.00D+10 DXMaxT= 3.00D-01 DXLimC= 3.00D+00 Rises=F
 Variable       Old X    -DE/DX   Delta X   Delta X   Delta X     New X
                                 (Linear)    (Quad)   (Total)
    R1        2.54516   0.02144   0.00000   0.02496   0.02584   2.57100
    R2        2.51703   0.02959   0.00000  -0.01168  -0.01254   2.50450
    R3        2.52114  -0.00658   0.00000  -0.00391  -0.00391   2.51723
    R4        2.70400  -0.01300   0.00000  -0.09427  -0.09248   2.61151
    R5        2.84557   0.01546   0.00000  -0.01284  -0.01441   2.83116
    R6        2.50561   0.01275   0.00000   0.00002   0.00002   2.50562
    R7        2.52405   0.00297   0.00000   0.00449   0.00449   2.52854
    R8        2.51935   0.00228   0.00000   0.01004   0.01004   2.52939
    R9        2.50136   0.00891   0.00000  -0.02687  -0.02728   2.47407
   R10        2.87376   0.32218   0.00000   0.18997   0.19019   3.06395
   R11        1.82193   0.00165   0.00000   0.00102   0.00102   1.82296
    A1        2.08056   0.05104   0.00000   0.02226   0.02206   2.10262
    A2        2.06150  -0.04265   0.00000  -0.04143  -0.04138   2.02012
    A3        2.13865  -0.00848   0.00000   0.01910   0.01923   2.15788
    A4        1.85149  -0.04020   0.00000   0.06349   0.06710   1.91858
    A5        2.23405   0.02603   0.00000  -0.03040  -0.03294   2.20111
    A6        2.08943  -0.01246   0.00000   0.00738   0.00856   2.09799
    A7        1.95940  -0.01356   0.00000   0.02348   0.02466   1.98407
    A8        1.93263  -0.00598   0.00000   0.01029   0.01014   1.94277
    A9        1.90399   0.01114   0.00000  -0.00731  -0.00589   1.89810
   A10        1.97288  -0.00096   0.00000  -0.02513  -0.02742   1.94546
   A11        1.87161  -0.00160   0.00000  -0.00570  -0.00592   1.86569
   A12        1.88960   0.00585   0.00000   0.01169   0.01291   1.90251
   A13        1.88999  -0.00866   0.00000   0.01729   0.01735   1.90735
   A14        1.74955  -0.02093   0.00000   0.06112   0.06080   1.81035
   A15        2.20890  -0.00539   0.00000  -0.17270  -0.17069   2.03821
   A16        1.90970   0.00291   0.00000   0.00753   0.00753   1.91722
    D1       -0.03902  -0.01446   0.00000  -0.05609  -0.05683  -0.09585
    D2        3.02892  -0.01622   0.00000  -0.05639  -0.05732   2.97160
    D3       -0.18903  -0.01116   0.00000  -0.03007  -0.03064  -0.21967
    D4        2.92433  -0.01091   0.00000  -0.00789  -0.00867   2.91566
    D5        3.02963  -0.00798   0.00000  -0.02712  -0.02748   3.00215
    D6       -0.14020  -0.00773   0.00000  -0.00493  -0.00551  -0.14571
    D7       -0.22220  -0.00113   0.00000  -0.01035  -0.01025  -0.23245
    D8        2.84312  -0.00035   0.00000  -0.01064  -0.01074   2.83238
    D9        0.75008  -0.01785   0.00000   0.01745   0.01691   0.76700
   D10        1.87133  -0.00962   0.00000   0.02395   0.02312   1.89444
   D11       -2.35602  -0.00831   0.00000   0.01860   0.01823  -2.33779
   D12       -0.25234  -0.01214   0.00000   0.01902   0.01850  -0.23383
   D13       -1.24377  -0.00981   0.00000   0.00327   0.00253  -1.24124
   D14        0.81207  -0.00850   0.00000  -0.00207  -0.00235   0.80972
   D15        2.91575  -0.01233   0.00000  -0.00166  -0.00208   2.91367
   D16        0.70758  -0.02484   0.00000   0.06659   0.06474   0.77232
   D17       -1.44013  -0.02079   0.00000   0.06186   0.06106  -1.37907
   D18        2.81922  -0.01742   0.00000   0.05327   0.05162   2.87084
   D19       -1.13389   0.00921   0.00000  -0.04373  -0.04578  -1.17967
         Item               Value     Threshold  Converged?
 Maximum Force            0.322183     0.000450     NO 
 RMS     Force            0.050422     0.000300     NO 
 Maximum Displacement     0.154330     0.001800     NO 
 RMS     Displacement     0.050889     0.001200     NO 
 Predicted change in Energy=-5.404715D-02
 Lowest energy point so far.  Saving SCF results.
 GradGradGradGradGradGradGradGradGradGradGradGradGradGradGradGradGradGrad

 Leave Link  103 at Sat May 24 06:33:28 2025, MaxMem=  3758096384 cpu:               0.1 elap:               0.0
 (Enter /apps/easybuild-2022/easybuild/software/Compiler/NVHPC/22.11-CUDA-11.7.0/Gaussian/g16c01-CUDA-11.7.0/g16/l202.exe)
                          Input orientation:                          
 ---------------------------------------------------------------------
 Center     Atomic      Atomic             Coordinates (Angstroms)
 Number     Number       Type             X           Y           Z
 ---------------------------------------------------------------------
      1          6           0        1.365693   -0.031652    0.004526
      2          8           0        0.005241   -0.019593    0.010229
      3          6           0        2.027230   -1.175236   -0.100663
      4          6           0        1.445361   -2.548366    0.042507
      5          9           0        1.386716   -3.177126   -1.137149
      6          9           0        2.246263   -3.275017    0.831245
      7          9           0        0.245316   -2.508192    0.564371
      8          9           0       -0.478052   -1.292265   -0.227535
      9          9           0        3.327025   -1.172344   -0.362553
     10          8           0        1.954963    1.162867    0.020819
     11          1           0        1.307161    1.850360   -0.174854
 ---------------------------------------------------------------------
                    Distance matrix (angstroms):
                    1          2          3          4          5
     1  C    0.000000
     2  O    1.360517   0.000000
     3  C    1.325323   2.331576   0.000000
     4  C    2.518260   2.910271   1.498183   0.000000
     5  F    3.346322   3.632487   2.343528   1.338046   0.000000
     6  F    3.460965   4.036586   2.307705   1.338497   2.150111
     7  F    2.775234   2.560827   2.322555   1.309223   2.155328
     8  F    2.245527   1.381954   2.511221   2.313056   2.803116
     9  F    2.298423   3.535823   1.325919   2.366044   2.895505
    10  O    1.332059   2.280294   2.342372   3.746119   4.527619
    11  H    1.891447   2.286040   3.110987   4.406260   5.119371
                    6          7          8          9         10
     6  F    0.000000
     7  F    2.159405   0.000000
     8  F    3.531885   1.621375   0.000000
     9  F    2.648477   3.484338   3.809359   0.000000
    10  O    4.520670   4.085954   3.465388   2.735459   0.000000
    11  H    5.306942   4.546531   3.614672   3.640305   0.964667
                   11
    11  H    0.000000
 Symmetry turned off by external request.
 Stoichiometry    C3HF5O2
 Rotational constants (GHZ):           1.9227983           1.3188185           0.9149949
 Leave Link  202 at Sat May 24 06:33:28 2025, MaxMem=  3758096384 cpu:               0.0 elap:               0.0
 (Enter /apps/easybuild-2022/easybuild/software/Compiler/NVHPC/22.11-CUDA-11.7.0/Gaussian/g16c01-CUDA-11.7.0/g16/l301.exe)
 Standard basis: def2TZVPP (5D, 7F)
 Ernie: Thresh=  0.10000D-02 Tol=  0.10000D-05 Strict=F.
   324 basis functions,   527 primitive gaussians,   375 cartesian basis functions
    40 alpha electrons       40 beta electrons
       nuclear repulsion energy       642.9975595421 Hartrees.
 IExCor= 4336 DFT=T Ex+Corr=M062X ExCW=0 ScaHFX=  0.540000
 ScaDFX=  1.000000  1.000000  1.000000  1.000000 ScalE2=  1.000000  1.000000
 IRadAn=      5 IRanWt=     -1 IRanGd=            0 ICorTp=0 IEmpDi=  4
 NAtoms=   11 NActive=   11 NUniq=   11 SFac= 1.00D+00 NAtFMM=   60 NAOKFM=F Big=F
 Integral buffers will be    131072 words long.
 Raffenetti 2 integral format.
 Two-electron integral symmetry is turned off.
 Leave Link  301 at Sat May 24 06:33:28 2025, MaxMem=  3758096384 cpu:               0.0 elap:               0.0
 (Enter /apps/easybuild-2022/easybuild/software/Compiler/NVHPC/22.11-CUDA-11.7.0/Gaussian/g16c01-CUDA-11.7.0/g16/l302.exe)
 NPDir=0 NMtPBC=     1 NCelOv=     1 NCel=       1 NClECP=     1 NCelD=      1
         NCelK=      1 NCelE2=     1 NClLst=     1 CellRange=     0.0.
 One-electron integrals computed using PRISM.
   1 Symmetry operations used in ECPInt.
 ECPInt:  NShTT=    6786 NPrTT=   21959 LenC2=    6432 LenP2D=   15852.
 LDataN:  DoStor=T MaxTD1= 6 Len=  172
 NBasis=   324 RedAO= T EigKep=  7.91D-05  NBF=   324
 NBsUse=   324 1.00D-06 EigRej= -1.00D+00 NBFU=   324
 Precomputing XC quadrature grid using
 IXCGrd= 4 IRadAn=           5 IRanWt=          -1 IRanGd=           0 AccXCQ= 0.00D+00.
 Generated NRdTot=       0 NPtTot=           0 NUsed=           0 NTot=          32
 NSgBfM=   373   373   373   373   373 MxSgAt=    11 MxSgA2=    11.
 Leave Link  302 at Sat May 24 06:33:29 2025, MaxMem=  3758096384 cpu:               0.6 elap:               0.1
 (Enter /apps/easybuild-2022/easybuild/software/Compiler/NVHPC/22.11-CUDA-11.7.0/Gaussian/g16c01-CUDA-11.7.0/g16/l303.exe)
 DipDrv:  MaxL=1.
 Leave Link  303 at Sat May 24 06:33:29 2025, MaxMem=  3758096384 cpu:               0.1 elap:               0.0
 (Enter /apps/easybuild-2022/easybuild/software/Compiler/NVHPC/22.11-CUDA-11.7.0/Gaussian/g16c01-CUDA-11.7.0/g16/l401.exe)
 Initial guess from the checkpoint file:  "/tmp/Gau-256353.chk"
 B after Tr=     0.012246    0.017998   -0.016059
         Rot=    0.999997    0.001784    0.000211    0.001719 Ang=   0.28 deg.
 Guess basis will be translated and rotated to current coordinates.
 JPrj=2 DoOrth=T DoCkMO=T.
 Generating alternative initial guess.
 ExpMin= 9.52D-02 ExpMax= 3.55D+04 ExpMxC= 1.21D+03 IAcc=3 IRadAn=         5 AccDes= 0.00D+00
 Harris functional with IExCor= 1009 and IRadAn=       5 diagonalized for initial guess.
 HarFok:  IExCor= 1009 AccDes= 0.00D+00 IRadAn=         5 IDoV= 1 UseB2=F ITyADJ=14
 ICtDFT=  3500011 ScaDFX=  1.000000  1.000000  1.000000  1.000000
 FoFCou: FMM=F IPFlag=           0 FMFlag=      100000 FMFlg1=           0
         NFxFlg=           0 DoJE=T BraDBF=F KetDBF=T FulRan=T
         wScrn=  0.000000 ICntrl=       500 IOpCl=  0 I1Cent=   200000004 NGrid=           0
         NMat0=    1 NMatS0=      1 NMatT0=    0 NMatD0=    1 NMtDS0=    0 NMtDT0=    0
 Symmetry not used in FoFCou.
 Harris En= -763.909691944263    
 Leave Link  401 at Sat May 24 06:33:29 2025, MaxMem=  3758096384 cpu:               3.7 elap:               0.6
 (Enter /apps/easybuild-2022/easybuild/software/Compiler/NVHPC/22.11-CUDA-11.7.0/Gaussian/g16c01-CUDA-11.7.0/g16/l502.exe)
 Keep R1 ints in memory in canonical form, NReq=1412617130.
 FoFCou: FMM=F IPFlag=           0 FMFlag=           0 FMFlg1=           0
         NFxFlg=           0 DoJE=F BraDBF=F KetDBF=F FulRan=T
         wScrn=  0.000000 ICntrl=       600 IOpCl=  0 I1Cent=           0 NGrid=           0
         NMat0=    1 NMatS0=  52650 NMatT0=    0 NMatD0=    1 NMtDS0=    0 NMtDT0=    0
 Symmetry not used in FoFCou.
 Two-electron integral symmetry not used.
 Closed shell SCF:
 Using DIIS extrapolation, IDIIS=  1040.
 NGot=  3758096384 LenX=  2371771924 LenY=  2371630858
 Requested convergence on RMS density matrix=1.00D-08 within  32 cycles.
 Requested convergence on MAX density matrix=1.00D-06.
 Requested convergence on             energy=1.00D-06.
 No special actions if energy rises.
 Integral accuracy reduced to 1.0D-05 until final iterations.

 Cycle   1  Pass 0  IDiag  1:
 E= -764.344673811780    
 DIIS: error= 2.86D-03 at cycle   1 NSaved=   1.
 NSaved= 1 IEnMin= 1 EnMin= -764.344673811780     IErMin= 1 ErrMin= 2.86D-03
 ErrMax= 2.86D-03  0.00D+00 EMaxC= 1.00D-01 BMatC= 9.48D-03 BMatP= 9.48D-03
 IDIUse=3 WtCom= 9.71D-01 WtEn= 2.86D-02
 Coeff-Com:  0.100D+01
 Coeff-En:   0.100D+01
 Coeff:      0.100D+01
 Gap=     0.998 Goal=   None    Shift=    0.000
 GapD=    0.998 DampG=2.000 DampE=1.000 DampFc=2.0000 IDamp=-1.
 RMSDP=4.41D-04 MaxDP=1.30D-02              OVMax= 5.88D-02

 Cycle   2  Pass 0  IDiag  1:
 E= -764.360462932605     Delta-E=       -0.015789120826 Rises=F Damp=F
 DIIS: error= 8.26D-04 at cycle   2 NSaved=   2.
 NSaved= 2 IEnMin= 2 EnMin= -764.360462932605     IErMin= 2 ErrMin= 8.26D-04
 ErrMax= 8.26D-04  0.00D+00 EMaxC= 1.00D-01 BMatC= 9.06D-04 BMatP= 9.48D-03
 IDIUse=3 WtCom= 9.92D-01 WtEn= 8.26D-03
 Coeff-Com: -0.764D-01 0.108D+01
 Coeff-En:   0.000D+00 0.100D+01
 Coeff:     -0.758D-01 0.108D+01
 Gap=     0.305 Goal=   None    Shift=    0.000
 RMSDP=1.72D-04 MaxDP=4.11D-03 DE=-1.58D-02 OVMax= 2.39D-02

 Cycle   3  Pass 0  IDiag  1:
 E= -764.362252021135     Delta-E=       -0.001789088529 Rises=F Damp=F
 DIIS: error= 7.01D-04 at cycle   3 NSaved=   3.
 NSaved= 3 IEnMin= 3 EnMin= -764.362252021135     IErMin= 3 ErrMin= 7.01D-04
 ErrMax= 7.01D-04  0.00D+00 EMaxC= 1.00D-01 BMatC= 6.28D-04 BMatP= 9.06D-04
 IDIUse=3 WtCom= 9.93D-01 WtEn= 7.01D-03
 Coeff-Com: -0.920D-01 0.514D+00 0.577D+00
 Coeff-En:   0.000D+00 0.000D+00 0.100D+01
 Coeff:     -0.913D-01 0.511D+00 0.580D+00
 Gap=     0.309 Goal=   None    Shift=    0.000
 RMSDP=7.26D-05 MaxDP=3.24D-03 DE=-1.79D-03 OVMax= 1.16D-02

 Cycle   4  Pass 0  IDiag  1:
 E= -764.362799154279     Delta-E=       -0.000547133144 Rises=F Damp=F
 DIIS: error= 2.82D-04 at cycle   4 NSaved=   4.
 NSaved= 4 IEnMin= 4 EnMin= -764.362799154279     IErMin= 4 ErrMin= 2.82D-04
 ErrMax= 2.82D-04  0.00D+00 EMaxC= 1.00D-01 BMatC= 1.02D-04 BMatP= 6.28D-04
 IDIUse=3 WtCom= 9.97D-01 WtEn= 2.82D-03
 Coeff-Com: -0.109D-01-0.109D+00 0.204D+00 0.916D+00
 Coeff-En:   0.000D+00 0.000D+00 0.000D+00 0.100D+01
 Coeff:     -0.109D-01-0.108D+00 0.203D+00 0.916D+00
 Gap=     0.309 Goal=   None    Shift=    0.000
 RMSDP=4.83D-05 MaxDP=1.81D-03 DE=-5.47D-04 OVMax= 7.75D-03

 Cycle   5  Pass 0  IDiag  1:
 E= -764.362951656217     Delta-E=       -0.000152501938 Rises=F Damp=F
 DIIS: error= 2.10D-04 at cycle   5 NSaved=   5.
 NSaved= 5 IEnMin= 5 EnMin= -764.362951656217     IErMin= 5 ErrMin= 2.10D-04
 ErrMax= 2.10D-04  0.00D+00 EMaxC= 1.00D-01 BMatC= 3.57D-05 BMatP= 1.02D-04
 IDIUse=3 WtCom= 9.98D-01 WtEn= 2.10D-03
 Coeff-Com:  0.168D-01-0.188D+00-0.538D-02 0.539D+00 0.638D+00
 Coeff-En:   0.000D+00 0.000D+00 0.000D+00 0.000D+00 0.100D+01
 Coeff:      0.168D-01-0.188D+00-0.537D-02 0.538D+00 0.638D+00
 Gap=     0.309 Goal=   None    Shift=    0.000
 RMSDP=2.21D-05 MaxDP=1.37D-03 DE=-1.53D-04 OVMax= 4.30D-03

 Cycle   6  Pass 0  IDiag  1:
 E= -764.362989672324     Delta-E=       -0.000038016108 Rises=F Damp=F
 DIIS: error= 5.51D-05 at cycle   6 NSaved=   6.
 NSaved= 6 IEnMin= 6 EnMin= -764.362989672324     IErMin= 6 ErrMin= 5.51D-05
 ErrMax= 5.51D-05  0.00D+00 EMaxC= 1.00D-01 BMatC= 1.95D-06 BMatP= 3.57D-05
 IDIUse=1 WtCom= 1.00D+00 WtEn= 0.00D+00
 Coeff-Com:  0.612D-02-0.348D-01-0.261D-01 0.136D-01 0.155D+00 0.887D+00
 Coeff:      0.612D-02-0.348D-01-0.261D-01 0.136D-01 0.155D+00 0.887D+00
 Gap=     0.309 Goal=   None    Shift=    0.000
 RMSDP=7.67D-06 MaxDP=2.42D-04 DE=-3.80D-05 OVMax= 1.41D-03

 Initial convergence to 1.0D-05 achieved.  Increase integral accuracy.
 Cycle   7  Pass 1  IDiag  1:
 E= -764.363100672262     Delta-E=       -0.000110999938 Rises=F Damp=F
 DIIS: error= 2.35D-05 at cycle   1 NSaved=   1.
 NSaved= 1 IEnMin= 1 EnMin= -764.363100672262     IErMin= 1 ErrMin= 2.35D-05
 ErrMax= 2.35D-05  0.00D+00 EMaxC= 1.00D-01 BMatC= 7.84D-07 BMatP= 7.84D-07
 IDIUse=1 WtCom= 1.00D+00 WtEn= 0.00D+00
 Coeff-Com:  0.100D+01
 Coeff:      0.100D+01
 Gap=     0.309 Goal=   None    Shift=    0.000
 RMSDP=7.67D-06 MaxDP=2.42D-04 DE=-1.11D-04 OVMax= 4.39D-04

 Cycle   8  Pass 1  IDiag  1:
 E= -764.363101525308     Delta-E=       -0.000000853045 Rises=F Damp=F
 DIIS: error= 1.21D-05 at cycle   2 NSaved=   2.
 NSaved= 2 IEnMin= 2 EnMin= -764.363101525308     IErMin= 2 ErrMin= 1.21D-05
 ErrMax= 1.21D-05  0.00D+00 EMaxC= 1.00D-01 BMatC= 3.08D-07 BMatP= 7.84D-07
 IDIUse=1 WtCom= 1.00D+00 WtEn= 0.00D+00
 Coeff-Com:  0.329D+00 0.671D+00
 Coeff:      0.329D+00 0.671D+00
 Gap=     0.309 Goal=   None    Shift=    0.000
 RMSDP=2.14D-06 MaxDP=6.15D-05 DE=-8.53D-07 OVMax= 2.12D-04

 Cycle   9  Pass 1  IDiag  1:
 E= -764.363101758922     Delta-E=       -0.000000233614 Rises=F Damp=F
 DIIS: error= 7.87D-06 at cycle   3 NSaved=   3.
 NSaved= 3 IEnMin= 3 EnMin= -764.363101758922     IErMin= 3 ErrMin= 7.87D-06
 ErrMax= 7.87D-06  0.00D+00 EMaxC= 1.00D-01 BMatC= 7.84D-08 BMatP= 3.08D-07
 IDIUse=1 WtCom= 1.00D+00 WtEn= 0.00D+00
 Coeff-Com: -0.722D-01 0.288D+00 0.784D+00
 Coeff:     -0.722D-01 0.288D+00 0.784D+00
 Gap=     0.309 Goal=   None    Shift=    0.000
 RMSDP=1.33D-06 MaxDP=5.73D-05 DE=-2.34D-07 OVMax= 1.67D-04

 Cycle  10  Pass 1  IDiag  1:
 E= -764.363101858980     Delta-E=       -0.000000100058 Rises=F Damp=F
 DIIS: error= 4.47D-06 at cycle   4 NSaved=   4.
 NSaved= 4 IEnMin= 4 EnMin= -764.363101858980     IErMin= 4 ErrMin= 4.47D-06
 ErrMax= 4.47D-06  0.00D+00 EMaxC= 1.00D-01 BMatC= 1.42D-08 BMatP= 7.84D-08
 IDIUse=1 WtCom= 1.00D+00 WtEn= 0.00D+00
 Coeff-Com: -0.655D-01 0.437D-01 0.332D+00 0.690D+00
 Coeff:     -0.655D-01 0.437D-01 0.332D+00 0.690D+00
 Gap=     0.309 Goal=   None    Shift=    0.000
 RMSDP=4.56D-07 MaxDP=1.63D-05 DE=-1.00D-07 OVMax= 6.57D-05

 Cycle  11  Pass 1  IDiag  1:
 E= -764.363101879687     Delta-E=       -0.000000020707 Rises=F Damp=F
 DIIS: error= 2.59D-06 at cycle   5 NSaved=   5.
 NSaved= 5 IEnMin= 5 EnMin= -764.363101879687     IErMin= 5 ErrMin= 2.59D-06
 ErrMax= 2.59D-06  0.00D+00 EMaxC= 1.00D-01 BMatC= 3.59D-09 BMatP= 1.42D-08
 IDIUse=1 WtCom= 1.00D+00 WtEn= 0.00D+00
 Coeff-Com:  0.162D-02-0.103D+00-0.155D+00 0.306D+00 0.950D+00
 Coeff:      0.162D-02-0.103D+00-0.155D+00 0.306D+00 0.950D+00
 Gap=     0.309 Goal=   None    Shift=    0.000
 RMSDP=4.31D-07 MaxDP=1.90D-05 DE=-2.07D-08 OVMax= 8.35D-05

 Cycle  12  Pass 1  IDiag  1:
 E= -764.363101888393     Delta-E=       -0.000000008707 Rises=F Damp=F
 DIIS: error= 9.11D-07 at cycle   6 NSaved=   6.
 NSaved= 6 IEnMin= 6 EnMin= -764.363101888393     IErMin= 6 ErrMin= 9.11D-07
 ErrMax= 9.11D-07  0.00D+00 EMaxC= 1.00D-01 BMatC= 9.23D-10 BMatP= 3.59D-09
 IDIUse=1 WtCom= 1.00D+00 WtEn= 0.00D+00
 Coeff-Com:  0.111D-01-0.636D-01-0.139D+00 0.401D-01 0.505D+00 0.646D+00
 Coeff:      0.111D-01-0.636D-01-0.139D+00 0.401D-01 0.505D+00 0.646D+00
 Gap=     0.309 Goal=   None    Shift=    0.000
 RMSDP=1.39D-07 MaxDP=4.30D-06 DE=-8.71D-09 OVMax= 2.02D-05

 Cycle  13  Pass 1  IDiag  1:
 E= -764.363101889511     Delta-E=       -0.000000001118 Rises=F Damp=F
 DIIS: error= 1.56D-07 at cycle   7 NSaved=   7.
 NSaved= 7 IEnMin= 7 EnMin= -764.363101889511     IErMin= 7 ErrMin= 1.56D-07
 ErrMax= 1.56D-07  0.00D+00 EMaxC= 1.00D-01 BMatC= 2.78D-11 BMatP= 9.23D-10
 IDIUse=1 WtCom= 1.00D+00 WtEn= 0.00D+00
 Coeff-Com:  0.137D-02 0.166D-02-0.443D-02-0.260D-01-0.363D-01 0.877D-01
 Coeff-Com:  0.976D+00
 Coeff:      0.137D-02 0.166D-02-0.443D-02-0.260D-01-0.363D-01 0.877D-01
 Coeff:      0.976D+00
 Gap=     0.309 Goal=   None    Shift=    0.000
 RMSDP=5.27D-08 MaxDP=2.51D-06 DE=-1.12D-09 OVMax= 6.73D-06

 Cycle  14  Pass 1  IDiag  1:
 E= -764.363101889536     Delta-E=       -0.000000000025 Rises=F Damp=F
 DIIS: error= 7.95D-08 at cycle   8 NSaved=   8.
 NSaved= 8 IEnMin= 8 EnMin= -764.363101889536     IErMin= 8 ErrMin= 7.95D-08
 ErrMax= 7.95D-08  0.00D+00 EMaxC= 1.00D-01 BMatC= 7.49D-12 BMatP= 2.78D-11
 IDIUse=1 WtCom= 1.00D+00 WtEn= 0.00D+00
 Coeff-Com: -0.830D-03 0.873D-02 0.159D-01-0.139D-01-0.791D-01-0.457D-01
 Coeff-Com:  0.403D+00 0.712D+00
 Coeff:     -0.830D-03 0.873D-02 0.159D-01-0.139D-01-0.791D-01-0.457D-01
 Coeff:      0.403D+00 0.712D+00
 Gap=     0.309 Goal=   None    Shift=    0.000
 RMSDP=1.35D-08 MaxDP=6.12D-07 DE=-2.50D-11 OVMax= 1.08D-06

 Cycle  15  Pass 1  IDiag  1:
 E= -764.363101889562     Delta-E=       -0.000000000025 Rises=F Damp=F
 DIIS: error= 2.52D-08 at cycle   9 NSaved=   9.
 NSaved= 9 IEnMin= 9 EnMin= -764.363101889562     IErMin= 9 ErrMin= 2.52D-08
 ErrMax= 2.52D-08  0.00D+00 EMaxC= 1.00D-01 BMatC= 6.42D-13 BMatP= 7.49D-12
 IDIUse=1 WtCom= 1.00D+00 WtEn= 0.00D+00
 Coeff-Com: -0.427D-03 0.285D-02 0.612D-02-0.155D-02-0.236D-01-0.238D-01
 Coeff-Com:  0.310D-01 0.241D+00 0.768D+00
 Coeff:     -0.427D-03 0.285D-02 0.612D-02-0.155D-02-0.236D-01-0.238D-01
 Coeff:      0.310D-01 0.241D+00 0.768D+00
 Gap=     0.309 Goal=   None    Shift=    0.000
 RMSDP=3.16D-09 MaxDP=1.53D-07 DE=-2.55D-11 OVMax= 2.48D-07

 SCF Done:  E(RM062X) =  -764.363101890     A.U. after   15 cycles
            NFock= 15  Conv=0.32D-08     -V/T= 2.0024
 KE= 7.624992986018D+02 PE=-3.099484905411D+03 EE= 9.296249453772D+02
 Leave Link  502 at Sat May 24 06:33:58 2025, MaxMem=  3758096384 cpu:             121.8 elap:              28.5
 (Enter /apps/easybuild-2022/easybuild/software/Compiler/NVHPC/22.11-CUDA-11.7.0/Gaussian/g16c01-CUDA-11.7.0/g16/l508.exe)
 QCSCF skips out because SCF is already converged.
 Leave Link  508 at Sat May 24 06:33:58 2025, MaxMem=  3758096384 cpu:               0.0 elap:               0.0
 (Enter /apps/easybuild-2022/easybuild/software/Compiler/NVHPC/22.11-CUDA-11.7.0/Gaussian/g16c01-CUDA-11.7.0/g16/l701.exe)
 ... and contract with generalized density number  0.
 Compute integral first derivatives.
   1 Symmetry operations used in ECPInt.
 ECPInt:  NShTT=    6786 NPrTT=   21959 LenC2=    6432 LenP2D=   15852.
 LDataN:  DoStor=T MaxTD1= 7 Len=  274
 Leave Link  701 at Sat May 24 06:33:58 2025, MaxMem=  3758096384 cpu:               0.5 elap:               0.1
 (Enter /apps/easybuild-2022/easybuild/software/Compiler/NVHPC/22.11-CUDA-11.7.0/Gaussian/g16c01-CUDA-11.7.0/g16/l702.exe)
 L702 exits ... SP integral derivatives will be done elsewhere.
 Leave Link  702 at Sat May 24 06:33:58 2025, MaxMem=  3758096384 cpu:               0.0 elap:               0.0
 (Enter /apps/easybuild-2022/easybuild/software/Compiler/NVHPC/22.11-CUDA-11.7.0/Gaussian/g16c01-CUDA-11.7.0/g16/l703.exe)
 Integral derivatives from FoFJK, PRISM(SPDF).
 Compute integral first derivatives, UseDBF=F ICtDFT=           0.
 Calling FoFJK, ICntrl=      2127 FMM=F ISym2X=0 I1Cent= 0 IOpClX= 0 NMat=1 NMatS=1 NMatT=0.
 FoFJK:  IHMeth= 1 ICntrl=    2127 DoSepK=F KAlg= 0 I1Cent=           0 FoldK=F
 IRaf=         0 NMat=       1 IRICut=       1 DoRegI=T DoRafI=F ISym2E= 0 IDoP0=0 IntGTp=1.
 FoFCou: FMM=F IPFlag=           0 FMFlag=      100000 FMFlg1=         800
         NFxFlg=           0 DoJE=F BraDBF=F KetDBF=F FulRan=T
         wScrn=  0.000000 ICntrl=      2127 IOpCl=  0 I1Cent=           0 NGrid=           0
         NMat0=    1 NMatS0=      1 NMatT0=    0 NMatD0=    1 NMtDS0=    0 NMtDT0=    0
 Symmetry not used in FoFCou.
 Leave Link  703 at Sat May 24 06:34:08 2025, MaxMem=  3758096384 cpu:              78.4 elap:              10.0
 (Enter /apps/easybuild-2022/easybuild/software/Compiler/NVHPC/22.11-CUDA-11.7.0/Gaussian/g16c01-CUDA-11.7.0/g16/l716.exe)
 Dipole        =-5.18041561D-01 1.28238547D+00-6.13133596D-02
 -------------------------------------------------------------------
 Center     Atomic                   Forces (Hartrees/Bohr)
 Number     Number              X              Y              Z
 -------------------------------------------------------------------
      1        6           0.006171783   -0.023770397   -0.010128029
      2        8          -0.018112447    0.038981457    0.005784076
      3        6          -0.000434763   -0.001427042    0.000021270
      4        6           0.019862088   -0.001105443    0.000392601
      5        9          -0.002487497   -0.003167478   -0.000451854
      6        9           0.000308959   -0.002412415    0.000063911
      7        9           0.099551832   -0.197896098    0.120606459
      8        9          -0.102783443    0.190712661   -0.117927528
      9        9           0.010761079   -0.000166443    0.001960025
     10        8          -0.013126932   -0.001174724    0.001041101
     11        1           0.000289342    0.001425924   -0.001362032
 -------------------------------------------------------------------
 Cartesian Forces:  Max     0.197896098 RMS     0.062223363
 Leave Link  716 at Sat May 24 06:34:08 2025, MaxMem=  3758096384 cpu:               0.0 elap:               0.0
 (Enter /apps/easybuild-2022/easybuild/software/Compiler/NVHPC/22.11-CUDA-11.7.0/Gaussian/g16c01-CUDA-11.7.0/g16/l103.exe)

 GradGradGradGradGradGradGradGradGradGradGradGradGradGradGradGradGradGrad
 Berny optimization.
 Using GEDIIS/GDIIS optimizer.
 FormGI is forming the generalized inverse of G from B-inverse, IUseBI=4.
 Internal  Forces:  Max     0.242283227 RMS     0.037926835
 Search for a local minimum.
 Step number   2 out of a maximum of   56
 All quantities printed in internal units (Hartrees-Bohrs-Radians)
 RMS Force = .37927D-01 SwitMx=.10000D-02 MixMth= 1
 Mixed Optimization -- RFO/linear search
 Update second derivatives using D2CorX and points    1    2
 DE= -5.25D-02 DEPred=-5.40D-02 R= 9.71D-01
 TightC=F SS=  1.41D+00  RLast= 3.35D-01 DXNew= 5.0454D-01 1.0062D+00
 Trust test= 9.71D-01 RLast= 3.35D-01 DXMaxT set to 5.05D-01
 ITU=  1  0
 Use linear search instead of GDIIS.
     Eigenvalues ---   -0.07098   0.00171   0.00380   0.01014   0.02647
     Eigenvalues ---    0.03958   0.05986   0.10012   0.12978   0.15752
     Eigenvalues ---    0.17542   0.18695   0.19495   0.20432   0.22095
     Eigenvalues ---    0.22780   0.27871   0.33216   0.37443   0.38763
     Eigenvalues ---    0.41114   0.44158   0.48242   0.51185   0.53866
     Eigenvalues ---    0.56744   0.61877
 Eigenvalue     1 is  -7.10D-02 should be greater than     0.000000 Eigenvector:
                          A15       A4        D16       D17       A14
   1                    0.56694  -0.30912  -0.29240  -0.28215  -0.23917
                          D18       R4        D19       D2        A5
   1                   -0.23416   0.22808   0.21499   0.16400   0.16132
 RFO step:  Lambda=-1.03684475D-01 EMin=-7.09839369D-02
 Quartic linear search produced a step of  1.64901.
 Maximum step size (   0.505) exceeded in Quadratic search.
    -- Step size scaled by   0.607
 Iteration  1 RMS(Cart)=  0.04666451 RMS(Int)=  0.02881425
 Iteration  2 RMS(Cart)=  0.02457692 RMS(Int)=  0.00154533
 Iteration  3 RMS(Cart)=  0.00021080 RMS(Int)=  0.00153210
 Iteration  4 RMS(Cart)=  0.00000016 RMS(Int)=  0.00153210
 ITry= 1 IFail=0 DXMaxC= 2.46D-01 DCOld= 1.00D+10 DXMaxT= 5.05D-01 DXLimC= 3.00D+00 Rises=F
 Variable       Old X    -DE/DX   Delta X   Delta X   Delta X     New X
                                 (Linear)    (Quad)   (Total)
    R1        2.57100   0.01561   0.04262  -0.02785   0.01557   2.58657
    R2        2.50450   0.02372  -0.02067   0.04635   0.02466   2.52916
    R3        2.51723  -0.00546  -0.00645  -0.00060  -0.00705   2.51017
    R4        2.61151   0.00011  -0.15251   0.19597   0.04539   2.65690
    R5        2.83116   0.01006  -0.02376   0.03795   0.01218   2.84334
    R6        2.50562   0.01016   0.00003   0.02423   0.02425   2.52988
    R7        2.52854   0.00200   0.00741  -0.00875  -0.00134   2.52720
    R8        2.52939   0.00153   0.01656  -0.02599  -0.00943   2.51996
    R9        2.47407   0.01042  -0.04499   0.10013   0.05412   2.52819
   R10        3.06395   0.24228   0.31363   0.09261   0.40730   3.47125
   R11        1.82296   0.00110   0.00169  -0.00026   0.00143   1.82438
    A1        2.10262   0.04099   0.03638   0.06175   0.09823   2.20085
    A2        2.02012  -0.03467  -0.06823  -0.01184  -0.08013   1.93999
    A3        2.15788  -0.00637   0.03171  -0.04885  -0.01724   2.14064
    A4        1.91858  -0.02496   0.11064  -0.20107  -0.08527   1.83331
    A5        2.20111   0.01653  -0.05432   0.10084   0.04343   2.24455
    A6        2.09799  -0.00798   0.01411  -0.03757  -0.02206   2.07593
    A7        1.98407  -0.00855   0.04067  -0.06346  -0.02141   1.96266
    A8        1.94277  -0.00305   0.01673  -0.01260   0.00454   1.94732
    A9        1.89810   0.01009  -0.00972   0.03502   0.02669   1.92479
   A10        1.94546  -0.00322  -0.04521   0.05714   0.00862   1.95409
   A11        1.86569  -0.00192  -0.00976   0.01041  -0.00007   1.86562
   A12        1.90251   0.00445   0.02130  -0.03781  -0.01598   1.88653
   A13        1.90735  -0.00643   0.02862  -0.05509  -0.02533   1.88202
   A14        1.81035  -0.01279   0.10026  -0.14033  -0.04282   1.76753
   A15        2.03821  -0.01204  -0.28147   0.31491   0.03670   2.07490
   A16        1.91722   0.00197   0.01241  -0.00876   0.00365   1.92087
    D1       -0.09585  -0.01395  -0.09372   0.07173  -0.02165  -0.11750
    D2        2.97160  -0.01510  -0.09451   0.08466  -0.00913   2.96247
    D3       -0.21967  -0.00934  -0.05053   0.06654   0.01742  -0.20225
    D4        2.91566  -0.00822  -0.01430   0.02605   0.01293   2.92859
    D5        3.00215  -0.00709  -0.04532   0.05039   0.00546   3.00761
    D6       -0.14571  -0.00597  -0.00909   0.00990   0.00097  -0.14474
    D7       -0.23245  -0.00158  -0.01690   0.00587  -0.01091  -0.24337
    D8        2.83238  -0.00059  -0.01771   0.02455   0.00671   2.83910
    D9        0.76700  -0.01230   0.02789  -0.06079  -0.03421   0.73278
   D10        1.89444  -0.00734   0.03812  -0.07079  -0.03303   1.86141
   D11       -2.33779  -0.00526   0.03007  -0.04385  -0.01341  -2.35119
   D12       -0.23383  -0.00864   0.03051  -0.05357  -0.02177  -0.25561
   D13       -1.24124  -0.00839   0.00417  -0.03261  -0.02876  -1.27000
   D14        0.80972  -0.00631  -0.00388  -0.00567  -0.00913   0.80059
   D15        2.91367  -0.00969  -0.00343  -0.01539  -0.01750   2.89617
   D16        0.77232  -0.01761   0.10676  -0.17634  -0.07076   0.70156
   D17       -1.37907  -0.01469   0.10069  -0.17233  -0.07109  -1.45016
   D18        2.87084  -0.01130   0.08512  -0.13271  -0.04889   2.82195
   D19       -1.17967   0.00502  -0.07549   0.13066   0.05203  -1.12764
         Item               Value     Threshold  Converged?
 Maximum Force            0.242283     0.000450     NO 
 RMS     Force            0.037927     0.000300     NO 
 Maximum Displacement     0.246008     0.001800     NO 
 RMS     Displacement     0.067480     0.001200     NO 
 Predicted change in Energy=-8.010749D-02
 Lowest energy point so far.  Saving SCF results.
 GradGradGradGradGradGradGradGradGradGradGradGradGradGradGradGradGradGrad

 Leave Link  103 at Sat May 24 06:34:08 2025, MaxMem=  3758096384 cpu:               0.1 elap:               0.0
 (Enter /apps/easybuild-2022/easybuild/software/Compiler/NVHPC/22.11-CUDA-11.7.0/Gaussian/g16c01-CUDA-11.7.0/g16/l202.exe)
                          Input orientation:                          
 ---------------------------------------------------------------------
 Center     Atomic      Atomic             Coordinates (Angstroms)
 Number     Number       Type             X           Y           Z
 ---------------------------------------------------------------------
      1          6           0        1.338979   -0.033447   -0.000621
      2          8           0       -0.022063    0.110588    0.016959
      3          6           0        2.008577   -1.188778   -0.090574
      4          6           0        1.482090   -2.591877    0.043719
      5          9           0        1.424696   -3.210970   -1.140298
      6          9           0        2.288503   -3.315802    0.820808
      7          9           0        0.259200   -2.617666    0.585704
      8          9           0       -0.528457   -1.176276   -0.236621
      9          9           0        3.322920   -1.157856   -0.343168
[...]
    A4        1.85174   0.00000   0.00000  -0.00008  -0.00008   1.85167
    A5        2.23176  -0.00002   0.00000  -0.00001  -0.00001   2.23175
    A6        2.09007  -0.00001   0.00000  -0.00011  -0.00011   2.08996
    A7        1.96098   0.00003   0.00000   0.00013   0.00013   1.96111
    A8        1.90381  -0.00000   0.00000  -0.00003  -0.00003   1.90378
    A9        1.93396   0.00001   0.00000   0.00009   0.00009   1.93405
   A10        1.97167   0.00001   0.00000   0.00004   0.00004   1.97171
   A11        1.87174   0.00000   0.00000   0.00000   0.00000   1.87174
   A12        1.89015  -0.00000   0.00000  -0.00003  -0.00003   1.89012
   A13        1.88942  -0.00001   0.00000  -0.00008  -0.00008   1.88934
   A14        1.81904  -0.00002   0.00000  -0.00015  -0.00015   1.81889
   A15        0.91771   0.00001   0.00000   0.00028   0.00028   0.91798
   A16        1.90945   0.00001   0.00000   0.00005   0.00005   1.90950
    D1       -2.05672   0.00001   0.00000   0.00054   0.00054  -2.05618
    D2        1.15925   0.00000   0.00000   0.00029   0.00029   1.15954
    D3        0.18811   0.00000   0.00000  -0.00030  -0.00030   0.18782
    D4       -2.92197  -0.00001   0.00000  -0.00046  -0.00046  -2.92243
    D5       -3.03133   0.00001   0.00000  -0.00004  -0.00004  -3.03137
    D6        0.14177   0.00000   0.00000  -0.00020  -0.00020   0.14157
    D7        0.21925   0.00000   0.00000  -0.00105  -0.00105   0.21820
    D8       -2.84523  -0.00001   0.00000  -0.00133  -0.00133  -2.84655
    D9        1.54477  -0.00002   0.00000  -0.00040  -0.00040   1.54437
   D10        2.37899  -0.00000   0.00000   0.00023   0.00023   2.37921
   D11       -1.84753   0.00000   0.00000   0.00026   0.00026  -1.84726
   D12        0.27602  -0.00000   0.00000   0.00025   0.00025   0.27628
   D13       -0.79218   0.00000   0.00000   0.00037   0.00037  -0.79181
   D14        1.26449   0.00001   0.00000   0.00041   0.00041   1.26490
   D15       -2.89514   0.00000   0.00000   0.00040   0.00040  -2.89474
   D16        0.03318  -0.00000   0.00000   0.00001   0.00001   0.03319
   D17       -2.07757  -0.00000   0.00000   0.00004   0.00004  -2.07753
   D18        2.18164   0.00001   0.00000   0.00010   0.00010   2.18174
   D19       -0.93605  -0.00001   0.00000  -0.00023  -0.00023  -0.93629
         Item               Value     Threshold  Converged?
 Maximum Force            0.000055     0.000450     YES
 RMS     Force            0.000016     0.000300     YES
 Maximum Displacement     0.000891     0.001800     YES
 RMS     Displacement     0.000292     0.001200     YES
 Predicted change in Energy=-4.377828D-08
 Optimization completed.
    -- Stationary point found.
                           ----------------------------
                           !   Optimized Parameters   !
                           ! (Angstroms and Degrees)  !
 --------------------------                            --------------------------
 ! Name  Definition              Value          Derivative Info.                !
 --------------------------------------------------------------------------------
 ! R1    R(1,2)                  1.3468         -DE/DX =    0.0                 !
 ! R2    R(1,3)                  1.332          -DE/DX =    0.0                 !
 ! R3    R(1,10)                 1.3341         -DE/DX =    0.0                 !
 ! R4    R(2,8)                  1.431          -DE/DX =   -0.0001              !
 ! R5    R(3,4)                  1.506          -DE/DX =    0.0                 !
 ! R6    R(3,9)                  1.3258         -DE/DX =    0.0                 !
 ! R7    R(4,5)                  1.333          -DE/DX =    0.0                 !
 ! R8    R(4,6)                  1.3357         -DE/DX =    0.0                 !
 ! R9    R(4,7)                  1.3238         -DE/DX =    0.0                 !
 ! R10   R(7,8)                  3.25           -DE/DX =    0.0                 !
 ! R11   R(10,11)                0.9641         -DE/DX =    0.0                 !
 ! A1    A(2,1,3)              119.1284         -DE/DX =    0.0                 !
 ! A2    A(2,1,10)             118.1339         -DE/DX =    0.0                 !
 ! A3    A(3,1,10)             122.5927         -DE/DX =    0.0                 !
 ! A4    A(1,2,8)              106.0971         -DE/DX =    0.0                 !
 ! A5    A(1,3,4)              127.8705         -DE/DX =    0.0                 !
 ! A6    A(1,3,9)              119.7524         -DE/DX =    0.0                 !
 ! A7    A(4,3,9)              112.3561         -DE/DX =    0.0                 !
 ! A8    A(3,4,5)              109.0803         -DE/DX =    0.0                 !
 ! A9    A(3,4,6)              110.8077         -DE/DX =    0.0                 !
 ! A10   A(3,4,7)              112.9683         -DE/DX =    0.0                 !
 ! A11   A(5,4,6)              107.2425         -DE/DX =    0.0                 !
 ! A12   A(5,4,7)              108.2975         -DE/DX =    0.0                 !
 ! A13   A(6,4,7)              108.256          -DE/DX =    0.0                 !
 ! A14   A(4,7,8)              104.2233         -DE/DX =    0.0                 !
 ! A15   A(2,8,7)               52.5806         -DE/DX =    0.0                 !
 ! A16   A(1,10,11)            109.4035         -DE/DX =    0.0                 !
 ! D1    D(3,1,2,8)           -117.8415         -DE/DX =    0.0                 !
 ! D2    D(10,1,2,8)            66.4199         -DE/DX =    0.0                 !
 ! D3    D(2,1,3,4)             10.7782         -DE/DX =    0.0                 !
 ! D4    D(2,1,3,9)           -167.4166         -DE/DX =    0.0                 !
 ! D5    D(10,1,3,4)          -173.6825         -DE/DX =    0.0                 !
 ! D6    D(10,1,3,9)             8.1227         -DE/DX =    0.0                 !
 ! D7    D(2,1,10,11)           12.562          -DE/DX =    0.0                 !
 ! D8    D(3,1,10,11)         -163.0194         -DE/DX =    0.0                 !
 ! D9    D(1,2,8,7)             88.5089         -DE/DX =    0.0                 !
 ! D10   D(1,3,4,5)            136.3061         -DE/DX =    0.0                 !
 ! D11   D(1,3,4,6)           -105.8556         -DE/DX =    0.0                 !
 ! D12   D(1,3,4,7)             15.815          -DE/DX =    0.0                 !
 ! D13   D(9,3,4,5)            -45.3885         -DE/DX =    0.0                 !
 ! D14   D(9,3,4,6)             72.4498         -DE/DX =    0.0                 !
 ! D15   D(9,3,4,7)           -165.8795         -DE/DX =    0.0                 !
 ! D16   D(3,4,7,8)              1.9008         -DE/DX =    0.0                 !
 ! D17   D(5,4,7,8)           -119.0359         -DE/DX =    0.0                 !
 ! D18   D(6,4,7,8)            124.9988         -DE/DX =    0.0                 !
 ! D19   D(4,7,8,2)            -53.6319         -DE/DX =    0.0                 !
 --------------------------------------------------------------------------------
 GradGradGradGradGradGradGradGradGradGradGradGradGradGradGradGradGradGrad

 Leave Link  103 at Sat May 24 06:50:24 2025, MaxMem=  3758096384 cpu:               0.0 elap:               0.0
 (Enter /apps/easybuild-2022/easybuild/software/Compiler/NVHPC/22.11-CUDA-11.7.0/Gaussian/g16c01-CUDA-11.7.0/g16/l9999.exe)

 ----------------------------------------------------------------------

 Electric dipole moment (input orientation):
 (Debye = 10**-18 statcoulomb cm , SI units = C m)
                  (au)            (Debye)         (10**-30 SI)
   Tot        0.962608D+00      0.244670D+01      0.816133D+01
   x         -0.760097D-01     -0.193197D+00     -0.644437D+00
   y          0.930924D+00      0.236617D+01      0.789270D+01
   z          0.232845D+00      0.591834D+00      0.197415D+01

 Dipole polarizability, Alpha (input orientation).
 (esu units = cm**3 , SI units = C**2 m**2 J**-1)
 Alpha(0;0):
               (au)            (10**-24 esu)      (10**-40 SI)
   iso        0.512332D+02      0.759198D+01      0.844721D+01
   aniso      0.293332D+02      0.434673D+01      0.483639D+01
   xx         0.566735D+02      0.839815D+01      0.934420D+01
   yx        -0.116938D+02     -0.173284D+01     -0.192804D+01
   yy         0.597414D+02      0.885276D+01      0.985002D+01
   zx        -0.687628D+00     -0.101896D+00     -0.113374D+00
   zy        -0.114891D+01     -0.170251D+00     -0.189430D+00
   zz         0.372846D+02      0.552501D+01      0.614741D+01

 ----------------------------------------------------------------------

 Dipole orientation:
     6          2.40941830          0.16328948         -0.53187219
     8          0.26804190         -1.16826177         -0.18671275
     6          3.62006597         -0.01198401         -2.73169567
     6          2.70170487         -1.21881966         -5.14001341
     9          3.26737320          0.28316638         -7.08146752
     9          3.86306508         -3.42444466         -5.53723230
     9          0.23249616         -1.62016001         -5.15092901
     9         -1.68946104          0.65237448          0.22140442
     9          5.94691670          0.89172215         -2.94572143
     8          3.31659644          1.48160707          1.41621743
     1          2.45820105          0.97576318          2.94159235

 Electric dipole moment (dipole orientation):
 (Debye = 10**-18 statcoulomb cm , SI units = C m)
                  (au)            (Debye)         (10**-30 SI)
   Tot        0.962608D+00      0.244670D+01      0.816133D+01
   x          0.000000D+00      0.000000D+00      0.000000D+00
   y          0.000000D+00      0.000000D+00      0.000000D+00
   z          0.962608D+00      0.244670D+01      0.816133D+01

 Dipole polarizability, Alpha (dipole orientation).
 (esu units = cm**3 , SI units = C**2 m**2 J**-1)
 Alpha(0;0):
               (au)            (10**-24 esu)      (10**-40 SI)
   iso        0.512332D+02      0.759198D+01      0.844721D+01
   aniso      0.293332D+02      0.434673D+01      0.483639D+01
   xx         0.550142D+02      0.815226D+01      0.907061D+01
   yx        -0.685621D+00     -0.101599D+00     -0.113044D+00
   yy         0.390024D+02      0.577956D+01      0.643063D+01
   zx        -0.116493D+02     -0.172624D+01     -0.192070D+01
   zy         0.574395D+01      0.851165D+00      0.947049D+00
   zz         0.596830D+02      0.884411D+01      0.984040D+01

 ----------------------------------------------------------------------
 Unable to Open any file for archive entry.
 1\1\GINC-SPARTAN-BM208\Freq\RM062X\def2TZVPP\C3H1F5O2\AKHALILOV\24-May
 -2025\0\\#P Geom=AllCheck Guess=TCheck SCRF=Check GenChk RM062X/def2TZ
 VPP Freq\\Gaussian input prepared by ASE\\0,1\C,1.2961454968,-0.172455
 5514,-0.0509683759\O,0.1109174034,-0.2394748187,0.5851694967\C,2.01979
 27651,-1.2817442246,-0.19226701\C,1.59761951,-2.7017908531,0.078697524
 8\F,2.0254521574,-3.480693446,-0.9148331725\F,2.1539286142,-3.15546804
 17,1.2051295305\F,0.2849276489,-2.8401612596,0.1795140147\F,-0.8775595
 91,0.1435716152,-0.3761127066\F,3.2832758502,-1.197482973,-0.584915552
 6\O,1.7352888527,1.026267245,-0.4383626136\H,1.2031286781,1.7128678328
 ,-0.020108064\\Version=ES64L-G16RevC.01\HF=-764.4912446\RMSD=2.266e-09
 \RMSF=2.414e-05\ZeroPoint=0.0503579\Thermal=0.0599163\ETot=-764.431328
 3\HTot=-764.4303841\GTot=-764.4773661\Dipole=-0.0760097,0.9309238,0.23
 28453\DipoleDeriv=0.3256778,0.3202181,-0.1884642,0.2386458,1.5287703,-
 0.1584151,-0.0415538,-0.4077008,0.1934728,0.5672561,-0.5681639,0.15568
 66,-0.2009763,-0.2200365,-0.0766578,0.613045,-0.150686,0.0195265,1.093
 8679,-0.3200874,-0.2860093,-0.0042112,-0.2233403,0.0022371,-0.3583289,
 0.0942313,0.0179466,1.4484999,0.0939048,0.0544186,-0.428735,2.0982335,
 0.0212244,0.1071382,-0.1082246,1.69187,-0.338787,0.1157754,0.1314951,0
 .2191729,-0.7545339,-0.2922118,0.1623971,-0.263801,-0.6128585,-0.38387
 49,0.0857975,-0.2029021,0.2026544,-0.6383195,0.2375125,-0.2746727,0.29
 06653,-0.72416,-0.7742635,-0.1529689,0.0416934,-0.0938643,-0.4220757,0
 .03011,0.0332411,0.0511285,-0.2741942,-0.8201911,0.383025,0.0173064,0.
 2009233,-0.1482053,0.0418369,-0.6207821,0.3260646,-0.1650348,-1.084563
 4,0.3381378,0.2270449,-0.0677861,-0.213355,0.0320844,0.3234166,-0.0847
 183,-0.1446135,-0.3229409,-0.2565021,-0.001385,-0.0642673,-1.4560911,0
 .1488485,0.000719,0.2671516,-0.2975723,0.2893191,-0.0391363,0.0511157,
 -0.0015563,0.4489534,0.0134308,0.0553805,-0.0141106,0.2956173\Polar=56
 .673536,-11.6937735,59.7413883,-0.6876277,-1.1489109,37.2846427\PG=Unk
 nown\NImag=0\\0.61540925,-0.16366327,0.88223411,-0.16486347,-0.0504979
 6,0.26525685,-0.19425669,-0.04675735,0.11022319,0.36789314,-0.00817379
 ,-0.07186626,0.01584762,-0.00574039,0.11140852,0.11648558,0.00432351,-
 0.15887229,-0.06886514,-0.08019889,0.32270925,-0.19914774,0.22968371,0
 .01976440,-0.05470435,0.02178796,0.00328986,0.69086186,0.18287287,-0.4
 1021058,-0.02438383,0.02251611,0.00439943,0.00299116,-0.16029024,0.812
 42965,0.01996087,-0.03782549,-0.04789608,0.03085163,-0.01528281,-0.008
 47235,-0.15473005,-0.01700063,0.20183578,0.01901234,0.01193431,-0.0067
 6652,0.00562168,-0.00625239,0.00311329,-0.07282644,-0.03102686,0.00719
 584,0.60144390,0.00031409,-0.03386247,0.00764197,0.01074070,-0.0007802
 2,0.00641746,-0.05191466,-0.20453254,0.03303393,0.02632218,0.61153480,
 -0.00386469,0.00154983,0.00105002,-0.00265792,-0.00270065,-0.00579665,
 0.00776417,0.02184758,-0.06275076,-0.01707547,-0.01137335,0.53489244,-
 0.00060989,-0.00242383,0.00092355,-0.00004888,0.00080674,-0.00007948,0
 .00232501,0.00263453,0.00415039,-0.09271925,0.03880302,0.04420096,0.11
 854809,-0.00631098,0.00386141,-0.00215969,-0.00370684,-0.00020461,-0.0
 0259840,0.02092705,-0.04374455,-0.03916423,0.03548188,-0.18002097,-0.1
 0012125,-0.06709202,0.19683187,-0.00194075,0.00052581,-0.00002929,-0.0
 0082677,-0.00020924,0.00003842,0.01126243,-0.01523831,-0.00520046,0.04
 066890,-0.10066663,-0.17856396,-0.08396424,0.15385777,0.27777684,-0.00
 033414,-0.00183018,0.00045784,-0.00026574,0.00089330,-0.00022019,0.003
 83705,0.00271080,-0.00255650,-0.10396215,0.03061851,-0.06404293,0.0151
 0950,-0.00330715,-0.00115174,0.13895823,-0.00414092,0.00652456,0.00222
 463,-0.00307985,0.00052519,-0.00084216,0.02316187,-0.02609524,0.037618
 76,0.03202827,-0.12017445,0.07967177,-0.00573028,0.01901791,-0.0243615
 7,-0.05123105,0.11302706,0.00390764,-0.00296278,-0.00235599,0.00117087
 ,0.00054204,0.00070024,-0.01728446,0.02288325,-0.01660284,-0.06350222,
 0.07599482,-0.21838162,-0.01059293,-0.00838085,-0.08652056,0.12185698,
 -0.09648882,0.32733255,-0.00371669,0.00229475,0.00013876,-0.00260844,0
 .00412891,-0.00276484,-0.03134532,-0.00423954,0.00437748,-0.30713829,-
 0.05192108,0.02143126,-0.04853971,0.02093706,0.03824662,-0.05915278,0.
 00953594,-0.03640620,0.44833008,0.00232638,0.00334567,-0.00169620,-0.0
 0211972,-0.01198867,-0.00259013,-0.03319572,0.00431982,0.00300801,-0.0
 4748658,-0.09639367,0.00620148,0.03474071,0.01002917,-0.01338896,0.020
 05939,0.01403426,0.00419406,0.03132064,0.08648131,0.00097242,-0.001028
 27,-0.00021050,0.00103592,-0.00267885,0.00100747,0.00870297,0.00332690
 ,0.00627251,0.02197020,0.00524906,-0.07645239,0.04892626,-0.00893834,-
 0.01031994,-0.05226387,0.00186267,-0.00465852,-0.02953301,-0.00037252,
 0.08421524,-0.08366632,0.04250722,-0.01860050,-0.09908653,0.03267287,-
 0.08779261,0.01525180,-0.01447090,-0.00906137,-0.00825525,-0.01195152,
 0.00119392,0.00048799,0.00298471,0.00035464,0.00052011,0.00397484,-0.0
 0183274,0.00504974,0.00175600,-0.00087612,0.17657092,0.01710670,-0.013
 27350,-0.00069860,0.03544104,-0.02441753,0.05127200,-0.00041115,0.0081
 1604,0.00489022,0.00126230,0.00169288,0.00136451,-0.00008699,-0.000363
 93,-0.00025194,-0.00017665,-0.00055271,0.00014308,-0.00098852,-0.00004
 941,-0.00006049,-0.05185257,0.02528932,-0.02897231,0.01907314,0.027830
 94,-0.08621385,0.05095340,-0.15547637,0.01531826,-0.00964622,-0.004595
 17,-0.00535396,-0.00911612,0.00136218,0.00018139,0.00259780,0.00043120
 ,0.00037358,0.00255202,-0.00109538,0.00361711,0.00151253,-0.00052353,0
 .10815735,-0.04908167,0.12769598,-0.05713935,-0.01942458,0.02432905,0.
 01167989,0.00512050,0.00985914,-0.35987900,-0.01012345,0.09866514,-0.0
 3899297,0.00284111,0.01079868,0.00486285,-0.00019129,-0.00271312,0.004
 89496,-0.00258960,0.00223434,-0.00070719,-0.00629762,0.00105800,-0.010
 77097,0.00127539,-0.00922938,0.43530687,0.03095949,0.00646147,-0.00908
 141,0.00441467,-0.00314651,-0.00009918,-0.01732942,-0.07640161,0.00883
 627,-0.03222208,0.00198693,0.00773792,-0.00222703,0.00164758,0.0018393
 5,0.00164475,0.00096770,-0.00055420,-0.00686571,-0.00742932,0.00148159
 ,0.00098671,-0.00129941,-0.00039677,0.01908711,0.07067599,0.02180264,0
 .00206826,-0.00643468,-0.00912839,0.00424256,0.01293229,0.09974110,0.0
 0950776,-0.07003952,0.01677727,-0.00289668,-0.00382549,-0.00300028,0.0
 0141397,0.00211305,-0.00204710,-0.00090117,0.00097013,0.00039935,0.002
 18747,0.00139300,0.00979753,-0.00431361,0.00331072,-0.12938670,-0.0076
 5613,0.06238560,-0.10339507,-0.03755317,0.04291615,-0.03683952,-0.0434
 5404,0.02489382,0.00783524,0.01486380,-0.00088017,-0.00388965,0.004207
 45,0.00146943,0.00062276,0.00047504,0.00015699,0.00045687,-0.00081365,
 -0.00013856,0.00047592,-0.00095748,-0.00014525,0.00658501,-0.00262662,
 0.00479891,0.00987455,0.00056684,-0.00395023,0.29685426,-0.07333897,-0
 .32667614,0.07864346,-0.01616594,-0.01013235,0.02216013,-0.02997159,-0
 .06651685,0.02127721,0.00882231,0.02263693,-0.00517777,0.00081560,-0.0
 0773494,-0.00220020,0.00081364,-0.00755171,0.00476076,-0.00422820,-0.0
 0288689,0.00127642,-0.00510727,0.00524497,-0.00724647,0.01230467,0.005
 75240,-0.00368286,-0.10343763,0.65624284,0.04736542,0.05004226,-0.0823
 5232,0.02294684,0.03044058,-0.00885526,0.00455520,0.00407632,0.0083671
 6,0.00311673,-0.00494195,0.00638143,-0.00075906,0.00267025,0.00015773,
 -0.00035828,-0.00083336,0.00058432,0.00051380,0.00102826,-0.00062478,-
 0.00172595,-0.00380292,0.00203873,-0.00566982,-0.00235044,-0.00193901,
 -0.20968859,0.05393892,0.18655108,0.00784429,-0.01476762,-0.00852243,0
 .00261544,-0.00178968,0.00208058,-0.00220812,-0.00544711,0.00202674,0.
 00170606,0.00194020,0.00078258,-0.00003848,-0.00019745,-0.00009294,-0.
 00006191,-0.00111557,0.00058726,-0.00064732,-0.00014600,0.00015247,-0.
 00268651,0.00105707,-0.00267711,0.00087036,0.00098468,-0.00100518,-0.1
 7858038,0.20949338,0.13970372,0.17118656,0.02204838,-0.04653827,-0.015
 84000,0.00445757,0.00620301,-0.00083548,-0.00244780,-0.00176358,0.0006
 0876,0.00113665,-0.00208723,0.00099992,-0.00024045,0.00068105,0.000093
 92,-0.00019536,0.00027744,-0.00013136,0.00002576,0.00053773,-0.0001181
 7,-0.00150009,-0.00038672,-0.00120165,-0.00200223,0.00078477,0.0000304
 1,0.16872947,-0.26837825,-0.13026792,-0.19001190,0.31067006,-0.0108533
 6,0.01473169,0.00401333,0.00146361,-0.00095578,0.00008525,0.00161613,0
 .00163601,-0.00091827,-0.00014405,0.00065749,0.00208481,0.00001344,0.0
 0082296,0.00011697,-0.00004780,-0.00050277,0.00002767,-0.00002032,-0.0
 0008399,-0.00009856,0.00038585,0.00053941,-0.00097930,0.00005468,0.000
 24301,-0.00086608,0.14056751,-0.16374959,-0.11030908,-0.13303568,0.146
 66157,0.10684326\\-0.00000359,0.00004258,-0.00002072,0.00003524,-0.000
 06425,0.00004164,0.00001036,0.00001778,-0.00000464,-0.00001482,-0.0000
 4670,0.00000552,0.00000146,0.00000236,0.00000435,0.00001150,0.00000682
 ,-0.00000155,0.00002516,0.00002404,-0.00000221,-0.00004257,0.00001299,
 -0.00002916,-0.00003497,-0.00001250,0.00001774,0.00001189,0.00002614,-
 0.00001162,0.00000033,-0.00000924,0.00000065\\\@
 The archive entry for this job was punched.


 IT IS NOT EASY TO DESCRIBE
     THE SEA WITH THE MOUTH

                   -- KOKYU
 Job cpu time:       0 days  0 hours 24 minutes 18.8 seconds.
 Elapsed time:       0 days  0 hours  3 minutes  5.9 seconds.
 File lengths (MBytes):  RWF=    116 Int=      0 D2E=      0 Chk=      9 Scr=      1
 Normal termination of Gaussian 16 at Sat May 24 06:50:24 2025.
done
