 Entering Gaussian System, Link 0=g16
 Initial command:
 /apps/easybuild-2022/easybuild/software/Compiler/NVHPC/22.11-CUDA-11.7.0/Gaussian/g16c01-CUDA-11.7.0/g16/l1.exe "/tmp/Gau-256352.inp" -scrdir="/tmp/"
 Entering Link 1 = /apps/easybuild-2022/easybuild/software/Compiler/NVHPC/22.11-CUDA-11.7.0/Gaussian/g16c01-CUDA-11.7.0/g16/l1.exe PID=    256354.
  
 Copyright (c) 1988-2019, Gaussian, Inc.  All Rights Reserved.
  
 This is part of the Gaussian(R) 16 program.  It is based on
 the Gaussian(R) 09 system (copyright 2009, Gaussian, Inc.),
 the Gaussian(R) 03 system (copyright 2003, Gaussian, Inc.),
 the Gaussian(R) 98 system (copyright 1998, Gaussian, Inc.),
 the Gaussian(R) 94 system (copyright 1995, Gaussian, Inc.),
 the Gaussian 92(TM) system (copyright 1992, Gaussian, Inc.),
 the Gaussian 90(TM) system (copyright 1990, Gaussian, Inc.),
 the Gaussian 88(TM) system (copyright 1988, Gaussian, Inc.),
 the Gaussian 86(TM) system (copyright 1986, Carnegie Mellon
 University), and the Gaussian 82(TM) system (copyright 1983,
 Carnegie Mellon University). Gaussian is a federally registered
 trademark of Gaussian, Inc.
  
 This software contains proprietary and confidential information,
 including trade secrets, belonging to Gaussian, Inc.
  
 This software is provided under written license and may be
 used, copied, transmitted, or stored only in accord with that
 written license.
  
 The following legend is applicable only to US Government
 contracts under FAR:
  
                    RESTRICTED RIGHTS LEGEND
  
 Use, reproduction and disclosure by the US Government is
 subject to restrictions as set forth in subparagraphs (a)
 and (c) of the Commercial Computer Software - Restricted
 Rights clause in FAR 52.227-19.
  
 Gaussian, Inc.
 340 Quinnipiac St., Bldg. 40, Wallingford CT 06492
  
  
 ---------------------------------------------------------------
 Warning -- This program may not be used in any manner that
 competes with the business of Gaussian, Inc. or will provide
 assistance to any competitor of Gaussian, Inc.  The licensee
 of this program is prohibited from giving any competitor of
 Gaussian, Inc. access to this program.  By using this program,
 the user acknowledges that Gaussian, Inc. is engaged in the
 business of creating and licensing software in the field of
 computational chemistry and represents and warrants to the
 licensee that it is not a competitor of Gaussian, Inc. and that
 it will not use this program in any manner prohibited above.
 ---------------------------------------------------------------
  

 Cite this work as:
 Gaussian 16, Revision C.01,
 M. J. Frisch, G. W. Trucks, H. B. Schlegel, G. E. Scuseria, 
 M. A. Robb, J. R. Cheeseman, G. Scalmani, V. Barone, 
 G. A. Petersson, H. Nakatsuji, X. Li, M. Caricato, A. V. Marenich, 
 J. Bloino, B. G. Janesko, R. Gomperts, B. Mennucci, H. P. Hratchian, 
 J. V. Ortiz, A. F. Izmaylov, J. L. Sonnenberg, D. Williams-Young, 
 F. Ding, F. Lipparini, F. Egidi, J. Goings, B. Peng, A. Petrone, 
 T. Henderson, D. Ranasinghe, V. G. Zakrzewski, J. Gao, N. Rega, 
 G. Zheng, W. Liang, M. Hada, M. Ehara, K. Toyota, R. Fukuda, 
 J. Hasegawa, M. Ishida, T. Nakajima, Y. Honda, O. Kitao, H. Nakai, 
 T. Vreven, K. Throssell, J. A. Montgomery, Jr., J. E. Peralta, 
 F. Ogliaro, M. J. Bearpark, J. J. Heyd, E. N. Brothers, K. N. Kudin, 
 V. N. Staroverov, T. A. Keith, R. Kobayashi, J. Normand, 
 K. Raghavachari, A. P. Rendell, J. C. Burant, S. S. Iyengar, 
 J. Tomasi, M. Cossi, J. M. Millam, M. Klene, C. Adamo, R. Cammi, 
 J. W. Ochterski, R. L. Martin, K. Morokuma, O. Farkas, 
 J. B. Foresman, and D. J. Fox, Gaussian, Inc., Wallingford CT, 2019.
 
 ******************************************
 Gaussian 16:  ES64L-G16RevC.01  3-Jul-2019
                24-May-2025 
 ******************************************
 %mem=28GB
 %nprocshared=8
 Will use up to    8 processors via shared memory.
 -----------------------------------------------------------------
 #P M062X/Def2TZVPP Symm(None) scf(xqc) pop(None) freq opt(CalcFC)
 -----------------------------------------------------------------
 1/10=4,18=20,19=15,26=3,38=1/1,3;
 2/9=110,12=2,15=3,17=6,18=5,40=1/2;
 3/5=44,7=202,11=2,25=1,30=1,71=2,74=-55,140=1/1,2,3;
 4//1;
 5/5=2,8=3,13=1,38=5/2,8;
 8/6=4,10=90,11=11/1;
 11/6=1,8=1,9=11,15=111,16=1,31=1/1,2,10;
 10/6=1,13=1,31=1/2;
 7/10=1,25=1,30=1/1,2,3,16;
 1/10=4,18=20,19=15,26=3/3(2);
 2/9=110,15=3/2;
 99//99;
 2/9=110,15=3/2;
 3/5=44,7=202,11=2,25=1,30=1,71=1,74=-55/1,2,3;
 4/5=5,16=3,69=1/1;
 5/5=2,8=3,13=1,38=5/2,8;
 7/30=1/1,2,3,16;
 1/18=20,19=15,26=3/3(-5);
 2/9=110,15=3/2;
 99/9=1/99;
 Leave Link    1 at Sat May 24 06:29:41 2025, MaxMem=  3758096384 cpu:               0.0 elap:               0.0
 (Enter /apps/easybuild-2022/easybuild/software/Compiler/NVHPC/22.11-CUDA-11.7.0/Gaussian/g16c01-CUDA-11.7.0/g16/l101.exe)
 ------------------------------
 Gaussian input prepared by ASE
 ------------------------------
 Symbolic Z-matrix:
 Charge =  0 Multiplicity = 1
 C                     1.34684   0.        0. 
 O                     0.        0.        0. 
 C                     1.9968   -1.15946  -0.08556 
 C                     1.43195  -2.55006   0.0354 
 F                     1.39628  -3.15125  -1.15679 
 F                     2.22716  -3.27692   0.82069 
 F                     0.21139  -2.57068   0.54713 
 F                    -0.39638   0.54921   1.26044 
 F                     3.29903  -1.16609  -0.33495 
 O                     1.97554   1.17671   0. 
 H                     2.36466   1.33221   0.8683 
 
 ITRead=  0  0  0  0  0  0  0  0  0  0  0
 MicOpt= -1 -1 -1 -1 -1 -1 -1 -1 -1 -1 -1
 NAtoms=     11 NQM=       11 NQMF=       0 NMMI=      0 NMMIF=      0
                NMic=       0 NMicF=      0.
                    Isotopes and Nuclear Properties:
 (Nuclear quadrupole moments (NQMom) in fm**2, nuclear magnetic moments (NMagM)
  in nuclear magnetons)

  Atom         1           2           3           4           5           6           7           8           9          10
 IAtWgt=          12          16          12          12          19          19          19          19          19          16
 AtmWgt=  12.0000000  15.9949146  12.0000000  12.0000000  18.9984032  18.9984032  18.9984032  18.9984032  18.9984032  15.9949146
 NucSpn=           0           0           0           0           1           1           1           1           1           0
 AtZEff=  -0.0000000  -0.0000000  -0.0000000  -0.0000000  -0.0000000  -0.0000000  -0.0000000  -0.0000000  -0.0000000  -0.0000000
 NQMom=    0.0000000   0.0000000   0.0000000   0.0000000   0.0000000   0.0000000   0.0000000   0.0000000   0.0000000   0.0000000
 NMagM=    0.0000000   0.0000000   0.0000000   0.0000000   2.6288670   2.6288670   2.6288670   2.6288670   2.6288670   0.0000000
 AtZNuc=   6.0000000   8.0000000   6.0000000   6.0000000   9.0000000   9.0000000   9.0000000   9.0000000   9.0000000   8.0000000

  Atom        11
 IAtWgt=           1
 AtmWgt=   1.0078250
 NucSpn=           1
 AtZEff=  -0.0000000
 NQMom=    0.0000000
 NMagM=    2.7928460
 AtZNuc=   1.0000000
 Leave Link  101 at Sat May 24 06:29:41 2025, MaxMem=  3758096384 cpu:               0.2 elap:               0.2
 (Enter /apps/easybuild-2022/easybuild/software/Compiler/NVHPC/22.11-CUDA-11.7.0/Gaussian/g16c01-CUDA-11.7.0/g16/l103.exe)

 GradGradGradGradGradGradGradGradGradGradGradGradGradGradGradGradGradGrad
 Berny optimization.
 Initialization pass.
                           ----------------------------
                           !    Initial Parameters    !
                           ! (Angstroms and Degrees)  !
 --------------------------                            --------------------------
 ! Name  Definition              Value          Derivative Info.                !
 --------------------------------------------------------------------------------
 ! R1    R(1,2)                  1.3468         calculate D2E/DX2 analytically  !
 ! R2    R(1,3)                  1.332          calculate D2E/DX2 analytically  !
 ! R3    R(1,10)                 1.3341         calculate D2E/DX2 analytically  !
 ! R4    R(2,8)                  1.4309         calculate D2E/DX2 analytically  !
 ! R5    R(3,4)                  1.5058         calculate D2E/DX2 analytically  !
 ! R6    R(3,9)                  1.3259         calculate D2E/DX2 analytically  !
 ! R7    R(4,5)                  1.3357         calculate D2E/DX2 analytically  !
 ! R8    R(4,6)                  1.3332         calculate D2E/DX2 analytically  !
 ! R9    R(4,7)                  1.3237         calculate D2E/DX2 analytically  !
 ! R10   R(10,11)                0.9641         calculate D2E/DX2 analytically  !
 ! A1    A(2,1,3)              119.2075         calculate D2E/DX2 analytically  !
 ! A2    A(2,1,10)             118.115          calculate D2E/DX2 analytically  !
 ! A3    A(3,1,10)             122.5355         calculate D2E/DX2 analytically  !
 ! A4    A(1,2,8)              106.0823         calculate D2E/DX2 analytically  !
 ! A5    A(1,3,4)              128.0019         calculate D2E/DX2 analytically  !
 ! A6    A(1,3,9)              119.7157         calculate D2E/DX2 analytically  !
 ! A7    A(4,3,9)              112.2655         calculate D2E/DX2 analytically  !
 ! A8    A(3,4,5)              110.7316         calculate D2E/DX2 analytically  !
 ! A9    A(3,4,6)              109.0907         calculate D2E/DX2 analytically  !
 ! A10   A(3,4,7)              113.0377         calculate D2E/DX2 analytically  !
 ! A11   A(5,4,6)              107.2352         calculate D2E/DX2 analytically  !
 ! A12   A(5,4,7)              108.266          calculate D2E/DX2 analytically  !
 ! A13   A(6,4,7)              108.2885         calculate D2E/DX2 analytically  !
 ! A14   A(1,10,11)            109.4176         calculate D2E/DX2 analytically  !
 ! D1    D(3,1,2,8)            117.7646         calculate D2E/DX2 analytically  !
 ! D2    D(10,1,2,8)           -66.4557         calculate D2E/DX2 analytically  !
 ! D3    D(2,1,3,4)            -10.8306         calculate D2E/DX2 analytically  !
 ! D4    D(2,1,3,9)            167.5518         calculate D2E/DX2 analytically  !
 ! D5    D(10,1,3,4)           173.585          calculate D2E/DX2 analytically  !
 ! D6    D(10,1,3,9)            -8.0326         calculate D2E/DX2 analytically  !
 ! D7    D(2,1,10,11)          107.2687         calculate D2E/DX2 analytically  !
 ! D8    D(3,1,10,11)          -77.101          calculate D2E/DX2 analytically  !
 ! D9    D(1,3,4,5)            107.2192         calculate D2E/DX2 analytically  !
 ! D10   D(1,3,4,6)           -134.99           calculate D2E/DX2 analytically  !
 ! D11   D(1,3,4,7)            -14.4578         calculate D2E/DX2 analytically  !
 ! D12   D(9,3,4,5)            -71.2627         calculate D2E/DX2 analytically  !
 ! D13   D(9,3,4,6)             46.5281         calculate D2E/DX2 analytically  !
 ! D14   D(9,3,4,7)            167.0603         calculate D2E/DX2 analytically  !
 --------------------------------------------------------------------------------
 Trust Radius=3.00D-01 FncErr=1.00D-07 GrdErr=1.00D-06 EigMax=2.50D+02 EigMin=1.00D-04
 Number of steps in this run=     48 maximum allowed number of steps=    100.
 GradGradGradGradGradGradGradGradGradGradGradGradGradGradGradGradGradGrad

 Leave Link  103 at Sat May 24 06:29:41 2025, MaxMem=  3758096384 cpu:               0.0 elap:               0.0
 (Enter /apps/easybuild-2022/easybuild/software/Compiler/NVHPC/22.11-CUDA-11.7.0/Gaussian/g16c01-CUDA-11.7.0/g16/l202.exe)
                          Input orientation:                          
 ---------------------------------------------------------------------
 Center     Atomic      Atomic             Coordinates (Angstroms)
 Number     Number       Type             X           Y           Z
 ---------------------------------------------------------------------
      1          6           0        1.346841    0.000000    0.000000
      2          8           0        0.000000    0.000000    0.000000
      3          6           0        1.996801   -1.159457   -0.085557
      4          6           0        1.431954   -2.550061    0.035396
      5          9           0        1.396277   -3.151250   -1.156791
      6          9           0        2.227164   -3.276921    0.820691
      7          9           0        0.211387   -2.570682    0.547125
      8          9           0       -0.396384    0.549213    1.260438
      9          9           0        3.299031   -1.166093   -0.334947
     10          8           0        1.975539    1.176707    0.000000
     11          1           0        2.364659    1.332210    0.868299
 ---------------------------------------------------------------------
                    Distance matrix (angstroms):
                    1          2          3          4          5
     1  C    0.000000
     2  O    1.346841   0.000000
     3  C    1.331957   2.310601   0.000000
     4  C    2.551726   2.924817   1.505809   0.000000
     5  F    3.357229   3.635675   2.339959   1.335669   0.000000
     6  F    3.490948   4.046234   2.314737   1.333181   2.148628
     7  F    2.863042   2.636747   2.362107   1.323661   2.155077
     8  F    2.220174   1.430894   3.233975   3.801190   4.769702
     9  F    2.298479   3.515048   1.325911   2.353400   2.869973
    10  O    1.334129   2.299434   2.337827   3.766369   4.517180
    11  H    1.888036   2.849621   2.693245   4.078688   5.013997
                    6          7          8          9         10
     6  F    0.000000
     7  F    2.153363   0.000000
     8  F    4.660009   3.257598   0.000000
     9  F    2.634386   3.504920   4.375342   0.000000
    10  O    4.535599   4.177859   2.758346   2.711555   0.000000
    11  H    4.611428   4.469038   2.896586   2.926153   0.964126
                   11
    11  H    0.000000
 Symmetry turned off by external request.
 Stoichiometry    C3HF5O2
 Rotational constants (GHZ):           1.9621599           1.0331851           0.7940118
 Leave Link  202 at Sat May 24 06:29:41 2025, MaxMem=  3758096384 cpu:               0.0 elap:               0.0
 (Enter /apps/easybuild-2022/easybuild/software/Compiler/NVHPC/22.11-CUDA-11.7.0/Gaussian/g16c01-CUDA-11.7.0/g16/l301.exe)
 Standard basis: def2TZVPP (5D, 7F)
 Ernie: Thresh=  0.10000D-02 Tol=  0.10000D-05 Strict=F.
   324 basis functions,   527 primitive gaussians,   375 cartesian basis functions
    40 alpha electrons       40 beta electrons
       nuclear repulsion energy       613.2185335212 Hartrees.
 IExCor= 4336 DFT=T Ex+Corr=M062X ExCW=0 ScaHFX=  0.540000
 ScaDFX=  1.000000  1.000000  1.000000  1.000000 ScalE2=  1.000000  1.000000
 IRadAn=      5 IRanWt=     -1 IRanGd=            0 ICorTp=0 IEmpDi=  4
 NAtoms=   11 NActive=   11 NUniq=   11 SFac= 1.00D+00 NAtFMM=   60 NAOKFM=F Big=F
 Integral buffers will be    131072 words long.
 Raffenetti 2 integral format.
 Two-electron integral symmetry is turned off.
 Leave Link  301 at Sat May 24 06:29:41 2025, MaxMem=  3758096384 cpu:               0.0 elap:               0.0
 (Enter /apps/easybuild-2022/easybuild/software/Compiler/NVHPC/22.11-CUDA-11.7.0/Gaussian/g16c01-CUDA-11.7.0/g16/l302.exe)
 NPDir=0 NMtPBC=     1 NCelOv=     1 NCel=       1 NClECP=     1 NCelD=      1
         NCelK=      1 NCelE2=     1 NClLst=     1 CellRange=     0.0.
 One-electron integrals computed using PRISM.
   1 Symmetry operations used in ECPInt.
 ECPInt:  NShTT=    6786 NPrTT=   21959 LenC2=    6366 LenP2D=   15595.
 LDataN:  DoStor=T MaxTD1= 6 Len=  172
 NBasis=   324 RedAO= T EigKep=  9.12D-05  NBF=   324
 NBsUse=   324 1.00D-06 EigRej= -1.00D+00 NBFU=   324
 Precomputing XC quadrature grid using
 IXCGrd= 4 IRadAn=           5 IRanWt=          -1 IRanGd=           0 AccXCQ= 0.00D+00.
 Generated NRdTot=       0 NPtTot=           0 NUsed=           0 NTot=          32
 NSgBfM=   373   373   373   373   373 MxSgAt=    11 MxSgA2=    11.
 Leave Link  302 at Sat May 24 06:29:41 2025, MaxMem=  3758096384 cpu:               0.7 elap:               0.1
 (Enter /apps/easybuild-2022/easybuild/software/Compiler/NVHPC/22.11-CUDA-11.7.0/Gaussian/g16c01-CUDA-11.7.0/g16/l303.exe)
 DipDrv:  MaxL=1.
 Leave Link  303 at Sat May 24 06:29:41 2025, MaxMem=  3758096384 cpu:               0.1 elap:               0.0
 (Enter /apps/easybuild-2022/easybuild/software/Compiler/NVHPC/22.11-CUDA-11.7.0/Gaussian/g16c01-CUDA-11.7.0/g16/l401.exe)
 ExpMin= 9.52D-02 ExpMax= 3.55D+04 ExpMxC= 1.21D+03 IAcc=3 IRadAn=         5 AccDes= 0.00D+00
 Harris functional with IExCor= 1009 and IRadAn=       5 diagonalized for initial guess.
 HarFok:  IExCor= 1009 AccDes= 0.00D+00 IRadAn=         5 IDoV= 1 UseB2=F ITyADJ=14
 ICtDFT=  3500011 ScaDFX=  1.000000  1.000000  1.000000  1.000000
 FoFCou: FMM=F IPFlag=           0 FMFlag=      100000 FMFlg1=           0
         NFxFlg=           0 DoJE=T BraDBF=F KetDBF=T FulRan=T
         wScrn=  0.000000 ICntrl=       500 IOpCl=  0 I1Cent=   200000004 NGrid=           0
         NMat0=    1 NMatS0=      1 NMatT0=    0 NMatD0=    1 NMtDS0=    0 NMtDT0=    0
 Symmetry not used in FoFCou.
 Harris En= -764.033003172102    
 JPrj=0 DoOrth=F DoCkMO=F.
 Leave Link  401 at Sat May 24 06:29:42 2025, MaxMem=  3758096384 cpu:               3.4 elap:               0.5
 (Enter /apps/easybuild-2022/easybuild/software/Compiler/NVHPC/22.11-CUDA-11.7.0/Gaussian/g16c01-CUDA-11.7.0/g16/l502.exe)
 Keep R1 ints in memory in canonical form, NReq=1412617130.
 FoFCou: FMM=F IPFlag=           0 FMFlag=           0 FMFlg1=           0
         NFxFlg=           0 DoJE=F BraDBF=F KetDBF=F FulRan=T
         wScrn=  0.000000 ICntrl=       600 IOpCl=  0 I1Cent=           0 NGrid=           0
         NMat0=    1 NMatS0=  52650 NMatT0=    0 NMatD0=    1 NMtDS0=    0 NMtDT0=    0
 Symmetry not used in FoFCou.
 Two-electron integral symmetry not used.
 Closed shell SCF:
 Using DIIS extrapolation, IDIIS=  1040.
 NGot=  3758096384 LenX=  2371771924 LenY=  2371630858
 Requested convergence on RMS density matrix=1.00D-08 within  32 cycles.
 Requested convergence on MAX density matrix=1.00D-06.
 Requested convergence on             energy=1.00D-06.
 No special actions if energy rises.
 Integral accuracy reduced to 1.0D-05 until final iterations.

 Cycle   1  Pass 0  IDiag  1:
 E= -764.368071156249    
 DIIS: error= 1.75D-02 at cycle   1 NSaved=   1.
 NSaved= 1 IEnMin= 1 EnMin= -764.368071156249     IErMin= 1 ErrMin= 1.75D-02
 ErrMax= 1.75D-02  0.00D+00 EMaxC= 1.00D-01 BMatC= 2.66D-01 BMatP= 2.66D-01
 IDIUse=3 WtCom= 8.25D-01 WtEn= 1.75D-01
 Coeff-Com:  0.100D+01
 Coeff-En:   0.100D+01
 Coeff:      0.100D+01
 Gap=     0.299 Goal=   None    Shift=    0.000
 GapD=    0.299 DampG=1.000 DampE=0.500 DampFc=0.5000 IDamp=-1.
 Damping current iteration by 5.00D-01
 RMSDP=1.76D-03 MaxDP=6.17D-02              OVMax= 1.07D-01

 Cycle   2  Pass 0  IDiag  1:
 E= -764.422475407338     Delta-E=       -0.054404251089 Rises=F Damp=T
 DIIS: error= 4.80D-03 at cycle   2 NSaved=   2.
 NSaved= 2 IEnMin= 2 EnMin= -764.422475407338     IErMin= 2 ErrMin= 4.80D-03
 ErrMax= 4.80D-03  0.00D+00 EMaxC= 1.00D-01 BMatC= 3.32D-02 BMatP= 2.66D-01
 IDIUse=3 WtCom= 9.52D-01 WtEn= 4.80D-02
 Coeff-Com: -0.958D-01 0.110D+01
 Coeff-En:   0.000D+00 0.100D+01
 Coeff:     -0.912D-01 0.109D+01
 Gap=     0.330 Goal=   None    Shift=    0.000
 RMSDP=7.55D-04 MaxDP=3.91D-02 DE=-5.44D-02 OVMax= 6.50D-02

 Cycle   3  Pass 0  IDiag  1:
 E= -764.479879273863     Delta-E=       -0.057403866525 Rises=F Damp=F
 DIIS: error= 3.22D-03 at cycle   3 NSaved=   3.
 NSaved= 3 IEnMin= 3 EnMin= -764.479879273863     IErMin= 3 ErrMin= 3.22D-03
 ErrMax= 3.22D-03  0.00D+00 EMaxC= 1.00D-01 BMatC= 1.10D-02 BMatP= 3.32D-02
 IDIUse=3 WtCom= 9.68D-01 WtEn= 3.22D-02
 Coeff-Com: -0.162D+00 0.405D+00 0.757D+00
 Coeff-En:   0.000D+00 0.000D+00 0.100D+01
 Coeff:     -0.157D+00 0.392D+00 0.765D+00
 Gap=     0.312 Goal=   None    Shift=    0.000
 RMSDP=2.55D-04 MaxDP=9.39D-03 DE=-5.74D-02 OVMax= 3.10D-02

 Cycle   4  Pass 0  IDiag  1:
 E= -764.486212751760     Delta-E=       -0.006333477897 Rises=F Damp=F
 DIIS: error= 1.53D-03 at cycle   4 NSaved=   4.
 NSaved= 4 IEnMin= 4 EnMin= -764.486212751760     IErMin= 4 ErrMin= 1.53D-03
 ErrMax= 1.53D-03  0.00D+00 EMaxC= 1.00D-01 BMatC= 1.34D-03 BMatP= 1.10D-02
 IDIUse=3 WtCom= 9.85D-01 WtEn= 1.53D-02
 Coeff-Com: -0.743D-01 0.153D+00 0.392D+00 0.530D+00
 Coeff-En:   0.000D+00 0.000D+00 0.139D-01 0.986D+00
 Coeff:     -0.731D-01 0.151D+00 0.386D+00 0.537D+00
 Gap=     0.310 Goal=   None    Shift=    0.000
 RMSDP=9.08D-05 MaxDP=3.98D-03 DE=-6.33D-03 OVMax= 1.11D-02

 Cycle   5  Pass 0  IDiag  1:
 E= -764.487153560095     Delta-E=       -0.000940808336 Rises=F Damp=F
 DIIS: error= 4.22D-04 at cycle   5 NSaved=   5.
 NSaved= 5 IEnMin= 5 EnMin= -764.487153560095     IErMin= 5 ErrMin= 4.22D-04
 ErrMax= 4.22D-04  0.00D+00 EMaxC= 1.00D-01 BMatC= 9.76D-05 BMatP= 1.34D-03
 IDIUse=3 WtCom= 9.96D-01 WtEn= 4.22D-03
 Coeff-Com: -0.247D-01 0.448D-01 0.133D+00 0.264D+00 0.583D+00
 Coeff-En:   0.000D+00 0.000D+00 0.000D+00 0.000D+00 0.100D+01
 Coeff:     -0.246D-01 0.446D-01 0.133D+00 0.263D+00 0.584D+00
 Gap=     0.311 Goal=   None    Shift=    0.000
 RMSDP=2.18D-05 MaxDP=1.23D-03 DE=-9.41D-04 OVMax= 2.49D-03

 Cycle   6  Pass 0  IDiag  1:
 E= -764.487211129735     Delta-E=       -0.000057569640 Rises=F Damp=F
 DIIS: error= 9.19D-05 at cycle   6 NSaved=   6.
 NSaved= 6 IEnMin= 6 EnMin= -764.487211129735     IErMin= 6 ErrMin= 9.19D-05
 ErrMax= 9.19D-05  0.00D+00 EMaxC= 1.00D-01 BMatC= 6.60D-06 BMatP= 9.76D-05
 IDIUse=1 WtCom= 1.00D+00 WtEn= 0.00D+00
 Coeff-Com: -0.394D-02 0.545D-02 0.182D-01 0.520D-01 0.232D+00 0.696D+00
 Coeff:     -0.394D-02 0.545D-02 0.182D-01 0.520D-01 0.232D+00 0.696D+00
 Gap=     0.311 Goal=   None    Shift=    0.000
 RMSDP=8.16D-06 MaxDP=3.50D-04 DE=-5.76D-05 OVMax= 1.11D-03

 Initial convergence to 1.0D-05 achieved.  Increase integral accuracy.
 Cycle   7  Pass 1  IDiag  1:
 E= -764.487194671316     Delta-E=        0.000016458419 Rises=F Damp=F
 DIIS: error= 4.29D-05 at cycle   1 NSaved=   1.
 NSaved= 1 IEnMin= 1 EnMin= -764.487194671316     IErMin= 1 ErrMin= 4.29D-05
 ErrMax= 4.29D-05  0.00D+00 EMaxC= 1.00D-01 BMatC= 1.41D-06 BMatP= 1.41D-06
 IDIUse=1 WtCom= 1.00D+00 WtEn= 0.00D+00
 Coeff-Com:  0.100D+01
 Coeff:      0.100D+01
 Gap=     0.311 Goal=   None    Shift=    0.000
 RMSDP=8.16D-06 MaxDP=3.50D-04 DE= 1.65D-05 OVMax= 8.83D-04

 Cycle   8  Pass 1  IDiag  1:
 E= -764.487194886107     Delta-E=       -0.000000214791 Rises=F Damp=F
 DIIS: error= 4.75D-05 at cycle   2 NSaved=   2.
 NSaved= 2 IEnMin= 2 EnMin= -764.487194886107     IErMin= 1 ErrMin= 4.29D-05
 ErrMax= 4.75D-05  0.00D+00 EMaxC= 1.00D-01 BMatC= 1.61D-06 BMatP= 1.41D-06
 IDIUse=1 WtCom= 1.00D+00 WtEn= 0.00D+00
 Coeff-Com:  0.519D+00 0.481D+00
 Coeff:      0.519D+00 0.481D+00
 Gap=     0.311 Goal=   None    Shift=    0.000
 RMSDP=2.99D-06 MaxDP=1.58D-04 DE=-2.15D-07 OVMax= 5.33D-04

 Cycle   9  Pass 1  IDiag  1:
 E= -764.487196156510     Delta-E=       -0.000001270403 Rises=F Damp=F
 DIIS: error= 9.33D-06 at cycle   3 NSaved=   3.
 NSaved= 3 IEnMin= 3 EnMin= -764.487196156510     IErMin= 3 ErrMin= 9.33D-06
 ErrMax= 9.33D-06  0.00D+00 EMaxC= 1.00D-01 BMatC= 6.23D-08 BMatP= 1.41D-06
 IDIUse=1 WtCom= 1.00D+00 WtEn= 0.00D+00
 Coeff-Com:  0.865D-02 0.143D+00 0.848D+00
 Coeff:      0.865D-02 0.143D+00 0.848D+00
 Gap=     0.311 Goal=   None    Shift=    0.000
 RMSDP=1.23D-06 MaxDP=4.98D-05 DE=-1.27D-06 OVMax= 1.47D-04

 Cycle  10  Pass 1  IDiag  1:
 E= -764.487196212528     Delta-E=       -0.000000056018 Rises=F Damp=F
 DIIS: error= 5.08D-06 at cycle   4 NSaved=   4.
 NSaved= 4 IEnMin= 4 EnMin= -764.487196212528     IErMin= 4 ErrMin= 5.08D-06
 ErrMax= 5.08D-06  0.00D+00 EMaxC= 1.00D-01 BMatC= 2.32D-08 BMatP= 6.23D-08
 IDIUse=1 WtCom= 1.00D+00 WtEn= 0.00D+00
 Coeff-Com: -0.559D-01 0.308D-01 0.483D+00 0.542D+00
 Coeff:     -0.559D-01 0.308D-01 0.483D+00 0.542D+00
 Gap=     0.311 Goal=   None    Shift=    0.000
 RMSDP=4.05D-07 MaxDP=1.59D-05 DE=-5.60D-08 OVMax= 3.39D-05

 Cycle  11  Pass 1  IDiag  1:
 E= -764.487196229190     Delta-E=       -0.000000016662 Rises=F Damp=F
 DIIS: error= 8.26D-07 at cycle   5 NSaved=   5.
 NSaved= 5 IEnMin= 5 EnMin= -764.487196229190     IErMin= 5 ErrMin= 8.26D-07
 ErrMax= 8.26D-07  0.00D+00 EMaxC= 1.00D-01 BMatC= 6.75D-10 BMatP= 2.32D-08
 IDIUse=1 WtCom= 1.00D+00 WtEn= 0.00D+00
 Coeff-Com: -0.995D-02-0.732D-02-0.152D-01 0.728D-01 0.960D+00
 Coeff:     -0.995D-02-0.732D-02-0.152D-01 0.728D-01 0.960D+00
 Gap=     0.311 Goal=   None    Shift=    0.000
 RMSDP=1.79D-07 MaxDP=6.31D-06 DE=-1.67D-08 OVMax= 3.90D-05

 Cycle  12  Pass 1  IDiag  1:
 E= -764.487196230689     Delta-E=       -0.000000001499 Rises=F Damp=F
 DIIS: error= 7.71D-07 at cycle   6 NSaved=   6.
 NSaved= 6 IEnMin= 6 EnMin= -764.487196230689     IErMin= 6 ErrMin= 7.71D-07
 ErrMax= 7.71D-07  0.00D+00 EMaxC= 1.00D-01 BMatC= 5.59D-10 BMatP= 6.75D-10
 IDIUse=1 WtCom= 1.00D+00 WtEn= 0.00D+00
 Coeff-Com:  0.416D-02-0.982D-02-0.100D+00-0.684D-01 0.566D+00 0.608D+00
 Coeff:      0.416D-02-0.982D-02-0.100D+00-0.684D-01 0.566D+00 0.608D+00
 Gap=     0.311 Goal=   None    Shift=    0.000
 RMSDP=7.89D-08 MaxDP=2.30D-06 DE=-1.50D-09 OVMax= 1.06D-05

 Cycle  13  Pass 1  IDiag  1:
 E= -764.487196231301     Delta-E=       -0.000000000611 Rises=F Damp=F
 DIIS: error= 1.82D-07 at cycle   7 NSaved=   7.
 NSaved= 7 IEnMin= 7 EnMin= -764.487196231301     IErMin= 7 ErrMin= 1.82D-07
 ErrMax= 1.82D-07  0.00D+00 EMaxC= 1.00D-01 BMatC= 2.03D-11 BMatP= 5.59D-10
 IDIUse=1 WtCom= 1.00D+00 WtEn= 0.00D+00
 Coeff-Com:  0.245D-02-0.145D-02-0.268D-01-0.317D-01 0.437D-01 0.131D+00
 Coeff-Com:  0.883D+00
 Coeff:      0.245D-02-0.145D-02-0.268D-01-0.317D-01 0.437D-01 0.131D+00
 Coeff:      0.883D+00
 Gap=     0.311 Goal=   None    Shift=    0.000
 RMSDP=2.83D-08 MaxDP=9.47D-07 DE=-6.11D-10 OVMax= 5.01D-06

 Cycle  14  Pass 1  IDiag  1:
 E= -764.487196231269     Delta-E=        0.000000000031 Rises=F Damp=F
 DIIS: error= 5.32D-08 at cycle   8 NSaved=   8.
 NSaved= 8 IEnMin= 7 EnMin= -764.487196231301     IErMin= 8 ErrMin= 5.32D-08
 ErrMax= 5.32D-08  0.00D+00 EMaxC= 1.00D-01 BMatC= 3.31D-12 BMatP= 2.03D-11
 IDIUse=1 WtCom= 1.00D+00 WtEn= 0.00D+00
 Coeff-Com: -0.604D-03 0.203D-02 0.171D-01 0.120D-01-0.103D+00-0.106D+00
 Coeff-Com:  0.555D-01 0.112D+01
 Coeff:     -0.604D-03 0.203D-02 0.171D-01 0.120D-01-0.103D+00-0.106D+00
 Coeff:      0.555D-01 0.112D+01
 Gap=     0.311 Goal=   None    Shift=    0.000
 RMSDP=1.59D-08 MaxDP=6.43D-07 DE= 3.14D-11 OVMax= 3.59D-06

 Cycle  15  Pass 1  IDiag  1:
 E= -764.487196231343     Delta-E=       -0.000000000074 Rises=F Damp=F
 DIIS: error= 2.26D-08 at cycle   9 NSaved=   9.
 NSaved= 9 IEnMin= 9 EnMin= -764.487196231343     IErMin= 9 ErrMin= 2.26D-08
 ErrMax= 2.26D-08  0.00D+00 EMaxC= 1.00D-01 BMatC= 5.95D-13 BMatP= 3.31D-12
 IDIUse=1 WtCom= 1.00D+00 WtEn= 0.00D+00
 Coeff-Com: -0.497D-03 0.848D-03 0.873D-02 0.841D-02-0.380D-01-0.478D-01
 Coeff-Com: -0.911D-01 0.331D+00 0.828D+00
 Coeff:     -0.497D-03 0.848D-03 0.873D-02 0.841D-02-0.380D-01-0.478D-01
 Coeff:     -0.911D-01 0.331D+00 0.828D+00
 Gap=     0.311 Goal=   None    Shift=    0.000
 RMSDP=4.36D-09 MaxDP=1.59D-07 DE=-7.39D-11 OVMax= 1.02D-06

 SCF Done:  E(RM062X) =  -764.487196231     A.U. after   15 cycles
            NFock= 15  Conv=0.44D-08     -V/T= 2.0036
 KE= 7.617300141749D+02 PE=-3.038997812226D+03 EE= 8.995620682982D+02
 Leave Link  502 at Sat May 24 06:30:09 2025, MaxMem=  3758096384 cpu:             117.9 elap:              27.5
 (Enter /apps/easybuild-2022/easybuild/software/Compiler/NVHPC/22.11-CUDA-11.7.0/Gaussian/g16c01-CUDA-11.7.0/g16/l508.exe)
 QCSCF skips out because SCF is already converged.
 Leave Link  508 at Sat May 24 06:30:09 2025, MaxMem=  3758096384 cpu:               0.0 elap:               0.0
 (Enter /apps/easybuild-2022/easybuild/software/Compiler/NVHPC/22.11-CUDA-11.7.0/Gaussian/g16c01-CUDA-11.7.0/g16/l801.exe)
 DoSCS=F DFT=T ScalE2(SS,OS)=  1.000000  1.000000
 Range of M.O.s used for correlation:     1   324
 NBasis=   324 NAE=    40 NBE=    40 NFC=     0 NFV=     0
 NROrb=    324 NOA=    40 NOB=    40 NVA=   284 NVB=   284

 **** Warning!!: The largest alpha MO coefficient is  0.30044671D+02

 Leave Link  801 at Sat May 24 06:30:09 2025, MaxMem=  3758096384 cpu:               0.0 elap:               0.0
 (Enter /apps/easybuild-2022/easybuild/software/Compiler/NVHPC/22.11-CUDA-11.7.0/Gaussian/g16c01-CUDA-11.7.0/g16/l1101.exe)
 Using compressed storage, NAtomX=    11.
 Will process     12 centers per pass.
   1 Symmetry operations used in ECPInt.
 ECPInt:  NShTT=    6786 NPrTT=   21959 LenC2=    6366 LenP2D=   15595.
 LDataN:  DoStor=T MaxTD1= 7 Len=  274
 Leave Link 1101 at Sat May 24 06:30:10 2025, MaxMem=  3758096384 cpu:               0.9 elap:               0.2
 (Enter /apps/easybuild-2022/easybuild/software/Compiler/NVHPC/22.11-CUDA-11.7.0/Gaussian/g16c01-CUDA-11.7.0/g16/l1102.exe)
 Symmetrizing basis deriv contribution to polar:
 IMax=3 JMax=2 DiffMx= 0.00D+00
 Leave Link 1102 at Sat May 24 06:30:10 2025, MaxMem=  3758096384 cpu:               0.1 elap:               0.0
 (Enter /apps/easybuild-2022/easybuild/software/Compiler/NVHPC/22.11-CUDA-11.7.0/Gaussian/g16c01-CUDA-11.7.0/g16/l1110.exe)
 Forming Gx(P) for the SCF density, NAtomX=    11.
 Integral derivatives from FoFJK, PRISM(SPDF).
 Do as many integral derivatives as possible in FoFJK.
 G2DrvN: MDV=    3758095115.
 G2DrvN: will do    12 centers at a time, making    1 passes.
 Calling FoFCou, ICntrl=  3107 FMM=F I1Cent=   0 AccDes= 0.00D+00.
 FoFJK:  IHMeth= 1 ICntrl=    3107 DoSepK=F KAlg= 0 I1Cent=           0 FoldK=F
 IRaf=         0 NMat=       1 IRICut=       1 DoRegI=T DoRafI=F ISym2E= 0 IDoP0=0 IntGTp=1.
 FoFCou: FMM=F IPFlag=           0 FMFlag=      100000 FMFlg1=           0
         NFxFlg=           0 DoJE=F BraDBF=F KetDBF=F FulRan=T
         wScrn=  0.000000 ICntrl=      3107 IOpCl=  0 I1Cent=           0 NGrid=           0
         NMat0=    1 NMatS0=      1 NMatT0=    0 NMatD0=    1 NMtDS0=    0 NMtDT0=    0
 Symmetry not used in FoFCou.
 End of G2Drv F.D. properties file   721 does not exist.
 End of G2Drv F.D. properties file   722 does not exist.
 End of G2Drv F.D. properties file   788 does not exist.
 Leave Link 1110 at Sat May 24 06:30:49 2025, MaxMem=  3758096384 cpu:             313.8 elap:              39.6
 (Enter /apps/easybuild-2022/easybuild/software/Compiler/NVHPC/22.11-CUDA-11.7.0/Gaussian/g16c01-CUDA-11.7.0/g16/l1002.exe)
 Minotr:  Closed shell wavefunction.
          IDoAtm=11111111111
          Direct CPHF calculation.
          Differentiating once with respect to nuclear coordinates.
          Requested convergence is 1.0D-08 RMS, and 1.0D-07 maximum.
          Secondary convergence is 1.0D-12 RMS, and 1.0D-12 maximum.
          NewPWx=T KeepS1=F KeepF1=F KeepIn=T MapXYZ=F SortEE=F KeepMc=T.
         3300 words used for storage of precomputed grid.
 Keep R1 ints in memory in canonical form, NReq=1412622530.
 FoFCou: FMM=F IPFlag=           0 FMFlag=           0 FMFlg1=           0
         NFxFlg=           0 DoJE=F BraDBF=F KetDBF=F FulRan=T
         wScrn=  0.000000 ICntrl=       600 IOpCl=  0 I1Cent=           0 NGrid=           0
         NMat0=    1 NMatS0=  52650 NMatT0=    0 NMatD0=    1 NMtDS0=    0 NMtDT0=    0
 Symmetry not used in FoFCou.
 Two-electron integral symmetry not used.
          MDV=    3758096384 using IRadAn=       1.
          Solving linear equations simultaneously, MaxMat=       0.
          There are    36 degrees of freedom in the 1st order CPHF.  IDoFFX=6 NUNeed=     0.
     30 vectors produced by pass  0 Test12= 3.16D-14 2.78D-09 XBig12= 1.34D-01 1.12D-01.
 AX will form    30 AO Fock derivatives at one time.
     30 vectors produced by pass  1 Test12= 3.16D-14 2.78D-09 XBig12= 3.04D-02 3.53D-02.
     30 vectors produced by pass  2 Test12= 3.16D-14 2.78D-09 XBig12= 2.19D-03 7.02D-03.
     30 vectors produced by pass  3 Test12= 3.16D-14 2.78D-09 XBig12= 5.13D-05 9.78D-04.
     30 vectors produced by pass  4 Test12= 3.16D-14 2.78D-09 XBig12= 5.87D-07 1.16D-04.
     30 vectors produced by pass  5 Test12= 3.16D-14 2.78D-09 XBig12= 5.32D-09 1.20D-05.
     30 vectors produced by pass  6 Test12= 3.16D-14 2.78D-09 XBig12= 3.87D-11 7.91D-07.
     14 vectors produced by pass  7 Test12= 3.16D-14 2.78D-09 XBig12= 1.96D-13 4.88D-08.
      1 vectors produced by pass  8 Test12= 3.16D-14 2.78D-09 XBig12= 1.08D-15 3.90D-09.
 InvSVY:  IOpt=1 It=  1 EMax= 1.11D-15
 Solved reduced A of dimension   225 with    30 vectors.
 End of Minotr F.D. properties file   721 does not exist.
 End of Minotr F.D. properties file   722 does not exist.
 End of Minotr F.D. properties file   788 does not exist.
 Leave Link 1002 at Sat May 24 06:31:43 2025, MaxMem=  3758096384 cpu:             413.7 elap:              53.5
 (Enter /apps/easybuild-2022/easybuild/software/Compiler/NVHPC/22.11-CUDA-11.7.0/Gaussian/g16c01-CUDA-11.7.0/g16/l701.exe)
 ... and contract with generalized density number  0.
 Compute integral second derivatives.
   1 Symmetry operations used in ECPInt.
 ECPInt:  NShTT=    6786 NPrTT=   21959 LenC2=    6366 LenP2D=   15595.
 LDataN:  DoStor=T MaxTD1= 8 Len=  415
 Leave Link  701 at Sat May 24 06:31:43 2025, MaxMem=  3758096384 cpu:               0.7 elap:               0.1
 (Enter /apps/easybuild-2022/easybuild/software/Compiler/NVHPC/22.11-CUDA-11.7.0/Gaussian/g16c01-CUDA-11.7.0/g16/l702.exe)
 L702 exits ... SP integral derivatives will be done elsewhere.
 Leave Link  702 at Sat May 24 06:31:43 2025, MaxMem=  3758096384 cpu:               0.0 elap:               0.0
 (Enter /apps/easybuild-2022/easybuild/software/Compiler/NVHPC/22.11-CUDA-11.7.0/Gaussian/g16c01-CUDA-11.7.0/g16/l703.exe)
 Integral derivatives from FoFJK, PRISM(SPDF).
 Compute integral second derivatives, UseDBF=F ICtDFT=           0.
 Calling FoFJK, ICntrl=    100127 FMM=F ISym2X=0 I1Cent= 0 IOpClX= 0 NMat=1 NMatS=1 NMatT=0.
 FoFJK:  IHMeth= 1 ICntrl=  100127 DoSepK=F KAlg= 0 I1Cent=           0 FoldK=F
 IRaf=         0 NMat=       1 IRICut=       1 DoRegI=T DoRafI=F ISym2E= 0 IDoP0=0 IntGTp=1.
 FoFCou: FMM=F IPFlag=           0 FMFlag=      100000 FMFlg1=         800
         NFxFlg=           0 DoJE=F BraDBF=F KetDBF=F FulRan=T
         wScrn=  0.000000 ICntrl=    100127 IOpCl=  0 I1Cent=           0 NGrid=           0
         NMat0=    1 NMatS0=      1 NMatT0=    0 NMatD0=    1 NMtDS0=    0 NMtDT0=    0
 Symmetry not used in FoFCou.
 Leave Link  703 at Sat May 24 06:33:12 2025, MaxMem=  3758096384 cpu:             703.9 elap:              88.8
 (Enter /apps/easybuild-2022/easybuild/software/Compiler/NVHPC/22.11-CUDA-11.7.0/Gaussian/g16c01-CUDA-11.7.0/g16/l716.exe)
 Dipole        = 5.46522246D-01 4.54989883D-01 4.20923398D-01
 Polarizability= 0.00000000D+00 0.00000000D+00 0.00000000D+00
                 0.00000000D+00 0.00000000D+00 0.00000000D+00
 -------------------------------------------------------------------
 Center     Atomic                   Forces (Hartrees/Bohr)
 Number     Number              X              Y              Z
 -------------------------------------------------------------------
      1        6           0.001218746   -0.007357875    0.005636459
      2        8          -0.001405071    0.001866837    0.001022235
      3        6          -0.002773406   -0.000034170   -0.001423498
      4        6          -0.001559065   -0.003741740   -0.002805766
      5        9           0.000063938    0.000455749    0.000337885
      6        9           0.000338070    0.000642648    0.000604720
      7        9           0.001433299    0.000402415    0.000040296
      8        9           0.002606640   -0.001513456   -0.003798152
      9        9          -0.000703466   -0.000634788    0.001559370
     10        8          -0.000814459    0.007955834    0.000982191
     11        1           0.001594772    0.001958547   -0.002155742
 -------------------------------------------------------------------
 Cartesian Forces:  Max     0.007955834 RMS     0.002663716
 Force constants in Cartesian coordinates: 
                1             2             3             4             5 
      1  0.654601D+00
      2 -0.910006D-01  0.872833D+00
      3 -0.207511D-01  0.747256D-01  0.215224D+00
      4 -0.279516D+00 -0.197113D-01 -0.434798D-01  0.415904D+00
      5 -0.182734D-03 -0.635973D-01 -0.904330D-02  0.110120D-01  0.136356D+00
      6 -0.424195D-01  0.116044D-01 -0.735743D-01  0.169215D-01  0.979536D-01
      7 -0.164742D+00  0.207259D+00  0.255694D-01 -0.529472D-01  0.303765D-01
      8  0.162195D+00 -0.438835D+00 -0.304142D-01  0.233649D-01 -0.118046D-02
      9  0.310225D-01 -0.373211D-01 -0.563835D-01 -0.823296D-02  0.306031D-02
     10  0.227457D-01  0.841406D-02 -0.318328D-02  0.523252D-03 -0.400958D-02
     11 -0.364593D-02 -0.294393D-01 -0.222488D-02  0.280239D-02  0.585864D-04
     12 -0.615882D-02 -0.353605D-02  0.133530D-02 -0.167951D-02  0.496204D-02
     13 -0.329136D-02 -0.325236D-03 -0.379557D-03 -0.619432D-04  0.512207D-03
     14 -0.603120D-02  0.484223D-02 -0.893509D-03 -0.105422D-02  0.282325D-03
     15 -0.359422D-02  0.210448D-02 -0.322217D-03  0.920572D-04 -0.958969D-03
     16 -0.656207D-03 -0.209437D-02 -0.295370D-03  0.384689D-03  0.743823D-03
     17 -0.468775D-02  0.381857D-02  0.376200D-02 -0.118719D-02 -0.168449D-03
     18  0.255516D-02 -0.243656D-04 -0.950517D-03  0.769958D-03 -0.219731D-03
     19 -0.463607D-02  0.151283D-02  0.967927D-03  0.493977D-03  0.405661D-02
     20  0.301794D-02  0.242340D-02  0.857288D-05 -0.845970D-03 -0.120013D-01
     21  0.677010D-03 -0.324861D-03 -0.335254D-03 -0.228357D-03  0.192286D-02
     22 -0.354674D-01  0.338553D-01  0.508971D-01 -0.416049D-01  0.760691D-02
     23  0.194625D-01 -0.174679D-01 -0.100615D-01  0.137631D-01 -0.482368D-01
     24  0.527079D-01 -0.335661D-01 -0.125948D-01  0.269853D-01 -0.852239D-01
     25 -0.610835D-01 -0.803268D-02  0.859784D-02  0.881602D-02  0.210612D-02
     26  0.359019D-01  0.378740D-02 -0.738110D-02  0.393259D-02 -0.354960D-02
     27  0.402051D-02  0.673498D-02  0.326651D-02  0.102984D-01 -0.470728D-02
     28 -0.114236D+00 -0.120294D+00 -0.799400D-03 -0.477866D-01 -0.468342D-01
     29 -0.928327D-01 -0.316366D+00  0.192712D-01 -0.316156D-01 -0.646824D-02
     30 -0.176893D-01 -0.200594D-01 -0.786527D-01 -0.577183D-02 -0.104664D-01
     31 -0.137177D-01 -0.958303D-02 -0.171438D-01 -0.420527D-02 -0.538770D-02
     32 -0.221965D-01 -0.219984D-01 -0.377490D-01 -0.460666D-03 -0.149472D-02
     33 -0.370124D-03 -0.337596D-03  0.298778D-02  0.432513D-02  0.272071D-02
                6             7             8             9            10 
      6  0.261219D+00
      7  0.157301D-01  0.695381D+00
      8 -0.130815D-01 -0.134812D+00  0.836455D+00
      9 -0.283327D-02 -0.956583D-01  0.237561D-01  0.178486D+00
     10 -0.622164D-02 -0.820669D-01 -0.442717D-01  0.432055D-02  0.603751D+00
     11 -0.871760D-02 -0.670001D-01 -0.203170D+00  0.131116D-01  0.287910D-01
     12 -0.154990D-02  0.704759D-02  0.121595D-01 -0.619684D-01 -0.203110D-01
     13  0.782878D-03  0.729472D-02 -0.105622D-01 -0.110146D-01 -0.769835D-01
     14  0.199923D-02  0.249542D-02 -0.315355D-01 -0.437162D-01 -0.118840D-01
     15  0.683605D-03  0.382842D-02 -0.195779D-01 -0.140845D-01 -0.117727D-01
     16  0.269925D-04 -0.336856D-02  0.654572D-02 -0.370824D-02 -0.137536D+00
     17  0.303172D-02  0.332029D-01 -0.387110D-01  0.314152D-01  0.678714D-01
     18 -0.617624D-03 -0.149296D-01  0.177701D-01 -0.334494D-02 -0.634173D-01
     19  0.270222D-02 -0.301617D-01 -0.104939D-02  0.146355D-01 -0.280886D+00
     20  0.403549D-02 -0.279430D-01  0.743370D-02  0.113720D-01 -0.259996D-01
     21 -0.732607D-03  0.126615D-01 -0.211124D-02  0.240901D-02  0.846470D-01
     22  0.225175D-01  0.676404D-02 -0.769474D-02  0.310598D-02 -0.430015D-02
     23 -0.882410D-01 -0.328243D-02  0.982379D-02 -0.548396D-02  0.725053D-03
     24 -0.202662D+00 -0.180947D-01  0.141189D-01  0.959998D-03  0.779848D-02
     25 -0.721453D-02 -0.374239D+00  0.600439D-02  0.640339D-01 -0.437041D-01
     26  0.143470D-03  0.135074D-02 -0.775409D-01  0.816832D-03 -0.293443D-01
     27  0.129436D-01  0.649915D-01 -0.461706D-02 -0.526889D-01  0.718339D-02
     28 -0.189447D-02 -0.792553D-02 -0.502227D-02  0.134748D-02 -0.485129D-03
     29 -0.856218D-02 -0.377692D-01 -0.617429D-01  0.305313D-02  0.974079D-02
     30  0.652543D-02 -0.243649D-02 -0.112081D-02  0.813392D-02  0.180026D-02
     31 -0.931039D-03  0.601134D-02  0.530231D-02  0.148114D-03 -0.105810D-02
     32 -0.165777D-03 -0.387809D-02 -0.996642D-03 -0.640410D-04 -0.331445D-04
     33  0.598542D-03  0.129056D-02  0.311804D-02  0.131419D-02 -0.843727D-03
               11            12            13            14            15 
     11  0.613586D+00
     12 -0.901743D-02  0.535793D+00
     13 -0.108929D-01 -0.113580D-01  0.794899D-01
     14 -0.143097D+00 -0.982409D-01  0.103704D-02  0.143420D+00
     15 -0.952044D-01 -0.224593D+00  0.960905D-02  0.139159D+00  0.357355D+00
     16  0.708821D-01 -0.670948D-01 -0.738638D-03  0.283571D-02 -0.331932D-01
     17 -0.169164D+00  0.814114D-01 -0.332351D-02  0.220614D-01 -0.741743D-03
     18  0.799241D-01 -0.145614D+00 -0.409544D-01  0.149833D-01 -0.733114D-01
     19 -0.303384D-01  0.854249D-01 -0.108580D-01  0.137115D-01  0.382841D-01
     20 -0.896283D-01  0.990914D-02  0.237389D-01  0.934065D-02 -0.219405D-01
     21  0.129817D-01 -0.109588D+00  0.533427D-01 -0.159530D-01 -0.479096D-01
     22 -0.501463D-02  0.195819D-02  0.721729D-03  0.196299D-02  0.448260D-03
     23  0.168552D-02 -0.206377D-02 -0.255220D-03 -0.557289D-03  0.737266D-04
     24  0.112817D-01 -0.328621D-02 -0.126074D-02 -0.353848D-02 -0.673555D-03
     25  0.777648D-02  0.950699D-02  0.393578D-02 -0.238801D-02 -0.352589D-02
     26  0.458992D-02  0.712016D-02  0.152792D-02  0.100837D-02 -0.805362D-04
     27  0.315328D-03 -0.852083D-03  0.173796D-03  0.208322D-02  0.177651D-02
     28  0.101876D-01  0.286800D-02  0.419680D-03 -0.165339D-02 -0.513999D-03
     29  0.154439D-01 -0.491530D-02 -0.182407D-02 -0.696143D-02 -0.336886D-02
     30 -0.633606D-03  0.911510D-02  0.819594D-03  0.327227D-02  0.855591D-03
     31 -0.354772D-02 -0.203548D-03  0.716485D-04  0.968227D-03  0.338130D-03
     32 -0.864721D-03  0.221122D-02  0.367128D-03  0.119655D-02  0.535317D-03
     33 -0.181658D-02  0.120927D-02  0.239298D-03  0.844669D-03  0.223557D-03
               16            17            18            19            20 
     16  0.207650D+00
     17 -0.115951D+00  0.181002D+00
     18  0.123892D+00 -0.112588D+00  0.204659D+00
     19 -0.732648D-01  0.257450D-01 -0.814231D-02  0.398552D+00
     20  0.385508D-01  0.658239D-02 -0.220335D-02 -0.292603D-02  0.838606D-01
     21 -0.205041D-01  0.541967D-03  0.174522D-01 -0.130847D+00 -0.137558D-02
     22  0.314976D-03  0.128765D-02 -0.380333D-03  0.242149D-02  0.533864D-03
     23  0.938088D-05 -0.467827D-03  0.381646D-03 -0.968972D-03 -0.839420D-04
     24 -0.215868D-03 -0.324763D-02  0.100100D-02 -0.460144D-02 -0.153535D-02
     25  0.636917D-02 -0.121575D-02  0.517746D-03 -0.160980D-02 -0.689526D-02
     26 -0.274343D-02  0.130449D-02 -0.703702D-03 -0.702577D-02 -0.635424D-02
     27  0.982356D-03 -0.115459D-02  0.595581D-03  0.127446D-02  0.162137D-02
     28  0.125078D-02 -0.312372D-02  0.536873D-03 -0.496185D-03 -0.156774D-02
     29  0.108005D-02 -0.563519D-02  0.255463D-02 -0.288515D-02 -0.176002D-02
     30  0.322973D-03 -0.305937D-02  0.584567D-03 -0.868080D-04 -0.170717D-03
     31 -0.405722D-03  0.138215D-02 -0.447431D-03  0.444864D-03  0.336164D-03
     32  0.141447D-03 -0.622086D-03  0.125348D-03  0.167741D-03  0.187081D-03
     33 -0.212506D-03  0.629095D-03 -0.453468D-03  0.388647D-03  0.278890D-03
               21            22            23            24            25 
     21  0.136515D+00
     22 -0.760507D-03  0.737981D-01
     23  0.658813D-03 -0.340738D-01  0.514021D-01
     24  0.177586D-02 -0.739581D-01  0.960793D-01  0.212565D+00
     25  0.103959D-02 -0.694585D-02  0.353697D-02  0.131259D-01  0.457652D+00
     26  0.277794D-02  0.936106D-03 -0.126902D-02 -0.599921D-03 -0.872817D-02
     27  0.113937D-02 -0.362303D-02  0.336919D-02 -0.390375D-04 -0.820329D-01
     28  0.761465D-04  0.357679D-02 -0.515075D-04 -0.384366D-02  0.146804D-01
     29  0.996589D-03  0.385697D-03  0.449630D-02  0.628684D-02  0.649930D-02
     30 -0.490400D-03 -0.371088D-03  0.570255D-02  0.442338D-02 -0.403432D-02
     31 -0.103808D-03  0.721111D-03  0.113497D-02  0.135681D-02 -0.387168D-02
     32 -0.115139D-03  0.214724D-03  0.675121D-03 -0.554034D-04  0.133661D-02
     33 -0.235251D-03  0.166011D-03 -0.415099D-03 -0.147005D-02 -0.143166D-04
               26            27            28            29            30 
     26  0.728384D-01
     27 -0.215309D-02  0.385449D-01
     28  0.544812D-02 -0.367766D-02  0.231276D+00
     29  0.461296D-02 -0.331867D-03  0.194873D+00  0.408716D+00
     30  0.958466D-04 -0.386972D-02  0.201457D+00  0.608437D-01  0.482483D+00
     31 -0.125568D-02  0.409231D-03 -0.802748D-01 -0.456518D-01 -0.174010D+00
     32  0.572206D-03 -0.116019D-02 -0.319614D-01 -0.343354D-01 -0.344040D-01
     33 -0.359021D-04 -0.816696D-03 -0.195556D+00 -0.758279D-01 -0.429108D+00
               31            32            33 
     31  0.962843D-01
     32  0.563021D-01  0.576810D-01
     33  0.190587D+00  0.708417D-01  0.425750D+00
 FormGI is forming the generalized inverse of G from B-inverse, IUseBI=4.
 Force constants in internal coordinates: 
                1             2             3             4             5 
      1  0.406503D+00
      2  0.380782D-01  0.637662D+00
      3  0.502607D-01  0.307403D-01  0.490752D+00
      4  0.580938D-01 -0.188400D-01  0.504237D-02  0.286483D+00
      5 -0.123574D-02  0.163605D-01 -0.435740D-02 -0.366255D-02  0.322606D+00
      6 -0.561094D-03  0.285112D-01  0.122991D-01  0.141581D-01  0.170332D-01
      7  0.887416D-03 -0.107600D-02  0.477269D-02  0.242510D-02  0.305508D-01
      8 -0.596662D-03 -0.396034D-04  0.576143D-02  0.234725D-02  0.280107D-01
      9  0.306116D-02 -0.995700D-03  0.254352D-02  0.549782D-02  0.215585D-01
     10 -0.261630D-02 -0.307284D-02  0.593682D-02 -0.719217D-03  0.729303D-03
     11  0.127761D-01  0.229625D-01 -0.454652D-01  0.143354D-01  0.179970D-01
     12  0.279996D-01 -0.354954D-01  0.159184D-01 -0.144699D-01 -0.952893D-02
     13 -0.410217D-01  0.123641D-01  0.296508D-01  0.342733D-03 -0.856559D-02
     14  0.453452D-01 -0.328159D-02 -0.110890D-01  0.556862D-01 -0.152795D-02
     15 -0.759979D-02  0.251209D-01  0.116424D-01 -0.283011D-02  0.286275D-01
     16  0.961828D-02  0.109828D-01 -0.141383D-01  0.310828D-02 -0.324368D-01
     17 -0.208939D-02 -0.360307D-01  0.250230D-02 -0.235504D-03  0.380029D-02
     18  0.133946D-02 -0.488899D-02  0.496804D-02  0.507871D-02  0.179013D-01
     19  0.104779D-02 -0.411926D-02  0.519742D-02  0.352742D-02  0.219309D-01
     20 -0.119042D-02  0.187343D-01  0.121992D-02  0.485677D-03  0.298799D-01
     21 -0.591728D-03  0.153562D-02 -0.505448D-02 -0.361224D-02 -0.226139D-01
     22 -0.540212D-03 -0.396712D-02 -0.352727D-02 -0.319200D-02 -0.240239D-01
     23 -0.805147D-04 -0.816201D-02 -0.338249D-02 -0.271985D-02 -0.270180D-01
     24  0.525814D-02 -0.993865D-03  0.662312D-01  0.203529D-02  0.673579D-03
     25  0.251913D-02 -0.877777D-04  0.234766D-02  0.697301D-02  0.223571D-02
     26 -0.291677D-02 -0.207892D-02  0.521380D-02  0.100631D-01  0.401358D-03
     27 -0.345013D-02 -0.329713D-02  0.372259D-03  0.333353D-02 -0.218460D-02
     28 -0.685146D-02 -0.373014D-03  0.680617D-03  0.538226D-02 -0.264583D-02
     29 -0.937630D-03  0.860046D-03 -0.182316D-02  0.713753D-03 -0.293834D-03
     30 -0.433897D-02  0.378417D-02 -0.151480D-02  0.276249D-02 -0.755065D-03
     31  0.511034D-02  0.446039D-04  0.177022D-02 -0.543290D-03  0.106582D-02
     32  0.202670D-02 -0.163909D-02  0.135058D-02  0.325233D-02  0.352644D-03
     33 -0.197493D-02  0.277671D-02  0.232313D-04  0.742451D-03  0.196192D-02
     34 -0.126711D-02 -0.749201D-03 -0.446823D-04  0.148255D-02 -0.170428D-02
     35 -0.141489D-02 -0.174326D-02  0.908518D-04  0.813463D-03 -0.114714D-02
     36  0.104881D-02 -0.524444D-03 -0.251306D-04 -0.122970D-02  0.292663D-02
     37  0.175663D-02 -0.405035D-02 -0.930442D-04 -0.489601D-03 -0.739570D-03
     38  0.160886D-02 -0.504441D-02  0.424899D-04 -0.115869D-02 -0.182427D-03
                6             7             8             9            10 
      6  0.473205D+00
      7  0.451615D-02  0.426125D+00
      8  0.440136D-02  0.571418D-01  0.433458D+00
      9  0.206741D-02  0.554691D-01  0.565116D-01  0.452540D+00
     10 -0.119433D-02 -0.983150D-03 -0.107637D-02 -0.611779D-03  0.528970D+00
     11  0.116290D-01 -0.593635D-03 -0.194095D-03 -0.486906D-02  0.186428D-02
     12  0.929324D-03 -0.184351D-02 -0.204455D-02  0.857748D-03  0.722280D-03
     13 -0.126051D-01  0.238330D-02  0.229058D-02  0.405858D-02 -0.253543D-02
     14  0.625474D-02  0.173615D-02  0.239909D-03  0.284507D-02 -0.778518D-03
     15 -0.480834D-01  0.843427D-02  0.118672D-01 -0.109124D-01 -0.106908D-02
     16  0.314613D-01 -0.373596D-02 -0.245540D-02 -0.410844D-02  0.107095D-02
     17  0.166155D-01 -0.472928D-02 -0.937350D-02  0.150225D-01 -0.951011D-05
     18 -0.377696D-02  0.186080D-01 -0.304481D-01 -0.331428D-01 -0.165577D-02
     19 -0.857707D-02 -0.310364D-01  0.192996D-01 -0.315955D-01 -0.525767D-03
     20  0.158155D-01 -0.326362D-01 -0.312111D-01  0.107198D-01 -0.207353D-03
     21 -0.105313D-02  0.262364D-01  0.246392D-01 -0.100525D-02  0.101525D-02
     22 -0.194042D-02  0.242221D-01 -0.173338D-02  0.270971D-01  0.859368D-03
     23 -0.117028D-02 -0.245544D-02  0.233958D-01  0.289759D-01  0.637056D-03
     24 -0.155148D-03 -0.178817D-02  0.385291D-03 -0.370213D-03  0.204751D-01
     25 -0.267227D-02 -0.608302D-03 -0.996046D-03 -0.162291D-02  0.279323D-03
     26 -0.392151D-02 -0.130352D-02 -0.126344D-03 -0.741478D-03  0.926528D-03
     27 -0.211521D-03  0.141959D-02 -0.148678D-02  0.902618D-03 -0.166133D-03
     28 -0.156486D-03 -0.154094D-03  0.184226D-03  0.122332D-02 -0.528597D-03
     29  0.436480D-03  0.234058D-02 -0.219971D-02  0.144776D-03 -0.998109D-03
     30  0.491514D-03  0.766896D-03 -0.528697D-03  0.465479D-03 -0.136057D-02
     31 -0.333392D-02  0.452713D-03 -0.129778D-02 -0.387745D-03  0.568599D-03
     32 -0.351632D-02 -0.408766D-03 -0.517113D-03  0.119169D-03  0.144205D-02
     33  0.511737D-02 -0.661579D-03 -0.238934D-01  0.203695D-01 -0.256847D-03
     34 -0.363436D-02  0.234394D-01 -0.348338D-05 -0.197174D-01 -0.315589D-03
     35 -0.781548D-03 -0.226308D-01  0.227513D-01  0.195938D-02 -0.102935D-04
     36  0.477013D-02  0.820401D-03 -0.255261D-01  0.202937D-01  0.669954D-04
     37 -0.398161D-02  0.249214D-01 -0.163617D-02 -0.197932D-01  0.825324D-05
     38 -0.112879D-02 -0.211488D-01  0.211187D-01  0.188358D-02  0.313549D-03
               11            12            13            14            15 
     11  0.156564D+00
     12 -0.900473D-01  0.171655D+00
     13 -0.666173D-01 -0.816030D-01  0.148393D+00
     14  0.155886D-01 -0.139810D-01 -0.126073D-02  0.313279D+00
     15  0.360122D-01 -0.240321D-01 -0.122266D-01 -0.179683D-02  0.175321D+00
     16 -0.892659D-02  0.599471D-02  0.303942D-02  0.328329D-02 -0.910099D-01
     17 -0.270517D-01  0.180253D-01  0.916833D-02 -0.140058D-02 -0.842590D-01
     18 -0.920202D-02  0.176758D-02  0.734130D-02  0.327689D-02  0.196171D-02
     19 -0.114401D-01  0.264573D-02  0.896278D-02  0.163476D-02 -0.381093D-02
     20  0.382683D-01 -0.170147D-01 -0.214173D-01 -0.640809D-03  0.384466D-01
     21  0.107806D-02  0.953198D-03 -0.203925D-02 -0.176670D-02 -0.581424D-02
     22 -0.725673D-02  0.485158D-02  0.248583D-02 -0.183672D-02 -0.138471D-01
     23 -0.132518D-01  0.779507D-02  0.548096D-02 -0.841033D-03 -0.195935D-01
     24 -0.561832D-02  0.584891D-02  0.164762D-04 -0.368569D-02  0.528130D-03
     25  0.212165D-02  0.282355D-02 -0.536536D-02 -0.298930D-02 -0.512638D-03
     26 -0.239522D-02 -0.558978D-03  0.367612D-02  0.208827D-02 -0.473296D-02
     27 -0.101098D-01  0.660495D-02  0.401777D-02  0.665028D-02 -0.971361D-02
     28 -0.896677D-02  0.634396D-02  0.327579D-02  0.107488D-01 -0.892241D-02
     29 -0.494962D-02 -0.957273D-03  0.523301D-02  0.185149D-02 -0.490800D-02
     30 -0.380660D-02 -0.121826D-02  0.449102D-02  0.595006D-02 -0.411680D-02
     31 -0.445070D-02  0.733852D-02 -0.348709D-02 -0.519274D-02 -0.277494D-04
     32  0.807669D-03  0.396693D-02 -0.420390D-02  0.792743D-03 -0.226365D-02
     33  0.472622D-02 -0.141837D-02 -0.328255D-02  0.187304D-02  0.167622D-02
     34 -0.637394D-02  0.240471D-02  0.403252D-02  0.264822D-02 -0.659304D-02
     35 -0.617997D-02  0.302763D-02  0.325709D-02  0.230472D-02 -0.899744D-02
     36  0.349507D-02 -0.106854D-02 -0.253274D-02 -0.203802D-02  0.139610D-02
     37 -0.760508D-02  0.275454D-02  0.478233D-02 -0.126284D-02 -0.687316D-02
     38 -0.741112D-02  0.337746D-02  0.400690D-02 -0.160633D-02 -0.927756D-02
               16            17            18            19            20 
     16  0.160978D+00
     17 -0.699615D-01  0.154167D+00
     18  0.514723D-02 -0.718113D-02  0.185728D+00
     19  0.279605D-02  0.104921D-02  0.382392D-02  0.200505D+00
     20 -0.342189D-01 -0.420065D-02 -0.101459D-01 -0.138890D-01  0.215636D+00
     21  0.246758D-02  0.334997D-02 -0.847205D-01 -0.908548D-01 -0.136606D-01
     22  0.997959D-02  0.388987D-02 -0.898610D-01 -0.142669D-01 -0.961820D-01
     23  0.158613D-01  0.371705D-02 -0.134948D-01 -0.938592D-01 -0.948508D-01
     24 -0.477699D-03 -0.380442D-04 -0.268437D-02  0.112994D-02 -0.245581D-03
     25  0.212912D-02 -0.161025D-02 -0.470059D-03 -0.279101D-02  0.983687D-03
     26  0.386431D-02  0.916593D-03 -0.152608D-02  0.105804D-03 -0.240597D-02
     27  0.542765D-02  0.425647D-02  0.588254D-02 -0.188245D-02 -0.651200D-02
     28  0.502670D-02  0.405711D-02  0.232010D-02 -0.212861D-03 -0.539116D-02
     29  0.351424D-02  0.132019D-02  0.727635D-02 -0.458150D-02 -0.331792D-02
     30  0.311329D-02  0.112083D-02  0.371391D-02 -0.291190D-02 -0.219708D-02
     31  0.139004D-02 -0.139383D-02  0.131377D-02 -0.222413D-02  0.344499D-03
     32  0.265741D-02 -0.379736D-03 -0.530770D-03 -0.149977D-03 -0.486802D-03
     33 -0.227064D-02  0.676788D-03  0.181387D-02 -0.121382D-01  0.146275D-01
     34  0.549045D-02  0.116730D-02  0.103674D-01  0.149546D-02 -0.165287D-01
     35  0.521494D-02  0.386968D-02 -0.106914D-01  0.133767D-01 -0.572221D-02
     36 -0.508848D-02  0.359493D-02  0.500117D-02 -0.137359D-01  0.140477D-01
     37  0.267261D-02  0.408544D-02  0.135547D-01 -0.102237D-03 -0.171085D-01
     38  0.239710D-02  0.678782D-02 -0.750407D-02  0.117790D-01 -0.630202D-02
               21            22            23            24            25 
     21  0.139874D+00
     22  0.302589D-01  0.144178D+00
     23  0.311571D-01  0.351317D-01  0.146746D+00
     24  0.717179D-03  0.111529D-02  0.692840D-04  0.171867D+00
     25  0.133014D-02  0.484233D-03  0.538805D-03 -0.215410D-03  0.109277D-01
     26  0.112237D-02  0.179529D-02  0.114789D-02  0.345618D-02  0.445974D-02
     27 -0.140061D-03  0.539309D-03  0.236752D-02 -0.350627D-03 -0.121835D-02
     28  0.819735D-04  0.170672D-02  0.175505D-02  0.240439D-03 -0.940435D-03
     29 -0.624247D-04 -0.910373D-03  0.167854D-02 -0.443331D-02  0.516939D-02
     30  0.159610D-03  0.257041D-03  0.106606D-02 -0.384225D-02  0.544730D-02
     31  0.582736D-03 -0.439333D-03  0.441237D-03 -0.241449D-02  0.345259D-02
     32  0.513047D-03  0.487148D-03  0.238679D-03  0.114681D-02 -0.289317D-02
     33 -0.325477D-01  0.265251D-01 -0.824375D-03 -0.415379D-04  0.533911D-03
     34  0.328263D-01  0.170006D-02 -0.280138D-01 -0.615900D-04  0.177856D-03
     35  0.315384D-05 -0.264948D-01  0.305973D-01  0.654475D-03 -0.444854D-03
     36 -0.327571D-01  0.253208D-01 -0.449204D-03 -0.589396D-03  0.223434D-03
     37  0.326169D-01  0.495783D-03 -0.276387D-01 -0.609449D-03 -0.132621D-03
     38 -0.206185D-03 -0.276991D-01  0.309725D-01  0.106617D-03 -0.755331D-03
               26            27            28            29            30 
     26  0.153323D-01
     27  0.657519D-02  0.112754D-01
     28  0.889785D-02  0.995075D-02  0.177623D-01
     29 -0.459841D-02  0.304513D-02 -0.445030D-03  0.135641D-01
     30 -0.227576D-02  0.172051D-02  0.736653D-02  0.100739D-01  0.157199D-01
     31 -0.558573D-02 -0.270120D-02 -0.423078D-02  0.628253D-02  0.475295D-02
     32  0.539184D-02  0.474166D-02  0.541451D-02 -0.429907D-02 -0.362622D-02
     33  0.763017D-03 -0.738110D-03  0.321069D-02 -0.108105D-02  0.286775D-02
     34  0.129716D-02  0.141688D-02  0.455143D-02  0.345003D-03  0.347955D-02
     35  0.125583D-02 -0.114566D-02  0.310913D-02 -0.288983D-02  0.136496D-02
     36 -0.146513D-02  0.469033D-03 -0.415189D-02  0.215537D-02 -0.246555D-02
     37 -0.930986D-03  0.262402D-02 -0.281115D-02  0.358142D-02 -0.185375D-02
     38 -0.972313D-03  0.614846D-04 -0.425345D-02  0.346591D-03 -0.396834D-02
               31            32            33            34            35 
     31  0.286442D-02
     32 -0.651535D-02  0.230363D-02
     33 -0.436673D-03  0.162498D-03  0.320445D-01
     34 -0.306065D-03  0.384160D-03 -0.140502D-01  0.330855D-01
     35 -0.107402D-02  0.264345D-03 -0.140194D-01 -0.121678D-01  0.322172D-01
     36  0.962575D-03 -0.513241D-03  0.283806D-01 -0.170621D-01 -0.180491D-01
     37  0.109318D-02 -0.291579D-03 -0.177142D-01  0.300736D-01 -0.161974D-01
     38  0.325231D-03 -0.411394D-03 -0.176833D-01 -0.151797D-01  0.281875D-01
               36            37            38 
     36  0.328329D-01
     37 -0.126098D-01  0.351780D-01
     38 -0.135967D-01 -0.110930D-01  0.322741D-01
 Leave Link  716 at Sat May 24 06:33:12 2025, MaxMem=  3758096384 cpu:               0.0 elap:               0.0
 (Enter /apps/easybuild-2022/easybuild/software/Compiler/NVHPC/22.11-CUDA-11.7.0/Gaussian/g16c01-CUDA-11.7.0/g16/l103.exe)

 GradGradGradGradGradGradGradGradGradGradGradGradGradGradGradGradGradGrad
 Berny optimization.
 Red2BG is reusing G-inverse.
 Internal  Forces:  Max     0.009112175 RMS     0.002581301
 Search for a local minimum.
 Step number   1 out of a maximum of   48
 All quantities printed in internal units (Hartrees-Bohrs-Radians)
 RMS Force = .25813D-02 SwitMx=.10000D-02 MixMth= 1
 Mixed Optimization -- RFO/linear search
 Second derivative matrix not updated -- analytic derivatives used.
 ITU=  0
     Eigenvalues ---   -0.00479   0.00055   0.01296   0.01628   0.03158
     Eigenvalues ---    0.03767   0.12623   0.13255   0.15425   0.16673
     Eigenvalues ---    0.19974   0.21147   0.23313   0.23790   0.24563
     Eigenvalues ---    0.27099   0.31740   0.32515   0.39919   0.41543
     Eigenvalues ---    0.44747   0.45357   0.48976   0.52226   0.53767
     Eigenvalues ---    0.58079   0.66903
 Eigenvalue     1 is  -4.79D-03 should be greater than     0.000000 Eigenvector:
                          D7        D8        D3        D5        A2
   1                    0.70393   0.70146  -0.05884  -0.05500  -0.02860
                          D4        A3        D11       D10       D9
   1                   -0.02518   0.02471   0.02417   0.02332   0.02232
 RFO step:  Lambda=-5.25099431D-03 EMin=-4.78613769D-03
 I=     1 Eig=   -4.79D-03 Dot1=  8.16D-04
 I=     1 Stepn=  6.00D-01 RXN=   6.00D-01 EDone=F
 Mixed    1 eigenvectors in step.  Raw Step.Grad=  8.16D-04.
 RFO eigenvector is Hessian eigenvector with negative curvature.
 Taking step of  6.00D-01 in eigenvector direction(s).  Step.Grad=  1.17D-04.
 Linear search not attempted -- first point.
 Iteration  1 RMS(Cart)=  0.04626004 RMS(Int)=  0.05154533
 Iteration  2 RMS(Cart)=  0.04841639 RMS(Int)=  0.00738186
 Iteration  3 RMS(Cart)=  0.00702959 RMS(Int)=  0.00012092
 Iteration  4 RMS(Cart)=  0.00011482 RMS(Int)=  0.00002158
 Iteration  5 RMS(Cart)=  0.00000003 RMS(Int)=  0.00002158
 ITry= 1 IFail=0 DXMaxC= 3.92D-01 DCOld= 1.00D+10 DXMaxT= 3.00D-01 DXLimC= 3.00D+00 Rises=F
 Variable       Old X    -DE/DX   Delta X   Delta X   Delta X     New X
                                 (Linear)    (Quad)   (Total)
    R1        2.54516  -0.00120   0.00000  -0.00477  -0.00477   2.54039
    R2        2.51703   0.00108   0.00000   0.00016   0.00016   2.51720
    R3        2.52114   0.00911   0.00000  -0.00350  -0.00350   2.51764
    R4        2.70400  -0.00465   0.00000  -0.00575  -0.00575   2.69825
    R5        2.84557   0.00182   0.00000  -0.00438  -0.00438   2.84119
    R6        2.50561  -0.00098   0.00000   0.00759   0.00759   2.51320
    R7        2.52405  -0.00051   0.00000   0.00034   0.00034   2.52438
    R8        2.51935   0.00020   0.00000   0.00117   0.00117   2.52052
    R9        2.50136  -0.00131   0.00000   0.00062   0.00062   2.50198
   R10        1.82193  -0.00098   0.00000  -0.00171  -0.00171   1.82023
    A1        2.08056  -0.00193   0.00000   0.00223   0.00223   2.08279
    A2        2.06150  -0.00437   0.00000  -0.01716  -0.01716   2.04434
    A3        2.13865   0.00614   0.00000   0.01483   0.01483   2.15348
    A4        1.85149  -0.00371   0.00000   0.00789   0.00789   1.85937
    A5        2.23405   0.00225   0.00000   0.00270   0.00265   2.23670
    A6        2.08943  -0.00026   0.00000  -0.00763  -0.00768   2.08176
    A7        1.95940  -0.00198   0.00000   0.00535   0.00530   1.96470
    A8        1.93263   0.00013   0.00000   0.00141   0.00141   1.93404
    A9        1.90399  -0.00134   0.00000   0.00319   0.00319   1.90718
   A10        1.97288  -0.00054   0.00000  -0.00277  -0.00277   1.97011
   A11        1.87161   0.00087   0.00000  -0.00179  -0.00179   1.86982
   A12        1.88960   0.00065   0.00000  -0.00014  -0.00014   1.88945
   A13        1.88999   0.00033   0.00000   0.00007   0.00008   1.89007
   A14        1.90970   0.00541   0.00000   0.00415   0.00415   1.91384
    D1        2.05538   0.00121   0.00000   0.01102   0.01101   2.06639
    D2       -1.15987  -0.00087   0.00000   0.01020   0.01021  -1.14966
    D3       -0.18903   0.00000   0.00000  -0.03530  -0.03527  -0.22430
    D4        2.92433   0.00008   0.00000  -0.01511  -0.01515   2.90918
    D5        3.02963   0.00267   0.00000  -0.03300  -0.03296   2.99667
    D6       -0.14020   0.00274   0.00000  -0.01281  -0.01284  -0.15304
    D7        1.87219   0.00222   0.00000   0.42236   0.42236   2.29455
    D8       -1.34567  -0.00032   0.00000   0.42088   0.42088  -0.92479
    D9        1.87133   0.00008   0.00000   0.01339   0.01342   1.88475
   D10       -2.35602   0.00040   0.00000   0.01399   0.01402  -2.34200
   D11       -0.25234  -0.00048   0.00000   0.01450   0.01453  -0.23781
   D12       -1.24377  -0.00000   0.00000  -0.00538  -0.00541  -1.24918
   D13        0.81207   0.00031   0.00000  -0.00479  -0.00481   0.80726
   D14        2.91575  -0.00056   0.00000  -0.00428  -0.00430   2.91145
         Item               Value     Threshold  Converged?
 Maximum Force            0.009112     0.000450     NO 
 RMS     Force            0.002581     0.000300     NO 
 Maximum Displacement     0.392087     0.001800     NO 
 RMS     Displacement     0.095047     0.001200     NO 
 Predicted change in Energy=-1.677788D-03
 Lowest energy point so far.  Saving SCF results.
 GradGradGradGradGradGradGradGradGradGradGradGradGradGradGradGradGradGrad

 Leave Link  103 at Sat May 24 06:33:12 2025, MaxMem=  3758096384 cpu:               0.0 elap:               0.0
 (Enter /apps/easybuild-2022/easybuild/software/Compiler/NVHPC/22.11-CUDA-11.7.0/Gaussian/g16c01-CUDA-11.7.0/g16/l202.exe)
                          Input orientation:                          
 ---------------------------------------------------------------------
 Center     Atomic      Atomic             Coordinates (Angstroms)
 Number     Number       Type             X           Y           Z
 ---------------------------------------------------------------------
      1          6           0        1.311973    0.011057    0.022293
      2          8           0       -0.031816   -0.000798   -0.013425
      3          6           0        1.977510   -1.138839   -0.073300
      4          6           0        1.436808   -2.537151    0.040052
      5          9           0        1.420976   -3.138075   -1.152897
      6          9           0        2.235350   -3.255176    0.831124
      7          9           0        0.211679   -2.576320    0.540526
      8          9           0       -0.476208    0.526016    1.237070
      9          9           0        3.286731   -1.115129   -0.305869
     10          8           0        1.908125    1.201722    0.065665
     11          1           0        2.572142    1.206360    0.763416
 ---------------------------------------------------------------------
                    Distance matrix (angstroms):
                    1          2          3          4          5
     1  C    0.000000
     2  O    1.344316   0.000000
     3  C    1.332043   2.310003   0.000000
     4  C    2.551326   2.931349   1.503491   0.000000
     5  F    3.363032   3.640262   2.339274   1.335847   0.000000
     6  F    3.489285   4.055155   2.315890   1.333800   2.147850
     7  F    2.858974   2.645650   2.358239   1.323990   2.155376
     8  F    2.222265   1.427851   3.241843   3.804666   4.768314
     9  F    2.296879   3.512835   1.329928   2.358818   2.879376
    10  O    1.332276   2.283786   2.345709   3.768550   4.533877
    11  H    1.888396   2.973434   2.560008   3.978205   4.885852
                    6          7          8          9         10
     6  F    0.000000
     7  F    2.154191   0.000000
     8  F    4.670627   3.253130   0.000000
     9  F    2.641582   3.508191   4.385628   0.000000
    10  O    4.533976   4.168575   2.741134   2.721468   0.000000
    11  H    4.474742   4.464318   3.159059   2.653925   0.963222
                   11
    11  H    0.000000
 Symmetry turned off by external request.
 Stoichiometry    C3HF5O2
 Rotational constants (GHZ):           1.9608934           1.0330981           0.7926774
 Leave Link  202 at Sat May 24 06:33:12 2025, MaxMem=  3758096384 cpu:               0.0 elap:               0.0
 (Enter /apps/easybuild-2022/easybuild/software/Compiler/NVHPC/22.11-CUDA-11.7.0/Gaussian/g16c01-CUDA-11.7.0/g16/l301.exe)
 Standard basis: def2TZVPP (5D, 7F)
 Ernie: Thresh=  0.10000D-02 Tol=  0.10000D-05 Strict=F.
   324 basis functions,   527 primitive gaussians,   375 cartesian basis functions
    40 alpha electrons       40 beta electrons
       nuclear repulsion energy       613.2108087275 Hartrees.
 IExCor= 4336 DFT=T Ex+Corr=M062X ExCW=0 ScaHFX=  0.540000
 ScaDFX=  1.000000  1.000000  1.000000  1.000000 ScalE2=  1.000000  1.000000
 IRadAn=      5 IRanWt=     -1 IRanGd=            0 ICorTp=0 IEmpDi=  4
 NAtoms=   11 NActive=   11 NUniq=   11 SFac= 1.00D+00 NAtFMM=   60 NAOKFM=F Big=F
 Integral buffers will be    131072 words long.
 Raffenetti 2 integral format.
 Two-electron integral symmetry is turned off.
 Leave Link  301 at Sat May 24 06:33:12 2025, MaxMem=  3758096384 cpu:               0.0 elap:               0.0
 (Enter /apps/easybuild-2022/easybuild/software/Compiler/NVHPC/22.11-CUDA-11.7.0/Gaussian/g16c01-CUDA-11.7.0/g16/l302.exe)
 NPDir=0 NMtPBC=     1 NCelOv=     1 NCel=       1 NClECP=     1 NCelD=      1
         NCelK=      1 NCelE2=     1 NClLst=     1 CellRange=     0.0.
 One-electron integrals computed using PRISM.
   1 Symmetry operations used in ECPInt.
 ECPInt:  NShTT=    6786 NPrTT=   21959 LenC2=    6369 LenP2D=   15599.
 LDataN:  DoStor=T MaxTD1= 6 Len=  172
 NBasis=   324 RedAO= T EigKep=  9.29D-05  NBF=   324
 NBsUse=   324 1.00D-06 EigRej= -1.00D+00 NBFU=   324
 Precomputing XC quadrature grid using
 IXCGrd= 4 IRadAn=           5 IRanWt=          -1 IRanGd=           0 AccXCQ= 0.00D+00.
 Generated NRdTot=       0 NPtTot=           0 NUsed=           0 NTot=          32
 NSgBfM=   373   373   373   373   373 MxSgAt=    11 MxSgA2=    11.
 Leave Link  302 at Sat May 24 06:33:12 2025, MaxMem=  3758096384 cpu:               0.6 elap:               0.1
 (Enter /apps/easybuild-2022/easybuild/software/Compiler/NVHPC/22.11-CUDA-11.7.0/Gaussian/g16c01-CUDA-11.7.0/g16/l303.exe)
 DipDrv:  MaxL=1.
 Leave Link  303 at Sat May 24 06:33:12 2025, MaxMem=  3758096384 cpu:               0.1 elap:               0.0
 (Enter /apps/easybuild-2022/easybuild/software/Compiler/NVHPC/22.11-CUDA-11.7.0/Gaussian/g16c01-CUDA-11.7.0/g16/l401.exe)
 Initial guess from the checkpoint file:  "/tmp/Gau-256354.chk"
 B after Tr=    -0.063134   -0.015959   -0.009459
         Rot=    0.999944   -0.002530    0.007225   -0.007317 Ang=  -1.21 deg.
 Guess basis will be translated and rotated to current coordinates.
 JPrj=2 DoOrth=T DoCkMO=T.
 Generating alternative initial guess.
 ExpMin= 9.52D-02 ExpMax= 3.55D+04 ExpMxC= 1.21D+03 IAcc=3 IRadAn=         5 AccDes= 0.00D+00
 Harris functional with IExCor= 1009 and IRadAn=       5 diagonalized for initial guess.
 HarFok:  IExCor= 1009 AccDes= 0.00D+00 IRadAn=         5 IDoV= 1 UseB2=F ITyADJ=14
 ICtDFT=  3500011 ScaDFX=  1.000000  1.000000  1.000000  1.000000
 FoFCou: FMM=F IPFlag=           0 FMFlag=      100000 FMFlg1=           0
         NFxFlg=           0 DoJE=T BraDBF=F KetDBF=T FulRan=T
         wScrn=  0.000000 ICntrl=       500 IOpCl=  0 I1Cent=   200000004 NGrid=           0
         NMat0=    1 NMatS0=      1 NMatT0=    0 NMatD0=    1 NMtDS0=    0 NMtDT0=    0
 Symmetry not used in FoFCou.
 Harris En= -764.034156255941    
 Leave Link  401 at Sat May 24 06:33:13 2025, MaxMem=  3758096384 cpu:               3.6 elap:               0.5
 (Enter /apps/easybuild-2022/easybuild/software/Compiler/NVHPC/22.11-CUDA-11.7.0/Gaussian/g16c01-CUDA-11.7.0/g16/l502.exe)
 Keep R1 ints in memory in canonical form, NReq=1412617130.
 FoFCou: FMM=F IPFlag=           0 FMFlag=           0 FMFlg1=           0
         NFxFlg=           0 DoJE=F BraDBF=F KetDBF=F FulRan=T
         wScrn=  0.000000 ICntrl=       600 IOpCl=  0 I1Cent=           0 NGrid=           0
         NMat0=    1 NMatS0=  52650 NMatT0=    0 NMatD0=    1 NMtDS0=    0 NMtDT0=    0
 Symmetry not used in FoFCou.
 Two-electron integral symmetry not used.
 Closed shell SCF:
 Using DIIS extrapolation, IDIIS=  1040.
 NGot=  3758096384 LenX=  2371771924 LenY=  2371630858
 Requested convergence on RMS density matrix=1.00D-08 within  32 cycles.
 Requested convergence on MAX density matrix=1.00D-06.
 Requested convergence on             energy=1.00D-06.
 No special actions if energy rises.
 Integral accuracy reduced to 1.0D-05 until final iterations.

 Cycle   1  Pass 0  IDiag  1:
 E= -764.467822050239    
 DIIS: error= 6.24D-03 at cycle   1 NSaved=   1.
 NSaved= 1 IEnMin= 1 EnMin= -764.467822050239     IErMin= 1 ErrMin= 6.24D-03
 ErrMax= 6.24D-03  0.00D+00 EMaxC= 1.00D-01 BMatC= 1.93D-02 BMatP= 1.93D-02
 IDIUse=3 WtCom= 9.38D-01 WtEn= 6.24D-02
 Coeff-Com:  0.100D+01
 Coeff-En:   0.100D+01
 Coeff:      0.100D+01
 Gap=     0.958 Goal=   None    Shift=    0.000
 GapD=    0.958 DampG=2.000 DampE=1.000 DampFc=2.0000 IDamp=-1.
 RMSDP=4.79D-04 MaxDP=3.32D-02              OVMax= 5.25D-02

 Cycle   2  Pass 0  IDiag  1:
 E= -764.487569229952     Delta-E=       -0.019747179712 Rises=F Damp=F
 DIIS: error= 1.41D-03 at cycle   2 NSaved=   2.
 NSaved= 2 IEnMin= 2 EnMin= -764.487569229952     IErMin= 2 ErrMin= 1.41D-03
 ErrMax= 1.41D-03  0.00D+00 EMaxC= 1.00D-01 BMatC= 9.34D-04 BMatP= 1.93D-02
 IDIUse=3 WtCom= 9.86D-01 WtEn= 1.41D-02
 Coeff-Com: -0.489D-01 0.105D+01
 Coeff-En:   0.000D+00 0.100D+01
 Coeff:     -0.482D-01 0.105D+01
 Gap=     0.308 Goal=   None    Shift=    0.000
 RMSDP=1.43D-04 MaxDP=6.25D-03 DE=-1.97D-02 OVMax= 1.26D-02

 Cycle   3  Pass 0  IDiag  1:
 E= -764.488199043008     Delta-E=       -0.000629813056 Rises=F Damp=F
 DIIS: error= 1.16D-03 at cycle   3 NSaved=   3.
 NSaved= 3 IEnMin= 3 EnMin= -764.488199043008     IErMin= 3 ErrMin= 1.16D-03
 ErrMax= 1.16D-03  0.00D+00 EMaxC= 1.00D-01 BMatC= 7.25D-04 BMatP= 9.34D-04
 IDIUse=3 WtCom= 9.88D-01 WtEn= 1.16D-02
 Coeff-Com: -0.636D-01 0.513D+00 0.551D+00
 Coeff-En:   0.000D+00 0.212D-01 0.979D+00
 Coeff:     -0.629D-01 0.507D+00 0.556D+00
 Gap=     0.308 Goal=   None    Shift=    0.000
 RMSDP=6.58D-05 MaxDP=3.32D-03 DE=-6.30D-04 OVMax= 1.14D-02

 Cycle   4  Pass 0  IDiag  1:
 E= -764.488723924881     Delta-E=       -0.000524881874 Rises=F Damp=F
 DIIS: error= 2.58D-04 at cycle   4 NSaved=   4.
 NSaved= 4 IEnMin= 4 EnMin= -764.488723924881     IErMin= 4 ErrMin= 2.58D-04
 ErrMax= 2.58D-04  0.00D+00 EMaxC= 1.00D-01 BMatC= 4.60D-05 BMatP= 7.25D-04
 IDIUse=3 WtCom= 9.97D-01 WtEn= 2.58D-03
 Coeff-Com: -0.104D-01 0.542D-02 0.193D+00 0.812D+00
 Coeff-En:   0.000D+00 0.000D+00 0.000D+00 0.100D+01
 Coeff:     -0.104D-01 0.540D-02 0.192D+00 0.812D+00
 Gap=     0.308 Goal=   None    Shift=    0.000
 RMSDP=2.43D-05 MaxDP=9.34D-04 DE=-5.25D-04 OVMax= 2.54D-03

 Cycle   5  Pass 0  IDiag  1:
 E= -764.488767074877     Delta-E=       -0.000043149996 Rises=F Damp=F
 DIIS: error= 6.27D-05 at cycle   5 NSaved=   5.
 NSaved= 5 IEnMin= 5 EnMin= -764.488767074877     IErMin= 5 ErrMin= 6.27D-05
 ErrMax= 6.27D-05  0.00D+00 EMaxC= 1.00D-01 BMatC= 3.57D-06 BMatP= 4.60D-05
 IDIUse=1 WtCom= 1.00D+00 WtEn= 0.00D+00
 Coeff-Com:  0.185D-02-0.463D-01 0.240D-01 0.292D+00 0.728D+00
 Coeff:      0.185D-02-0.463D-01 0.240D-01 0.292D+00 0.728D+00
 Gap=     0.308 Goal=   None    Shift=    0.000
 RMSDP=7.20D-06 MaxDP=2.81D-04 DE=-4.31D-05 OVMax= 1.05D-03

 Initial convergence to 1.0D-05 achieved.  Increase integral accuracy.
 Cycle   6  Pass 1  IDiag  1:
 E= -764.488738999879     Delta-E=        0.000028074998 Rises=F Damp=F
 DIIS: error= 3.30D-05 at cycle   1 NSaved=   1.
 NSaved= 1 IEnMin= 1 EnMin= -764.488738999879     IErMin= 1 ErrMin= 3.30D-05
 ErrMax= 3.30D-05  0.00D+00 EMaxC= 1.00D-01 BMatC= 1.21D-06 BMatP= 1.21D-06
 IDIUse=1 WtCom= 1.00D+00 WtEn= 0.00D+00
 Coeff-Com:  0.100D+01
 Coeff:      0.100D+01
 Gap=     0.308 Goal=   None    Shift=    0.000
 RMSDP=7.20D-06 MaxDP=2.81D-04 DE= 2.81D-05 OVMax= 4.55D-04

 Cycle   7  Pass 1  IDiag  1:
 E= -764.488739087905     Delta-E=       -0.000000088025 Rises=F Damp=F
 DIIS: error= 4.42D-05 at cycle   2 NSaved=   2.
 NSaved= 2 IEnMin= 2 EnMin= -764.488739087905     IErMin= 1 ErrMin= 3.30D-05
 ErrMax= 4.42D-05  0.00D+00 EMaxC= 1.00D-01 BMatC= 1.46D-06 BMatP= 1.21D-06
 IDIUse=1 WtCom= 1.00D+00 WtEn= 0.00D+00
 Coeff-Com:  0.527D+00 0.473D+00
 Coeff:      0.527D+00 0.473D+00
 Gap=     0.308 Goal=   None    Shift=    0.000
 RMSDP=2.75D-06 MaxDP=1.24D-04 DE=-8.80D-08 OVMax= 3.22D-04

 Cycle   8  Pass 1  IDiag  1:
 E= -764.488739994857     Delta-E=       -0.000000906952 Rises=F Damp=F
 DIIS: error= 9.17D-06 at cycle   3 NSaved=   3.
 NSaved= 3 IEnMin= 3 EnMin= -764.488739994857     IErMin= 3 ErrMin= 9.17D-06
 ErrMax= 9.17D-06  0.00D+00 EMaxC= 1.00D-01 BMatC= 5.12D-08 BMatP= 1.21D-06
 IDIUse=1 WtCom= 1.00D+00 WtEn= 0.00D+00
 Coeff-Com:  0.796D-02 0.140D+00 0.852D+00
 Coeff:      0.796D-02 0.140D+00 0.852D+00
 Gap=     0.308 Goal=   None    Shift=    0.000
 RMSDP=1.07D-06 MaxDP=4.39D-05 DE=-9.07D-07 OVMax= 6.51D-05

 Cycle   9  Pass 1  IDiag  1:
 E= -764.488740028053     Delta-E=       -0.000000033197 Rises=F Damp=F
 DIIS: error= 4.51D-06 at cycle   4 NSaved=   4.
 NSaved= 4 IEnMin= 4 EnMin= -764.488740028053     IErMin= 4 ErrMin= 4.51D-06
 ErrMax= 4.51D-06  0.00D+00 EMaxC= 1.00D-01 BMatC= 1.76D-08 BMatP= 5.12D-08
 IDIUse=1 WtCom= 1.00D+00 WtEn= 0.00D+00
 Coeff-Com: -0.419D-01 0.395D-01 0.483D+00 0.519D+00
 Coeff:     -0.419D-01 0.395D-01 0.483D+00 0.519D+00
 Gap=     0.308 Goal=   None    Shift=    0.000
 RMSDP=3.12D-07 MaxDP=1.17D-05 DE=-3.32D-08 OVMax= 2.44D-05

 Cycle  10  Pass 1  IDiag  1:
 E= -764.488740040358     Delta-E=       -0.000000012305 Rises=F Damp=F
 DIIS: error= 7.09D-07 at cycle   5 NSaved=   5.
 NSaved= 5 IEnMin= 5 EnMin= -764.488740040358     IErMin= 5 ErrMin= 7.09D-07
 ErrMax= 7.09D-07  0.00D+00 EMaxC= 1.00D-01 BMatC= 4.03D-10 BMatP= 1.76D-08
 IDIUse=1 WtCom= 1.00D+00 WtEn= 0.00D+00
 Coeff-Com: -0.491D-02-0.124D-01-0.741D-01 0.342D-01 0.106D+01
 Coeff:     -0.491D-02-0.124D-01-0.741D-01 0.342D-01 0.106D+01
 Gap=     0.308 Goal=   None    Shift=    0.000
 RMSDP=1.40D-07 MaxDP=5.32D-06 DE=-1.23D-08 OVMax= 1.96D-05

 Cycle  11  Pass 1  IDiag  1:
 E= -764.488740041156     Delta-E=       -0.000000000798 Rises=F Damp=F
 DIIS: error= 3.46D-07 at cycle   6 NSaved=   6.
 NSaved= 6 IEnMin= 6 EnMin= -764.488740041156     IErMin= 6 ErrMin= 3.46D-07
 ErrMax= 3.46D-07  0.00D+00 EMaxC= 1.00D-01 BMatC= 1.46D-10 BMatP= 4.03D-10
 IDIUse=1 WtCom= 1.00D+00 WtEn= 0.00D+00
 Coeff-Com:  0.191D-02-0.102D-01-0.883D-01-0.404D-01 0.511D+00 0.626D+00
 Coeff:      0.191D-02-0.102D-01-0.883D-01-0.404D-01 0.511D+00 0.626D+00
 Gap=     0.308 Goal=   None    Shift=    0.000
 RMSDP=4.33D-08 MaxDP=1.51D-06 DE=-7.98D-10 OVMax= 5.37D-06

 Cycle  12  Pass 1  IDiag  1:
 E= -764.488740041297     Delta-E=       -0.000000000141 Rises=F Damp=F
 DIIS: error= 1.30D-07 at cycle   7 NSaved=   7.
 NSaved= 7 IEnMin= 7 EnMin= -764.488740041297     IErMin= 7 ErrMin= 1.30D-07
 ErrMax= 1.30D-07  0.00D+00 EMaxC= 1.00D-01 BMatC= 1.49D-11 BMatP= 1.46D-10
 IDIUse=1 WtCom= 1.00D+00 WtEn= 0.00D+00
 Coeff-Com:  0.153D-02-0.192D-02-0.222D-01-0.204D-01 0.496D-01 0.263D+00
 Coeff-Com:  0.731D+00
 Coeff:      0.153D-02-0.192D-02-0.222D-01-0.204D-01 0.496D-01 0.263D+00
 Coeff:      0.731D+00
 Gap=     0.308 Goal=   None    Shift=    0.000
 RMSDP=1.38D-08 MaxDP=4.13D-07 DE=-1.41D-10 OVMax= 1.82D-06

 Cycle  13  Pass 1  IDiag  1:
 E= -764.488740041339     Delta-E=       -0.000000000043 Rises=F Damp=F
 DIIS: error= 4.37D-08 at cycle   8 NSaved=   8.
 NSaved= 8 IEnMin= 8 EnMin= -764.488740041339     IErMin= 8 ErrMin= 4.37D-08
 ErrMax= 4.37D-08  0.00D+00 EMaxC= 1.00D-01 BMatC= 7.62D-13 BMatP= 1.49D-11
 IDIUse=1 WtCom= 1.00D+00 WtEn= 0.00D+00
 Coeff-Com: -0.229D-03 0.904D-03 0.875D-02 0.342D-02-0.500D-01-0.673D-01
 Coeff-Com:  0.206D-02 0.110D+01
 Coeff:     -0.229D-03 0.904D-03 0.875D-02 0.342D-02-0.500D-01-0.673D-01
 Coeff:      0.206D-02 0.110D+01
 Gap=     0.308 Goal=   None    Shift=    0.000
 RMSDP=6.49D-09 MaxDP=2.52D-07 DE=-4.30D-11 OVMax= 9.49D-07

 SCF Done:  E(RM062X) =  -764.488740041     A.U. after   13 cycles
            NFock= 13  Conv=0.65D-08     -V/T= 2.0036
 KE= 7.617297128235D+02 PE=-3.038962420864D+03 EE= 8.995331592717D+02
 Leave Link  502 at Sat May 24 06:33:37 2025, MaxMem=  3758096384 cpu:             105.5 elap:              24.2
 (Enter /apps/easybuild-2022/easybuild/software/Compiler/NVHPC/22.11-CUDA-11.7.0/Gaussian/g16c01-CUDA-11.7.0/g16/l508.exe)
 QCSCF skips out because SCF is already converged.
 Leave Link  508 at Sat May 24 06:33:37 2025, MaxMem=  3758096384 cpu:               0.0 elap:               0.0
 (Enter /apps/easybuild-2022/easybuild/software/Compiler/NVHPC/22.11-CUDA-11.7.0/Gaussian/g16c01-CUDA-11.7.0/g16/l701.exe)
 ... and contract with generalized density number  0.
 Compute integral first derivatives.
   1 Symmetry operations used in ECPInt.
 ECPInt:  NShTT=    6786 NPrTT=   21959 LenC2=    6369 LenP2D=   15599.
 LDataN:  DoStor=T MaxTD1= 7 Len=  274
 Leave Link  701 at Sat May 24 06:33:37 2025, MaxMem=  3758096384 cpu:               0.5 elap:               0.1
 (Enter /apps/easybuild-2022/easybuild/software/Compiler/NVHPC/22.11-CUDA-11.7.0/Gaussian/g16c01-CUDA-11.7.0/g16/l702.exe)
 L702 exits ... SP integral derivatives will be done elsewhere.
 Leave Link  702 at Sat May 24 06:33:37 2025, MaxMem=  3758096384 cpu:               0.0 elap:               0.0
 (Enter /apps/easybuild-2022/easybuild/software/Compiler/NVHPC/22.11-CUDA-11.7.0/Gaussian/g16c01-CUDA-11.7.0/g16/l703.exe)
 Integral derivatives from FoFJK, PRISM(SPDF).
 Compute integral first derivatives, UseDBF=F ICtDFT=           0.
 Calling FoFJK, ICntrl=      2127 FMM=F ISym2X=0 I1Cent= 0 IOpClX= 0 NMat=1 NMatS=1 NMatT=0.
 FoFJK:  IHMeth= 1 ICntrl=    2127 DoSepK=F KAlg= 0 I1Cent=           0 FoldK=F
[...]
 ITry= 1 IFail=0 DXMaxC= 6.25D-04 DCOld= 1.00D+10 DXMaxT= 3.00D-01 DXLimC= 3.00D+00 Rises=F
 Variable       Old X    -DE/DX   Delta X   Delta X   Delta X     New X
                                 (Linear)    (Quad)   (Total)
    R1        2.53864  -0.00000   0.00000   0.00000   0.00000   2.53864
    R2        2.51571   0.00000   0.00000   0.00000   0.00000   2.51571
    R3        2.51887  -0.00000   0.00000  -0.00000  -0.00000   2.51887
    R4        2.68087   0.00000   0.00000  -0.00000  -0.00000   2.68086
    R5        2.83641  -0.00000   0.00000  -0.00001  -0.00001   2.83640
    R6        2.53206  -0.00000   0.00000   0.00001   0.00001   2.53206
    R7        2.52385  -0.00000   0.00000   0.00000   0.00000   2.52385
    R8        2.52224  -0.00000   0.00000   0.00000   0.00000   2.52224
    R9        2.49916  -0.00000   0.00000  -0.00001  -0.00001   2.49915
   R10        1.82206   0.00000   0.00000   0.00000   0.00000   1.82206
    A1        2.09373   0.00000   0.00000   0.00002   0.00002   2.09375
    A2        1.99984  -0.00000   0.00000  -0.00001  -0.00001   1.99983
    A3        2.18597  -0.00000   0.00000  -0.00001  -0.00001   2.18596
    A4        1.84864  -0.00000   0.00000  -0.00001  -0.00001   1.84863
    A5        2.26483   0.00001   0.00000   0.00005   0.00005   2.26488
    A6        2.05631  -0.00000   0.00000  -0.00001  -0.00001   2.05631
    A7        1.96177  -0.00000   0.00000  -0.00004  -0.00004   1.96173
    A8        1.93256  -0.00000   0.00000  -0.00002  -0.00002   1.93254
    A9        1.90864  -0.00000   0.00000   0.00000   0.00000   1.90864
   A10        1.96691   0.00000   0.00000   0.00002   0.00002   1.96693
   A11        1.86894   0.00000   0.00000  -0.00000  -0.00000   1.86894
   A12        1.89174  -0.00000   0.00000   0.00001   0.00001   1.89175
   A13        1.89206   0.00000   0.00000   0.00000   0.00000   1.89206
   A14        1.92399  -0.00000   0.00000  -0.00000  -0.00000   1.92399
    D1        2.06575   0.00000   0.00000   0.00001   0.00001   2.06576
    D2       -1.16275  -0.00000   0.00000  -0.00000  -0.00000  -1.16275
    D3       -0.15531  -0.00000   0.00000  -0.00004  -0.00004  -0.15536
    D4        2.95915   0.00000   0.00000   0.00004   0.00004   2.95918
    D5        3.08308  -0.00000   0.00000  -0.00004  -0.00004   3.08304
    D6       -0.08565   0.00000   0.00000   0.00004   0.00004  -0.08560
    D7        3.05837   0.00000   0.00000   0.00000   0.00000   3.05837
    D8       -0.17543   0.00000   0.00000  -0.00000  -0.00000  -0.17544
    D9        1.94065   0.00000   0.00000   0.00039   0.00039   1.94104
   D10       -2.28716  -0.00000   0.00000   0.00037   0.00037  -2.28678
   D11       -0.18153   0.00000   0.00000   0.00039   0.00039  -0.18114
   D12       -1.17499   0.00000   0.00000   0.00032   0.00032  -1.17467
   D13        0.88039  -0.00000   0.00000   0.00030   0.00030   0.88069
   D14        2.98602  -0.00000   0.00000   0.00031   0.00031   2.98633
         Item               Value     Threshold  Converged?
 Maximum Force            0.000006     0.000450     YES
 RMS     Force            0.000002     0.000300     YES
 Maximum Displacement     0.000625     0.001800     YES
 RMS     Displacement     0.000206     0.001200     YES
 Predicted change in Energy=-6.871674D-10
 Optimization completed.
    -- Stationary point found.
                           ----------------------------
                           !   Optimized Parameters   !
                           ! (Angstroms and Degrees)  !
 --------------------------                            --------------------------
 ! Name  Definition              Value          Derivative Info.                !
 --------------------------------------------------------------------------------
 ! R1    R(1,2)                  1.3434         -DE/DX =    0.0                 !
 ! R2    R(1,3)                  1.3313         -DE/DX =    0.0                 !
 ! R3    R(1,10)                 1.3329         -DE/DX =    0.0                 !
 ! R4    R(2,8)                  1.4187         -DE/DX =    0.0                 !
 ! R5    R(3,4)                  1.501          -DE/DX =    0.0                 !
 ! R6    R(3,9)                  1.3399         -DE/DX =    0.0                 !
 ! R7    R(4,5)                  1.3356         -DE/DX =    0.0                 !
 ! R8    R(4,6)                  1.3347         -DE/DX =    0.0                 !
 ! R9    R(4,7)                  1.3225         -DE/DX =    0.0                 !
 ! R10   R(10,11)                0.9642         -DE/DX =    0.0                 !
 ! A1    A(2,1,3)              119.9618         -DE/DX =    0.0                 !
 ! A2    A(2,1,10)             114.5825         -DE/DX =    0.0                 !
 ! A3    A(3,1,10)             125.2468         -DE/DX =    0.0                 !
 ! A4    A(1,2,8)              105.9192         -DE/DX =    0.0                 !
 ! A5    A(1,3,4)              129.7653         -DE/DX =    0.0                 !
 ! A6    A(1,3,9)              117.8181         -DE/DX =    0.0                 !
 ! A7    A(4,3,9)              112.4011         -DE/DX =    0.0                 !
 ! A8    A(3,4,5)              110.7275         -DE/DX =    0.0                 !
 ! A9    A(3,4,6)              109.357          -DE/DX =    0.0                 !
 ! A10   A(3,4,7)              112.6957         -DE/DX =    0.0                 !
 ! A11   A(5,4,6)              107.0824         -DE/DX =    0.0                 !
 ! A12   A(5,4,7)              108.3888         -DE/DX =    0.0                 !
 ! A13   A(6,4,7)              108.4068         -DE/DX =    0.0                 !
 ! A14   A(1,10,11)            110.2366         -DE/DX =    0.0                 !
 ! D1    D(3,1,2,8)            118.3589         -DE/DX =    0.0                 !
 ! D2    D(10,1,2,8)           -66.6205         -DE/DX =    0.0                 !
 ! D3    D(2,1,3,4)             -8.8988         -DE/DX =    0.0                 !
 ! D4    D(2,1,3,9)            169.5467         -DE/DX =    0.0                 !
 ! D5    D(10,1,3,4)           176.6474         -DE/DX =    0.0                 !
 ! D6    D(10,1,3,9)            -4.9071         -DE/DX =    0.0                 !
 ! D7    D(2,1,10,11)          175.2316         -DE/DX =    0.0                 !
 ! D8    D(3,1,10,11)          -10.0516         -DE/DX =    0.0                 !
 ! D9    D(1,3,4,5)            111.1912         -DE/DX =    0.0                 !
 ! D10   D(1,3,4,6)           -131.0444         -DE/DX =    0.0                 !
 ! D11   D(1,3,4,7)            -10.4007         -DE/DX =    0.0                 !
 ! D12   D(9,3,4,5)            -67.3217         -DE/DX =    0.0                 !
 ! D13   D(9,3,4,6)             50.4427         -DE/DX =    0.0                 !
 ! D14   D(9,3,4,7)            171.0864         -DE/DX =    0.0                 !
 --------------------------------------------------------------------------------
 GradGradGradGradGradGradGradGradGradGradGradGradGradGradGradGradGradGrad

 Leave Link  103 at Sat May 24 06:40:36 2025, MaxMem=  3758096384 cpu:               0.0 elap:               0.0
 (Enter /apps/easybuild-2022/easybuild/software/Compiler/NVHPC/22.11-CUDA-11.7.0/Gaussian/g16c01-CUDA-11.7.0/g16/l9999.exe)

 ----------------------------------------------------------------------

 Electric dipole moment (input orientation):
 (Debye = 10**-18 statcoulomb cm , SI units = C m)
                  (au)            (Debye)         (10**-30 SI)
   Tot        0.907024D+00      0.230542D+01      0.769007D+01
   x          0.778703D+00      0.197927D+01      0.660212D+01
   y          0.465056D+00      0.118206D+01      0.394291D+01
   z         -0.603270D-02     -0.153336D-01     -0.511473D-01

 Dipole polarizability, Alpha (input orientation).
 (esu units = cm**3 , SI units = C**2 m**2 J**-1)
 Alpha(0;0):
               (au)            (10**-24 esu)      (10**-40 SI)
   iso        0.504414D+02      0.747465D+01      0.831667D+01
   aniso      0.262512D+02      0.389003D+01      0.432824D+01
   xx         0.526987D+02      0.780915D+01      0.868885D+01
   yx        -0.807646D+01     -0.119681D+01     -0.133163D+01
   yy         0.594066D+02      0.880315D+01      0.979483D+01
   zx        -0.551732D+01     -0.817583D+00     -0.909684D+00
   zy         0.532266D+01      0.788737D+00      0.877588D+00
   zz         0.392189D+02      0.581164D+01      0.646632D+01

 ----------------------------------------------------------------------

 Dipole orientation:
     6          0.40114106         -1.17126058          2.07845160
     8         -0.16352356          0.00598426         -0.09868849
     6          1.85947305         -3.22103816          2.05686088
     6          2.80441743         -4.75235159         -0.13571203
     9          5.29905777         -4.48088728         -0.40572417
     9          2.36838239         -7.19762973          0.30267783
     9          1.70556613         -4.12901904         -2.29205124
     9         -2.82965031         -0.13553498         -0.34113136
     9          2.70350612         -4.09416510          4.27870113
     8         -0.43878717         -0.00657027          4.14792329
     1         -0.09386067         -1.01756214          5.62400436

 Electric dipole moment (dipole orientation):
 (Debye = 10**-18 statcoulomb cm , SI units = C m)
                  (au)            (Debye)         (10**-30 SI)
   Tot        0.907024D+00      0.230542D+01      0.769007D+01
   x          0.000000D+00      0.000000D+00      0.000000D+00
   y          0.000000D+00      0.000000D+00      0.000000D+00
   z          0.907024D+00      0.230542D+01      0.769007D+01

 Dipole polarizability, Alpha (dipole orientation).
 (esu units = cm**3 , SI units = C**2 m**2 J**-1)
 Alpha(0;0):
               (au)            (10**-24 esu)      (10**-40 SI)
   iso        0.504414D+02      0.747465D+01      0.831667D+01
   aniso      0.262512D+02      0.389003D+01      0.432824D+01
   xx         0.524213D+02      0.776803D+01      0.864310D+01
   yx        -0.147579D+02     -0.218689D+01     -0.243325D+01
   yy         0.515250D+02      0.763522D+01      0.849533D+01
   zx         0.215201D+01      0.318894D+00      0.354818D+00
   zy         0.206483D+00      0.305976D-01      0.340444D-01
   zz         0.473779D+02      0.702068D+01      0.781156D+01

 ----------------------------------------------------------------------
 Unable to Open any file for archive entry.
 1\1\GINC-SPARTAN-BM208\Freq\RM062X\def2TZVPP\C3H1F5O2\AKHALILOV\24-May
 -2025\0\\#P Geom=AllCheck Guess=TCheck SCRF=Check GenChk RM062X/def2TZ
 VPP Freq\\Gaussian input prepared by ASE\\0,1\C,1.2736907572,0.0140938
 257,0.1282325105\O,-0.0685640889,0.0138980829,0.0730143972\C,1.9436529
 698,-1.1313711271,0.0219244751\C,1.4356415166,-2.5437369664,0.01582387
 34\F,1.5899002377,-3.0963513107,-1.1902257345\F,2.1486898998,-3.274073
 8386,0.8758394375\F,0.1597971428,-2.6285672264,0.3535096699\F,-0.50952
 1742,0.518249927,1.3235187759\F,3.2730419501,-1.0662170357,-0.13244966
 21\O,1.826085858,1.2257690738,0.186529919\H,2.7808548854,1.151972974,0
 .2989367484\\Version=ES64L-G16RevC.01\HF=-764.491969\RMSD=2.165e-09\RM
 SF=1.756e-06\ZeroPoint=0.0508461\Thermal=0.0602079\ETot=-764.4317611\H
 Tot=-764.4308169\GTot=-764.4772297\Dipole=0.7787029,0.4650565,-0.00603
 27\DipoleDeriv=0.6635503,0.3607381,0.0105156,0.3095641,1.5255687,-0.03
 15805,-0.0329225,0.081265,0.134492,-0.0150938,-0.3134346,-0.1108816,-0
 .1404837,-0.1138783,0.1673902,-0.5375359,0.4142375,0.3233312,0.9927978
 ,-0.3141781,-0.187565,-0.0266645,-0.321038,0.0026639,-0.125774,0.02019
 04,-0.0803653,1.4560891,0.1410187,0.0526491,-0.3250712,2.1376531,0.133
 4802,0.0217688,0.0311856,1.7111077,-0.2776321,-0.0102102,0.044392,0.09
 06375,-0.6855162,-0.31453,0.0931754,-0.3161036,-0.7939685,-0.4500192,0
 .1777945,-0.1932891,0.2616219,-0.7462039,0.2088846,-0.2283471,0.239445
 6,-0.5237101,-0.7668232,-0.1365441,0.1250722,-0.0921449,-0.4090692,0.0
 037603,0.1336102,0.0115628,-0.3035171,-0.3705945,0.185663,0.0755217,0.
 175545,-0.1583658,-0.1240849,0.6036642,-0.4495994,-0.4135527,-1.076148
 1,0.338103,0.1837429,-0.0660329,-0.2515142,0.0001036,0.1127666,-0.0511
 602,-0.1021827,-0.4614895,-0.5790261,-0.005647,-0.2875085,-1.3008957,-
 0.0597157,-0.0470812,0.0109963,-0.2897826,0.3053632,0.1500758,0.005489
 4,0.1005371,0.3232594,0.0136284,0.0066755,0.0079802,0.338148\Polar=52.
 6987318,-8.0764623,59.4066278,-5.5173249,5.3226583,39.2188784\PG=Unkno
 wn\NImag=0\\0.72159111,-0.11144222,0.86384916,-0.02151024,0.07531684,0
 .19519792,-0.29938706,-0.02405472,-0.05230303,0.44459790,0.00255731,-0
 .06451958,-0.00912566,0.00768624,0.12510738,-0.04607860,0.00912960,-0.
 07725839,0.00785201,0.09963667,0.28638588,-0.17900586,0.21959581,0.027
 45682,-0.05028063,0.02891825,0.01433328,0.68326556,0.16557138,-0.42854
 572,-0.03611491,0.01863939,0.00199036,-0.00829437,-0.13189442,0.840356
 68,0.03083740,-0.04350429,-0.05331330,-0.00799145,0.00406987,-0.001245
 11,-0.06535269,0.04736028,0.15320231,0.02265278,0.00838764,-0.00197761
 ,0.00137886,-0.00417181,-0.00589629,-0.07927960,-0.04010895,0.00099863
 ,0.60732799,-0.00044198,-0.03717124,-0.00307305,0.00355891,-0.00079328
 ,-0.00930403,-0.06605507,-0.20554136,0.00009859,0.03145107,0.61059237,
 -0.00485195,-0.00378913,-0.00004420,-0.00117799,0.00414197,-0.00369581
 ,0.00149480,-0.00097255,-0.05716696,-0.01345116,-0.00219284,0.53026932
 ,-0.00238316,-0.00089750,-0.00052855,-0.00005022,0.00060080,0.00047755
 ,0.00762378,-0.00554161,-0.00564559,-0.07683341,0.00420189,0.01377016,
 0.08354424,-0.00624805,0.00765330,-0.00187879,-0.00123252,0.00050551,0
 .00177485,0.00950168,-0.03320510,-0.04374199,0.00445377,-0.13382572,-0
 .09436580,-0.01950959,0.13327341,-0.00407150,0.00326161,-0.00109381,-0
 .00011308,-0.00072878,0.00080871,0.00810663,-0.02301825,-0.01625389,0.
 01305602,-0.09056165,-0.23161484,-0.03477250,0.12833447,0.36391579,-0.
 00059524,-0.00255405,-0.00043654,0.00026708,0.00065269,-0.00011679,-0.
 00123247,0.00686698,-0.00385190,-0.12426774,0.06121618,-0.06358034,0.0
 0806569,0.00124732,-0.02191248,0.18014452,-0.00504400,0.00557216,0.004
 38691,-0.00144049,-0.00006158,0.00375955,0.03065634,-0.04273126,0.0321
 8340,0.06030876,-0.16750717,0.08543546,-0.00241922,0.02065328,0.001501
 08,-0.10370287,0.18119065,0.00244377,-0.00005615,-0.00108326,0.0007116
 1,-0.00014015,-0.00061915,-0.01337004,0.01716969,-0.00234739,-0.060545
 00,0.08386242,-0.15508041,-0.03082871,0.01778582,-0.08184167,0.1198007
 1,-0.12241692,0.22740182,-0.00478397,0.00343898,0.00076317,0.00019216,
 0.00362723,0.00294306,-0.03231992,-0.00491810,0.00938464,-0.30119066,-
 0.04269185,0.05823236,-0.02553911,0.01267899,0.04264978,-0.06949338,0.
 02270142,-0.01887724,0.43230355,0.00264862,0.00353980,0.00005786,-0.00
 076139,-0.00930954,0.00246446,-0.03161482,0.00559018,0.00801670,-0.039
 15796,-0.09310936,0.00899893,0.02306749,0.01181086,-0.01515235,0.03650
 464,0.00900900,0.00203629,0.01698039,0.08222024,0.00069044,-0.00026537
 ,-0.00057450,-0.00026146,0.00042854,0.00015557,0.00704994,-0.00077126,
 0.00568381,0.05778485,0.01091567,-0.08924607,0.05766601,-0.00979329,-0
 .03554181,-0.03080638,0.00264373,0.01183694,-0.09184877,-0.00555566,0.
 10540175,-0.03847874,0.03235008,0.05217280,-0.04807862,0.01295251,0.03
 704655,0.00616874,-0.00711196,0.00269311,-0.00409463,-0.00548872,0.001
 55788,0.00051667,0.00200411,0.00058115,0.00024642,0.00135208,-0.000335
 71,0.00242332,0.00065493,-0.00047590,0.08383194,0.01844972,-0.01601048
 ,-0.00943124,0.02082154,-0.04121972,-0.09014022,-0.00276603,0.00832566
 ,-0.00423890,0.00063649,0.00185300,-0.00172261,-0.00019751,-0.00061762
 ,-0.00003195,0.00003435,-0.00043307,0.00032713,-0.00086437,-0.00029160
 ,0.00052603,-0.03817924,0.04526490,0.04900076,-0.02947660,-0.01184294,
 0.04757616,-0.08645498,-0.22360500,-0.01589886,0.01098358,0.00031470,0
 .00662866,0.01109333,-0.00170479,-0.00079054,-0.00329805,-0.00092953,-
 0.00003368,-0.00328395,0.00087186,-0.00405064,-0.00162923,0.00098790,-
 0.08984348,0.09751895,0.23280367,-0.06523474,-0.02098814,0.00510769,0.
 00732779,0.00276214,-0.00788086,-0.35841432,-0.00443714,0.03810434,-0.
 04264549,0.00718660,0.00598547,0.00445644,-0.00192073,-0.00332225,0.00
 606019,-0.00121029,0.00120057,-0.00147556,-0.00702343,0.00030900,-0.00
 663325,0.00320158,0.01181183,0.44446689,0.03307615,0.00039147,-0.00459
 174,0.00452706,-0.00317297,-0.00158194,-0.01046332,-0.07484894,0.00000
 330,-0.03182948,0.00303448,0.00520556,0.00138996,0.00157864,0.00041377
 ,-0.00176192,0.00187471,-0.00093935,-0.00721113,-0.00726867,0.00140101
 ,0.00067020,-0.00107441,0.00047179,0.00656791,0.06969263,0.00295726,0.
 00568633,0.00180470,0.01007215,-0.00516047,0.01316606,0.03833537,-0.00
 355735,-0.04102690,0.00243803,0.00040366,-0.00097204,0.00010338,0.0019
 9434,0.00164865,0.00075750,-0.00138932,0.00061596,0.00065728,0.0007052
 7,0.00184800,-0.00424462,0.00351875,0.00102938,-0.04920506,-0.00102331
 ,0.02751014,-0.13125963,-0.10125266,-0.00684524,-0.05709789,-0.0533844
 7,-0.00255631,-0.00305210,-0.00228170,0.00126595,-0.00136238,0.0108031
 6,0.00169597,0.00045470,-0.00245590,-0.00098490,0.00112263,-0.00255085
 ,0.00029364,-0.00054879,-0.00162121,-0.00008950,0.00337617,-0.00122586
 ,-0.00387562,0.01605494,0.00495569,-0.00195989,0.67764448,-0.05539937,
 -0.33599208,-0.01058894,-0.02122233,-0.00201806,-0.00760704,-0.0397268
 0,-0.06751370,-0.00007523,0.01096889,0.02299736,-0.00099953,-0.0008793
 6,-0.00817062,-0.00430211,0.00131086,-0.00774283,0.00249328,-0.0043255
 6,-0.00249864,0.00058746,-0.00048242,0.00407055,0.00546898,0.01117417,
 0.00776860,-0.00100779,0.07709386,0.43651768,-0.00822798,-0.01698600,-
 0.04926106,-0.00496475,-0.00632247,0.00301269,-0.00043154,-0.00190019,
 0.01021145,0.00118263,-0.00145041,0.00956569,0.00057627,0.00369522,0.0
 0134825,0.00025504,-0.00334186,0.00059478,0.00001460,-0.00000607,-0.00
 039595,0.00076988,0.00357194,0.00193703,-0.00336518,-0.00030605,-0.005
 04494,0.07367774,0.01327405,0.04105715,-0.02311548,-0.00258322,-0.0018
 9927,0.00113064,-0.00220088,-0.00012360,0.00652682,0.00521614,-0.00044
 244,-0.00168571,-0.00374020,0.00032479,0.00014439,0.00148092,0.0007831
 3,-0.00031772,0.00134912,-0.00049363,0.00043236,0.00032275,-0.00001823
 ,0.00072198,0.00008933,-0.00052460,-0.00396290,0.00007887,0.00008858,-
 0.50533213,0.02148805,-0.05948671,0.52545776,-0.04372756,0.00123320,-0
 .00495728,-0.00652167,-0.00650853,0.00016248,-0.00615160,-0.00387680,-
 0.00017173,-0.00093841,-0.00052906,0.00026055,0.00018464,0.00034407,0.
 00028417,0.00018581,0.00017612,-0.00012206,0.00058399,0.00030773,-0.00
 011686,0.00127842,0.00013278,-0.00139383,0.00468732,0.00202446,-0.0001
 7013,0.07191994,-0.04741827,0.00977183,-0.02150088,0.05411430,-0.00118
 935,0.00068315,-0.00253115,0.00059981,-0.00034454,0.00289455,-0.001723
 72,-0.00088468,0.00194126,-0.00021875,0.00020832,-0.00030989,-0.000027
 49,-0.00050678,-0.00044584,-0.00007513,0.00052192,-0.00034947,0.000131
 75,0.00006380,-0.00015561,0.00007834,0.00010211,0.00013773,0.00125445,
 0.00094696,-0.00057901,-0.06062185,0.00275687,-0.01302508,0.06179195,-
 0.00354714,0.01242252\\0.00000005,-0.00000025,-0.00000254,-0.00000039,
 -0.00000210,0.00000211,0.00000188,0.00000080,0.00000107,0.00000113,-0.
 00000092,-0.00000034,-0.00000278,-0.00000125,0.00000151,0.00000097,-0.
 00000036,0.00000146,-0.00000216,0.00000085,0.00000454,0.00000151,0.000
 00079,0.00000145,-0.00000036,0.00000146,-0.00000294,0.00000037,0.00000
 062,-0.00000236,-0.00000023,0.00000036,-0.00000396\\\@
 The archive entry for this job was punched.


 NOTHING RESEMBLES A NEW PHENOMENON AS MUCH AS A MISTAKE.

                               -- ENRICO FERMI (?)
 Job cpu time:       0 days  0 hours 25 minutes 40.5 seconds.
 Elapsed time:       0 days  0 hours  3 minutes 16.4 seconds.
 File lengths (MBytes):  RWF=    116 Int=      0 D2E=      0 Chk=      9 Scr=      1
 Normal termination of Gaussian 16 at Sat May 24 06:40:36 2025.
done
