 Entering Gaussian System, Link 0=g16
 Initial command:
 /apps/easybuild-2022/easybuild/software/Compiler/NVHPC/22.11-CUDA-11.7.0/Gaussian/g16c01-CUDA-11.7.0/g16/l1.exe "/tmp/Gau-3938.inp" -scrdir="/tmp/"
 Entering Link 1 = /apps/easybuild-2022/easybuild/software/Compiler/NVHPC/22.11-CUDA-11.7.0/Gaussian/g16c01-CUDA-11.7.0/g16/l1.exe PID=      3939.
  
 Copyright (c) 1988-2019, Gaussian, Inc.  All Rights Reserved.
  
 This is part of the Gaussian(R) 16 program.  It is based on
 the Gaussian(R) 09 system (copyright 2009, Gaussian, Inc.),
 the Gaussian(R) 03 system (copyright 2003, Gaussian, Inc.),
 the Gaussian(R) 98 system (copyright 1998, Gaussian, Inc.),
 the Gaussian(R) 94 system (copyright 1995, Gaussian, Inc.),
 the Gaussian 92(TM) system (copyright 1992, Gaussian, Inc.),
 the Gaussian 90(TM) system (copyright 1990, Gaussian, Inc.),
 the Gaussian 88(TM) system (copyright 1988, Gaussian, Inc.),
 the Gaussian 86(TM) system (copyright 1986, Carnegie Mellon
 University), and the Gaussian 82(TM) system (copyright 1983,
 Carnegie Mellon University). Gaussian is a federally registered
 trademark of Gaussian, Inc.
  
 This software contains proprietary and confidential information,
 including trade secrets, belonging to Gaussian, Inc.
  
 This software is provided under written license and may be
 used, copied, transmitted, or stored only in accord with that
 written license.
  
 The following legend is applicable only to US Government
 contracts under FAR:
  
                    RESTRICTED RIGHTS LEGEND
  
 Use, reproduction and disclosure by the US Government is
 subject to restrictions as set forth in subparagraphs (a)
 and (c) of the Commercial Computer Software - Restricted
 Rights clause in FAR 52.227-19.
  
 Gaussian, Inc.
 340 Quinnipiac St., Bldg. 40, Wallingford CT 06492
  
  
 ---------------------------------------------------------------
 Warning -- This program may not be used in any manner that
 competes with the business of Gaussian, Inc. or will provide
 assistance to any competitor of Gaussian, Inc.  The licensee
 of this program is prohibited from giving any competitor of
 Gaussian, Inc. access to this program.  By using this program,
 the user acknowledges that Gaussian, Inc. is engaged in the
 business of creating and licensing software in the field of
 computational chemistry and represents and warrants to the
 licensee that it is not a competitor of Gaussian, Inc. and that
 it will not use this program in any manner prohibited above.
 ---------------------------------------------------------------
  

 Cite this work as:
 Gaussian 16, Revision C.01,
 M. J. Frisch, G. W. Trucks, H. B. Schlegel, G. E. Scuseria, 
 M. A. Robb, J. R. Cheeseman, G. Scalmani, V. Barone, 
 G. A. Petersson, H. Nakatsuji, X. Li, M. Caricato, A. V. Marenich, 
 J. Bloino, B. G. Janesko, R. Gomperts, B. Mennucci, H. P. Hratchian, 
 J. V. Ortiz, A. F. Izmaylov, J. L. Sonnenberg, D. Williams-Young, 
 F. Ding, F. Lipparini, F. Egidi, J. Goings, B. Peng, A. Petrone, 
 T. Henderson, D. Ranasinghe, V. G. Zakrzewski, J. Gao, N. Rega, 
 G. Zheng, W. Liang, M. Hada, M. Ehara, K. Toyota, R. Fukuda, 
 J. Hasegawa, M. Ishida, T. Nakajima, Y. Honda, O. Kitao, H. Nakai, 
 T. Vreven, K. Throssell, J. A. Montgomery, Jr., J. E. Peralta, 
 F. Ogliaro, M. J. Bearpark, J. J. Heyd, E. N. Brothers, K. N. Kudin, 
 V. N. Staroverov, T. A. Keith, R. Kobayashi, J. Normand, 
 K. Raghavachari, A. P. Rendell, J. C. Burant, S. S. Iyengar, 
 J. Tomasi, M. Cossi, J. M. Millam, M. Klene, C. Adamo, R. Cammi, 
 J. W. Ochterski, R. L. Martin, K. Morokuma, O. Farkas, 
 J. B. Foresman, and D. J. Fox, Gaussian, Inc., Wallingford CT, 2019.
 
 ******************************************
 Gaussian 16:  ES64L-G16RevC.01  3-Jul-2019
                24-May-2025 
 ******************************************
 %mem=28GB
 %nprocshared=8
 Will use up to    8 processors via shared memory.
 -----------------------------------------------------------------
 #P M062X/Def2TZVPP Symm(None) scf(xqc) pop(None) freq opt(CalcFC)
 -----------------------------------------------------------------
 1/10=4,18=20,19=15,26=3,38=1/1,3;
 2/9=110,12=2,15=3,17=6,18=5,40=1/2;
 3/5=44,7=202,11=2,25=1,30=1,71=2,74=-55,140=1/1,2,3;
 4//1;
 5/5=2,8=3,13=1,38=5/2,8;
 8/6=4,10=90,11=11/1;
 11/6=1,8=1,9=11,15=111,16=1,31=1/1,2,10;
 10/6=1,13=1,31=1/2;
 7/10=1,25=1,30=1/1,2,3,16;
 1/10=4,18=20,19=15,26=3/3(2);
 2/9=110,15=3/2;
 99//99;
 2/9=110,15=3/2;
 3/5=44,7=202,11=2,25=1,30=1,71=1,74=-55/1,2,3;
 4/5=5,16=3,69=1/1;
 5/5=2,8=3,13=1,38=5/2,8;
 7/30=1/1,2,3,16;
 1/18=20,19=15,26=3/3(-5);
 2/9=110,15=3/2;
 99/9=1/99;
 Leave Link    1 at Sat May 24 04:58:43 2025, MaxMem=  3758096384 cpu:               0.1 elap:               0.0
 (Enter /apps/easybuild-2022/easybuild/software/Compiler/NVHPC/22.11-CUDA-11.7.0/Gaussian/g16c01-CUDA-11.7.0/g16/l101.exe)
 ------------------------------
 Gaussian input prepared by ASE
 ------------------------------
 Symbolic Z-matrix:
 Charge =  0 Multiplicity = 1
 C                     0.        0.        0. 
 O                     1.35895   0.        0. 
 C                     3.46016   1.12099  -0.49496 
 C                     1.99775   1.22559   0. 
 F                     3.98839   2.33351  -0.5677 
 F                     1.32819   1.99479  -0.85308 
 F                     1.98131   1.79366   1.19709 
 F                     4.18258   0.38264   0.32862 
 F                     3.47945   0.56834  -1.70114 
 O                    -0.35683  -1.24212   0.00904 
 H                    -0.89424  -1.49217  -0.76773 
 
 ITRead=  0  0  0  0  0  0  0  0  0  0  0
 MicOpt= -1 -1 -1 -1 -1 -1 -1 -1 -1 -1 -1
 NAtoms=     11 NQM=       11 NQMF=       0 NMMI=      0 NMMIF=      0
                NMic=       0 NMicF=      0.
                    Isotopes and Nuclear Properties:
 (Nuclear quadrupole moments (NQMom) in fm**2, nuclear magnetic moments (NMagM)
  in nuclear magnetons)

  Atom         1           2           3           4           5           6           7           8           9          10
 IAtWgt=          12          16          12          12          19          19          19          19          19          16
 AtmWgt=  12.0000000  15.9949146  12.0000000  12.0000000  18.9984032  18.9984032  18.9984032  18.9984032  18.9984032  15.9949146
 NucSpn=           0           0           0           0           1           1           1           1           1           0
 AtZEff=  -0.0000000  -0.0000000  -0.0000000  -0.0000000  -0.0000000  -0.0000000  -0.0000000  -0.0000000  -0.0000000  -0.0000000
 NQMom=    0.0000000   0.0000000   0.0000000   0.0000000   0.0000000   0.0000000   0.0000000   0.0000000   0.0000000   0.0000000
 NMagM=    0.0000000   0.0000000   0.0000000   0.0000000   2.6288670   2.6288670   2.6288670   2.6288670   2.6288670   0.0000000
 AtZNuc=   6.0000000   8.0000000   6.0000000   6.0000000   9.0000000   9.0000000   9.0000000   9.0000000   9.0000000   8.0000000

  Atom        11
 IAtWgt=           1
 AtmWgt=   1.0078250
 NucSpn=           1
 AtZEff=  -0.0000000
 NQMom=    0.0000000
 NMagM=    2.7928460
 AtZNuc=   1.0000000
 Leave Link  101 at Sat May 24 04:58:43 2025, MaxMem=  3758096384 cpu:               0.3 elap:               0.2
 (Enter /apps/easybuild-2022/easybuild/software/Compiler/NVHPC/22.11-CUDA-11.7.0/Gaussian/g16c01-CUDA-11.7.0/g16/l103.exe)

 GradGradGradGradGradGradGradGradGradGradGradGradGradGradGradGradGradGrad
 Berny optimization.
 Initialization pass.
                           ----------------------------
                           !    Initial Parameters    !
                           ! (Angstroms and Degrees)  !
 --------------------------                            --------------------------
 ! Name  Definition              Value          Derivative Info.                !
 --------------------------------------------------------------------------------
 ! R1    R(1,2)                  1.359          calculate D2E/DX2 analytically  !
 ! R2    R(1,10)                 1.2924         calculate D2E/DX2 analytically  !
 ! R3    R(2,4)                  1.3821         calculate D2E/DX2 analytically  !
 ! R4    R(3,4)                  1.5474         calculate D2E/DX2 analytically  !
 ! R5    R(3,5)                  1.3246         calculate D2E/DX2 analytically  !
 ! R6    R(3,8)                  1.3211         calculate D2E/DX2 analytically  !
 ! R7    R(3,9)                  1.3269         calculate D2E/DX2 analytically  !
 ! R8    R(4,6)                  1.3296         calculate D2E/DX2 analytically  !
 ! R9    R(4,7)                  1.3251         calculate D2E/DX2 analytically  !
 ! R10   R(10,11)                0.9771         calculate D2E/DX2 analytically  !
 ! A1    A(2,1,10)             106.0278         calculate D2E/DX2 analytically  !
 ! A2    A(1,2,4)              117.5295         calculate D2E/DX2 analytically  !
 ! A3    A(4,3,5)              109.4245         calculate D2E/DX2 analytically  !
 ! A4    A(4,3,8)              110.8028         calculate D2E/DX2 analytically  !
 ! A5    A(4,3,9)              109.4297         calculate D2E/DX2 analytically  !
 ! A6    A(5,3,8)              109.1336         calculate D2E/DX2 analytically  !
 ! A7    A(5,3,9)              108.9987         calculate D2E/DX2 analytically  !
 ! A8    A(8,3,9)              109.0235         calculate D2E/DX2 analytically  !
 ! A9    A(2,4,3)              112.1398         calculate D2E/DX2 analytically  !
 ! A10   A(2,4,6)              106.276          calculate D2E/DX2 analytically  !
 ! A11   A(2,4,7)              111.9882         calculate D2E/DX2 analytically  !
 ! A12   A(3,4,6)              108.0472         calculate D2E/DX2 analytically  !
 ! A13   A(3,4,7)              109.2477         calculate D2E/DX2 analytically  !
 ! A14   A(6,4,7)              108.9876         calculate D2E/DX2 analytically  !
 ! A15   A(1,10,11)            113.0952         calculate D2E/DX2 analytically  !
 ! D1    D(10,1,2,4)          -179.583          calculate D2E/DX2 analytically  !
 ! D2    D(2,1,10,11)         -119.9742         calculate D2E/DX2 analytically  !
 ! D3    D(1,2,4,3)           -159.7986         calculate D2E/DX2 analytically  !
 ! D4    D(1,2,4,6)            -41.9449         calculate D2E/DX2 analytically  !
 ! D5    D(1,2,4,7)             76.9647         calculate D2E/DX2 analytically  !
 ! D6    D(5,3,4,2)            175.4067         calculate D2E/DX2 analytically  !
 ! D7    D(5,3,4,6)             58.6116         calculate D2E/DX2 analytically  !
 ! D8    D(5,3,4,7)            -59.8279         calculate D2E/DX2 analytically  !
 ! D9    D(8,3,4,2)            -64.2111         calculate D2E/DX2 analytically  !
 ! D10   D(8,3,4,6)            178.9938         calculate D2E/DX2 analytically  !
 ! D11   D(8,3,4,7)             60.5544         calculate D2E/DX2 analytically  !
 ! D12   D(9,3,4,2)             56.0379         calculate D2E/DX2 analytically  !
 ! D13   D(9,3,4,6)            -60.7572         calculate D2E/DX2 analytically  !
 ! D14   D(9,3,4,7)           -179.1967         calculate D2E/DX2 analytically  !
 --------------------------------------------------------------------------------
 Trust Radius=3.00D-01 FncErr=1.00D-07 GrdErr=1.00D-06 EigMax=2.50D+02 EigMin=1.00D-04
 Number of steps in this run=     49 maximum allowed number of steps=    100.
 GradGradGradGradGradGradGradGradGradGradGradGradGradGradGradGradGradGrad

 Leave Link  103 at Sat May 24 04:58:43 2025, MaxMem=  3758096384 cpu:               0.1 elap:               0.0
 (Enter /apps/easybuild-2022/easybuild/software/Compiler/NVHPC/22.11-CUDA-11.7.0/Gaussian/g16c01-CUDA-11.7.0/g16/l202.exe)
                          Input orientation:                          
 ---------------------------------------------------------------------
 Center     Atomic      Atomic             Coordinates (Angstroms)
 Number     Number       Type             X           Y           Z
 ---------------------------------------------------------------------
      1          6           0        0.000000    0.000000    0.000000
      2          8           0        1.358950    0.000000    0.000000
      3          6           0        3.460163    1.120991   -0.494962
      4          6           0        1.997754    1.225588    0.000000
      5          9           0        3.988389    2.333510   -0.567699
      6          9           0        1.328191    1.994787   -0.853082
      7          9           0        1.981312    1.793663    1.197092
      8          9           0        4.182578    0.382638    0.328618
      9          9           0        3.479455    0.568341   -1.701138
     10          8           0       -0.356834   -1.242119    0.009041
     11          1           0       -0.894243   -1.492172   -0.767731
 ---------------------------------------------------------------------
                    Distance matrix (angstroms):
                    1          2          3          4          5
     1  C    0.000000
     2  O    1.358950   0.000000
     3  C    3.670741   2.432428   0.000000
     4  C    2.343734   1.382076   1.547439   0.000000
     5  F    4.655620   3.561109   1.324581   2.347850   0.000000
     6  F    2.543819   2.169763   2.331754   1.329561   2.696819
     7  F    2.928456   2.244458   2.345748   1.325145   2.726588
     8  F    4.212880   2.868322   1.321111   2.364743   2.155690
     9  F    3.914523   2.777305   1.326897   2.349741   2.158592
    10  O    1.292390   2.118220   4.517496   3.410827   5.656740
    11  H    1.901489   2.809425   5.085654   4.042187   6.206122
                    6          7          8          9         10
     6  F    0.000000
     7  F    2.161072   0.000000
     8  F    3.484676   2.755142   0.000000
     9  F    2.716963   3.485052   2.156103   0.000000
    10  O    3.749683   4.011778   4.831999   4.573793   0.000000
    11  H    4.135865   4.788117   5.521866   4.924042   0.977093
                   11
    11  H    0.000000
 Symmetry turned off by external request.
 Stoichiometry    C3HF5O2
 Rotational constants (GHZ):           2.3483062           0.9264754           0.8664484
 Leave Link  202 at Sat May 24 04:58:43 2025, MaxMem=  3758096384 cpu:               0.0 elap:               0.0
 (Enter /apps/easybuild-2022/easybuild/software/Compiler/NVHPC/22.11-CUDA-11.7.0/Gaussian/g16c01-CUDA-11.7.0/g16/l301.exe)
 Standard basis: def2TZVPP (5D, 7F)
 Ernie: Thresh=  0.10000D-02 Tol=  0.10000D-05 Strict=F.
   324 basis functions,   527 primitive gaussians,   375 cartesian basis functions
    40 alpha electrons       40 beta electrons
       nuclear repulsion energy       627.2248344570 Hartrees.
 IExCor= 4336 DFT=T Ex+Corr=M062X ExCW=0 ScaHFX=  0.540000
 ScaDFX=  1.000000  1.000000  1.000000  1.000000 ScalE2=  1.000000  1.000000
 IRadAn=      5 IRanWt=     -1 IRanGd=            0 ICorTp=0 IEmpDi=  4
 NAtoms=   11 NActive=   11 NUniq=   11 SFac= 1.00D+00 NAtFMM=   60 NAOKFM=F Big=F
 Integral buffers will be    131072 words long.
 Raffenetti 2 integral format.
 Two-electron integral symmetry is turned off.
 Leave Link  301 at Sat May 24 04:58:44 2025, MaxMem=  3758096384 cpu:               0.1 elap:               0.1
 (Enter /apps/easybuild-2022/easybuild/software/Compiler/NVHPC/22.11-CUDA-11.7.0/Gaussian/g16c01-CUDA-11.7.0/g16/l302.exe)
 NPDir=0 NMtPBC=     1 NCelOv=     1 NCel=       1 NClECP=     1 NCelD=      1
         NCelK=      1 NCelE2=     1 NClLst=     1 CellRange=     0.0.
 One-electron integrals computed using PRISM.
   1 Symmetry operations used in ECPInt.
 ECPInt:  NShTT=    6786 NPrTT=   21959 LenC2=    6359 LenP2D=   15544.
 LDataN:  DoStor=T MaxTD1= 6 Len=  172
 NBasis=   324 RedAO= T EigKep=  5.93D-04  NBF=   324
 NBsUse=   324 1.00D-06 EigRej= -1.00D+00 NBFU=   324
 Precomputing XC quadrature grid using
 IXCGrd= 4 IRadAn=           5 IRanWt=          -1 IRanGd=           0 AccXCQ= 0.00D+00.
 Generated NRdTot=       0 NPtTot=           0 NUsed=           0 NTot=          32
 NSgBfM=   373   373   373   373   373 MxSgAt=    11 MxSgA2=    11.
 Leave Link  302 at Sat May 24 04:58:44 2025, MaxMem=  3758096384 cpu:               0.9 elap:               0.2
 (Enter /apps/easybuild-2022/easybuild/software/Compiler/NVHPC/22.11-CUDA-11.7.0/Gaussian/g16c01-CUDA-11.7.0/g16/l303.exe)
 DipDrv:  MaxL=1.
 Leave Link  303 at Sat May 24 04:58:44 2025, MaxMem=  3758096384 cpu:               0.1 elap:               0.0
 (Enter /apps/easybuild-2022/easybuild/software/Compiler/NVHPC/22.11-CUDA-11.7.0/Gaussian/g16c01-CUDA-11.7.0/g16/l401.exe)
 ExpMin= 9.52D-02 ExpMax= 3.55D+04 ExpMxC= 1.21D+03 IAcc=3 IRadAn=         5 AccDes= 0.00D+00
 Harris functional with IExCor= 1009 and IRadAn=       5 diagonalized for initial guess.
 HarFok:  IExCor= 1009 AccDes= 0.00D+00 IRadAn=         5 IDoV= 1 UseB2=F ITyADJ=14
 ICtDFT=  3500011 ScaDFX=  1.000000  1.000000  1.000000  1.000000
 FoFCou: FMM=F IPFlag=           0 FMFlag=      100000 FMFlg1=           0
         NFxFlg=           0 DoJE=T BraDBF=F KetDBF=T FulRan=T
         wScrn=  0.000000 ICntrl=       500 IOpCl=  0 I1Cent=   200000004 NGrid=           0
         NMat0=    1 NMatS0=      1 NMatT0=    0 NMatD0=    1 NMtDS0=    0 NMtDT0=    0
 Symmetry not used in FoFCou.
 Harris En= -764.090425525931    
 JPrj=0 DoOrth=F DoCkMO=F.
 Leave Link  401 at Sat May 24 04:58:44 2025, MaxMem=  3758096384 cpu:               3.4 elap:               0.5
 (Enter /apps/easybuild-2022/easybuild/software/Compiler/NVHPC/22.11-CUDA-11.7.0/Gaussian/g16c01-CUDA-11.7.0/g16/l502.exe)
 Keep R1 ints in memory in canonical form, NReq=1412617130.
 FoFCou: FMM=F IPFlag=           0 FMFlag=           0 FMFlg1=           0
         NFxFlg=           0 DoJE=F BraDBF=F KetDBF=F FulRan=T
         wScrn=  0.000000 ICntrl=       600 IOpCl=  0 I1Cent=           0 NGrid=           0
         NMat0=    1 NMatS0=  52650 NMatT0=    0 NMatD0=    1 NMtDS0=    0 NMtDT0=    0
 Symmetry not used in FoFCou.
 Two-electron integral symmetry not used.
 Closed shell SCF:
 Using DIIS extrapolation, IDIIS=  1040.
 NGot=  3758096384 LenX=  2371771924 LenY=  2371630858
 Requested convergence on RMS density matrix=1.00D-08 within  32 cycles.
 Requested convergence on MAX density matrix=1.00D-06.
 Requested convergence on             energy=1.00D-06.
 No special actions if energy rises.
 Integral accuracy reduced to 1.0D-05 until final iterations.

 Cycle   1  Pass 0  IDiag  1:
 E= -764.435034246821    
 DIIS: error= 2.12D-02 at cycle   1 NSaved=   1.
 NSaved= 1 IEnMin= 1 EnMin= -764.435034246821     IErMin= 1 ErrMin= 2.12D-02
 ErrMax= 2.12D-02  0.00D+00 EMaxC= 1.00D-01 BMatC= 3.05D-01 BMatP= 3.05D-01
 IDIUse=3 WtCom= 7.88D-01 WtEn= 2.12D-01
 Coeff-Com:  0.100D+01
 Coeff-En:   0.100D+01
 Coeff:      0.100D+01
 Gap=     0.289 Goal=   None    Shift=    0.000
 GapD=    0.289 DampG=1.000 DampE=0.500 DampFc=0.5000 IDamp=-1.
 Damping current iteration by 5.00D-01
 RMSDP=1.71D-03 MaxDP=9.51D-02              OVMax= 1.05D-01

 Cycle   2  Pass 0  IDiag  1:
 E= -764.496657889589     Delta-E=       -0.061623642768 Rises=F Damp=T
 DIIS: error= 7.06D-03 at cycle   2 NSaved=   2.
 NSaved= 2 IEnMin= 2 EnMin= -764.496657889589     IErMin= 2 ErrMin= 7.06D-03
 ErrMax= 7.06D-03  0.00D+00 EMaxC= 1.00D-01 BMatC= 3.18D-02 BMatP= 3.05D-01
 IDIUse=3 WtCom= 9.29D-01 WtEn= 7.06D-02
 Coeff-Com: -0.362D-01 0.104D+01
 Coeff-En:   0.734D-01 0.927D+00
 Coeff:     -0.285D-01 0.103D+01
 Gap=     0.304 Goal=   None    Shift=    0.000
 RMSDP=5.26D-04 MaxDP=2.17D-02 DE=-6.16D-02 OVMax= 5.82D-02

 Cycle   3  Pass 0  IDiag  1:
 E= -764.570028670135     Delta-E=       -0.073370780546 Rises=F Damp=F
 DIIS: error= 3.56D-03 at cycle   3 NSaved=   3.
 NSaved= 3 IEnMin= 3 EnMin= -764.570028670135     IErMin= 3 ErrMin= 3.56D-03
 ErrMax= 3.56D-03  0.00D+00 EMaxC= 1.00D-01 BMatC= 6.21D-03 BMatP= 3.18D-02
 IDIUse=3 WtCom= 9.64D-01 WtEn= 3.56D-02
 Coeff-Com: -0.122D+00 0.267D+00 0.855D+00
 Coeff-En:   0.000D+00 0.000D+00 0.100D+01
 Coeff:     -0.117D+00 0.257D+00 0.860D+00
 Gap=     0.297 Goal=   None    Shift=    0.000
 RMSDP=1.66D-04 MaxDP=9.38D-03 DE=-7.34D-02 OVMax= 1.35D-02

 Cycle   4  Pass 0  IDiag  1:
 E= -764.573644932981     Delta-E=       -0.003616262846 Rises=F Damp=F
 DIIS: error= 6.42D-04 at cycle   4 NSaved=   4.
 NSaved= 4 IEnMin= 4 EnMin= -764.573644932981     IErMin= 4 ErrMin= 6.42D-04
 ErrMax= 6.42D-04  0.00D+00 EMaxC= 1.00D-01 BMatC= 4.36D-04 BMatP= 6.21D-03
 IDIUse=3 WtCom= 9.94D-01 WtEn= 6.42D-03
 Coeff-Com: -0.523D-01 0.100D+00 0.395D+00 0.557D+00
 Coeff-En:   0.000D+00 0.000D+00 0.000D+00 0.100D+01
 Coeff:     -0.519D-01 0.994D-01 0.393D+00 0.560D+00
 Gap=     0.296 Goal=   None    Shift=    0.000
 RMSDP=4.49D-05 MaxDP=3.23D-03 DE=-3.62D-03 OVMax= 5.13D-03

 Cycle   5  Pass 0  IDiag  1:
 E= -764.573933101025     Delta-E=       -0.000288168043 Rises=F Damp=F
 DIIS: error= 1.65D-04 at cycle   5 NSaved=   5.
 NSaved= 5 IEnMin= 5 EnMin= -764.573933101025     IErMin= 5 ErrMin= 1.65D-04
 ErrMax= 1.65D-04  0.00D+00 EMaxC= 1.00D-01 BMatC= 3.18D-05 BMatP= 4.36D-04
 IDIUse=3 WtCom= 9.98D-01 WtEn= 1.65D-03
 Coeff-Com: -0.117D-01 0.200D-01 0.918D-01 0.247D+00 0.653D+00
 Coeff-En:   0.000D+00 0.000D+00 0.000D+00 0.000D+00 0.100D+01
 Coeff:     -0.117D-01 0.200D-01 0.917D-01 0.247D+00 0.653D+00
 Gap=     0.296 Goal=   None    Shift=    0.000
 RMSDP=1.11D-05 MaxDP=7.31D-04 DE=-2.88D-04 OVMax= 1.37D-03

 Cycle   6  Pass 0  IDiag  1:
 E= -764.573953838789     Delta-E=       -0.000020737765 Rises=F Damp=F
 DIIS: error= 5.38D-05 at cycle   6 NSaved=   6.
 NSaved= 6 IEnMin= 6 EnMin= -764.573953838789     IErMin= 6 ErrMin= 5.38D-05
 ErrMax= 5.38D-05  0.00D+00 EMaxC= 1.00D-01 BMatC= 2.28D-06 BMatP= 3.18D-05
 IDIUse=1 WtCom= 1.00D+00 WtEn= 0.00D+00
 Coeff-Com: -0.386D-03-0.317D-03-0.309D-03 0.375D-01 0.234D+00 0.729D+00
 Coeff:     -0.386D-03-0.317D-03-0.309D-03 0.375D-01 0.234D+00 0.729D+00
 Gap=     0.296 Goal=   None    Shift=    0.000
 RMSDP=4.73D-06 MaxDP=4.42D-04 DE=-2.07D-05 OVMax= 4.04D-04

 Initial convergence to 1.0D-05 achieved.  Increase integral accuracy.
 Cycle   7  Pass 1  IDiag  1:
 E= -764.573995248873     Delta-E=       -0.000041410083 Rises=F Damp=F
 DIIS: error= 2.53D-05 at cycle   1 NSaved=   1.
 NSaved= 1 IEnMin= 1 EnMin= -764.573995248873     IErMin= 1 ErrMin= 2.53D-05
 ErrMax= 2.53D-05  0.00D+00 EMaxC= 1.00D-01 BMatC= 6.43D-07 BMatP= 6.43D-07
 IDIUse=1 WtCom= 1.00D+00 WtEn= 0.00D+00
 Coeff-Com:  0.100D+01
 Coeff:      0.100D+01
 Gap=     0.296 Goal=   None    Shift=    0.000
 RMSDP=4.73D-06 MaxDP=4.42D-04 DE=-4.14D-05 OVMax= 1.58D-04

 Cycle   8  Pass 1  IDiag  1:
 E= -764.573995683282     Delta-E=       -0.000000434410 Rises=F Damp=F
 DIIS: error= 1.37D-05 at cycle   2 NSaved=   2.
 NSaved= 2 IEnMin= 2 EnMin= -764.573995683282     IErMin= 2 ErrMin= 1.37D-05
 ErrMax= 1.37D-05  0.00D+00 EMaxC= 1.00D-01 BMatC= 1.47D-07 BMatP= 6.43D-07
 IDIUse=1 WtCom= 1.00D+00 WtEn= 0.00D+00
 Coeff-Com:  0.234D+00 0.766D+00
 Coeff:      0.234D+00 0.766D+00
 Gap=     0.296 Goal=   None    Shift=    0.000
 RMSDP=1.27D-06 MaxDP=8.30D-05 DE=-4.34D-07 OVMax= 8.83D-05

 Cycle   9  Pass 1  IDiag  1:
 E= -764.573995747887     Delta-E=       -0.000000064605 Rises=F Damp=F
 DIIS: error= 9.17D-06 at cycle   3 NSaved=   3.
 NSaved= 3 IEnMin= 3 EnMin= -764.573995747887     IErMin= 3 ErrMin= 9.17D-06
 ErrMax= 9.17D-06  0.00D+00 EMaxC= 1.00D-01 BMatC= 6.16D-08 BMatP= 1.47D-07
 IDIUse=1 WtCom= 1.00D+00 WtEn= 0.00D+00
 Coeff-Com: -0.249D-01 0.388D+00 0.637D+00
 Coeff:     -0.249D-01 0.388D+00 0.637D+00
 Gap=     0.296 Goal=   None    Shift=    0.000
 RMSDP=5.44D-07 MaxDP=2.83D-05 DE=-6.46D-08 OVMax= 3.93D-05

 Cycle  10  Pass 1  IDiag  1:
 E= -764.573995788564     Delta-E=       -0.000000040676 Rises=F Damp=F
 DIIS: error= 1.55D-06 at cycle   4 NSaved=   4.
 NSaved= 4 IEnMin= 4 EnMin= -764.573995788564     IErMin= 4 ErrMin= 1.55D-06
 ErrMax= 1.55D-06  0.00D+00 EMaxC= 1.00D-01 BMatC= 2.28D-09 BMatP= 6.16D-08
 IDIUse=1 WtCom= 1.00D+00 WtEn= 0.00D+00
 Coeff-Com: -0.191D-01 0.124D+00 0.262D+00 0.633D+00
 Coeff:     -0.191D-01 0.124D+00 0.262D+00 0.633D+00
 Gap=     0.296 Goal=   None    Shift=    0.000
 RMSDP=1.20D-07 MaxDP=7.92D-06 DE=-4.07D-08 OVMax= 8.76D-06

 Cycle  11  Pass 1  IDiag  1:
 E= -764.573995790136     Delta-E=       -0.000000001573 Rises=F Damp=F
 DIIS: error= 4.63D-07 at cycle   5 NSaved=   5.
 NSaved= 5 IEnMin= 5 EnMin= -764.573995790136     IErMin= 5 ErrMin= 4.63D-07
 ErrMax= 4.63D-07  0.00D+00 EMaxC= 1.00D-01 BMatC= 1.99D-10 BMatP= 2.28D-09
 IDIUse=1 WtCom= 1.00D+00 WtEn= 0.00D+00
 Coeff-Com: -0.109D-02-0.298D-01-0.212D-01 0.179D+00 0.873D+00
 Coeff:     -0.109D-02-0.298D-01-0.212D-01 0.179D+00 0.873D+00
 Gap=     0.296 Goal=   None    Shift=    0.000
 RMSDP=4.91D-08 MaxDP=2.88D-06 DE=-1.57D-09 OVMax= 5.19D-06

 Cycle  12  Pass 1  IDiag  1:
 E= -764.573995790397     Delta-E=       -0.000000000260 Rises=F Damp=F
 DIIS: error= 1.93D-07 at cycle   6 NSaved=   6.
 NSaved= 6 IEnMin= 6 EnMin= -764.573995790397     IErMin= 6 ErrMin= 1.93D-07
 ErrMax= 1.93D-07  0.00D+00 EMaxC= 1.00D-01 BMatC= 5.08D-11 BMatP= 1.99D-10
 IDIUse=1 WtCom= 1.00D+00 WtEn= 0.00D+00
 Coeff-Com:  0.187D-02-0.310D-01-0.414D-01 0.157D-01 0.439D+00 0.616D+00
 Coeff:      0.187D-02-0.310D-01-0.414D-01 0.157D-01 0.439D+00 0.616D+00
 Gap=     0.296 Goal=   None    Shift=    0.000
 RMSDP=1.82D-08 MaxDP=1.13D-06 DE=-2.60D-10 OVMax= 2.21D-06

 Cycle  13  Pass 1  IDiag  1:
 E= -764.573995790401     Delta-E=       -0.000000000004 Rises=F Damp=F
 DIIS: error= 4.67D-08 at cycle   7 NSaved=   7.
 NSaved= 7 IEnMin= 7 EnMin= -764.573995790401     IErMin= 7 ErrMin= 4.67D-08
 ErrMax= 4.67D-08  0.00D+00 EMaxC= 1.00D-01 BMatC= 1.59D-12 BMatP= 5.08D-11
 IDIUse=1 WtCom= 1.00D+00 WtEn= 0.00D+00
 Coeff-Com:  0.402D-03-0.252D-02-0.426D-02-0.174D-01-0.137D-01 0.113D+00
 Coeff-Com:  0.925D+00
 Coeff:      0.402D-03-0.252D-02-0.426D-02-0.174D-01-0.137D-01 0.113D+00
 Coeff:      0.925D+00
 Gap=     0.296 Goal=   None    Shift=    0.000
 RMSDP=5.92D-09 MaxDP=1.73D-07 DE=-4.09D-12 OVMax= 9.34D-07

 SCF Done:  E(RM062X) =  -764.573995790     A.U. after   13 cycles
            NFock= 13  Conv=0.59D-08     -V/T= 2.0036
 KE= 7.618184962899D+02 PE=-3.066631831084D+03 EE= 9.130145045464D+02
 Leave Link  502 at Sat May 24 04:59:12 2025, MaxMem=  3758096384 cpu:             107.2 elap:              27.5
 (Enter /apps/easybuild-2022/easybuild/software/Compiler/NVHPC/22.11-CUDA-11.7.0/Gaussian/g16c01-CUDA-11.7.0/g16/l508.exe)
 QCSCF skips out because SCF is already converged.
 Leave Link  508 at Sat May 24 04:59:12 2025, MaxMem=  3758096384 cpu:               0.1 elap:               0.0
 (Enter /apps/easybuild-2022/easybuild/software/Compiler/NVHPC/22.11-CUDA-11.7.0/Gaussian/g16c01-CUDA-11.7.0/g16/l801.exe)
 DoSCS=F DFT=T ScalE2(SS,OS)=  1.000000  1.000000
 Range of M.O.s used for correlation:     1   324
 NBasis=   324 NAE=    40 NBE=    40 NFC=     0 NFV=     0
 NROrb=    324 NOA=    40 NOB=    40 NVA=   284 NVB=   284

 **** Warning!!: The largest alpha MO coefficient is  0.13621340D+02

 Leave Link  801 at Sat May 24 04:59:12 2025, MaxMem=  3758096384 cpu:               0.1 elap:               0.0
 (Enter /apps/easybuild-2022/easybuild/software/Compiler/NVHPC/22.11-CUDA-11.7.0/Gaussian/g16c01-CUDA-11.7.0/g16/l1101.exe)
 Using compressed storage, NAtomX=    11.
 Will process     12 centers per pass.
   1 Symmetry operations used in ECPInt.
 ECPInt:  NShTT=    6786 NPrTT=   21959 LenC2=    6359 LenP2D=   15544.
 LDataN:  DoStor=T MaxTD1= 7 Len=  274
 Leave Link 1101 at Sat May 24 04:59:13 2025, MaxMem=  3758096384 cpu:               1.4 elap:               0.7
 (Enter /apps/easybuild-2022/easybuild/software/Compiler/NVHPC/22.11-CUDA-11.7.0/Gaussian/g16c01-CUDA-11.7.0/g16/l1102.exe)
 Symmetrizing basis deriv contribution to polar:
 IMax=3 JMax=2 DiffMx= 0.00D+00
 Leave Link 1102 at Sat May 24 04:59:13 2025, MaxMem=  3758096384 cpu:               0.1 elap:               0.0
 (Enter /apps/easybuild-2022/easybuild/software/Compiler/NVHPC/22.11-CUDA-11.7.0/Gaussian/g16c01-CUDA-11.7.0/g16/l1110.exe)
 Forming Gx(P) for the SCF density, NAtomX=    11.
 Integral derivatives from FoFJK, PRISM(SPDF).
 Do as many integral derivatives as possible in FoFJK.
 G2DrvN: MDV=    3758095115.
 G2DrvN: will do    12 centers at a time, making    1 passes.
 Calling FoFCou, ICntrl=  3107 FMM=F I1Cent=   0 AccDes= 0.00D+00.
 FoFJK:  IHMeth= 1 ICntrl=    3107 DoSepK=F KAlg= 0 I1Cent=           0 FoldK=F
 IRaf=         0 NMat=       1 IRICut=       1 DoRegI=T DoRafI=F ISym2E= 0 IDoP0=0 IntGTp=1.
 FoFCou: FMM=F IPFlag=           0 FMFlag=      100000 FMFlg1=           0
         NFxFlg=           0 DoJE=F BraDBF=F KetDBF=F FulRan=T
         wScrn=  0.000000 ICntrl=      3107 IOpCl=  0 I1Cent=           0 NGrid=           0
         NMat0=    1 NMatS0=      1 NMatT0=    0 NMatD0=    1 NMtDS0=    0 NMtDT0=    0
 Symmetry not used in FoFCou.
 End of G2Drv F.D. properties file   721 does not exist.
 End of G2Drv F.D. properties file   722 does not exist.
 End of G2Drv F.D. properties file   788 does not exist.
 Leave Link 1110 at Sat May 24 04:59:52 2025, MaxMem=  3758096384 cpu:             291.4 elap:              39.8
 (Enter /apps/easybuild-2022/easybuild/software/Compiler/NVHPC/22.11-CUDA-11.7.0/Gaussian/g16c01-CUDA-11.7.0/g16/l1002.exe)
 Minotr:  Closed shell wavefunction.
          IDoAtm=11111111111
          Direct CPHF calculation.
          Differentiating once with respect to nuclear coordinates.
          Requested convergence is 1.0D-08 RMS, and 1.0D-07 maximum.
          Secondary convergence is 1.0D-12 RMS, and 1.0D-12 maximum.
          NewPWx=T KeepS1=F KeepF1=F KeepIn=T MapXYZ=F SortEE=F KeepMc=T.
         3321 words used for storage of precomputed grid.
 Keep R1 ints in memory in canonical form, NReq=1412622551.
 FoFCou: FMM=F IPFlag=           0 FMFlag=           0 FMFlg1=           0
         NFxFlg=           0 DoJE=F BraDBF=F KetDBF=F FulRan=T
         wScrn=  0.000000 ICntrl=       600 IOpCl=  0 I1Cent=           0 NGrid=           0
         NMat0=    1 NMatS0=  52650 NMatT0=    0 NMatD0=    1 NMtDS0=    0 NMtDT0=    0
 Symmetry not used in FoFCou.
 Two-electron integral symmetry not used.
          MDV=    3758096384 using IRadAn=       1.
          Solving linear equations simultaneously, MaxMat=       0.
          There are    36 degrees of freedom in the 1st order CPHF.  IDoFFX=6 NUNeed=     0.
     30 vectors produced by pass  0 Test12= 3.16D-14 2.78D-09 XBig12= 1.14D-01 2.21D-01.
 AX will form    30 AO Fock derivatives at one time.
     30 vectors produced by pass  1 Test12= 3.16D-14 2.78D-09 XBig12= 1.68D-02 4.03D-02.
     30 vectors produced by pass  2 Test12= 3.16D-14 2.78D-09 XBig12= 9.93D-04 6.51D-03.
     30 vectors produced by pass  3 Test12= 3.16D-14 2.78D-09 XBig12= 1.71D-05 9.10D-04.
     30 vectors produced by pass  4 Test12= 3.16D-14 2.78D-09 XBig12= 2.52D-07 1.09D-04.
     30 vectors produced by pass  5 Test12= 3.16D-14 2.78D-09 XBig12= 2.14D-09 5.77D-06.
     30 vectors produced by pass  6 Test12= 3.16D-14 2.78D-09 XBig12= 1.45D-11 5.89D-07.
     13 vectors produced by pass  7 Test12= 3.16D-14 2.78D-09 XBig12= 7.74D-14 3.51D-08.
 InvSVY:  IOpt=1 It=  1 EMax= 8.88D-16
 Solved reduced A of dimension   223 with    30 vectors.
 End of Minotr F.D. properties file   721 does not exist.
 End of Minotr F.D. properties file   722 does not exist.
 End of Minotr F.D. properties file   788 does not exist.
 Leave Link 1002 at Sat May 24 05:00:48 2025, MaxMem=  3758096384 cpu:             437.5 elap:              55.8
 (Enter /apps/easybuild-2022/easybuild/software/Compiler/NVHPC/22.11-CUDA-11.7.0/Gaussian/g16c01-CUDA-11.7.0/g16/l701.exe)
 ... and contract with generalized density number  0.
 Compute integral second derivatives.
   1 Symmetry operations used in ECPInt.
 ECPInt:  NShTT=    6786 NPrTT=   21959 LenC2=    6359 LenP2D=   15544.
 LDataN:  DoStor=T MaxTD1= 8 Len=  415
 Leave Link  701 at Sat May 24 05:00:49 2025, MaxMem=  3758096384 cpu:               1.0 elap:               0.3
 (Enter /apps/easybuild-2022/easybuild/software/Compiler/NVHPC/22.11-CUDA-11.7.0/Gaussian/g16c01-CUDA-11.7.0/g16/l702.exe)
 L702 exits ... SP integral derivatives will be done elsewhere.
 Leave Link  702 at Sat May 24 05:00:49 2025, MaxMem=  3758096384 cpu:               0.0 elap:               0.0
 (Enter /apps/easybuild-2022/easybuild/software/Compiler/NVHPC/22.11-CUDA-11.7.0/Gaussian/g16c01-CUDA-11.7.0/g16/l703.exe)
 Integral derivatives from FoFJK, PRISM(SPDF).
 Compute integral second derivatives, UseDBF=F ICtDFT=           0.
 Calling FoFJK, ICntrl=    100127 FMM=F ISym2X=0 I1Cent= 0 IOpClX= 0 NMat=1 NMatS=1 NMatT=0.
 FoFJK:  IHMeth= 1 ICntrl=  100127 DoSepK=F KAlg= 0 I1Cent=           0 FoldK=F
 IRaf=         0 NMat=       1 IRICut=       1 DoRegI=T DoRafI=F ISym2E= 0 IDoP0=0 IntGTp=1.
 FoFCou: FMM=F IPFlag=           0 FMFlag=      100000 FMFlg1=         800
         NFxFlg=           0 DoJE=F BraDBF=F KetDBF=F FulRan=T
         wScrn=  0.000000 ICntrl=    100127 IOpCl=  0 I1Cent=           0 NGrid=           0
         NMat0=    1 NMatS0=      1 NMatT0=    0 NMatD0=    1 NMtDS0=    0 NMtDT0=    0
 Symmetry not used in FoFCou.
 Leave Link  703 at Sat May 24 05:02:16 2025, MaxMem=  3758096384 cpu:             630.9 elap:              87.7
 (Enter /apps/easybuild-2022/easybuild/software/Compiler/NVHPC/22.11-CUDA-11.7.0/Gaussian/g16c01-CUDA-11.7.0/g16/l716.exe)
 Dipole        =-3.98604923D-01-6.87610764D-01-4.56063896D-01
 Polarizability= 0.00000000D+00 0.00000000D+00 0.00000000D+00
                 0.00000000D+00 0.00000000D+00 0.00000000D+00
 -------------------------------------------------------------------
 Center     Atomic                   Forces (Hartrees/Bohr)
 Number     Number              X              Y              Z
 -------------------------------------------------------------------
      1        6           0.005059391    0.032288214   -0.012355456
      2        8           0.009272665   -0.017423484    0.015809760
      3        6          -0.002740270   -0.006872820   -0.002084656
      4        6          -0.024924699    0.001622748   -0.008643129
      5        9          -0.001924478   -0.001170960    0.000923167
      6        9           0.007404117    0.016949937   -0.004259400
      7        9           0.001440232   -0.001179112    0.003334164
      8        9           0.000544560   -0.000856380    0.001979270
      9        9           0.000368479    0.000957180    0.000990578
     10        8           0.011259553   -0.034556353   -0.014095580
     11        1          -0.005759550    0.010241030    0.018401281
 -------------------------------------------------------------------
 Cartesian Forces:  Max     0.034556353 RMS     0.012311581
 Force constants in Cartesian coordinates: 
                1             2             3             4             5 
      1  0.333987D+00
      2  0.292965D-01  0.590316D+00
      3  0.123864D-01 -0.150994D-01 -0.621759D-02
      4 -0.223744D+00  0.886933D-01 -0.814691D-02  0.412547D+00
      5  0.853465D-01 -0.891855D-01  0.897312D-02  0.845731D-01  0.428023D+00
      6  0.249594D-03  0.124659D-01  0.231755D-01  0.627721D-02 -0.124808D-01
      7 -0.108158D-01 -0.417349D-02  0.276131D-03  0.699000D-02 -0.514788D-02
      8  0.241283D-02 -0.343454D-02  0.108072D-02 -0.394530D-01 -0.100412D-01
      9  0.412361D-02  0.649471D-03  0.623408D-03 -0.819930D-02 -0.805573D-03
     10 -0.234371D-01 -0.535743D-01 -0.533129D-03 -0.145819D+00 -0.402932D-01
     11 -0.814109D-01 -0.241030D-01  0.133659D-02 -0.115110D-01 -0.188995D+00
     12  0.187758D-02  0.143799D-03 -0.196065D-01  0.145547D-01  0.428286D-02
     13  0.637868D-02  0.787086D-03  0.285053D-03 -0.164889D-01 -0.970789D-03
     14  0.455287D-02  0.772711D-03  0.142093D-04 -0.914394D-02  0.850070D-03
     15 -0.194705D-02 -0.167525D-03 -0.482441D-04  0.523207D-02  0.464156D-03
     16 -0.127994D-01 -0.559511D-02  0.616261D-02  0.248573D-01 -0.217257D-02
     17  0.166055D-01 -0.950728D-03  0.524481D-02 -0.406004D-02 -0.785602D-01
     18 -0.968006D-02  0.129377D-02  0.196756D-02  0.574314D-02  0.368870D-01
     19  0.250533D-02  0.188445D-02 -0.208543D-02  0.695849D-02 -0.193639D-01
     20  0.175921D-01  0.164928D-02 -0.353473D-02 -0.268017D-01 -0.381817D-01
     21  0.122185D-01  0.115726D-02  0.584643D-03 -0.227673D-01 -0.301900D-01
     22  0.325786D-02  0.173729D-02  0.479796D-03 -0.426943D-02 -0.181949D-02
     23 -0.632895D-03  0.966284D-04 -0.306172D-03  0.295788D-02  0.246500D-02
     24  0.685748D-04  0.914792D-05  0.106216D-03 -0.276551D-03 -0.550060D-03
     25  0.290619D-02  0.137773D-02 -0.342128D-03 -0.365752D-02 -0.677554D-04
     26 -0.171276D-03  0.130462D-03 -0.875798D-04  0.245886D-02  0.218173D-02
     27 -0.248190D-02 -0.779229D-03  0.324025D-03  0.484987D-02  0.115195D-02
     28 -0.594648D-01 -0.498906D-01  0.364860D-02 -0.609392D-01 -0.971290D-01
     29 -0.456941D-01 -0.464182D+00  0.140433D-01 -0.919880D-01 -0.244071D-01
     30 -0.175429D-01 -0.969971D-02 -0.222132D-02 -0.576057D-02 -0.109617D-01
     31 -0.187738D-01 -0.105428D-01 -0.121310D-01  0.356438D-02 -0.295508D-02
     32 -0.278972D-01 -0.111096D-01 -0.116648D-01  0.427454D-02 -0.414893D-02
     33  0.727645D-03  0.100265D-01  0.131229D-02  0.849366D-02  0.322913D-02
                6             7             8             9            10 
      6  0.811888D-01
      7  0.656293D-03  0.643078D+00
      8  0.766914D-02 -0.108534D-01  0.601944D+00
      9  0.824563D-03 -0.743048D-02 -0.277739D-02  0.604289D+00
     10  0.132937D-01 -0.207185D+00  0.772437D-02  0.600357D-01  0.648249D+00
     11  0.340905D-02  0.109916D-01 -0.447611D-01 -0.337722D-02 -0.163730D-01
     12 -0.738732D-01  0.577953D-01 -0.231480D-02 -0.545675D-01 -0.185945D-01
     13  0.272725D-02 -0.146592D+00 -0.972614D-01  0.153869D-01 -0.747164D-02
     14  0.150472D-02 -0.108011D+00 -0.258385D+00  0.209406D-01 -0.419383D-02
     15 -0.205385D-03  0.147814D-01  0.171511D-01 -0.799222D-01  0.231060D-02
     16  0.188772D-02 -0.147636D-01  0.302938D-01 -0.358630D-01 -0.163699D+00
     17  0.449294D-01  0.866182D-02 -0.134864D-01  0.180060D-01  0.803830D-01
     18 -0.402519D-02 -0.458665D-02  0.754147D-02 -0.869376D-02 -0.763544D-01
     19 -0.211551D-01  0.867916D-02  0.137948D-01  0.266168D-01 -0.895705D-01
     20 -0.458764D-01 -0.442730D-02 -0.598411D-02 -0.170688D-01  0.153653D-01
     21 -0.943956D-02 -0.102203D-01 -0.184278D-01 -0.355715D-01  0.364313D-01
     22  0.179412D-02 -0.190489D+00  0.848447D-01 -0.798053D-01 -0.106406D-01
     23 -0.182598D-02  0.898619D-01 -0.149040D+00  0.739683D-01  0.613541D-02
     24  0.152950D-02 -0.897556D-01  0.771039D-01 -0.155293D+00 -0.216952D-02
     25  0.636749D-03 -0.923440D-01  0.110112D-01  0.267959D-01  0.808212D-02
     26  0.166763D-02  0.156764D-01 -0.114371D+00 -0.868140D-01 -0.373920D-02
     27  0.220310D-02  0.385579D-01 -0.861145D-01 -0.271642D+00 -0.116186D-01
     28 -0.863764D-02  0.446116D-02 -0.171189D-02 -0.153147D-02 -0.519973D-02
     29 -0.353129D-02  0.821271D-02 -0.246153D-02 -0.305379D-02  0.107803D-01
     30 -0.180999D-01  0.612706D-03 -0.150210D-02 -0.912423D-03 -0.358583D-02
     31  0.227008D-02 -0.101840D-02 -0.801948D-03 -0.129350D-03 -0.330810D-02
     32 -0.793135D-02 -0.791043D-03  0.211250D-04  0.332285D-03 -0.221481D-02
     33 -0.327817D-02 -0.686669D-03  0.590366D-03  0.865159D-03  0.784660D-03
               11            12            13            14            15 
     11  0.545007D+00
     12  0.145150D-01  0.596575D+00
     13 -0.431460D-01 -0.507064D-03  0.133829D+00
     14 -0.277555D-01 -0.103833D-02  0.136015D+00  0.393616D+00
     15  0.121845D-01  0.192742D-02 -0.445576D-02 -0.191040D-01  0.830508D-01
     16  0.772843D-01 -0.698847D-01 -0.369143D-03 -0.109252D-02  0.145454D-02
     17 -0.153761D+00  0.773771D-01  0.472930D-03  0.576702D-02 -0.273309D-02
     18  0.796240D-01 -0.148908D+00  0.482563D-03 -0.170267D-02  0.203016D-02
     19  0.877534D-02  0.246779D-01 -0.710129D-03 -0.224673D-03  0.172405D-03
     20 -0.118473D+00 -0.972793D-01  0.266570D-02  0.494632D-02  0.187475D-02
     21 -0.944183D-01 -0.273124D+00  0.232102D-02  0.284625D-02  0.270338D-02
     22  0.282124D-01 -0.373657D-01  0.223760D-01  0.311768D-02  0.269225D-02
     23 -0.766729D-02  0.159289D-01  0.182160D-01 -0.671219D-01  0.419614D-01
     24  0.561371D-02 -0.675667D-02 -0.314067D-02  0.347271D-01 -0.253408D-02
     25  0.129857D-01  0.273335D-01  0.109369D-01 -0.199770D-01 -0.208419D-01
     26 -0.324951D-02 -0.146622D-01 -0.137669D-01 -0.511804D-01 -0.525127D-01
     27 -0.171786D-01 -0.353907D-01 -0.129720D-01 -0.382355D-01 -0.699159D-02
     28  0.184695D-01 -0.496050D-03 -0.217811D-02 -0.137529D-02  0.621162D-03
     29  0.250177D-01  0.167061D-02 -0.327237D-02 -0.163820D-02  0.971024D-03
     30 -0.290336D-03  0.129865D-01 -0.562809D-03 -0.164083D-03  0.203038D-03
     31 -0.427803D-02  0.609235D-03  0.289549D-03  0.333204D-03 -0.197137D-04
     32 -0.125832D-02  0.137629D-02  0.261012D-03  0.129050D-03 -0.897051D-04
     33 -0.141848D-02  0.737835D-03  0.435501D-03  0.211628D-03 -0.213281D-03
               16            17            18            19            20 
     16  0.170608D+00
     17 -0.995560D-01  0.225834D+00
     18  0.116834D+00 -0.143350D+00  0.224217D+00
     19  0.782984D-02 -0.404335D-02 -0.342588D-01  0.722494D-01
     20 -0.104055D-02  0.188235D-01  0.182728D-01 -0.189966D-02  0.140746D+00
     21 -0.238142D-01  0.302215D-02 -0.735862D-01 -0.370931D-02  0.142813D+00
     22 -0.140628D-01  0.479459D-02 -0.836917D-03 -0.479557D-03 -0.495418D-03
     23  0.435327D-02 -0.354542D-03 -0.320110D-03 -0.274933D-03  0.125974D-02
     24 -0.594436D-03 -0.707190D-03  0.180403D-02 -0.124192D-03  0.475804D-03
     25 -0.602561D-03 -0.243387D-03  0.585718D-03 -0.719262D-02  0.339607D-02
     26 -0.215824D-03  0.144256D-02 -0.282366D-03  0.306961D-02 -0.846025D-04
     27  0.433429D-02 -0.808593D-03  0.601912D-02  0.868176D-02 -0.216452D-02
     28  0.277135D-02 -0.369550D-02  0.218225D-02 -0.641892D-03 -0.565305D-02
     29 -0.257477D-02 -0.507982D-02  0.233238D-02 -0.213844D-02 -0.514332D-02
     30 -0.532363D-03 -0.150791D-02 -0.208447D-03  0.972739D-03  0.216599D-02
     31  0.230282D-03  0.680407D-03 -0.110544D-03  0.372538D-03  0.129847D-02
     32  0.315994D-03  0.325907D-03 -0.296226D-03  0.420727D-03  0.442342D-03
     33  0.158082D-04  0.527315D-03 -0.615882D-03  0.211259D-03  0.321147D-03
               21            22            23            24            25 
     21  0.387617D+00
     22  0.486267D-02  0.187595D+00
     23 -0.101015D-02 -0.117017D+00  0.201018D+00
     24  0.601066D-02  0.134748D+00 -0.132879D+00  0.228852D+00
     25  0.811064D-02  0.750179D-02 -0.405508D-02 -0.386671D-01  0.749668D-01
     26 -0.198690D-02 -0.968043D-03  0.183824D-01  0.165264D-01 -0.277945D-02
     27 -0.530889D-02 -0.264137D-01  0.438387D-02 -0.736456D-01 -0.386740D-02
     28 -0.415703D-02 -0.110303D-02  0.436709D-03 -0.153178D-03 -0.890606D-03
     29 -0.394807D-02 -0.268880D-02  0.106576D-02 -0.334038D-03 -0.189610D-02
     30 -0.111020D-04 -0.304219D-03  0.144335D-03  0.447621D-04  0.108143D-03
     31  0.724075D-03  0.314118D-03  0.185981D-04  0.643677D-04  0.293518D-03
     32  0.142384D-03  0.281936D-03 -0.103768D-03  0.139124D-04  0.247934D-03
     33  0.125231D-03  0.148739D-03 -0.457594D-04 -0.117721D-03  0.147986D-03
               26            27            28            29            30 
     26  0.146035D+00
     27  0.137972D+00  0.384640D+00
     28  0.252051D-03  0.875477D-03  0.264167D+00
     29  0.765130D-03  0.200259D-02  0.197820D+00  0.530114D+00
     30  0.372904D-03  0.277484D-03  0.233708D+00  0.944887D-01  0.304658D+00
     31  0.183795D-03  0.542433D-04 -0.140983D+00 -0.665601D-01 -0.207113D+00
     32 -0.519398D-04 -0.229840D-03 -0.575226D-01 -0.540510D-01 -0.730461D-01
     33 -0.193589D-03 -0.485753D-03 -0.226060D+00 -0.104641D+00 -0.296717D+00
               31            32            33 
     31  0.159018D+00
     32  0.826235D-01  0.698052D-01
     33  0.215782D+00  0.913932D-01  0.298387D+00
 FormGI is forming the generalized inverse of G from B-inverse, IUseBI=4.
 Force constants in internal coordinates: 
                1             2             3             4             5 
      1  0.318763D+00
      2  0.969405D-01  0.547862D+00
      3  0.500743D-01 -0.127641D-01  0.391363D+00
      4 -0.170421D-02 -0.684548D-03  0.116884D-01  0.282205D+00
      5 -0.506981D-02  0.299349D-02  0.578045D-02  0.165802D-01  0.452779D+00
      6 -0.144244D-02  0.219177D-02  0.469048D-02  0.169179D-01  0.570526D-01
      7 -0.131728D-02  0.213032D-02  0.476012D-02  0.174652D-01  0.565840D-01
      8 -0.176821D-01  0.407935D-02  0.620413D-01  0.186806D-01  0.481061D-02
      9 -0.135746D-01  0.658757D-02  0.503408D-01  0.176864D-01  0.541580D-02
     10 -0.870155D-02  0.441163D-02  0.185878D-02  0.643263D-04 -0.588245D-03
     11  0.945452D-01  0.952947D-01  0.660916D-02 -0.533627D-03  0.238754D-02
     12  0.458979D-01  0.130601D-01  0.872962D-01 -0.100502D-02  0.167449D-02
     13 -0.382532D-02  0.373987D-02  0.133500D-01  0.171886D-01  0.148601D-01
     14 -0.213381D-02  0.176981D-02 -0.401778D-03  0.107879D-01 -0.290804D-01
     15 -0.292329D-02  0.186374D-02 -0.171764D-02  0.179100D-01 -0.280957D-01
     16  0.315743D-02 -0.266230D-02 -0.457564D-02 -0.149316D-01  0.203651D-01
     17  0.353185D-02 -0.264477D-02 -0.419878D-02 -0.161817D-01  0.201725D-01
     18  0.233114D-02 -0.217667D-02 -0.260541D-02 -0.154454D-01  0.263923D-02
     19 -0.198614D-02 -0.371585D-03  0.262902D-02  0.606070D-02  0.164623D-01
     20  0.877850D-03  0.380986D-02  0.407663D-01 -0.105101D-01 -0.299258D-02
     21 -0.593753D-02  0.296091D-02  0.162303D-01 -0.110540D-01 -0.382984D-02
     22 -0.934201D-03 -0.357669D-02 -0.354893D-01  0.137396D-01 -0.476261D-02
     23  0.455743D-02 -0.268743D-02 -0.213204D-01  0.999658D-02 -0.460257D-02
     24  0.361710D-02 -0.202310D-03 -0.338690D-02 -0.836109D-02 -0.654125D-03
     25  0.114241D-02  0.503773D-01  0.272865D-02  0.113631D-04 -0.214713D-03
     26  0.983098D-04 -0.203676D-02 -0.188243D-02  0.117671D-03 -0.246844D-03
     27 -0.820852D-02 -0.329188D-01 -0.499807D-02 -0.104186D-03  0.171602D-03
     28 -0.153077D-02 -0.562986D-03 -0.350764D-02 -0.163780D-02  0.630531D-03
     29 -0.320415D-02 -0.275043D-02 -0.199478D-01  0.118262D-01  0.200719D-02
     30 -0.157241D-02  0.102350D-02  0.103516D-01 -0.110150D-01 -0.278091D-02
     31  0.170415D-02  0.185585D-03  0.709228D-02  0.151976D-02 -0.238123D-03
     32  0.234488D-02 -0.203569D-02 -0.221699D-01  0.237217D-02 -0.302125D-02
     33 -0.400308D-02  0.176214D-02  0.141747D-01 -0.108658D-02  0.306986D-02
     34  0.180335D-02  0.416280D-03  0.979388D-02  0.907404D-03  0.163121D-01
     35  0.244408D-02 -0.180500D-02 -0.194683D-01  0.175981D-02  0.135290D-01
     36 -0.390387D-02  0.199283D-02  0.168763D-01 -0.169894D-02  0.196201D-01
     37  0.146619D-02  0.319769D-04  0.519767D-02  0.895360D-04 -0.168649D-01
     38  0.210692D-02 -0.218930D-02 -0.240645D-01  0.941945D-03 -0.196480D-01
     39 -0.424103D-02  0.160853D-02  0.122801D-01 -0.251681D-02 -0.135569D-01
                6             7             8             9            10 
      6  0.463810D+00
      7  0.570350D-01  0.447806D+00
      8  0.613295D-02  0.543336D-02  0.451118D+00
      9  0.600075D-02  0.621833D-02  0.547245D-01  0.452926D+00
     10 -0.208718D-03 -0.393001D-03 -0.812115D-03 -0.929212D-03  0.490408D+00
     11  0.429483D-03  0.151144D-02  0.881873D-02  0.779162D-02  0.481269D-02
     12  0.257775D-02  0.164641D-02 -0.501614D-02  0.169494D-02 -0.581121D-03
     13 -0.293419D-01 -0.284098D-01 -0.464996D-02 -0.345051D-02 -0.522373D-03
     14  0.161528D-01 -0.296277D-01  0.177230D-01 -0.329104D-02 -0.367376D-03
     15 -0.297064D-01  0.174532D-01 -0.320411D-02  0.176108D-01 -0.413108D-03
     16  0.202783D-01  0.259317D-02 -0.387807D-02 -0.215518D-02  0.440781D-03
     17  0.221648D-02  0.192995D-01 -0.191516D-02 -0.423283D-02  0.503292D-03
     18  0.205500D-01  0.196040D-01 -0.433950D-02 -0.457794D-02  0.379290D-03
     19 -0.277826D-02 -0.405708D-02 -0.296967D-01 -0.270653D-01  0.422302D-03
     20 -0.428707D-02 -0.167771D-02  0.241249D-01 -0.204803D-02 -0.660031D-03
     21 -0.172274D-02 -0.451189D-02 -0.151057D-02  0.126798D-01 -0.945075D-03
     22  0.135245D-01 -0.162315D-02  0.130679D-01 -0.151793D-01  0.591270D-03
     23 -0.165428D-02  0.138273D-01 -0.123281D-01  0.176223D-01  0.622105D-03
     24 -0.249769D-02 -0.245675D-02  0.904366D-02  0.133429D-01 -0.224294D-04
     25 -0.349061D-03 -0.106017D-03  0.567691D-04 -0.560772D-03  0.289084D-01
     26 -0.667661D-03  0.293226D-04  0.573892D-03  0.218873D-02 -0.162057D-02
     27  0.177006D-03 -0.735097D-03 -0.172096D-03  0.135538D-02 -0.426440D-02
     28 -0.617291D-02  0.555989D-02 -0.171738D-01  0.160421D-01  0.190440D-03
     29  0.603553D-02  0.353790D-03 -0.273613D-02 -0.183320D-01  0.730245D-03
     30 -0.623047D-03 -0.618298D-02  0.224162D-01  0.364210D-02 -0.233798D-03
     31 -0.141979D-01  0.147787D-01  0.140601D-01 -0.901537D-02  0.114091D-03
     32 -0.157682D-01  0.201489D-01 -0.656291D-02  0.183430D-01  0.312309D-03
     33 -0.196073D-01  0.162844D-01 -0.179926D-01  0.120246D-02 -0.348112D-03
     34  0.220477D-02 -0.190954D-01  0.174257D-01 -0.160039D-01  0.915919D-04
     35  0.634467D-03 -0.137253D-01 -0.319730D-02  0.113545D-01  0.289810D-03
     36 -0.320464D-02 -0.175897D-01 -0.146270D-01 -0.578608D-02 -0.370611D-03
     37  0.187147D-01 -0.215494D-02  0.211339D-01 -0.123921D-01  0.643765D-04
     38  0.171444D-01  0.321519D-02  0.510864D-03  0.149662D-01  0.262594D-03
     39  0.133053D-01 -0.649241D-03 -0.109189D-01 -0.217433D-02 -0.397827D-03
               11            12            13            14            15 
     11  0.521127D+00
     12  0.228572D-01  0.273367D+00
     13  0.360787D-02  0.510657D-02  0.190761D+00
     14 -0.330697D-03 -0.485858D-03  0.398797D-03  0.185650D+00
     15 -0.435031D-04 -0.734997D-03  0.856349D-03  0.206459D-03  0.194621D+00
     16 -0.129958D-02 -0.156171D-02 -0.944445D-01 -0.893974D-01 -0.113016D-01
     17 -0.147809D-02 -0.151526D-02 -0.896986D-01 -0.104501D-01 -0.916842D-01
     18 -0.501119D-03 -0.858593D-03 -0.107476D-01 -0.895229D-01 -0.954216D-01
     19  0.753158D-02 -0.682308D-02  0.213493D-01 -0.716469D-02 -0.564824D-02
     20 -0.682151D-02  0.297303D-01 -0.612979D-02 -0.600020D-02  0.239529D-02
     21  0.551197D-03 -0.696110D-03 -0.603082D-02  0.305017D-02 -0.742438D-02
     22  0.272250D-02 -0.265100D-01 -0.582608D-02  0.196687D-01 -0.403340D-02
     23 -0.234112D-02 -0.962367D-03 -0.691663D-02 -0.432246D-02  0.189009D-01
     24 -0.185340D-02  0.518766D-02  0.326755D-02 -0.444875D-02 -0.486501D-02
     25  0.235306D-01  0.401288D-02 -0.939434D-04 -0.315368D-03 -0.576604D-03
     26  0.505286D-02 -0.570034D-02 -0.957897D-03 -0.560410D-03  0.788018D-03
     27 -0.186745D-01 -0.358977D-02 -0.565779D-03  0.102413D-03  0.537272D-03
     28  0.140481D-02 -0.106391D-01  0.149396D-03 -0.862600D-02  0.761892D-02
     29  0.461242D-02 -0.281539D-01  0.976611D-03  0.756936D-02  0.113289D-02
     30 -0.157648D-02 -0.373849D-02 -0.223006D-02  0.132814D-03 -0.741188D-02
     31 -0.222982D-02  0.741191D-02 -0.471771D-03 -0.470823D-02  0.573354D-02
     32  0.113985D-03 -0.855248D-02 -0.155243D-02 -0.549583D-02  0.853325D-02
     33  0.208301D-02  0.976465D-03  0.174566D-02 -0.902839D-02  0.609679D-02
     34 -0.171823D-02  0.846976D-02  0.590733D-02  0.173740D-02 -0.762112D-02
     35  0.625574D-03 -0.749464D-02  0.482668D-02  0.949795D-03 -0.482141D-02
     36  0.259460D-02  0.203431D-02  0.812476D-02 -0.258277D-02 -0.725787D-02
     37 -0.257671D-02  0.662341D-02 -0.663084D-02  0.767505D-02 -0.319909D-03
     38 -0.232905D-03 -0.934098D-02 -0.771150D-02  0.688745D-02  0.247980D-02
     39  0.173612D-02  0.187965D-03 -0.441341D-02  0.335489D-02  0.433425D-04
               16            17            18            19            20 
     16  0.124222D+00
     17  0.369329D-01  0.120984D+00
     18  0.367311D-01  0.373345D-01  0.124324D+00
     19 -0.521192D-02 -0.615191D-02  0.271906D-02  0.162740D+00
     20  0.512737D-02  0.232386D-02  0.244709D-02 -0.734810D-01  0.121031D+00
     21  0.229245D-02  0.560905D-02  0.263669D-02 -0.658432D-01  0.137033D-01
     22 -0.593045D-02  0.199200D-02 -0.608363D-02 -0.967334D-02 -0.771022D-01
     23  0.224464D-02 -0.467444D-02 -0.530524D-02 -0.369313D-01  0.182535D-01
     24  0.134335D-02  0.122731D-02  0.357240D-02  0.218684D-01 -0.266676D-02
     25  0.295448D-03  0.330765D-03  0.374348D-03  0.143089D-02 -0.941462D-03
     26  0.648969D-03 -0.115229D-03  0.205452D-03 -0.306406D-02 -0.333824D-02
     27 -0.489458D-05  0.000000D+00 -0.691577D-04 -0.157531D-02  0.624863D-03
     28  0.272055D-02 -0.233333D-02  0.521670D-03 -0.136045D-02  0.648960D-02
     29 -0.414323D-02 -0.185032D-02 -0.385013D-02  0.305185D-01 -0.524576D-01
     30  0.195462D-02  0.420726D-02  0.347591D-02 -0.253278D-01  0.272743D-01
     31 -0.189687D-01  0.192464D-01 -0.439687D-03 -0.188845D-02  0.267671D-01
     32 -0.185771D-01  0.186827D-01 -0.120492D-02  0.994470D-03 -0.312672D-01
     33 -0.180412D-01  0.186860D-01  0.973865D-03  0.101373D-02  0.593438D-02
     34  0.177694D-01  0.478371D-03 -0.183010D-01  0.928582D-03  0.253804D-01
     35  0.181610D-01 -0.853093D-04 -0.190662D-01  0.381150D-02 -0.326538D-01
     36  0.186970D-01 -0.820421D-04 -0.168874D-01  0.383076D-02  0.454772D-02
     37 -0.237937D-03 -0.189393D-01  0.180512D-01 -0.385489D-02  0.261850D-01
     38  0.153647D-03 -0.195029D-01  0.172860D-01 -0.971974D-03 -0.318493D-01
     39  0.689577D-03 -0.194997D-01  0.194648D-01 -0.952711D-03  0.535226D-02
               21            22            23            24            25 
     21  0.992562D-01
     22  0.106757D-01  0.125359D+00
     23 -0.570982D-01 -0.713152D-02  0.117719D+00
     24  0.521806D-03 -0.398063D-01 -0.380601D-01  0.597150D-01
     25 -0.117518D-02  0.266339D-03  0.472700D-03 -0.779654D-04  0.106040D+00
     26  0.704383D-02  0.201920D-02 -0.275028D-02  0.478578D-04 -0.404054D-02
     27  0.117222D-02  0.407990D-03 -0.675011D-04 -0.552937D-03 -0.217790D-01
     28 -0.933341D-02 -0.321798D-01  0.326710D-01  0.158392D-02  0.168065D-03
     29 -0.239009D-01  0.667865D-01  0.151259D-01 -0.362760D-01  0.691859D-03
     30  0.405005D-01 -0.235765D-01 -0.514761D-01  0.348227D-01 -0.642827D-03
     31 -0.186303D-01 -0.949459D-02  0.509102D-02 -0.124614D-02 -0.809609D-04
     32 -0.442195D-02  0.124033D-01  0.829581D-02  0.142286D-01  0.870726D-04
     33  0.207851D-01 -0.781898D-02 -0.790101D-02 -0.131765D-01 -0.236837D-03
     34 -0.177592D-01 -0.821089D-02  0.673646D-03 -0.272245D-03  0.261021D-04
     35 -0.355077D-02  0.136871D-01  0.387844D-02  0.152025D-01  0.194136D-03
     36  0.216563D-01 -0.653528D-02 -0.123184D-01 -0.122026D-01 -0.129774D-03
     37 -0.173571D-01 -0.597763D-02  0.356563D-02 -0.178005D-02 -0.800258D-04
     38 -0.314875D-02  0.159203D-01  0.677042D-02  0.136947D-01  0.880077D-04
     39  0.220583D-01 -0.430202D-02 -0.942640D-02 -0.137104D-01 -0.235902D-03
               26            27            28            29            30 
     26  0.458909D-01
     27  0.670654D-03 -0.255364D-01
     28 -0.813247D-03 -0.272766D-03  0.245278D-01
     29 -0.209295D-02 -0.254261D-03 -0.111468D-01  0.540355D-01
     30 -0.192922D-03  0.116054D-03 -0.103790D-01 -0.359443D-01  0.458332D-01
     31 -0.314949D-02  0.189097D-04 -0.671544D-02 -0.278091D-02  0.200132D-02
     32  0.142216D-02 -0.984735D-04  0.609965D-02  0.243062D-02 -0.222682D-02
     33  0.174591D-02  0.367700D-03  0.437463D-02 -0.882981D-03 -0.161211D-02
     34 -0.331713D-02 -0.288635D-03 -0.868662D-02 -0.251563D-02  0.307012D-02
     35  0.125453D-02 -0.406019D-03  0.412847D-02  0.269590D-02 -0.115803D-02
     36  0.157828D-02  0.601549D-04  0.240344D-02 -0.617696D-03 -0.543313D-03
     37 -0.290640D-02  0.368324D-04 -0.855439D-02 -0.179606D-02  0.268441D-02
     38  0.166525D-02 -0.805508D-04  0.426070D-02  0.341546D-02 -0.154373D-02
     39  0.198900D-02  0.385623D-03  0.253567D-02  0.101866D-03 -0.929021D-03
               31            32            33            34            35 
     31  0.339972D-01
     32  0.828008D-02  0.381976D-01
     33  0.123694D-01  0.939536D-02  0.340869D-01
     34  0.715499D-02 -0.192724D-01 -0.146138D-01  0.341489D-01
     35 -0.185621D-01  0.106451D-01 -0.175879D-01  0.772151D-02  0.369287D-01
     36 -0.144728D-01 -0.181571D-01  0.710364D-02  0.123801D-01  0.869574D-02
     37  0.734452D-02 -0.187217D-01 -0.151563D-01  0.760472D-02 -0.184615D-01
     38 -0.183726D-01  0.111958D-01 -0.181303D-01 -0.188227D-01  0.107457D-01
     39 -0.142833D-01 -0.176064D-01  0.656122D-02 -0.141641D-01 -0.174873D-01
               36            37            38            39 
     36  0.339565D-01
     37 -0.148961D-01  0.346416D-01
     38 -0.185804D-01  0.857542D-02  0.381438D-01
     39  0.668038D-02  0.121409D-01  0.881771D-02  0.329853D-01
 Leave Link  716 at Sat May 24 05:02:16 2025, MaxMem=  3758096384 cpu:               0.1 elap:               0.0
 (Enter /apps/easybuild-2022/easybuild/software/Compiler/NVHPC/22.11-CUDA-11.7.0/Gaussian/g16c01-CUDA-11.7.0/g16/l103.exe)

 GradGradGradGradGradGradGradGradGradGradGradGradGradGradGradGradGradGrad
 Berny optimization.
 Red2BG is reusing G-inverse.
 Internal  Forces:  Max     0.027922368 RMS     0.009575985
 Search for a local minimum.
 Step number   1 out of a maximum of   49
 All quantities printed in internal units (Hartrees-Bohrs-Radians)
 RMS Force = .95760D-02 SwitMx=.10000D-02 MixMth= 1
 Mixed Optimization -- RFO/linear search
 Second derivative matrix not updated -- analytic derivatives used.
 ITU=  0
     Eigenvalues ---   -0.03046  -0.00035   0.00323   0.04448   0.08047
     Eigenvalues ---    0.09809   0.10407   0.10617   0.10742   0.18716
     Eigenvalues ---    0.19849   0.22117   0.22942   0.23838   0.25526
     Eigenvalues ---    0.26379   0.29300   0.39440   0.40535   0.41575
     Eigenvalues ---    0.42822   0.43737   0.45685   0.49314   0.56849
     Eigenvalues ---    0.59368   0.69474
 Eigenvalue     1 is  -3.05D-02 should be greater than     0.000000 Eigenvector:
                          D2        A15       R2        A1        R3
   1                   -0.98901  -0.13880  -0.04085  -0.01967  -0.01300
                          D3        D5        D4        A11       R9
   1                   -0.00753  -0.00693  -0.00649   0.00557   0.00481
 Eigenvalue     2 is  -3.49D-04 should be greater than     0.000000 Eigenvector:
                          D5        D4        D3        A2        D1
   1                    0.58232   0.57787   0.55361   0.08291   0.06731
                          D9        A10       D12       D6        A11
   1                    0.04359   0.04344   0.04160   0.03921  -0.03401
 RFO step:  Lambda=-4.94457986D-02 EMin=-3.04633762D-02
 Linear search not attempted -- first point.
 Iteration  1 RMS(Cart)=  0.10426393 RMS(Int)=  0.12493229
 Iteration  2 RMS(Cart)=  0.08337336 RMS(Int)=  0.08716878
 Iteration  3 RMS(Cart)=  0.04778379 RMS(Int)=  0.05362422
 Iteration  4 RMS(Cart)=  0.04562106 RMS(Int)=  0.02189403
 Iteration  5 RMS(Cart)=  0.03036773 RMS(Int)=  0.00229257
 Iteration  6 RMS(Cart)=  0.00210408 RMS(Int)=  0.00037948
 Iteration  7 RMS(Cart)=  0.00000575 RMS(Int)=  0.00037946
 Iteration  8 RMS(Cart)=  0.00000000 RMS(Int)=  0.00037946
 ITry= 1 IFail=0 DXMaxC= 1.09D+00 DCOld= 1.00D+10 DXMaxT= 3.00D-01 DXLimC= 3.00D+00 Rises=F
 Variable       Old X    -DE/DX   Delta X   Delta X   Delta X     New X
                                 (Linear)    (Quad)   (Total)
    R1        2.56804  -0.01056   0.00000  -0.03758  -0.03758   2.53046
    R2        2.44226   0.02189   0.00000   0.01135   0.01135   2.45362
    R3        2.61175  -0.00078   0.00000  -0.01006  -0.01006   2.60169
    R4        2.92424  -0.00359   0.00000  -0.00857  -0.00857   2.91566
    R5        2.50310  -0.00189   0.00000   0.00052   0.00052   2.50362
    R6        2.49654   0.00201   0.00000   0.00533   0.00533   2.50186
    R7        2.50747  -0.00129   0.00000  -0.00600  -0.00600   2.50147
    R8        2.51251   0.00881   0.00000   0.00621   0.00621   2.51872
    R9        2.50416   0.00249   0.00000   0.00598   0.00598   2.51014
   R10        1.84644  -0.01408   0.00000  -0.02557  -0.02557   1.82087
    A1        1.85053  -0.01642   0.00000  -0.04021  -0.04021   1.81033
    A2        2.05128  -0.00425   0.00000  -0.06630  -0.06630   1.98498
    A3        1.90982  -0.00279   0.00000  -0.00334  -0.00337   1.90645
    A4        1.93387  -0.00118   0.00000  -0.00944  -0.00945   1.92442
    A5        1.90991   0.00163   0.00000   0.01088   0.01089   1.92080
    A6        1.90474   0.00124   0.00000  -0.00081  -0.00086   1.90388
    A7        1.90239   0.00063   0.00000   0.00029   0.00029   1.90267
    A8        1.90282   0.00051   0.00000   0.00255   0.00257   1.90539
    A9        1.95721  -0.02284   0.00000  -0.07467  -0.07479   1.88242
   A10        1.85487   0.02412   0.00000   0.06112   0.06120   1.91607
   A11        1.95456   0.00320   0.00000   0.01033   0.00904   1.96361
   A12        1.88578  -0.00636   0.00000   0.00646   0.00738   1.89316
   A13        1.90673   0.00357   0.00000   0.00348   0.00294   1.90968
   A14        1.90219  -0.00120   0.00000  -0.00398  -0.00445   1.89774
   A15        1.97388  -0.00522   0.00000  -0.13909  -0.13909   1.83479
    D1       -3.13431   0.00335   0.00000   0.00932   0.00932  -3.12500
    D2       -2.09394  -0.02792   0.00000  -0.90441  -0.90441  -2.99836
    D3       -2.78901  -0.00385   0.00000  -0.31532  -0.31450  -3.10351
    D4       -0.73208  -0.00917   0.00000  -0.31066  -0.31183  -1.04391
    D5        1.34329   0.00618   0.00000  -0.27170  -0.27135   1.07194
    D6        3.06142   0.00774   0.00000   0.02718   0.02692   3.08834
    D7        1.02297  -0.00474   0.00000  -0.00886  -0.00891   1.01406
    D8       -1.04419  -0.00166   0.00000  -0.00975  -0.00948  -1.05368
    D9       -1.12069   0.00673   0.00000   0.01804   0.01782  -1.10288
   D10        3.12403  -0.00575   0.00000  -0.01800  -0.01801   3.10603
   D11        1.05687  -0.00267   0.00000  -0.01888  -0.01858   1.03829
   D12        0.97805   0.00767   0.00000   0.02228   0.02202   1.00007
   D13       -1.06041  -0.00481   0.00000  -0.01376  -0.01380  -1.07421
   D14       -3.12757  -0.00173   0.00000  -0.01465  -0.01438   3.14124
         Item               Value     Threshold  Converged?
 Maximum Force            0.027922     0.000450     NO 
 RMS     Force            0.009576     0.000300     NO 
 Maximum Displacement     1.087433     0.001800     NO 
 RMS     Displacement     0.264061     0.001200     NO 
 Predicted change in Energy=-4.424743D-02
 Lowest energy point so far.  Saving SCF results.
 GradGradGradGradGradGradGradGradGradGradGradGradGradGradGradGradGradGrad

 Leave Link  103 at Sat May 24 05:02:17 2025, MaxMem=  3758096384 cpu:               0.1 elap:               0.0
 (Enter /apps/easybuild-2022/easybuild/software/Compiler/NVHPC/22.11-CUDA-11.7.0/Gaussian/g16c01-CUDA-11.7.0/g16/l202.exe)
                          Input orientation:                          
 ---------------------------------------------------------------------
 Center     Atomic      Atomic             Coordinates (Angstroms)
 Number     Number       Type             X           Y           Z
 ---------------------------------------------------------------------
      1          6           0        0.102222   -0.075960   -0.046092
      2          8           0        1.421434   -0.029173   -0.270988
      3          6           0        3.466939    1.136257   -0.461405
      4          6           0        1.965186    1.226506   -0.119152
      5          9           0        4.004662    2.344853   -0.387930
      6          9           0        1.388187    2.073955   -0.970847
      7          9           0        1.820969    1.697264    1.114541
      8          9           0        4.084486    0.335070    0.392715
      9          9           0        3.625290    0.667669   -1.689245
     10          8           0       -0.195563   -1.327840   -0.219175
     11          1           0       -1.158096   -1.363374   -0.192286
 ---------------------------------------------------------------------
                    Distance matrix (angstroms):
                    1          2          3          4          5
     1  C    0.000000
     2  O    1.339062   0.000000
     3  C    3.600455   2.361901   0.000000
     4  C    2.274289   1.376753   1.542902   0.000000
     5  F    4.605022   3.510377   1.324859   2.341454   0.000000
     6  F    2.670396   2.216767   2.336668   1.332847   2.694275
     7  F    2.728641   2.249423   2.346818   1.328311   2.728609
     8  F    4.027397   2.768578   1.323929   2.355441   2.157546
     9  F    3.957896   2.711830   1.323722   2.352326   2.156453
    10  O    1.298397   2.074584   4.420901   3.347166   5.582028
    11  H    1.807542   2.905212   5.264174   4.058043   6.359504
                    6          7          8          9         10
     6  F    0.000000
     7  F    2.162878   0.000000
     8  F    3.486123   2.738634   0.000000
     9  F    2.738314   3.489535   2.157786   0.000000
    10  O    3.826942   3.872525   4.632332   4.554347   0.000000
    11  H    4.347982   4.466556   5.541805   5.408031   0.963564
                   11
    11  H    0.000000
 Symmetry turned off by external request.
 Stoichiometry    C3HF5O2
 Rotational constants (GHZ):           2.3266395           0.9531823           0.8864596
 Leave Link  202 at Sat May 24 05:02:17 2025, MaxMem=  3758096384 cpu:               0.0 elap:               0.0
 (Enter /apps/easybuild-2022/easybuild/software/Compiler/NVHPC/22.11-CUDA-11.7.0/Gaussian/g16c01-CUDA-11.7.0/g16/l301.exe)
 Standard basis: def2TZVPP (5D, 7F)
 Ernie: Thresh=  0.10000D-02 Tol=  0.10000D-05 Strict=F.
   324 basis functions,   527 primitive gaussians,   375 cartesian basis functions
    40 alpha electrons       40 beta electrons
       nuclear repulsion energy       630.2570625343 Hartrees.
 IExCor= 4336 DFT=T Ex+Corr=M062X ExCW=0 ScaHFX=  0.540000
 ScaDFX=  1.000000  1.000000  1.000000  1.000000 ScalE2=  1.000000  1.000000
 IRadAn=      5 IRanWt=     -1 IRanGd=            0 ICorTp=0 IEmpDi=  4
 NAtoms=   11 NActive=   11 NUniq=   11 SFac= 1.00D+00 NAtFMM=   60 NAOKFM=F Big=F
 Integral buffers will be    131072 words long.
 Raffenetti 2 integral format.
 Two-electron integral symmetry is turned off.
 Leave Link  301 at Sat May 24 05:02:17 2025, MaxMem=  3758096384 cpu:               0.1 elap:               0.0
 (Enter /apps/easybuild-2022/easybuild/software/Compiler/NVHPC/22.11-CUDA-11.7.0/Gaussian/g16c01-CUDA-11.7.0/g16/l302.exe)
 NPDir=0 NMtPBC=     1 NCelOv=     1 NCel=       1 NClECP=     1 NCelD=      1
         NCelK=      1 NCelE2=     1 NClLst=     1 CellRange=     0.0.
 One-electron integrals computed using PRISM.
   1 Symmetry operations used in ECPInt.
 ECPInt:  NShTT=    6786 NPrTT=   21959 LenC2=    6358 LenP2D=   15591.
 LDataN:  DoStor=T MaxTD1= 6 Len=  172
 NBasis=   324 RedAO= T EigKep=  5.56D-04  NBF=   324
 NBsUse=   324 1.00D-06 EigRej= -1.00D+00 NBFU=   324
 Precomputing XC quadrature grid using
 IXCGrd= 4 IRadAn=           5 IRanWt=          -1 IRanGd=           0 AccXCQ= 0.00D+00.
 Generated NRdTot=       0 NPtTot=           0 NUsed=           0 NTot=          32
 NSgBfM=   373   373   373   373   373 MxSgAt=    11 MxSgA2=    11.
 Leave Link  302 at Sat May 24 05:02:17 2025, MaxMem=  3758096384 cpu:               0.8 elap:               0.2
 (Enter /apps/easybuild-2022/easybuild/software/Compiler/NVHPC/22.11-CUDA-11.7.0/Gaussian/g16c01-CUDA-11.7.0/g16/l303.exe)
 DipDrv:  MaxL=1.
 Leave Link  303 at Sat May 24 05:02:17 2025, MaxMem=  3758096384 cpu:               0.1 elap:               0.0
 (Enter /apps/easybuild-2022/easybuild/software/Compiler/NVHPC/22.11-CUDA-11.7.0/Gaussian/g16c01-CUDA-11.7.0/g16/l401.exe)
 Initial guess from the checkpoint file:  "/tmp/Gau-3939.chk"
 B after Tr=     0.056337   -0.110626   -0.365321
         Rot=    0.999450   -0.013462    0.028457   -0.010387 Ang=  -3.80 deg.
 Guess basis will be translated and rotated to current coordinates.
 JPrj=2 DoOrth=T DoCkMO=T.
 Generating alternative initial guess.
 ExpMin= 9.52D-02 ExpMax= 3.55D+04 ExpMxC= 1.21D+03 IAcc=3 IRadAn=         5 AccDes= 0.00D+00
 Harris functional with IExCor= 1009 and IRadAn=       5 diagonalized for initial guess.
 HarFok:  IExCor= 1009 AccDes= 0.00D+00 IRadAn=         5 IDoV= 1 UseB2=F ITyADJ=14
 ICtDFT=  3500011 ScaDFX=  1.000000  1.000000  1.000000  1.000000
 FoFCou: FMM=F IPFlag=           0 FMFlag=      100000 FMFlg1=           0
         NFxFlg=           0 DoJE=T BraDBF=F KetDBF=T FulRan=T
         wScrn=  0.000000 ICntrl=       500 IOpCl=  0 I1Cent=   200000004 NGrid=           0
         NMat0=    1 NMatS0=      1 NMatT0=    0 NMatD0=    1 NMtDS0=    0 NMtDT0=    0
 Symmetry not used in FoFCou.
 Harris En= -764.107953811441    
 Leave Link  401 at Sat May 24 05:02:17 2025, MaxMem=  3758096384 cpu:               3.4 elap:               0.6
 (Enter /apps/easybuild-2022/easybuild/software/Compiler/NVHPC/22.11-CUDA-11.7.0/Gaussian/g16c01-CUDA-11.7.0/g16/l502.exe)
 Keep R1 ints in memory in canonical form, NReq=1412617130.
 FoFCou: FMM=F IPFlag=           0 FMFlag=           0 FMFlg1=           0
         NFxFlg=           0 DoJE=F BraDBF=F KetDBF=F FulRan=T
         wScrn=  0.000000 ICntrl=       600 IOpCl=  0 I1Cent=           0 NGrid=           0
         NMat0=    1 NMatS0=  52650 NMatT0=    0 NMatD0=    1 NMtDS0=    0 NMtDT0=    0
 Symmetry not used in FoFCou.
 Two-electron integral symmetry not used.
 Closed shell SCF:
 Using DIIS extrapolation, IDIIS=  1040.
 NGot=  3758096384 LenX=  2371771924 LenY=  2371630858
 Requested convergence on RMS density matrix=1.00D-08 within  32 cycles.
 Requested convergence on MAX density matrix=1.00D-06.
 Requested convergence on             energy=1.00D-06.
 No special actions if energy rises.
 Integral accuracy reduced to 1.0D-05 until final iterations.

 Cycle   1  Pass 0  IDiag  1:
 E= -764.396658917215    
 DIIS: error= 2.18D-02 at cycle   1 NSaved=   1.
 NSaved= 1 IEnMin= 1 EnMin= -764.396658917215     IErMin= 1 ErrMin= 2.18D-02
 ErrMax= 2.18D-02  0.00D+00 EMaxC= 1.00D-01 BMatC= 1.63D-01 BMatP= 1.63D-01
 IDIUse=3 WtCom= 7.82D-01 WtEn= 2.18D-01
 Coeff-Com:  0.100D+01
 Coeff-En:   0.100D+01
 Coeff:      0.100D+01
 Recover alternate guess density for next cycle.
 RMSDP=1.98D-03 MaxDP=1.11D-01              OVMax= 0.00D+00

 Cycle   2  Pass 0  IDiag  1:
 E= -764.472127004291     Delta-E=       -0.075468087076 Rises=F Damp=F
 DIIS: error= 2.57D-02 at cycle   2 NSaved=   2.
 NSaved= 2 IEnMin= 2 EnMin= -764.472127004291     IErMin= 1 ErrMin= 2.18D-02
 ErrMax= 2.57D-02  0.00D+00 EMaxC= 1.00D-01 BMatC= 2.91D-01 BMatP= 1.63D-01
 IDIUse=2 WtCom= 0.00D+00 WtEn= 1.00D+00
 Coeff-En:   0.000D+00 0.100D+01
 Coeff:      0.000D+00 0.100D+01
 Gap=     0.337 Goal=   None    Shift=    0.000
 RMSDP=1.58D-03 MaxDP=7.27D-02 DE=-7.55D-02 OVMax= 1.01D-01

 Cycle   3  Pass 0  IDiag  1:
 E= -764.453287564834     Delta-E=        0.018839439457 Rises=F Damp=F
 DIIS: error= 2.34D-02 at cycle   3 NSaved=   3.
 NSaved= 3 IEnMin= 2 EnMin= -764.472127004291     IErMin= 1 ErrMin= 2.18D-02
 ErrMax= 2.34D-02  0.00D+00 EMaxC= 1.00D-01 BMatC= 2.52D-01 BMatP= 1.63D-01
 IDIUse=2 WtCom= 0.00D+00 WtEn= 1.00D+00
 Coeff-En:   0.000D+00 0.535D+00 0.465D+00
 Coeff:      0.000D+00 0.535D+00 0.465D+00
 Gap=     0.333 Goal=   None    Shift=    0.000
 RMSDP=6.74D-04 MaxDP=3.09D-02 DE= 1.88D-02 OVMax= 5.19D-02

 Cycle   4  Pass 0  IDiag  1:
 E= -764.600062053027     Delta-E=       -0.146774488193 Rises=F Damp=F
 DIIS: error= 1.34D-03 at cycle   4 NSaved=   4.
 NSaved= 4 IEnMin= 4 EnMin= -764.600062053027     IErMin= 4 ErrMin= 1.34D-03
 ErrMax= 1.34D-03  0.00D+00 EMaxC= 1.00D-01 BMatC= 1.17D-03 BMatP= 1.63D-01
 IDIUse=3 WtCom= 9.87D-01 WtEn= 1.34D-02
 Coeff-Com:  0.425D-02 0.114D-01 0.505D-01 0.934D+00
 Coeff-En:   0.000D+00 0.000D+00 0.000D+00 0.100D+01
 Coeff:      0.419D-02 0.113D-01 0.499D-01 0.935D+00
 Gap=     0.334 Goal=   None    Shift=    0.000
 RMSDP=1.50D-04 MaxDP=1.28D-02 DE=-1.47D-01 OVMax= 1.24D-02

 Cycle   5  Pass 0  IDiag  1:
 E= -764.600574429587     Delta-E=       -0.000512376560 Rises=F Damp=F
 DIIS: error= 1.20D-03 at cycle   5 NSaved=   5.
 NSaved= 5 IEnMin= 5 EnMin= -764.600574429587     IErMin= 5 ErrMin= 1.20D-03
 ErrMax= 1.20D-03  0.00D+00 EMaxC= 1.00D-01 BMatC= 5.68D-04 BMatP= 1.17D-03
 IDIUse=3 WtCom= 9.88D-01 WtEn= 1.20D-02
 Coeff-Com:  0.235D-02-0.322D-02 0.131D-01 0.451D+00 0.536D+00
 Coeff-En:   0.000D+00 0.000D+00 0.000D+00 0.263D+00 0.737D+00
 Coeff:      0.232D-02-0.318D-02 0.129D-01 0.449D+00 0.539D+00
 Gap=     0.333 Goal=   None    Shift=    0.000
 RMSDP=4.83D-05 MaxDP=3.61D-03 DE=-5.12D-04 OVMax= 6.04D-03

 Cycle   6  Pass 0  IDiag  1:
 E= -764.600966213370     Delta-E=       -0.000391783783 Rises=F Damp=F
 DIIS: error= 2.83D-04 at cycle   6 NSaved=   6.
 NSaved= 6 IEnMin= 6 EnMin= -764.600966213370     IErMin= 6 ErrMin= 2.83D-04
 ErrMax= 2.83D-04  0.00D+00 EMaxC= 1.00D-01 BMatC= 2.99D-05 BMatP= 5.68D-04
 IDIUse=3 WtCom= 9.97D-01 WtEn= 2.83D-03
 Coeff-Com: -0.571D-03-0.235D-02 0.775D-03 0.109D+00 0.224D+00 0.669D+00
 Coeff-En:   0.000D+00 0.000D+00 0.000D+00 0.000D+00 0.000D+00 0.100D+01
 Coeff:     -0.569D-03-0.234D-02 0.772D-03 0.109D+00 0.224D+00 0.670D+00
 Gap=     0.333 Goal=   None    Shift=    0.000
 RMSDP=1.02D-05 MaxDP=6.79D-04 DE=-3.92D-04 OVMax= 1.47D-03

 Cycle   7  Pass 0  IDiag  1:
 E= -764.600985611917     Delta-E=       -0.000019398547 Rises=F Damp=F
 DIIS: error= 6.14D-05 at cycle   7 NSaved=   7.
 NSaved= 7 IEnMin= 7 EnMin= -764.600985611917     IErMin= 7 ErrMin= 6.14D-05
 ErrMax= 6.14D-05  0.00D+00 EMaxC= 1.00D-01 BMatC= 1.69D-06 BMatP= 2.99D-05
 IDIUse=1 WtCom= 1.00D+00 WtEn= 0.00D+00
 Coeff-Com: -0.107D-03-0.698D-03-0.393D-03 0.516D-02 0.342D-01 0.216D+00
 Coeff-Com:  0.746D+00
 Coeff:     -0.107D-03-0.698D-03-0.393D-03 0.516D-02 0.342D-01 0.216D+00
 Coeff:      0.746D+00
 Gap=     0.333 Goal=   None    Shift=    0.000
 RMSDP=4.25D-06 MaxDP=3.74D-04 DE=-1.94D-05 OVMax= 3.67D-04

 Initial convergence to 1.0D-05 achieved.  Increase integral accuracy.
 Cycle   8  Pass 1  IDiag  1:
 E= -764.601019650774     Delta-E=       -0.000034038857 Rises=F Damp=F
 DIIS: error= 3.02D-05 at cycle   1 NSaved=   1.
 NSaved= 1 IEnMin= 1 EnMin= -764.601019650774     IErMin= 1 ErrMin= 3.02D-05
 ErrMax= 3.02D-05  0.00D+00 EMaxC= 1.00D-01 BMatC= 5.74D-07 BMatP= 5.74D-07
 IDIUse=1 WtCom= 1.00D+00 WtEn= 0.00D+00
 Coeff-Com:  0.100D+01
 Coeff:      0.100D+01
 Gap=     0.333 Goal=   None    Shift=    0.000
 RMSDP=4.25D-06 MaxDP=3.74D-04 DE=-3.40D-05 OVMax= 1.55D-04

 Cycle   9  Pass 1  IDiag  1:
 E= -764.601019990346     Delta-E=       -0.000000339571 Rises=F Damp=F
 DIIS: error= 1.87D-05 at cycle   2 NSaved=   2.
 NSaved= 2 IEnMin= 2 EnMin= -764.601019990346     IErMin= 2 ErrMin= 1.87D-05
 ErrMax= 1.87D-05  0.00D+00 EMaxC= 1.00D-01 BMatC= 1.76D-07 BMatP= 5.74D-07
 IDIUse=1 WtCom= 1.00D+00 WtEn= 0.00D+00
 Coeff-Com:  0.291D+00 0.709D+00
 Coeff:      0.291D+00 0.709D+00
 Gap=     0.333 Goal=   None    Shift=    0.000
 RMSDP=1.36D-06 MaxDP=1.04D-04 DE=-3.40D-07 OVMax= 8.61D-05

 Cycle  10  Pass 1  IDiag  1:
 E= -764.601020069353     Delta-E=       -0.000000079008 Rises=F Damp=F
 DIIS: error= 9.01D-06 at cycle   3 NSaved=   3.
 NSaved= 3 IEnMin= 3 EnMin= -764.601020069353     IErMin= 3 ErrMin= 9.01D-06
 ErrMax= 9.01D-06  0.00D+00 EMaxC= 1.00D-01 BMatC= 6.12D-08 BMatP= 1.76D-07
 IDIUse=1 WtCom= 1.00D+00 WtEn= 0.00D+00
 Coeff-Com: -0.262D-01 0.365D+00 0.661D+00
 Coeff:     -0.262D-01 0.365D+00 0.661D+00
 Gap=     0.333 Goal=   None    Shift=    0.000
 RMSDP=5.24D-07 MaxDP=2.69D-05 DE=-7.90D-08 OVMax= 4.26D-05

 Cycle  11  Pass 1  IDiag  1:
 E= -764.601020109780     Delta-E=       -0.000000040426 Rises=F Damp=F
 DIIS: error= 1.53D-06 at cycle   4 NSaved=   4.
 NSaved= 4 IEnMin= 4 EnMin= -764.601020109780     IErMin= 4 ErrMin= 1.53D-06
 ErrMax= 1.53D-06  0.00D+00 EMaxC= 1.00D-01 BMatC= 1.33D-09 BMatP= 6.12D-08
 IDIUse=1 WtCom= 1.00D+00 WtEn= 0.00D+00
 Coeff-Com: -0.171D-01 0.103D+00 0.239D+00 0.676D+00
 Coeff:     -0.171D-01 0.103D+00 0.239D+00 0.676D+00
 Gap=     0.333 Goal=   None    Shift=    0.000
 RMSDP=1.08D-07 MaxDP=4.28D-06 DE=-4.04D-08 OVMax= 7.65D-06

 Cycle  12  Pass 1  IDiag  1:
 E= -764.601020110742     Delta-E=       -0.000000000963 Rises=F Damp=F
 DIIS: error= 4.93D-07 at cycle   5 NSaved=   5.
 NSaved= 5 IEnMin= 5 EnMin= -764.601020110742     IErMin= 5 ErrMin= 4.93D-07
 ErrMax= 4.93D-07  0.00D+00 EMaxC= 1.00D-01 BMatC= 1.29D-10 BMatP= 1.33D-09
 IDIUse=1 WtCom= 1.00D+00 WtEn= 0.00D+00
 Coeff-Com: -0.121D-02-0.266D-01-0.221D-01 0.186D+00 0.864D+00
 Coeff:     -0.121D-02-0.266D-01-0.221D-01 0.186D+00 0.864D+00
 Gap=     0.333 Goal=   None    Shift=    0.000
 RMSDP=4.87D-08 MaxDP=3.78D-06 DE=-9.63D-10 OVMax= 4.73D-06

 Cycle  13  Pass 1  IDiag  1:
 E= -764.601020110898     Delta-E=       -0.000000000156 Rises=F Damp=F
 DIIS: error= 2.23D-07 at cycle   6 NSaved=   6.
 NSaved= 6 IEnMin= 6 EnMin= -764.601020110898     IErMin= 6 ErrMin= 2.23D-07
 ErrMax= 2.23D-07  0.00D+00 EMaxC= 1.00D-01 BMatC= 3.14D-11 BMatP= 1.29D-10
 IDIUse=1 WtCom= 1.00D+00 WtEn= 0.00D+00
 Coeff-Com:  0.134D-02-0.251D-01-0.359D-01 0.288D-01 0.434D+00 0.597D+00
 Coeff:      0.134D-02-0.251D-01-0.359D-01 0.288D-01 0.434D+00 0.597D+00
 Gap=     0.333 Goal=   None    Shift=    0.000
 RMSDP=1.18D-08 MaxDP=7.51D-07 DE=-1.56D-10 OVMax= 1.04D-06

 Cycle  14  Pass 1  IDiag  1:
 E= -764.601020110946     Delta-E=       -0.000000000049 Rises=F Damp=F
 DIIS: error= 4.50D-08 at cycle   7 NSaved=   7.
 NSaved= 7 IEnMin= 7 EnMin= -764.601020110946     IErMin= 7 ErrMin= 4.50D-08
 ErrMax= 4.50D-08  0.00D+00 EMaxC= 1.00D-01 BMatC= 1.06D-12 BMatP= 3.14D-11
 IDIUse=1 WtCom= 1.00D+00 WtEn= 0.00D+00
 Coeff-Com:  0.414D-03-0.343D-02-0.596D-02-0.107D-01 0.161D-01 0.149D+00
 Coeff-Com:  0.854D+00
 Coeff:      0.414D-03-0.343D-02-0.596D-02-0.107D-01 0.161D-01 0.149D+00
 Coeff:      0.854D+00
 Gap=     0.333 Goal=   None    Shift=    0.000
 RMSDP=3.69D-09 MaxDP=1.35D-07 DE=-4.87D-11 OVMax= 5.05D-07

 SCF Done:  E(RM062X) =  -764.601020111     A.U. after   14 cycles
            NFock= 14  Conv=0.37D-08     -V/T= 2.0036
 KE= 7.618721296495D+02 PE=-3.072722397515D+03 EE= 9.159921852207D+02
 Leave Link  502 at Sat May 24 05:02:44 2025, MaxMem=  3758096384 cpu:             107.8 elap:              27.0
 (Enter /apps/easybuild-2022/easybuild/software/Compiler/NVHPC/22.11-CUDA-11.7.0/Gaussian/g16c01-CUDA-11.7.0/g16/l508.exe)
 QCSCF skips out because SCF is already converged.
 Leave Link  508 at Sat May 24 05:02:44 2025, MaxMem=  3758096384 cpu:               0.1 elap:               0.0
 (Enter /apps/easybuild-2022/easybuild/software/Compiler/NVHPC/22.11-CUDA-11.7.0/Gaussian/g16c01-CUDA-11.7.0/g16/l701.exe)
 ... and contract with generalized density number  0.
 Compute integral first derivatives.
   1 Symmetry operations used in ECPInt.
 ECPInt:  NShTT=    6786 NPrTT=   21959 LenC2=    6358 LenP2D=   15591.
 LDataN:  DoStor=T MaxTD1= 7 Len=  274
 Leave Link  701 at Sat May 24 05:02:45 2025, MaxMem=  3758096384 cpu:               0.9 elap:               0.2
 (Enter /apps/easybuild-2022/easybuild/software/Compiler/NVHPC/22.11-CUDA-11.7.0/Gaussian/g16c01-CUDA-11.7.0/g16/l702.exe)
 L702 exits ... SP integral derivatives will be done elsewhere.
 Leave Link  702 at Sat May 24 05:02:45 2025, MaxMem=  3758096384 cpu:               0.1 elap:               0.0
 (Enter /apps/easybuild-2022/easybuild/software/Compiler/NVHPC/22.11-CUDA-11.7.0/Gaussian/g16c01-CUDA-11.7.0/g16/l703.exe)
 Integral derivatives from FoFJK, PRISM(SPDF).
 Compute integral first derivatives, UseDBF=F ICtDFT=           0.
[...]
    R1        2.54188   0.00000   0.00000   0.00000   0.00000   2.54188
    R2        2.45766   0.00004   0.00000   0.00008   0.00008   2.45774
    R3        2.60029   0.00002   0.00000   0.00003   0.00003   2.60032
    R4        2.91793  -0.00001   0.00000  -0.00002  -0.00002   2.91791
    R5        2.50397   0.00000   0.00000   0.00000   0.00000   2.50397
    R6        2.50232   0.00000   0.00000   0.00002   0.00002   2.50233
    R7        2.50232  -0.00000   0.00000  -0.00001  -0.00001   2.50232
    R8        2.51485   0.00003   0.00000   0.00002   0.00002   2.51487
    R9        2.51485   0.00000   0.00000   0.00002   0.00002   2.51487
   R10        1.81988  -0.00001   0.00000  -0.00002  -0.00002   1.81986
    A1        1.81220  -0.00001   0.00000  -0.00002  -0.00002   1.81219
    A2        2.00416  -0.00001   0.00000  -0.00005  -0.00005   2.00411
    A3        1.90846  -0.00000   0.00000   0.00002   0.00002   1.90848
    A4        1.92255  -0.00001   0.00000  -0.00004  -0.00004   1.92250
    A5        1.92243   0.00000   0.00000   0.00002   0.00002   1.92246
    A6        1.90231   0.00001   0.00000   0.00001   0.00001   1.90232
    A7        1.90225   0.00000   0.00000   0.00000   0.00000   1.90225
    A8        1.90558   0.00000   0.00000  -0.00001  -0.00001   1.90557
    A9        1.87637  -0.00004   0.00000  -0.00015  -0.00015   1.87622
   A10        1.94672   0.00005   0.00000   0.00028   0.00028   1.94700
   A11        1.94706   0.00000   0.00000  -0.00008  -0.00008   1.94698
   A12        1.89904  -0.00001   0.00000  -0.00000  -0.00000   1.89904
   A13        1.89913   0.00000   0.00000  -0.00002  -0.00002   1.89910
   A14        1.89450  -0.00001   0.00000  -0.00004  -0.00004   1.89446
   A15        1.87615  -0.00001   0.00000  -0.00004  -0.00004   1.87611
    D1        3.14101   0.00000   0.00000   0.00019   0.00019   3.14121
    D2       -3.14157   0.00000   0.00000   0.00005   0.00005  -3.14151
    D3       -3.14061  -0.00000   0.00000   0.00008   0.00008  -3.14053
    D4       -1.06011  -0.00002   0.00000   0.00015   0.00015  -1.05996
    D5        1.06177   0.00002   0.00000   0.00025   0.00025   1.06201
    D6        3.14008   0.00002   0.00000   0.00024   0.00024   3.14032
    D7        1.02932  -0.00001   0.00000  -0.00001  -0.00001   1.02931
    D8       -1.03190  -0.00000   0.00000   0.00005   0.00005  -1.03185
    D9       -1.05296   0.00002   0.00000   0.00024   0.00024  -1.05273
   D10        3.11947  -0.00001   0.00000  -0.00002  -0.00002   3.11945
   D11        1.05825  -0.00000   0.00000   0.00004   0.00004   1.05830
   D12        1.05007   0.00002   0.00000   0.00022   0.00022   1.05028
   D13       -1.06069  -0.00001   0.00000  -0.00004  -0.00004  -1.06073
   D14       -3.12190  -0.00000   0.00000   0.00002   0.00002  -3.12188
         Item               Value     Threshold  Converged?
 Maximum Force            0.000053     0.000450     YES
 RMS     Force            0.000016     0.000300     YES
 Maximum Displacement     0.000507     0.001800     YES
 RMS     Displacement     0.000185     0.001200     YES
 Predicted change in Energy=-2.109968D-08
 Optimization completed.
    -- Stationary point found.
                           ----------------------------
                           !   Optimized Parameters   !
                           ! (Angstroms and Degrees)  !
 --------------------------                            --------------------------
 ! Name  Definition              Value          Derivative Info.                !
 --------------------------------------------------------------------------------
 ! R1    R(1,2)                  1.3451         -DE/DX =    0.0                 !
 ! R2    R(1,10)                 1.3005         -DE/DX =    0.0                 !
 ! R3    R(2,4)                  1.376          -DE/DX =    0.0                 !
 ! R4    R(3,4)                  1.5441         -DE/DX =    0.0                 !
 ! R5    R(3,5)                  1.325          -DE/DX =    0.0                 !
 ! R6    R(3,8)                  1.3242         -DE/DX =    0.0                 !
 ! R7    R(3,9)                  1.3242         -DE/DX =    0.0                 !
 ! R8    R(4,6)                  1.3308         -DE/DX =    0.0                 !
 ! R9    R(4,7)                  1.3308         -DE/DX =    0.0                 !
 ! R10   R(10,11)                0.963          -DE/DX =    0.0                 !
 ! A1    A(2,1,10)             103.8315         -DE/DX =    0.0                 !
 ! A2    A(1,2,4)              114.8298         -DE/DX =    0.0                 !
 ! A3    A(4,3,5)              109.3468         -DE/DX =    0.0                 !
 ! A4    A(4,3,8)              110.154          -DE/DX =    0.0                 !
 ! A5    A(4,3,9)              110.1473         -DE/DX =    0.0                 !
 ! A6    A(5,3,8)              108.9944         -DE/DX =    0.0                 !
 ! A7    A(5,3,9)              108.991          -DE/DX =    0.0                 !
 ! A8    A(8,3,9)              109.1816         -DE/DX =    0.0                 !
 ! A9    A(2,4,3)              107.5078         -DE/DX =    0.0                 !
 ! A10   A(2,4,6)              111.5386         -DE/DX =    0.0001              !
 ! A11   A(2,4,7)              111.558          -DE/DX =    0.0                 !
 ! A12   A(3,4,6)              108.8068         -DE/DX =    0.0                 !
 ! A13   A(3,4,7)              108.8119         -DE/DX =    0.0                 !
 ! A14   A(6,4,7)              108.5467         -DE/DX =    0.0                 !
 ! A15   A(1,10,11)            107.4956         -DE/DX =    0.0                 !
 ! D1    D(10,1,2,4)           179.9669         -DE/DX =    0.0                 !
 ! D2    D(2,1,10,11)         -179.9984         -DE/DX =    0.0                 !
 ! D3    D(1,2,4,3)           -179.9439         -DE/DX =    0.0                 !
 ! D4    D(1,2,4,6)            -60.74           -DE/DX =    0.0                 !
 ! D5    D(1,2,4,7)             60.8347         -DE/DX =    0.0                 !
 ! D6    D(5,3,4,2)            179.913          -DE/DX =    0.0                 !
 ! D7    D(5,3,4,6)             58.9756         -DE/DX =    0.0                 !
 ! D8    D(5,3,4,7)            -59.1232         -DE/DX =    0.0                 !
 ! D9    D(8,3,4,2)            -60.3302         -DE/DX =    0.0                 !
 ! D10   D(8,3,4,6)            178.7324         -DE/DX =    0.0                 !
 ! D11   D(8,3,4,7)             60.6335         -DE/DX =    0.0                 !
 ! D12   D(9,3,4,2)             60.1645         -DE/DX =    0.0                 !
 ! D13   D(9,3,4,6)            -60.7729         -DE/DX =    0.0                 !
 ! D14   D(9,3,4,7)           -178.8718         -DE/DX =    0.0                 !
 --------------------------------------------------------------------------------
 GradGradGradGradGradGradGradGradGradGradGradGradGradGradGradGradGradGrad

 Leave Link  103 at Sat May 24 05:10:42 2025, MaxMem=  3758096384 cpu:               0.0 elap:               0.0
 (Enter /apps/easybuild-2022/easybuild/software/Compiler/NVHPC/22.11-CUDA-11.7.0/Gaussian/g16c01-CUDA-11.7.0/g16/l9999.exe)

 ----------------------------------------------------------------------

 Electric dipole moment (input orientation):
 (Debye = 10**-18 statcoulomb cm , SI units = C m)
                  (au)            (Debye)         (10**-30 SI)
   Tot        0.977462D+00      0.248446D+01      0.828727D+01
   x         -0.738276D+00     -0.187651D+01     -0.625937D+01
   y         -0.640506D+00     -0.162800D+01     -0.543044D+01
   z          0.115150D-01      0.292683D-01      0.976286D-01

 Dipole polarizability, Alpha (input orientation).
 (esu units = cm**3 , SI units = C**2 m**2 J**-1)
 Alpha(0;0):
               (au)            (10**-24 esu)      (10**-40 SI)
   iso        0.465689D+02      0.690080D+01      0.767818D+01
   aniso      0.173158D+02      0.256594D+01      0.285499D+01
   xx         0.517207D+02      0.766421D+01      0.852758D+01
   yx         0.805807D+01      0.119408D+01      0.132860D+01
   yy         0.478332D+02      0.708815D+01      0.788663D+01
   zx        -0.599373D+00     -0.888180D-01     -0.988233D-01
   zy         0.411549D-01      0.609853D-02      0.678553D-02
   zz         0.401529D+02      0.595004D+01      0.662031D+01

 ----------------------------------------------------------------------

 Dipole orientation:
     6          0.05418296         -0.23277014         -0.03530756
     8          0.74659618         -1.67255838         -2.01235886
     6          1.15950092         -2.53818067         -6.36220641
     6          0.24817842         -0.63704602         -4.34491112
     9          0.70773621         -1.60808638         -8.64270753
     9         -2.21241290         -0.22981061         -4.66759213
     9          1.46834034          1.53776226         -4.67028138
     9          3.61716289         -2.94121623         -6.11919293
     9         -0.05842767         -4.70980161         -6.11252255
     8          0.69768211         -1.57313439          1.92159029
     1          0.24207534         -0.62597678          3.40728258

 Electric dipole moment (dipole orientation):
 (Debye = 10**-18 statcoulomb cm , SI units = C m)
                  (au)            (Debye)         (10**-30 SI)
   Tot        0.977462D+00      0.248446D+01      0.828727D+01
   x          0.000000D+00      0.000000D+00      0.000000D+00
   y          0.000000D+00      0.000000D+00      0.000000D+00
   z          0.977462D+00      0.248446D+01      0.828727D+01

 Dipole polarizability, Alpha (dipole orientation).
 (esu units = cm**3 , SI units = C**2 m**2 J**-1)
 Alpha(0;0):
               (au)            (10**-24 esu)      (10**-40 SI)
   iso        0.465689D+02      0.690080D+01      0.767818D+01
   aniso      0.173158D+02      0.256594D+01      0.285499D+01
   xx         0.403275D+02      0.597592D+01      0.664910D+01
   yx        -0.624546D+00     -0.925482D-01     -0.102974D+00
   yy         0.413430D+02      0.612641D+01      0.681655D+01
   zx        -0.356643D+00     -0.528491D-01     -0.588026D-01
   zy         0.739286D+00      0.109551D+00      0.121892D+00
   zz         0.580362D+02      0.860008D+01      0.956888D+01

 ----------------------------------------------------------------------
 Unable to Open any file for archive entry.
 1\1\GINC-SPARTAN-BM199\Freq\RM062X\def2TZVPP\C3H1F5O2\AKHALILOV\24-May
 -2025\0\\#P Geom=AllCheck Guess=TCheck SCRF=Check GenChk RM062X/def2TZ
 VPP Freq\\Gaussian input prepared by ASE\\0,1\C,0.0868716648,-0.072684
 7039,-0.0592784277\O,1.409585256,-0.0049268759,-0.2941106404\C,3.46753
 55438,1.132857691,-0.4563550203\C,1.9587887647,1.2483379207,-0.1487922
 745\F,4.0339908622,2.3238864613,-0.328619951\F,1.4144183342,2.12121142
 38,-0.9930585889\F,1.8074988732,1.7077680703,1.0909908621\F,4.04198477
 57,0.289646979,0.3877001456\F,3.6487667178,0.7000650529,-1.6946121249\
 O,-0.1997890661,-1.326102545,-0.2546608282\H,-1.1439357708,-1.43483342
 64,-0.099066128\\Version=ES64L-G16RevC.01\HF=-764.6021361\RMSD=1.053e-
 09\RMSF=1.888e-05\ZeroPoint=0.051905\Thermal=0.0608234\ETot=-764.54131
 27\HTot=-764.5403685\GTot=-764.5850732\Dipole=-0.7382762,-0.6405063,0.
 011515\DipoleDeriv=1.3212077,0.7570767,-0.1297951,0.5940109,1.0707476,
 0.1356105,-0.1620416,0.1047131,-0.1200636,-1.8055037,-0.9986745,0.1104
 333,-0.2629968,-0.7695962,-0.0709089,0.2564721,0.0669217,-0.1969541,1.
 4597044,0.1340853,0.0581739,0.0501849,1.6316488,-0.0088302,0.0413002,-
 0.0245595,1.614017,1.323688,0.1729648,0.0581809,0.4981271,1.7384964,-0
 .0360898,0.1225464,0.0251724,1.4312398,-0.5322639,-0.3332245,-0.017305
 ,-0.2558132,-0.7905296,-0.0531448,-0.0018096,-0.0386689,-0.2821681,-0.
 4238647,0.1694891,-0.1673631,0.0224829,-0.6338542,0.2717325,-0.0844165
 ,0.2623416,-0.4932666,-0.3511856,0.008364,0.1053637,-0.0911438,-0.4254
 925,-0.2130409,-0.0264453,-0.2499433,-0.7747063,-0.5186597,0.1893654,-
 0.2009744,0.1615257,-0.5154063,0.2518928,-0.1419452,0.23323,-0.5165912
 ,-0.3946376,0.0299621,0.1605701,0.020685,-0.3367351,-0.1869112,0.09427
 53,-0.1751762,-0.8190512,-0.4849427,-0.2528469,0.0170852,-0.8277101,-1
 .3286557,-0.0837633,-0.0971287,-0.1913852,-0.1467521,0.4064578,0.12343
 85,0.0056306,0.0906473,0.3593767,-0.0065468,-0.0008071,-0.0126457,0.30
 42965\Polar=51.7206571,8.058071,47.8331978,-0.5993735,0.0411549,40.152
 8565\PG=Unknown\NImag=0\\0.41175991,0.04264258,0.54581339,-0.06541917,
 0.09703410,0.04950307,-0.27141839,0.05371904,0.06182066,0.46418257,0.0
 6495198,-0.08158853,-0.02861146,0.11775387,0.44183326,0.06406857,-0.02
 653667,-0.01610603,-0.04708607,0.04768367,0.10769934,-0.00983514,-0.00
 475322,0.00116781,0.00096994,-0.00643073,-0.00138362,0.65226481,0.0001
 1138,-0.00495849,-0.00127891,-0.04266514,-0.01442782,0.00507768,-0.004
 51517,0.60353044,0.00215463,-0.00036437,0.00095480,-0.00860043,-0.0017
 4992,0.00173294,-0.01009080,0.00091411,0.60644728,-0.02682696,-0.05675
 738,-0.00938316,-0.14259527,-0.04529099,0.00464304,-0.22352664,0.01118
 926,0.03759078,0.65589961,-0.07682279,-0.02913589,0.01198017,-0.020267
 55,-0.20606689,-0.02302061,0.01000329,-0.04173339,-0.00300714,-0.00998
 729,0.56593938,-0.01333820,0.00823464,-0.01267485,0.00961204,-0.018306
 41,-0.07599316,0.03731019,-0.00326212,-0.04372462,-0.01664058,-0.00060
 418,0.58226731,0.00555307,0.00049862,-0.00094519,-0.01744737,-0.002052
 10,0.00300094,-0.15680040,-0.10086983,-0.00464986,-0.00836164,-0.04528
 602,-0.00696431,0.14355399,0.00386201,0.00073144,-0.00056980,-0.008941
 93,0.00053254,0.00165502,-0.11412340,-0.25044067,-0.01277232,-0.004356
 97,-0.02697435,-0.00486950,0.14486522,0.38251046,-0.00029668,0.0000589
 9,0.00002574,0.00166673,0.00036287,0.00041688,-0.00723633,-0.01527110,
 -0.07784781,0.00108170,0.00284963,0.00237879,0.01715733,0.03158527,0.0
 8602071,-0.00519945,-0.00155386,0.00449128,0.02118543,-0.00453578,0.00
 429714,-0.00772811,0.03140082,-0.03325898,-0.14622117,0.07098660,-0.06
 154317,-0.00069051,-0.00128279,0.00124673,0.13713952,0.01957319,0.0025
 4669,-0.00009997,-0.00614919,-0.06666367,0.03487321,0.00579984,-0.0168
 9299,0.01939142,0.07824043,-0.17095351,0.08695287,0.00140224,0.0062354
 7,-0.00220138,-0.09823660,0.23407714,-0.00672356,-0.00067350,0.0021122
 9,0.00698534,0.02272055,0.00278603,-0.00306975,0.01095878,-0.01062278,
 -0.06914114,0.08758699,-0.15060475,0.00008112,-0.00159722,0.00176984,0
 .09773903,-0.14817932,0.22387415,-0.00235216,0.00023228,-0.00295986,0.
 01271719,-0.01242826,-0.01683756,0.00542494,0.01254398,0.03336379,-0.0
 9862544,0.01509540,0.04506704,-0.00059424,-0.00009667,-0.00027587,0.01
 345267,-0.00169232,-0.02435167,0.07864028,0.01409594,0.00329136,-0.005
 46841,-0.01707155,-0.03740468,-0.04815603,-0.00133004,-0.00414250,-0.0
 1485405,0.01872472,-0.10227511,-0.07556876,0.00203693,0.00434355,0.002
 51226,-0.00111230,0.01549745,0.02754744,-0.01487621,0.12331103,0.01519
 007,0.00167240,-0.00145683,-0.02076989,-0.03717193,-0.01790715,-0.0046
 7094,-0.01386554,-0.03653547,0.05485348,-0.07416299,-0.26766241,0.0018
 6591,0.00283387,0.00367627,-0.01300639,0.01251235,-0.07659549,-0.04128
 428,0.11456199,0.39372474,0.00333449,0.00170437,0.00024515,-0.00511806
 ,-0.00124515,0.00152746,-0.15886246,0.07678658,-0.06786192,-0.00593166
 ,0.03028908,-0.03387492,0.02185061,-0.00491458,0.00719653,-0.01319228,
 0.00528918,-0.00232209,-0.00088404,-0.00071469,0.00354366,0.14450316,-
 0.00032567,0.00034830,-0.00007040,0.00174544,0.00326179,-0.00223261,0.
 08506397,-0.16812853,0.08587304,0.00366762,-0.01256834,0.01834268,0.00
 915976,-0.07443167,0.03643844,0.00528716,-0.00055069,0.00013337,0.0000
 5865,0.00155668,-0.00146225,-0.10292490,0.23405298,0.00042620,0.000170
 35,-0.00001366,-0.00061979,-0.00080567,0.00187598,-0.07791536,0.088149
 14,-0.15897903,-0.00133690,0.01014741,-0.01006752,0.00230345,0.0276406
 5,0.00502218,-0.00239014,-0.00017822,0.00131634,-0.00071929,-0.0003783
 4,0.00641088,0.10563411,-0.15091892,0.23199420,0.00276908,0.00173489,-
 0.00064707,-0.00438489,-0.00070251,0.00079027,-0.10483869,0.01860606,0
 .05249194,0.00654617,0.01192183,0.03357829,0.01487971,-0.01397905,-0.0
 2070446,-0.00089583,-0.00008649,-0.00078450,-0.00913387,0.00285298,0.0
 0799014,0.01502743,-0.00220078,-0.02518168,0.08051386,0.00013997,0.000
 45509,0.00020040,0.00155918,0.00205671,0.00171741,0.02283149,-0.100993
 52,-0.07173300,-0.00196640,-0.00122882,-0.01246676,-0.00673045,-0.0410
 0670,-0.05661165,-0.00060202,0.00161415,-0.00051941,0.00273836,0.00018
 811,-0.00156019,-0.00207367,0.01557559,0.02665431,-0.01623656,0.122883
 33,-0.00155318,-0.00072750,0.00043337,0.00397022,0.00127673,0.00236955
 ,0.06502828,-0.07161951,-0.28092713,-0.00697539,-0.01192098,-0.0339220
 1,-0.01161184,-0.04380202,-0.02148519,0.00355574,-0.00156929,0.0063579
 0,0.00803069,-0.00126050,-0.00350694,-0.01352133,0.01388101,-0.0774952
 6,-0.04749691,0.11420428,0.40805050,-0.08989162,-0.03809804,0.01065892
 ,-0.06731060,-0.10731384,-0.01278207,0.00401962,-0.00234398,-0.0013139
 2,-0.00880390,0.01698843,0.00665650,-0.00240654,-0.00138007,0.00018897
 ,0.00196623,-0.00485301,0.00184105,0.00101694,-0.00331033,-0.00414424,
 -0.00103657,0.00045172,-0.00021612,-0.00077811,0.00032075,0.00074437,0
 .66935619,-0.01958334,-0.42806175,-0.08300703,-0.07722731,-0.03157226,
 0.01259718,0.00782775,-0.00130593,-0.00164866,0.00981180,0.02425412,0.
 00123446,-0.00299688,-0.00149657,0.00026577,-0.00091170,-0.00499024,0.
 00198367,-0.00206326,-0.00436214,-0.00314148,-0.00237407,0.00088794,-0
 .00051191,-0.00205414,0.00041066,0.00156979,0.15129416,0.48853346,0.01
 430422,-0.07950465,-0.01127914,-0.00679657,0.01820515,-0.01695953,0.00
 071229,0.00027252,-0.00055135,0.00524324,-0.00009845,0.00770550,-0.000
 13844,-0.00004367,0.00004701,-0.00112496,-0.00103478,-0.00038127,-0.00
 014659,0.00084154,-0.00006483,-0.00046341,-0.00010045,0.00003363,-0.00
 004051,0.00017804,0.00025883,-0.09098175,0.06388334,0.05458782,-0.0178
 9283,0.00063073,0.00097063,0.00921944,-0.00270648,-0.00023809,-0.00108
 787,-0.00024396,0.00017476,-0.00155310,-0.00292099,0.00013712,0.000463
 30,0.00034824,-0.00002464,0.00018351,0.00071273,-0.00025383,0.00033772
 ,0.00070455,0.00043249,0.00030937,0.00001703,0.00001552,0.00029515,0.0
 0001935,-0.00017066,-0.50613164,-0.06172301,0.07943249,0.51585694,-0.0
 4864524,-0.00944162,0.00989131,-0.00245486,-0.00996046,-0.00365824,-0.
 00037377,-0.00050661,-0.00004911,-0.00327482,0.00074279,0.00031309,-0.
 00002749,-0.00000350,0.00001090,0.00056047,0.00008018,0.00003864,0.000
 48806,-0.00000377,-0.00021623,0.00017785,-0.00000405,0.00003120,0.0001
 4377,0.00004540,-0.00003201,-0.01175578,-0.04229730,-0.00259857,0.0651
 6182,0.06134892,-0.00881290,0.00063623,-0.01149876,-0.00018224,-0.0036
 0359,0.01008515,0.00014823,-0.00007504,0.00005317,0.00006493,0.0002501
 4,0.00229770,-0.00009911,-0.00006028,-0.00002443,-0.00000628,-0.000466
 89,-0.00001226,0.00011360,0.00022287,-0.00008279,-0.00010324,0.0001161
 1,-0.00009774,0.00000449,-0.00006342,-0.00013361,0.08934830,0.00677487
 ,-0.03339667,-0.08047579,-0.00373099,0.03281024\\-0.00000270,-0.000041
 78,-0.00000948,-0.00003400,0.00003994,-0.00002084,0.00000887,0.0000039
 7,0.00000831,0.00003685,0.00000239,0.00002345,0.00000234,-0.00000333,0
 .00000374,-0.00001130,-0.00004456,0.00001265,-0.00000136,-0.00000290,0
 .00000127,0.00000338,0.00000124,-0.00000785,-0.00000258,0.00000325,-0.
 00000656,0.00001203,0.00004374,-0.00000287,-0.00001155,-0.00000197,-0.
 00000182\\\@
 The archive entry for this job was punched.


 THERE IS MUCH PLEASURE TO BE GAINED FROM USELESS KNOWLEDGE

                                       -- BERTRAND RUSSELL
 Job cpu time:       0 days  0 hours 24 minutes 14.0 seconds.
 Elapsed time:       0 days  0 hours  3 minutes 12.7 seconds.
 File lengths (MBytes):  RWF=    116 Int=      0 D2E=      0 Chk=      9 Scr=      1
 Normal termination of Gaussian 16 at Sat May 24 05:10:42 2025.
done
