11
energy = 0
C 2.25325671 1.05734840 -0.21804759
O 1.59561912 1.33724487 -1.22065670
C 1.43455128 0.00001973 0.21129382
C 1.88867175 -1.01537652 1.25981327
F 2.87653810 -1.79697237 0.80739685
F 2.34118811 -0.46361427 2.35434485
F 0.92850069 -1.84448706 1.63057306
F 0.38632253 2.33640968 -0.13963271
F 0.26699707 -0.18507821 -0.29040995
O 3.37361408 1.60526999 0.26031760
H 3.54367556 2.41551877 -0.23707249
11
energy = 0
C 2.34138299 1.21933542 -0.09258759
O 1.87833624 2.17739539 0.52689830
C 1.90361856 -0.11484857 -0.06305982
C 1.63157164 -0.88611396 1.22836889
F 2.09204390 -2.13961518 1.13807875
F 2.20965060 -0.37268806 2.28166388
F 0.34668589 -1.01179754 1.51136618
F 0.45729386 1.35617170 1.49414746
F 1.82028308 -0.78961247 -1.15250895
O 3.07129537 1.52582038 -1.16848084
H 3.13677286 2.48223590 -1.28596625
11
energy = 0
C 2.41708026 1.12610164 -0.12612906
O 1.99551881 1.48605117 0.97331456
C 1.96687570 -0.20131739 -0.03763530
C 1.74941050 -0.89903602 1.30495386
F 1.78334554 -2.22909406 1.15919237
F 2.66056122 -0.61927826 2.19868299
F 0.57485981 -0.63333242 1.84960749
F 0.26783960 1.73083605 0.20875857
F 1.75079683 -0.94223664 -1.06403644
O 2.94509100 1.84761316 -1.11853890
H 2.77755574 2.77997578 -0.93025014
