 Entering Gaussian System, Link 0=g16
 Initial command:
 /apps/easybuild-2022/easybuild/software/Compiler/NVHPC/22.11-CUDA-11.7.0/Gaussian/g16c01-CUDA-11.7.0/g16/l1.exe "/tmp/Gau-4433.inp" -scrdir="/tmp/"
 Entering Link 1 = /apps/easybuild-2022/easybuild/software/Compiler/NVHPC/22.11-CUDA-11.7.0/Gaussian/g16c01-CUDA-11.7.0/g16/l1.exe PID=      4434.
  
 Copyright (c) 1988-2019, Gaussian, Inc.  All Rights Reserved.
  
 This is part of the Gaussian(R) 16 program.  It is based on
 the Gaussian(R) 09 system (copyright 2009, Gaussian, Inc.),
 the Gaussian(R) 03 system (copyright 2003, Gaussian, Inc.),
 the Gaussian(R) 98 system (copyright 1998, Gaussian, Inc.),
 the Gaussian(R) 94 system (copyright 1995, Gaussian, Inc.),
 the Gaussian 92(TM) system (copyright 1992, Gaussian, Inc.),
 the Gaussian 90(TM) system (copyright 1990, Gaussian, Inc.),
 the Gaussian 88(TM) system (copyright 1988, Gaussian, Inc.),
 the Gaussian 86(TM) system (copyright 1986, Carnegie Mellon
 University), and the Gaussian 82(TM) system (copyright 1983,
 Carnegie Mellon University). Gaussian is a federally registered
 trademark of Gaussian, Inc.
  
 This software contains proprietary and confidential information,
 including trade secrets, belonging to Gaussian, Inc.
  
 This software is provided under written license and may be
 used, copied, transmitted, or stored only in accord with that
 written license.
  
 The following legend is applicable only to US Government
 contracts under FAR:
  
                    RESTRICTED RIGHTS LEGEND
  
 Use, reproduction and disclosure by the US Government is
 subject to restrictions as set forth in subparagraphs (a)
 and (c) of the Commercial Computer Software - Restricted
 Rights clause in FAR 52.227-19.
  
 Gaussian, Inc.
 340 Quinnipiac St., Bldg. 40, Wallingford CT 06492
  
  
 ---------------------------------------------------------------
 Warning -- This program may not be used in any manner that
 competes with the business of Gaussian, Inc. or will provide
 assistance to any competitor of Gaussian, Inc.  The licensee
 of this program is prohibited from giving any competitor of
 Gaussian, Inc. access to this program.  By using this program,
 the user acknowledges that Gaussian, Inc. is engaged in the
 business of creating and licensing software in the field of
 computational chemistry and represents and warrants to the
 licensee that it is not a competitor of Gaussian, Inc. and that
 it will not use this program in any manner prohibited above.
 ---------------------------------------------------------------
  

 Cite this work as:
 Gaussian 16, Revision C.01,
 M. J. Frisch, G. W. Trucks, H. B. Schlegel, G. E. Scuseria, 
 M. A. Robb, J. R. Cheeseman, G. Scalmani, V. Barone, 
 G. A. Petersson, H. Nakatsuji, X. Li, M. Caricato, A. V. Marenich, 
 J. Bloino, B. G. Janesko, R. Gomperts, B. Mennucci, H. P. Hratchian, 
 J. V. Ortiz, A. F. Izmaylov, J. L. Sonnenberg, D. Williams-Young, 
 F. Ding, F. Lipparini, F. Egidi, J. Goings, B. Peng, A. Petrone, 
 T. Henderson, D. Ranasinghe, V. G. Zakrzewski, J. Gao, N. Rega, 
 G. Zheng, W. Liang, M. Hada, M. Ehara, K. Toyota, R. Fukuda, 
 J. Hasegawa, M. Ishida, T. Nakajima, Y. Honda, O. Kitao, H. Nakai, 
 T. Vreven, K. Throssell, J. A. Montgomery, Jr., J. E. Peralta, 
 F. Ogliaro, M. J. Bearpark, J. J. Heyd, E. N. Brothers, K. N. Kudin, 
 V. N. Staroverov, T. A. Keith, R. Kobayashi, J. Normand, 
 K. Raghavachari, A. P. Rendell, J. C. Burant, S. S. Iyengar, 
 J. Tomasi, M. Cossi, J. M. Millam, M. Klene, C. Adamo, R. Cammi, 
 J. W. Ochterski, R. L. Martin, K. Morokuma, O. Farkas, 
 J. B. Foresman, and D. J. Fox, Gaussian, Inc., Wallingford CT, 2019.
 
 ******************************************
 Gaussian 16:  ES64L-G16RevC.01  3-Jul-2019
                24-May-2025 
 ******************************************
 %mem=28GB
 %nprocshared=8
 Will use up to    8 processors via shared memory.
 ----------------------------------------------------------------------
 #P M062X/Def2TZVPP Symm(None) scf(xqc) pop(None) opt(NoFreeze,TS,CalcA
 ll,NoEigentest,MaxCycle=999)
 ----------------------------------------------------------------------
 1/5=1,6=999,10=4,11=1,18=20,26=3,29=2000,38=1/1,3;
 2/9=110,12=2,15=3,17=6,18=5,40=1/2;
 3/5=44,7=202,11=2,25=1,30=1,71=2,74=-55,140=1/1,2,3;
 4//1;
 5/5=2,8=3,13=1,38=5/2,8;
 8/6=4,10=90,11=11/1;
 11/6=1,8=1,9=11,15=111,16=1,31=1/1,2,10;
 10/6=1,31=1/2;
 7/10=1,25=1,30=1/1,2,3,16;
 1/5=1,6=999,10=4,11=1,18=20,26=3/3(3);
 2/9=110,15=3/2;
 7/8=1,9=1,25=1,30=1,44=-1/16;
 99//99;
 2/9=110,15=3/2;
 3/5=44,7=202,11=2,25=1,30=1,71=2,74=-55,140=1/1,2,3;
 4/5=5,16=3,69=1/1;
 5/5=2,8=3,13=1,38=5/2,8;
 8/6=4,10=90,11=11/1;
 11/6=1,8=1,9=11,15=111,16=1,31=1/1,2,10;
 10/6=1,31=1/2;
 7/10=1,25=1,30=1/1,2,3,16;
 1/5=1,6=999,10=4,11=1,18=20,26=3/3(-8);
 2/9=110,15=3/2;
 7/8=1,9=1,25=1,30=1,44=-1/16;
 99//99;
 Leave Link    1 at Sat May 24 05:07:17 2025, MaxMem=  3758096384 cpu:               0.0 elap:               0.0
 (Enter /apps/easybuild-2022/easybuild/software/Compiler/NVHPC/22.11-CUDA-11.7.0/Gaussian/g16c01-CUDA-11.7.0/g16/l101.exe)
 ------------------------------
 Gaussian input prepared by ASE
 ------------------------------
 Symbolic Z-matrix:
 Charge =  0 Multiplicity = 1
 C                     1.55504   0.        0. 
 O                     2.14778  -0.84883   0.67282 
 C                     0.        0.        0. 
 C                     1.5889   -0.41545  -1.66503 
 F                     1.11366  -1.6371   -1.87154 
 F                     0.95036   0.42575  -2.48007 
 F                     2.86986  -0.39126  -1.95815 
 F                    -0.62631  -1.08383   0.14663 
 F                    -0.7284    0.90892  -0.49213 
 O                     1.92653   1.3467    0. 
 H                     2.00991   1.56525  -0.93549 
 
 ITRead=  0  0  0  0  0  0  0  0  0  0  0
 MicOpt= -1 -1 -1 -1 -1 -1 -1 -1 -1 -1 -1
 NAtoms=     11 NQM=       11 NQMF=       0 NMMI=      0 NMMIF=      0
                NMic=       0 NMicF=      0.
                    Isotopes and Nuclear Properties:
 (Nuclear quadrupole moments (NQMom) in fm**2, nuclear magnetic moments (NMagM)
  in nuclear magnetons)

  Atom         1           2           3           4           5           6           7           8           9          10
 IAtWgt=          12          16          12          12          19          19          19          19          19          16
 AtmWgt=  12.0000000  15.9949146  12.0000000  12.0000000  18.9984032  18.9984032  18.9984032  18.9984032  18.9984032  15.9949146
 NucSpn=           0           0           0           0           1           1           1           1           1           0
 AtZEff=  -0.0000000  -0.0000000  -0.0000000  -0.0000000  -0.0000000  -0.0000000  -0.0000000  -0.0000000  -0.0000000  -0.0000000
 NQMom=    0.0000000   0.0000000   0.0000000   0.0000000   0.0000000   0.0000000   0.0000000   0.0000000   0.0000000   0.0000000
 NMagM=    0.0000000   0.0000000   0.0000000   0.0000000   2.6288670   2.6288670   2.6288670   2.6288670   2.6288670   0.0000000
 AtZNuc=   6.0000000   8.0000000   6.0000000   6.0000000   9.0000000   9.0000000   9.0000000   9.0000000   9.0000000   8.0000000

  Atom        11
 IAtWgt=           1
 AtmWgt=   1.0078250
 NucSpn=           1
 AtZEff=  -0.0000000
 NQMom=    0.0000000
 NMagM=    2.7928460
 AtZNuc=   1.0000000
 Leave Link  101 at Sat May 24 05:07:17 2025, MaxMem=  3758096384 cpu:               0.2 elap:               0.2
 (Enter /apps/easybuild-2022/easybuild/software/Compiler/NVHPC/22.11-CUDA-11.7.0/Gaussian/g16c01-CUDA-11.7.0/g16/l103.exe)

 GradGradGradGradGradGradGradGradGradGradGradGradGradGradGradGradGradGrad
 Berny optimization.
 Initialization pass.
                           ----------------------------
                           !    Initial Parameters    !
                           ! (Angstroms and Degrees)  !
 --------------------------                            --------------------------
 ! Name  Definition              Value          Derivative Info.                !
 --------------------------------------------------------------------------------
 ! R1    R(1,2)                  1.2347         calculate D2E/DX2 analytically  !
 ! R2    R(1,3)                  1.555          calculate D2E/DX2 analytically  !
 ! R3    R(1,4)                  1.7164         calculate D2E/DX2 analytically  !
 ! R4    R(1,10)                 1.397          calculate D2E/DX2 analytically  !
 ! R5    R(3,8)                  1.2603         calculate D2E/DX2 analytically  !
 ! R6    R(3,9)                  1.2645         calculate D2E/DX2 analytically  !
 ! R7    R(4,5)                  1.327          calculate D2E/DX2 analytically  !
 ! R8    R(4,6)                  1.334          calculate D2E/DX2 analytically  !
 ! R9    R(4,7)                  1.3143         calculate D2E/DX2 analytically  !
 ! R10   R(10,11)                0.9643         calculate D2E/DX2 analytically  !
 ! A1    A(2,1,3)              118.6891         calculate D2E/DX2 analytically  !
 ! A2    A(2,1,4)              110.6546         calculate D2E/DX2 analytically  !
 ! A3    A(2,1,10)             122.3481         calculate D2E/DX2 analytically  !
 ! A4    A(3,1,4)               91.1301         calculate D2E/DX2 analytically  !
 ! A5    A(3,1,10)             105.4216         calculate D2E/DX2 analytically  !
 ! A6    A(4,1,10)             103.1844         calculate D2E/DX2 analytically  !
 ! A7    A(1,3,8)              119.7977         calculate D2E/DX2 analytically  !
 ! A8    A(1,3,9)              125.1732         calculate D2E/DX2 analytically  !
 ! A9    A(8,3,9)              112.158          calculate D2E/DX2 analytically  !
 ! A10   A(1,4,5)              111.514          calculate D2E/DX2 analytically  !
 ! A11   A(1,4,6)              115.5058         calculate D2E/DX2 analytically  !
 ! A12   A(1,4,7)              103.3627         calculate D2E/DX2 analytically  !
 ! A13   A(5,4,6)              108.3011         calculate D2E/DX2 analytically  !
 ! A14   A(5,4,7)              109.3468         calculate D2E/DX2 analytically  !
 ! A15   A(6,4,7)              108.5814         calculate D2E/DX2 analytically  !
 ! A16   A(1,10,11)            103.9741         calculate D2E/DX2 analytically  !
 ! D1    D(2,1,3,8)            -30.6968         calculate D2E/DX2 analytically  !
 ! D2    D(2,1,3,9)            170.0315         calculate D2E/DX2 analytically  !
 ! D3    D(4,1,3,8)             83.6948         calculate D2E/DX2 analytically  !
 ! D4    D(4,1,3,9)            -75.5769         calculate D2E/DX2 analytically  !
 ! D5    D(10,1,3,8)          -172.2952         calculate D2E/DX2 analytically  !
 ! D6    D(10,1,3,9)            28.4331         calculate D2E/DX2 analytically  !
 ! D7    D(2,1,4,5)             54.4995         calculate D2E/DX2 analytically  !
 ! D8    D(2,1,4,6)            178.6968         calculate D2E/DX2 analytically  !
 ! D9    D(2,1,4,7)            -62.8645         calculate D2E/DX2 analytically  !
 ! D10   D(3,1,4,5)            -66.8709         calculate D2E/DX2 analytically  !
 ! D11   D(3,1,4,6)             57.3264         calculate D2E/DX2 analytically  !
 ! D12   D(3,1,4,7)            175.7651         calculate D2E/DX2 analytically  !
 ! D13   D(10,1,4,5)          -172.9994         calculate D2E/DX2 analytically  !
 ! D14   D(10,1,4,6)           -48.8022         calculate D2E/DX2 analytically  !
 ! D15   D(10,1,4,7)            69.6366         calculate D2E/DX2 analytically  !
 ! D16   D(2,1,10,11)          128.8037         calculate D2E/DX2 analytically  !
 ! D17   D(3,1,10,11)          -91.3627         calculate D2E/DX2 analytically  !
 ! D18   D(4,1,10,11)            3.5498         calculate D2E/DX2 analytically  !
 --------------------------------------------------------------------------------
 Trust Radius=3.00D-01 FncErr=1.00D-07 GrdErr=1.00D-06 EigMax=2.50D+02 EigMin=1.00D-04
 Number of steps in this run=    100 maximum allowed number of steps=    100.
 Search for a saddle point of order  1.
 GradGradGradGradGradGradGradGradGradGradGradGradGradGradGradGradGradGrad

 Leave Link  103 at Sat May 24 05:07:17 2025, MaxMem=  3758096384 cpu:               0.0 elap:               0.0
 (Enter /apps/easybuild-2022/easybuild/software/Compiler/NVHPC/22.11-CUDA-11.7.0/Gaussian/g16c01-CUDA-11.7.0/g16/l202.exe)
                          Input orientation:                          
 ---------------------------------------------------------------------
 Center     Atomic      Atomic             Coordinates (Angstroms)
 Number     Number       Type             X           Y           Z
 ---------------------------------------------------------------------
      1          6           0        1.555044    0.000000    0.000000
      2          8           0        2.147780   -0.848833    0.672816
      3          6           0        0.000000    0.000000    0.000000
      4          6           0        1.588898   -0.415450   -1.665034
      5          9           0        1.113656   -1.637098   -1.871544
      6          9           0        0.950364    0.425749   -2.480070
      7          9           0        2.869861   -0.391264   -1.958150
      8          9           0       -0.626313   -1.083830    0.146632
      9          9           0       -0.728401    0.908919   -0.492130
     10          8           0        1.926532    1.346696    0.000000
     11          1           0        2.009907    1.565253   -0.935485
 ---------------------------------------------------------------------
                    Distance matrix (angstroms):
                    1          2          3          4          5
     1  C    0.000000
     2  O    1.234720   0.000000
     3  C    1.555044   2.405444   0.000000
     4  C    1.716415   2.442480   2.338703   0.000000
     5  F    2.525389   2.857366   2.724517   1.326998   0.000000
     6  F    2.587981   3.605420   2.689833   1.334026   2.156920
     7  F    2.390853   2.766360   3.496218   1.314294   2.154961
     8  F    2.440186   2.833317   1.260340   2.938711   2.721513
     9  F    2.506481   3.566400   1.264474   2.915395   3.431932
    10  O    1.396994   2.306941   2.350557   2.447753   3.614757
    11  H    1.879375   2.904041   2.713831   2.152365   3.454638
                    6          7          8          9         10
     6  F    0.000000
     7  F    2.150437   0.000000
     8  F    3.415304   4.139201   0.000000
     9  F    2.646433   4.097215   2.095111   0.000000
    10  O    2.819893   2.782934   3.527886   2.735418   0.000000
    11  H    2.192452   2.369245   3.890794   2.850556   0.964288
                   11
    11  H    0.000000
 Symmetry turned off by external request.
 Stoichiometry    C3HF5O2
 Rotational constants (GHZ):           1.7682089           1.2687431           1.1983590
 Leave Link  202 at Sat May 24 05:07:17 2025, MaxMem=  3758096384 cpu:               0.0 elap:               0.0
 (Enter /apps/easybuild-2022/easybuild/software/Compiler/NVHPC/22.11-CUDA-11.7.0/Gaussian/g16c01-CUDA-11.7.0/g16/l301.exe)
 Standard basis: def2TZVPP (5D, 7F)
 Ernie: Thresh=  0.10000D-02 Tol=  0.10000D-05 Strict=F.
   324 basis functions,   527 primitive gaussians,   375 cartesian basis functions
    40 alpha electrons       40 beta electrons
       nuclear repulsion energy       644.1440553101 Hartrees.
 IExCor= 4336 DFT=T Ex+Corr=M062X ExCW=0 ScaHFX=  0.540000
 ScaDFX=  1.000000  1.000000  1.000000  1.000000 ScalE2=  1.000000  1.000000
 IRadAn=      5 IRanWt=     -1 IRanGd=            0 ICorTp=0 IEmpDi=  4
 NAtoms=   11 NActive=   11 NUniq=   11 SFac= 1.00D+00 NAtFMM=   60 NAOKFM=F Big=F
 Integral buffers will be    131072 words long.
 Raffenetti 2 integral format.
 Two-electron integral symmetry is turned off.
 Leave Link  301 at Sat May 24 05:07:17 2025, MaxMem=  3758096384 cpu:               0.0 elap:               0.0
 (Enter /apps/easybuild-2022/easybuild/software/Compiler/NVHPC/22.11-CUDA-11.7.0/Gaussian/g16c01-CUDA-11.7.0/g16/l302.exe)
 NPDir=0 NMtPBC=     1 NCelOv=     1 NCel=       1 NClECP=     1 NCelD=      1
         NCelK=      1 NCelE2=     1 NClLst=     1 CellRange=     0.0.
 One-electron integrals computed using PRISM.
   1 Symmetry operations used in ECPInt.
 ECPInt:  NShTT=    6786 NPrTT=   21959 LenC2=    6519 LenP2D=   16179.
 LDataN:  DoStor=T MaxTD1= 6 Len=  172
 NBasis=   324 RedAO= T EigKep=  3.19D-04  NBF=   324
 NBsUse=   324 1.00D-06 EigRej= -1.00D+00 NBFU=   324
 Precomputing XC quadrature grid using
 IXCGrd= 4 IRadAn=           5 IRanWt=          -1 IRanGd=           0 AccXCQ= 0.00D+00.
 Generated NRdTot=       0 NPtTot=           0 NUsed=           0 NTot=          32
 NSgBfM=   372   372   372   372   372 MxSgAt=    11 MxSgA2=    11.
 Leave Link  302 at Sat May 24 05:07:17 2025, MaxMem=  3758096384 cpu:               0.7 elap:               0.1
 (Enter /apps/easybuild-2022/easybuild/software/Compiler/NVHPC/22.11-CUDA-11.7.0/Gaussian/g16c01-CUDA-11.7.0/g16/l303.exe)
 DipDrv:  MaxL=1.
 Leave Link  303 at Sat May 24 05:07:17 2025, MaxMem=  3758096384 cpu:               0.1 elap:               0.0
 (Enter /apps/easybuild-2022/easybuild/software/Compiler/NVHPC/22.11-CUDA-11.7.0/Gaussian/g16c01-CUDA-11.7.0/g16/l401.exe)
 ExpMin= 9.52D-02 ExpMax= 3.55D+04 ExpMxC= 1.21D+03 IAcc=3 IRadAn=         5 AccDes= 0.00D+00
 Harris functional with IExCor= 1009 and IRadAn=       5 diagonalized for initial guess.
 HarFok:  IExCor= 1009 AccDes= 0.00D+00 IRadAn=         5 IDoV= 1 UseB2=F ITyADJ=14
 ICtDFT=  3500011 ScaDFX=  1.000000  1.000000  1.000000  1.000000
 FoFCou: FMM=F IPFlag=           0 FMFlag=      100000 FMFlg1=           0
         NFxFlg=           0 DoJE=T BraDBF=F KetDBF=T FulRan=T
         wScrn=  0.000000 ICntrl=       500 IOpCl=  0 I1Cent=   200000004 NGrid=           0
         NMat0=    1 NMatS0=      1 NMatT0=    0 NMatD0=    1 NMtDS0=    0 NMtDT0=    0
 Symmetry not used in FoFCou.
 Harris En= -764.131751633105    
 JPrj=0 DoOrth=F DoCkMO=F.
 Leave Link  401 at Sat May 24 05:07:18 2025, MaxMem=  3758096384 cpu:               3.1 elap:               0.4
 (Enter /apps/easybuild-2022/easybuild/software/Compiler/NVHPC/22.11-CUDA-11.7.0/Gaussian/g16c01-CUDA-11.7.0/g16/l502.exe)
 Keep R1 ints in memory in canonical form, NReq=1412617130.
 FoFCou: FMM=F IPFlag=           0 FMFlag=           0 FMFlg1=           0
         NFxFlg=           0 DoJE=F BraDBF=F KetDBF=F FulRan=T
         wScrn=  0.000000 ICntrl=       600 IOpCl=  0 I1Cent=           0 NGrid=           0
         NMat0=    1 NMatS0=  52650 NMatT0=    0 NMatD0=    1 NMtDS0=    0 NMtDT0=    0
 Symmetry not used in FoFCou.
 Two-electron integral symmetry not used.
 Closed shell SCF:
 Using DIIS extrapolation, IDIIS=  1040.
 NGot=  3758096384 LenX=  2371771924 LenY=  2371630858
 Requested convergence on RMS density matrix=1.00D-08 within  32 cycles.
 Requested convergence on MAX density matrix=1.00D-06.
 Requested convergence on             energy=1.00D-06.
 No special actions if energy rises.
 Integral accuracy reduced to 1.0D-05 until final iterations.

 Cycle   1  Pass 0  IDiag  1:
 E= -764.217504046801    
 DIIS: error= 1.97D-02 at cycle   1 NSaved=   1.
 NSaved= 1 IEnMin= 1 EnMin= -764.217504046801     IErMin= 1 ErrMin= 1.97D-02
 ErrMax= 1.97D-02  0.00D+00 EMaxC= 1.00D-01 BMatC= 4.79D-01 BMatP= 4.79D-01
 IDIUse=3 WtCom= 8.03D-01 WtEn= 1.97D-01
 Coeff-Com:  0.100D+01
 Coeff-En:   0.100D+01
 Coeff:      0.100D+01
 Gap=     0.069 Goal=   None    Shift=    0.000
 GapD=    0.069 DampG=0.500 DampE=0.500 DampFc=0.2500 IDamp=-1.
 Damping current iteration by 2.50D-01
 RMSDP=4.56D-03 MaxDP=2.22D-01              OVMax= 8.95D-01

 Cycle   2  Pass 0  IDiag  1:
 E= -764.243807247251     Delta-E=       -0.026303200450 Rises=F Damp=T
 DIIS: error= 1.05D-02 at cycle   2 NSaved=   2.
 NSaved= 2 IEnMin= 2 EnMin= -764.243807247251     IErMin= 2 ErrMin= 1.05D-02
 ErrMax= 1.05D-02  0.00D+00 EMaxC= 1.00D-01 BMatC= 9.52D-02 BMatP= 4.79D-01
 IDIUse=3 WtCom= 8.95D-01 WtEn= 1.05D-01
 Coeff-Com: -0.238D+00 0.124D+01
 Coeff-En:   0.428D+00 0.572D+00
 Coeff:     -0.168D+00 0.117D+01
 Gap=     0.033 Goal=   None    Shift=    0.000
 RMSDP=1.32D-03 MaxDP=6.19D-02 DE=-2.63D-02 OVMax= 8.47D-01

 Cycle   3  Pass 0  IDiag  1:
 E= -764.400734946168     Delta-E=       -0.156927698917 Rises=F Damp=F
 DIIS: error= 1.30D-02 at cycle   3 NSaved=   3.
 NSaved= 3 IEnMin= 3 EnMin= -764.400734946168     IErMin= 2 ErrMin= 1.05D-02
 ErrMax= 1.30D-02  0.00D+00 EMaxC= 1.00D-01 BMatC= 1.30D-01 BMatP= 9.52D-02
 IDIUse=2 WtCom= 0.00D+00 WtEn= 1.00D+00
 Coeff-En:   0.000D+00 0.000D+00 0.100D+01
 Coeff:      0.000D+00 0.000D+00 0.100D+01
 Gap=     0.108 Goal=   None    Shift=    0.000
 RMSDP=3.55D-03 MaxDP=1.82D-01 DE=-1.57D-01 OVMax= 8.10D-01

 Cycle   4  Pass 0  IDiag  1:
 E= -763.324940143868     Delta-E=        1.075794802300 Rises=F Damp=F
 DIIS: error= 4.28D-02 at cycle   4 NSaved=   4.
 NSaved= 4 IEnMin= 3 EnMin= -764.400734946168     IErMin= 2 ErrMin= 1.05D-02
 ErrMax= 4.28D-02  0.00D+00 EMaxC= 1.00D-01 BMatC= 1.19D+00 BMatP= 9.52D-02
 IDIUse=2 WtCom= 0.00D+00 WtEn= 1.00D+00
 Coeff-En:   0.000D+00 0.000D+00 0.884D+00 0.116D+00
 Coeff:      0.000D+00 0.000D+00 0.884D+00 0.116D+00
 Gap=     0.065 Goal=   None    Shift=    0.000
 RMSDP=2.49D-03 MaxDP=1.48D-01 DE= 1.08D+00 OVMax= 6.90D-01

 Cycle   5  Pass 0  IDiag  1:
 E= -764.459310324072     Delta-E=       -1.134370180204 Rises=F Damp=F
 DIIS: error= 8.11D-03 at cycle   5 NSaved=   5.
 NSaved= 5 IEnMin= 5 EnMin= -764.459310324072     IErMin= 5 ErrMin= 8.11D-03
 ErrMax= 8.11D-03  0.00D+00 EMaxC= 1.00D-01 BMatC= 7.56D-02 BMatP= 9.52D-02
 IDIUse=3 WtCom= 9.19D-01 WtEn= 8.11D-02
 Coeff-Com: -0.848D-01 0.168D+00 0.411D+00-0.327D-01 0.538D+00
 Coeff-En:   0.000D+00 0.000D+00 0.339D+00 0.000D+00 0.661D+00
 Coeff:     -0.779D-01 0.154D+00 0.405D+00-0.300D-01 0.548D+00
 Gap=     0.201 Goal=   None    Shift=    0.000
 RMSDP=7.20D-04 MaxDP=2.96D-02 DE=-1.13D+00 OVMax= 1.28D-01

 Cycle   6  Pass 0  IDiag  1:
 E= -764.513424982067     Delta-E=       -0.054114657995 Rises=F Damp=F
 DIIS: error= 1.29D-03 at cycle   6 NSaved=   6.
 NSaved= 6 IEnMin= 6 EnMin= -764.513424982067     IErMin= 6 ErrMin= 1.29D-03
 ErrMax= 1.29D-03  0.00D+00 EMaxC= 1.00D-01 BMatC= 1.62D-03 BMatP= 7.56D-02
 IDIUse=3 WtCom= 9.87D-01 WtEn= 1.29D-02
 Coeff-Com: -0.502D-01 0.674D-01 0.927D-01-0.155D-01 0.186D+00 0.719D+00
 Coeff-En:   0.000D+00 0.000D+00 0.000D+00 0.000D+00 0.000D+00 0.100D+01
 Coeff:     -0.496D-01 0.666D-01 0.915D-01-0.153D-01 0.184D+00 0.723D+00
 Gap=     0.206 Goal=   None    Shift=    0.000
 RMSDP=9.69D-05 MaxDP=3.87D-03 DE=-5.41D-02 OVMax= 1.03D-02

 Cycle   7  Pass 0  IDiag  1:
 E= -764.514492979793     Delta-E=       -0.001067997726 Rises=F Damp=F
 DIIS: error= 4.43D-04 at cycle   7 NSaved=   7.
 NSaved= 7 IEnMin= 7 EnMin= -764.514492979793     IErMin= 7 ErrMin= 4.43D-04
 ErrMax= 4.43D-04  0.00D+00 EMaxC= 1.00D-01 BMatC= 1.71D-04 BMatP= 1.62D-03
 IDIUse=3 WtCom= 9.96D-01 WtEn= 4.43D-03
 Coeff-Com: -0.191D-01 0.237D-01-0.154D-01-0.559D-04-0.387D-02 0.301D+00
 Coeff-Com:  0.714D+00
 Coeff-En:   0.000D+00 0.000D+00 0.000D+00 0.000D+00 0.000D+00 0.000D+00
 Coeff-En:   0.100D+01
 Coeff:     -0.191D-01 0.236D-01-0.153D-01-0.556D-04-0.385D-02 0.299D+00
 Coeff:      0.715D+00
 Gap=     0.206 Goal=   None    Shift=    0.000
 RMSDP=3.48D-05 MaxDP=1.80D-03 DE=-1.07D-03 OVMax= 3.61D-03

 Cycle   8  Pass 0  IDiag  1:
 E= -764.514626176896     Delta-E=       -0.000133197103 Rises=F Damp=F
 DIIS: error= 2.45D-04 at cycle   8 NSaved=   8.
 NSaved= 8 IEnMin= 8 EnMin= -764.514626176896     IErMin= 8 ErrMin= 2.45D-04
 ErrMax= 2.45D-04  0.00D+00 EMaxC= 1.00D-01 BMatC= 3.73D-05 BMatP= 1.71D-04
 IDIUse=3 WtCom= 9.98D-01 WtEn= 2.45D-03
 Coeff-Com: -0.857D-02 0.112D-01-0.145D-01 0.129D-02-0.140D-01 0.484D-01
 Coeff-Com:  0.242D+00 0.734D+00
 Coeff-En:   0.000D+00 0.000D+00 0.000D+00 0.000D+00 0.000D+00 0.000D+00
 Coeff-En:   0.000D+00 0.100D+01
 Coeff:     -0.855D-02 0.112D-01-0.145D-01 0.129D-02-0.139D-01 0.483D-01
 Coeff:      0.241D+00 0.735D+00
 Gap=     0.206 Goal=   None    Shift=    0.000
 RMSDP=1.33D-05 MaxDP=4.12D-04 DE=-1.33D-04 OVMax= 1.50D-03

 Cycle   9  Pass 0  IDiag  1:
 E= -764.514652160367     Delta-E=       -0.000025983471 Rises=F Damp=F
 DIIS: error= 1.38D-04 at cycle   9 NSaved=   9.
 NSaved= 9 IEnMin= 9 EnMin= -764.514652160367     IErMin= 9 ErrMin= 1.38D-04
 ErrMax= 1.38D-04  0.00D+00 EMaxC= 1.00D-01 BMatC= 1.14D-05 BMatP= 3.73D-05
 IDIUse=3 WtCom= 9.99D-01 WtEn= 1.38D-03
 Coeff-Com: -0.250D-02 0.378D-02-0.423D-02 0.430D-03-0.171D-02-0.374D-01
 Coeff-Com: -0.595D-01 0.241D+00 0.860D+00
 Coeff-En:   0.000D+00 0.000D+00 0.000D+00 0.000D+00 0.000D+00 0.000D+00
 Coeff-En:   0.000D+00 0.000D+00 0.100D+01
 Coeff:     -0.250D-02 0.378D-02-0.423D-02 0.430D-03-0.171D-02-0.373D-01
 Coeff:     -0.594D-01 0.241D+00 0.860D+00
 Gap=     0.206 Goal=   None    Shift=    0.000
 RMSDP=9.65D-06 MaxDP=3.73D-04 DE=-2.60D-05 OVMax= 1.27D-03

 Initial convergence to 1.0D-05 achieved.  Increase integral accuracy.
 Cycle  10  Pass 1  IDiag  1:
 E= -764.514585950307     Delta-E=        0.000066210060 Rises=F Damp=F
 DIIS: error= 4.76D-05 at cycle   1 NSaved=   1.
 NSaved= 1 IEnMin= 1 EnMin= -764.514585950307     IErMin= 1 ErrMin= 4.76D-05
 ErrMax= 4.76D-05  0.00D+00 EMaxC= 1.00D-01 BMatC= 1.58D-06 BMatP= 1.58D-06
 IDIUse=1 WtCom= 1.00D+00 WtEn= 0.00D+00
 Coeff-Com:  0.100D+01
 Coeff:      0.100D+01
 Gap=     0.205 Goal=   None    Shift=    0.000
 RMSDP=9.65D-06 MaxDP=3.73D-04 DE= 6.62D-05 OVMax= 1.04D-03

 Cycle  11  Pass 1  IDiag  1:
 E= -764.514585644411     Delta-E=        0.000000305896 Rises=F Damp=F
 DIIS: error= 5.05D-05 at cycle   2 NSaved=   2.
 NSaved= 2 IEnMin= 1 EnMin= -764.514585950307     IErMin= 1 ErrMin= 4.76D-05
 ErrMax= 5.05D-05  0.00D+00 EMaxC= 1.00D-01 BMatC= 2.65D-06 BMatP= 1.58D-06
 IDIUse=1 WtCom= 1.00D+00 WtEn= 0.00D+00
 Coeff-Com:  0.571D+00 0.429D+00
 Coeff:      0.571D+00 0.429D+00
 Gap=     0.206 Goal=   None    Shift=    0.000
 RMSDP=4.14D-06 MaxDP=1.82D-04 DE= 3.06D-07 OVMax= 5.89D-04

 Cycle  12  Pass 1  IDiag  1:
 E= -764.514587623539     Delta-E=       -0.000001979128 Rises=F Damp=F
 DIIS: error= 6.23D-06 at cycle   3 NSaved=   3.
 NSaved= 3 IEnMin= 3 EnMin= -764.514587623539     IErMin= 3 ErrMin= 6.23D-06
 ErrMax= 6.23D-06  0.00D+00 EMaxC= 1.00D-01 BMatC= 3.89D-08 BMatP= 1.58D-06
 IDIUse=1 WtCom= 1.00D+00 WtEn= 0.00D+00
 Coeff-Com:  0.591D-01 0.929D-01 0.848D+00
 Coeff:      0.591D-01 0.929D-01 0.848D+00
 Gap=     0.206 Goal=   None    Shift=    0.000
 RMSDP=1.21D-06 MaxDP=5.23D-05 DE=-1.98D-06 OVMax= 1.97D-04

 Cycle  13  Pass 1  IDiag  1:
 E= -764.514587671175     Delta-E=       -0.000000047636 Rises=F Damp=F
 DIIS: error= 5.03D-06 at cycle   4 NSaved=   4.
 NSaved= 4 IEnMin= 4 EnMin= -764.514587671175     IErMin= 4 ErrMin= 5.03D-06
 ErrMax= 5.03D-06  0.00D+00 EMaxC= 1.00D-01 BMatC= 1.83D-08 BMatP= 3.89D-08
 IDIUse=1 WtCom= 1.00D+00 WtEn= 0.00D+00
 Coeff-Com: -0.348D-01-0.550D-02 0.423D+00 0.618D+00
 Coeff:     -0.348D-01-0.550D-02 0.423D+00 0.618D+00
 Gap=     0.206 Goal=   None    Shift=    0.000
 RMSDP=4.79D-07 MaxDP=1.77D-05 DE=-4.76D-08 OVMax= 9.44D-05

 Cycle  14  Pass 1  IDiag  1:
 E= -764.514587693250     Delta-E=       -0.000000022075 Rises=F Damp=F
 DIIS: error= 1.48D-06 at cycle   5 NSaved=   5.
 NSaved= 5 IEnMin= 5 EnMin= -764.514587693250     IErMin= 5 ErrMin= 1.48D-06
 ErrMax= 1.48D-06  0.00D+00 EMaxC= 1.00D-01 BMatC= 7.80D-10 BMatP= 1.83D-08
 IDIUse=1 WtCom= 1.00D+00 WtEn= 0.00D+00
 Coeff-Com: -0.395D-02-0.861D-02-0.105D+00-0.327D-01 0.115D+01
 Coeff:     -0.395D-02-0.861D-02-0.105D+00-0.327D-01 0.115D+01
 Gap=     0.206 Goal=   None    Shift=    0.000
 RMSDP=3.65D-07 MaxDP=1.23D-05 DE=-2.21D-08 OVMax= 9.60D-05

 Cycle  15  Pass 1  IDiag  1:
 E= -764.514587698651     Delta-E=       -0.000000005401 Rises=F Damp=F
 DIIS: error= 1.03D-06 at cycle   6 NSaved=   6.
 NSaved= 6 IEnMin= 6 EnMin= -764.514587698651     IErMin= 6 ErrMin= 1.03D-06
 ErrMax= 1.03D-06  0.00D+00 EMaxC= 1.00D-01 BMatC= 4.25D-10 BMatP= 7.80D-10
 IDIUse=1 WtCom= 1.00D+00 WtEn= 0.00D+00
 Coeff-Com:  0.433D-02-0.498D-02-0.137D+00-0.138D+00 0.592D+00 0.683D+00
 Coeff:      0.433D-02-0.498D-02-0.137D+00-0.138D+00 0.592D+00 0.683D+00
 Gap=     0.206 Goal=   None    Shift=    0.000
 RMSDP=1.44D-07 MaxDP=5.36D-06 DE=-5.40D-09 OVMax= 3.94D-05

 Cycle  16  Pass 1  IDiag  1:
 E= -764.514587699666     Delta-E=       -0.000000001015 Rises=F Damp=F
 DIIS: error= 1.78D-07 at cycle   7 NSaved=   7.
 NSaved= 7 IEnMin= 7 EnMin= -764.514587699666     IErMin= 7 ErrMin= 1.78D-07
 ErrMax= 1.78D-07  0.00D+00 EMaxC= 1.00D-01 BMatC= 3.21D-11 BMatP= 4.25D-10
 IDIUse=1 WtCom= 1.00D+00 WtEn= 0.00D+00
 Coeff-Com:  0.171D-02-0.599D-03-0.986D-02-0.244D-01-0.924D-01 0.138D+00
 Coeff-Com:  0.988D+00
 Coeff:      0.171D-02-0.599D-03-0.986D-02-0.244D-01-0.924D-01 0.138D+00
 Coeff:      0.988D+00
 Gap=     0.206 Goal=   None    Shift=    0.000
 RMSDP=6.77D-08 MaxDP=2.46D-06 DE=-1.02D-09 OVMax= 1.83D-05

 Cycle  17  Pass 1  IDiag  1:
 E= -764.514587699820     Delta-E=       -0.000000000154 Rises=F Damp=F
 DIIS: error= 5.35D-08 at cycle   8 NSaved=   8.
 NSaved= 8 IEnMin= 8 EnMin= -764.514587699820     IErMin= 8 ErrMin= 5.35D-08
 ErrMax= 5.35D-08  0.00D+00 EMaxC= 1.00D-01 BMatC= 3.55D-12 BMatP= 3.21D-11
 IDIUse=1 WtCom= 1.00D+00 WtEn= 0.00D+00
 Coeff-Com: -0.129D-04 0.354D-03 0.111D-01 0.733D-02-0.919D-01-0.158D-01
 Coeff-Com:  0.328D+00 0.761D+00
 Coeff:     -0.129D-04 0.354D-03 0.111D-01 0.733D-02-0.919D-01-0.158D-01
 Coeff:      0.328D+00 0.761D+00
 Gap=     0.206 Goal=   None    Shift=    0.000
 RMSDP=1.21D-08 MaxDP=3.90D-07 DE=-1.54D-10 OVMax= 2.92D-06

 Cycle  18  Pass 1  IDiag  1:
 E= -764.514587699781     Delta-E=        0.000000000040 Rises=F Damp=F
 DIIS: error= 2.05D-08 at cycle   9 NSaved=   9.
 NSaved= 9 IEnMin= 8 EnMin= -764.514587699820     IErMin= 9 ErrMin= 2.05D-08
 ErrMax= 2.05D-08  0.00D+00 EMaxC= 1.00D-01 BMatC= 6.34D-13 BMatP= 3.55D-12
 IDIUse=1 WtCom= 1.00D+00 WtEn= 0.00D+00
 Coeff-Com: -0.175D-03 0.373D-03 0.492D-02 0.541D-02-0.193D-01-0.223D-01
 Coeff-Com: -0.107D-01 0.286D+00 0.756D+00
 Coeff:     -0.175D-03 0.373D-03 0.492D-02 0.541D-02-0.193D-01-0.223D-01
 Coeff:     -0.107D-01 0.286D+00 0.756D+00
 Gap=     0.206 Goal=   None    Shift=    0.000
 RMSDP=3.56D-09 MaxDP=1.20D-07 DE= 3.96D-11 OVMax= 5.76D-07

 SCF Done:  E(RM062X) =  -764.514587700     A.U. after   18 cycles
            NFock= 18  Conv=0.36D-08     -V/T= 2.0035
 KE= 7.618174830383D+02 PE=-3.099590075591D+03 EE= 9.291139495424D+02
 Leave Link  502 at Sat May 24 05:07:49 2025, MaxMem=  3758096384 cpu:             132.9 elap:              31.3
 (Enter /apps/easybuild-2022/easybuild/software/Compiler/NVHPC/22.11-CUDA-11.7.0/Gaussian/g16c01-CUDA-11.7.0/g16/l508.exe)
 QCSCF skips out because SCF is already converged.
 Leave Link  508 at Sat May 24 05:07:49 2025, MaxMem=  3758096384 cpu:               0.0 elap:               0.0
 (Enter /apps/easybuild-2022/easybuild/software/Compiler/NVHPC/22.11-CUDA-11.7.0/Gaussian/g16c01-CUDA-11.7.0/g16/l801.exe)
 DoSCS=F DFT=T ScalE2(SS,OS)=  1.000000  1.000000
 Range of M.O.s used for correlation:     1   324
 NBasis=   324 NAE=    40 NBE=    40 NFC=     0 NFV=     0
 NROrb=    324 NOA=    40 NOB=    40 NVA=   284 NVB=   284

 **** Warning!!: The largest alpha MO coefficient is  0.15390604D+02

 Leave Link  801 at Sat May 24 05:07:49 2025, MaxMem=  3758096384 cpu:               0.0 elap:               0.0
 (Enter /apps/easybuild-2022/easybuild/software/Compiler/NVHPC/22.11-CUDA-11.7.0/Gaussian/g16c01-CUDA-11.7.0/g16/l1101.exe)
 Using compressed storage, NAtomX=    11.
 Will process     12 centers per pass.
   1 Symmetry operations used in ECPInt.
 ECPInt:  NShTT=    6786 NPrTT=   21959 LenC2=    6519 LenP2D=   16179.
 LDataN:  DoStor=T MaxTD1= 7 Len=  274
 Leave Link 1101 at Sat May 24 05:07:49 2025, MaxMem=  3758096384 cpu:               0.9 elap:               0.2
 (Enter /apps/easybuild-2022/easybuild/software/Compiler/NVHPC/22.11-CUDA-11.7.0/Gaussian/g16c01-CUDA-11.7.0/g16/l1102.exe)
 Symmetrizing basis deriv contribution to polar:
 IMax=3 JMax=2 DiffMx= 0.00D+00
 Leave Link 1102 at Sat May 24 05:07:49 2025, MaxMem=  3758096384 cpu:               0.0 elap:               0.0
 (Enter /apps/easybuild-2022/easybuild/software/Compiler/NVHPC/22.11-CUDA-11.7.0/Gaussian/g16c01-CUDA-11.7.0/g16/l1110.exe)
 Forming Gx(P) for the SCF density, NAtomX=    11.
 Integral derivatives from FoFJK, PRISM(SPDF).
 Do as many integral derivatives as possible in FoFJK.
 G2DrvN: MDV=    3758095115.
 G2DrvN: will do    12 centers at a time, making    1 passes.
 Calling FoFCou, ICntrl=  3107 FMM=F I1Cent=   0 AccDes= 0.00D+00.
 FoFJK:  IHMeth= 1 ICntrl=    3107 DoSepK=F KAlg= 0 I1Cent=           0 FoldK=F
 IRaf=         0 NMat=       1 IRICut=       1 DoRegI=T DoRafI=F ISym2E= 0 IDoP0=0 IntGTp=1.
 FoFCou: FMM=F IPFlag=           0 FMFlag=      100000 FMFlg1=           0
         NFxFlg=           0 DoJE=F BraDBF=F KetDBF=F FulRan=T
         wScrn=  0.000000 ICntrl=      3107 IOpCl=  0 I1Cent=           0 NGrid=           0
         NMat0=    1 NMatS0=      1 NMatT0=    0 NMatD0=    1 NMtDS0=    0 NMtDT0=    0
 Symmetry not used in FoFCou.
 End of G2Drv F.D. properties file   721 does not exist.
 End of G2Drv F.D. properties file   722 does not exist.
 End of G2Drv F.D. properties file   788 does not exist.
 Leave Link 1110 at Sat May 24 05:08:32 2025, MaxMem=  3758096384 cpu:             341.4 elap:              43.0
 (Enter /apps/easybuild-2022/easybuild/software/Compiler/NVHPC/22.11-CUDA-11.7.0/Gaussian/g16c01-CUDA-11.7.0/g16/l1002.exe)
 Minotr:  Closed shell wavefunction.
          IDoAtm=11111111111
          Direct CPHF calculation.
          Differentiating once with respect to electric field.
                with respect to dipole field.
          Differentiating once with respect to nuclear coordinates.
          Requested convergence is 1.0D-08 RMS, and 1.0D-07 maximum.
          Secondary convergence is 1.0D-12 RMS, and 1.0D-12 maximum.
          NewPWx=T KeepS1=F KeepF1=F KeepIn=T MapXYZ=F SortEE=F KeepMc=T.
         3293 words used for storage of precomputed grid.
 Keep R1 ints in memory in canonical form, NReq=1412622523.
 FoFCou: FMM=F IPFlag=           0 FMFlag=           0 FMFlg1=           0
         NFxFlg=           0 DoJE=F BraDBF=F KetDBF=F FulRan=T
         wScrn=  0.000000 ICntrl=       600 IOpCl=  0 I1Cent=           0 NGrid=           0
         NMat0=    1 NMatS0=  52650 NMatT0=    0 NMatD0=    1 NMtDS0=    0 NMtDT0=    0
 Symmetry not used in FoFCou.
 Two-electron integral symmetry not used.
          MDV=    3758096384 using IRadAn=       1.
          Solving linear equations simultaneously, MaxMat=       0.
          There are    36 degrees of freedom in the 1st order CPHF.  IDoFFX=6 NUNeed=     3.
     33 vectors produced by pass  0 Test12= 3.16D-14 2.78D-09 XBig12= 3.78D+01 4.37D+00.
 AX will form    33 AO Fock derivatives at one time.
     33 vectors produced by pass  1 Test12= 3.16D-14 2.78D-09 XBig12= 4.80D+00 3.97D-01.
     33 vectors produced by pass  2 Test12= 3.16D-14 2.78D-09 XBig12= 1.22D-01 6.17D-02.
     33 vectors produced by pass  3 Test12= 3.16D-14 2.78D-09 XBig12= 2.85D-03 9.27D-03.
     33 vectors produced by pass  4 Test12= 3.16D-14 2.78D-09 XBig12= 5.38D-05 1.02D-03.
     33 vectors produced by pass  5 Test12= 3.16D-14 2.78D-09 XBig12= 5.47D-07 9.29D-05.
     33 vectors produced by pass  6 Test12= 3.16D-14 2.78D-09 XBig12= 3.51D-09 8.53D-06.
     14 vectors produced by pass  7 Test12= 3.16D-14 2.78D-09 XBig12= 1.86D-11 5.94D-07.
      4 vectors produced by pass  8 Test12= 3.16D-14 2.78D-09 XBig12= 1.07D-13 3.78D-08.
 InvSVY:  IOpt=1 It=  1 EMax= 3.55D-15
 Solved reduced A of dimension   249 with    36 vectors.
 FullF1:  Do perturbations      1 to       3.
 Isotropic polarizability for W=    0.000000       50.77 Bohr**3.
 End of Minotr F.D. properties file   721 does not exist.
 End of Minotr F.D. properties file   722 does not exist.
 End of Minotr F.D. properties file   788 does not exist.
 Leave Link 1002 at Sat May 24 05:09:36 2025, MaxMem=  3758096384 cpu:             499.5 elap:              63.4
 (Enter /apps/easybuild-2022/easybuild/software/Compiler/NVHPC/22.11-CUDA-11.7.0/Gaussian/g16c01-CUDA-11.7.0/g16/l701.exe)
 ... and contract with generalized density number  0.
 Compute integral second derivatives.
   1 Symmetry operations used in ECPInt.
 ECPInt:  NShTT=    6786 NPrTT=   21959 LenC2=    6519 LenP2D=   16179.
 LDataN:  DoStor=T MaxTD1= 8 Len=  415
 Leave Link  701 at Sat May 24 05:09:36 2025, MaxMem=  3758096384 cpu:               0.7 elap:               0.1
 (Enter /apps/easybuild-2022/easybuild/software/Compiler/NVHPC/22.11-CUDA-11.7.0/Gaussian/g16c01-CUDA-11.7.0/g16/l702.exe)
 L702 exits ... SP integral derivatives will be done elsewhere.
 Leave Link  702 at Sat May 24 05:09:36 2025, MaxMem=  3758096384 cpu:               0.0 elap:               0.0
 (Enter /apps/easybuild-2022/easybuild/software/Compiler/NVHPC/22.11-CUDA-11.7.0/Gaussian/g16c01-CUDA-11.7.0/g16/l703.exe)
 Integral derivatives from FoFJK, PRISM(SPDF).
 Compute integral second derivatives, UseDBF=F ICtDFT=           0.
 Calling FoFJK, ICntrl=    100127 FMM=F ISym2X=0 I1Cent= 0 IOpClX= 0 NMat=1 NMatS=1 NMatT=0.
 FoFJK:  IHMeth= 1 ICntrl=  100127 DoSepK=F KAlg= 0 I1Cent=           0 FoldK=F
 IRaf=         0 NMat=       1 IRICut=       1 DoRegI=T DoRafI=F ISym2E= 0 IDoP0=0 IntGTp=1.
 FoFCou: FMM=F IPFlag=           0 FMFlag=      100000 FMFlg1=         800
         NFxFlg=           0 DoJE=F BraDBF=F KetDBF=F FulRan=T
         wScrn=  0.000000 ICntrl=    100127 IOpCl=  0 I1Cent=           0 NGrid=           0
         NMat0=    1 NMatS0=      1 NMatT0=    0 NMatD0=    1 NMtDS0=    0 NMtDT0=    0
 Symmetry not used in FoFCou.
 Leave Link  703 at Sat May 24 05:11:18 2025, MaxMem=  3758096384 cpu:             815.3 elap:             102.6
 (Enter /apps/easybuild-2022/easybuild/software/Compiler/NVHPC/22.11-CUDA-11.7.0/Gaussian/g16c01-CUDA-11.7.0/g16/l716.exe)
 Dipole        =-1.72459718D+00 7.09138742D-01-7.47760692D-01
 Polarizability= 5.75839852D+01-2.73093117D+00 4.68210161D+01
                -4.06641988D+00-1.73103366D+00 4.79004451D+01
 -------------------------------------------------------------------
 Center     Atomic                   Forces (Hartrees/Bohr)
 Number     Number              X              Y              Z
 -------------------------------------------------------------------
      1        6           0.010373798   -0.011511595    0.008708754
      2        8          -0.008836540    0.006667768   -0.005022792
      3        6          -0.002768876   -0.007918108    0.000971057
      4        6          -0.002210467   -0.018091896    0.006560199
      5        9           0.000988752    0.002969080   -0.000429041
      6        9          -0.001465190    0.005755931   -0.006157404
      7        9           0.001101668    0.001566603   -0.002479564
      8        9          -0.002179129    0.001227705    0.001281297
      9        9          -0.001496547    0.000811313    0.000028367
     10        8           0.001245028    0.002058376   -0.010254734
     11        1           0.005247503    0.016464823    0.006793860
 -------------------------------------------------------------------
 Cartesian Forces:  Max     0.018091896 RMS     0.006673790
 Force constants in Cartesian coordinates: 
                1             2             3             4             5 
      1  0.340587D+00
      2 -0.631393D-01  0.614144D+00
      3  0.156163D+00 -0.200853D+00  0.295776D+00
      4 -0.180837D+00  0.150165D+00 -0.129812D+00  0.224084D+00
      5  0.119898D+00 -0.298672D+00  0.154617D+00 -0.196185D+00  0.361450D+00
      6 -0.125639D+00  0.180110D+00 -0.208875D+00  0.173886D+00 -0.230232D+00
      7 -0.380678D-01 -0.349233D-01 -0.961655D-01 -0.511687D-01  0.353101D-01
      8 -0.304769D-01 -0.275937D-01 -0.724466D-02  0.329175D-01 -0.216552D-01
      9 -0.675310D-01  0.370871D-02 -0.535550D-01 -0.224559D-01  0.132072D-02
     10 -0.413841D-01  0.128130D-01  0.830327D-01 -0.117523D-01  0.134974D-01
     11 -0.200159D-01 -0.174853D-01 -0.138667D-02  0.171233D-01 -0.154998D-01
     12 -0.384898D-01 -0.834396D-02  0.153780D-01 -0.851493D-02  0.200014D-01
     13  0.668043D-02 -0.626902D-02 -0.109250D-01  0.108012D-02  0.275487D-04
     14  0.733149D-02 -0.252437D-01  0.128342D-01 -0.460017D-02  0.129828D-01
     15  0.202253D-02 -0.241415D-01  0.545049D-02 -0.121241D-02  0.328491D-02
     16  0.573344D-02  0.150883D-02 -0.913204D-02 -0.108958D-02  0.892134D-03
     17 -0.136029D-02 -0.879111D-02 -0.328505D-02  0.103175D-02  0.192368D-02
     18 -0.342796D-03  0.243410D-01  0.911260D-02 -0.937919D-02  0.664168D-02
     19 -0.454848D-01  0.497587D-02  0.105773D-01  0.127102D-01 -0.462635D-02
     20  0.109948D-01 -0.200730D-02 -0.318851D-02 -0.449573D-02  0.406821D-02
     21  0.495284D-01 -0.565308D-02 -0.289741D-01 -0.295557D-02 -0.829407D-03
     22  0.952010D-02 -0.362301D-01  0.156761D-01  0.169532D-02  0.714271D-02
     23  0.355548D-02 -0.965762D-02  0.427478D-01  0.323977D-02  0.114444D-01
     24  0.193257D-01  0.331789D-02  0.172866D-01  0.691471D-03  0.284832D-02
     25  0.167508D-01  0.296870D-01 -0.908838D-02 -0.152446D-01  0.521253D-02
     26  0.120888D-01 -0.158900D-01 -0.157546D-01 -0.332195D-03  0.329961D-02
     27  0.180926D-01  0.116894D-01  0.265169D-01 -0.523693D-02  0.649868D-02
     28 -0.753116D-01 -0.550337D-01 -0.225699D-01  0.215644D-01  0.157756D-01
     29 -0.378873D-01 -0.187344D+00 -0.212486D-01  0.277970D-02 -0.528662D-01
     30 -0.140819D-01  0.112295D-01 -0.757964D-01  0.478948D-02  0.370811D-01
     31  0.181405D-02 -0.355385D-02  0.122439D-01 -0.104134D-02  0.305549D-02
     32 -0.989011D-03 -0.214584D-01  0.427620D-01 -0.164320D-02 -0.647478D-02
     33  0.952106D-03  0.459574D-02 -0.231984D-02  0.200055D-03 -0.123293D-02
                6             7             8             9            10 
      6  0.253353D+00
      7  0.206840D-02  0.577901D+00
      8  0.208133D-01  0.472648D-01  0.678446D+00
      9  0.135300D-01  0.140158D+00 -0.159089D+00  0.233943D+00
     10 -0.407713D-01  0.235016D-01  0.104662D-01  0.362610D-01  0.569729D+00
     11  0.222169D-01  0.287122D-01  0.274877D-01 -0.296960D-02  0.108809D-02
     12 -0.382285D-01  0.962521D-01 -0.677982D-02 -0.417537D-02 -0.303549D-01
     13  0.369411D-02 -0.108066D-01 -0.611549D-02 -0.189166D-02 -0.939213D-01
     14 -0.286357D-02 -0.146726D-01 -0.152877D-01 -0.105364D-01 -0.716734D-01
     15  0.550688D-03 -0.103278D-01 -0.378731D-02 -0.942424D-02 -0.202002D-01
     16  0.400207D-03 -0.133447D-01  0.336830D-02 -0.737533D-02 -0.109797D+00
     17  0.283508D-02  0.582962D-02 -0.515488D-02  0.946145D-02  0.554304D-01
     18 -0.165571D-01 -0.137829D-01 -0.230921D-02 -0.205531D-01 -0.724467D-01
     19 -0.201289D-02  0.176014D-01  0.290254D-02  0.669737D-02 -0.320830D+00
     20 -0.332418D-03 -0.561395D-02 -0.417130D-02 -0.247432D-02  0.101209D-01
     21  0.459079D-02 -0.239980D-01 -0.281193D-02 -0.939504D-02  0.850034D-01
     22 -0.640633D-02 -0.222224D+00 -0.174753D+00  0.151738D-01 -0.911073D-02
     23 -0.182894D-01 -0.188956D+00 -0.347265D+00  0.440104D-01 -0.167183D-01
     24 -0.588397D-02 -0.123111D-02  0.387001D-01 -0.503076D-01 -0.515314D-02
     25 -0.551077D-02 -0.251478D+00  0.157609D+00 -0.960026D-01 -0.101669D-01
     26  0.531627D-02  0.150321D+00 -0.249793D+00  0.111745D+00  0.110881D-01
     27 -0.124260D-01 -0.114532D+00  0.118408D+00 -0.979599D-01 -0.134456D-01
     28  0.156440D-02 -0.284590D-01 -0.359294D-01 -0.687195D-02 -0.727456D-02
     29  0.223443D-01 -0.156454D-01 -0.341969D-01  0.556409D-02 -0.228744D-01
     30  0.852080D-02  0.206999D-01  0.499435D-02 -0.142242D-02 -0.186626D-01
     31 -0.127314D-02 -0.345582D-02 -0.725281D-02  0.383837D-02  0.110067D-01
     32 -0.191814D-02 -0.762692D-02 -0.816185D-03 -0.741143D-03 -0.323809D-02
     33  0.142473D-02  0.859552D-03 -0.894439D-03 -0.680704D-03 -0.326270D-02
               11            12            13            14            15 
     11  0.563240D+00
     12 -0.219391D-01  0.429531D+00
     13 -0.610388D-01 -0.117100D-01  0.126658D+00
     14 -0.273331D+00 -0.572248D-01  0.113557D+00  0.382740D+00
     15 -0.554013D-01 -0.934447D-01  0.159685D-01  0.400909D-01  0.772574D-01
     16  0.583634D-01 -0.615749D-01  0.155494D-01  0.384006D-02  0.370889D-02
     17 -0.143340D+00  0.871306D-01  0.124244D-01 -0.734292D-01  0.384914D-01
     18  0.943806D-01 -0.187639D+00  0.249683D-02  0.147619D-01  0.925607D-02
     19 -0.133222D-02  0.741319D-01 -0.487996D-01 -0.404566D-01  0.536404D-02
     20 -0.735308D-01 -0.160072D-02 -0.601891D-01 -0.139177D-01  0.945013D-02
     21  0.265167D-02 -0.923290D-01 -0.485593D-02  0.260083D-02  0.144623D-01
     22 -0.910640D-02 -0.132837D-01  0.172697D-02  0.502883D-02  0.422173D-02
     23 -0.203597D-01 -0.235620D-01  0.808798D-02  0.965262D-02  0.179430D-02
     24 -0.247212D-02 -0.384655D-02  0.391234D-02  0.316281D-02 -0.845684D-03
     25 -0.250798D-02 -0.148674D-01  0.216765D-02  0.287368D-02  0.296280D-02
     26  0.531962D-03  0.195670D-01 -0.175213D-02 -0.141360D-02 -0.288060D-02
     27 -0.314248D-02 -0.187108D-01  0.201088D-02  0.347738D-02  0.372866D-02
     28 -0.528019D-02  0.880140D-02  0.763474D-03 -0.189793D-02 -0.261044D-02
     29 -0.361652D-01 -0.494579D-02  0.863726D-03 -0.472235D-02 -0.803539D-02
     30 -0.179098D-01 -0.127742D-01  0.120282D-02 -0.600478D-02 -0.497129D-02
     31 -0.600545D-02 -0.389740D-03 -0.109810D-02  0.669210D-03  0.102323D-03
     32 -0.115487D-01 -0.230286D-02  0.403480D-03  0.196998D-02  0.113441D-02
     33 -0.140282D-01  0.623938D-02  0.970449D-04 -0.298529D-03 -0.201967D-02
               16            17            18            19            20 
     16  0.159169D+00
     17 -0.105098D+00  0.215746D+00
     18  0.975189D-01 -0.133581D+00  0.187338D+00
     19 -0.620098D-01  0.314556D-01 -0.126910D-01  0.449077D+00
     20  0.386725D-01  0.148984D-02  0.121004D-02  0.572789D-02  0.808042D-01
     21 -0.359827D-01  0.745967D-02  0.124570D-01 -0.738979D-01 -0.526721D-02
     22  0.251300D-02 -0.282508D-03  0.395453D-02 -0.289500D-02  0.177948D-02
     23  0.371994D-02  0.361801D-04  0.694392D-02 -0.601091D-02  0.350810D-02
     24  0.103381D-02 -0.125343D-02  0.265041D-02 -0.166405D-02  0.851539D-03
     25  0.403518D-02 -0.230745D-02  0.740987D-02 -0.286806D-02  0.823028D-03
     26 -0.584792D-02  0.382676D-02 -0.459332D-02  0.363591D-02 -0.621537D-03
     27  0.100994D-01 -0.689402D-02  0.677592D-02 -0.429203D-02  0.168942D-02
     28  0.138808D-02 -0.451323D-03 -0.953159D-03  0.728084D-02  0.282877D-02
     29  0.664103D-03  0.709518D-02 -0.650820D-02  0.138680D-02  0.385728D-02
     30  0.211153D-02 -0.222430D-02  0.178826D-02 -0.293025D-02 -0.658225D-03
     31 -0.214630D-02  0.332745D-02 -0.178441D-02 -0.378213D-02 -0.648700D-03
     32 -0.837583D-04  0.597333D-03 -0.128717D-02  0.234146D-02  0.521068D-03
     33 -0.807831D-03  0.185985D-02 -0.462884D-02  0.717564D-03  0.320268D-03
               21            22            23            24            25 
     21  0.886168D-01
     22  0.440811D-02  0.195911D+00
     23  0.784634D-02  0.196511D+00  0.448231D+00
     24  0.269695D-02 -0.228892D-01 -0.817669D-01  0.377160D-01
     25  0.491674D-02  0.352277D-01 -0.140832D-02  0.549018D-02  0.222292D+00
     26 -0.511393D-02  0.172682D-01 -0.925850D-01  0.404656D-01 -0.183670D+00
     27  0.641753D-02 -0.872103D-03  0.242064D-01 -0.141835D-02  0.104523D+00
     28 -0.275873D-02 -0.114526D-01 -0.216127D-02  0.165993D-02  0.880596D-03
     29  0.345880D-03 -0.781888D-02 -0.442249D-02 -0.413055D-02 -0.682497D-02
     30  0.326185D-02  0.171380D-02 -0.304647D-02  0.186425D-02  0.740666D-03
     31  0.592222D-03 -0.911686D-03  0.140038D-03 -0.117589D-02 -0.159637D-02
     32 -0.122884D-02  0.460584D-03  0.141712D-02  0.276724D-03  0.513631D-03
     33 -0.180519D-02 -0.169673D-02 -0.884300D-03  0.879993D-04 -0.574366D-03
               26            27            28            29            30 
     26  0.344383D+00
     27 -0.150408D+00  0.880585D-01
     28 -0.480186D-02  0.489296D-02  0.974971D-01
     29  0.962960D-02 -0.687986D-02  0.106504D+00  0.354732D+00
     30  0.172265D-02 -0.100072D-02 -0.303078D-01 -0.967868D-01  0.572731D+00
     31  0.200150D-02 -0.124004D-02 -0.687676D-02 -0.211473D-01  0.347244D-01
     32 -0.136823D-02  0.135468D-02 -0.195526D-01 -0.555963D-01  0.716028D-01
     33 -0.659633D-04  0.181865D-04  0.491533D-01  0.120281D+00 -0.492201D+00
               31            32            33 
     31  0.808777D-02
     32  0.294144D-01  0.927571D-01
     33 -0.456380D-01 -0.109652D+00  0.495885D+00
 FormGI is forming the generalized inverse of G from B-inverse, IUseBI=4.
 Leave Link  716 at Sat May 24 05:11:18 2025, MaxMem=  3758096384 cpu:               0.0 elap:               0.0
 (Enter /apps/easybuild-2022/easybuild/software/Compiler/NVHPC/22.11-CUDA-11.7.0/Gaussian/g16c01-CUDA-11.7.0/g16/l103.exe)

 GradGradGradGradGradGradGradGradGradGradGradGradGradGradGradGradGradGrad
 Berny optimization.
 Red2BG is reusing G-inverse.
 Internal  Forces:  Max     0.033518120 RMS     0.006899996
 Search for a saddle point.
 Step number   1 out of a maximum of  100
 All quantities printed in internal units (Hartrees-Bohrs-Radians)
 Swapping is turned off.
 Second derivative matrix not updated -- analytic derivatives used.
 ITU=  0
     Eigenvalues ---   -0.03239  -0.00678   0.00191   0.00833   0.02557
     Eigenvalues ---    0.07021   0.08932   0.10118   0.10617   0.11662
     Eigenvalues ---    0.14879   0.16159   0.16988   0.20951   0.22756
     Eigenvalues ---    0.23107   0.27450   0.29482   0.36151   0.39073
     Eigenvalues ---    0.40987   0.42900   0.49230   0.53043   0.57957
     Eigenvalues ---    0.64728   0.73001
 Eigenvectors required to have negative eigenvalues:
                          R3        R2        A4        D16       D17
   1                    0.54852  -0.44476  -0.26847  -0.23471   0.23453
                          D6        D5        A12       D1        D2
   1                   -0.21222  -0.19698  -0.19255   0.18117   0.16594
 Eigenvalue     2 is  -6.78D-03 should be greater than     0.000000 Eigenvector:
                          D18       D17       D16       D10       D11
   1                    0.57591   0.57345   0.54960   0.07656   0.07061
                          D7        D12       D8        D9        A5
   1                    0.06859   0.06699   0.06263   0.05901   0.03889
 RFO step:  Lambda0=4.507836619D-04 Lambda=-7.30780865D-03.
 Linear search not attempted -- option 19 set.
 Iteration  1 RMS(Cart)=  0.07110580 RMS(Int)=  0.06093772
 Iteration  2 RMS(Cart)=  0.04645288 RMS(Int)=  0.00935422
 Iteration  3 RMS(Cart)=  0.00862661 RMS(Int)=  0.00026302
 Iteration  4 RMS(Cart)=  0.00016203 RMS(Int)=  0.00019304
 Iteration  5 RMS(Cart)=  0.00000005 RMS(Int)=  0.00019304
 ITry= 1 IFail=0 DXMaxC= 6.06D-01 DCOld= 1.00D+10 DXMaxT= 3.00D-01 DXLimC= 3.00D+00 Rises=F
 Variable       Old X    -DE/DX   Delta X   Delta X   Delta X     New X
                                 (Linear)    (Quad)   (Total)
    R1        2.33328  -0.01156   0.00000  -0.01923  -0.01923   2.31406
    R2        2.93861   0.00645   0.00000  -0.03968  -0.03968   2.89893
    R3        3.24356   0.00428   0.00000   0.07654   0.07654   3.32010
    R4        2.63994   0.01958   0.00000   0.01965   0.01965   2.65958
    R5        2.38170   0.00018   0.00000   0.00341   0.00341   2.38511
    R6        2.38951   0.00144   0.00000   0.00224   0.00224   2.39175
    R7        2.50766  -0.00302   0.00000  -0.01539  -0.01539   2.49227
    R8        2.52094   0.00809   0.00000   0.00683   0.00683   2.52777
    R9        2.48366   0.00166   0.00000   0.01550   0.01550   2.49915
   R10        1.82224  -0.00241   0.00000  -0.00673  -0.00673   1.81551
    A1        2.07152  -0.00315   0.00000  -0.00186  -0.00237   2.06915
    A2        1.93129  -0.00233   0.00000  -0.00716  -0.00754   1.92375
    A3        2.13538  -0.00284   0.00000   0.01150   0.01141   2.14679
    A4        1.59052  -0.00112   0.00000  -0.04164  -0.04177   1.54875
    A5        1.83995   0.00225   0.00000   0.00412   0.00448   1.84443
    A6        1.80091   0.00936   0.00000   0.02353   0.02347   1.82438
    A7        2.09086   0.00342   0.00000   0.01086   0.01059   2.10145
    A8        2.18468  -0.00036   0.00000   0.00262   0.00235   2.18703
    A9        1.95753  -0.00245   0.00000  -0.00097  -0.00125   1.95628
   A10        1.94629   0.00147   0.00000   0.00479   0.00449   1.95078
   A11        2.01596   0.00107   0.00000   0.02464   0.02446   2.04042
   A12        1.80402   0.00210   0.00000  -0.02656  -0.02645   1.77757
   A13        1.89021  -0.00080   0.00000   0.01027   0.00983   1.90004
   A14        1.90846  -0.00066   0.00000   0.00234   0.00231   1.91077
   A15        1.89510  -0.00334   0.00000  -0.01871  -0.01850   1.87661
   A16        1.81469   0.03352   0.00000   0.12838   0.12838   1.94307
    D1       -0.53576   0.00084   0.00000   0.06980   0.06976  -0.46600
    D2        2.96761  -0.00086   0.00000   0.02622   0.02613   2.99374
    D3        1.46075  -0.00342   0.00000   0.03552   0.03561   1.49636
    D4       -1.31907  -0.00512   0.00000  -0.00806  -0.00802  -1.32708
    D5       -3.00712   0.00620   0.00000   0.04835   0.04836  -2.95876
    D6        0.49625   0.00451   0.00000   0.00476   0.00473   0.50099
    D7        0.95120  -0.00189   0.00000  -0.05956  -0.05950   0.89169
    D8        3.11885  -0.00088   0.00000  -0.02174  -0.02143   3.09742
    D9       -1.09719  -0.00300   0.00000  -0.04950  -0.04942  -1.14662
   D10       -1.16712   0.00267   0.00000  -0.03682  -0.03718  -1.20430
   D11        1.00053   0.00367   0.00000   0.00100   0.00089   1.00143
   D12        3.06768   0.00155   0.00000  -0.02677  -0.02710   3.04058
   D13       -3.01941  -0.00020   0.00000  -0.03275  -0.03273  -3.05214
   D14       -0.85176   0.00080   0.00000   0.00507   0.00534  -0.84642
   D15        1.21539  -0.00132   0.00000  -0.02270  -0.02265   1.19274
   D16        2.24805   0.00255   0.00000  -0.43003  -0.42993   1.81812
   D17       -1.59458  -0.00310   0.00000  -0.41419  -0.41416  -2.00874
   D18        0.06196  -0.00094   0.00000  -0.45065  -0.45079  -0.38883
         Item               Value     Threshold  Converged?
 Maximum Force            0.033518     0.000450     NO 
 RMS     Force            0.006900     0.000300     NO 
 Maximum Displacement     0.605862     0.001800     NO 
 RMS     Displacement     0.117360     0.001200     NO 
 Predicted change in Energy=-5.536309D-03
 Lowest energy point so far.  Saving SCF results.
 GradGradGradGradGradGradGradGradGradGradGradGradGradGradGradGradGradGrad

 Leave Link  103 at Sat May 24 05:11:18 2025, MaxMem=  3758096384 cpu:               0.0 elap:               0.0
 (Enter /apps/easybuild-2022/easybuild/software/Compiler/NVHPC/22.11-CUDA-11.7.0/Gaussian/g16c01-CUDA-11.7.0/g16/l202.exe)
                          Input orientation:                          
 ---------------------------------------------------------------------
 Center     Atomic      Atomic             Coordinates (Angstroms)
 Number     Number       Type             X           Y           Z
 ---------------------------------------------------------------------
      1          6           0        1.527640    0.024470    0.005241
      2          8           0        2.128940   -0.810144    0.669598
      3          6           0       -0.005444   -0.023894   -0.019461
      4          6           0        1.530643   -0.432658   -1.691166
      5          9           0        1.122755   -1.674919   -1.863755
      6          9           0        0.862469    0.362948   -2.533682
      7          9           0        2.814961   -0.344098   -1.993950
      8          9           0       -0.613384   -1.112838    0.174495
      9          9           0       -0.756898    0.855816   -0.532611
     10          8           0        1.865133    1.390795    0.003328
     11          1           0        2.330515    1.634664   -0.801002
 ---------------------------------------------------------------------
                    Distance matrix (angstroms):
                    1          2          3          4          5
     1  C    0.000000
     2  O    1.224546   0.000000
     3  C    1.534046   2.376675   0.000000
     4  C    1.756921   2.464480   2.306783   0.000000
     5  F    2.558320   2.859741   2.720319   1.318852   0.000000
     6  F    2.646346   3.638831   2.687792   1.337638   2.160891
     7  F    2.406201   2.789680   3.457719   1.322495   2.156756
     8  F    2.430247   2.803050   1.262144   2.922360   2.735795
     9  F    2.489886   3.542427   1.265660   2.869714   3.421938
    10  O    1.407391   2.314658   2.345405   2.511608   3.665477
    11  H    1.971639   2.860137   2.969567   2.388726   3.679874
                    6          7          8          9         10
     6  F    0.000000
     7  F    2.145565   0.000000
     8  F    3.419109   4.128760   0.000000
     9  F    2.620983   4.041470   2.096710   0.000000
    10  O    2.915171   2.810898   3.527113   2.729190   0.000000
    11  H    2.602807   2.360787   4.143297   3.195428   0.960729
                   11
    11  H    0.000000
 Symmetry turned off by external request.
 Stoichiometry    C3HF5O2
 Rotational constants (GHZ):           1.7333005           1.2807642           1.1945614
 Leave Link  202 at Sat May 24 05:11:18 2025, MaxMem=  3758096384 cpu:               0.0 elap:               0.0
 (Enter /apps/easybuild-2022/easybuild/software/Compiler/NVHPC/22.11-CUDA-11.7.0/Gaussian/g16c01-CUDA-11.7.0/g16/l301.exe)
 Standard basis: def2TZVPP (5D, 7F)
 Ernie: Thresh=  0.10000D-02 Tol=  0.10000D-05 Strict=F.
   324 basis functions,   527 primitive gaussians,   375 cartesian basis functions
    40 alpha electrons       40 beta electrons
       nuclear repulsion energy       642.4097061282 Hartrees.
 IExCor= 4336 DFT=T Ex+Corr=M062X ExCW=0 ScaHFX=  0.540000
 ScaDFX=  1.000000  1.000000  1.000000  1.000000 ScalE2=  1.000000  1.000000
 IRadAn=      5 IRanWt=     -1 IRanGd=            0 ICorTp=0 IEmpDi=  4
 NAtoms=   11 NActive=   11 NUniq=   11 SFac= 1.00D+00 NAtFMM=   60 NAOKFM=F Big=F
 Integral buffers will be    131072 words long.
 Raffenetti 2 integral format.
 Two-electron integral symmetry is turned off.
 Leave Link  301 at Sat May 24 05:11:18 2025, MaxMem=  3758096384 cpu:               0.0 elap:               0.0
 (Enter /apps/easybuild-2022/easybuild/software/Compiler/NVHPC/22.11-CUDA-11.7.0/Gaussian/g16c01-CUDA-11.7.0/g16/l302.exe)
 NPDir=0 NMtPBC=     1 NCelOv=     1 NCel=       1 NClECP=     1 NCelD=      1
         NCelK=      1 NCelE2=     1 NClLst=     1 CellRange=     0.0.
 One-electron integrals computed using PRISM.
   1 Symmetry operations used in ECPInt.
 ECPInt:  NShTT=    6786 NPrTT=   21959 LenC2=    6516 LenP2D=   16150.
 LDataN:  DoStor=T MaxTD1= 6 Len=  172
 NBasis=   324 RedAO= T EigKep=  3.13D-04  NBF=   324
 NBsUse=   324 1.00D-06 EigRej= -1.00D+00 NBFU=   324
 Precomputing XC quadrature grid using
 IXCGrd= 4 IRadAn=           5 IRanWt=          -1 IRanGd=           0 AccXCQ= 0.00D+00.
 Generated NRdTot=       0 NPtTot=           0 NUsed=           0 NTot=          32
 NSgBfM=   373   373   373   373   373 MxSgAt=    11 MxSgA2=    11.
 Leave Link  302 at Sat May 24 05:11:19 2025, MaxMem=  3758096384 cpu:               0.6 elap:               0.1
 (Enter /apps/easybuild-2022/easybuild/software/Compiler/NVHPC/22.11-CUDA-11.7.0/Gaussian/g16c01-CUDA-11.7.0/g16/l303.exe)
 DipDrv:  MaxL=1.
 Leave Link  303 at Sat May 24 05:11:19 2025, MaxMem=  3758096384 cpu:               0.1 elap:               0.0
 (Enter /apps/easybuild-2022/easybuild/software/Compiler/NVHPC/22.11-CUDA-11.7.0/Gaussian/g16c01-CUDA-11.7.0/g16/l401.exe)
 Initial guess from the checkpoint file:  "/tmp/Gau-4434.chk"
 B after Tr=    -0.046951   -0.039301   -0.010876
         Rot=    0.999888    0.007678   -0.004002   -0.012178 Ang=   1.71 deg.
 Guess basis will be translated and rotated to current coordinates.
 JPrj=2 DoOrth=T DoCkMO=T.
 Generating alternative initial guess.
 ExpMin= 9.52D-02 ExpMax= 3.55D+04 ExpMxC= 1.21D+03 IAcc=3 IRadAn=         5 AccDes= 0.00D+00
 Harris functional with IExCor= 1009 and IRadAn=       5 diagonalized for initial guess.
 HarFok:  IExCor= 1009 AccDes= 0.00D+00 IRadAn=         5 IDoV= 1 UseB2=F ITyADJ=14
 ICtDFT=  3500011 ScaDFX=  1.000000  1.000000  1.000000  1.000000
 FoFCou: FMM=F IPFlag=           0 FMFlag=      100000 FMFlg1=           0
         NFxFlg=           0 DoJE=T BraDBF=F KetDBF=T FulRan=T
         wScrn=  0.000000 ICntrl=       500 IOpCl=  0 I1Cent=   200000004 NGrid=           0
         NMat0=    1 NMatS0=      1 NMatT0=    0 NMatD0=    1 NMtDS0=    0 NMtDT0=    0
 Symmetry not used in FoFCou.
 Harris En= -764.133675081132    
 Leave Link  401 at Sat May 24 05:11:19 2025, MaxMem=  3758096384 cpu:               3.7 elap:               0.5
 (Enter /apps/easybuild-2022/easybuild/software/Compiler/NVHPC/22.11-CUDA-11.7.0/Gaussian/g16c01-CUDA-11.7.0/g16/l502.exe)
 Keep R1 ints in memory in canonical form, NReq=1412617130.
 FoFCou: FMM=F IPFlag=           0 FMFlag=           0 FMFlg1=           0
         NFxFlg=           0 DoJE=F BraDBF=F KetDBF=F FulRan=T
         wScrn=  0.000000 ICntrl=       600 IOpCl=  0 I1Cent=           0 NGrid=           0
         NMat0=    1 NMatS0=  52650 NMatT0=    0 NMatD0=    1 NMtDS0=    0 NMtDT0=    0
 Symmetry not used in FoFCou.
 Two-electron integral symmetry not used.
 Closed shell SCF:
 Using DIIS extrapolation, IDIIS=  1040.
 NGot=  3758096384 LenX=  2371771924 LenY=  2371630858
 Requested convergence on RMS density matrix=1.00D-08 within  32 cycles.
 Requested convergence on MAX density matrix=1.00D-06.
 Requested convergence on             energy=1.00D-06.
 No special actions if energy rises.
 Integral accuracy reduced to 1.0D-05 until final iterations.

 Cycle   1  Pass 0  IDiag  1:
 E= -764.491004604432    
 DIIS: error= 8.48D-03 at cycle   1 NSaved=   1.
 NSaved= 1 IEnMin= 1 EnMin= -764.491004604432     IErMin= 1 ErrMin= 8.48D-03
 ErrMax= 8.48D-03  0.00D+00 EMaxC= 1.00D-01 BMatC= 2.60D-02 BMatP= 2.60D-02
 IDIUse=3 WtCom= 9.15D-01 WtEn= 8.48D-02
 Coeff-Com:  0.100D+01
 Coeff-En:   0.100D+01
 Coeff:      0.100D+01
 Gap=     0.936 Goal=   None    Shift=    0.000
 GapD=    0.936 DampG=2.000 DampE=1.000 DampFc=2.0000 IDamp=-1.
 RMSDP=6.89D-04 MaxDP=4.73D-02              OVMax= 6.98D-02

 Cycle   2  Pass 0  IDiag  1:
 E= -764.518287273984     Delta-E=       -0.027282669552 Rises=F Damp=F
 DIIS: error= 1.53D-03 at cycle   2 NSaved=   2.
 NSaved= 2 IEnMin= 2 EnMin= -764.518287273984     IErMin= 2 ErrMin= 1.53D-03
 ErrMax= 1.53D-03  0.00D+00 EMaxC= 1.00D-01 BMatC= 1.04D-03 BMatP= 2.60D-02
 IDIUse=3 WtCom= 9.85D-01 WtEn= 1.53D-02
 Coeff-Com: -0.609D-01 0.106D+01
 Coeff-En:   0.000D+00 0.100D+01
 Coeff:     -0.600D-01 0.106D+01
 Gap=     0.214 Goal=   None    Shift=    0.000
 RMSDP=1.45D-04 MaxDP=8.48D-03 DE=-2.73D-02 OVMax= 1.95D-02

 Cycle   3  Pass 0  IDiag  1:
 E= -764.519318683031     Delta-E=       -0.001031409047 Rises=F Damp=F
 DIIS: error= 9.21D-04 at cycle   3 NSaved=   3.
 NSaved= 3 IEnMin= 3 EnMin= -764.519318683031     IErMin= 3 ErrMin= 9.21D-04
 ErrMax= 9.21D-04  0.00D+00 EMaxC= 1.00D-01 BMatC= 7.06D-04 BMatP= 1.04D-03
 IDIUse=3 WtCom= 9.91D-01 WtEn= 9.21D-03
 Coeff-Com: -0.615D-01 0.495D+00 0.566D+00
 Coeff-En:   0.000D+00 0.000D+00 0.100D+01
 Coeff:     -0.609D-01 0.491D+00 0.570D+00
 Gap=     0.216 Goal=   None    Shift=    0.000
 RMSDP=6.22D-05 MaxDP=3.33D-03 DE=-1.03D-03 OVMax= 6.68D-03

 Cycle   4  Pass 0  IDiag  1:
 E= -764.519783094517     Delta-E=       -0.000464411486 Rises=F Damp=F
 DIIS: error= 2.39D-04 at cycle   4 NSaved=   4.
 NSaved= 4 IEnMin= 4 EnMin= -764.519783094517     IErMin= 4 ErrMin= 2.39D-04
 ErrMax= 2.39D-04  0.00D+00 EMaxC= 1.00D-01 BMatC= 6.42D-05 BMatP= 7.06D-04
 IDIUse=3 WtCom= 9.98D-01 WtEn= 2.39D-03
 Coeff-Com: -0.102D-01 0.232D-02 0.221D+00 0.786D+00
 Coeff-En:   0.000D+00 0.000D+00 0.000D+00 0.100D+01
 Coeff:     -0.101D-01 0.231D-02 0.221D+00 0.787D+00
 Gap=     0.214 Goal=   None    Shift=    0.000
 RMSDP=2.62D-05 MaxDP=1.20D-03 DE=-4.64D-04 OVMax= 3.32D-03

 Cycle   5  Pass 0  IDiag  1:
 E= -764.519839388397     Delta-E=       -0.000056293880 Rises=F Damp=F
 DIIS: error= 1.06D-04 at cycle   5 NSaved=   5.
 NSaved= 5 IEnMin= 5 EnMin= -764.519839388397     IErMin= 5 ErrMin= 1.06D-04
 ErrMax= 1.06D-04  0.00D+00 EMaxC= 1.00D-01 BMatC= 9.07D-06 BMatP= 6.42D-05
 IDIUse=3 WtCom= 9.99D-01 WtEn= 1.06D-03
 Coeff-Com:  0.105D-02-0.483D-01 0.491D-01 0.367D+00 0.631D+00
 Coeff-En:   0.000D+00 0.000D+00 0.000D+00 0.000D+00 0.100D+01
 Coeff:      0.105D-02-0.483D-01 0.491D-01 0.367D+00 0.631D+00
 Gap=     0.215 Goal=   None    Shift=    0.000
 RMSDP=1.14D-05 MaxDP=5.58D-04 DE=-5.63D-05 OVMax= 1.01D-03

 Cycle   6  Pass 0  IDiag  1:
 E= -764.519847233572     Delta-E=       -0.000007845175 Rises=F Damp=F
 DIIS: error= 4.05D-05 at cycle   6 NSaved=   6.
 NSaved= 6 IEnMin= 6 EnMin= -764.519847233572     IErMin= 6 ErrMin= 4.05D-05
 ErrMax= 4.05D-05  0.00D+00 EMaxC= 1.00D-01 BMatC= 1.14D-06 BMatP= 9.07D-06
 IDIUse=1 WtCom= 1.00D+00 WtEn= 0.00D+00
 Coeff-Com:  0.246D-02-0.255D-01-0.188D-01 0.303D-01 0.278D+00 0.733D+00
 Coeff:      0.246D-02-0.255D-01-0.188D-01 0.303D-01 0.278D+00 0.733D+00
 Gap=     0.215 Goal=   None    Shift=    0.000
 RMSDP=4.72D-06 MaxDP=1.74D-04 DE=-7.85D-06 OVMax= 9.86D-04

 Initial convergence to 1.0D-05 achieved.  Increase integral accuracy.
 Cycle   7  Pass 1  IDiag  1:
 E= -764.519779140178     Delta-E=        0.000068093394 Rises=F Damp=F
 DIIS: error= 1.87D-05 at cycle   1 NSaved=   1.
 NSaved= 1 IEnMin= 1 EnMin= -764.519779140178     IErMin= 1 ErrMin= 1.87D-05
 ErrMax= 1.87D-05  0.00D+00 EMaxC= 1.00D-01 BMatC= 5.34D-07 BMatP= 5.34D-07
 IDIUse=1 WtCom= 1.00D+00 WtEn= 0.00D+00
 Coeff-Com:  0.100D+01
 Coeff:      0.100D+01
 Gap=     0.215 Goal=   None    Shift=    0.000
 RMSDP=4.72D-06 MaxDP=1.74D-04 DE= 6.81D-05 OVMax= 2.86D-04

 Cycle   8  Pass 1  IDiag  1:
 E= -764.519779619479     Delta-E=       -0.000000479301 Rises=F Damp=F
 DIIS: error= 1.10D-05 at cycle   2 NSaved=   2.
 NSaved= 2 IEnMin= 2 EnMin= -764.519779619479     IErMin= 2 ErrMin= 1.10D-05
 ErrMax= 1.10D-05  0.00D+00 EMaxC= 1.00D-01 BMatC= 1.03D-07 BMatP= 5.34D-07
 IDIUse=1 WtCom= 1.00D+00 WtEn= 0.00D+00
 Coeff-Com:  0.194D+00 0.806D+00
 Coeff:      0.194D+00 0.806D+00
 Gap=     0.215 Goal=   None    Shift=    0.000
 RMSDP=1.55D-06 MaxDP=5.42D-05 DE=-4.79D-07 OVMax= 2.54D-04

 Cycle   9  Pass 1  IDiag  1:
 E= -764.519779664969     Delta-E=       -0.000000045490 Rises=F Damp=F
 DIIS: error= 1.07D-05 at cycle   3 NSaved=   3.
 NSaved= 3 IEnMin= 3 EnMin= -764.519779664969     IErMin= 3 ErrMin= 1.07D-05
 ErrMax= 1.07D-05  0.00D+00 EMaxC= 1.00D-01 BMatC= 9.23D-08 BMatP= 1.03D-07
 IDIUse=1 WtCom= 1.00D+00 WtEn= 0.00D+00
 Coeff-Com: -0.464D-01 0.492D+00 0.554D+00
 Coeff:     -0.464D-01 0.492D+00 0.554D+00
 Gap=     0.215 Goal=   None    Shift=    0.000
 RMSDP=8.55D-07 MaxDP=3.04D-05 DE=-4.55D-08 OVMax= 6.97D-05

 Cycle  10  Pass 1  IDiag  1:
 E= -764.519779731536     Delta-E=       -0.000000066567 Rises=F Damp=F
 DIIS: error= 1.64D-06 at cycle   4 NSaved=   4.
 NSaved= 4 IEnMin= 4 EnMin= -764.519779731536     IErMin= 4 ErrMin= 1.64D-06
 ErrMax= 1.64D-06  0.00D+00 EMaxC= 1.00D-01 BMatC= 2.14D-09 BMatP= 9.23D-08
 IDIUse=1 WtCom= 1.00D+00 WtEn= 0.00D+00
 Coeff-Com: -0.238D-01 0.117D+00 0.137D+00 0.769D+00
 Coeff:     -0.238D-01 0.117D+00 0.137D+00 0.769D+00
 Gap=     0.215 Goal=   None    Shift=    0.000
 RMSDP=2.94D-07 MaxDP=9.53D-06 DE=-6.66D-08 OVMax= 5.85D-05

 Cycle  11  Pass 1  IDiag  1:
 E= -764.519779735856     Delta-E=       -0.000000004320 Rises=F Damp=F
 DIIS: error= 1.26D-06 at cycle   5 NSaved=   5.
 NSaved= 5 IEnMin= 5 EnMin= -764.519779735856     IErMin= 5 ErrMin= 1.26D-06
 ErrMax= 1.26D-06  0.00D+00 EMaxC= 1.00D-01 BMatC= 1.11D-09 BMatP= 2.14D-09
 IDIUse=1 WtCom= 1.00D+00 WtEn= 0.00D+00
 Coeff-Com:  0.322D-02-0.103D+00-0.138D+00 0.377D+00 0.861D+00
 Coeff:      0.322D-02-0.103D+00-0.138D+00 0.377D+00 0.861D+00
 Gap=     0.215 Goal=   None    Shift=    0.000
 RMSDP=2.49D-07 MaxDP=8.86D-06 DE=-4.32D-09 OVMax= 5.00D-05

 Cycle  12  Pass 1  IDiag  1:
 E= -764.519779738236     Delta-E=       -0.000000002379 Rises=F Damp=F
 DIIS: error= 3.21D-07 at cycle   6 NSaved=   6.
 NSaved= 6 IEnMin= 6 EnMin= -764.519779738236     IErMin= 6 ErrMin= 3.21D-07
 ErrMax= 3.21D-07  0.00D+00 EMaxC= 1.00D-01 BMatC= 1.23D-10 BMatP= 1.11D-09
 IDIUse=1 WtCom= 1.00D+00 WtEn= 0.00D+00
 Coeff-Com:  0.543D-02-0.601D-01-0.822D-01 0.194D-01 0.328D+00 0.789D+00
 Coeff:      0.543D-02-0.601D-01-0.822D-01 0.194D-01 0.328D+00 0.789D+00
 Gap=     0.215 Goal=   None    Shift=    0.000
 RMSDP=8.79D-08 MaxDP=3.18D-06 DE=-2.38D-09 OVMax= 2.01D-05

 Cycle  13  Pass 1  IDiag  1:
 E= -764.519779738546     Delta-E=       -0.000000000310 Rises=F Damp=F
 DIIS: error= 9.98D-08 at cycle   7 NSaved=   7.
 NSaved= 7 IEnMin= 7 EnMin= -764.519779738546     IErMin= 7 ErrMin= 9.98D-08
 ErrMax= 9.98D-08  0.00D+00 EMaxC= 1.00D-01 BMatC= 9.45D-12 BMatP= 1.23D-10
 IDIUse=1 WtCom= 1.00D+00 WtEn= 0.00D+00
 Coeff-Com:  0.350D-03 0.486D-02 0.410D-02-0.471D-01-0.630D-01 0.143D+00
 Coeff-Com:  0.957D+00
 Coeff:      0.350D-03 0.486D-02 0.410D-02-0.471D-01-0.630D-01 0.143D+00
 Coeff:      0.957D+00
 Gap=     0.215 Goal=   None    Shift=    0.000
 RMSDP=2.84D-08 MaxDP=7.54D-07 DE=-3.10D-10 OVMax= 6.43D-06

 Cycle  14  Pass 1  IDiag  1:
 E= -764.519779738553     Delta-E=       -0.000000000007 Rises=F Damp=F
 DIIS: error= 4.49D-08 at cycle   8 NSaved=   8.
 NSaved= 8 IEnMin= 8 EnMin= -764.519779738553     IErMin= 8 ErrMin= 4.49D-08
 ErrMax= 4.49D-08  0.00D+00 EMaxC= 1.00D-01 BMatC= 1.85D-12 BMatP= 9.45D-12
 IDIUse=1 WtCom= 1.00D+00 WtEn= 0.00D+00
 Coeff-Com: -0.442D-03 0.843D-02 0.101D-01-0.219D-01-0.611D-01-0.265D-01
 Coeff-Com:  0.398D+00 0.694D+00
 Coeff:     -0.442D-03 0.843D-02 0.101D-01-0.219D-01-0.611D-01-0.265D-01
 Coeff:      0.398D+00 0.694D+00
 Gap=     0.215 Goal=   None    Shift=    0.000
 RMSDP=6.51D-09 MaxDP=1.88D-07 DE=-6.82D-12 OVMax= 1.25D-06

 SCF Done:  E(RM062X) =  -764.519779739     A.U. after   14 cycles
            NFock= 14  Conv=0.65D-08     -V/T= 2.0036
 KE= 7.617587674795D+02 PE=-3.096297930511D+03 EE= 9.276096771644D+02
 Leave Link  502 at Sat May 24 05:11:46 2025, MaxMem=  3758096384 cpu:             117.7 elap:              26.4
 (Enter /apps/easybuild-2022/easybuild/software/Compiler/NVHPC/22.11-CUDA-11.7.0/Gaussian/g16c01-CUDA-11.7.0/g16/l508.exe)
 QCSCF skips out because SCF is already converged.
 Leave Link  508 at Sat May 24 05:11:46 2025, MaxMem=  3758096384 cpu:               0.0 elap:               0.0
 (Enter /apps/easybuild-2022/easybuild/software/Compiler/NVHPC/22.11-CUDA-11.7.0/Gaussian/g16c01-CUDA-11.7.0/g16/l801.exe)
 DoSCS=F DFT=T ScalE2(SS,OS)=  1.000000  1.000000
 Range of M.O.s used for correlation:     1   324
 NBasis=   324 NAE=    40 NBE=    40 NFC=     0 NFV=     0
 NROrb=    324 NOA=    40 NOB=    40 NVA=   284 NVB=   284

 **** Warning!!: The largest alpha MO coefficient is  0.15326765D+02

 Leave Link  801 at Sat May 24 05:11:46 2025, MaxMem=  3758096384 cpu:               0.0 elap:               0.0
 (Enter /apps/easybuild-2022/easybuild/software/Compiler/NVHPC/22.11-CUDA-11.7.0/Gaussian/g16c01-CUDA-11.7.0/g16/l1101.exe)
 Using compressed storage, NAtomX=    11.
 Will process     12 centers per pass.
   1 Symmetry operations used in ECPInt.
 ECPInt:  NShTT=    6786 NPrTT=   21959 LenC2=    6516 LenP2D=   16150.
 LDataN:  DoStor=T MaxTD1= 7 Len=  274
 Leave Link 1101 at Sat May 24 05:11:46 2025, MaxMem=  3758096384 cpu:               0.9 elap:               0.2
 (Enter /apps/easybuild-2022/easybuild/software/Compiler/NVHPC/22.11-CUDA-11.7.0/Gaussian/g16c01-CUDA-11.7.0/g16/l1102.exe)
 Symmetrizing basis deriv contribution to polar:
 IMax=3 JMax=2 DiffMx= 0.00D+00
 Leave Link 1102 at Sat May 24 05:11:46 2025, MaxMem=  3758096384 cpu:               0.1 elap:               0.0
 (Enter /apps/easybuild-2022/easybuild/software/Compiler/NVHPC/22.11-CUDA-11.7.0/Gaussian/g16c01-CUDA-11.7.0/g16/l1110.exe)
 Forming Gx(P) for the SCF density, NAtomX=    11.
 Integral derivatives from FoFJK, PRISM(SPDF).
 Do as many integral derivatives as possible in FoFJK.
 G2DrvN: MDV=    3758095115.
 G2DrvN: will do    12 centers at a time, making    1 passes.
 Calling FoFCou, ICntrl=  3107 FMM=F I1Cent=   0 AccDes= 0.00D+00.
 FoFJK:  IHMeth= 1 ICntrl=    3107 DoSepK=F KAlg= 0 I1Cent=           0 FoldK=F
 IRaf=         0 NMat=       1 IRICut=       1 DoRegI=T DoRafI=F ISym2E= 0 IDoP0=0 IntGTp=1.
 FoFCou: FMM=F IPFlag=           0 FMFlag=      100000 FMFlg1=           0
         NFxFlg=           0 DoJE=F BraDBF=F KetDBF=F FulRan=T
         wScrn=  0.000000 ICntrl=      3107 IOpCl=  0 I1Cent=           0 NGrid=           0
         NMat0=    1 NMatS0=      1 NMatT0=    0 NMatD0=    1 NMtDS0=    0 NMtDT0=    0
 Symmetry not used in FoFCou.
 End of G2Drv F.D. properties file   721 does not exist.
 End of G2Drv F.D. properties file   722 does not exist.
 End of G2Drv F.D. properties file   788 does not exist.
 Leave Link 1110 at Sat May 24 05:12:32 2025, MaxMem=  3758096384 cpu:             370.3 elap:              46.6
 (Enter /apps/easybuild-2022/easybuild/software/Compiler/NVHPC/22.11-CUDA-11.7.0/Gaussian/g16c01-CUDA-11.7.0/g16/l1002.exe)
 Minotr:  Closed shell wavefunction.
          IDoAtm=11111111111
          Direct CPHF calculation.
          Differentiating once with respect to electric field.
                with respect to dipole field.
          Differentiating once with respect to nuclear coordinates.
          Requested convergence is 1.0D-08 RMS, and 1.0D-07 maximum.
          Secondary convergence is 1.0D-12 RMS, and 1.0D-12 maximum.
          NewPWx=T KeepS1=F KeepF1=F KeepIn=T MapXYZ=F SortEE=F KeepMc=T.
         3293 words used for storage of precomputed grid.
 Keep R1 ints in memory in canonical form, NReq=1412622523.
 FoFCou: FMM=F IPFlag=           0 FMFlag=           0 FMFlg1=           0
         NFxFlg=           0 DoJE=F BraDBF=F KetDBF=F FulRan=T
         wScrn=  0.000000 ICntrl=       600 IOpCl=  0 I1Cent=           0 NGrid=           0
         NMat0=    1 NMatS0=  52650 NMatT0=    0 NMatD0=    1 NMtDS0=    0 NMtDT0=    0
 Symmetry not used in FoFCou.
 Two-electron integral symmetry not used.
          MDV=    3758096384 using IRadAn=       1.
          Solving linear equations simultaneously, MaxMat=       0.
          There are    36 degrees of freedom in the 1st order CPHF.  IDoFFX=6 NUNeed=     3.
     33 vectors produced by pass  0 Test12= 3.16D-14 2.78D-09 XBig12= 3.79D+01 4.38D+00.
 AX will form    33 AO Fock derivatives at one time.
     33 vectors produced by pass  1 Test12= 3.16D-14 2.78D-09 XBig12= 4.81D+00 3.82D-01.
     33 vectors produced by pass  2 Test12= 3.16D-14 2.78D-09 XBig12= 1.08D-01 5.59D-02.
     33 vectors produced by pass  3 Test12= 3.16D-14 2.78D-09 XBig12= 2.66D-03 7.77D-03.
     33 vectors produced by pass  4 Test12= 3.16D-14 2.78D-09 XBig12= 4.54D-05 9.03D-04.
     33 vectors produced by pass  5 Test12= 3.16D-14 2.78D-09 XBig12= 4.03D-07 8.05D-05.
     33 vectors produced by pass  6 Test12= 3.16D-14 2.78D-09 XBig12= 2.60D-09 7.49D-06.
     17 vectors produced by pass  7 Test12= 3.16D-14 2.78D-09 XBig12= 1.46D-11 5.78D-07.
      4 vectors produced by pass  8 Test12= 3.16D-14 2.78D-09 XBig12= 8.26D-14 4.09D-08.
      1 vectors produced by pass  9 Test12= 3.16D-14 2.78D-09 XBig12= 4.23D-16 3.08D-09.
 InvSVY:  IOpt=1 It=  1 EMax= 2.66D-15
 Solved reduced A of dimension   253 with    36 vectors.
 FullF1:  Do perturbations      1 to       3.
 Isotropic polarizability for W=    0.000000       51.18 Bohr**3.
 End of Minotr F.D. properties file   721 does not exist.
 End of Minotr F.D. properties file   722 does not exist.
 End of Minotr F.D. properties file   788 does not exist.
 Leave Link 1002 at Sat May 24 05:13:35 2025, MaxMem=  3758096384 cpu:             490.2 elap:              63.0
 (Enter /apps/easybuild-2022/easybuild/software/Compiler/NVHPC/22.11-CUDA-11.7.0/Gaussian/g16c01-CUDA-11.7.0/g16/l701.exe)
 ... and contract with generalized density number  0.
 Compute integral second derivatives.
   1 Symmetry operations used in ECPInt.
 ECPInt:  NShTT=    6786 NPrTT=   21959 LenC2=    6516 LenP2D=   16150.
 LDataN:  DoStor=T MaxTD1= 8 Len=  415
 Leave Link  701 at Sat May 24 05:13:36 2025, MaxMem=  3758096384 cpu:               0.6 elap:               0.1
 (Enter /apps/easybuild-2022/easybuild/software/Compiler/NVHPC/22.11-CUDA-11.7.0/Gaussian/g16c01-CUDA-11.7.0/g16/l702.exe)
 L702 exits ... SP integral derivatives will be done elsewhere.
 Leave Link  702 at Sat May 24 05:13:36 2025, MaxMem=  3758096384 cpu:               0.0 elap:               0.0
 (Enter /apps/easybuild-2022/easybuild/software/Compiler/NVHPC/22.11-CUDA-11.7.0/Gaussian/g16c01-CUDA-11.7.0/g16/l703.exe)
 Integral derivatives from FoFJK, PRISM(SPDF).
 Compute integral second derivatives, UseDBF=F ICtDFT=           0.
 Calling FoFJK, ICntrl=    100127 FMM=F ISym2X=0 I1Cent= 0 IOpClX= 0 NMat=1 NMatS=1 NMatT=0.
 FoFJK:  IHMeth= 1 ICntrl=  100127 DoSepK=F KAlg= 0 I1Cent=           0 FoldK=F
 IRaf=         0 NMat=       1 IRICut=       1 DoRegI=T DoRafI=F ISym2E= 0 IDoP0=0 IntGTp=1.
 FoFCou: FMM=F IPFlag=           0 FMFlag=      100000 FMFlg1=         800
         NFxFlg=           0 DoJE=F BraDBF=F KetDBF=F FulRan=T
         wScrn=  0.000000 ICntrl=    100127 IOpCl=  0 I1Cent=           0 NGrid=           0
         NMat0=    1 NMatS0=      1 NMatT0=    0 NMatD0=    1 NMtDS0=    0 NMtDT0=    0
 Symmetry not used in FoFCou.
 Leave Link  703 at Sat May 24 05:15:00 2025, MaxMem=  3758096384 cpu:             673.8 elap:              84.7
 (Enter /apps/easybuild-2022/easybuild/software/Compiler/NVHPC/22.11-CUDA-11.7.0/Gaussian/g16c01-CUDA-11.7.0/g16/l716.exe)
 Dipole        =-1.42047992D+00 6.61776899D-01-6.81544748D-01
 Polarizability= 5.77052418D+01-1.92875506D+00 4.68667389D+01
                -4.42133056D+00-1.44133328D+00 4.89694467D+01
 -------------------------------------------------------------------
 Center     Atomic                   Forces (Hartrees/Bohr)
 Number     Number              X              Y              Z
 -------------------------------------------------------------------
      1        6           0.001096774    0.002147986    0.004433755
      2        8           0.000960083   -0.001439513   -0.001847101
      3        6           0.000590867    0.000184347    0.000114168
      4        6           0.000398601   -0.000271576   -0.001321820
      5        9           0.000054278   -0.000620651   -0.000267664
      6        9          -0.000549733    0.000100257   -0.000521611
      7        9          -0.000832506    0.000068125    0.000510783
      8        9           0.000354313   -0.000065058    0.000523954
      9        9          -0.000900440    0.000742369   -0.000564230
     10        8          -0.005165054   -0.000633576   -0.002377749
     11        1           0.003992817   -0.000212711    0.001317513
 -------------------------------------------------------------------
 Cartesian Forces:  Max     0.005165054 RMS     0.001640404
 Force constants in Cartesian coordinates: 
                1             2             3             4             5 
      1  0.406552D+00
      2 -0.884112D-01  0.601563D+00
      3  0.159287D+00 -0.217023D+00  0.271306D+00
      4 -0.203985D+00  0.168668D+00 -0.143202D+00  0.245775D+00
      5  0.146254D+00 -0.314639D+00  0.169419D+00 -0.218463D+00  0.376331D+00
      6 -0.143050D+00  0.198020D+00 -0.212521D+00  0.193242D+00 -0.243259D+00
      7 -0.704191D-01 -0.432555D-01 -0.107254D+00 -0.521577D-01  0.344552D-01
      8 -0.366537D-01 -0.314470D-01 -0.607782D-02  0.343405D-01 -0.200333D-01
[...]
     33  0.525207D-02 -0.241479D-02  0.797039D-02 -0.107993D-02  0.726008D-03
                6             7             8             9            10 
      6  0.267063D+00
      7  0.143081D-02  0.594073D+00
      8  0.204325D-01  0.435304D-01  0.655712D+00
      9  0.133716D-01  0.125296D+00 -0.189217D+00  0.254501D+00
     10 -0.447143D-01  0.291552D-01  0.132978D-01  0.346811D-01  0.571988D+00
     11  0.146780D-01  0.406322D-01  0.296236D-01 -0.988442D-02 -0.472767D-02
     12 -0.383152D-01  0.966264D-01 -0.343402D-02 -0.100834D-01 -0.398877D-01
     13  0.383390D-02 -0.101428D-01 -0.618145D-02 -0.886474D-03 -0.858947D-01
     14 -0.291336D-02 -0.157547D-01 -0.183982D-01 -0.103002D-01 -0.612725D-01
     15  0.657328D-03 -0.820236D-02 -0.298120D-02 -0.857566D-02 -0.921728D-02
     16 -0.831033D-03 -0.162439D-01  0.163381D-02 -0.867916D-02 -0.129688D+00
     17  0.359125D-03  0.374724D-02 -0.414167D-02  0.734802D-02  0.555735D-01
     18 -0.158560D-01 -0.152255D-01 -0.479898D-02 -0.190166D-01 -0.869822D-01
     19 -0.222314D-02  0.162911D-01  0.443408D-02  0.488000D-02 -0.305052D+00
     20  0.216301D-03 -0.661588D-02 -0.483455D-02 -0.203409D-02 -0.308595D-02
     21  0.501768D-02 -0.246822D-01 -0.513769D-02 -0.842599D-02  0.991242D-01
     22 -0.652390D-02 -0.193653D+00 -0.157497D+00  0.404245D-01 -0.818087D-02
     23 -0.209889D-01 -0.171937D+00 -0.364788D+00  0.909933D-01 -0.178413D-01
     24 -0.371713D-02  0.243594D-01  0.805413D-01 -0.677409D-01 -0.322644D-02
     25 -0.661610D-02 -0.291843D+00  0.153915D+00 -0.107383D+00 -0.128620D-01
     26  0.390703D-02  0.142742D+00 -0.205341D+00  0.104447D+00  0.975763D-02
     27 -0.128149D-01 -0.126967D+00  0.110378D+00 -0.107268D+00 -0.150218D-01
     28 -0.263069D-02 -0.206860D-01 -0.419384D-01 -0.449217D-02 -0.652265D-02
     29  0.242547D-01 -0.112379D-01 -0.241349D-01  0.949160D-02 -0.207386D-01
     30  0.698622D-02  0.190470D-01  0.115054D-02 -0.699290D-03 -0.136263D-01
     31 -0.764685D-03 -0.391828D-02 -0.201204D-02  0.656516D-03  0.282591D-02
     32  0.249339D-02  0.119835D-02 -0.641659D-02 -0.226859D-02 -0.295809D-02
     33 -0.451393D-02  0.226457D-02  0.424599D-02 -0.233605D-02 -0.482639D-02
               11            12            13            14            15 
     11  0.543604D+00
     12 -0.417148D-01  0.442141D+00
     13 -0.508158D-01 -0.140516D-02  0.110924D+00
     14 -0.292639D+00 -0.305494D-01  0.949990D-01  0.404171D+00
     15 -0.314709D-01 -0.815901D-01  0.359575D-03 -0.961377D-03  0.708716D-01
     16  0.558736D-01 -0.743688D-01  0.138500D-01  0.124333D-01 -0.175261D-02
     17 -0.121700D+00  0.720585D-01  0.223180D-01 -0.649341D-01  0.447894D-01
     18  0.746190D-01 -0.190661D+00 -0.189260D-02  0.229132D-01  0.266307D-02
     19 -0.110892D-01  0.873475D-01 -0.404831D-01 -0.413058D-01  0.136258D-01
     20 -0.734153D-01  0.311289D-02 -0.606392D-01 -0.197314D-01  0.175805D-01
     21  0.749163D-02 -0.104455D+00  0.519972D-02  0.818835D-02  0.113756D-01
     22 -0.890217D-02 -0.115863D-01  0.137725D-02  0.508299D-02  0.358372D-02
     23 -0.244516D-01 -0.244843D-01  0.804351D-02  0.117242D-01  0.780830D-03
     24  0.111412D-02 -0.499508D-03  0.277227D-02  0.247497D-02 -0.124653D-02
     25 -0.544232D-02 -0.183453D-01  0.244137D-02  0.383283D-02  0.310426D-02
     26  0.253576D-02  0.171597D-01 -0.146694D-02 -0.128038D-02 -0.222917D-02
     27 -0.556446D-02 -0.202570D-01  0.213985D-02  0.435159D-02  0.360172D-02
     28 -0.705574D-02  0.111675D-01  0.334828D-03 -0.463268D-02 -0.442861D-02
     29 -0.362828D-01 -0.319918D-02  0.280893D-03 -0.559177D-02 -0.736051D-02
     30 -0.166094D-01 -0.871406D-02  0.100290D-02 -0.520146D-02 -0.321709D-02
     31  0.109988D-02 -0.137161D-02 -0.114420D-03  0.131840D-02  0.136502D-02
     32 -0.274459D-02  0.100944D-02  0.314677D-03 -0.842900D-03 -0.919325D-03
     33 -0.290832D-02  0.381562D-03  0.506372D-03 -0.334035D-03 -0.747390D-03
               16            17            18            19            20 
     16  0.191201D+00
     17 -0.104082D+00  0.177908D+00
     18  0.115276D+00 -0.118293D+00  0.193698D+00
     19 -0.720047D-01  0.244265D-01 -0.104584D-01  0.430194D+00
     20  0.301658D-01  0.662824D-02 -0.518244D-03  0.260732D-01  0.827059D-01
     21 -0.335918D-01  0.374169D-02  0.154194D-01 -0.992644D-01 -0.127302D-01
     22  0.265108D-02 -0.588325D-04  0.355481D-02 -0.262127D-02  0.168753D-02
     23  0.461276D-02  0.811224D-03  0.712937D-02 -0.625948D-02  0.396917D-02
     24  0.598627D-03 -0.116409D-02  0.146065D-02 -0.719807D-03  0.476605D-03
     25  0.588725D-02 -0.183805D-02  0.774566D-02 -0.313138D-02  0.130389D-02
     26 -0.481049D-02  0.217782D-02 -0.305281D-02  0.265385D-02 -0.590761D-03
     27  0.112113D-01 -0.546200D-02  0.613879D-02 -0.401305D-02  0.194634D-02
     28  0.707763D-03 -0.288744D-03 -0.117851D-02  0.727291D-02  0.271436D-02
     29 -0.312816D-03  0.405417D-02 -0.675551D-02  0.113676D-02  0.390111D-02
     30  0.177922D-02 -0.162494D-02  0.197617D-02 -0.383679D-02 -0.170246D-02
     31 -0.258383D-03  0.221816D-03  0.496000D-03 -0.109770D-02 -0.132252D-03
     32  0.484331D-03  0.270427D-03  0.875239D-03  0.100920D-02  0.265768D-03
     33  0.657448D-03 -0.173481D-03  0.671237D-05  0.163738D-02  0.779847D-03
               21            22            23            24            25 
     21  0.102990D+00
     22  0.420796D-02  0.163438D+00
     23  0.878109D-02  0.164766D+00  0.455580D+00
     24  0.176518D-02 -0.429274D-01 -0.138715D+00  0.663163D-01
     25  0.596280D-02  0.338179D-01  0.107461D-01 -0.157813D-02  0.266188D+00
     26 -0.417254D-02  0.291905D-01 -0.828125D-01  0.483755D-01 -0.190391D+00
     27  0.681234D-02 -0.811137D-02  0.316664D-01 -0.788926D-02  0.124428D+00
     28 -0.383976D-02 -0.116951D-01 -0.306001D-02  0.338586D-02  0.498548D-03
     29  0.700061D-03 -0.517214D-02 -0.627275D-02 -0.451934D-02 -0.915531D-02
     30  0.375461D-02 -0.237849D-02 -0.491383D-02  0.192444D-02  0.887189D-04
     31  0.429081D-03  0.254955D-03  0.669846D-03 -0.303097D-03  0.101971D-02
     32 -0.135454D-04 -0.146073D-02  0.188947D-03  0.141423D-02  0.115260D-02
     33 -0.361142D-03  0.273792D-02  0.120808D-02  0.344961D-03 -0.200066D-03
               26            27            28            29            30 
     26  0.286465D+00
     27 -0.150799D+00  0.104066D+00
     28 -0.163185D-02  0.446697D-02  0.525538D+00
     29  0.562480D-02 -0.749785D-02  0.105212D+00  0.343547D+00
     30  0.203608D-02 -0.134719D-02  0.228166D+00 -0.167727D-01  0.162803D+00
     31 -0.288751D-03  0.501623D-03 -0.413791D+00 -0.686422D-01 -0.197263D+00
     32  0.573042D-03  0.700278D-03 -0.249592D-01 -0.431249D-01 -0.364166D-02
     33  0.189595D-03 -0.327602D-03 -0.208533D+00 -0.262229D-01 -0.102090D+00
               31            32            33 
     31  0.425465D+00
     32  0.718699D-01  0.615002D-01
     33  0.201584D+00  0.249041D-01  0.101673D+00
 Red2BG is reusing G-inverse.
 Leave Link  716 at Sat May 24 05:34:59 2025, MaxMem=  3758096384 cpu:               0.0 elap:               0.0
 (Enter /apps/easybuild-2022/easybuild/software/Compiler/NVHPC/22.11-CUDA-11.7.0/Gaussian/g16c01-CUDA-11.7.0/g16/l9999.exe)

 ----------------------------------------------------------------------

 Electric dipole moment (input orientation):
 (Debye = 10**-18 statcoulomb cm , SI units = C m)
                  (au)            (Debye)         (10**-30 SI)
   Tot        0.141367D+01      0.359320D+01      0.119856D+02
   x         -0.128107D+01     -0.325615D+01     -0.108613D+02
   y          0.582140D+00      0.147965D+01      0.493559D+01
   z          0.135824D+00      0.345231D+00      0.115157D+01

 Dipole polarizability, Alpha (input orientation).
 (esu units = cm**3 , SI units = C**2 m**2 J**-1)
 Alpha(0;0):
               (au)            (10**-24 esu)      (10**-40 SI)
   iso        0.511315D+02      0.757690D+01      0.843044D+01
   aniso      0.142139D+02      0.210628D+01      0.234356D+01
   xx         0.591288D+02      0.876199D+01      0.974903D+01
   yx        -0.165489D+01     -0.245229D+00     -0.272854D+00
   yy         0.461112D+02      0.683298D+01      0.760272D+01
   zx        -0.394505D+01     -0.584596D+00     -0.650450D+00
   zy        -0.176682D+00     -0.261815D-01     -0.291309D-01
   zz         0.481544D+02      0.713574D+01      0.793958D+01

 ----------------------------------------------------------------------

 Dipole orientation:
     6          0.51639179          1.28655334         -2.56196382
     8          1.58956471          0.02487972         -4.20545481
     6         -0.07746635          0.02306052          0.02362489
     6         -2.64664957          1.57068756         -3.22203046
     9         -3.72078226         -0.67083316         -3.55198502
     9         -3.99942633          2.85520787         -1.52618460
     9         -2.67535453          2.82077530         -5.36791402
     9         -0.52045714         -2.31504011          0.12416247
     9         -0.84947161          1.17116985          1.97189113
     8          1.23591019          3.76021934         -1.98580531
     1          2.43580574          4.18475389         -3.28987016

 Electric dipole moment (dipole orientation):
 (Debye = 10**-18 statcoulomb cm , SI units = C m)
                  (au)            (Debye)         (10**-30 SI)
   Tot        0.141367D+01      0.359320D+01      0.119856D+02
   x          0.000000D+00      0.000000D+00      0.000000D+00
   y          0.000000D+00      0.000000D+00      0.000000D+00
   z          0.141367D+01      0.359320D+01      0.119856D+02

 Dipole polarizability, Alpha (dipole orientation).
 (esu units = cm**3 , SI units = C**2 m**2 J**-1)
 Alpha(0;0):
               (au)            (10**-24 esu)      (10**-40 SI)
   iso        0.511315D+02      0.757690D+01      0.843044D+01
   aniso      0.142139D+02      0.210628D+01      0.234356D+01
   xx         0.464230D+02      0.687918D+01      0.765412D+01
   yx        -0.111387D+01     -0.165058D+00     -0.183652D+00
   yy         0.482432D+02      0.714891D+01      0.795423D+01
   zx         0.632013D+00      0.936546D-01      0.104205D+00
   zy        -0.464698D+01     -0.688611D+00     -0.766183D+00
   zz         0.587282D+02      0.870262D+01      0.968297D+01

 ----------------------------------------------------------------------
 Unable to Open any file for archive entry.
 1\1\GINC-SPARTAN-BM168\Freq\RM062X\def2TZVPP\C3H1F5O2\AKHALILOV\24-May
 -2025\0\\#P M062X/Def2TZVPP Symm(None) scf(xqc) pop(None) opt(NoFreeze
 ,TS,CalcAll,NoEigentest,MaxCycle=999)\\Gaussian input prepared by ASE\
 \0,1\C,1.5288809786,0.1102396444,-0.1629815668\O,2.232117485,-0.618909
 194,0.5430205122\C,-0.0174551111,0.0015068769,-0.0409721735\C,1.476827
 9708,-0.4763577158,-1.7752608036\F,1.0886698567,-1.7444274651,-1.81867
 31907\F,0.7154947572,0.2240456107,-2.6176606783\F,2.7272718603,-0.3899
 661463,-2.1705368885\F,-0.5456915943,-1.1022475853,0.2612062481\F,-0.8
 473349668,0.8005300693,-0.562309871\O,1.7937368201,1.4719129119,-0.327
 6901414\H,2.654811763,1.5938151134,0.0888941096\\Version=ES64L-G16RevC
 .01\HF=-764.5291007\RMSD=9.442e-09\RMSF=8.075e-06\ZeroPoint=0.0484466\
 Thermal=0.0575577\ETot=-764.471543\HTot=-764.4705988\GTot=-764.5155302
 \Dipole=-1.2810682,0.58214,0.1358242\DipoleDeriv=1.0339367,0.0317729,0
 .7607738,0.2655692,1.34463,-0.3723725,1.3405195,-0.2488799,0.5614063,-
 0.7982783,0.1807516,-0.4047865,0.2212944,-0.8237586,0.2932725,-0.67434
 98,0.2851236,-0.7870058,1.7625615,-0.1323764,-0.5175551,0.3025502,1.37
 66977,-0.5885972,0.3726267,-0.5946004,0.4708107,1.1372314,0.0015761,0.
 0916748,-0.3455189,1.5936504,0.1532323,-0.6001635,0.0182649,1.7825055,
 -0.2424787,-0.1728361,-0.0366908,-0.0569326,-0.9194839,-0.2415792,0.04
 15035,-0.1686212,-0.4372116,-0.3502355,0.1606813,-0.3089471,0.1472489,
 -0.4154316,0.197613,-0.1400622,0.1689622,-0.8959124,-0.9400523,-0.0138
 54,0.3140892,0.0559628,-0.2723823,-0.0742671,0.454708,-0.0397728,-0.55
 88758,-0.5584078,-0.3421718,0.2357821,-0.7307914,-0.5996092,0.5272297,
 -0.0621619,0.1975141,-0.0683604,-0.9165625,0.4625892,-0.0611236,0.4161
 064,-0.4703088,0.0702094,-0.6194313,0.367706,0.0428531,-0.4457985,-0.2
 482776,-0.0646701,-0.3592797,-1.1402721,0.0002029,-0.0965571,-0.018326
 2,-0.4089873,0.3180841,0.0721447,-0.0085466,0.0837908,0.3262683,0.0350
 562,-0.0166319,0.0326296,0.2987777\Polar=59.1288254,-1.6548898,46.1112
 344,-3.9450474,-0.1766817,48.1543548\PG=Unknown\NImag=1\\0.42535948,-0
 .04702132,0.55740032,0.19719854,-0.19809915,0.28790651,-0.22544141,0.1
 4934312,-0.16044175,0.28153654,0.12212932,-0.25386853,0.14939475,-0.20
 598672,0.29728733,-0.15347826,0.16919321,-0.21787908,0.21251741,-0.211
 63207,0.26706338,-0.04832705,-0.06047376,-0.09394726,-0.05470505,0.034
 16871,0.00143081,0.59407264,-0.04091406,-0.04261355,-0.01118018,0.0317
 3230,-0.01466767,0.02043253,0.04353036,0.65571243,-0.06278451,0.002151
 20,-0.04372689,-0.02171333,-0.00072713,0.01337156,0.12529633,-0.189216
 70,0.25450078,-0.03630446,0.02333604,0.08369725,-0.01946525,0.00865919
 ,-0.04471430,0.02915522,0.01329780,0.03468109,0.57198812,-0.02592917,-
 0.01600081,0.01024954,0.01635639,-0.00852937,0.01467798,0.04063223,0.0
 2962356,-0.00988442,-0.00472767,0.54360401,-0.03799782,-0.00282988,0.0
 1205321,-0.01017876,0.01287104,-0.03831518,0.09662636,-0.00343402,-0.0
 1008338,-0.03988767,-0.04171481,0.44214118,0.00589822,-0.00668498,-0.0
 1163036,0.00180919,-0.00016774,0.00383390,-0.01014282,-0.00618145,-0.0
 0088647,-0.08589466,-0.05081580,-0.00140516,0.11092410,0.01080018,-0.0
 2428523,0.01233176,-0.00550107,0.01180815,-0.00291336,-0.01575465,-0.0
 1839824,-0.01030018,-0.06127249,-0.29263909,-0.03054943,0.09499900,0.4
 0417081,0.00277236,-0.01889509,0.00620750,-0.00120986,0.00166684,0.000
 65733,-0.00820236,-0.00298120,-0.00857566,-0.00921728,-0.03147087,-0.0
 8159009,0.00035958,-0.00096138,0.07087155,0.00542998,0.00361545,-0.010
 29928,-0.00153184,0.00038624,-0.00083103,-0.01624389,0.00163381,-0.008
 67916,-0.12968781,0.05587361,-0.07436875,0.01385000,0.01243334,-0.0017
 5261,0.19120054,0.00029820,-0.00318205,-0.00157898,-0.00031763,0.00210
 812,0.00035913,0.00374724,-0.00414167,0.00734802,0.05557347,-0.1216997
 7,0.07205855,0.02231800,-0.06493412,0.04478941,-0.10408200,0.17790760,
 -0.00086273,0.02554311,0.00417061,-0.01047246,0.00233894,-0.01585596,-
 0.01522551,-0.00479898,-0.01901658,-0.08698225,0.07461903,-0.19066120,
 -0.00189260,0.02291316,0.00266307,0.11527597,-0.11829330,0.19369839,-0
 .04205401,0.00244482,0.01302499,0.01268533,-0.00352389,-0.00222314,0.0
 1629112,0.00443408,0.00488000,-0.30505156,-0.01108923,0.08734745,-0.04
 048305,-0.04130584,0.01362579,-0.07200470,0.02442652,-0.01045839,0.430
 19432,0.01213216,-0.00188443,-0.00712740,-0.00360365,0.00298635,0.0002
 1630,-0.00661588,-0.00483455,-0.00203409,-0.00308595,-0.07341533,0.003
 11289,-0.06063917,-0.01973142,0.01758045,0.03016575,0.00662824,-0.0005
 1824,0.02607320,0.08270586,0.04879653,-0.00594236,-0.03389258,-0.00234
 209,-0.00090645,0.00501768,-0.02468222,-0.00513769,-0.00842599,0.09912
 418,0.00749163,-0.10445550,0.00519972,0.00818835,0.01137558,-0.0335917
 6,0.00374169,0.01541936,-0.09926444,-0.01273025,0.10299047,0.01344394,
 -0.03294537,0.01701858,0.00116669,0.00530926,-0.00652390,-0.19365258,-
 0.15749739,0.04042446,-0.00818087,-0.00890217,-0.01158632,0.00137725,0
 .00508299,0.00358372,0.00265108,-0.00005883,0.00355481,-0.00262127,0.0
 0168753,0.00420796,0.16343802,0.00947192,-0.00368784,0.04854270,0.0007
 8695,0.00973948,-0.02098885,-0.17193662,-0.36478826,0.09099332,-0.0178
 4133,-0.02445156,-0.02448427,0.00804351,0.01172419,0.00078083,0.004612
 76,0.00081122,0.00712937,-0.00625948,0.00396917,0.00878109,0.16476633,
 0.45557990,0.01726259,0.00943118,0.00928184,0.00037610,0.00057036,-0.0
 0371713,0.02435939,0.08054133,-0.06774090,-0.00322644,0.00111412,-0.00
 049951,0.00277227,0.00247497,-0.00124653,0.00059863,-0.00116409,0.0014
 6065,-0.00071981,0.00047661,0.00176518,-0.04292736,-0.13871486,0.06631
 625,0.01500155,0.03321031,-0.00720756,-0.01701722,0.00266557,-0.006616
 10,-0.29184328,0.15391501,-0.10738274,-0.01286199,-0.00544232,-0.01834
 527,0.00244137,0.00383283,0.00310426,0.00588725,-0.00183805,0.00774566
 ,-0.00313138,0.00130389,0.00596280,0.03381793,0.01074612,-0.00157813,0
 .26618752,0.01606774,-0.01191976,-0.01586120,-0.00182294,0.00456729,0.
 00390703,0.14274189,-0.20534060,0.10444696,0.00975763,0.00253576,0.017
 15969,-0.00146694,-0.00128038,-0.00222917,-0.00481049,0.00217782,-0.00
 305281,0.00265385,-0.00059076,-0.00417254,0.02919053,-0.08281251,0.048
 37549,-0.19039066,0.28646530,0.01730637,0.01621284,0.02928457,-0.00594
 120,0.00406756,-0.01281490,-0.12696708,0.11037837,-0.10726761,-0.01502
 185,-0.00556446,-0.02025704,0.00213985,0.00435159,0.00360172,0.0112113
 2,-0.00546200,0.00613879,-0.00401305,0.00194634,0.00681234,-0.00811137
 ,0.03166643,-0.00788926,0.12442842,-0.15079910,0.10406619,-0.10390566,
 -0.05446616,-0.02208304,0.02224868,0.03010650,-0.00263069,-0.02068603,
 -0.04193843,-0.00449217,-0.00652265,-0.00705574,0.01116755,0.00033483,
 -0.00463268,-0.00442861,0.00070776,-0.00028874,-0.00117851,0.00727291,
 0.00271436,-0.00383976,-0.01169514,-0.00306001,0.00338586,0.00049855,-
 0.00163185,0.00446697,0.52553760,-0.00341178,-0.18443282,0.03788169,0.
 01204111,-0.05728702,0.02425471,-0.01123785,-0.02413486,0.00949160,-0.
 02073860,-0.03628283,-0.00319918,0.00028089,-0.00559177,-0.00736051,-0
 .00031282,0.00405417,-0.00675551,0.00113676,0.00390111,0.00070006,-0.0
 0517214,-0.00627275,-0.00451934,-0.00915531,0.00562480,-0.00749785,0.1
 0521198,0.34354687,-0.03346514,0.00564974,-0.06137609,0.00048588,0.041
 63015,0.00698622,0.01904698,0.00115054,-0.00069929,-0.01362633,-0.0166
 0941,-0.00871406,0.00100290,-0.00520146,-0.00321709,0.00177922,-0.0016
 2494,0.00197617,-0.00383679,-0.00170246,0.00375461,-0.00237849,-0.0049
 1383,0.00192444,0.00008872,0.00203608,-0.00134719,0.22816578,-0.016772
 74,0.16280256,-0.00910058,-0.01035815,-0.00533012,-0.00128566,0.006253
 56,-0.00076468,-0.00391828,-0.00201204,0.00065652,0.00282591,0.0010998
 8,-0.00137161,-0.00011442,0.00131840,0.00136502,-0.00025838,0.00022182
 ,0.00049600,-0.00109770,-0.00013225,0.00042908,0.00025495,0.00066985,-
 0.00030310,0.00101971,-0.00028875,0.00050162,-0.41379086,-0.06864225,-
 0.19726273,0.42546531,-0.05362318,-0.01552532,-0.02455352,0.00697213,0
 .00585587,0.00249339,0.00119835,-0.00641659,-0.00226859,-0.00295809,-0
 .00274459,0.00100944,0.00031468,-0.00084290,-0.00091932,0.00048433,0.0
 0027043,0.00087524,0.00100920,0.00026577,-0.00001355,-0.00146073,0.000
 18895,0.00141423,0.00115260,0.00057304,0.00070028,-0.02495923,-0.04312
 492,-0.00364166,0.07186994,0.06150025,0.00525207,-0.00241479,0.0079703
 9,-0.00107993,0.00072601,-0.00451393,0.00226457,0.00424599,-0.00233605
 ,-0.00482639,-0.00290832,0.00038156,0.00050637,-0.00033404,-0.00074739
 ,0.00065745,-0.00017348,0.00000671,0.00163738,0.00077985,-0.00036114,0
 .00273792,0.00120808,0.00034496,-0.00020007,0.00018960,-0.00032760,-0.
 20853339,-0.02622295,-0.10209028,0.20158400,0.02490406,0.10167277\\-0.
 00001234,-0.00000546,-0.00003187,-0.00000006,-0.00000133,0.00000391,-0
 .00000287,0.00000944,0.00002099,0.00000961,0.00000280,0.00001013,-0.00
 000314,0.00000272,0.00000325,0.00000190,-0.00000071,0.00000179,-0.0000
 0114,-0.00000356,-0.00000079,-0.00000009,0.00000423,-0.00000491,0.0000
 0631,-0.00000161,-0.00000498,0.00000148,-0.00000173,-0.00000048,0.0000
 0034,-0.00000479,0.00000297\\\@
 The archive entry for this job was punched.


 The impersonal hand of government can
 never replace the helping hand of a neighbor.
                        -- Hubert H. Humphrey
 Job cpu time:       0 days  3 hours 28 minutes 24.3 seconds.
 Elapsed time:       0 days  0 hours 27 minutes 42.1 seconds.
 File lengths (MBytes):  RWF=    123 Int=      0 D2E=      0 Chk=      9 Scr=      1
 Normal termination of Gaussian 16 at Sat May 24 05:35:00 2025.
done
