 Entering Gaussian System, Link 0=g16
 Initial command:
 /apps/easybuild-2022/easybuild/software/Compiler/NVHPC/22.11-CUDA-11.7.0/Gaussian/g16c01-CUDA-11.7.0/g16/l1.exe "/tmp/Gau-269645.inp" -scrdir="/tmp/"
 Entering Link 1 = /apps/easybuild-2022/easybuild/software/Compiler/NVHPC/22.11-CUDA-11.7.0/Gaussian/g16c01-CUDA-11.7.0/g16/l1.exe PID=    269646.
  
 Copyright (c) 1988-2019, Gaussian, Inc.  All Rights Reserved.
  
 This is part of the Gaussian(R) 16 program.  It is based on
 the Gaussian(R) 09 system (copyright 2009, Gaussian, Inc.),
 the Gaussian(R) 03 system (copyright 2003, Gaussian, Inc.),
 the Gaussian(R) 98 system (copyright 1998, Gaussian, Inc.),
 the Gaussian(R) 94 system (copyright 1995, Gaussian, Inc.),
 the Gaussian 92(TM) system (copyright 1992, Gaussian, Inc.),
 the Gaussian 90(TM) system (copyright 1990, Gaussian, Inc.),
 the Gaussian 88(TM) system (copyright 1988, Gaussian, Inc.),
 the Gaussian 86(TM) system (copyright 1986, Carnegie Mellon
 University), and the Gaussian 82(TM) system (copyright 1983,
 Carnegie Mellon University). Gaussian is a federally registered
 trademark of Gaussian, Inc.
  
 This software contains proprietary and confidential information,
 including trade secrets, belonging to Gaussian, Inc.
  
 This software is provided under written license and may be
 used, copied, transmitted, or stored only in accord with that
 written license.
  
 The following legend is applicable only to US Government
 contracts under FAR:
  
                    RESTRICTED RIGHTS LEGEND
  
 Use, reproduction and disclosure by the US Government is
 subject to restrictions as set forth in subparagraphs (a)
 and (c) of the Commercial Computer Software - Restricted
 Rights clause in FAR 52.227-19.
  
 Gaussian, Inc.
 340 Quinnipiac St., Bldg. 40, Wallingford CT 06492
  
  
 ---------------------------------------------------------------
 Warning -- This program may not be used in any manner that
 competes with the business of Gaussian, Inc. or will provide
 assistance to any competitor of Gaussian, Inc.  The licensee
 of this program is prohibited from giving any competitor of
 Gaussian, Inc. access to this program.  By using this program,
 the user acknowledges that Gaussian, Inc. is engaged in the
 business of creating and licensing software in the field of
 computational chemistry and represents and warrants to the
 licensee that it is not a competitor of Gaussian, Inc. and that
 it will not use this program in any manner prohibited above.
 ---------------------------------------------------------------
  

 Cite this work as:
 Gaussian 16, Revision C.01,
 M. J. Frisch, G. W. Trucks, H. B. Schlegel, G. E. Scuseria, 
 M. A. Robb, J. R. Cheeseman, G. Scalmani, V. Barone, 
 G. A. Petersson, H. Nakatsuji, X. Li, M. Caricato, A. V. Marenich, 
 J. Bloino, B. G. Janesko, R. Gomperts, B. Mennucci, H. P. Hratchian, 
 J. V. Ortiz, A. F. Izmaylov, J. L. Sonnenberg, D. Williams-Young, 
 F. Ding, F. Lipparini, F. Egidi, J. Goings, B. Peng, A. Petrone, 
 T. Henderson, D. Ranasinghe, V. G. Zakrzewski, J. Gao, N. Rega, 
 G. Zheng, W. Liang, M. Hada, M. Ehara, K. Toyota, R. Fukuda, 
 J. Hasegawa, M. Ishida, T. Nakajima, Y. Honda, O. Kitao, H. Nakai, 
 T. Vreven, K. Throssell, J. A. Montgomery, Jr., J. E. Peralta, 
 F. Ogliaro, M. J. Bearpark, J. J. Heyd, E. N. Brothers, K. N. Kudin, 
 V. N. Staroverov, T. A. Keith, R. Kobayashi, J. Normand, 
 K. Raghavachari, A. P. Rendell, J. C. Burant, S. S. Iyengar, 
 J. Tomasi, M. Cossi, J. M. Millam, M. Klene, C. Adamo, R. Cammi, 
 J. W. Ochterski, R. L. Martin, K. Morokuma, O. Farkas, 
 J. B. Foresman, and D. J. Fox, Gaussian, Inc., Wallingford CT, 2019.
 
 ******************************************
 Gaussian 16:  ES64L-G16RevC.01  3-Jul-2019
                24-May-2025 
 ******************************************
 %mem=28GB
 %nprocshared=8
 Will use up to    8 processors via shared memory.
 ----------------------------------------------------------------------
 #P M062X/Def2TZVPP Symm(None) scf(xqc) pop(None) opt(NoFreeze,TS,CalcA
 ll,NoEigentest,MaxCycle=999)
 ----------------------------------------------------------------------
 1/5=1,6=999,10=4,11=1,18=20,26=3,29=2000,38=1/1,3;
 2/9=110,12=2,15=3,17=6,18=5,40=1/2;
 3/5=44,7=202,11=2,25=1,30=1,71=2,74=-55,140=1/1,2,3;
 4//1;
 5/5=2,8=3,13=1,38=5/2,8;
 8/6=4,10=90,11=11/1;
 11/6=1,8=1,9=11,15=111,16=1,31=1/1,2,10;
 10/6=1,31=1/2;
 7/10=1,25=1,30=1/1,2,3,16;
 1/5=1,6=999,10=4,11=1,18=20,26=3/3(3);
 2/9=110,15=3/2;
 7/8=1,9=1,25=1,30=1,44=-1/16;
 99//99;
 2/9=110,15=3/2;
 3/5=44,7=202,11=2,25=1,30=1,71=2,74=-55,140=1/1,2,3;
 4/5=5,16=3,69=1/1;
 5/5=2,8=3,13=1,38=5/2,8;
 8/6=4,10=90,11=11/1;
 11/6=1,8=1,9=11,15=111,16=1,31=1/1,2,10;
 10/6=1,31=1/2;
 7/10=1,25=1,30=1/1,2,3,16;
 1/5=1,6=999,10=4,11=1,18=20,26=3/3(-8);
 2/9=110,15=3/2;
 7/8=1,9=1,25=1,30=1,44=-1/16;
 99//99;
 Leave Link    1 at Sat May 24 06:11:29 2025, MaxMem=  3758096384 cpu:               0.1 elap:               0.0
 (Enter /apps/easybuild-2022/easybuild/software/Compiler/NVHPC/22.11-CUDA-11.7.0/Gaussian/g16c01-CUDA-11.7.0/g16/l101.exe)
 ------------------------------
 Gaussian input prepared by ASE
 ------------------------------
 Symbolic Z-matrix:
 Charge =  0 Multiplicity = 1
 C                     1.39267   0.        0. 
 O                     0.9721   -0.42586  -1.31141 
 C                     1.92256   1.4195    0. 
 C                     1.02208   2.39632  -0.77459 
 F                     1.51024   3.62549  -0.68552 
 F                     0.96481   2.04946  -2.05026 
 F                    -0.20587   2.38618  -0.2691 
 F                     2.06125   1.90267   1.27325 
 F                     3.14885   1.43539  -0.54146 
 O                     0.        0.        0. 
 H                    -0.386     0.891    -0.19627 
 
 ITRead=  0  0  0  0  0  0  0  0  0  0  0
 MicOpt= -1 -1 -1 -1 -1 -1 -1 -1 -1 -1 -1
 NAtoms=     11 NQM=       11 NQMF=       0 NMMI=      0 NMMIF=      0
                NMic=       0 NMicF=      0.
                    Isotopes and Nuclear Properties:
 (Nuclear quadrupole moments (NQMom) in fm**2, nuclear magnetic moments (NMagM)
  in nuclear magnetons)

  Atom         1           2           3           4           5           6           7           8           9          10
 IAtWgt=          12          16          12          12          19          19          19          19          19          16
 AtmWgt=  12.0000000  15.9949146  12.0000000  12.0000000  18.9984032  18.9984032  18.9984032  18.9984032  18.9984032  15.9949146
 NucSpn=           0           0           0           0           1           1           1           1           1           0
 AtZEff=  -0.0000000  -0.0000000  -0.0000000  -0.0000000  -0.0000000  -0.0000000  -0.0000000  -0.0000000  -0.0000000  -0.0000000
 NQMom=    0.0000000   0.0000000   0.0000000   0.0000000   0.0000000   0.0000000   0.0000000   0.0000000   0.0000000   0.0000000
 NMagM=    0.0000000   0.0000000   0.0000000   0.0000000   2.6288670   2.6288670   2.6288670   2.6288670   2.6288670   0.0000000
 AtZNuc=   6.0000000   8.0000000   6.0000000   6.0000000   9.0000000   9.0000000   9.0000000   9.0000000   9.0000000   8.0000000

  Atom        11
 IAtWgt=           1
 AtmWgt=   1.0078250
 NucSpn=           1
 AtZEff=  -0.0000000
 NQMom=    0.0000000
 NMagM=    2.7928460
 AtZNuc=   1.0000000
 Leave Link  101 at Sat May 24 06:11:29 2025, MaxMem=  3758096384 cpu:               0.2 elap:               0.2
 (Enter /apps/easybuild-2022/easybuild/software/Compiler/NVHPC/22.11-CUDA-11.7.0/Gaussian/g16c01-CUDA-11.7.0/g16/l103.exe)

 GradGradGradGradGradGradGradGradGradGradGradGradGradGradGradGradGradGrad
 Berny optimization.
 Initialization pass.
                           ----------------------------
                           !    Initial Parameters    !
                           ! (Angstroms and Degrees)  !
 --------------------------                            --------------------------
 ! Name  Definition              Value          Derivative Info.                !
 --------------------------------------------------------------------------------
 ! R1    R(1,2)                  1.4415         calculate D2E/DX2 analytically  !
 ! R2    R(1,3)                  1.5152         calculate D2E/DX2 analytically  !
 ! R3    R(1,10)                 1.3927         calculate D2E/DX2 analytically  !
 ! R4    R(3,4)                  1.5379         calculate D2E/DX2 analytically  !
 ! R5    R(3,8)                  1.3689         calculate D2E/DX2 analytically  !
 ! R6    R(3,9)                  1.3406         calculate D2E/DX2 analytically  !
 ! R7    R(4,5)                  1.3256         calculate D2E/DX2 analytically  !
 ! R8    R(4,6)                  1.3232         calculate D2E/DX2 analytically  !
 ! R9    R(4,7)                  1.328          calculate D2E/DX2 analytically  !
 ! R10   R(10,11)                0.9907         calculate D2E/DX2 analytically  !
 ! A1    A(2,1,3)              112.2592         calculate D2E/DX2 analytically  !
 ! A2    A(2,1,10)              73.0371         calculate D2E/DX2 analytically  !
 ! A3    A(3,1,10)             110.4703         calculate D2E/DX2 analytically  !
 ! A4    A(1,3,4)              112.9726         calculate D2E/DX2 analytically  !
 ! A5    A(1,3,8)              111.4756         calculate D2E/DX2 analytically  !
 ! A6    A(1,3,9)              109.3296         calculate D2E/DX2 analytically  !
 ! A7    A(4,3,8)              107.6753         calculate D2E/DX2 analytically  !
 ! A8    A(4,3,9)              108.9447         calculate D2E/DX2 analytically  !
 ! A9    A(8,3,9)              106.1895         calculate D2E/DX2 analytically  !
 ! A10   A(3,4,5)              109.8472         calculate D2E/DX2 analytically  !
 ! A11   A(3,4,6)              110.1464         calculate D2E/DX2 analytically  !
 ! A12   A(3,4,7)              110.1734         calculate D2E/DX2 analytically  !
 ! A13   A(5,4,6)              108.8924         calculate D2E/DX2 analytically  !
 ! A14   A(5,4,7)              108.7858         calculate D2E/DX2 analytically  !
 ! A15   A(6,4,7)              108.9627         calculate D2E/DX2 analytically  !
 ! A16   A(1,10,11)            112.9321         calculate D2E/DX2 analytically  !
 ! D1    D(2,1,3,4)             46.2484         calculate D2E/DX2 analytically  !
 ! D2    D(2,1,3,8)            167.6581         calculate D2E/DX2 analytically  !
 ! D3    D(2,1,3,9)            -75.2438         calculate D2E/DX2 analytically  !
 ! D4    D(10,1,3,4)           -33.166          calculate D2E/DX2 analytically  !
 ! D5    D(10,1,3,8)            88.2437         calculate D2E/DX2 analytically  !
 ! D6    D(10,1,3,9)          -154.6582         calculate D2E/DX2 analytically  !
 ! D7    D(2,1,10,11)          -95.5676         calculate D2E/DX2 analytically  !
 ! D8    D(3,1,10,11)           12.4228         calculate D2E/DX2 analytically  !
 ! D9    D(1,3,4,5)            177.2629         calculate D2E/DX2 analytically  !
 ! D10   D(1,3,4,6)            -62.7969         calculate D2E/DX2 analytically  !
 ! D11   D(1,3,4,7)             57.4376         calculate D2E/DX2 analytically  !
 ! D12   D(8,3,4,5)             53.7292         calculate D2E/DX2 analytically  !
 ! D13   D(8,3,4,6)            173.6694         calculate D2E/DX2 analytically  !
 ! D14   D(8,3,4,7)            -66.0961         calculate D2E/DX2 analytically  !
 ! D15   D(9,3,4,5)            -61.0277         calculate D2E/DX2 analytically  !
 ! D16   D(9,3,4,6)             58.9125         calculate D2E/DX2 analytically  !
 ! D17   D(9,3,4,7)            179.147          calculate D2E/DX2 analytically  !
 --------------------------------------------------------------------------------
 Trust Radius=3.00D-01 FncErr=1.00D-07 GrdErr=1.00D-06 EigMax=2.50D+02 EigMin=1.00D-04
 Number of steps in this run=    100 maximum allowed number of steps=    100.
 Search for a saddle point of order  1.
 GradGradGradGradGradGradGradGradGradGradGradGradGradGradGradGradGradGrad

 Leave Link  103 at Sat May 24 06:11:29 2025, MaxMem=  3758096384 cpu:               0.1 elap:               0.0
 (Enter /apps/easybuild-2022/easybuild/software/Compiler/NVHPC/22.11-CUDA-11.7.0/Gaussian/g16c01-CUDA-11.7.0/g16/l202.exe)
                          Input orientation:                          
 ---------------------------------------------------------------------
 Center     Atomic      Atomic             Coordinates (Angstroms)
 Number     Number       Type             X           Y           Z
 ---------------------------------------------------------------------
      1          6           0        1.392672    0.000000    0.000000
      2          8           0        0.972101   -0.425860   -1.311408
      3          6           0        1.922563    1.419503    0.000000
      4          6           0        1.022080    2.396319   -0.774593
      5          9           0        1.510235    3.625494   -0.685520
      6          9           0        0.964812    2.049461   -2.050256
      7          9           0       -0.205866    2.386179   -0.269099
      8          9           0        2.061252    1.902666    1.273252
      9          9           0        3.148855    1.435387   -0.541455
     10          8           0        0.000000    0.000000    0.000000
     11          1           0       -0.385999    0.890998   -0.196270
 ---------------------------------------------------------------------
                    Distance matrix (angstroms):
                    1          2          3          4          5
     1  C    0.000000
     2  O    1.441536   0.000000
     3  C    1.515181   2.455307   0.000000
     4  C    2.545521   2.873214   1.537867   0.000000
     5  F    3.691607   4.134584   2.346561   1.325557   0.000000
     6  F    2.930342   2.583247   2.348976   1.323219   2.154964
     7  F    2.884716   3.222045   2.353102   1.327961   2.157385
     8  F    2.385018   3.645374   1.368887   2.348881   2.666185
     9  F    2.331886   2.965691   1.340603   2.345402   2.739050
    10  O    1.392672   1.687047   2.389820   2.717901   3.986848
    11  H    1.999017   2.195923   2.376405   2.140826   3.363412
                    6          7          8          9         10
     6  F    0.000000
     7  F    2.157867   0.000000
     8  F    3.502776   2.784323   0.000000
     9  F    2.724630   3.497475   2.166655   0.000000
    10  O    3.055275   2.410113   3.080596   3.502684   0.000000
    11  H    2.569824   1.507753   3.028532   3.593146   0.990653
                   11
    11  H    0.000000
 Symmetry turned off by external request.
 Stoichiometry    C3HF5O2
 Rotational constants (GHZ):           1.7884594           1.4109372           1.2124500
 Leave Link  202 at Sat May 24 06:11:29 2025, MaxMem=  3758096384 cpu:               0.0 elap:               0.0
 (Enter /apps/easybuild-2022/easybuild/software/Compiler/NVHPC/22.11-CUDA-11.7.0/Gaussian/g16c01-CUDA-11.7.0/g16/l301.exe)
 Standard basis: def2TZVPP (5D, 7F)
 Ernie: Thresh=  0.10000D-02 Tol=  0.10000D-05 Strict=F.
   324 basis functions,   527 primitive gaussians,   375 cartesian basis functions
    40 alpha electrons       40 beta electrons
       nuclear repulsion energy       653.7242576791 Hartrees.
 IExCor= 4336 DFT=T Ex+Corr=M062X ExCW=0 ScaHFX=  0.540000
 ScaDFX=  1.000000  1.000000  1.000000  1.000000 ScalE2=  1.000000  1.000000
 IRadAn=      5 IRanWt=     -1 IRanGd=            0 ICorTp=0 IEmpDi=  4
 NAtoms=   11 NActive=   11 NUniq=   11 SFac= 1.00D+00 NAtFMM=   60 NAOKFM=F Big=F
 Integral buffers will be    131072 words long.
 Raffenetti 2 integral format.
 Two-electron integral symmetry is turned off.
 Leave Link  301 at Sat May 24 06:11:29 2025, MaxMem=  3758096384 cpu:               0.1 elap:               0.0
 (Enter /apps/easybuild-2022/easybuild/software/Compiler/NVHPC/22.11-CUDA-11.7.0/Gaussian/g16c01-CUDA-11.7.0/g16/l302.exe)
 NPDir=0 NMtPBC=     1 NCelOv=     1 NCel=       1 NClECP=     1 NCelD=      1
         NCelK=      1 NCelE2=     1 NClLst=     1 CellRange=     0.0.
 One-electron integrals computed using PRISM.
   1 Symmetry operations used in ECPInt.
 ECPInt:  NShTT=    6786 NPrTT=   21959 LenC2=    6545 LenP2D=   16320.
 LDataN:  DoStor=T MaxTD1= 6 Len=  172
 NBasis=   324 RedAO= T EigKep=  2.02D-04  NBF=   324
 NBsUse=   324 1.00D-06 EigRej= -1.00D+00 NBFU=   324
 Precomputing XC quadrature grid using
 IXCGrd= 4 IRadAn=           5 IRanWt=          -1 IRanGd=           0 AccXCQ= 0.00D+00.
 Generated NRdTot=       0 NPtTot=           0 NUsed=           0 NTot=          32
 NSgBfM=   374   374   374   374   374 MxSgAt=    11 MxSgA2=    11.
 Leave Link  302 at Sat May 24 06:11:29 2025, MaxMem=  3758096384 cpu:               0.8 elap:               0.2
 (Enter /apps/easybuild-2022/easybuild/software/Compiler/NVHPC/22.11-CUDA-11.7.0/Gaussian/g16c01-CUDA-11.7.0/g16/l303.exe)
 DipDrv:  MaxL=1.
 Leave Link  303 at Sat May 24 06:11:29 2025, MaxMem=  3758096384 cpu:               0.1 elap:               0.0
 (Enter /apps/easybuild-2022/easybuild/software/Compiler/NVHPC/22.11-CUDA-11.7.0/Gaussian/g16c01-CUDA-11.7.0/g16/l401.exe)
 ExpMin= 9.52D-02 ExpMax= 3.55D+04 ExpMxC= 1.21D+03 IAcc=3 IRadAn=         5 AccDes= 0.00D+00
 Harris functional with IExCor= 1009 and IRadAn=       5 diagonalized for initial guess.
 HarFok:  IExCor= 1009 AccDes= 0.00D+00 IRadAn=         5 IDoV= 1 UseB2=F ITyADJ=14
 ICtDFT=  3500011 ScaDFX=  1.000000  1.000000  1.000000  1.000000
 FoFCou: FMM=F IPFlag=           0 FMFlag=      100000 FMFlg1=           0
         NFxFlg=           0 DoJE=T BraDBF=F KetDBF=T FulRan=T
         wScrn=  0.000000 ICntrl=       500 IOpCl=  0 I1Cent=   200000004 NGrid=           0
         NMat0=    1 NMatS0=      1 NMatT0=    0 NMatD0=    1 NMtDS0=    0 NMtDT0=    0
 Symmetry not used in FoFCou.
 Harris En= -763.901329588870    
 JPrj=0 DoOrth=F DoCkMO=F.
 Leave Link  401 at Sat May 24 06:11:30 2025, MaxMem=  3758096384 cpu:               3.8 elap:               0.6
 (Enter /apps/easybuild-2022/easybuild/software/Compiler/NVHPC/22.11-CUDA-11.7.0/Gaussian/g16c01-CUDA-11.7.0/g16/l502.exe)
 Keep R1 ints in memory in canonical form, NReq=1412617130.
 FoFCou: FMM=F IPFlag=           0 FMFlag=           0 FMFlg1=           0
         NFxFlg=           0 DoJE=F BraDBF=F KetDBF=F FulRan=T
         wScrn=  0.000000 ICntrl=       600 IOpCl=  0 I1Cent=           0 NGrid=           0
         NMat0=    1 NMatS0=  52650 NMatT0=    0 NMatD0=    1 NMtDS0=    0 NMtDT0=    0
 Symmetry not used in FoFCou.
 Two-electron integral symmetry not used.
 Closed shell SCF:
 Using DIIS extrapolation, IDIIS=  1040.
 NGot=  3758096384 LenX=  2371771924 LenY=  2371630858
 Requested convergence on RMS density matrix=1.00D-08 within  32 cycles.
 Requested convergence on MAX density matrix=1.00D-06.
 Requested convergence on             energy=1.00D-06.
 No special actions if energy rises.
 Integral accuracy reduced to 1.0D-05 until final iterations.

 Cycle   1  Pass 0  IDiag  1:
 E= -764.170779109233    
 DIIS: error= 1.78D-02 at cycle   1 NSaved=   1.
 NSaved= 1 IEnMin= 1 EnMin= -764.170779109233     IErMin= 1 ErrMin= 1.78D-02
 ErrMax= 1.78D-02  0.00D+00 EMaxC= 1.00D-01 BMatC= 3.35D-01 BMatP= 3.35D-01
 IDIUse=3 WtCom= 8.22D-01 WtEn= 1.78D-01
 Coeff-Com:  0.100D+01
 Coeff-En:   0.100D+01
 Coeff:      0.100D+01
 Gap=     0.109 Goal=   None    Shift=    0.000
 GapD=    0.109 DampG=1.000 DampE=0.500 DampFc=0.5000 IDamp=-1.
 Damping current iteration by 5.00D-01
 RMSDP=3.88D-03 MaxDP=2.90D-01              OVMax= 3.85D-01

 Cycle   2  Pass 0  IDiag  1:
 E= -764.200528075491     Delta-E=       -0.029748966259 Rises=F Damp=T
 DIIS: error= 8.41D-03 at cycle   2 NSaved=   2.
 NSaved= 2 IEnMin= 2 EnMin= -764.200528075491     IErMin= 2 ErrMin= 8.41D-03
 ErrMax= 8.41D-03  0.00D+00 EMaxC= 1.00D-01 BMatC= 8.14D-02 BMatP= 3.35D-01
 IDIUse=3 WtCom= 9.16D-01 WtEn= 8.41D-02
 Coeff-Com:  0.218D+00 0.782D+00
 Coeff-En:   0.426D+00 0.574D+00
 Coeff:      0.236D+00 0.764D+00
 Gap=     0.210 Goal=   None    Shift=    0.000
 RMSDP=1.33D-03 MaxDP=9.62D-02 DE=-2.97D-02 OVMax= 3.97D-01

 Cycle   3  Pass 0  IDiag  1:
 E= -764.319508610735     Delta-E=       -0.118980535244 Rises=F Damp=F
 DIIS: error= 9.34D-03 at cycle   3 NSaved=   3.
 NSaved= 3 IEnMin= 3 EnMin= -764.319508610735     IErMin= 2 ErrMin= 8.41D-03
 ErrMax= 9.34D-03  0.00D+00 EMaxC= 1.00D-01 BMatC= 4.42D-02 BMatP= 8.14D-02
 IDIUse=3 WtCom= 9.07D-01 WtEn= 9.34D-02
 Coeff-Com: -0.335D-01 0.413D+00 0.620D+00
 Coeff-En:   0.000D+00 0.000D+00 0.100D+01
 Coeff:     -0.304D-01 0.375D+00 0.656D+00
 Gap=     0.153 Goal=   None    Shift=    0.000
 RMSDP=8.83D-04 MaxDP=4.23D-02 DE=-1.19D-01 OVMax= 1.89D-01

 Cycle   4  Pass 0  IDiag  1:
 E= -764.342451833465     Delta-E=       -0.022943222730 Rises=F Damp=F
 DIIS: error= 6.58D-03 at cycle   4 NSaved=   4.
 NSaved= 4 IEnMin= 4 EnMin= -764.342451833465     IErMin= 4 ErrMin= 6.58D-03
 ErrMax= 6.58D-03  0.00D+00 EMaxC= 1.00D-01 BMatC= 2.64D-02 BMatP= 4.42D-02
 IDIUse=3 WtCom= 9.34D-01 WtEn= 6.58D-02
 Coeff-Com: -0.264D-01 0.422D-01 0.461D+00 0.523D+00
 Coeff-En:   0.000D+00 0.000D+00 0.345D+00 0.655D+00
 Coeff:     -0.247D-01 0.394D-01 0.454D+00 0.532D+00
 Gap=     0.166 Goal=   None    Shift=    0.000
 RMSDP=2.98D-04 MaxDP=1.23D-02 DE=-2.29D-02 OVMax= 3.59D-02

 Cycle   5  Pass 0  IDiag  1:
 E= -764.361315769529     Delta-E=       -0.018863936064 Rises=F Damp=F
 DIIS: error= 1.18D-03 at cycle   5 NSaved=   5.
 NSaved= 5 IEnMin= 5 EnMin= -764.361315769529     IErMin= 5 ErrMin= 1.18D-03
 ErrMax= 1.18D-03  0.00D+00 EMaxC= 1.00D-01 BMatC= 1.25D-03 BMatP= 2.64D-02
 IDIUse=3 WtCom= 9.88D-01 WtEn= 1.18D-02
 Coeff-Com:  0.106D-01-0.402D-01 0.144D+00 0.141D+00 0.745D+00
 Coeff-En:   0.000D+00 0.000D+00 0.000D+00 0.000D+00 0.100D+01
 Coeff:      0.105D-01-0.398D-01 0.142D+00 0.140D+00 0.748D+00
 Gap=     0.166 Goal=   None    Shift=    0.000
 RMSDP=1.47D-04 MaxDP=1.08D-02 DE=-1.89D-02 OVMax= 2.12D-02

 Cycle   6  Pass 0  IDiag  1:
 E= -764.362567734143     Delta-E=       -0.001251964613 Rises=F Damp=F
 DIIS: error= 1.07D-03 at cycle   6 NSaved=   6.
 NSaved= 6 IEnMin= 6 EnMin= -764.362567734143     IErMin= 6 ErrMin= 1.07D-03
 ErrMax= 1.07D-03  0.00D+00 EMaxC= 1.00D-01 BMatC= 6.40D-04 BMatP= 1.25D-03
 IDIUse=3 WtCom= 9.89D-01 WtEn= 1.07D-02
 Coeff-Com:  0.197D-01-0.458D-01-0.100D-01-0.850D-01 0.343D+00 0.778D+00
 Coeff-En:   0.000D+00 0.000D+00 0.000D+00 0.000D+00 0.000D+00 0.100D+01
 Coeff:      0.195D-01-0.453D-01-0.994D-02-0.841D-01 0.340D+00 0.780D+00
 Gap=     0.168 Goal=   None    Shift=    0.000
 RMSDP=1.34D-04 MaxDP=6.59D-03 DE=-1.25D-03 OVMax= 2.92D-02

 Cycle   7  Pass 0  IDiag  1:
 E= -764.363513298157     Delta-E=       -0.000945564015 Rises=F Damp=F
 DIIS: error= 6.24D-04 at cycle   7 NSaved=   7.
 NSaved= 7 IEnMin= 7 EnMin= -764.363513298157     IErMin= 7 ErrMin= 6.24D-04
 ErrMax= 6.24D-04  0.00D+00 EMaxC= 1.00D-01 BMatC= 3.58D-04 BMatP= 6.40D-04
 IDIUse=3 WtCom= 9.94D-01 WtEn= 6.24D-03
 Coeff-Com:  0.153D-01-0.268D-01-0.509D-01-0.133D+00-0.137D+00 0.575D+00
 Coeff-Com:  0.757D+00
 Coeff-En:   0.000D+00 0.000D+00 0.000D+00 0.000D+00 0.000D+00 0.000D+00
 Coeff-En:   0.100D+01
 Coeff:      0.152D-01-0.266D-01-0.506D-01-0.132D+00-0.136D+00 0.571D+00
 Coeff:      0.758D+00
 Gap=     0.166 Goal=   None    Shift=    0.000
 RMSDP=1.41D-04 MaxDP=9.94D-03 DE=-9.46D-04 OVMax= 2.63D-02

 Cycle   8  Pass 0  IDiag  1:
 E= -764.364220189587     Delta-E=       -0.000706891429 Rises=F Damp=F
 DIIS: error= 3.84D-04 at cycle   8 NSaved=   8.
 NSaved= 8 IEnMin= 8 EnMin= -764.364220189587     IErMin= 8 ErrMin= 3.84D-04
 ErrMax= 3.84D-04  0.00D+00 EMaxC= 1.00D-01 BMatC= 1.11D-04 BMatP= 3.58D-04
 IDIUse=3 WtCom= 9.96D-01 WtEn= 3.84D-03
 Coeff-Com:  0.172D-02-0.112D-03 0.813D-02-0.129D-01-0.216D+00-0.355D-01
 Coeff-Com: -0.417D-01 0.130D+01
 Coeff-En:   0.000D+00 0.000D+00 0.000D+00 0.000D+00 0.000D+00 0.000D+00
 Coeff-En:   0.000D+00 0.100D+01
 Coeff:      0.172D-02-0.111D-03 0.810D-02-0.128D-01-0.215D+00-0.354D-01
 Coeff:     -0.415D-01 0.130D+01
 Gap=     0.163 Goal=   None    Shift=    0.000
 RMSDP=1.62D-04 MaxDP=1.17D-02 DE=-7.07D-04 OVMax= 3.06D-02

 Cycle   9  Pass 0  IDiag  1:
 E= -764.364692749464     Delta-E=       -0.000472559877 Rises=F Damp=F
 DIIS: error= 2.28D-04 at cycle   9 NSaved=   9.
 NSaved= 9 IEnMin= 9 EnMin= -764.364692749464     IErMin= 9 ErrMin= 2.28D-04
 ErrMax= 2.28D-04  0.00D+00 EMaxC= 1.00D-01 BMatC= 3.79D-05 BMatP= 1.11D-04
 IDIUse=3 WtCom= 9.98D-01 WtEn= 2.28D-03
 Coeff-Com: -0.331D-02 0.578D-02 0.284D-01 0.504D-01 0.414D-03-0.197D+00
 Coeff-Com: -0.564D+00 0.236D+00 0.144D+01
 Coeff-En:   0.000D+00 0.000D+00 0.000D+00 0.000D+00 0.000D+00 0.000D+00
 Coeff-En:   0.000D+00 0.000D+00 0.100D+01
 Coeff:     -0.330D-02 0.577D-02 0.283D-01 0.503D-01 0.413D-03-0.196D+00
 Coeff:     -0.562D+00 0.236D+00 0.144D+01
 Gap=     0.160 Goal=   None    Shift=    0.000
 RMSDP=1.78D-04 MaxDP=1.33D-02 DE=-4.73D-04 OVMax= 3.22D-02

 Failed to achieve initial convergence to 1.0D-08 in 10 cycles.
 Switch to full accuracy anyway.
 Cycle  10  Pass 1  IDiag  1:
 E= -764.364953160944     Delta-E=       -0.000260411480 Rises=F Damp=F
 DIIS: error= 1.10D-04 at cycle   1 NSaved=   1.
 NSaved= 1 IEnMin= 1 EnMin= -764.364953160944     IErMin= 1 ErrMin= 1.10D-04
 ErrMax= 1.10D-04  0.00D+00 EMaxC= 1.00D-01 BMatC= 4.38D-06 BMatP= 4.38D-06
 IDIUse=3 WtCom= 9.99D-01 WtEn= 1.10D-03
 Coeff-Com:  0.100D+01
 Coeff-En:   0.100D+01
 Coeff:      0.100D+01
 Gap=     0.160 Goal=   None    Shift=    0.000
 RMSDP=1.78D-04 MaxDP=1.33D-02 DE=-2.60D-04 OVMax= 2.56D-03

 Cycle  11  Pass 1  IDiag  1:
 E= -764.364964342776     Delta-E=       -0.000011181832 Rises=F Damp=F
 DIIS: error= 5.90D-05 at cycle   2 NSaved=   2.
 NSaved= 2 IEnMin= 2 EnMin= -764.364964342776     IErMin= 2 ErrMin= 5.90D-05
 ErrMax= 5.90D-05  0.00D+00 EMaxC= 1.00D-01 BMatC= 4.35D-06 BMatP= 4.38D-06
 IDIUse=1 WtCom= 1.00D+00 WtEn= 0.00D+00
 Coeff-Com:  0.499D+00 0.501D+00
 Coeff:      0.499D+00 0.501D+00
 Gap=     0.160 Goal=   None    Shift=    0.000
 RMSDP=9.69D-06 MaxDP=5.26D-04 DE=-1.12D-05 OVMax= 1.79D-03

 Cycle  12  Pass 1  IDiag  1:
 E= -764.364969940911     Delta-E=       -0.000005598135 Rises=F Damp=F
 DIIS: error= 7.63D-05 at cycle   3 NSaved=   3.
 NSaved= 3 IEnMin= 3 EnMin= -764.364969940911     IErMin= 2 ErrMin= 5.90D-05
 ErrMax= 7.63D-05  0.00D+00 EMaxC= 1.00D-01 BMatC= 1.71D-06 BMatP= 4.35D-06
 IDIUse=1 WtCom= 1.00D+00 WtEn= 0.00D+00
 Coeff-Com:  0.535D-01 0.328D+00 0.618D+00
 Coeff:      0.535D-01 0.328D+00 0.618D+00
 Gap=     0.159 Goal=   None    Shift=    0.000
 RMSDP=6.77D-06 MaxDP=3.75D-04 DE=-5.60D-06 OVMax= 1.22D-03

 Cycle  13  Pass 1  IDiag  1:
 E= -764.364974680741     Delta-E=       -0.000004739830 Rises=F Damp=F
 DIIS: error= 3.46D-05 at cycle   4 NSaved=   4.
 NSaved= 4 IEnMin= 4 EnMin= -764.364974680741     IErMin= 4 ErrMin= 3.46D-05
 ErrMax= 3.46D-05  0.00D+00 EMaxC= 1.00D-01 BMatC= 5.84D-07 BMatP= 1.71D-06
 IDIUse=1 WtCom= 1.00D+00 WtEn= 0.00D+00
 Coeff-Com: -0.365D+00-0.577D-01 0.221D+00 0.120D+01
 Coeff:     -0.365D+00-0.577D-01 0.221D+00 0.120D+01
 Gap=     0.159 Goal=   None    Shift=    0.000
 RMSDP=1.71D-05 MaxDP=1.07D-03 DE=-4.74D-06 OVMax= 3.14D-03

 Cycle  14  Pass 1  IDiag  1:
 E= -764.364980861004     Delta-E=       -0.000006180263 Rises=F Damp=F
 DIIS: error= 3.52D-05 at cycle   5 NSaved=   5.
 NSaved= 5 IEnMin= 5 EnMin= -764.364980861004     IErMin= 4 ErrMin= 3.46D-05
 ErrMax= 3.52D-05  0.00D+00 EMaxC= 1.00D-01 BMatC= 5.34D-07 BMatP= 5.84D-07
 IDIUse=1 WtCom= 1.00D+00 WtEn= 0.00D+00
 Coeff-Com:  0.236D-01-0.138D-01-0.862D+00 0.394D+00 0.146D+01
 Coeff:      0.236D-01-0.138D-01-0.862D+00 0.394D+00 0.146D+01
 Gap=     0.159 Goal=   None    Shift=    0.000
 RMSDP=1.80D-05 MaxDP=1.30D-03 DE=-6.18D-06 OVMax= 3.26D-03

 Cycle  15  Pass 1  IDiag  1:
 E= -764.364984513588     Delta-E=       -0.000003652583 Rises=F Damp=F
 DIIS: error= 1.41D-05 at cycle   6 NSaved=   6.
 NSaved= 6 IEnMin= 6 EnMin= -764.364984513588     IErMin= 6 ErrMin= 1.41D-05
 ErrMax= 1.41D-05  0.00D+00 EMaxC= 1.00D-01 BMatC= 1.95D-07 BMatP= 5.34D-07
 IDIUse=1 WtCom= 1.00D+00 WtEn= 0.00D+00
 Coeff-Com:  0.105D+00 0.510D-01-0.636D+00 0.442D-01 0.642D+00 0.794D+00
 Coeff:      0.105D+00 0.510D-01-0.636D+00 0.442D-01 0.642D+00 0.794D+00
 Gap=     0.159 Goal=   None    Shift=    0.000
 RMSDP=7.60D-06 MaxDP=6.06D-04 DE=-3.65D-06 OVMax= 1.33D-03

 Cycle  16  Pass 1  IDiag  1:
 E= -764.364985252428     Delta-E=       -0.000000738840 Rises=F Damp=F
 DIIS: error= 1.02D-05 at cycle   7 NSaved=   7.
 NSaved= 7 IEnMin= 7 EnMin= -764.364985252428     IErMin= 7 ErrMin= 1.02D-05
 ErrMax= 1.02D-05  0.00D+00 EMaxC= 1.00D-01 BMatC= 6.62D-08 BMatP= 1.95D-07
 IDIUse=1 WtCom= 1.00D+00 WtEn= 0.00D+00
 Coeff-Com:  0.370D-01 0.653D-01-0.182D-01-0.162D-02-0.382D+00 0.173D+00
 Coeff-Com:  0.113D+01
 Coeff:      0.370D-01 0.653D-01-0.182D-01-0.162D-02-0.382D+00 0.173D+00
 Coeff:      0.113D+01
 Gap=     0.159 Goal=   None    Shift=    0.000
 RMSDP=4.86D-06 MaxDP=3.81D-04 DE=-7.39D-07 OVMax= 9.44D-04

 Cycle  17  Pass 1  IDiag  1:
 E= -764.364985520611     Delta-E=       -0.000000268183 Rises=F Damp=F
 DIIS: error= 6.45D-06 at cycle   8 NSaved=   8.
 NSaved= 8 IEnMin= 8 EnMin= -764.364985520611     IErMin= 8 ErrMin= 6.45D-06
 ErrMax= 6.45D-06  0.00D+00 EMaxC= 1.00D-01 BMatC= 3.88D-08 BMatP= 6.62D-08
 IDIUse=1 WtCom= 1.00D+00 WtEn= 0.00D+00
 Coeff-Com: -0.166D-01 0.333D-01 0.215D+00 0.684D-02-0.575D+00-0.310D+00
 Coeff-Com:  0.880D+00 0.767D+00
 Coeff:     -0.166D-01 0.333D-01 0.215D+00 0.684D-02-0.575D+00-0.310D+00
 Coeff:      0.880D+00 0.767D+00
 Gap=     0.159 Goal=   None    Shift=    0.000
 RMSDP=4.42D-06 MaxDP=3.60D-04 DE=-2.68D-07 OVMax= 7.94D-04

 Cycle  18  Pass 1  IDiag  1:
 E= -764.364985626165     Delta-E=       -0.000000105554 Rises=F Damp=F
 DIIS: error= 1.69D-06 at cycle   9 NSaved=   9.
 NSaved= 9 IEnMin= 9 EnMin= -764.364985626165     IErMin= 9 ErrMin= 1.69D-06
 ErrMax= 1.69D-06  0.00D+00 EMaxC= 1.00D-01 BMatC= 1.30D-09 BMatP= 3.88D-08
 IDIUse=1 WtCom= 1.00D+00 WtEn= 0.00D+00
 Coeff-Com: -0.863D-02 0.740D-02 0.518D-01 0.224D-01-0.133D+00-0.137D+00
 Coeff-Com:  0.195D+00 0.232D+00 0.770D+00
 Coeff:     -0.863D-02 0.740D-02 0.518D-01 0.224D-01-0.133D+00-0.137D+00
 Coeff:      0.195D+00 0.232D+00 0.770D+00
 Gap=     0.159 Goal=   None    Shift=    0.000
 RMSDP=2.27D-07 MaxDP=7.98D-06 DE=-1.06D-07 OVMax= 4.34D-05

 Cycle  19  Pass 1  IDiag  1:
 E= -764.364985627978     Delta-E=       -0.000000001813 Rises=F Damp=F
 DIIS: error= 7.78D-07 at cycle  10 NSaved=  10.
 NSaved=10 IEnMin=10 EnMin= -764.364985627978     IErMin=10 ErrMin= 7.78D-07
 ErrMax= 7.78D-07  0.00D+00 EMaxC= 1.00D-01 BMatC= 4.06D-10 BMatP= 1.30D-09
 IDIUse=1 WtCom= 1.00D+00 WtEn= 0.00D+00
 Coeff-Com: -0.677D-03-0.179D-02-0.168D-01 0.105D-01 0.369D-01-0.113D-01
 Coeff-Com: -0.576D-01-0.601D-01 0.330D+00 0.771D+00
 Coeff:     -0.677D-03-0.179D-02-0.168D-01 0.105D-01 0.369D-01-0.113D-01
 Coeff:     -0.576D-01-0.601D-01 0.330D+00 0.771D+00
 Gap=     0.159 Goal=   None    Shift=    0.000
 RMSDP=2.84D-07 MaxDP=2.20D-05 DE=-1.81D-09 OVMax= 5.12D-05

 Cycle  20  Pass 1  IDiag  1:
 E= -764.364985628729     Delta-E=       -0.000000000751 Rises=F Damp=F
 DIIS: error= 2.34D-07 at cycle  11 NSaved=  11.
 NSaved=11 IEnMin=11 EnMin= -764.364985628729     IErMin=11 ErrMin= 2.34D-07
 ErrMax= 2.34D-07  0.00D+00 EMaxC= 1.00D-01 BMatC= 2.84D-11 BMatP= 4.06D-10
 IDIUse=1 WtCom= 1.00D+00 WtEn= 0.00D+00
 Coeff-Com:  0.150D-02-0.165D-02-0.173D-01 0.108D-02 0.383D-01 0.202D-01
 Coeff-Com: -0.538D-01-0.675D-01-0.144D-02 0.227D+00 0.853D+00
 Coeff:      0.150D-02-0.165D-02-0.173D-01 0.108D-02 0.383D-01 0.202D-01
 Coeff:     -0.538D-01-0.675D-01-0.144D-02 0.227D+00 0.853D+00
 Gap=     0.159 Goal=   None    Shift=    0.000
 RMSDP=5.31D-08 MaxDP=3.91D-06 DE=-7.51D-10 OVMax= 8.84D-06

 Cycle  21  Pass 1  IDiag  1:
 E= -764.364985628839     Delta-E=       -0.000000000110 Rises=F Damp=F
 DIIS: error= 1.10D-07 at cycle  12 NSaved=  12.
 NSaved=12 IEnMin=12 EnMin= -764.364985628839     IErMin=12 ErrMin= 1.10D-07
 ErrMax= 1.10D-07  0.00D+00 EMaxC= 1.00D-01 BMatC= 2.78D-12 BMatP= 2.84D-11
 IDIUse=1 WtCom= 1.00D+00 WtEn= 0.00D+00
 Coeff-Com:  0.233D-03 0.305D-03 0.110D-02-0.135D-02-0.304D-02 0.365D-02
 Coeff-Com:  0.539D-02 0.804D-02-0.526D-01-0.140D+00 0.352D-01 0.114D+01
 Coeff:      0.233D-03 0.305D-03 0.110D-02-0.135D-02-0.304D-02 0.365D-02
 Coeff:      0.539D-02 0.804D-02-0.526D-01-0.140D+00 0.352D-01 0.114D+01
 Gap=     0.159 Goal=   None    Shift=    0.000
 RMSDP=1.56D-08 MaxDP=6.06D-07 DE=-1.10D-10 OVMax= 3.09D-06

 Cycle  22  Pass 1  IDiag  1:
 E= -764.364985628826     Delta-E=        0.000000000013 Rises=F Damp=F
 DIIS: error= 2.96D-08 at cycle  13 NSaved=  13.
 NSaved=13 IEnMin=12 EnMin= -764.364985628839     IErMin=13 ErrMin= 2.96D-08
 ErrMax= 2.96D-08  0.00D+00 EMaxC= 1.00D-01 BMatC= 4.83D-13 BMatP= 2.78D-12
 IDIUse=1 WtCom= 1.00D+00 WtEn= 0.00D+00
 Coeff-Com: -0.135D-03 0.328D-03 0.234D-02-0.367D-03-0.566D-02-0.181D-02
 Coeff-Com:  0.830D-02 0.107D-01-0.120D-01-0.661D-01-0.101D+00 0.348D+00
 Coeff-Com:  0.817D+00
 Coeff:     -0.135D-03 0.328D-03 0.234D-02-0.367D-03-0.566D-02-0.181D-02
 Coeff:      0.830D-02 0.107D-01-0.120D-01-0.661D-01-0.101D+00 0.348D+00
 Coeff:      0.817D+00
 Gap=     0.159 Goal=   None    Shift=    0.000
 RMSDP=5.31D-09 MaxDP=4.42D-07 DE= 1.32D-11 OVMax= 5.24D-07

 SCF Done:  E(RM062X) =  -764.364985629     A.U. after   22 cycles
            NFock= 22  Conv=0.53D-08     -V/T= 2.0034
 KE= 7.617506016262D+02 PE=-3.118456053170D+03 EE= 9.386162082359D+02
 Leave Link  502 at Sat May 24 06:12:17 2025, MaxMem=  3758096384 cpu:             179.7 elap:              47.1
 (Enter /apps/easybuild-2022/easybuild/software/Compiler/NVHPC/22.11-CUDA-11.7.0/Gaussian/g16c01-CUDA-11.7.0/g16/l508.exe)
 QCSCF skips out because SCF is already converged.
 Leave Link  508 at Sat May 24 06:12:17 2025, MaxMem=  3758096384 cpu:               0.0 elap:               0.0
 (Enter /apps/easybuild-2022/easybuild/software/Compiler/NVHPC/22.11-CUDA-11.7.0/Gaussian/g16c01-CUDA-11.7.0/g16/l801.exe)
 DoSCS=F DFT=T ScalE2(SS,OS)=  1.000000  1.000000
 Range of M.O.s used for correlation:     1   324
 NBasis=   324 NAE=    40 NBE=    40 NFC=     0 NFV=     0
 NROrb=    324 NOA=    40 NOB=    40 NVA=   284 NVB=   284

 **** Warning!!: The largest alpha MO coefficient is  0.15756816D+02

 Leave Link  801 at Sat May 24 06:12:17 2025, MaxMem=  3758096384 cpu:               0.1 elap:               0.0
 (Enter /apps/easybuild-2022/easybuild/software/Compiler/NVHPC/22.11-CUDA-11.7.0/Gaussian/g16c01-CUDA-11.7.0/g16/l1101.exe)
 Using compressed storage, NAtomX=    11.
 Will process     12 centers per pass.
   1 Symmetry operations used in ECPInt.
 ECPInt:  NShTT=    6786 NPrTT=   21959 LenC2=    6545 LenP2D=   16320.
 LDataN:  DoStor=T MaxTD1= 7 Len=  274
 Leave Link 1101 at Sat May 24 06:12:18 2025, MaxMem=  3758096384 cpu:               1.9 elap:               0.4
 (Enter /apps/easybuild-2022/easybuild/software/Compiler/NVHPC/22.11-CUDA-11.7.0/Gaussian/g16c01-CUDA-11.7.0/g16/l1102.exe)
 Symmetrizing basis deriv contribution to polar:
 IMax=3 JMax=2 DiffMx= 0.00D+00
 Leave Link 1102 at Sat May 24 06:12:18 2025, MaxMem=  3758096384 cpu:               0.2 elap:               0.1
 (Enter /apps/easybuild-2022/easybuild/software/Compiler/NVHPC/22.11-CUDA-11.7.0/Gaussian/g16c01-CUDA-11.7.0/g16/l1110.exe)
 Forming Gx(P) for the SCF density, NAtomX=    11.
 Integral derivatives from FoFJK, PRISM(SPDF).
 Do as many integral derivatives as possible in FoFJK.
 G2DrvN: MDV=    3758095115.
 G2DrvN: will do    12 centers at a time, making    1 passes.
 Calling FoFCou, ICntrl=  3107 FMM=F I1Cent=   0 AccDes= 0.00D+00.
 FoFJK:  IHMeth= 1 ICntrl=    3107 DoSepK=F KAlg= 0 I1Cent=           0 FoldK=F
 IRaf=         0 NMat=       1 IRICut=       1 DoRegI=T DoRafI=F ISym2E= 0 IDoP0=0 IntGTp=1.
 FoFCou: FMM=F IPFlag=           0 FMFlag=      100000 FMFlg1=           0
         NFxFlg=           0 DoJE=F BraDBF=F KetDBF=F FulRan=T
         wScrn=  0.000000 ICntrl=      3107 IOpCl=  0 I1Cent=           0 NGrid=           0
         NMat0=    1 NMatS0=      1 NMatT0=    0 NMatD0=    1 NMtDS0=    0 NMtDT0=    0
 Symmetry not used in FoFCou.
 End of G2Drv F.D. properties file   721 does not exist.
 End of G2Drv F.D. properties file   722 does not exist.
 End of G2Drv F.D. properties file   788 does not exist.
 Leave Link 1110 at Sat May 24 06:13:09 2025, MaxMem=  3758096384 cpu:             359.5 elap:              51.6
 (Enter /apps/easybuild-2022/easybuild/software/Compiler/NVHPC/22.11-CUDA-11.7.0/Gaussian/g16c01-CUDA-11.7.0/g16/l1002.exe)
 Minotr:  Closed shell wavefunction.
          IDoAtm=11111111111
          Direct CPHF calculation.
          Differentiating once with respect to electric field.
                with respect to dipole field.
          Differentiating once with respect to nuclear coordinates.
          Requested convergence is 1.0D-08 RMS, and 1.0D-07 maximum.
          Secondary convergence is 1.0D-12 RMS, and 1.0D-12 maximum.
          NewPWx=T KeepS1=F KeepF1=F KeepIn=T MapXYZ=F SortEE=F KeepMc=T.
         3293 words used for storage of precomputed grid.
 Keep R1 ints in memory in canonical form, NReq=1412622523.
 FoFCou: FMM=F IPFlag=           0 FMFlag=           0 FMFlg1=           0
         NFxFlg=           0 DoJE=F BraDBF=F KetDBF=F FulRan=T
         wScrn=  0.000000 ICntrl=       600 IOpCl=  0 I1Cent=           0 NGrid=           0
         NMat0=    1 NMatS0=  52650 NMatT0=    0 NMatD0=    1 NMtDS0=    0 NMtDT0=    0
 Symmetry not used in FoFCou.
 Two-electron integral symmetry not used.
          MDV=    3758096384 using IRadAn=       1.
          Solving linear equations simultaneously, MaxMat=       0.
          There are    36 degrees of freedom in the 1st order CPHF.  IDoFFX=6 NUNeed=     3.
     33 vectors produced by pass  0 Test12= 3.16D-14 2.78D-09 XBig12= 3.53D+01 3.42D+00.
 AX will form    33 AO Fock derivatives at one time.
     33 vectors produced by pass  1 Test12= 3.16D-14 2.78D-09 XBig12= 1.25D+01 7.82D-01.
     33 vectors produced by pass  2 Test12= 3.16D-14 2.78D-09 XBig12= 4.46D-01 1.03D-01.
     33 vectors produced by pass  3 Test12= 3.16D-14 2.78D-09 XBig12= 8.23D-03 1.36D-02.
     33 vectors produced by pass  4 Test12= 3.16D-14 2.78D-09 XBig12= 1.43D-04 1.45D-03.
     33 vectors produced by pass  5 Test12= 3.16D-14 2.78D-09 XBig12= 1.23D-06 1.29D-04.
     33 vectors produced by pass  6 Test12= 3.16D-14 2.78D-09 XBig12= 8.11D-09 1.11D-05.
     15 vectors produced by pass  7 Test12= 3.16D-14 2.78D-09 XBig12= 3.85D-11 6.25D-07.
      3 vectors produced by pass  8 Test12= 3.16D-14 2.78D-09 XBig12= 1.66D-13 4.65D-08.
      2 vectors produced by pass  9 Test12= 3.16D-14 2.78D-09 XBig12= 8.01D-16 3.53D-09.
 InvSVY:  IOpt=1 It=  1 EMax= 2.66D-15
 Solved reduced A of dimension   251 with    36 vectors.
 FullF1:  Do perturbations      1 to       3.
 Isotropic polarizability for W=    0.000000       51.88 Bohr**3.
 End of Minotr F.D. properties file   721 does not exist.
 End of Minotr F.D. properties file   722 does not exist.
 End of Minotr F.D. properties file   788 does not exist.
 Leave Link 1002 at Sat May 24 06:14:34 2025, MaxMem=  3758096384 cpu:             618.9 elap:              84.8
 (Enter /apps/easybuild-2022/easybuild/software/Compiler/NVHPC/22.11-CUDA-11.7.0/Gaussian/g16c01-CUDA-11.7.0/g16/l701.exe)
 ... and contract with generalized density number  0.
 Compute integral second derivatives.
   1 Symmetry operations used in ECPInt.
 ECPInt:  NShTT=    6786 NPrTT=   21959 LenC2=    6545 LenP2D=   16320.
 LDataN:  DoStor=T MaxTD1= 8 Len=  415
 Leave Link  701 at Sat May 24 06:14:34 2025, MaxMem=  3758096384 cpu:               1.0 elap:               0.2
 (Enter /apps/easybuild-2022/easybuild/software/Compiler/NVHPC/22.11-CUDA-11.7.0/Gaussian/g16c01-CUDA-11.7.0/g16/l702.exe)
 L702 exits ... SP integral derivatives will be done elsewhere.
 Leave Link  702 at Sat May 24 06:14:34 2025, MaxMem=  3758096384 cpu:               0.1 elap:               0.0
 (Enter /apps/easybuild-2022/easybuild/software/Compiler/NVHPC/22.11-CUDA-11.7.0/Gaussian/g16c01-CUDA-11.7.0/g16/l703.exe)
 Integral derivatives from FoFJK, PRISM(SPDF).
 Compute integral second derivatives, UseDBF=F ICtDFT=           0.
 Calling FoFJK, ICntrl=    100127 FMM=F ISym2X=0 I1Cent= 0 IOpClX= 0 NMat=1 NMatS=1 NMatT=0.
 FoFJK:  IHMeth= 1 ICntrl=  100127 DoSepK=F KAlg= 0 I1Cent=           0 FoldK=F
 IRaf=         0 NMat=       1 IRICut=       1 DoRegI=T DoRafI=F ISym2E= 0 IDoP0=0 IntGTp=1.
 FoFCou: FMM=F IPFlag=           0 FMFlag=      100000 FMFlg1=         800
         NFxFlg=           0 DoJE=F BraDBF=F KetDBF=F FulRan=T
         wScrn=  0.000000 ICntrl=    100127 IOpCl=  0 I1Cent=           0 NGrid=           0
         NMat0=    1 NMatS0=      1 NMatT0=    0 NMatD0=    1 NMtDS0=    0 NMtDT0=    0
 Symmetry not used in FoFCou.
 Leave Link  703 at Sat May 24 06:16:26 2025, MaxMem=  3758096384 cpu:             789.8 elap:             111.9
 (Enter /apps/easybuild-2022/easybuild/software/Compiler/NVHPC/22.11-CUDA-11.7.0/Gaussian/g16c01-CUDA-11.7.0/g16/l716.exe)
 Dipole        =-9.43258547D-01 6.26303257D-01-1.16950020D-01
 Polarizability= 5.34762765D+01 3.26177312D+00 4.95440166D+01
                 6.26233488D+00 4.14739182D+00 5.26113596D+01
 -------------------------------------------------------------------
 Center     Atomic                   Forces (Hartrees/Bohr)
 Number     Number              X              Y              Z
 -------------------------------------------------------------------
      1        6           0.000791318   -0.000838305    0.008534647
      2        8           0.000468233   -0.003441965    0.000561661
      3        6           0.014400759   -0.000158203    0.014764087
      4        6           0.046169305    0.015675259   -0.013426089
      5        9          -0.007724108    0.000885659   -0.001239086
      6        9          -0.004705639    0.006305785    0.001896776
      7        9          -0.021403479    0.019735077    0.004472967
      8        9          -0.012316072   -0.008254506   -0.016040069
      9        9          -0.006064745    0.000563785   -0.005607217
     10        8          -0.002317546   -0.019502401    0.000644911
     11        1          -0.007298027   -0.010970185    0.005437411
 -------------------------------------------------------------------
 Cartesian Forces:  Max     0.046169305 RMS     0.012552360
 Force constants in Cartesian coordinates: 
                1             2             3             4             5 
      1  0.137248D-01
      2  0.133731D+00  0.320765D+00
      3 -0.185631D+00  0.897636D-01  0.601169D-01
      4  0.338830D+00 -0.806032D-01  0.217932D+00 -0.280784D+00
      5 -0.170006D+00 -0.274991D-01 -0.126276D+00  0.131753D+00  0.457996D-01
      6 -0.274983D+00 -0.509782D-01 -0.324273D+00  0.176665D+00  0.352405D-01
      7  0.756396D-02 -0.153027D-01  0.589209D-01 -0.827250D-01  0.234789D-01
      8 -0.682055D-01 -0.187680D+00 -0.139127D-01  0.151378D-01 -0.107605D-01
      9  0.532474D-01  0.185645D-01 -0.159822D-01 -0.728591D-01 -0.195782D-01
     10 -0.318796D-01 -0.505770D-02 -0.344060D-01  0.553446D-01 -0.170869D-01
     11 -0.716442D-02 -0.298883D-01  0.426601D-02  0.160368D-01 -0.248083D-02
     12 -0.230617D-01  0.379750D-02 -0.620269D-02  0.224813D-01 -0.253920D-02
     13  0.667619D-02  0.860876D-03  0.564502D-02 -0.957501D-02  0.278559D-02
     14 -0.996909D-02 -0.546939D-02 -0.584407D-02  0.182714D-01 -0.502940D-02
     15  0.557536D-02  0.225285D-02  0.305136D-02 -0.814781D-02  0.174203D-02
     16  0.430226D-02 -0.814512D-04  0.516920D-02 -0.490377D-02  0.120820D-02
     17  0.261033D-02  0.954656D-03 -0.228206D-02 -0.170388D-02 -0.161818D-01
     18  0.104087D-01 -0.161241D-02  0.785895D-02 -0.106242D-01  0.757886D-02
     19  0.129411D-01 -0.265129D-02  0.126736D-01 -0.179125D-01  0.639646D-02
     20  0.104500D-01  0.281210D-03  0.138439D-01 -0.190935D-01  0.711468D-02
     21 -0.331896D-02 -0.671899D-04 -0.537527D-02  0.599195D-02 -0.194264D-02
     22  0.873131D-02 -0.280352D-02 -0.994496D-02 -0.547374D-02 -0.188528D-02
     23  0.505405D-02 -0.120065D-01 -0.330824D-01 -0.126069D-01 -0.556544D-02
     24 -0.211791D-02 -0.125432D-01 -0.159441D-01  0.192667D-02 -0.301768D-02
     25 -0.271304D-01 -0.169819D-02  0.138632D-01 -0.148132D-02  0.765872D-03
     26 -0.225473D-01  0.739925D-02  0.195644D-01 -0.803408D-02  0.404884D-02
     27  0.171261D-01  0.350412D-02  0.184012D-02 -0.447478D-02  0.312202D-02
     28 -0.310308D+00 -0.559031D-01 -0.805485D-01  0.136822D-01  0.185637D-01
     29  0.133327D+00 -0.787036D-01  0.747348D-01 -0.875538D-01  0.239925D-01
     30  0.341364D+00 -0.534161D-01  0.260288D+00 -0.283356D+00  0.101918D+00
     31 -0.234516D-01  0.295094D-01 -0.367419D-02 -0.500159D-02  0.402579D-02
     32 -0.728037D-02  0.118462D-01 -0.207751D-01  0.283960D-01 -0.134385D-01
     33  0.613904D-01  0.734455D-03  0.346225D-01 -0.455346D-01  0.375331D-02
                6             7             8             9            10 
      6  0.218702D+00
      7  0.335500D-01  0.587163D+00
      8 -0.230287D-02  0.246195D-01  0.514154D+00
      9  0.687429D-02 -0.717228D-03  0.748071D-03  0.492248D+00
     10 -0.288228D-01 -0.847589D-01  0.393478D-01 -0.352849D-01  0.597701D+00
     11 -0.933131D-02  0.661650D-01 -0.118574D+00  0.613836D-01 -0.130683D-01
     12 -0.175713D-01 -0.428272D-01  0.434034D-01 -0.746321D-01  0.251711D-02
     13  0.535604D-02  0.293426D-02  0.962394D-02 -0.305455D-02 -0.926346D-01
     14 -0.986377D-02 -0.225765D-01 -0.552465D-01 -0.236606D-02 -0.579287D-01
     15  0.555588D-02  0.415881D-02  0.169146D-01  0.203032D-02 -0.248849D-02
     16  0.361820D-02  0.339706D-02 -0.511247D-02 -0.189197D-01 -0.818104D-01
     17  0.981934D-02 -0.113134D-02  0.103844D-01  0.100131D-01 -0.107494D-02
     18  0.721502D-02  0.385452D-02 -0.179828D-01 -0.406138D-01 -0.349493D-01
     19  0.918599D-02 -0.380516D-01 -0.112271D-01  0.264413D-01 -0.293667D+00
     20  0.917382D-02  0.981145D-02  0.726974D-02 -0.144972D-01  0.448052D-01
     21 -0.274145D-02 -0.215392D-02  0.464744D-03  0.519211D-02  0.701443D-01
     22  0.253593D-02 -0.819756D-01 -0.109834D-01 -0.382703D-01  0.187846D-02
     23 -0.689074D-03 -0.143733D-01 -0.976640D-01 -0.549070D-01  0.187914D-02
     24  0.169386D-02 -0.409712D-01 -0.515168D-01 -0.221340D+00 -0.201503D-02
     25 -0.209542D-02 -0.293181D+00 -0.116265D-01  0.704237D-01 -0.422195D-01
     26  0.340779D-02 -0.115230D-01 -0.761671D-01  0.611735D-02  0.218377D-01
     27  0.578725D-02  0.756853D-01  0.717009D-02 -0.955903D-01 -0.112889D-02
     28  0.712227D-01 -0.167881D-01  0.180689D-01  0.209021D-01 -0.255731D-01
     29  0.301840D-01 -0.623413D-01  0.320720D-02 -0.796051D-02  0.370983D-01
     30  0.624588D-01 -0.783702D-01  0.177062D-01 -0.521908D-01  0.521009D-01
     31  0.376750D-02 -0.357781D-02  0.357070D-03 -0.190868D-02 -0.238055D-02
     32 -0.146602D-01  0.317343D-02  0.110765D-01  0.248239D-02 -0.507516D-01
     33  0.362994D-01 -0.111297D-01 -0.691850D-03 -0.599547D-02  0.143331D-01
               11            12            13            14            15 
     11  0.613877D+00
     12 -0.217457D-01  0.591938D+00
     13 -0.617471D-01 -0.304187D-02  0.123915D+00
     14 -0.300497D+00  0.397221D-02  0.125700D+00  0.391878D+00
     15  0.671987D-03 -0.769142D-01  0.731472D-02  0.260725D-01  0.828626D-01
     16  0.220392D-02 -0.268035D-01  0.634388D-02 -0.161971D-01 -0.190780D-01
     17 -0.890795D-01 -0.396569D-01 -0.185596D-01 -0.336069D-01 -0.605918D-01
     18 -0.290257D-01 -0.314605D+00 -0.144759D-01 -0.431770D-01 -0.203073D-01
     19  0.318873D-01  0.615857D-01 -0.462632D-01 -0.402627D-01  0.128231D-01
     20 -0.772510D-01 -0.727103D-02 -0.622146D-01 -0.976544D-02  0.143749D-01
     21 -0.482171D-02 -0.911811D-01  0.136208D-01  0.100763D-01  0.879693D-02
     22 -0.129618D-01 -0.180478D-01  0.636018D-03  0.240381D-02  0.694104D-03
     23  0.153127D-02  0.101369D-01  0.142525D-02  0.541346D-02  0.233636D-02
     24 -0.222499D-01 -0.440386D-01  0.272145D-03  0.209084D-02  0.355928D-02
     25 -0.761248D-02  0.243623D-01  0.443699D-02  0.318603D-02 -0.221856D-02
     26  0.110825D-02 -0.855256D-02  0.548881D-03  0.484721D-02 -0.490124D-03
     27 -0.284194D-02  0.229372D-02 -0.883670D-03 -0.231509D-03  0.877859D-03
     28  0.988654D-03  0.754976D-04  0.440887D-02 -0.374714D-02  0.157288D-02
     29  0.434314D-02 -0.426417D-03 -0.675514D-02  0.735957D-02 -0.317744D-02
     30  0.148201D-01  0.222842D-01 -0.884946D-02  0.172434D-01 -0.782327D-02
     31 -0.147275D-01  0.276027D-02 -0.878342D-03  0.112010D-02 -0.206123D-03
     32 -0.309008D-02  0.188819D-01  0.833213D-02  0.116382D-03 -0.105915D-03
     33  0.887452D-02  0.862964D-02 -0.190324D-02  0.202706D-02 -0.168946D-02
               16            17            18            19            20 
     16  0.785304D-01
     17  0.864467D-02  0.119496D+00
     18  0.139783D-01  0.933311D-01  0.427894D+00
     19 -0.828843D-02  0.814384D-02  0.412406D-01  0.385229D+00
     20  0.701104D-02  0.114983D-01 -0.790020D-02 -0.127587D-01  0.127948D+00
     21  0.580112D-01 -0.123696D-01 -0.494940D-01 -0.135327D+00  0.318721D-02
     22 -0.262326D-02  0.281921D-02 -0.651534D-02  0.149170D-02 -0.202722D-03
     23  0.191018D-02 -0.490715D-03  0.500619D-02  0.105105D-03  0.122535D-02
     24 -0.574980D-02  0.512686D-02 -0.865496D-02 -0.469702D-02  0.358592D-02
     25  0.199216D-02  0.121391D-02 -0.413499D-02 -0.101682D-01  0.566631D-02
     26 -0.748074D-03  0.516123D-04  0.842579D-03  0.842891D-02 -0.213644D-02
     27 -0.168625D-02  0.412896D-03  0.413657D-02 -0.401631D-02  0.756651D-03
     28  0.347942D-02 -0.189363D-02  0.971602D-03  0.189713D-01  0.121437D-01
     29 -0.341659D-02 -0.188082D-04 -0.913520D-03 -0.159904D-01 -0.588932D-01
     30 -0.656594D-02 -0.220058D-02 -0.974857D-02 -0.164331D-01 -0.108782D-01
     31 -0.419292D-03  0.931464D-03  0.245983D-03 -0.428229D-02  0.438188D-02
     32  0.457766D-02 -0.300703D-02 -0.614709D-02  0.279285D-01 -0.729137D-02
     33 -0.197374D-02 -0.160229D-02 -0.368022D-02 -0.347675D-02 -0.437573D-02
               21            22            23            24            25 
     21  0.120420D+00
     22 -0.642982D-03  0.766715D-01
     23  0.407927D-04  0.678132D-02  0.101859D+00
     24  0.366069D-02  0.221166D-01  0.927595D-01  0.331278D+00
     25 -0.325894D-02 -0.230873D-02  0.127082D-01  0.367148D-01  0.372657D+00
     26  0.112885D-02  0.158222D-01  0.838666D-02 -0.150187D-01  0.431663D-02
     27  0.801673D-03  0.518536D-01 -0.146080D-01 -0.513831D-01 -0.134709D+00
     28 -0.435734D-02  0.242445D-02 -0.288917D-02 -0.604234D-02 -0.509545D-02
     29  0.115550D-01 -0.111938D-03  0.622907D-04  0.189028D-02 -0.831840D-02
     30  0.117424D-01 -0.321661D-02 -0.606135D-02  0.219809D-02  0.118158D-03
     31  0.129102D-02  0.547869D-03  0.615515D-05  0.563079D-03  0.249857D-02
     32 -0.725176D-02  0.112213D-02 -0.275123D-02 -0.110715D-02  0.139862D-02
     33 -0.182208D-02 -0.562326D-03 -0.931880D-03 -0.102964D-02  0.934950D-03
               26            27            28            29            30 
     26  0.651275D-01
     27  0.241052D-02  0.135797D+00
     28 -0.901215D-02  0.228061D-02  0.397662D+00
     29 -0.928441D-02 -0.992991D-03 -0.824563D-01  0.430921D+00
     30 -0.927871D-02 -0.307933D-02  0.281359D-01 -0.165092D+00 -0.183078D+00
     31  0.910302D-03 -0.465449D-04 -0.828633D-01  0.965184D-01 -0.249273D-01
     32 -0.338138D-02  0.129814D-02  0.106137D+00 -0.322986D+00  0.952400D-01
     33 -0.131462D-03 -0.148137D-02 -0.342131D-01  0.601991D-01 -0.103051D+00
               31            32            33 
     31  0.119808D+00
     32 -0.123033D+00  0.332906D+00
     33  0.221350D-01 -0.678552D-01  0.391981D-01
 FormGI is forming the generalized inverse of G from B-inverse, IUseBI=4.
 Leave Link  716 at Sat May 24 06:16:26 2025, MaxMem=  3758096384 cpu:               0.1 elap:               0.0
 (Enter /apps/easybuild-2022/easybuild/software/Compiler/NVHPC/22.11-CUDA-11.7.0/Gaussian/g16c01-CUDA-11.7.0/g16/l103.exe)

 GradGradGradGradGradGradGradGradGradGradGradGradGradGradGradGradGradGrad
 Berny optimization.
 Red2BG is reusing G-inverse.
 Internal  Forces:  Max     0.094589906 RMS     0.025097305
 Search for a saddle point.
 Step number   1 out of a maximum of  100
 All quantities printed in internal units (Hartrees-Bohrs-Radians)
 Swapping is turned off.
 Second derivative matrix not updated -- analytic derivatives used.
 ITU=  0
     Eigenvalues ---   -1.04505  -0.01544   0.00536   0.02289   0.06653
     Eigenvalues ---    0.10065   0.10468   0.11008   0.14010   0.14854
     Eigenvalues ---    0.16631   0.18435   0.22455   0.24227   0.25912
     Eigenvalues ---    0.26932   0.29923   0.34442   0.36843   0.38357
     Eigenvalues ---    0.40244   0.41293   0.44669   0.45846   0.48803
     Eigenvalues ---    0.58664   1.72741
 Eigenvectors required to have negative eigenvalues:
                          A2        D4        D5        D3        D6
   1                   -0.60075   0.33168   0.32544  -0.31708   0.31614
                          D2        D1        D7        A1        A10
   1                   -0.30778  -0.30154   0.10552   0.08714   0.06129
 Eigenvalue     2 is  -1.54D-02 should be greater than     0.000000 Eigenvector:
                          D1        D4        D2        D3        D5
   1                   -0.42626  -0.40599  -0.37907  -0.36592  -0.35881
                          D6        D16       D13       D10       D17
   1                   -0.34565  -0.13165  -0.12926  -0.12209  -0.10395
 RFO step:  Lambda0=9.461497231D-06 Lambda=-2.10771183D-02.
 Linear search not attempted -- option 19 set.
 Iteration  1 RMS(Cart)=  0.17125794 RMS(Int)=  0.03511936
 Iteration  2 RMS(Cart)=  0.05512592 RMS(Int)=  0.00159412
 Iteration  3 RMS(Cart)=  0.00207603 RMS(Int)=  0.00044501
 Iteration  4 RMS(Cart)=  0.00000252 RMS(Int)=  0.00044501
 Iteration  5 RMS(Cart)=  0.00000000 RMS(Int)=  0.00044501
 ITry= 1 IFail=0 DXMaxC= 7.66D-01 DCOld= 1.00D+10 DXMaxT= 3.00D-01 DXLimC= 3.00D+00 Rises=F
 Variable       Old X    -DE/DX   Delta X   Delta X   Delta X     New X
                                 (Linear)    (Quad)   (Total)
    R1        2.72411   0.00037   0.00000   0.00946   0.00946   2.73357
    R2        2.86328   0.03548   0.00000   0.00478   0.00478   2.86806
    R3        2.63177   0.00962   0.00000   0.00622   0.00622   2.63799
    R4        2.90615   0.02401   0.00000   0.03910   0.03910   2.94525
    R5        2.58682  -0.01908   0.00000  -0.05383  -0.05383   2.53300
    R6        2.53337  -0.00328   0.00000  -0.00304  -0.00304   2.53034
    R7        2.50494  -0.00211   0.00000  -0.00885  -0.00885   2.49609
    R8        2.50052  -0.00328   0.00000  -0.01438  -0.01438   2.48614
    R9        2.50948   0.02134   0.00000   0.05438   0.05438   2.56386
   R10        1.87206  -0.00810   0.00000   0.00416   0.00416   1.87623
    A1        1.95929   0.00886   0.00000  -0.00663  -0.00654   1.95275
    A2        1.27474  -0.01502   0.00000  -0.00978  -0.00965   1.26509
    A3        1.92807   0.09459   0.00000   0.02089   0.02091   1.94898
    A4        1.97174   0.09175   0.00000   0.07178   0.07246   2.04420
    A5        1.94562  -0.02764   0.00000  -0.06199  -0.06223   1.88338
    A6        1.90816  -0.02723   0.00000   0.00360   0.00507   1.91323
    A7        1.87929  -0.02627   0.00000   0.00814   0.00893   1.88822
    A8        1.90144  -0.03369   0.00000  -0.08371  -0.08327   1.81817
    A9        1.85336   0.01852   0.00000   0.06041   0.06057   1.91392
   A10        1.91720   0.00329   0.00000   0.01736   0.01718   1.93437
   A11        1.92242   0.00886   0.00000   0.01277   0.01260   1.93502
   A12        1.92289   0.02548   0.00000   0.02046   0.02037   1.94326
   A13        1.90053  -0.00736   0.00000  -0.00135  -0.00159   1.89894
   A14        1.89867  -0.01971   0.00000  -0.02648  -0.02659   1.87208
   A15        1.90176  -0.01139   0.00000  -0.02380  -0.02387   1.87789
   A16        1.97104   0.02125   0.00000  -0.00848  -0.00848   1.96256
    D1        0.80719   0.00201   0.00000  -0.31332  -0.31254   0.49465
    D2        2.92619   0.01346   0.00000  -0.29673  -0.29729   2.62890
    D3       -1.31325   0.00284   0.00000  -0.25718  -0.25750  -1.57075
    D4       -0.57886  -0.01660   0.00000  -0.30757  -0.30672  -0.88558
    D5        1.54014  -0.00515   0.00000  -0.29098  -0.29148   1.24867
    D6       -2.69930  -0.01577   0.00000  -0.25143  -0.25169  -2.95098
    D7       -1.66797   0.00429   0.00000  -0.01907  -0.01902  -1.68699
    D8        0.21682  -0.00937   0.00000  -0.03331  -0.03337   0.18345
    D9        3.09382   0.00219   0.00000  -0.10157  -0.10083   2.99299
   D10       -1.09601   0.00072   0.00000  -0.08427  -0.08344  -1.17946
   D11        1.00248   0.00851   0.00000  -0.09260  -0.09184   0.91064
   D12        0.93775  -0.00459   0.00000  -0.07615  -0.07650   0.86125
   D13        3.03110  -0.00605   0.00000  -0.05884  -0.05912   2.97199
   D14       -1.15360   0.00173   0.00000  -0.06718  -0.06751  -1.22110
   D15       -1.06513   0.00462   0.00000  -0.10869  -0.10918  -1.17432
   D16        1.02822   0.00316   0.00000  -0.09138  -0.09179   0.93642
   D17        3.12670   0.01094   0.00000  -0.09972  -0.10019   3.02652
         Item               Value     Threshold  Converged?
 Maximum Force            0.094590     0.000450     NO 
 RMS     Force            0.025097     0.000300     NO 
 Maximum Displacement     0.766141     0.001800     NO 
 RMS     Displacement     0.219273     0.001200     NO 
 Predicted change in Energy=-1.663024D-02
 Lowest energy point so far.  Saving SCF results.
 GradGradGradGradGradGradGradGradGradGradGradGradGradGradGradGradGradGrad

 Leave Link  103 at Sat May 24 06:16:26 2025, MaxMem=  3758096384 cpu:               0.1 elap:               0.0
 (Enter /apps/easybuild-2022/easybuild/software/Compiler/NVHPC/22.11-CUDA-11.7.0/Gaussian/g16c01-CUDA-11.7.0/g16/l202.exe)
                          Input orientation:                          
 ---------------------------------------------------------------------
 Center     Atomic      Atomic             Coordinates (Angstroms)
 Number     Number       Type             X           Y           Z
 ---------------------------------------------------------------------
      1          6           0        1.431630   -0.032162   -0.080947
      2          8           0        0.754760   -0.343712   -1.320813
      3          6           0        1.905198    1.409239   -0.041669
      4          6           0        1.090578    2.447669   -0.870620
      5          9           0        1.492722    3.678050   -0.607666
      6          9           0        1.222653    2.224990   -2.160503
      7          9           0       -0.232529    2.385150   -0.577004
      8          9           0        1.909891    1.806840    1.238399
      9          9           0        3.144320    1.489194   -0.542763
     10          8           0        0.067874   -0.134459    0.199083
     11          1           0       -0.384393    0.749348    0.209155
 ---------------------------------------------------------------------
                    Distance matrix (angstroms):
                    1          2          3          4          5
     1  C    0.000000
     2  O    1.446542   0.000000
     3  C    1.517710   2.456125   0.000000
     4  C    2.624778   2.847324   1.558558   0.000000
     5  F    3.747911   4.150630   2.374445   1.320871   0.000000
     6  F    3.076192   2.742669   2.370817   1.315609   2.143740
     7  F    2.976390   2.995777   2.410158   1.356735   2.156158
     8  F    2.313295   3.536773   1.340404   2.351573   2.661467
     9  F    2.336900   3.110450   1.338997   2.289983   2.742823
    10  O    1.395963   1.680977   2.411788   2.976167   4.149248
    11  H    1.998214   2.198466   2.395954   2.495144   3.573240
                    6          7          8          9         10
     6  F    0.000000
     7  F    2.156542   0.000000
     8  F    3.492803   2.867070   0.000000
     9  F    2.617495   3.493855   2.190263   0.000000
    10  O    3.531028   2.653486   2.870862   3.556839   0.000000
    11  H    3.221086   1.821252   2.727888   3.683011   0.992856
                   11
    11  H    0.000000
 Symmetry turned off by external request.
 Stoichiometry    C3HF5O2
 Rotational constants (GHZ):           1.8135716           1.3439641           1.1770698
 Leave Link  202 at Sat May 24 06:16:26 2025, MaxMem=  3758096384 cpu:               0.0 elap:               0.0
 (Enter /apps/easybuild-2022/easybuild/software/Compiler/NVHPC/22.11-CUDA-11.7.0/Gaussian/g16c01-CUDA-11.7.0/g16/l301.exe)
 Standard basis: def2TZVPP (5D, 7F)
 Ernie: Thresh=  0.10000D-02 Tol=  0.10000D-05 Strict=F.
   324 basis functions,   527 primitive gaussians,   375 cartesian basis functions
    40 alpha electrons       40 beta electrons
       nuclear repulsion energy       647.8968804457 Hartrees.
 IExCor= 4336 DFT=T Ex+Corr=M062X ExCW=0 ScaHFX=  0.540000
 ScaDFX=  1.000000  1.000000  1.000000  1.000000 ScalE2=  1.000000  1.000000
 IRadAn=      5 IRanWt=     -1 IRanGd=            0 ICorTp=0 IEmpDi=  4
 NAtoms=   11 NActive=   11 NUniq=   11 SFac= 1.00D+00 NAtFMM=   60 NAOKFM=F Big=F
 Integral buffers will be    131072 words long.
 Raffenetti 2 integral format.
 Two-electron integral symmetry is turned off.
 Leave Link  301 at Sat May 24 06:16:26 2025, MaxMem=  3758096384 cpu:               0.1 elap:               0.0
 (Enter /apps/easybuild-2022/easybuild/software/Compiler/NVHPC/22.11-CUDA-11.7.0/Gaussian/g16c01-CUDA-11.7.0/g16/l302.exe)
 NPDir=0 NMtPBC=     1 NCelOv=     1 NCel=       1 NClECP=     1 NCelD=      1
         NCelK=      1 NCelE2=     1 NClLst=     1 CellRange=     0.0.
 One-electron integrals computed using PRISM.
   1 Symmetry operations used in ECPInt.
 ECPInt:  NShTT=    6786 NPrTT=   21959 LenC2=    6529 LenP2D=   16234.
 LDataN:  DoStor=T MaxTD1= 6 Len=  172
 NBasis=   324 RedAO= T EigKep=  2.50D-04  NBF=   324
 NBsUse=   324 1.00D-06 EigRej= -1.00D+00 NBFU=   324
 Precomputing XC quadrature grid using
 IXCGrd= 4 IRadAn=           5 IRanWt=          -1 IRanGd=           0 AccXCQ= 0.00D+00.
 Generated NRdTot=       0 NPtTot=           0 NUsed=           0 NTot=          32
 NSgBfM=   374   374   374   374   374 MxSgAt=    11 MxSgA2=    11.
 Leave Link  302 at Sat May 24 06:16:27 2025, MaxMem=  3758096384 cpu:               1.0 elap:               0.2
 (Enter /apps/easybuild-2022/easybuild/software/Compiler/NVHPC/22.11-CUDA-11.7.0/Gaussian/g16c01-CUDA-11.7.0/g16/l303.exe)
 DipDrv:  MaxL=1.
 Leave Link  303 at Sat May 24 06:16:27 2025, MaxMem=  3758096384 cpu:               0.1 elap:               0.1
 (Enter /apps/easybuild-2022/easybuild/software/Compiler/NVHPC/22.11-CUDA-11.7.0/Gaussian/g16c01-CUDA-11.7.0/g16/l401.exe)
 Initial guess from the checkpoint file:  "/tmp/Gau-269646.chk"
 B after Tr=    -0.053972    0.037667   -0.182968
         Rot=    0.999773   -0.002916    0.020882    0.003094 Ang=  -2.44 deg.
 Guess basis will be translated and rotated to current coordinates.
 JPrj=2 DoOrth=T DoCkMO=T.
 Generating alternative initial guess.
 ExpMin= 9.52D-02 ExpMax= 3.55D+04 ExpMxC= 1.21D+03 IAcc=3 IRadAn=         5 AccDes= 0.00D+00
 Harris functional with IExCor= 1009 and IRadAn=       5 diagonalized for initial guess.
 HarFok:  IExCor= 1009 AccDes= 0.00D+00 IRadAn=         5 IDoV= 1 UseB2=F ITyADJ=14
 ICtDFT=  3500011 ScaDFX=  1.000000  1.000000  1.000000  1.000000
 FoFCou: FMM=F IPFlag=           0 FMFlag=      100000 FMFlg1=           0
         NFxFlg=           0 DoJE=T BraDBF=F KetDBF=T FulRan=T
         wScrn=  0.000000 ICntrl=       500 IOpCl=  0 I1Cent=   200000004 NGrid=           0
         NMat0=    1 NMatS0=      1 NMatT0=    0 NMatD0=    1 NMtDS0=    0 NMtDT0=    0
 Symmetry not used in FoFCou.
 Harris En= -763.910593082054    
 Leave Link  401 at Sat May 24 06:16:28 2025, MaxMem=  3758096384 cpu:               4.3 elap:               1.1
 (Enter /apps/easybuild-2022/easybuild/software/Compiler/NVHPC/22.11-CUDA-11.7.0/Gaussian/g16c01-CUDA-11.7.0/g16/l502.exe)
 Keep R1 ints in memory in canonical form, NReq=1412617130.
 FoFCou: FMM=F IPFlag=           0 FMFlag=           0 FMFlg1=           0
         NFxFlg=           0 DoJE=F BraDBF=F KetDBF=F FulRan=T
         wScrn=  0.000000 ICntrl=       600 IOpCl=  0 I1Cent=           0 NGrid=           0
         NMat0=    1 NMatS0=  52650 NMatT0=    0 NMatD0=    1 NMtDS0=    0 NMtDT0=    0
 Symmetry not used in FoFCou.
 Two-electron integral symmetry not used.
 Closed shell SCF:
 Using DIIS extrapolation, IDIIS=  1040.
 NGot=  3758096384 LenX=  2371771924 LenY=  2371630858
 Requested convergence on RMS density matrix=1.00D-08 within  32 cycles.
 Requested convergence on MAX density matrix=1.00D-06.
 Requested convergence on             energy=1.00D-06.
 No special actions if energy rises.
 Integral accuracy reduced to 1.0D-05 until final iterations.

 Cycle   1  Pass 0  IDiag  1:
 E= -764.281077559284    
 DIIS: error= 6.38D-03 at cycle   1 NSaved=   1.
 NSaved= 1 IEnMin= 1 EnMin= -764.281077559284     IErMin= 1 ErrMin= 6.38D-03
 ErrMax= 6.38D-03  0.00D+00 EMaxC= 1.00D-01 BMatC= 6.66D-02 BMatP= 6.66D-02
 IDIUse=3 WtCom= 9.36D-01 WtEn= 6.38D-02
 Coeff-Com:  0.100D+01
 Coeff-En:   0.100D+01
 Coeff:      0.100D+01
 Gap=     0.830 Goal=   None    Shift=    0.000
 GapD=    0.830 DampG=2.000 DampE=1.000 DampFc=2.0000 IDamp=-1.
 RMSDP=1.04D-03 MaxDP=3.65D-02              OVMax= 7.45D-02

 Cycle   2  Pass 0  IDiag  1:
 E= -764.369464490644     Delta-E=       -0.088386931360 Rises=F Damp=F
 DIIS: error= 2.89D-03 at cycle   2 NSaved=   2.
 NSaved= 2 IEnMin= 2 EnMin= -764.369464490644     IErMin= 2 ErrMin= 2.89D-03
 ErrMax= 2.89D-03  0.00D+00 EMaxC= 1.00D-01 BMatC= 6.58D-03 BMatP= 6.66D-02
 IDIUse=3 WtCom= 9.71D-01 WtEn= 2.89D-02
 Coeff-Com: -0.279D-02 0.100D+01
 Coeff-En:   0.000D+00 0.100D+01
 Coeff:     -0.270D-02 0.100D+01
 Gap=     0.150 Goal=   None    Shift=    0.000
 RMSDP=4.38D-04 MaxDP=2.88D-02 DE=-8.84D-02 OVMax= 4.21D-02

 Cycle   3  Pass 0  IDiag  1:
 E= -764.368839585981     Delta-E=        0.000624904663 Rises=F Damp=F
 DIIS: error= 4.35D-03 at cycle   3 NSaved=   3.
 NSaved= 3 IEnMin= 2 EnMin= -764.369464490644     IErMin= 2 ErrMin= 2.89D-03
 ErrMax= 4.35D-03  0.00D+00 EMaxC= 1.00D-01 BMatC= 1.26D-02 BMatP= 6.58D-03
 IDIUse=3 WtCom= 1.32D-01 WtEn= 8.68D-01
 Coeff-Com: -0.933D-01 0.651D+00 0.442D+00
 Coeff-En:   0.000D+00 0.526D+00 0.474D+00
 Coeff:     -0.123D-01 0.542D+00 0.470D+00
 Gap=     0.154 Goal=   None    Shift=    0.000
 RMSDP=3.07D-04 MaxDP=1.82D-02 DE= 6.25D-04 OVMax= 3.68D-02

 Cycle   4  Pass 0  IDiag  1:
 E= -764.376452233913     Delta-E=       -0.007612647932 Rises=F Damp=F
 DIIS: error= 2.08D-03 at cycle   4 NSaved=   4.
 NSaved= 4 IEnMin= 4 EnMin= -764.376452233913     IErMin= 4 ErrMin= 2.08D-03
 ErrMax= 2.08D-03  0.00D+00 EMaxC= 1.00D-01 BMatC= 1.94D-03 BMatP= 6.58D-03
 IDIUse=3 WtCom= 9.79D-01 WtEn= 2.08D-02
 Coeff-Com: -0.487D-01 0.200D+00 0.318D+00 0.531D+00
 Coeff-En:   0.000D+00 0.000D+00 0.136D+00 0.864D+00
 Coeff:     -0.477D-01 0.195D+00 0.314D+00 0.538D+00
 Gap=     0.158 Goal=   None    Shift=    0.000
 RMSDP=1.10D-04 MaxDP=7.42D-03 DE=-7.61D-03 OVMax= 1.10D-02

 Cycle   5  Pass 0  IDiag  1:
 E= -764.377930529692     Delta-E=       -0.001478295779 Rises=F Damp=F
 DIIS: error= 2.52D-04 at cycle   5 NSaved=   5.
 NSaved= 5 IEnMin= 5 EnMin= -764.377930529692     IErMin= 5 ErrMin= 2.52D-04
 ErrMax= 2.52D-04  0.00D+00 EMaxC= 1.00D-01 BMatC= 1.05D-04 BMatP= 1.94D-03
 IDIUse=3 WtCom= 9.97D-01 WtEn= 2.52D-03
 Coeff-Com:  0.277D-02-0.932D-01 0.341D-01 0.273D+00 0.784D+00
 Coeff-En:   0.000D+00 0.000D+00 0.000D+00 0.000D+00 0.100D+01
 Coeff:      0.277D-02-0.929D-01 0.340D-01 0.272D+00 0.784D+00
 Gap=     0.156 Goal=   None    Shift=    0.000
 RMSDP=5.96D-05 MaxDP=2.85D-03 DE=-1.48D-03 OVMax= 1.31D-02

 Cycle   6  Pass 0  IDiag  1:
 E= -764.378104688080     Delta-E=       -0.000174158388 Rises=F Damp=F
 DIIS: error= 2.34D-04 at cycle   6 NSaved=   6.
 NSaved= 6 IEnMin= 6 EnMin= -764.378104688080     IErMin= 6 ErrMin= 2.34D-04
 ErrMax= 2.34D-04  0.00D+00 EMaxC= 1.00D-01 BMatC= 3.88D-05 BMatP= 1.05D-04
 IDIUse=3 WtCom= 9.98D-01 WtEn= 2.34D-03
 Coeff-Com:  0.674D-02-0.736D-01-0.151D-01 0.914D-01 0.511D+00 0.479D+00
 Coeff-En:   0.000D+00 0.000D+00 0.000D+00 0.000D+00 0.000D+00 0.100D+01
 Coeff:      0.673D-02-0.734D-01-0.151D-01 0.912D-01 0.510D+00 0.480D+00
 Gap=     0.157 Goal=   None    Shift=    0.000
 RMSDP=1.72D-05 MaxDP=1.03D-03 DE=-1.74D-04 OVMax= 2.03D-03

 Cycle   7  Pass 0  IDiag  1:
 E= -764.378155870302     Delta-E=       -0.000051182222 Rises=F Damp=F
 DIIS: error= 1.64D-04 at cycle   7 NSaved=   7.
 NSaved= 7 IEnMin= 7 EnMin= -764.378155870302     IErMin= 7 ErrMin= 1.64D-04
 ErrMax= 1.64D-04  0.00D+00 EMaxC= 1.00D-01 BMatC= 7.99D-06 BMatP= 3.88D-05
 IDIUse=3 WtCom= 9.98D-01 WtEn= 1.64D-03
 Coeff-Com:  0.213D-02 0.531D-03-0.241D-01-0.731D-01 0.204D-01-0.159D+00
 Coeff-Com:  0.123D+01
 Coeff-En:   0.000D+00 0.000D+00 0.000D+00 0.000D+00 0.000D+00 0.000D+00
 Coeff-En:   0.100D+01
 Coeff:      0.212D-02 0.530D-03-0.241D-01-0.730D-01 0.203D-01-0.159D+00
 Coeff:      0.123D+01
 Gap=     0.158 Goal=   None    Shift=    0.000
 RMSDP=3.71D-05 MaxDP=2.10D-03 DE=-5.12D-05 OVMax= 7.63D-03

 Cycle   8  Pass 0  IDiag  1:
 E= -764.378204124120     Delta-E=       -0.000048253818 Rises=F Damp=F
 DIIS: error= 1.06D-04 at cycle   8 NSaved=   8.
 NSaved= 8 IEnMin= 8 EnMin= -764.378204124120     IErMin= 8 ErrMin= 1.06D-04
 ErrMax= 1.06D-04  0.00D+00 EMaxC= 1.00D-01 BMatC= 8.37D-06 BMatP= 7.99D-06
 IDIUse=3 WtCom= 9.99D-01 WtEn= 1.06D-03
 Coeff-Com: -0.214D-02 0.269D-01-0.526D-03-0.494D-01-0.999D-01-0.685D+00
 Coeff-Com:  0.563D+00 0.125D+01
 Coeff-En:   0.000D+00 0.000D+00 0.000D+00 0.000D+00 0.000D+00 0.000D+00
 Coeff-En:   0.000D+00 0.100D+01
 Coeff:     -0.214D-02 0.268D-01-0.526D-03-0.493D-01-0.998D-01-0.685D+00
 Coeff:      0.563D+00 0.125D+01
 Gap=     0.159 Goal=   None    Shift=    0.000
 RMSDP=4.51D-05 MaxDP=3.16D-03 DE=-4.83D-05 OVMax= 8.72D-03

 Cycle   9  Pass 0  IDiag  1:
 E= -764.378245332985     Delta-E=       -0.000041208865 Rises=F Damp=F
 DIIS: error= 6.02D-05 at cycle   9 NSaved=   9.
 NSaved= 9 IEnMin= 9 EnMin= -764.378245332985     IErMin= 9 ErrMin= 6.02D-05
 ErrMax= 6.02D-05  0.00D+00 EMaxC= 1.00D-01 BMatC= 3.40D-06 BMatP= 7.99D-06
 IDIUse=1 WtCom= 1.00D+00 WtEn= 0.00D+00
 Coeff-Com: -0.901D-03 0.362D-03 0.608D-02 0.211D-01 0.626D-01-0.326D+00
 Coeff-Com: -0.967D-01 0.355D-01 0.130D+01
 Coeff:     -0.901D-03 0.362D-03 0.608D-02 0.211D-01 0.626D-01-0.326D+00
 Coeff:     -0.967D-01 0.355D-01 0.130D+01
 Gap=     0.160 Goal=   None    Shift=    0.000
 RMSDP=3.60D-05 MaxDP=2.64D-03 DE=-4.12D-05 OVMax= 7.14D-03

 Failed to achieve initial convergence to 1.0D-08 in 10 cycles.
 Switch to full accuracy anyway.
 Cycle  10  Pass 1  IDiag  1:
 E= -764.378251765275     Delta-E=       -0.000006432291 Rises=F Damp=F
 DIIS: error= 3.85D-05 at cycle   1 NSaved=   1.
 NSaved= 1 IEnMin= 1 EnMin= -764.378251765275     IErMin= 1 ErrMin= 3.85D-05
 ErrMax= 3.85D-05  0.00D+00 EMaxC= 1.00D-01 BMatC= 1.86D-06 BMatP= 1.86D-06
 IDIUse=1 WtCom= 1.00D+00 WtEn= 0.00D+00
 Coeff-Com:  0.100D+01
 Coeff:      0.100D+01
 Gap=     0.160 Goal=   None    Shift=    0.000
 RMSDP=3.60D-05 MaxDP=2.64D-03 DE=-6.43D-06 OVMax= 8.04D-04

 Cycle  11  Pass 1  IDiag  1:
 E= -764.378253564641     Delta-E=       -0.000001799366 Rises=F Damp=F
 DIIS: error= 3.85D-05 at cycle   2 NSaved=   2.
 NSaved= 2 IEnMin= 2 EnMin= -764.378253564641     IErMin= 1 ErrMin= 3.85D-05
 ErrMax= 3.85D-05  0.00D+00 EMaxC= 1.00D-01 BMatC= 1.61D-06 BMatP= 1.86D-06
 IDIUse=1 WtCom= 1.00D+00 WtEn= 0.00D+00
 Coeff-Com:  0.477D+00 0.523D+00
 Coeff:      0.477D+00 0.523D+00
 Gap=     0.160 Goal=   None    Shift=    0.000
 RMSDP=7.44D-06 MaxDP=3.35D-04 DE=-1.80D-06 OVMax= 1.72D-03

 Cycle  12  Pass 1  IDiag  1:
 E= -764.378255544344     Delta-E=       -0.000001979703 Rises=F Damp=F
 DIIS: error= 3.58D-05 at cycle   3 NSaved=   3.
 NSaved= 3 IEnMin= 3 EnMin= -764.378255544344     IErMin= 3 ErrMin= 3.58D-05
 ErrMax= 3.58D-05  0.00D+00 EMaxC= 1.00D-01 BMatC= 1.07D-06 BMatP= 1.61D-06
 IDIUse=1 WtCom= 1.00D+00 WtEn= 0.00D+00
 Coeff-Com: -0.520D-01 0.441D+00 0.611D+00
 Coeff:     -0.520D-01 0.441D+00 0.611D+00
 Gap=     0.160 Goal=   None    Shift=    0.000
 RMSDP=4.81D-06 MaxDP=3.86D-04 DE=-1.98D-06 OVMax= 8.47D-04

 Cycle  13  Pass 1  IDiag  1:
 E= -764.378257034814     Delta-E=       -0.000001490469 Rises=F Damp=F
 DIIS: error= 1.93D-05 at cycle   4 NSaved=   4.
 NSaved= 4 IEnMin= 4 EnMin= -764.378257034814     IErMin= 4 ErrMin= 1.93D-05
 ErrMax= 1.93D-05  0.00D+00 EMaxC= 1.00D-01 BMatC= 3.98D-07 BMatP= 1.07D-06
 IDIUse=1 WtCom= 1.00D+00 WtEn= 0.00D+00
 Coeff-Com: -0.136D+00 0.316D+00 0.241D+00 0.578D+00
 Coeff:     -0.136D+00 0.316D+00 0.241D+00 0.578D+00
 Gap=     0.160 Goal=   None    Shift=    0.000
 RMSDP=3.59D-06 MaxDP=3.03D-04 DE=-1.49D-06 OVMax= 6.60D-04

 Cycle  14  Pass 1  IDiag  1:
 E= -764.378257726146     Delta-E=       -0.000000691332 Rises=F Damp=F
 DIIS: error= 2.26D-05 at cycle   5 NSaved=   5.
 NSaved= 5 IEnMin= 5 EnMin= -764.378257726146     IErMin= 4 ErrMin= 1.93D-05
 ErrMax= 2.26D-05  0.00D+00 EMaxC= 1.00D-01 BMatC= 2.78D-07 BMatP= 3.98D-07
 IDIUse=1 WtCom= 1.00D+00 WtEn= 0.00D+00
 Coeff-Com: -0.124D-01-0.568D-01-0.109D+01 0.716D-01 0.209D+01
 Coeff:     -0.124D-01-0.568D-01-0.109D+01 0.716D-01 0.209D+01
 Gap=     0.160 Goal=   None    Shift=    0.000
 RMSDP=1.17D-05 MaxDP=8.67D-04 DE=-6.91D-07 OVMax= 2.34D-03

 Cycle  15  Pass 1  IDiag  1:
 E= -764.378259337993     Delta-E=       -0.000001611847 Rises=F Damp=F
 DIIS: error= 8.06D-06 at cycle   6 NSaved=   6.
 NSaved= 6 IEnMin= 6 EnMin= -764.378259337993     IErMin= 6 ErrMin= 8.06D-06
 ErrMax= 8.06D-06  0.00D+00 EMaxC= 1.00D-01 BMatC= 7.03D-08 BMatP= 2.78D-07
 IDIUse=1 WtCom= 1.00D+00 WtEn= 0.00D+00
 Coeff-Com:  0.558D-01-0.135D+00-0.919D+00-0.308D+00 0.146D+01 0.852D+00
 Coeff:      0.558D-01-0.135D+00-0.919D+00-0.308D+00 0.146D+01 0.852D+00
 Gap=     0.160 Goal=   None    Shift=    0.000
 RMSDP=7.49D-06 MaxDP=5.43D-04 DE=-1.61D-06 OVMax= 1.50D-03

 Cycle  16  Pass 1  IDiag  1:
 E= -764.378259735402     Delta-E=       -0.000000397409 Rises=F Damp=F
 DIIS: error= 3.59D-06 at cycle   7 NSaved=   7.
 NSaved= 7 IEnMin= 7 EnMin= -764.378259735402     IErMin= 7 ErrMin= 3.59D-06
 ErrMax= 3.59D-06  0.00D+00 EMaxC= 1.00D-01 BMatC= 2.77D-09 BMatP= 7.03D-08
 IDIUse=1 WtCom= 1.00D+00 WtEn= 0.00D+00
 Coeff-Com:  0.958D-02 0.130D-01 0.102D+00-0.644D-01-0.198D+00 0.864D-01
 Coeff-Com:  0.105D+01
 Coeff:      0.958D-02 0.130D-01 0.102D+00-0.644D-01-0.198D+00 0.864D-01
 Coeff:      0.105D+01
 Gap=     0.161 Goal=   None    Shift=    0.000
 RMSDP=1.11D-06 MaxDP=5.49D-05 DE=-3.97D-07 OVMax= 2.23D-04

 Cycle  17  Pass 1  IDiag  1:
 E= -764.378259755098     Delta-E=       -0.000000019696 Rises=F Damp=F
 DIIS: error= 1.47D-06 at cycle   8 NSaved=   8.
 NSaved= 8 IEnMin= 8 EnMin= -764.378259755098     IErMin= 8 ErrMin= 1.47D-06
 ErrMax= 1.47D-06  0.00D+00 EMaxC= 1.00D-01 BMatC= 8.36D-10 BMatP= 2.77D-09
 IDIUse=1 WtCom= 1.00D+00 WtEn= 0.00D+00
 Coeff-Com: -0.103D-01 0.365D-01 0.259D+00 0.427D-01-0.418D+00-0.181D+00
 Coeff-Com:  0.368D+00 0.902D+00
 Coeff:     -0.103D-01 0.365D-01 0.259D+00 0.427D-01-0.418D+00-0.181D+00
 Coeff:      0.368D+00 0.902D+00
 Gap=     0.161 Goal=   None    Shift=    0.000
 RMSDP=5.25D-07 MaxDP=3.07D-05 DE=-1.97D-08 OVMax= 9.30D-05

 Cycle  18  Pass 1  IDiag  1:
 E= -764.378259759095     Delta-E=       -0.000000003997 Rises=F Damp=F
 DIIS: error= 5.37D-07 at cycle   9 NSaved=   9.
 NSaved= 9 IEnMin= 9 EnMin= -764.378259759095     IErMin= 9 ErrMin= 5.37D-07
 ErrMax= 5.37D-07  0.00D+00 EMaxC= 1.00D-01 BMatC= 1.13D-10 BMatP= 8.36D-10
 IDIUse=1 WtCom= 1.00D+00 WtEn= 0.00D+00
 Coeff-Com: -0.401D-02 0.583D-02 0.562D-01 0.170D-01-0.812D-01-0.555D-01
 Coeff-Com: -0.769D-01 0.238D+00 0.901D+00
 Coeff:     -0.401D-02 0.583D-02 0.562D-01 0.170D-01-0.812D-01-0.555D-01
 Coeff:     -0.769D-01 0.238D+00 0.901D+00
 Gap=     0.161 Goal=   None    Shift=    0.000
 RMSDP=1.40D-07 MaxDP=7.15D-06 DE=-4.00D-09 OVMax= 2.42D-05

 Cycle  19  Pass 1  IDiag  1:
 E= -764.378259759482     Delta-E=       -0.000000000387 Rises=F Damp=F
 DIIS: error= 2.03D-07 at cycle  10 NSaved=  10.
 NSaved=10 IEnMin=10 EnMin= -764.378259759482     IErMin=10 ErrMin= 2.03D-07
 ErrMax= 2.03D-07  0.00D+00 EMaxC= 1.00D-01 BMatC= 2.50D-11 BMatP= 1.13D-10
 IDIUse=1 WtCom= 1.00D+00 WtEn= 0.00D+00
 Coeff-Com:  0.473D-03-0.442D-02-0.201D-01-0.341D-02 0.394D-01 0.122D-01
 Coeff-Com: -0.792D-01-0.605D-01 0.277D+00 0.838D+00
 Coeff:      0.473D-03-0.442D-02-0.201D-01-0.341D-02 0.394D-01 0.122D-01
 Coeff:     -0.792D-01-0.605D-01 0.277D+00 0.838D+00
 Gap=     0.161 Goal=   None    Shift=    0.000
 RMSDP=2.62D-08 MaxDP=8.43D-07 DE=-3.87D-10 OVMax= 3.24D-06

 Cycle  20  Pass 1  IDiag  1:
 E= -764.378259759476     Delta-E=        0.000000000006 Rises=F Damp=F
 DIIS: error= 6.72D-08 at cycle  11 NSaved=  11.
 NSaved=11 IEnMin=10 EnMin= -764.378259759482     IErMin=11 ErrMin= 6.72D-08
 ErrMax= 6.72D-08  0.00D+00 EMaxC= 1.00D-01 BMatC= 4.39D-12 BMatP= 2.50D-11
 IDIUse=1 WtCom= 1.00D+00 WtEn= 0.00D+00
 Coeff-Com:  0.613D-03-0.273D-02-0.144D-01-0.416D-02 0.271D-01 0.112D-01
 Coeff-Com: -0.242D-01-0.530D-01 0.681D-02 0.347D+00 0.706D+00
 Coeff:      0.613D-03-0.273D-02-0.144D-01-0.416D-02 0.271D-01 0.112D-01
 Coeff:     -0.242D-01-0.530D-01 0.681D-02 0.347D+00 0.706D+00
 Gap=     0.161 Goal=   None    Shift=    0.000
 RMSDP=1.31D-08 MaxDP=5.51D-07 DE= 5.91D-12 OVMax= 2.54D-06

 Cycle  21  Pass 1  IDiag  1:
 E= -764.378259759448     Delta-E=        0.000000000028 Rises=F Damp=F
 DIIS: error= 4.14D-08 at cycle  12 NSaved=  12.
 NSaved=12 IEnMin=10 EnMin= -764.378259759482     IErMin=12 ErrMin= 4.14D-08
 ErrMax= 4.14D-08  0.00D+00 EMaxC= 1.00D-01 BMatC= 5.63D-13 BMatP= 4.39D-12
 IDIUse=1 WtCom= 1.00D+00 WtEn= 0.00D+00
 Coeff-Com:  0.216D-04 0.111D-03 0.169D-02-0.735D-03-0.213D-02-0.893D-03
 Coeff-Com:  0.880D-02 0.555D-02-0.367D-01-0.101D+00 0.500D-01 0.108D+01
 Coeff:      0.216D-04 0.111D-03 0.169D-02-0.735D-03-0.213D-02-0.893D-03
 Coeff:      0.880D-02 0.555D-02-0.367D-01-0.101D+00 0.500D-01 0.108D+01
 Gap=     0.161 Goal=   None    Shift=    0.000
 RMSDP=4.44D-09 MaxDP=1.96D-07 DE= 2.80D-11 OVMax= 9.02D-07

 SCF Done:  E(RM062X) =  -764.378259759     A.U. after   21 cycles
            NFock= 21  Conv=0.44D-08     -V/T= 2.0036
 KE= 7.616351641747D+02 PE=-3.107008814628D+03 EE= 9.330985102484D+02
 Leave Link  502 at Sat May 24 06:17:12 2025, MaxMem=  3758096384 cpu:             172.2 elap:              43.9
 (Enter /apps/easybuild-2022/easybuild/software/Compiler/NVHPC/22.11-CUDA-11.7.0/Gaussian/g16c01-CUDA-11.7.0/g16/l508.exe)
 QCSCF skips out because SCF is already converged.
 Leave Link  508 at Sat May 24 06:17:12 2025, MaxMem=  3758096384 cpu:               0.1 elap:               0.0
 (Enter /apps/easybuild-2022/easybuild/software/Compiler/NVHPC/22.11-CUDA-11.7.0/Gaussian/g16c01-CUDA-11.7.0/g16/l801.exe)
 DoSCS=F DFT=T ScalE2(SS,OS)=  1.000000  1.000000
 Range of M.O.s used for correlation:     1   324
 NBasis=   324 NAE=    40 NBE=    40 NFC=     0 NFV=     0
 NROrb=    324 NOA=    40 NOB=    40 NVA=   284 NVB=   284

 **** Warning!!: The largest alpha MO coefficient is  0.15975103D+02

 Leave Link  801 at Sat May 24 06:17:12 2025, MaxMem=  3758096384 cpu:               0.1 elap:               0.0
 (Enter /apps/easybuild-2022/easybuild/software/Compiler/NVHPC/22.11-CUDA-11.7.0/Gaussian/g16c01-CUDA-11.7.0/g16/l1101.exe)
 Using compressed storage, NAtomX=    11.
 Will process     12 centers per pass.
   1 Symmetry operations used in ECPInt.
 ECPInt:  NShTT=    6786 NPrTT=   21959 LenC2=    6529 LenP2D=   16234.
 LDataN:  DoStor=T MaxTD1= 7 Len=  274
[...]
     33  0.724104D-01 -0.381412D-02  0.582554D-02 -0.249327D-01 -0.763835D-02
                6             7             8             9            10 
      6  0.478055D-01
      7  0.588254D-01  0.574926D+00
      8 -0.310235D-02  0.177054D-01  0.502799D+00
      9  0.274665D-01 -0.739733D-03  0.124164D-01  0.527680D+00
     10 -0.409731D-01 -0.674821D-01  0.342399D-01 -0.362515D-01  0.542269D+00
     11 -0.944318D-02  0.571214D-01 -0.126519D+00  0.658126D-01 -0.176435D-01
     12 -0.270412D-01 -0.402909D-01  0.399954D-01 -0.786419D-01  0.126996D-01
     13  0.689935D-02  0.277850D-02  0.867217D-02 -0.511168D-03 -0.887931D-01
     14 -0.139538D-01 -0.205653D-01 -0.506653D-01 -0.119516D-01 -0.516620D-01
     15  0.641070D-02  0.234854D-02  0.122870D-01  0.282273D-02 -0.950064D-02
     16  0.494947D-02  0.416871D-02 -0.243045D-02 -0.109036D-01 -0.765852D-01
     17  0.484269D-02 -0.369638D-02  0.102466D-01  0.140572D-01  0.530551D-02
     18  0.107864D-01  0.116303D-01 -0.140486D-01 -0.386204D-01  0.347914D-02
     19  0.133519D-01 -0.423888D-01 -0.993026D-02  0.186381D-01 -0.261939D+00
     20  0.510634D-02  0.161113D-01  0.802157D-02 -0.766526D-02  0.189623D-01
     21 -0.142896D-02 -0.668385D-02  0.189765D-03  0.480697D-02  0.201180D-01
     22  0.259353D-02 -0.685336D-01  0.230043D-02 -0.146715D-02  0.274812D-02
     23 -0.115727D-02  0.842389D-03 -0.924062D-01 -0.594891D-01 -0.476050D-03
     24 -0.908969D-02 -0.511677D-02 -0.561651D-01 -0.276451D+00  0.744024D-02
     25  0.129074D-02 -0.316712D+00 -0.179398D-01  0.311156D-01 -0.508740D-01
     26  0.357146D-02 -0.196061D-01 -0.757181D-01  0.494246D-02  0.225541D-01
     27  0.306977D-02  0.394711D-01  0.332347D-02 -0.756290D-01 -0.783418D-02
     28  0.112776D+00 -0.349374D-01  0.154194D-01  0.109932D-01 -0.138424D-02
     29  0.383411D-01 -0.407676D-01 -0.346571D-02  0.120003D-01  0.111384D-01
     30  0.128002D+00 -0.763756D-01  0.192417D-02 -0.508202D-01  0.459949D-01
     31  0.215557D-01 -0.638209D-02  0.416341D-03 -0.225308D-03  0.255397D-02
     32 -0.165282D-01 -0.265793D-02  0.550179D-02  0.256431D-02 -0.143218D-01
     33  0.421732D-01 -0.113715D-01  0.788088D-03 -0.366716D-02  0.143929D-01
               11            12            13            14            15 
     11  0.615274D+00
     12 -0.156004D-01  0.617012D+00
     13 -0.560304D-01 -0.110263D-01  0.114297D+00
     14 -0.310251D+00 -0.282763D-01  0.112741D+00  0.395124D+00
     15 -0.315067D-01 -0.824200D-01  0.215136D-01  0.771662D-01  0.978041D-01
     16  0.632760D-02  0.113811D-01  0.119435D-01 -0.663259D-02 -0.128338D-01
     17 -0.845600D-01 -0.176685D-01 -0.652896D-02 -0.257358D-01 -0.642784D-01
     18 -0.838191D-02 -0.333360D+00 -0.864612D-02 -0.455897D-01 -0.355347D-01
     19  0.215735D-01  0.174741D-01 -0.461686D-01 -0.434117D-01  0.236766D-03
     20 -0.786252D-01  0.430774D-02 -0.619115D-01 -0.159117D-01  0.300264D-02
     21  0.260348D-02 -0.771786D-01  0.424043D-03  0.242195D-02  0.131342D-01
     22 -0.722730D-02 -0.102079D-01  0.680299D-03  0.170375D-02  0.226681D-03
     23  0.386410D-02  0.156473D-01  0.582293D-03  0.495943D-02  0.239501D-02
     24 -0.215573D-01 -0.513090D-01 -0.362898D-04  0.236496D-02  0.448753D-02
     25 -0.929104D-02  0.183757D-01  0.477498D-02  0.409349D-02 -0.149998D-02
     26  0.251518D-02 -0.334394D-02  0.700235D-03  0.425892D-02 -0.445947D-04
     27 -0.353753D-02  0.436607D-02 -0.136249D-03  0.922636D-03  0.460621D-03
     28  0.563472D-02  0.477448D-02 -0.132440D-04  0.118738D-02 -0.641386D-03
     29  0.229856D-02  0.293563D-02 -0.175651D-02  0.208838D-02 -0.123953D-02
     30  0.617362D-02  0.224998D-01 -0.717749D-02  0.157708D-01 -0.589472D-02
     31 -0.343080D-02  0.336379D-02 -0.518637D-03  0.109673D-02 -0.569907D-03
     32 -0.305187D-03  0.427957D-02  0.215383D-02  0.216021D-03  0.401934D-03
     33  0.396205D-02  0.380948D-02 -0.248056D-02  0.119700D-02 -0.141560D-02
               16            17            18            19            20 
     16  0.817782D-01
     17 -0.815356D-03  0.932700D-01
     18 -0.430445D-01  0.639276D-01  0.447441D+00
     19 -0.241755D-01  0.416716D-02  0.452322D-01  0.377769D+00
     20  0.232700D-02  0.118977D-01 -0.278440D-02  0.152379D-01  0.869044D-01
     21  0.616640D-01 -0.562862D-02 -0.354133D-01 -0.682495D-01 -0.295693D-02
     22 -0.545995D-03  0.226042D-02 -0.448085D-02  0.291863D-02 -0.334792D-04
     23  0.172492D-02 -0.165550D-02  0.629735D-02  0.454379D-03  0.602133D-03
     24 -0.482362D-02  0.690687D-02 -0.967113D-02 -0.436702D-02  0.251439D-02
     25  0.337252D-02  0.120235D-02 -0.463665D-02 -0.103332D-01  0.704259D-02
     26 -0.407353D-03  0.129901D-03  0.564229D-03  0.770468D-02 -0.254267D-02
     27 -0.180284D-02  0.231420D-03  0.357176D-02 -0.520629D-02  0.217666D-02
     28  0.309636D-03 -0.196680D-02 -0.259848D-02  0.386858D-02  0.470797D-03
     29 -0.145268D-02 -0.122159D-02 -0.104423D-02 -0.337081D-02 -0.849272D-02
     30 -0.414352D-02  0.988518D-03 -0.949788D-02 -0.156085D-01 -0.313444D-02
     31 -0.461612D-03  0.457377D-03 -0.991916D-03 -0.248613D-02  0.258774D-02
     32  0.166331D-02 -0.103515D-02 -0.228532D-02  0.839914D-02 -0.182346D-02
     33 -0.162613D-02 -0.567324D-03 -0.157498D-02 -0.636700D-02 -0.183935D-02
               21            22            23            24            25 
     21  0.927386D-01
     22 -0.224834D-02  0.721133D-01
     23  0.223687D-03 -0.774448D-02  0.935523D-01
     24  0.337549D-02 -0.298973D-01  0.861657D-01  0.386181D+00
     25 -0.450419D-02 -0.174764D-01  0.904102D-02  0.419976D-01  0.417184D+00
     26  0.146845D-02  0.109681D-01  0.104600D-01 -0.375331D-02  0.224213D-01
     27 -0.247793D-04  0.554664D-01 -0.379112D-02 -0.292831D-01 -0.880049D-01
     28 -0.128196D-02  0.294021D-02 -0.237177D-03 -0.217314D-02 -0.601709D-02
     29  0.504215D-02 -0.572023D-03  0.294286D-02  0.555924D-02 -0.631254D-02
     30  0.201998D-02 -0.494603D-02 -0.346216D-03  0.160207D-01 -0.372380D-02
     31 -0.138055D-02  0.135364D-02 -0.433957D-03 -0.152356D-02  0.199282D-02
     32 -0.149490D-02  0.160783D-02 -0.134715D-02 -0.107377D-02  0.636335D-03
     33  0.586114D-03  0.520222D-03 -0.297605D-03 -0.338193D-03 -0.740529D-03
               26            27            28            29            30 
     26  0.704945D-01
     27 -0.802236D-02  0.899019D-01
     28 -0.101825D-01 -0.234705D-03  0.362517D+00
     29 -0.681425D-02 -0.890330D-03 -0.120689D+00  0.425303D+00
     30 -0.746924D-02 -0.621429D-03 -0.177505D+00 -0.163711D-01 -0.125132D+00
     31  0.383404D-03 -0.318543D-03 -0.129604D+00  0.142580D+00  0.620490D-02
     32 -0.133126D-02  0.327372D-03  0.166610D+00 -0.338328D+00 -0.249333D-01
     33 -0.727845D-03 -0.942142D-03 -0.194949D-02 -0.355938D-01 -0.763347D-01
               31            32            33 
     31  0.148494D+00
     32 -0.168508D+00  0.326794D+00
     33 -0.378556D-01  0.445313D-01  0.318784D-01
 Red2BG is reusing G-inverse.
 Leave Link  716 at Sat May 24 06:34:26 2025, MaxMem=  3758096384 cpu:               0.1 elap:               0.1
 (Enter /apps/easybuild-2022/easybuild/software/Compiler/NVHPC/22.11-CUDA-11.7.0/Gaussian/g16c01-CUDA-11.7.0/g16/l9999.exe)

 ----------------------------------------------------------------------

 Electric dipole moment (input orientation):
 (Debye = 10**-18 statcoulomb cm , SI units = C m)
                  (au)            (Debye)         (10**-30 SI)
   Tot        0.952423D+00      0.242082D+01      0.807497D+01
   x         -0.841435D+00     -0.213872D+01     -0.713399D+01
   y          0.337279D+00      0.857277D+00      0.285957D+01
   z          0.292127D+00      0.742513D+00      0.247676D+01

 Dipole polarizability, Alpha (input orientation).
 (esu units = cm**3 , SI units = C**2 m**2 J**-1)
 Alpha(0;0):
               (au)            (10**-24 esu)      (10**-40 SI)
   iso        0.524095D+02      0.776629D+01      0.864116D+01
   aniso      0.142853D+02      0.211687D+01      0.235534D+01
   xx         0.583005D+02      0.863925D+01      0.961246D+01
   yx         0.485787D+01      0.719863D+00      0.800955D+00
   yy         0.490623D+02      0.727028D+01      0.808928D+01
   zx         0.384603D+01      0.569923D+00      0.634125D+00
   zy         0.185561D+01      0.274974D+00      0.305949D+00
   zz         0.498657D+02      0.738933D+01      0.822174D+01

 ----------------------------------------------------------------------

 Dipole orientation:
     6          0.75996889          0.74169184         -2.54439218
     8         -1.91010881          0.65149673         -1.98407900
     6          1.94493189          3.35385024         -2.26688660
     6          0.44362822          5.35682406         -0.76384644
     9          1.77184646          7.45164596         -0.46271940
     9         -1.70930245          5.91668807         -1.88909070
     9         -0.06949791          4.42072784          1.55081026
     9          4.14767209          3.02947688         -1.01687118
     9          2.40453529          4.33499360         -4.54698345
     8          0.46333828         -0.45945918         -0.20845438
     1          0.68032696          0.64954946          1.27888101

 Electric dipole moment (dipole orientation):
 (Debye = 10**-18 statcoulomb cm , SI units = C m)
                  (au)            (Debye)         (10**-30 SI)
   Tot        0.952423D+00      0.242082D+01      0.807497D+01
   x          0.000000D+00      0.000000D+00      0.000000D+00
   y          0.000000D+00      0.000000D+00      0.000000D+00
   z          0.952423D+00      0.242082D+01      0.807497D+01

 Dipole polarizability, Alpha (dipole orientation).
 (esu units = cm**3 , SI units = C**2 m**2 J**-1)
 Alpha(0;0):
               (au)            (10**-24 esu)      (10**-40 SI)
   iso        0.524095D+02      0.776629D+01      0.864116D+01
   aniso      0.142853D+02      0.211687D+01      0.235534D+01
   xx         0.556457D+02      0.824585D+01      0.917474D+01
   yx         0.427607D+01      0.633648D+00      0.705028D+00
   yy         0.499552D+02      0.740260D+01      0.823651D+01
   zx        -0.521377D+01     -0.772601D+00     -0.859635D+00
   zy        -0.374186D+01     -0.554486D+00     -0.616949D+00
   zz         0.516275D+02      0.765041D+01      0.851223D+01

 ----------------------------------------------------------------------
 Unable to Open any file for archive entry.
 1\1\GINC-SPARTAN-BM178\Freq\RM062X\def2TZVPP\C3H1F5O2\AKHALILOV\24-May
 -2025\0\\#P M062X/Def2TZVPP Symm(None) scf(xqc) pop(None) opt(NoFreeze
 ,TS,CalcAll,NoEigentest,MaxCycle=999)\\Gaussian input prepared by ASE\
 \0,1\C,1.4454483359,-0.0257032539,-0.1966742486\O,0.6030893263,-0.3021
 443506,-1.3371199512\C,1.8991750144,1.4260680744,-0.0871569721\C,1.130
 3394657,2.4757266671,-0.9204257818\F,1.5380043407,3.7025850479,-0.6431
 542386\F,1.2685600699,2.2599232078,-2.21449934\F,-0.1797346896,2.39665
 13325,-0.6092072886\F,1.7430727442,1.7842207582,1.2063245998\F,3.18739
 40253,1.526388771,-0.4262302324\O,0.1379771476,-0.2001611872,0.2688827
 29\H,-0.3706211522,0.6365924599,0.403911795\\Version=ES64L-G16RevC.01\
 HF=-764.3803926\RMSD=8.945e-09\RMSF=8.110e-06\ZeroPoint=0.0480556\Ther
 mal=0.0566666\ETot=-764.3237261\HTot=-764.3227819\GTot=-764.3665187\Di
 pole=-0.8414354,0.3372788,0.292127\DipoleDeriv=-1.9700818,-0.3314981,-
 1.0993714,0.1833003,0.0075906,0.0853329,-0.6496676,-0.1419289,-0.05658
 98,1.3561365,0.287961,0.399713,-0.3287515,-0.1970492,-0.0709365,-1.865
 2075,-0.5379612,-0.9468039,1.6993728,0.3430781,0.0440783,0.0291638,0.7
 164737,0.0698895,0.2045454,0.2394374,1.2026662,1.0913803,-0.0326864,-0
 .2007655,0.1476263,1.5586606,0.0595011,-0.3225892,-0.0969004,1.3612165
 ,-0.2637253,-0.0900089,-0.0322054,-0.3156665,-1.0527469,-0.1184724,0.0
 014976,-0.0131048,-0.2788246,-0.2340807,0.0363138,0.0226221,0.0276938,
 -0.3305316,0.0177128,0.1532338,-0.0197006,-0.8205678,-0.7647011,-0.043
 3294,0.183094,0.0673477,-0.3903332,0.0586914,0.0744019,0.0958424,-0.31
 95293,-0.281508,0.0091012,0.0082246,-0.0210747,-0.3424893,-0.1392714,-
 0.0515249,-0.1716265,-0.8139071,-0.8640565,-0.0816116,0.1626095,-0.040
 2416,-0.2642727,0.04209,0.1018761,0.0568025,-0.2809676,-0.1561951,-0.1
 384483,0.5041665,0.2769471,-0.0424863,0.0166895,2.0772587,0.5700709,0.
 5202028,0.3874589,0.0411286,0.0078343,-0.0263447,0.3371844,-0.0212269,
 0.2761758,0.0190691,0.4331049\Polar=58.3005256,4.8578741,49.0622718,3.
 8460294,1.8556145,49.8657028\PG=Unknown\NImag=1\\-0.07612217,0.1504902
 4,0.30542236,-0.09348580,0.05330426,0.18864417,0.23006697,-0.06863100,
 -0.00683032,-0.10748043,-0.09498712,-0.03236221,-0.01819880,0.07101477
 ,0.05131448,-0.48455802,-0.01572158,-0.22815372,0.30328930,0.00804471,
 0.04780547,0.02761878,-0.00156186,0.02830291,-0.07305622,-0.00292528,0
 .05882544,0.57492629,-0.05983028,-0.17630290,0.00239176,0.01137714,-0.
 00149216,-0.00310235,0.01770538,0.50279943,0.04448117,-0.00794207,-0.0
 3894683,-0.05512959,-0.02474526,0.02746655,-0.00073973,0.01241638,0.52
 767994,-0.03277553,-0.00586418,-0.00956541,0.03226156,-0.00223275,-0.0
 4097306,-0.06748208,0.03423994,-0.03625145,0.54226928,-0.00192684,-0.0
 2547773,0.01147528,0.00489261,0.00178626,-0.00944318,0.05712143,-0.126
 51893,0.06581260,-0.01764349,0.61527400,-0.02527161,0.00114677,0.00226
 264,0.01872784,-0.00342326,-0.02704119,-0.04029086,0.03999537,-0.07864
 186,0.01269963,-0.01560044,0.61701220,0.00607241,0.00100112,0.00117714
 ,-0.00505308,0.00037640,0.00689935,0.00277850,0.00867217,-0.00051117,-
 0.08879313,-0.05603035,-0.01102628,0.11429700,-0.00974841,-0.00367005,
 -0.00007213,0.01119742,-0.00041241,-0.01395376,-0.02056530,-0.05066534
 ,-0.01195161,-0.05166199,-0.31025104,-0.02827629,0.11274127,0.39512351
 ,0.00509102,0.00124999,0.00014516,-0.00437096,0.00056648,0.00641070,0.
 00234854,0.01228702,0.00282273,-0.00950064,-0.03150670,-0.08242001,0.0
 2151363,0.07716617,0.09780408,0.00334006,0.00047772,0.00118340,-0.0031
 4432,-0.00078211,0.00494947,0.00416871,-0.00243045,-0.01090361,-0.0765
 8523,0.00632760,0.01138113,0.01194354,-0.00663259,-0.01283376,0.081778
 20,0.00070655,0.00142259,-0.00281146,-0.00109187,-0.00275877,0.0048426
 9,-0.00369638,0.01024656,0.01405723,0.00530551,-0.08456000,-0.01766850
 ,-0.00652896,-0.02573578,-0.06427842,-0.00081536,0.09327001,0.01158923
 ,0.00013910,0.00187275,-0.00753239,0.00320589,0.01078635,0.01163031,-0
 .01404859,-0.03862040,0.00347914,-0.00838191,-0.33335963,-0.00864612,-
 0.04558970,-0.03553471,-0.04304448,0.06392759,0.44744114,0.01271258,-0
 .00241654,0.00486532,-0.00977788,0.00159263,0.01335187,-0.04238883,-0.
 00993026,0.01863805,-0.26193873,0.02157346,0.01747408,-0.04616863,-0.0
 4341175,0.00023677,-0.02417550,0.00416716,0.04523220,0.37776910,0.0022
 3116,0.00210793,0.00127261,-0.00302583,-0.00213805,0.00510634,0.016111
 27,0.00802157,-0.00766526,0.01896233,-0.07862521,0.00430774,-0.0619114
 9,-0.01591166,0.00300264,0.00232700,0.01189774,-0.00278440,0.01523792,
 0.08690440,-0.00061750,-0.00016133,-0.00261580,0.00275986,-0.00170770,
 -0.00142896,-0.00668385,0.00018977,0.00480697,0.02011800,0.00260348,-0
 .07717860,0.00042404,0.00242195,0.01313421,0.06166395,-0.00562862,-0.0
 3541326,-0.06824947,-0.00295693,0.09273864,0.00431335,-0.00104580,-0.0
 0555928,-0.00051160,-0.00221748,0.00259353,-0.06853361,0.00230043,-0.0
 0146715,0.00274812,-0.00722730,-0.01020793,0.00068030,0.00170375,0.000
 22668,-0.00054599,0.00226042,-0.00448085,0.00291863,-0.00003348,-0.002
 24834,0.07211332,0.00032572,-0.01272358,-0.04564775,-0.00407905,-0.008
 24842,-0.00115727,0.00084239,-0.09240618,-0.05948909,-0.00047605,0.003
 86410,0.01564735,0.00058229,0.00495943,0.00239501,0.00172492,-0.001655
 50,0.00629735,0.00045438,0.00060213,0.00022369,-0.00774448,0.09355228,
 -0.01342860,-0.01306554,-0.03392334,0.01192839,-0.00789616,-0.00908969
 ,-0.00511677,-0.05616508,-0.27645075,0.00744024,-0.02155725,-0.0513089
 5,-0.00003629,0.00236496,0.00448753,-0.00482362,0.00690687,-0.00967113
 ,-0.00436702,0.00251439,0.00337549,-0.02989727,0.08616566,0.38618140,-
 0.02147244,-0.01023856,0.01033038,-0.00443875,-0.00065509,0.00129074,-
 0.31671199,-0.01793980,0.03111556,-0.05087399,-0.00929104,0.01837573,0
 .00477498,0.00409349,-0.00149998,0.00337252,0.00120235,-0.00463665,-0.
 01033319,0.00704259,-0.00450419,-0.01747637,0.00904102,0.04199764,0.41
 718352,-0.02650643,-0.00068111,0.01281469,-0.00802946,-0.00077113,0.00
 357146,-0.01960612,-0.07571814,0.00494246,0.02255415,0.00251518,-0.003
 34394,0.00070024,0.00425892,-0.00004459,-0.00040735,0.00012990,0.00056
 423,0.00770468,-0.00254267,0.00146845,0.01096814,0.01046003,-0.0037533
 1,0.02242125,0.07049451,0.00687242,0.00807663,0.00513033,0.00172779,0.
 00118316,0.00306977,0.03947110,0.00332347,-0.07562898,-0.00783418,-0.0
 0353753,0.00436607,-0.00013625,0.00092264,0.00046062,-0.00180284,0.000
 23142,0.00357176,-0.00520629,0.00217666,-0.00002478,0.05546640,-0.0037
 9112,-0.02928312,-0.08800491,-0.00802236,0.08990190,-0.15015656,-0.087
 52567,0.05784070,-0.04752265,0.03127886,0.11277567,-0.03493745,0.01541
 939,0.01099322,-0.00138424,0.00563472,0.00477448,-0.00001324,0.0011873
 8,-0.00064139,0.00030964,-0.00196680,-0.00259848,0.00386858,0.00047080
 ,-0.00128196,0.00294021,-0.00023718,-0.00217314,-0.00601709,-0.0101825
 0,-0.00023470,0.36251729,0.04548392,-0.07100061,-0.00873941,-0.0242805
 4,-0.00331039,0.03834109,-0.04076759,-0.00346571,0.01200033,0.01113838
 ,0.00229856,0.00293563,-0.00175651,0.00208838,-0.00123953,-0.00145268,
 -0.00122159,-0.00104423,-0.00337081,-0.00849272,0.00504215,-0.00057202
 ,0.00294286,0.00555924,-0.00631254,-0.00681425,-0.00089033,-0.12068944
 ,0.42530342,0.47691732,-0.02321209,0.09975908,-0.23963724,0.05060930,0
 .12800151,-0.07637561,0.00192417,-0.05082021,0.04599486,0.00617362,0.0
 2249985,-0.00717749,0.01577078,-0.00589472,-0.00414352,0.00098852,-0.0
 0949788,-0.01560850,-0.00313444,0.00201998,-0.00494603,-0.00034622,0.0
 1602075,-0.00372380,-0.00746924,-0.00062143,-0.17750490,-0.01637109,-0
 .12513220,-0.00359745,0.02531454,0.01174096,-0.01134361,-0.00046282,0.
 02155571,-0.00638209,0.00041634,-0.00022531,0.00255397,-0.00343080,0.0
 0336379,-0.00051864,0.00109673,-0.00056991,-0.00046161,0.00045738,-0.0
 0099192,-0.00248613,0.00258774,-0.00138055,0.00135364,-0.00043396,-0.0
 0152356,0.00199282,0.00038340,-0.00031854,-0.12960449,0.14257984,0.006
 20490,0.14849359,-0.00623850,0.01326532,-0.00578906,0.01065581,-0.0016
 0722,-0.01652815,-0.00265793,0.00550179,0.00256431,-0.01432184,-0.0003
 0519,0.00427957,0.00215383,0.00021602,0.00040193,0.00166331,-0.0010351
 5,-0.00228532,0.00839914,-0.00182346,-0.00149490,0.00160783,-0.0013471
 5,-0.00107377,0.00063634,-0.00133126,0.00032737,0.16661043,-0.33832797
 ,-0.02493331,-0.16850840,0.32679427,0.07241036,-0.00381412,0.00582554,
 -0.02493268,-0.00763835,0.04217321,-0.01137148,0.00078809,-0.00366716,
 0.01439287,0.00396205,0.00380948,-0.00248056,0.00119700,-0.00141560,-0
 .00162613,-0.00056732,-0.00157498,-0.00636700,-0.00183935,0.00058611,0
 .00052022,-0.00029760,-0.00033819,-0.00074053,-0.00072784,-0.00094214,
 -0.00194949,-0.03559384,-0.07633471,-0.03785558,0.04453131,0.03187844\
 \-0.00001595,0.00000283,-0.00001514,0.00001228,0.00000255,-0.00002010,
 0.00000522,-0.00000024,-0.00000119,-0.00000559,0.00000075,0.00000376,-
 0.00000449,0.00000130,0.00000874,-0.00000899,0.00000802,0.00000339,-0.
 00000087,-0.00000549,0.00001164,0.00000603,-0.00000657,-0.00000264,-0.
 00000057,0.00000451,-0.00000968,0.00000897,-0.00000466,0.00001648,0.00
 000395,-0.00000298,0.00000473\\\@
 The archive entry for this job was punched.


 ACHIEVEMENT--  THE MAN WHO ROWS THE BOAT GENERALLY 
                DOESN'T HAVE TIME TO ROCK IT.

                   -- FROM THE BACK OF A SUGAR PACKET
 Job cpu time:       0 days  2 hours 37 minutes 10.6 seconds.
 Elapsed time:       0 days  0 hours 22 minutes 56.5 seconds.
 File lengths (MBytes):  RWF=    123 Int=      0 D2E=      0 Chk=      9 Scr=      1
 Normal termination of Gaussian 16 at Sat May 24 06:34:26 2025.
done
