 Entering Gaussian System, Link 0=g16
 Initial command:
 /apps/easybuild-2022/easybuild/software/Compiler/NVHPC/22.11-CUDA-11.7.0/Gaussian/g16c01-CUDA-11.7.0/g16/l1.exe "/tmp/Gau-78687.inp" -scrdir="/tmp/"
 Entering Link 1 = /apps/easybuild-2022/easybuild/software/Compiler/NVHPC/22.11-CUDA-11.7.0/Gaussian/g16c01-CUDA-11.7.0/g16/l1.exe PID=     78688.
  
 Copyright (c) 1988-2019, Gaussian, Inc.  All Rights Reserved.
  
 This is part of the Gaussian(R) 16 program.  It is based on
 the Gaussian(R) 09 system (copyright 2009, Gaussian, Inc.),
 the Gaussian(R) 03 system (copyright 2003, Gaussian, Inc.),
 the Gaussian(R) 98 system (copyright 1998, Gaussian, Inc.),
 the Gaussian(R) 94 system (copyright 1995, Gaussian, Inc.),
 the Gaussian 92(TM) system (copyright 1992, Gaussian, Inc.),
 the Gaussian 90(TM) system (copyright 1990, Gaussian, Inc.),
 the Gaussian 88(TM) system (copyright 1988, Gaussian, Inc.),
 the Gaussian 86(TM) system (copyright 1986, Carnegie Mellon
 University), and the Gaussian 82(TM) system (copyright 1983,
 Carnegie Mellon University). Gaussian is a federally registered
 trademark of Gaussian, Inc.
  
 This software contains proprietary and confidential information,
 including trade secrets, belonging to Gaussian, Inc.
  
 This software is provided under written license and may be
 used, copied, transmitted, or stored only in accord with that
 written license.
  
 The following legend is applicable only to US Government
 contracts under FAR:
  
                    RESTRICTED RIGHTS LEGEND
  
 Use, reproduction and disclosure by the US Government is
 subject to restrictions as set forth in subparagraphs (a)
 and (c) of the Commercial Computer Software - Restricted
 Rights clause in FAR 52.227-19.
  
 Gaussian, Inc.
 340 Quinnipiac St., Bldg. 40, Wallingford CT 06492
  
  
 ---------------------------------------------------------------
 Warning -- This program may not be used in any manner that
 competes with the business of Gaussian, Inc. or will provide
 assistance to any competitor of Gaussian, Inc.  The licensee
 of this program is prohibited from giving any competitor of
 Gaussian, Inc. access to this program.  By using this program,
 the user acknowledges that Gaussian, Inc. is engaged in the
 business of creating and licensing software in the field of
 computational chemistry and represents and warrants to the
 licensee that it is not a competitor of Gaussian, Inc. and that
 it will not use this program in any manner prohibited above.
 ---------------------------------------------------------------
  

 Cite this work as:
 Gaussian 16, Revision C.01,
 M. J. Frisch, G. W. Trucks, H. B. Schlegel, G. E. Scuseria, 
 M. A. Robb, J. R. Cheeseman, G. Scalmani, V. Barone, 
 G. A. Petersson, H. Nakatsuji, X. Li, M. Caricato, A. V. Marenich, 
 J. Bloino, B. G. Janesko, R. Gomperts, B. Mennucci, H. P. Hratchian, 
 J. V. Ortiz, A. F. Izmaylov, J. L. Sonnenberg, D. Williams-Young, 
 F. Ding, F. Lipparini, F. Egidi, J. Goings, B. Peng, A. Petrone, 
 T. Henderson, D. Ranasinghe, V. G. Zakrzewski, J. Gao, N. Rega, 
 G. Zheng, W. Liang, M. Hada, M. Ehara, K. Toyota, R. Fukuda, 
 J. Hasegawa, M. Ishida, T. Nakajima, Y. Honda, O. Kitao, H. Nakai, 
 T. Vreven, K. Throssell, J. A. Montgomery, Jr., J. E. Peralta, 
 F. Ogliaro, M. J. Bearpark, J. J. Heyd, E. N. Brothers, K. N. Kudin, 
 V. N. Staroverov, T. A. Keith, R. Kobayashi, J. Normand, 
 K. Raghavachari, A. P. Rendell, J. C. Burant, S. S. Iyengar, 
 J. Tomasi, M. Cossi, J. M. Millam, M. Klene, C. Adamo, R. Cammi, 
 J. W. Ochterski, R. L. Martin, K. Morokuma, O. Farkas, 
 J. B. Foresman, and D. J. Fox, Gaussian, Inc., Wallingford CT, 2019.
 
 ******************************************
 Gaussian 16:  ES64L-G16RevC.01  3-Jul-2019
                23-May-2025 
 ******************************************
 %mem=28GB
 %nprocshared=8
 Will use up to    8 processors via shared memory.
 -----------------------------------------------------------------
 #P M062X/Def2TZVPP Symm(None) scf(xqc) pop(None) freq opt(CalcFC)
 -----------------------------------------------------------------
 1/10=4,18=20,19=15,26=3,38=1/1,3;
 2/9=110,12=2,15=3,17=6,18=5,40=1/2;
 3/5=44,7=202,11=2,25=1,30=1,71=2,74=-55,140=1/1,2,3;
 4//1;
 5/5=2,8=3,13=1,38=5/2,8;
 8/6=4,10=90,11=11/1;
 11/6=1,8=1,9=11,15=111,16=1,31=1/1,2,10;
 10/6=1,13=1,31=1/2;
 7/10=1,25=1,30=1/1,2,3,16;
 1/10=4,18=20,19=15,26=3/3(2);
 2/9=110,15=3/2;
 99//99;
 2/9=110,15=3/2;
 3/5=44,7=202,11=2,25=1,30=1,71=1,74=-55/1,2,3;
 4/5=5,16=3,69=1/1;
 5/5=2,8=3,13=1,38=5/2,8;
 7/30=1/1,2,3,16;
 1/18=20,19=15,26=3/3(-5);
 2/9=110,15=3/2;
 99/9=1/99;
 Leave Link    1 at Fri May 23 23:22:25 2025, MaxMem=  3758096384 cpu:               0.0 elap:               0.0
 (Enter /apps/easybuild-2022/easybuild/software/Compiler/NVHPC/22.11-CUDA-11.7.0/Gaussian/g16c01-CUDA-11.7.0/g16/l101.exe)
 ------------------------------
 Gaussian input prepared by ASE
 ------------------------------
 Symbolic Z-matrix:
 Charge =  0 Multiplicity = 1
 C                     1.54415   0.        0. 
 O                     2.18807  -0.99802   0.00851 
 C                     0.        0.        0. 
 C                    -0.5941    0.38837   1.37173 
 F                    -1.90832   0.2352    1.35299 
 F                    -0.08015  -0.39355   2.31472 
 F                    -0.31361   1.65016   1.66301 
 F                    -0.46548   0.8639   -0.9148 
 F                    -0.43019  -1.22581  -0.29814 
 O                     2.01126   1.24421   0. 
 H                     2.97787   1.20695   0.01409 
 
 ITRead=  0  0  0  0  0  0  0  0  0  0  0
 MicOpt= -1 -1 -1 -1 -1 -1 -1 -1 -1 -1 -1
 NAtoms=     11 NQM=       11 NQMF=       0 NMMI=      0 NMMIF=      0
                NMic=       0 NMicF=      0.
                    Isotopes and Nuclear Properties:
 (Nuclear quadrupole moments (NQMom) in fm**2, nuclear magnetic moments (NMagM)
  in nuclear magnetons)

  Atom         1           2           3           4           5           6           7           8           9          10
 IAtWgt=          12          16          12          12          19          19          19          19          19          16
 AtmWgt=  12.0000000  15.9949146  12.0000000  12.0000000  18.9984032  18.9984032  18.9984032  18.9984032  18.9984032  15.9949146
 NucSpn=           0           0           0           0           1           1           1           1           1           0
 AtZEff=  -0.0000000  -0.0000000  -0.0000000  -0.0000000  -0.0000000  -0.0000000  -0.0000000  -0.0000000  -0.0000000  -0.0000000
 NQMom=    0.0000000   0.0000000   0.0000000   0.0000000   0.0000000   0.0000000   0.0000000   0.0000000   0.0000000   0.0000000
 NMagM=    0.0000000   0.0000000   0.0000000   0.0000000   2.6288670   2.6288670   2.6288670   2.6288670   2.6288670   0.0000000
 AtZNuc=   6.0000000   8.0000000   6.0000000   6.0000000   9.0000000   9.0000000   9.0000000   9.0000000   9.0000000   8.0000000

  Atom        11
 IAtWgt=           1
 AtmWgt=   1.0078250
 NucSpn=           1
 AtZEff=  -0.0000000
 NQMom=    0.0000000
 NMagM=    2.7928460
 AtZNuc=   1.0000000
 Leave Link  101 at Fri May 23 23:22:25 2025, MaxMem=  3758096384 cpu:               0.2 elap:               0.2
 (Enter /apps/easybuild-2022/easybuild/software/Compiler/NVHPC/22.11-CUDA-11.7.0/Gaussian/g16c01-CUDA-11.7.0/g16/l103.exe)

 GradGradGradGradGradGradGradGradGradGradGradGradGradGradGradGradGradGrad
 Berny optimization.
 Initialization pass.
                           ----------------------------
                           !    Initial Parameters    !
                           ! (Angstroms and Degrees)  !
 --------------------------                            --------------------------
 ! Name  Definition              Value          Derivative Info.                !
 --------------------------------------------------------------------------------
 ! R1    R(1,2)                  1.1878         calculate D2E/DX2 analytically  !
 ! R2    R(1,3)                  1.5442         calculate D2E/DX2 analytically  !
 ! R3    R(1,10)                 1.329          calculate D2E/DX2 analytically  !
 ! R4    R(3,4)                  1.5445         calculate D2E/DX2 analytically  !
 ! R5    R(3,8)                  1.3416         calculate D2E/DX2 analytically  !
 ! R6    R(3,9)                  1.3329         calculate D2E/DX2 analytically  !
 ! R7    R(4,5)                  1.3233         calculate D2E/DX2 analytically  !
 ! R8    R(4,6)                  1.3285         calculate D2E/DX2 analytically  !
 ! R9    R(4,7)                  1.325          calculate D2E/DX2 analytically  !
 ! R10   R(10,11)                0.9674         calculate D2E/DX2 analytically  !
 ! A1    A(2,1,3)              122.8289         calculate D2E/DX2 analytically  !
 ! A2    A(2,1,10)             126.5914         calculate D2E/DX2 analytically  !
 ! A3    A(3,1,10)             110.5776         calculate D2E/DX2 analytically  !
 ! A4    A(1,3,4)              112.6226         calculate D2E/DX2 analytically  !
 ! A5    A(1,3,8)              110.3016         calculate D2E/DX2 analytically  !
 ! A6    A(1,3,9)              108.8296         calculate D2E/DX2 analytically  !
 ! A7    A(4,3,8)              108.0725         calculate D2E/DX2 analytically  !
 ! A8    A(4,3,9)              107.8046         calculate D2E/DX2 analytically  !
 ! A9    A(8,3,9)              109.1297         calculate D2E/DX2 analytically  !
 ! A10   A(3,4,5)              109.8983         calculate D2E/DX2 analytically  !
 ! A11   A(3,4,6)              109.4886         calculate D2E/DX2 analytically  !
 ! A12   A(3,4,7)              110.6881         calculate D2E/DX2 analytically  !
 ! A13   A(5,4,6)              109.0355         calculate D2E/DX2 analytically  !
 ! A14   A(5,4,7)              108.8803         calculate D2E/DX2 analytically  !
 ! A15   A(6,4,7)              108.8187         calculate D2E/DX2 analytically  !
 ! A16   A(1,10,11)            108.3685         calculate D2E/DX2 analytically  !
 ! D1    D(2,1,3,4)            105.32           calculate D2E/DX2 analytically  !
 ! D2    D(2,1,3,8)           -133.8493         calculate D2E/DX2 analytically  !
 ! D3    D(2,1,3,9)            -14.1583         calculate D2E/DX2 analytically  !
 ! D4    D(10,1,3,4)           -74.1917         calculate D2E/DX2 analytically  !
 ! D5    D(10,1,3,8)            46.6391         calculate D2E/DX2 analytically  !
 ! D6    D(10,1,3,9)           166.3301         calculate D2E/DX2 analytically  !
 ! D7    D(2,1,10,11)           -0.3683         calculate D2E/DX2 analytically  !
 ! D8    D(3,1,10,11)          179.1206         calculate D2E/DX2 analytically  !
 ! D9    D(1,3,4,5)           -173.434          calculate D2E/DX2 analytically  !
 ! D10   D(1,3,4,6)            -53.6958         calculate D2E/DX2 analytically  !
 ! D11   D(1,3,4,7)             66.2648         calculate D2E/DX2 analytically  !
 ! D12   D(8,3,4,5)             64.4676         calculate D2E/DX2 analytically  !
 ! D13   D(8,3,4,6)           -175.7943         calculate D2E/DX2 analytically  !
 ! D14   D(8,3,4,7)            -55.8336         calculate D2E/DX2 analytically  !
 ! D15   D(9,3,4,5)            -53.3627         calculate D2E/DX2 analytically  !
 ! D16   D(9,3,4,6)             66.3755         calculate D2E/DX2 analytically  !
 ! D17   D(9,3,4,7)           -173.6638         calculate D2E/DX2 analytically  !
 --------------------------------------------------------------------------------
 Trust Radius=3.00D-01 FncErr=1.00D-07 GrdErr=1.00D-06 EigMax=2.50D+02 EigMin=1.00D-04
 Number of steps in this run=     53 maximum allowed number of steps=    100.
 GradGradGradGradGradGradGradGradGradGradGradGradGradGradGradGradGradGrad

 Leave Link  103 at Fri May 23 23:22:25 2025, MaxMem=  3758096384 cpu:               0.0 elap:               0.0
 (Enter /apps/easybuild-2022/easybuild/software/Compiler/NVHPC/22.11-CUDA-11.7.0/Gaussian/g16c01-CUDA-11.7.0/g16/l202.exe)
                          Input orientation:                          
 ---------------------------------------------------------------------
 Center     Atomic      Atomic             Coordinates (Angstroms)
 Number     Number       Type             X           Y           Z
 ---------------------------------------------------------------------
      1          6           0        1.544151    0.000000    0.000000
      2          8           0        2.188070   -0.998024    0.008507
      3          6           0        0.000000    0.000000    0.000000
      4          6           0       -0.594099    0.388375    1.371726
      5          9           0       -1.908320    0.235201    1.352989
      6          9           0       -0.080153   -0.393554    2.314717
      7          9           0       -0.313611    1.650157    1.663006
      8          9           0       -0.465479    0.863899   -0.914795
      9          9           0       -0.430192   -1.225811   -0.298138
     10          8           0        2.011264    1.244207    0.000000
     11          1           0        2.977868    1.206953    0.014091
 ---------------------------------------------------------------------
                    Distance matrix (angstroms):
                    1          2          3          4          5
     1  C    0.000000
     2  O    1.187752   0.000000
     3  C    1.544151   2.404948   0.000000
     4  C    2.569937   3.394250   1.544480   0.000000
     5  F    3.715569   4.484294   2.351082   1.323250   0.000000
     6  F    2.855023   3.290718   2.349302   1.328452   2.159271
     7  F    2.989965   4.001080   2.363675   1.324995   2.154370
     8  F    2.371030   3.370543   1.341582   2.338984   2.760417
     9  F    2.342974   2.645980   1.332878   2.328284   2.654362
    10  O    1.329001   2.249206   2.365001   3.066267   4.267530
    11  H    1.874161   2.342165   3.213197   3.907965   5.158661
                    6          7          8          9         10
     6  F    0.000000
     7  F    2.157773   0.000000
     8  F    3.487035   2.699320   0.000000
     9  F    2.764451   3.482940   2.179082   0.000000
    10  O    3.523378   2.887114   2.667534   3.485767   0.000000
    11  H    4.148011   3.707990   3.582897   4.198892   0.967425
                   11
    11  H    0.000000
 Symmetry turned off by external request.
 Stoichiometry    C3HF5O2
 Rotational constants (GHZ):           1.9030084           1.1865271           1.1262281
 Leave Link  202 at Fri May 23 23:22:25 2025, MaxMem=  3758096384 cpu:               0.0 elap:               0.0
 (Enter /apps/easybuild-2022/easybuild/software/Compiler/NVHPC/22.11-CUDA-11.7.0/Gaussian/g16c01-CUDA-11.7.0/g16/l301.exe)
 Standard basis: def2TZVPP (5D, 7F)
 Ernie: Thresh=  0.10000D-02 Tol=  0.10000D-05 Strict=F.
   324 basis functions,   527 primitive gaussians,   375 cartesian basis functions
    40 alpha electrons       40 beta electrons
       nuclear repulsion energy       640.4140672178 Hartrees.
 IExCor= 4336 DFT=T Ex+Corr=M062X ExCW=0 ScaHFX=  0.540000
 ScaDFX=  1.000000  1.000000  1.000000  1.000000 ScalE2=  1.000000  1.000000
 IRadAn=      5 IRanWt=     -1 IRanGd=            0 ICorTp=0 IEmpDi=  4
 NAtoms=   11 NActive=   11 NUniq=   11 SFac= 1.00D+00 NAtFMM=   60 NAOKFM=F Big=F
 Integral buffers will be    131072 words long.
 Raffenetti 2 integral format.
 Two-electron integral symmetry is turned off.
 Leave Link  301 at Fri May 23 23:22:25 2025, MaxMem=  3758096384 cpu:               0.0 elap:               0.0
 (Enter /apps/easybuild-2022/easybuild/software/Compiler/NVHPC/22.11-CUDA-11.7.0/Gaussian/g16c01-CUDA-11.7.0/g16/l302.exe)
 NPDir=0 NMtPBC=     1 NCelOv=     1 NCel=       1 NClECP=     1 NCelD=      1
         NCelK=      1 NCelE2=     1 NClLst=     1 CellRange=     0.0.
 One-electron integrals computed using PRISM.
   1 Symmetry operations used in ECPInt.
 ECPInt:  NShTT=    6786 NPrTT=   21959 LenC2=    6486 LenP2D=   15992.
 LDataN:  DoStor=T MaxTD1= 6 Len=  172
 NBasis=   324 RedAO= T EigKep=  3.26D-04  NBF=   324
 NBsUse=   324 1.00D-06 EigRej= -1.00D+00 NBFU=   324
 Precomputing XC quadrature grid using
 IXCGrd= 4 IRadAn=           5 IRanWt=          -1 IRanGd=           0 AccXCQ= 0.00D+00.
 Generated NRdTot=       0 NPtTot=           0 NUsed=           0 NTot=          32
 NSgBfM=   374   374   374   374   374 MxSgAt=    11 MxSgA2=    11.
 Leave Link  302 at Fri May 23 23:22:25 2025, MaxMem=  3758096384 cpu:               0.5 elap:               0.1
 (Enter /apps/easybuild-2022/easybuild/software/Compiler/NVHPC/22.11-CUDA-11.7.0/Gaussian/g16c01-CUDA-11.7.0/g16/l303.exe)
 DipDrv:  MaxL=1.
 Leave Link  303 at Fri May 23 23:22:26 2025, MaxMem=  3758096384 cpu:               0.1 elap:               0.0
 (Enter /apps/easybuild-2022/easybuild/software/Compiler/NVHPC/22.11-CUDA-11.7.0/Gaussian/g16c01-CUDA-11.7.0/g16/l401.exe)
 ExpMin= 9.52D-02 ExpMax= 3.55D+04 ExpMxC= 1.21D+03 IAcc=3 IRadAn=         5 AccDes= 0.00D+00
 Harris functional with IExCor= 1009 and IRadAn=       5 diagonalized for initial guess.
 HarFok:  IExCor= 1009 AccDes= 0.00D+00 IRadAn=         5 IDoV= 1 UseB2=F ITyADJ=14
 ICtDFT=  3500011 ScaDFX=  1.000000  1.000000  1.000000  1.000000
 FoFCou: FMM=F IPFlag=           0 FMFlag=      100000 FMFlg1=           0
         NFxFlg=           0 DoJE=T BraDBF=F KetDBF=T FulRan=T
         wScrn=  0.000000 ICntrl=       500 IOpCl=  0 I1Cent=   200000004 NGrid=           0
         NMat0=    1 NMatS0=      1 NMatT0=    0 NMatD0=    1 NMtDS0=    0 NMtDT0=    0
 Symmetry not used in FoFCou.
 Harris En= -764.199506844278    
 JPrj=0 DoOrth=F DoCkMO=F.
 Leave Link  401 at Fri May 23 23:22:26 2025, MaxMem=  3758096384 cpu:               2.8 elap:               0.4
 (Enter /apps/easybuild-2022/easybuild/software/Compiler/NVHPC/22.11-CUDA-11.7.0/Gaussian/g16c01-CUDA-11.7.0/g16/l502.exe)
 Keep R1 ints in memory in canonical form, NReq=1412617130.
 FoFCou: FMM=F IPFlag=           0 FMFlag=           0 FMFlg1=           0
         NFxFlg=           0 DoJE=F BraDBF=F KetDBF=F FulRan=T
         wScrn=  0.000000 ICntrl=       600 IOpCl=  0 I1Cent=           0 NGrid=           0
         NMat0=    1 NMatS0=  52650 NMatT0=    0 NMatD0=    1 NMtDS0=    0 NMtDT0=    0
 Symmetry not used in FoFCou.
 Two-electron integral symmetry not used.
 Closed shell SCF:
 Using DIIS extrapolation, IDIIS=  1040.
 NGot=  3758096384 LenX=  2371771924 LenY=  2371630858
 Requested convergence on RMS density matrix=1.00D-08 within  32 cycles.
 Requested convergence on MAX density matrix=1.00D-06.
 Requested convergence on             energy=1.00D-06.
 No special actions if energy rises.
 Integral accuracy reduced to 1.0D-05 until final iterations.

 Cycle   1  Pass 0  IDiag  1:
 E= -764.497256119364    
 DIIS: error= 2.14D-02 at cycle   1 NSaved=   1.
 NSaved= 1 IEnMin= 1 EnMin= -764.497256119364     IErMin= 1 ErrMin= 2.14D-02
 ErrMax= 2.14D-02  0.00D+00 EMaxC= 1.00D-01 BMatC= 3.48D-01 BMatP= 3.48D-01
 IDIUse=3 WtCom= 7.86D-01 WtEn= 2.14D-01
 Coeff-Com:  0.100D+01
 Coeff-En:   0.100D+01
 Coeff:      0.100D+01
 Gap=     0.430 Goal=   None    Shift=    0.000
 GapD=    0.430 DampG=2.000 DampE=0.500 DampFc=1.0000 IDamp=-1.
 RMSDP=2.01D-03 MaxDP=9.64D-02              OVMax= 2.04D-01

 Cycle   2  Pass 0  IDiag  1:
 E= -764.405964007741     Delta-E=        0.091292111624 Rises=F Damp=F
 DIIS: error= 2.04D-02 at cycle   2 NSaved=   2.
 NSaved= 2 IEnMin= 1 EnMin= -764.497256119364     IErMin= 2 ErrMin= 2.04D-02
 ErrMax= 2.04D-02  0.00D+00 EMaxC= 1.00D-01 BMatC= 4.19D-01 BMatP= 3.48D-01
 IDIUse=2 WtCom= 0.00D+00 WtEn= 1.00D+00
 Coeff-En:   0.602D+00 0.398D+00
 Coeff:      0.602D+00 0.398D+00
 Gap=     0.402 Goal=   None    Shift=    0.000
 RMSDP=9.82D-04 MaxDP=5.08D-02 DE= 9.13D-02 OVMax= 1.09D-01

 Cycle   3  Pass 0  IDiag  1:
 E= -764.664604288469     Delta-E=       -0.258640280728 Rises=F Damp=F
 DIIS: error= 2.68D-03 at cycle   3 NSaved=   3.
 NSaved= 3 IEnMin= 3 EnMin= -764.664604288469     IErMin= 3 ErrMin= 2.68D-03
 ErrMax= 2.68D-03  0.00D+00 EMaxC= 1.00D-01 BMatC= 5.38D-03 BMatP= 3.48D-01
 IDIUse=3 WtCom= 9.73D-01 WtEn= 2.68D-02
 Coeff-Com:  0.889D-01 0.455D-01 0.866D+00
 Coeff-En:   0.000D+00 0.000D+00 0.100D+01
 Coeff:      0.865D-01 0.443D-01 0.869D+00
 Gap=     0.389 Goal=   None    Shift=    0.000
 RMSDP=2.33D-04 MaxDP=1.36D-02 DE=-2.59D-01 OVMax= 3.76D-02

 Cycle   4  Pass 0  IDiag  1:
 E= -764.664732877018     Delta-E=       -0.000128588549 Rises=F Damp=F
 DIIS: error= 2.98D-03 at cycle   4 NSaved=   4.
 NSaved= 4 IEnMin= 4 EnMin= -764.664732877018     IErMin= 3 ErrMin= 2.68D-03
 ErrMax= 2.98D-03  0.00D+00 EMaxC= 1.00D-01 BMatC= 5.32D-03 BMatP= 5.38D-03
 IDIUse=3 WtCom= 9.70D-01 WtEn= 2.98D-02
 Coeff-Com: -0.791D-03-0.229D-01 0.519D+00 0.505D+00
 Coeff-En:   0.000D+00 0.000D+00 0.491D+00 0.509D+00
 Coeff:     -0.768D-03-0.223D-01 0.518D+00 0.505D+00
 Gap=     0.397 Goal=   None    Shift=    0.000
 RMSDP=1.14D-04 MaxDP=6.68D-03 DE=-1.29D-04 OVMax= 1.88D-02

 Cycle   5  Pass 0  IDiag  1:
 E= -764.668184756109     Delta-E=       -0.003451879091 Rises=F Damp=F
 DIIS: error= 2.54D-04 at cycle   5 NSaved=   5.
 NSaved= 5 IEnMin= 5 EnMin= -764.668184756109     IErMin= 5 ErrMin= 2.54D-04
 ErrMax= 2.54D-04  0.00D+00 EMaxC= 1.00D-01 BMatC= 6.19D-05 BMatP= 5.32D-03
 IDIUse=3 WtCom= 9.97D-01 WtEn= 2.54D-03
 Coeff-Com: -0.339D-02-0.117D-01 0.169D+00 0.185D+00 0.662D+00
 Coeff-En:   0.000D+00 0.000D+00 0.000D+00 0.000D+00 0.100D+01
 Coeff:     -0.338D-02-0.117D-01 0.168D+00 0.184D+00 0.662D+00
 Gap=     0.397 Goal=   None    Shift=    0.000
 RMSDP=2.04D-05 MaxDP=8.28D-04 DE=-3.45D-03 OVMax= 2.46D-03

 Cycle   6  Pass 0  IDiag  1:
 E= -764.668233716618     Delta-E=       -0.000048960510 Rises=F Damp=F
 DIIS: error= 6.58D-05 at cycle   6 NSaved=   6.
 NSaved= 6 IEnMin= 6 EnMin= -764.668233716618     IErMin= 6 ErrMin= 6.58D-05
 ErrMax= 6.58D-05  0.00D+00 EMaxC= 1.00D-01 BMatC= 4.59D-06 BMatP= 6.19D-05
 IDIUse=1 WtCom= 1.00D+00 WtEn= 0.00D+00
 Coeff-Com: -0.853D-03-0.191D-02 0.861D-02 0.423D-02 0.178D+00 0.812D+00
 Coeff:     -0.853D-03-0.191D-02 0.861D-02 0.423D-02 0.178D+00 0.812D+00
 Gap=     0.397 Goal=   None    Shift=    0.000
 RMSDP=6.81D-06 MaxDP=2.52D-04 DE=-4.90D-05 OVMax= 7.08D-04

 Initial convergence to 1.0D-05 achieved.  Increase integral accuracy.
 Cycle   7  Pass 1  IDiag  1:
 E= -764.668261410650     Delta-E=       -0.000027694032 Rises=F Damp=F
 DIIS: error= 3.21D-05 at cycle   1 NSaved=   1.
 NSaved= 1 IEnMin= 1 EnMin= -764.668261410650     IErMin= 1 ErrMin= 3.21D-05
 ErrMax= 3.21D-05  0.00D+00 EMaxC= 1.00D-01 BMatC= 9.80D-07 BMatP= 9.80D-07
 IDIUse=1 WtCom= 1.00D+00 WtEn= 0.00D+00
 Coeff-Com:  0.100D+01
 Coeff:      0.100D+01
 Gap=     0.397 Goal=   None    Shift=    0.000
 RMSDP=6.81D-06 MaxDP=2.52D-04 DE=-2.77D-05 OVMax= 2.81D-04

 Cycle   8  Pass 1  IDiag  1:
 E= -764.668261998626     Delta-E=       -0.000000587976 Rises=F Damp=F
 DIIS: error= 2.63D-05 at cycle   2 NSaved=   2.
 NSaved= 2 IEnMin= 2 EnMin= -764.668261998626     IErMin= 2 ErrMin= 2.63D-05
 ErrMax= 2.63D-05  0.00D+00 EMaxC= 1.00D-01 BMatC= 5.30D-07 BMatP= 9.80D-07
 IDIUse=1 WtCom= 1.00D+00 WtEn= 0.00D+00
 Coeff-Com:  0.401D+00 0.599D+00
 Coeff:      0.401D+00 0.599D+00
 Gap=     0.397 Goal=   None    Shift=    0.000
 RMSDP=1.41D-06 MaxDP=6.50D-05 DE=-5.88D-07 OVMax= 2.03D-04

 Cycle   9  Pass 1  IDiag  1:
 E= -764.668262284112     Delta-E=       -0.000000285486 Rises=F Damp=F
 DIIS: error= 8.12D-06 at cycle   3 NSaved=   3.
 NSaved= 3 IEnMin= 3 EnMin= -764.668262284112     IErMin= 3 ErrMin= 8.12D-06
 ErrMax= 8.12D-06  0.00D+00 EMaxC= 1.00D-01 BMatC= 7.59D-08 BMatP= 5.30D-07
 IDIUse=1 WtCom= 1.00D+00 WtEn= 0.00D+00
 Coeff-Com: -0.338D-01 0.246D+00 0.788D+00
 Coeff:     -0.338D-01 0.246D+00 0.788D+00
 Gap=     0.397 Goal=   None    Shift=    0.000
 RMSDP=1.00D-06 MaxDP=4.08D-05 DE=-2.85D-07 OVMax= 8.74D-05

 Cycle  10  Pass 1  IDiag  1:
 E= -764.668262333475     Delta-E=       -0.000000049363 Rises=F Damp=F
 DIIS: error= 6.86D-06 at cycle   4 NSaved=   4.
 NSaved= 4 IEnMin= 4 EnMin= -764.668262333475     IErMin= 4 ErrMin= 6.86D-06
 ErrMax= 6.86D-06  0.00D+00 EMaxC= 1.00D-01 BMatC= 1.09D-08 BMatP= 7.59D-08
 IDIUse=1 WtCom= 1.00D+00 WtEn= 0.00D+00
 Coeff-Com: -0.373D-01 0.958D-01 0.392D+00 0.550D+00
 Coeff:     -0.373D-01 0.958D-01 0.392D+00 0.550D+00
 Gap=     0.397 Goal=   None    Shift=    0.000
 RMSDP=2.23D-07 MaxDP=1.97D-05 DE=-4.94D-08 OVMax= 5.71D-05

 Cycle  11  Pass 1  IDiag  1:
 E= -764.668262341992     Delta-E=       -0.000000008517 Rises=F Damp=F
 DIIS: error= 1.49D-06 at cycle   5 NSaved=   5.
 NSaved= 5 IEnMin= 5 EnMin= -764.668262341992     IErMin= 5 ErrMin= 1.49D-06
 ErrMax= 1.49D-06  0.00D+00 EMaxC= 1.00D-01 BMatC= 1.58D-09 BMatP= 1.09D-08
 IDIUse=1 WtCom= 1.00D+00 WtEn= 0.00D+00
 Coeff-Com: -0.167D-02-0.347D-01-0.116D+00 0.209D+00 0.943D+00
 Coeff:     -0.167D-02-0.347D-01-0.116D+00 0.209D+00 0.943D+00
 Gap=     0.397 Goal=   None    Shift=    0.000
 RMSDP=1.60D-07 MaxDP=7.80D-06 DE=-8.52D-09 OVMax= 2.01D-05

 Cycle  12  Pass 1  IDiag  1:
 E= -764.668262343650     Delta-E=       -0.000000001658 Rises=F Damp=F
 DIIS: error= 3.38D-07 at cycle   6 NSaved=   6.
 NSaved= 6 IEnMin= 6 EnMin= -764.668262343650     IErMin= 6 ErrMin= 3.38D-07
 ErrMax= 3.38D-07  0.00D+00 EMaxC= 1.00D-01 BMatC= 9.60D-11 BMatP= 1.58D-09
 IDIUse=1 WtCom= 1.00D+00 WtEn= 0.00D+00
 Coeff-Com:  0.297D-02-0.215D-01-0.832D-01 0.470D-01 0.350D+00 0.705D+00
 Coeff:      0.297D-02-0.215D-01-0.832D-01 0.470D-01 0.350D+00 0.705D+00
 Gap=     0.397 Goal=   None    Shift=    0.000
 RMSDP=3.22D-08 MaxDP=1.23D-06 DE=-1.66D-09 OVMax= 4.93D-06

 Cycle  13  Pass 1  IDiag  1:
 E= -764.668262343798     Delta-E=       -0.000000000148 Rises=F Damp=F
 DIIS: error= 9.64D-08 at cycle   7 NSaved=   7.
 NSaved= 7 IEnMin= 7 EnMin= -764.668262343798     IErMin= 7 ErrMin= 9.64D-08
 ErrMax= 9.64D-08  0.00D+00 EMaxC= 1.00D-01 BMatC= 1.05D-11 BMatP= 9.60D-11
 IDIUse=1 WtCom= 1.00D+00 WtEn= 0.00D+00
 Coeff-Com:  0.133D-02-0.635D-02-0.264D-01 0.594D-02 0.660D-01 0.284D+00
 Coeff-Com:  0.676D+00
 Coeff:      0.133D-02-0.635D-02-0.264D-01 0.594D-02 0.660D-01 0.284D+00
 Coeff:      0.676D+00
 Gap=     0.397 Goal=   None    Shift=    0.000
 RMSDP=9.03D-09 MaxDP=3.23D-07 DE=-1.48D-10 OVMax= 9.72D-07

 SCF Done:  E(RM062X) =  -764.668262344     A.U. after   13 cycles
            NFock= 13  Conv=0.90D-08     -V/T= 2.0036
 KE= 7.618945650917D+02 PE=-3.093315623486D+03 EE= 9.263387288329D+02
 Leave Link  502 at Fri May 23 23:22:51 2025, MaxMem=  3758096384 cpu:             107.6 elap:              24.7
 (Enter /apps/easybuild-2022/easybuild/software/Compiler/NVHPC/22.11-CUDA-11.7.0/Gaussian/g16c01-CUDA-11.7.0/g16/l508.exe)
 QCSCF skips out because SCF is already converged.
 Leave Link  508 at Fri May 23 23:22:51 2025, MaxMem=  3758096384 cpu:               0.0 elap:               0.0
 (Enter /apps/easybuild-2022/easybuild/software/Compiler/NVHPC/22.11-CUDA-11.7.0/Gaussian/g16c01-CUDA-11.7.0/g16/l801.exe)
 DoSCS=F DFT=T ScalE2(SS,OS)=  1.000000  1.000000
 Range of M.O.s used for correlation:     1   324
 NBasis=   324 NAE=    40 NBE=    40 NFC=     0 NFV=     0
 NROrb=    324 NOA=    40 NOB=    40 NVA=   284 NVB=   284

 **** Warning!!: The largest alpha MO coefficient is  0.15353671D+02

 Leave Link  801 at Fri May 23 23:22:51 2025, MaxMem=  3758096384 cpu:               0.0 elap:               0.0
 (Enter /apps/easybuild-2022/easybuild/software/Compiler/NVHPC/22.11-CUDA-11.7.0/Gaussian/g16c01-CUDA-11.7.0/g16/l1101.exe)
 Using compressed storage, NAtomX=    11.
 Will process     12 centers per pass.
   1 Symmetry operations used in ECPInt.
 ECPInt:  NShTT=    6786 NPrTT=   21959 LenC2=    6486 LenP2D=   15992.
 LDataN:  DoStor=T MaxTD1= 7 Len=  274
 Leave Link 1101 at Fri May 23 23:22:51 2025, MaxMem=  3758096384 cpu:               0.9 elap:               0.2
 (Enter /apps/easybuild-2022/easybuild/software/Compiler/NVHPC/22.11-CUDA-11.7.0/Gaussian/g16c01-CUDA-11.7.0/g16/l1102.exe)
 Symmetrizing basis deriv contribution to polar:
 IMax=3 JMax=2 DiffMx= 0.00D+00
 Leave Link 1102 at Fri May 23 23:22:51 2025, MaxMem=  3758096384 cpu:               0.1 elap:               0.0
 (Enter /apps/easybuild-2022/easybuild/software/Compiler/NVHPC/22.11-CUDA-11.7.0/Gaussian/g16c01-CUDA-11.7.0/g16/l1110.exe)
 Forming Gx(P) for the SCF density, NAtomX=    11.
 Integral derivatives from FoFJK, PRISM(SPDF).
 Do as many integral derivatives as possible in FoFJK.
 G2DrvN: MDV=    3758095115.
 G2DrvN: will do    12 centers at a time, making    1 passes.
 Calling FoFCou, ICntrl=  3107 FMM=F I1Cent=   0 AccDes= 0.00D+00.
 FoFJK:  IHMeth= 1 ICntrl=    3107 DoSepK=F KAlg= 0 I1Cent=           0 FoldK=F
 IRaf=         0 NMat=       1 IRICut=       1 DoRegI=T DoRafI=F ISym2E= 0 IDoP0=0 IntGTp=1.
 FoFCou: FMM=F IPFlag=           0 FMFlag=      100000 FMFlg1=           0
         NFxFlg=           0 DoJE=F BraDBF=F KetDBF=F FulRan=T
         wScrn=  0.000000 ICntrl=      3107 IOpCl=  0 I1Cent=           0 NGrid=           0
         NMat0=    1 NMatS0=      1 NMatT0=    0 NMatD0=    1 NMtDS0=    0 NMtDT0=    0
 Symmetry not used in FoFCou.
 End of G2Drv F.D. properties file   721 does not exist.
 End of G2Drv F.D. properties file   722 does not exist.
 End of G2Drv F.D. properties file   788 does not exist.
 Leave Link 1110 at Fri May 23 23:23:36 2025, MaxMem=  3758096384 cpu:             361.2 elap:              45.5
 (Enter /apps/easybuild-2022/easybuild/software/Compiler/NVHPC/22.11-CUDA-11.7.0/Gaussian/g16c01-CUDA-11.7.0/g16/l1002.exe)
 Minotr:  Closed shell wavefunction.
          IDoAtm=11111111111
          Direct CPHF calculation.
          Differentiating once with respect to nuclear coordinates.
          Requested convergence is 1.0D-08 RMS, and 1.0D-07 maximum.
          Secondary convergence is 1.0D-12 RMS, and 1.0D-12 maximum.
          NewPWx=T KeepS1=F KeepF1=F KeepIn=T MapXYZ=F SortEE=F KeepMc=T.
         3300 words used for storage of precomputed grid.
 Keep R1 ints in memory in canonical form, NReq=1412622530.
 FoFCou: FMM=F IPFlag=           0 FMFlag=           0 FMFlg1=           0
         NFxFlg=           0 DoJE=F BraDBF=F KetDBF=F FulRan=T
         wScrn=  0.000000 ICntrl=       600 IOpCl=  0 I1Cent=           0 NGrid=           0
         NMat0=    1 NMatS0=  52650 NMatT0=    0 NMatD0=    1 NMtDS0=    0 NMtDT0=    0
 Symmetry not used in FoFCou.
 Two-electron integral symmetry not used.
          MDV=    3758096384 using IRadAn=       1.
          Solving linear equations simultaneously, MaxMat=       0.
          There are    36 degrees of freedom in the 1st order CPHF.  IDoFFX=6 NUNeed=     0.
     30 vectors produced by pass  0 Test12= 3.16D-14 2.78D-09 XBig12= 1.53D-01 8.81D-02.
 AX will form    30 AO Fock derivatives at one time.
     30 vectors produced by pass  1 Test12= 3.16D-14 2.78D-09 XBig12= 3.60D-02 8.27D-02.
     30 vectors produced by pass  2 Test12= 3.16D-14 2.78D-09 XBig12= 1.49D-03 7.99D-03.
     30 vectors produced by pass  3 Test12= 3.16D-14 2.78D-09 XBig12= 2.72D-05 1.01D-03.
     30 vectors produced by pass  4 Test12= 3.16D-14 2.78D-09 XBig12= 3.49D-07 1.25D-04.
     30 vectors produced by pass  5 Test12= 3.16D-14 2.78D-09 XBig12= 2.85D-09 1.05D-05.
     30 vectors produced by pass  6 Test12= 3.16D-14 2.78D-09 XBig12= 2.03D-11 5.01D-07.
     15 vectors produced by pass  7 Test12= 3.16D-14 2.78D-09 XBig12= 1.10D-13 4.99D-08.
      1 vectors produced by pass  8 Test12= 3.16D-14 2.78D-09 XBig12= 4.56D-16 2.78D-09.
 InvSVY:  IOpt=1 It=  1 EMax= 1.22D-15
 Solved reduced A of dimension   226 with    30 vectors.
 End of Minotr F.D. properties file   721 does not exist.
 End of Minotr F.D. properties file   722 does not exist.
 End of Minotr F.D. properties file   788 does not exist.
 Leave Link 1002 at Fri May 23 23:24:31 2025, MaxMem=  3758096384 cpu:             422.5 elap:              54.5
 (Enter /apps/easybuild-2022/easybuild/software/Compiler/NVHPC/22.11-CUDA-11.7.0/Gaussian/g16c01-CUDA-11.7.0/g16/l701.exe)
 ... and contract with generalized density number  0.
 Compute integral second derivatives.
   1 Symmetry operations used in ECPInt.
 ECPInt:  NShTT=    6786 NPrTT=   21959 LenC2=    6486 LenP2D=   15992.
 LDataN:  DoStor=T MaxTD1= 8 Len=  415
 Leave Link  701 at Fri May 23 23:24:31 2025, MaxMem=  3758096384 cpu:               0.7 elap:               0.1
 (Enter /apps/easybuild-2022/easybuild/software/Compiler/NVHPC/22.11-CUDA-11.7.0/Gaussian/g16c01-CUDA-11.7.0/g16/l702.exe)
 L702 exits ... SP integral derivatives will be done elsewhere.
 Leave Link  702 at Fri May 23 23:24:31 2025, MaxMem=  3758096384 cpu:               0.0 elap:               0.0
 (Enter /apps/easybuild-2022/easybuild/software/Compiler/NVHPC/22.11-CUDA-11.7.0/Gaussian/g16c01-CUDA-11.7.0/g16/l703.exe)
 Integral derivatives from FoFJK, PRISM(SPDF).
 Compute integral second derivatives, UseDBF=F ICtDFT=           0.
 Calling FoFJK, ICntrl=    100127 FMM=F ISym2X=0 I1Cent= 0 IOpClX= 0 NMat=1 NMatS=1 NMatT=0.
 FoFJK:  IHMeth= 1 ICntrl=  100127 DoSepK=F KAlg= 0 I1Cent=           0 FoldK=F
 IRaf=         0 NMat=       1 IRICut=       1 DoRegI=T DoRafI=F ISym2E= 0 IDoP0=0 IntGTp=1.
 FoFCou: FMM=F IPFlag=           0 FMFlag=      100000 FMFlg1=         800
         NFxFlg=           0 DoJE=F BraDBF=F KetDBF=F FulRan=T
         wScrn=  0.000000 ICntrl=    100127 IOpCl=  0 I1Cent=           0 NGrid=           0
         NMat0=    1 NMatS0=      1 NMatT0=    0 NMatD0=    1 NMtDS0=    0 NMtDT0=    0
 Symmetry not used in FoFCou.
 Leave Link  703 at Fri May 23 23:26:07 2025, MaxMem=  3758096384 cpu:             765.2 elap:              96.3
 (Enter /apps/easybuild-2022/easybuild/software/Compiler/NVHPC/22.11-CUDA-11.7.0/Gaussian/g16c01-CUDA-11.7.0/g16/l716.exe)
 Dipole        = 6.58509242D-01 6.24903033D-01-2.10222556D-02
 Polarizability= 0.00000000D+00 0.00000000D+00 0.00000000D+00
                 0.00000000D+00 0.00000000D+00 0.00000000D+00
 -------------------------------------------------------------------
 Center     Atomic                   Forces (Hartrees/Bohr)
 Number     Number              X              Y              Z
 -------------------------------------------------------------------
      1        6          -0.000076788    0.000085079   -0.000008558
      2        8           0.000121919   -0.000123307    0.000012389
      3        6          -0.000065326    0.000007433    0.000020920
      4        6          -0.000077779    0.000057954   -0.000090118
      5        9           0.000003005   -0.000003349   -0.000016415
      6        9           0.000061383   -0.000058021    0.000046456
      7        9           0.000055131   -0.000016421   -0.000026770
      8        9          -0.000018397   -0.000019088    0.000024648
      9        9          -0.000012022    0.000033293    0.000020215
     10        8           0.000015557    0.000035354    0.000024152
     11        1          -0.000006684    0.000001073   -0.000006919
 -------------------------------------------------------------------
 Cartesian Forces:  Max     0.000123307 RMS     0.000050593
 Force constants in Cartesian coordinates: 
                1             2             3             4             5 
      1  0.754949D+00
      2 -0.209265D+00  0.970467D+00
      3 -0.203167D-02 -0.549304D-02  0.229198D+00
      4 -0.351332D+00  0.327967D+00 -0.187531D-02  0.342372D+00
      5  0.343281D+00 -0.600556D+00  0.368098D-02 -0.384589D+00  0.714431D+00
      6 -0.954338D-03  0.363744D-02 -0.749405D-01  0.340047D-02 -0.411473D-02
      7 -0.181215D+00 -0.119247D-01  0.234826D-01 -0.176135D-01  0.152332D-01
      8 -0.110752D-01 -0.466539D-01 -0.754695D-02  0.390748D-01 -0.186980D-01
      9 -0.110397D-01 -0.798652D-02 -0.978507D-01  0.930748D-02 -0.480826D-02
     10 -0.129257D-01  0.105845D-01  0.317942D-01 -0.231454D-02 -0.151734D-04
     11  0.935671D-02  0.210553D-01  0.219097D-02 -0.312976D-02 -0.524133D-02
     12  0.300820D-01 -0.204142D-03  0.145657D-01 -0.132958D-01  0.638817D-02
     13  0.831613D-02  0.150129D-02  0.636361D-02 -0.429363D-02  0.197305D-02
     14 -0.109454D-02 -0.237325D-02 -0.101167D-02  0.542224D-03  0.672655D-03
     15 -0.650339D-02 -0.191416D-02 -0.673407D-02  0.385183D-02 -0.139486D-02
     16 -0.142529D-02  0.167171D-02 -0.274292D-02  0.113939D-02 -0.167854D-02
     17  0.162043D-02 -0.461089D-02  0.983198D-03 -0.126230D-02  0.251408D-02
     18 -0.632097D-02  0.108392D-02 -0.210202D-02  0.393885D-02 -0.209917D-02
     19 -0.466807D-03 -0.407762D-02 -0.273796D-02  0.216284D-03  0.117102D-02
     20 -0.549114D-02 -0.695467D-02 -0.177202D-02  0.164171D-02  0.228614D-02
     21 -0.447286D-02 -0.578959D-04 -0.161018D-02  0.188526D-02 -0.469416D-03
     22 -0.430199D-02  0.290008D-01 -0.369405D-01 -0.113968D-01  0.279322D-02
     23  0.260595D-02 -0.131999D-01  0.143790D-01  0.546815D-02  0.147095D-02
     24 -0.335987D-03  0.159369D-01 -0.659534D-02 -0.689527D-02  0.716027D-03
     25 -0.144114D-01 -0.424587D-01 -0.145382D-01  0.993560D-03 -0.232250D-02
     26 -0.396450D-02 -0.293519D-01 -0.596687D-02  0.481808D-03  0.885671D-02
     27  0.387576D-03 -0.659579D-02  0.581597D-02 -0.146731D-03  0.164004D-02
     28 -0.171892D+00 -0.908346D-01 -0.459321D-03  0.409294D-01  0.153436D-01
     29 -0.678052D-01 -0.288280D+00  0.106156D-02  0.622368D-02 -0.107776D+00
     30  0.522847D-03  0.950636D-03 -0.641429D-01 -0.209580D-03  0.529387D-03
     31 -0.252947D-01 -0.121649D-01 -0.314520D-03  0.130060D-02  0.881009D-02
     32 -0.581680D-01  0.457911D-03 -0.505114D-03  0.758100D-02  0.204013D-02
     33  0.666485D-03  0.642638D-03  0.439570D-02  0.387683D-04 -0.681661D-04
                6             7             8             9            10 
      6  0.299627D-01
      7 -0.579949D-02  0.558469D+00
      8 -0.424395D-03  0.181502D-01  0.587992D+00
      9  0.237154D-01  0.347412D-01  0.901088D-02  0.547631D+00
     10 -0.449082D-02 -0.907994D-01  0.189326D-01  0.720307D-01  0.607797D+00
     11  0.964287D-03  0.800234D-02 -0.472365D-01 -0.345562D-01 -0.330857D-02
     12 -0.556057D-02  0.335609D-01 -0.365693D-01 -0.162933D+00 -0.169783D-01
     13 -0.100962D-02 -0.536125D-01 -0.641598D-02 -0.277069D-02 -0.319466D+00
     14  0.126026D-03  0.530555D-02  0.221603D-02 -0.141926D-02 -0.212109D-01
     15  0.157332D-02  0.376202D-01  0.241410D-02  0.122002D-02  0.213620D-01
     16  0.179453D-02  0.659722D-02  0.240552D-03  0.298940D-03 -0.100839D+00
     17 -0.118693D-02  0.547027D-02 -0.574004D-02  0.558729D-02  0.397947D-01
     18  0.836694D-03 -0.206516D-01  0.363220D-01 -0.251278D-01 -0.500256D-01
     19  0.325697D-03  0.872103D-02  0.566708D-02 -0.794068D-03 -0.833913D-01
     20  0.475344D-04 -0.810802D-02 -0.333042D-01  0.957430D-03 -0.309140D-01
     21  0.586857D-03 -0.738607D-02 -0.321046D-01  0.151524D-02 -0.539919D-02
     22  0.486991D-02 -0.112932D+00  0.501858D-01 -0.747124D-01  0.201287D-02
     23 -0.153011D-02  0.584460D-01 -0.145447D+00  0.109131D+00  0.405880D-02
     24  0.325892D-03 -0.675537D-01  0.923159D-01 -0.204896D+00 -0.267944D-01
     25  0.171585D-02 -0.108031D+00 -0.759781D-01 -0.305674D-01  0.647207D-03
     26  0.200352D-02 -0.868749D-01 -0.274380D+00 -0.807296D-01 -0.158415D-01
     27 -0.338051D-03 -0.241249D-01 -0.663871D-01 -0.989034D-01 -0.180713D-01
     28  0.200430D-03 -0.105985D-01 -0.366354D-01  0.362934D-02  0.323350D-03
     29  0.419726D-03 -0.310199D-02 -0.130496D-01  0.423572D-02 -0.127532D-02
     30  0.296528D-01 -0.248532D-02  0.186542D-02  0.990857D-02 -0.304001D-02
     31 -0.526188D-04  0.101478D-02 -0.214630D-02 -0.123455D-03 -0.104380D-02
     32  0.576312D-04 -0.597829D-03 -0.569881D-02  0.577551D-03 -0.805107D-03
     33 -0.581452D-02 -0.140387D-02  0.110408D-02  0.572037D-02 -0.387287D-03
               11            12            13            14            15 
     11  0.598401D+00
     12  0.118316D-01  0.619429D+00
     13 -0.176218D-01  0.297297D-01  0.449034D+00
     14 -0.779633D-01  0.374155D-03  0.441035D-01  0.878148D-01
     15 -0.114960D-02 -0.859614D-01  0.824005D-02 -0.216442D-03  0.738693D-01
     16  0.402793D-01 -0.559683D-01 -0.538504D-01  0.317440D-01 -0.490088D-01
     17 -0.142316D+00  0.100280D+00  0.220846D-01  0.714984D-02  0.879394D-02
     18  0.916919D-01 -0.233429D+00 -0.335601D-01  0.871737D-02 -0.213789D-03
     19 -0.342752D-01 -0.765207D-02 -0.361831D-01 -0.617356D-01 -0.167447D-01
     20 -0.289575D+00 -0.803256D-01 -0.450153D-01 -0.245884D-01 -0.790469D-02
     21 -0.698633D-01 -0.110074D+00 -0.999980D-02 -0.561448D-02  0.125926D-01
     22  0.101690D-02  0.399279D-02  0.622130D-02 -0.116893D-02 -0.688489D-03
     23 -0.104683D-01  0.702328D-02 -0.204780D-02  0.193818D-02 -0.403206D-03
     24  0.381722D-01 -0.302439D-01  0.310469D-02 -0.238676D-02  0.217415D-02
     25  0.199949D-02  0.422947D-02  0.568568D-02  0.302148D-02 -0.453202D-04
     26 -0.382415D-01 -0.396458D-02  0.244153D-02  0.396792D-02  0.277543D-03
     27 -0.361254D-01 -0.305059D-02  0.376411D-03  0.986299D-03  0.519387D-03
     28 -0.225079D-02 -0.791465D-02 -0.226818D-02  0.454151D-03  0.197876D-02
     29 -0.831503D-02 -0.477762D-02 -0.122061D-02  0.115204D-02  0.147717D-02
     30 -0.278213D-02 -0.298797D-02 -0.642639D-04  0.423128D-03  0.837403D-03
     31 -0.685670D-04  0.214195D-03  0.416666D-03  0.391173D-04 -0.622502D-04
     32 -0.994052D-04 -0.558363D-04  0.217594D-03  0.135861D-04  0.202110D-04
     33 -0.374276D-03  0.245182D-03 -0.409937D-03  0.216241D-04  0.123025D-03
               16            17            18            19            20 
     16  0.132717D+00
     17 -0.806023D-01  0.207949D+00
     18  0.101841D+00 -0.156171D+00  0.261709D+00
     19  0.132880D-01  0.142092D-01  0.149512D-03  0.985300D-01
     20  0.865989D-02 -0.738606D-01  0.231634D-01  0.750397D-01  0.419167D+00
     21  0.219894D-03  0.396968D-01  0.135272D-01  0.200505D-01  0.756728D-01
     22  0.113522D-02 -0.110830D-02  0.250756D-02  0.536810D-03 -0.763506D-03
     23 -0.325098D-03  0.156905D-02  0.122887D-02 -0.520767D-03  0.643764D-02
     24  0.243450D-02  0.106122D-02 -0.154183D-01  0.151256D-02 -0.299395D-02
     25  0.678250D-03 -0.284297D-04  0.285170D-03  0.623783D-03  0.218285D-02
     26  0.334539D-03  0.570700D-02 -0.427443D-02  0.240707D-02 -0.431003D-02
     27  0.101892D-02  0.619364D-03  0.762192D-04  0.302166D-02 -0.794459D-02
     28  0.349508D-03 -0.170557D-03  0.196141D-02 -0.213274D-02  0.260289D-02
     29 -0.520023D-03  0.170935D-02  0.369008D-03  0.178755D-02  0.454965D-02
     30  0.328424D-03  0.242164D-03  0.525380D-03  0.259415D-02  0.108141D-02
     31  0.209632D-03 -0.726976D-05 -0.125430D-03  0.258025D-03  0.164943D-03
     32  0.196010D-03 -0.707384D-04 -0.319873D-04  0.327605D-03  0.152711D-03
     33 -0.216424D-03  0.939078D-04 -0.383317D-03  0.274747D-03  0.183395D-04
               21            22            23            24            25 
     21  0.923597D-01
     22  0.135922D-03  0.107652D+00
     23 -0.417922D-03 -0.769083D-01  0.222171D+00
     24  0.424113D-03  0.904404D-01 -0.160160D+00  0.239008D+00
     25  0.124703D-02  0.141080D-01  0.772605D-02  0.602306D-02  0.111754D+00
     26 -0.795292D-02 -0.113563D-02 -0.697387D-01  0.210043D-01  0.109641D+00
     27 -0.874191D-02  0.820185D-02  0.335390D-01  0.137183D-01  0.306969D-01
     28  0.371318D-02 -0.402006D-02  0.112991D-02 -0.215779D-02 -0.121305D-01
     29  0.128548D-02 -0.276541D-02  0.462086D-02 -0.371951D-02 -0.196661D-02
     30 -0.267092D-03  0.153049D-02 -0.192931D-02  0.159950D-02  0.373912D-03
     31  0.617294D-05  0.984895D-03  0.367169D-03  0.221980D-03  0.826357D-04
     32 -0.174482D-03  0.853348D-03  0.646282D-03  0.532498D-04 -0.181638D-02
     33 -0.312819D-03  0.662368D-03 -0.860929D-03 -0.967348D-04  0.579546D-03
               26            27            28            29            30 
     26  0.396433D+00
     27  0.800583D-01  0.907328D-01
     28 -0.731060D-02 -0.153437D-02  0.661441D+00
     29  0.216146D-02  0.472935D-03  0.620485D-01  0.449141D+00
     30 -0.451780D-03  0.316516D-03  0.790060D-02 -0.430587D-03  0.407158D-01
     31 -0.178579D-03  0.173978D-03 -0.500002D+00  0.859539D-02 -0.745124D-02
     32 -0.110375D-02 -0.262979D-03  0.556228D-01 -0.459146D-01  0.501672D-03
     33 -0.342711D-05 -0.145237D-03 -0.731759D-02 -0.393873D-03 -0.161580D-01
               31            32            33 
     31  0.522073D+00
     32 -0.341107D-02  0.495767D-01
     33  0.751319D-02 -0.179916D-03  0.124263D-01
 FormGI is forming the generalized inverse of G from B-inverse, IUseBI=4.
 Leave Link  716 at Fri May 23 23:26:07 2025, MaxMem=  3758096384 cpu:               0.0 elap:               0.0
 (Enter /apps/easybuild-2022/easybuild/software/Compiler/NVHPC/22.11-CUDA-11.7.0/Gaussian/g16c01-CUDA-11.7.0/g16/l103.exe)

 GradGradGradGradGradGradGradGradGradGradGradGradGradGradGradGradGradGrad
 Berny optimization.
 Red2BG is reusing G-inverse.
 Internal  Forces:  Max     0.000169652 RMS     0.000044676
 Search for a local minimum.
 Step number   1 out of a maximum of   53
 All quantities printed in internal units (Hartrees-Bohrs-Radians)
 RMS Force = .44676D-04 SwitMx=.10000D-02 MixMth= 2
 Mixed Optimization -- En-DIIS/RFO-DIIS
 Second derivative matrix not updated -- analytic derivatives used.
 ITU=  0
     Eigenvalues ---    0.00035   0.00331   0.01842   0.04730   0.06329
     Eigenvalues ---    0.09726   0.10349   0.10851   0.14733   0.15084
     Eigenvalues ---    0.16923   0.19872   0.20521   0.23504   0.24023
     Eigenvalues ---    0.24537   0.26817   0.32532   0.39265   0.39910
     Eigenvalues ---    0.41700   0.41968   0.45840   0.51441   0.52890
     Eigenvalues ---    0.58624   0.97860
 RFO step:  Lambda=-3.85534261D-07 EMin= 3.49265045D-04
 Linear search not attempted -- first point.
 Iteration  1 RMS(Cart)=  0.00180498 RMS(Int)=  0.00000190
 Iteration  2 RMS(Cart)=  0.00000199 RMS(Int)=  0.00000002
 Iteration  3 RMS(Cart)=  0.00000000 RMS(Int)=  0.00000002
 ITry= 1 IFail=0 DXMaxC= 5.74D-03 DCOld= 1.00D+10 DXMaxT= 3.00D-01 DXLimC= 3.00D+00 Rises=F
 Variable       Old X    -DE/DX   Delta X   Delta X   Delta X     New X
                                 (Linear)    (Quad)   (Total)
    R1        2.24453   0.00017   0.00000   0.00018   0.00018   2.24470
    R2        2.91802   0.00006   0.00000   0.00020   0.00020   2.91823
    R3        2.51145   0.00004   0.00000   0.00006   0.00006   2.51151
    R4        2.91864  -0.00010   0.00000  -0.00034  -0.00034   2.91830
    R5        2.53522  -0.00002   0.00000  -0.00006  -0.00006   2.53516
    R6        2.51877  -0.00003   0.00000  -0.00006  -0.00006   2.51871
    R7        2.50058  -0.00000   0.00000  -0.00008  -0.00008   2.50050
    R8        2.51041   0.00009   0.00000   0.00020   0.00020   2.51061
    R9        2.50388  -0.00001   0.00000   0.00000   0.00000   2.50388
   R10        1.82817  -0.00001   0.00000  -0.00001  -0.00001   1.82816
    A1        2.14377   0.00006   0.00000   0.00018   0.00018   2.14395
    A2        2.20944  -0.00002   0.00000  -0.00012  -0.00012   2.20932
    A3        1.92994  -0.00004   0.00000  -0.00006  -0.00006   1.92988
    A4        1.96564  -0.00008   0.00000  -0.00032  -0.00032   1.96532
    A5        1.92513   0.00004   0.00000   0.00014   0.00014   1.92526
    A6        1.89943   0.00005   0.00000   0.00024   0.00024   1.89968
    A7        1.88622  -0.00000   0.00000  -0.00008  -0.00008   1.88614
    A8        1.88154   0.00001   0.00000   0.00003   0.00003   1.88158
    A9        1.90467  -0.00001   0.00000  -0.00001  -0.00001   1.90466
   A10        1.91809  -0.00000   0.00000   0.00010   0.00010   1.91819
   A11        1.91094  -0.00004   0.00000  -0.00014  -0.00014   1.91080
   A12        1.93187  -0.00008   0.00000  -0.00022  -0.00022   1.93165
   A13        1.90303   0.00003   0.00000   0.00011   0.00011   1.90314
   A14        1.90032   0.00005   0.00000   0.00021   0.00021   1.90053
   A15        1.89924   0.00003   0.00000  -0.00006  -0.00006   1.89919
   A16        1.89139   0.00000   0.00000  -0.00003  -0.00003   1.89135
    D1        1.83818   0.00000   0.00000  -0.00115  -0.00115   1.83703
    D2       -2.33611  -0.00002   0.00000  -0.00137  -0.00137  -2.33748
    D3       -0.24711   0.00001   0.00000  -0.00115  -0.00115  -0.24826
    D4       -1.29489   0.00002   0.00000  -0.00084  -0.00084  -1.29573
    D5        0.81400  -0.00001   0.00000  -0.00106  -0.00106   0.81294
    D6        2.90301   0.00003   0.00000  -0.00084  -0.00084   2.90217
    D7       -0.00643   0.00001   0.00000   0.00029   0.00029  -0.00613
    D8        3.12624  -0.00001   0.00000  -0.00003  -0.00003   3.12622
    D9       -3.02699  -0.00001   0.00000  -0.00294  -0.00294  -3.02993
   D10       -0.93717   0.00000   0.00000  -0.00282  -0.00282  -0.93999
   D11        1.15654  -0.00003   0.00000  -0.00312  -0.00312   1.15342
   D12        1.12517  -0.00001   0.00000  -0.00285  -0.00285   1.12233
   D13       -3.06819   0.00001   0.00000  -0.00273  -0.00273  -3.07092
   D14       -0.97448  -0.00003   0.00000  -0.00303  -0.00303  -0.97751
   D15       -0.93135   0.00000   0.00000  -0.00281  -0.00281  -0.93416
   D16        1.15847   0.00002   0.00000  -0.00269  -0.00269   1.15578
   D17       -3.03101  -0.00001   0.00000  -0.00299  -0.00299  -3.03400
         Item               Value     Threshold  Converged?
 Maximum Force            0.000170     0.000450     YES
 RMS     Force            0.000045     0.000300     YES
 Maximum Displacement     0.005744     0.001800     NO 
 RMS     Displacement     0.001805     0.001200     NO 
 Predicted change in Energy=-1.927671D-07
 Lowest energy point so far.  Saving SCF results.
 GradGradGradGradGradGradGradGradGradGradGradGradGradGradGradGradGradGrad

 Leave Link  103 at Fri May 23 23:26:07 2025, MaxMem=  3758096384 cpu:               0.0 elap:               0.0
 (Enter /apps/easybuild-2022/easybuild/software/Compiler/NVHPC/22.11-CUDA-11.7.0/Gaussian/g16c01-CUDA-11.7.0/g16/l202.exe)
                          Input orientation:                          
 ---------------------------------------------------------------------
 Center     Atomic      Atomic             Coordinates (Angstroms)
 Number     Number       Type             X           Y           Z
 ---------------------------------------------------------------------
      1          6           0        1.544169    0.000332    0.000259
      2          8           0        2.188791   -0.997335    0.010284
      3          6           0       -0.000090   -0.000400    0.000056
      4          6           0       -0.594031    0.388093    1.371614
      5          9           0       -1.908545    0.237901    1.352139
      6          9           0       -0.082109   -0.395825    2.314205
      7          9           0       -0.310572    1.648965    1.663967
      8          9           0       -0.466017    0.863156   -0.914788
      9          9           0       -0.429956   -1.226369   -0.297757
     10          8           0        2.010622    1.244818   -0.001082
     11          1           0        2.977236    1.208068    0.013204
 ---------------------------------------------------------------------
                    Distance matrix (angstroms):
                    1          2          3          4          5
     1  C    0.000000
     2  O    1.187846   0.000000
     3  C    1.544259   2.405241   0.000000
     4  C    2.569606   3.393631   1.544300   0.000000
     5  F    3.715542   4.484924   2.350982   1.323209   0.000000
     6  F    2.855883   3.290418   2.349121   1.328559   2.159409
     7  F    2.987637   3.998048   2.363345   1.324998   2.154497
     8  F    2.371208   3.371230   1.341550   2.338740   2.758765
     9  F    2.343242   2.646731   1.332846   2.328134   2.655649
    10  O    1.329031   2.249250   2.365065   3.066348   4.266727
    11  H    1.874160   2.342106   3.213260   3.907888   5.157987
                    6          7          8          9         10
     6  F    0.000000
     7  F    2.157816   0.000000
     8  F    3.486949   2.700302   0.000000
     9  F    2.762815   3.482838   2.179023   0.000000
    10  O    3.525874   2.885076   2.667258   3.485858   0.000000
    11  H    4.150503   3.705279   3.582754   4.199065   0.967418
                   11
    11  H    0.000000
 Symmetry turned off by external request.
 Stoichiometry    C3HF5O2
 Rotational constants (GHZ):           1.9028038           1.1866386           1.1265000
 Leave Link  202 at Fri May 23 23:26:07 2025, MaxMem=  3758096384 cpu:               0.0 elap:               0.0
 (Enter /apps/easybuild-2022/easybuild/software/Compiler/NVHPC/22.11-CUDA-11.7.0/Gaussian/g16c01-CUDA-11.7.0/g16/l301.exe)
 Standard basis: def2TZVPP (5D, 7F)
 Ernie: Thresh=  0.10000D-02 Tol=  0.10000D-05 Strict=F.
   324 basis functions,   527 primitive gaussians,   375 cartesian basis functions
    40 alpha electrons       40 beta electrons
       nuclear repulsion energy       640.4289499175 Hartrees.
 IExCor= 4336 DFT=T Ex+Corr=M062X ExCW=0 ScaHFX=  0.540000
 ScaDFX=  1.000000  1.000000  1.000000  1.000000 ScalE2=  1.000000  1.000000
 IRadAn=      5 IRanWt=     -1 IRanGd=            0 ICorTp=0 IEmpDi=  4
 NAtoms=   11 NActive=   11 NUniq=   11 SFac= 1.00D+00 NAtFMM=   60 NAOKFM=F Big=F
 Integral buffers will be    131072 words long.
 Raffenetti 2 integral format.
 Two-electron integral symmetry is turned off.
 Leave Link  301 at Fri May 23 23:26:08 2025, MaxMem=  3758096384 cpu:               0.0 elap:               0.0
 (Enter /apps/easybuild-2022/easybuild/software/Compiler/NVHPC/22.11-CUDA-11.7.0/Gaussian/g16c01-CUDA-11.7.0/g16/l302.exe)
 NPDir=0 NMtPBC=     1 NCelOv=     1 NCel=       1 NClECP=     1 NCelD=      1
         NCelK=      1 NCelE2=     1 NClLst=     1 CellRange=     0.0.
 One-electron integrals computed using PRISM.
   1 Symmetry operations used in ECPInt.
 ECPInt:  NShTT=    6786 NPrTT=   21959 LenC2=    6486 LenP2D=   15997.
 LDataN:  DoStor=T MaxTD1= 6 Len=  172
 NBasis=   324 RedAO= T EigKep=  3.26D-04  NBF=   324
 NBsUse=   324 1.00D-06 EigRej= -1.00D+00 NBFU=   324
 Precomputing XC quadrature grid using
 IXCGrd= 4 IRadAn=           5 IRanWt=          -1 IRanGd=           0 AccXCQ= 0.00D+00.
 Generated NRdTot=       0 NPtTot=           0 NUsed=           0 NTot=          32
 NSgBfM=   374   374   374   374   374 MxSgAt=    11 MxSgA2=    11.
 Leave Link  302 at Fri May 23 23:26:08 2025, MaxMem=  3758096384 cpu:               0.7 elap:               0.1
 (Enter /apps/easybuild-2022/easybuild/software/Compiler/NVHPC/22.11-CUDA-11.7.0/Gaussian/g16c01-CUDA-11.7.0/g16/l303.exe)
 DipDrv:  MaxL=1.
 Leave Link  303 at Fri May 23 23:26:08 2025, MaxMem=  3758096384 cpu:               0.1 elap:               0.0
 (Enter /apps/easybuild-2022/easybuild/software/Compiler/NVHPC/22.11-CUDA-11.7.0/Gaussian/g16c01-CUDA-11.7.0/g16/l401.exe)
 Initial guess from the checkpoint file:  "/tmp/Gau-78688.chk"
 B after Tr=     0.000154   -0.000061    0.000072
         Rot=    1.000000   -0.000042    0.000052    0.000103 Ang=  -0.01 deg.
 Guess basis will be translated and rotated to current coordinates.
 JPrj=2 DoOrth=T DoCkMO=T.
 Leave Link  401 at Fri May 23 23:26:08 2025, MaxMem=  3758096384 cpu:               0.2 elap:               0.1
 (Enter /apps/easybuild-2022/easybuild/software/Compiler/NVHPC/22.11-CUDA-11.7.0/Gaussian/g16c01-CUDA-11.7.0/g16/l502.exe)
 Keep R1 ints in memory in canonical form, NReq=1412617130.
 FoFCou: FMM=F IPFlag=           0 FMFlag=           0 FMFlg1=           0
         NFxFlg=           0 DoJE=F BraDBF=F KetDBF=F FulRan=T
         wScrn=  0.000000 ICntrl=       600 IOpCl=  0 I1Cent=           0 NGrid=           0
         NMat0=    1 NMatS0=  52650 NMatT0=    0 NMatD0=    1 NMtDS0=    0 NMtDT0=    0
 Symmetry not used in FoFCou.
 Two-electron integral symmetry not used.
 Closed shell SCF:
 Using DIIS extrapolation, IDIIS=  1040.
 NGot=  3758096384 LenX=  2371771924 LenY=  2371630858
 Requested convergence on RMS density matrix=1.00D-08 within  32 cycles.
 Requested convergence on MAX density matrix=1.00D-06.
 Requested convergence on             energy=1.00D-06.
 No special actions if energy rises.

 Cycle   1  Pass 1  IDiag  1:
 E= -764.668253958312    
 DIIS: error= 8.96D-05 at cycle   1 NSaved=   1.
 NSaved= 1 IEnMin= 1 EnMin= -764.668253958312     IErMin= 1 ErrMin= 8.96D-05
 ErrMax= 8.96D-05  0.00D+00 EMaxC= 1.00D-01 BMatC= 6.84D-06 BMatP= 6.84D-06
 IDIUse=1 WtCom= 1.00D+00 WtEn= 0.00D+00
 Coeff-Com:  0.100D+01
 Coeff:      0.100D+01
 Gap=     1.043 Goal=   None    Shift=    0.000
 RMSDP=7.59D-06 MaxDP=1.96D-04              OVMax= 6.82D-04

 Cycle   2  Pass 1  IDiag  1:
 E= -764.668262147441     Delta-E=       -0.000008189130 Rises=F Damp=F
 DIIS: error= 1.65D-05 at cycle   2 NSaved=   2.
 NSaved= 2 IEnMin= 2 EnMin= -764.668262147441     IErMin= 2 ErrMin= 1.65D-05
 ErrMax= 1.65D-05  0.00D+00 EMaxC= 1.00D-01 BMatC= 2.08D-07 BMatP= 6.84D-06
 IDIUse=1 WtCom= 1.00D+00 WtEn= 0.00D+00
 Coeff-Com: -0.152D+00 0.115D+01
 Coeff:     -0.152D+00 0.115D+01
 Gap=     0.397 Goal=   None    Shift=    0.000
 RMSDP=1.79D-06 MaxDP=5.23D-05 DE=-8.19D-06 OVMax= 1.69D-04

 Cycle   3  Pass 1  IDiag  1:
 E= -764.668262519120     Delta-E=       -0.000000371679 Rises=F Damp=F
 DIIS: error= 3.81D-06 at cycle   3 NSaved=   3.
 NSaved= 3 IEnMin= 3 EnMin= -764.668262519120     IErMin= 3 ErrMin= 3.81D-06
 ErrMax= 3.81D-06  0.00D+00 EMaxC= 1.00D-01 BMatC= 1.89D-08 BMatP= 2.08D-07
 IDIUse=1 WtCom= 1.00D+00 WtEn= 0.00D+00
 Coeff-Com: -0.412D-01 0.233D+00 0.808D+00
 Coeff:     -0.412D-01 0.233D+00 0.808D+00
 Gap=     0.397 Goal=   None    Shift=    0.000
 RMSDP=3.79D-07 MaxDP=1.51D-05 DE=-3.72D-07 OVMax= 2.75D-05

 Cycle   4  Pass 1  IDiag  1:
 E= -764.668262530789     Delta-E=       -0.000000011669 Rises=F Damp=F
 DIIS: error= 2.73D-06 at cycle   4 NSaved=   4.
 NSaved= 4 IEnMin= 4 EnMin= -764.668262530789     IErMin= 4 ErrMin= 2.73D-06
 ErrMax= 2.73D-06  0.00D+00 EMaxC= 1.00D-01 BMatC= 8.97D-09 BMatP= 1.89D-08
 IDIUse=1 WtCom= 1.00D+00 WtEn= 0.00D+00
 Coeff-Com:  0.469D-02-0.766D-01 0.408D+00 0.664D+00
 Coeff:      0.469D-02-0.766D-01 0.408D+00 0.664D+00
 Gap=     0.397 Goal=   None    Shift=    0.000
 RMSDP=1.72D-07 MaxDP=6.95D-06 DE=-1.17D-08 OVMax= 1.31D-05

 Cycle   5  Pass 1  IDiag  1:
 E= -764.668262536544     Delta-E=       -0.000000005755 Rises=F Damp=F
 DIIS: error= 5.91D-07 at cycle   5 NSaved=   5.
 NSaved= 5 IEnMin= 5 EnMin= -764.668262536544     IErMin= 5 ErrMin= 5.91D-07
 ErrMax= 5.91D-07  0.00D+00 EMaxC= 1.00D-01 BMatC= 1.78D-10 BMatP= 8.97D-09
 IDIUse=1 WtCom= 1.00D+00 WtEn= 0.00D+00
 Coeff-Com:  0.320D-02-0.322D-01 0.534D-01 0.151D+00 0.824D+00
 Coeff:      0.320D-02-0.322D-01 0.534D-01 0.151D+00 0.824D+00
 Gap=     0.397 Goal=   None    Shift=    0.000
 RMSDP=5.14D-08 MaxDP=1.93D-06 DE=-5.76D-09 OVMax= 5.65D-06

 Cycle   6  Pass 1  IDiag  1:
 E= -764.668262536801     Delta-E=       -0.000000000256 Rises=F Damp=F
 DIIS: error= 3.17D-07 at cycle   6 NSaved=   6.
 NSaved= 6 IEnMin= 6 EnMin= -764.668262536801     IErMin= 6 ErrMin= 3.17D-07
 ErrMax= 3.17D-07  0.00D+00 EMaxC= 1.00D-01 BMatC= 5.74D-11 BMatP= 1.78D-10
 IDIUse=1 WtCom= 1.00D+00 WtEn= 0.00D+00
 Coeff-Com:  0.929D-03-0.527D-02-0.279D-01-0.169D-01 0.363D+00 0.686D+00
 Coeff:      0.929D-03-0.527D-02-0.279D-01-0.169D-01 0.363D+00 0.686D+00
 Gap=     0.397 Goal=   None    Shift=    0.000
 RMSDP=2.30D-08 MaxDP=1.03D-06 DE=-2.56D-10 OVMax= 3.26D-06

 Cycle   7  Pass 1  IDiag  1:
 E= -764.668262536802     Delta-E=       -0.000000000002 Rises=F Damp=F
 DIIS: error= 2.05D-07 at cycle   7 NSaved=   7.
 NSaved= 7 IEnMin= 7 EnMin= -764.668262536802     IErMin= 7 ErrMin= 2.05D-07
 ErrMax= 2.05D-07  0.00D+00 EMaxC= 1.00D-01 BMatC= 1.63D-11 BMatP= 5.74D-11
 IDIUse=1 WtCom= 1.00D+00 WtEn= 0.00D+00
 Coeff-Com: -0.295D-03 0.532D-02-0.275D-01-0.459D-01-0.630D-02 0.383D+00
 Coeff-Com:  0.692D+00
 Coeff:     -0.295D-03 0.532D-02-0.275D-01-0.459D-01-0.630D-02 0.383D+00
 Coeff:      0.692D+00
 Gap=     0.397 Goal=   None    Shift=    0.000
 RMSDP=1.20D-08 MaxDP=4.57D-07 DE=-1.82D-12 OVMax= 2.10D-06

 Cycle   8  Pass 1  IDiag  1:
 E= -764.668262536853     Delta-E=       -0.000000000050 Rises=F Damp=F
 DIIS: error= 4.38D-08 at cycle   8 NSaved=   8.
 NSaved= 8 IEnMin= 8 EnMin= -764.668262536853     IErMin= 8 ErrMin= 4.38D-08
 ErrMax= 4.38D-08  0.00D+00 EMaxC= 1.00D-01 BMatC= 8.41D-13 BMatP= 1.63D-11
 IDIUse=1 WtCom= 1.00D+00 WtEn= 0.00D+00
 Coeff-Com: -0.174D-03 0.230D-02-0.660D-02-0.138D-01-0.318D-01 0.730D-01
 Coeff-Com:  0.237D+00 0.741D+00
 Coeff:     -0.174D-03 0.230D-02-0.660D-02-0.138D-01-0.318D-01 0.730D-01
 Coeff:      0.237D+00 0.741D+00
 Gap=     0.397 Goal=   None    Shift=    0.000
 RMSDP=3.17D-09 MaxDP=1.18D-07 DE=-5.05D-11 OVMax= 7.08D-07

 SCF Done:  E(RM062X) =  -764.668262537     A.U. after    8 cycles
            NFock=  8  Conv=0.32D-08     -V/T= 2.0036
 KE= 7.618941874345D+02 PE=-3.093344928907D+03 EE= 9.263535290183D+02
 Leave Link  502 at Fri May 23 23:26:25 2025, MaxMem=  3758096384 cpu:              87.7 elap:              17.6
 (Enter /apps/easybuild-2022/easybuild/software/Compiler/NVHPC/22.11-CUDA-11.7.0/Gaussian/g16c01-CUDA-11.7.0/g16/l508.exe)
 QCSCF skips out because SCF is already converged.
 Leave Link  508 at Fri May 23 23:26:25 2025, MaxMem=  3758096384 cpu:               0.0 elap:               0.0
 (Enter /apps/easybuild-2022/easybuild/software/Compiler/NVHPC/22.11-CUDA-11.7.0/Gaussian/g16c01-CUDA-11.7.0/g16/l701.exe)
 ... and contract with generalized density number  0.
 Compute integral first derivatives.
   1 Symmetry operations used in ECPInt.
 ECPInt:  NShTT=    6786 NPrTT=   21959 LenC2=    6486 LenP2D=   15997.
 LDataN:  DoStor=T MaxTD1= 7 Len=  274
 Leave Link  701 at Fri May 23 23:26:26 2025, MaxMem=  3758096384 cpu:               0.5 elap:               0.1
 (Enter /apps/easybuild-2022/easybuild/software/Compiler/NVHPC/22.11-CUDA-11.7.0/Gaussian/g16c01-CUDA-11.7.0/g16/l702.exe)
 L702 exits ... SP integral derivatives will be done elsewhere.
 Leave Link  702 at Fri May 23 23:26:26 2025, MaxMem=  3758096384 cpu:               0.0 elap:               0.0
 (Enter /apps/easybuild-2022/easybuild/software/Compiler/NVHPC/22.11-CUDA-11.7.0/Gaussian/g16c01-CUDA-11.7.0/g16/l703.exe)
 Integral derivatives from FoFJK, PRISM(SPDF).
 Compute integral first derivatives, UseDBF=F ICtDFT=           0.
 Calling FoFJK, ICntrl=      2127 FMM=F ISym2X=0 I1Cent= 0 IOpClX= 0 NMat=1 NMatS=1 NMatT=0.
 FoFJK:  IHMeth= 1 ICntrl=    2127 DoSepK=F KAlg= 0 I1Cent=           0 FoldK=F
 IRaf=         0 NMat=       1 IRICut=       1 DoRegI=T DoRafI=F ISym2E= 0 IDoP0=0 IntGTp=1.
 FoFCou: FMM=F IPFlag=           0 FMFlag=      100000 FMFlg1=         800
         NFxFlg=           0 DoJE=F BraDBF=F KetDBF=F FulRan=T
         wScrn=  0.000000 ICntrl=      2127 IOpCl=  0 I1Cent=           0 NGrid=           0
         NMat0=    1 NMatS0=      1 NMatT0=    0 NMatD0=    1 NMtDS0=    0 NMtDT0=    0
 Symmetry not used in FoFCou.
 Leave Link  703 at Fri May 23 23:26:35 2025, MaxMem=  3758096384 cpu:              75.8 elap:               9.6
 (Enter /apps/easybuild-2022/easybuild/software/Compiler/NVHPC/22.11-CUDA-11.7.0/Gaussian/g16c01-CUDA-11.7.0/g16/l716.exe)
 Dipole        = 6.57575441D-01 6.25344933D-01-2.20103301D-02
 -------------------------------------------------------------------
 Center     Atomic                   Forces (Hartrees/Bohr)
 Number     Number              X              Y              Z
 -------------------------------------------------------------------
      1        6          -0.000000458   -0.000000647   -0.000001235
      2        8          -0.000001146   -0.000000826   -0.000001321
      3        6          -0.000000857   -0.000000350    0.000000683
      4        6           0.000001168    0.000000924    0.000001249
      5        9           0.000001093    0.000001411    0.000003222
      6        9           0.000002054    0.000001316    0.000001123
      7        9           0.000001768    0.000000955    0.000000204
      8        9          -0.000001492   -0.000000639    0.000000709
      9        9          -0.000001500   -0.000000253    0.000001924
     10        8          -0.000000374   -0.000000814   -0.000002709
     11        1          -0.000000256   -0.000001076   -0.000003850
 -------------------------------------------------------------------
 Cartesian Forces:  Max     0.000003850 RMS     0.000001448
 Leave Link  716 at Fri May 23 23:26:35 2025, MaxMem=  3758096384 cpu:               0.0 elap:               0.0
 (Enter /apps/easybuild-2022/easybuild/software/Compiler/NVHPC/22.11-CUDA-11.7.0/Gaussian/g16c01-CUDA-11.7.0/g16/l103.exe)

 GradGradGradGradGradGradGradGradGradGradGradGradGradGradGradGradGradGrad
 Berny optimization.
 Using GEDIIS/GDIIS optimizer.
 FormGI is forming the generalized inverse of G from B-inverse, IUseBI=4.
 Internal  Forces:  Max     0.000000386 RMS     0.000000124
 Search for a local minimum.
 Step number   2 out of a maximum of   53
 All quantities printed in internal units (Hartrees-Bohrs-Radians)
 RMS Force = .12374D-06 SwitMx=.10000D-02 MixMth= 2
 Mixed Optimization -- En-DIIS/RFO-DIIS
 Swapping is turned off.
 Update second derivatives using D2CorX and points    1    2
 DE= -1.93D-07 DEPred=-1.93D-07 R= 1.00D+00
 Trust test= 1.00D+00 RLast= 9.11D-03 DXMaxT set to 3.00D-01
 ITU=  0  0
     Eigenvalues ---    0.00035   0.00331   0.01842   0.04731   0.06329
     Eigenvalues ---    0.09726   0.10347   0.10851   0.14733   0.15087
     Eigenvalues ---    0.16923   0.19875   0.20513   0.23504   0.24024
     Eigenvalues ---    0.24537   0.26829   0.32534   0.39302   0.39910
     Eigenvalues ---    0.41701   0.41967   0.45840   0.51447   0.52891
     Eigenvalues ---    0.58628   0.97873
 En-DIIS/RFO-DIIS/Sim-DIIS IScMMF=       -3 using points:     2    1
 RFO step:  Lambda=-2.46371306D-12.
 NNeg= 0 NGDIIS= 2 SimSw=  2.50D-03 Rises=F DC= -1.93D-07 SmlDif=  1.00D-05
 NRisDI= 0 DoIntr=F SqrtH=F CThrHd= 10.0 CDAdj=  3.0
 RMS Error=  0.6472964058D-04 NUsed= 2 OKEnD=F EnDIS=F
 InvSVX:  RCond= 2.07D-05 Info=           0 Equed=N FErr=  9.50D-16 BErr=  1.63D-17
 DidBck=F Rises=F RFO-DIIS coefs:    1.03271   -0.03271
 Iteration  1 RMS(Cart)=  0.00008510 RMS(Int)=  0.00000000
 Iteration  2 RMS(Cart)=  0.00000000 RMS(Int)=  0.00000000
 ITry= 1 IFail=0 DXMaxC= 3.19D-04 DCOld= 1.00D+10 DXMaxT= 3.00D-01 DXLimC= 3.00D+00 Rises=F
 Variable       Old X    -DE/DX   Delta X   Delta X   Delta X     New X
                                 (Linear)    (Quad)   (Total)
    R1        2.24470  -0.00000   0.00001  -0.00001   0.00000   2.24470
    R2        2.91823   0.00000   0.00001  -0.00001   0.00000   2.91823
    R3        2.51151   0.00000   0.00000  -0.00000  -0.00000   2.51150
    R4        2.91830   0.00000  -0.00001   0.00001  -0.00000   2.91830
    R5        2.53516  -0.00000  -0.00000  -0.00000  -0.00000   2.53516
    R6        2.51871   0.00000  -0.00000   0.00000   0.00000   2.51872
    R7        2.50050  -0.00000  -0.00000   0.00000  -0.00000   2.50050
    R8        2.51061   0.00000   0.00001  -0.00001  -0.00000   2.51061
    R9        2.50388  -0.00000   0.00000   0.00000   0.00000   2.50389
   R10        1.82816   0.00000  -0.00000   0.00000   0.00000   1.82816
    A1        2.14395  -0.00000   0.00001  -0.00001  -0.00000   2.14395
    A2        2.20932   0.00000  -0.00000   0.00000   0.00000   2.20932
    A3        1.92988   0.00000  -0.00000   0.00001   0.00000   1.92988
    A4        1.96532  -0.00000  -0.00001   0.00000  -0.00001   1.96531
    A5        1.92526  -0.00000   0.00000   0.00000   0.00001   1.92527
    A6        1.89968   0.00000   0.00001  -0.00001   0.00000   1.89968
    A7        1.88614   0.00000  -0.00000   0.00000  -0.00000   1.88614
    A8        1.88158   0.00000   0.00000  -0.00000   0.00000   1.88158
    A9        1.90466  -0.00000  -0.00000   0.00000  -0.00000   1.90466
   A10        1.91819   0.00000   0.00000  -0.00000   0.00000   1.91819
   A11        1.91080  -0.00000  -0.00000   0.00001   0.00000   1.91080
   A12        1.93165   0.00000  -0.00001   0.00000  -0.00001   1.93165
   A13        1.90314  -0.00000   0.00000  -0.00000   0.00000   1.90314
   A14        1.90053  -0.00000   0.00001  -0.00001   0.00000   1.90053
   A15        1.89919  -0.00000  -0.00000   0.00000  -0.00000   1.89918
   A16        1.89135   0.00000  -0.00000   0.00000  -0.00000   1.89135
    D1        1.83703  -0.00000  -0.00004  -0.00012  -0.00016   1.83687
    D2       -2.33748   0.00000  -0.00004  -0.00011  -0.00016  -2.33764
    D3       -0.24826  -0.00000  -0.00004  -0.00012  -0.00015  -0.24841
    D4       -1.29573  -0.00000  -0.00003  -0.00012  -0.00015  -1.29588
    D5        0.81294  -0.00000  -0.00003  -0.00012  -0.00015   0.81279
    D6        2.90217  -0.00000  -0.00003  -0.00012  -0.00015   2.90202
    D7       -0.00613   0.00000   0.00001  -0.00001  -0.00000  -0.00614
    D8        3.12622   0.00000  -0.00000  -0.00001  -0.00001   3.12621
    D9       -3.02993  -0.00000  -0.00010   0.00003  -0.00007  -3.03000
   D10       -0.93999  -0.00000  -0.00009   0.00003  -0.00006  -0.94005
   D11        1.15342  -0.00000  -0.00010   0.00004  -0.00006   1.15335
   D12        1.12233   0.00000  -0.00009   0.00002  -0.00007   1.12226
   D13       -3.07092   0.00000  -0.00009   0.00002  -0.00007  -3.07099
   D14       -0.97751   0.00000  -0.00010   0.00003  -0.00007  -0.97758
   D15       -0.93416  -0.00000  -0.00009   0.00002  -0.00007  -0.93423
   D16        1.15578  -0.00000  -0.00009   0.00002  -0.00006   1.15571
   D17       -3.03400  -0.00000  -0.00010   0.00003  -0.00007  -3.03407
         Item               Value     Threshold  Converged?
 Maximum Force            0.000000     0.000450     YES
 RMS     Force            0.000000     0.000300     YES
 Maximum Displacement     0.000319     0.001800     YES
 RMS     Displacement     0.000085     0.001200     YES
 Predicted change in Energy=-3.314353D-11
 Optimization completed.
    -- Stationary point found.
                           ----------------------------
                           !   Optimized Parameters   !
                           ! (Angstroms and Degrees)  !
 --------------------------                            --------------------------
 ! Name  Definition              Value          Derivative Info.                !
 --------------------------------------------------------------------------------
 ! R1    R(1,2)                  1.1878         -DE/DX =    0.0                 !
 ! R2    R(1,3)                  1.5443         -DE/DX =    0.0                 !
 ! R3    R(1,10)                 1.329          -DE/DX =    0.0                 !
 ! R4    R(3,4)                  1.5443         -DE/DX =    0.0                 !
 ! R5    R(3,8)                  1.3416         -DE/DX =    0.0                 !
 ! R6    R(3,9)                  1.3328         -DE/DX =    0.0                 !
 ! R7    R(4,5)                  1.3232         -DE/DX =    0.0                 !
 ! R8    R(4,6)                  1.3286         -DE/DX =    0.0                 !
 ! R9    R(4,7)                  1.325          -DE/DX =    0.0                 !
 ! R10   R(10,11)                0.9674         -DE/DX =    0.0                 !
 ! A1    A(2,1,3)              122.8393         -DE/DX =    0.0                 !
 ! A2    A(2,1,10)             126.5846         -DE/DX =    0.0                 !
 ! A3    A(3,1,10)             110.5739         -DE/DX =    0.0                 !
 ! A4    A(1,3,4)              112.6044         -DE/DX =    0.0                 !
 ! A5    A(1,3,8)              110.3094         -DE/DX =    0.0                 !
 ! A6    A(1,3,9)              108.8434         -DE/DX =    0.0                 !
 ! A7    A(4,3,8)              108.0679         -DE/DX =    0.0                 !
 ! A8    A(4,3,9)              107.8063         -DE/DX =    0.0                 !
 ! A9    A(8,3,9)              109.1292         -DE/DX =    0.0                 !
 ! A10   A(3,4,5)              109.9042         -DE/DX =    0.0                 !
 ! A11   A(3,4,6)              109.4807         -DE/DX =    0.0                 !
 ! A12   A(3,4,7)              110.6755         -DE/DX =    0.0                 !
 ! A13   A(5,4,6)              109.0418         -DE/DX =    0.0                 !
 ! A14   A(5,4,7)              108.8921         -DE/DX =    0.0                 !
 ! A15   A(6,4,7)              108.8153         -DE/DX =    0.0                 !
 ! A16   A(1,10,11)            108.3666         -DE/DX =    0.0                 !
 ! D1    D(2,1,3,4)            105.2541         -DE/DX =    0.0                 !
 ! D2    D(2,1,3,8)           -133.928          -DE/DX =    0.0                 !
 ! D3    D(2,1,3,9)            -14.2243         -DE/DX =    0.0                 !
 ! D4    D(10,1,3,4)           -74.2398         -DE/DX =    0.0                 !
 ! D5    D(10,1,3,8)            46.5781         -DE/DX =    0.0                 !
 ! D6    D(10,1,3,9)           166.2818         -DE/DX =    0.0                 !
 ! D7    D(2,1,10,11)           -0.3514         -DE/DX =    0.0                 !
 ! D8    D(3,1,10,11)          179.119          -DE/DX =    0.0                 !
 ! D9    D(1,3,4,5)           -173.6023         -DE/DX =    0.0                 !
 ! D10   D(1,3,4,6)            -53.8575         -DE/DX =    0.0                 !
 ! D11   D(1,3,4,7)             66.086          -DE/DX =    0.0                 !
 ! D12   D(8,3,4,5)             64.3045         -DE/DX =    0.0                 !
 ! D13   D(8,3,4,6)           -175.9508         -DE/DX =    0.0                 !
 ! D14   D(8,3,4,7)            -56.0072         -DE/DX =    0.0                 !
 ! D15   D(9,3,4,5)            -53.5236         -DE/DX =    0.0                 !
 ! D16   D(9,3,4,6)             66.2211         -DE/DX =    0.0                 !
 ! D17   D(9,3,4,7)           -173.8353         -DE/DX =    0.0                 !
 --------------------------------------------------------------------------------
 Lowest energy point so far.  Saving SCF results.
 Largest change from initial coordinates is atom    7       0.002 Angstoms.
 GradGradGradGradGradGradGradGradGradGradGradGradGradGradGradGradGradGrad

 Leave Link  103 at Fri May 23 23:26:35 2025, MaxMem=  3758096384 cpu:               0.1 elap:               0.0
 (Enter /apps/easybuild-2022/easybuild/software/Compiler/NVHPC/22.11-CUDA-11.7.0/Gaussian/g16c01-CUDA-11.7.0/g16/l202.exe)
                          Input orientation:                          
 ---------------------------------------------------------------------
 Center     Atomic      Atomic             Coordinates (Angstroms)
 Number     Number       Type             X           Y           Z
 ---------------------------------------------------------------------
      1          6           0        1.544169    0.000332    0.000259
      2          8           0        2.188791   -0.997335    0.010284
      3          6           0       -0.000090   -0.000400    0.000056
      4          6           0       -0.594031    0.388093    1.371614
      5          9           0       -1.908545    0.237901    1.352139
      6          9           0       -0.082109   -0.395825    2.314205
      7          9           0       -0.310572    1.648965    1.663967
      8          9           0       -0.466017    0.863156   -0.914788
      9          9           0       -0.429956   -1.226369   -0.297757
     10          8           0        2.010622    1.244818   -0.001082
     11          1           0        2.977236    1.208068    0.013204
 ---------------------------------------------------------------------
                    Distance matrix (angstroms):
                    1          2          3          4          5
     1  C    0.000000
     2  O    1.187846   0.000000
     3  C    1.544259   2.405241   0.000000
     4  C    2.569606   3.393631   1.544300   0.000000
     5  F    3.715542   4.484924   2.350982   1.323209   0.000000
     6  F    2.855883   3.290418   2.349121   1.328559   2.159409
     7  F    2.987637   3.998048   2.363345   1.324998   2.154497
     8  F    2.371208   3.371230   1.341550   2.338740   2.758765
     9  F    2.343242   2.646731   1.332846   2.328134   2.655649
    10  O    1.329031   2.249250   2.365065   3.066348   4.266727
    11  H    1.874160   2.342106   3.213260   3.907888   5.157987
                    6          7          8          9         10
     6  F    0.000000
     7  F    2.157816   0.000000
     8  F    3.486949   2.700302   0.000000
     9  F    2.762815   3.482838   2.179023   0.000000
    10  O    3.525874   2.885076   2.667258   3.485858   0.000000
    11  H    4.150503   3.705279   3.582754   4.199065   0.967418
                   11
    11  H    0.000000
 Symmetry turned off by external request.
 Stoichiometry    C3HF5O2
 Rotational constants (GHZ):           1.9028038           1.1866386           1.1265000
 Leave Link  202 at Fri May 23 23:26:35 2025, MaxMem=  3758096384 cpu:               0.0 elap:               0.0
 (Enter /apps/easybuild-2022/easybuild/software/Compiler/NVHPC/22.11-CUDA-11.7.0/Gaussian/g16c01-CUDA-11.7.0/g16/l9999.exe)
 Unable to Open any file for archive entry.
 1\1\GINC-SPARTAN-BM143\FOpt\RM062X\def2TZVPP\C3H1F5O2\AKHALILOV\23-May
 -2025\0\\#P M062X/Def2TZVPP Symm(None) scf(xqc) pop(None) freq opt(Cal
 cFC)\\Gaussian input prepared by ASE\\0,1\C,1.5441693424,0.0003321593,
 0.0002593151\O,2.1887910994,-0.9973352448,0.0102843985\C,-0.0000897775
 ,-0.0003998735,0.0000564745\C,-0.5940314394,0.3880927992,1.3716137454\
 F,-1.908544954,0.2379005985,1.3521387819\F,-0.0821089003,-0.395825207,
 2.3142048174\F,-0.3105716195,1.6489649878,1.6639668009\F,-0.4660173295
 ,0.8631561314,-0.9147875166\F,-0.429956008,-1.2263693056,-0.2977574733
 \O,2.0106222228,1.2448177693,-0.0010817627\H,2.9772364485,1.2080684786
 ,0.0132040031\\Version=ES64L-G16RevC.01\HF=-764.6682625\RMSD=3.168e-09
 \RMSF=1.448e-06\Dipole=0.6575754,0.6253449,-0.0220103\PG=Unknown\\@
 The archive entry for this job was punched.


 HE WHO LOVES TO READ, AND KNOWS HOW TO REFLECT,
 HAS LAID BY A PERPETUAL FEAST FOR HIS OLD AGE.
 -- UNCLE ESEK, "SCRIBNER'S MONTHLY", SEPT. 1880
 Leave Link 9999 at Fri May 23 23:26:35 2025, MaxMem=  3758096384 cpu:               0.0 elap:               0.0
 Job cpu time:       0 days  0 hours 30 minutes 27.4 seconds.
 Elapsed time:       0 days  0 hours  4 minutes 10.0 seconds.
 File lengths (MBytes):  RWF=    113 Int=      0 D2E=      0 Chk=      9 Scr=      1
 Normal termination of Gaussian 16 at Fri May 23 23:26:35 2025.
 (Enter /apps/easybuild-2022/easybuild/software/Compiler/NVHPC/22.11-CUDA-11.7.0/Gaussian/g16c01-CUDA-11.7.0/g16/l1.exe)
 Link1:  Proceeding to internal job step number  2.
 ---------------------------------------------------------------------
 #P Geom=AllCheck Guess=TCheck SCRF=Check GenChk RM062X/def2TZVPP Freq
 ---------------------------------------------------------------------
 1/10=4,29=7,30=1,38=1,40=1/1,3;
 2/12=2,15=3,40=1/2;
 3/5=44,7=202,11=2,14=-4,25=1,30=1,70=2,71=2,74=-55,116=1,140=1/1,2,3;
 4/5=101/1;
 5/5=2,8=3,13=1,38=6,98=1/2,8;
 8/6=4,10=90,11=11/1;
 11/6=1,8=1,9=11,15=111,16=1,31=1/1,2,10;
 10/6=1,31=1/2;
 7/8=1,10=1,25=1,30=1/1,2,3,16;
 1/10=4,30=1/3;
 99//99;
 Leave Link    1 at Fri May 23 23:26:35 2025, MaxMem=  3758096384 cpu:               0.0 elap:               0.0
 (Enter /apps/easybuild-2022/easybuild/software/Compiler/NVHPC/22.11-CUDA-11.7.0/Gaussian/g16c01-CUDA-11.7.0/g16/l101.exe)
 Structure from the checkpoint file:  "/tmp/Gau-78688.chk"
 ------------------------------
 Gaussian input prepared by ASE
 ------------------------------
 Charge =  0 Multiplicity = 1
 Redundant internal coordinates found in file.  (old form).
 C,0,1.5441693424,0.0003321593,0.0002593151
 O,0,2.1887910994,-0.9973352448,0.0102843985
 C,0,-0.0000897775,-0.0003998735,0.0000564745
 C,0,-0.5940314394,0.3880927992,1.3716137454
 F,0,-1.908544954,0.2379005985,1.3521387819
 F,0,-0.0821089003,-0.395825207,2.3142048174
 F,0,-0.3105716195,1.6489649878,1.6639668009
[...]
    R8        2.51061   0.00000   0.00000  -0.00000  -0.00000   2.51061
    R9        2.50388   0.00000   0.00000   0.00000   0.00000   2.50389
   R10        1.82816   0.00000   0.00000   0.00000   0.00000   1.82816
    A1        2.14395  -0.00000   0.00000  -0.00000  -0.00000   2.14394
    A2        2.20932   0.00000   0.00000   0.00000   0.00000   2.20932
    A3        1.92988   0.00000   0.00000   0.00000   0.00000   1.92988
    A4        1.96532   0.00000   0.00000  -0.00001  -0.00001   1.96531
    A5        1.92526  -0.00000   0.00000   0.00001   0.00001   1.92527
    A6        1.89968   0.00000   0.00000   0.00000   0.00000   1.89968
    A7        1.88614   0.00000   0.00000  -0.00000  -0.00000   1.88614
    A8        1.88158   0.00000   0.00000   0.00000   0.00000   1.88158
    A9        1.90466  -0.00000   0.00000  -0.00000  -0.00000   1.90466
   A10        1.91819   0.00000   0.00000   0.00000   0.00000   1.91819
   A11        1.91080  -0.00000   0.00000   0.00001   0.00001   1.91080
   A12        1.93165   0.00000   0.00000  -0.00001  -0.00001   1.93165
   A13        1.90314  -0.00000   0.00000   0.00000   0.00000   1.90314
   A14        1.90053  -0.00000   0.00000   0.00000   0.00000   1.90053
   A15        1.89919  -0.00000   0.00000  -0.00000  -0.00000   1.89918
   A16        1.89135   0.00000   0.00000  -0.00000  -0.00000   1.89135
    D1        1.83703  -0.00000   0.00000  -0.00017  -0.00017   1.83686
    D2       -2.33748   0.00000   0.00000  -0.00017  -0.00017  -2.33766
    D3       -0.24826  -0.00000   0.00000  -0.00017  -0.00017  -0.24843
    D4       -1.29573  -0.00000   0.00000  -0.00016  -0.00016  -1.29589
    D5        0.81294  -0.00000   0.00000  -0.00016  -0.00016   0.81278
    D6        2.90217  -0.00000   0.00000  -0.00016  -0.00016   2.90201
    D7       -0.00613  -0.00000   0.00000  -0.00000  -0.00000  -0.00614
    D8        3.12622   0.00000   0.00000  -0.00001  -0.00001   3.12621
    D9       -3.02993  -0.00000   0.00000  -0.00007  -0.00007  -3.03000
   D10       -0.93999  -0.00000   0.00000  -0.00007  -0.00007  -0.94006
   D11        1.15342  -0.00000   0.00000  -0.00007  -0.00007   1.15335
   D12        1.12233   0.00000   0.00000  -0.00008  -0.00008   1.12225
   D13       -3.07092   0.00000   0.00000  -0.00007  -0.00007  -3.07099
   D14       -0.97751   0.00000   0.00000  -0.00007  -0.00007  -0.97758
   D15       -0.93416  -0.00000   0.00000  -0.00008  -0.00008  -0.93424
   D16        1.15578  -0.00000   0.00000  -0.00007  -0.00007   1.15571
   D17       -3.03400  -0.00000   0.00000  -0.00007  -0.00007  -3.03407
         Item               Value     Threshold  Converged?
 Maximum Force            0.000000     0.000450     YES
 RMS     Force            0.000000     0.000300     YES
 Maximum Displacement     0.000345     0.001800     YES
 RMS     Displacement     0.000092     0.001200     YES
 Predicted change in Energy=-3.901358D-11
 Optimization completed.
    -- Stationary point found.
                           ----------------------------
                           !   Optimized Parameters   !
                           ! (Angstroms and Degrees)  !
 --------------------------                            --------------------------
 ! Name  Definition              Value          Derivative Info.                !
 --------------------------------------------------------------------------------
 ! R1    R(1,2)                  1.1878         -DE/DX =    0.0                 !
 ! R2    R(1,3)                  1.5443         -DE/DX =    0.0                 !
 ! R3    R(1,10)                 1.329          -DE/DX =    0.0                 !
 ! R4    R(3,4)                  1.5443         -DE/DX =    0.0                 !
 ! R5    R(3,8)                  1.3416         -DE/DX =    0.0                 !
 ! R6    R(3,9)                  1.3328         -DE/DX =    0.0                 !
 ! R7    R(4,5)                  1.3232         -DE/DX =    0.0                 !
 ! R8    R(4,6)                  1.3286         -DE/DX =    0.0                 !
 ! R9    R(4,7)                  1.325          -DE/DX =    0.0                 !
 ! R10   R(10,11)                0.9674         -DE/DX =    0.0                 !
 ! A1    A(2,1,3)              122.8393         -DE/DX =    0.0                 !
 ! A2    A(2,1,10)             126.5846         -DE/DX =    0.0                 !
 ! A3    A(3,1,10)             110.5739         -DE/DX =    0.0                 !
 ! A4    A(1,3,4)              112.6044         -DE/DX =    0.0                 !
 ! A5    A(1,3,8)              110.3094         -DE/DX =    0.0                 !
 ! A6    A(1,3,9)              108.8434         -DE/DX =    0.0                 !
 ! A7    A(4,3,8)              108.0679         -DE/DX =    0.0                 !
 ! A8    A(4,3,9)              107.8063         -DE/DX =    0.0                 !
 ! A9    A(8,3,9)              109.1292         -DE/DX =    0.0                 !
 ! A10   A(3,4,5)              109.9042         -DE/DX =    0.0                 !
 ! A11   A(3,4,6)              109.4807         -DE/DX =    0.0                 !
 ! A12   A(3,4,7)              110.6755         -DE/DX =    0.0                 !
 ! A13   A(5,4,6)              109.0418         -DE/DX =    0.0                 !
 ! A14   A(5,4,7)              108.8921         -DE/DX =    0.0                 !
 ! A15   A(6,4,7)              108.8153         -DE/DX =    0.0                 !
 ! A16   A(1,10,11)            108.3666         -DE/DX =    0.0                 !
 ! D1    D(2,1,3,4)            105.2541         -DE/DX =    0.0                 !
 ! D2    D(2,1,3,8)           -133.928          -DE/DX =    0.0                 !
 ! D3    D(2,1,3,9)            -14.2243         -DE/DX =    0.0                 !
 ! D4    D(10,1,3,4)           -74.2398         -DE/DX =    0.0                 !
 ! D5    D(10,1,3,8)            46.5781         -DE/DX =    0.0                 !
 ! D6    D(10,1,3,9)           166.2818         -DE/DX =    0.0                 !
 ! D7    D(2,1,10,11)           -0.3514         -DE/DX =    0.0                 !
 ! D8    D(3,1,10,11)          179.119          -DE/DX =    0.0                 !
 ! D9    D(1,3,4,5)           -173.6023         -DE/DX =    0.0                 !
 ! D10   D(1,3,4,6)            -53.8575         -DE/DX =    0.0                 !
 ! D11   D(1,3,4,7)             66.086          -DE/DX =    0.0                 !
 ! D12   D(8,3,4,5)             64.3045         -DE/DX =    0.0                 !
 ! D13   D(8,3,4,6)           -175.9508         -DE/DX =    0.0                 !
 ! D14   D(8,3,4,7)            -56.0072         -DE/DX =    0.0                 !
 ! D15   D(9,3,4,5)            -53.5236         -DE/DX =    0.0                 !
 ! D16   D(9,3,4,6)             66.2211         -DE/DX =    0.0                 !
 ! D17   D(9,3,4,7)           -173.8353         -DE/DX =    0.0                 !
 --------------------------------------------------------------------------------
 GradGradGradGradGradGradGradGradGradGradGradGradGradGradGradGradGradGrad

 Leave Link  103 at Fri May 23 23:30:03 2025, MaxMem=  3758096384 cpu:               0.0 elap:               0.0
 (Enter /apps/easybuild-2022/easybuild/software/Compiler/NVHPC/22.11-CUDA-11.7.0/Gaussian/g16c01-CUDA-11.7.0/g16/l9999.exe)

 ----------------------------------------------------------------------

 Electric dipole moment (input orientation):
 (Debye = 10**-18 statcoulomb cm , SI units = C m)
                  (au)            (Debye)         (10**-30 SI)
   Tot        0.907714D+00      0.230718D+01      0.769592D+01
   x          0.657576D+00      0.167139D+01      0.557516D+01
   y          0.625344D+00      0.158947D+01      0.530189D+01
   z         -0.220099D-01     -0.559435D-01     -0.186608D+00

 Dipole polarizability, Alpha (input orientation).
 (esu units = cm**3 , SI units = C**2 m**2 J**-1)
 Alpha(0;0):
               (au)            (10**-24 esu)      (10**-40 SI)
   iso        0.438584D+02      0.649914D+01      0.723127D+01
   aniso      0.105415D+02      0.156209D+01      0.173806D+01
   xx         0.479907D+02      0.711148D+01      0.791259D+01
   yx        -0.766708D+00     -0.113614D+00     -0.126413D+00
   yy         0.464890D+02      0.688897D+01      0.766501D+01
   zx        -0.125958D+01     -0.186650D+00     -0.207676D+00
   zy         0.583833D-02      0.865151D-03      0.962610D-03
   zz         0.370954D+02      0.549698D+01      0.611621D+01

 ----------------------------------------------------------------------

 Dipole orientation:
     6          1.34793232         -1.49253638          2.11434901
     8          2.86149022         -3.09693442          1.69752387
     6          0.00023078         -0.00037485         -0.00064608
     6         -2.77161689         -0.83484124         -0.37081537
     9         -3.74782472          0.31529041         -2.36498971
     9         -2.85721168         -3.31760682         -0.73375912
     9         -4.14297917         -0.26568775          1.64533371
     9          0.01103616          2.47910360          0.52767081
     9          1.21746872         -0.38703457         -2.17153261
     8          0.55428627         -0.73380679          4.37313512
     1          1.41444713         -1.72235572          5.64790785

 Electric dipole moment (dipole orientation):
 (Debye = 10**-18 statcoulomb cm , SI units = C m)
                  (au)            (Debye)         (10**-30 SI)
   Tot        0.907714D+00      0.230718D+01      0.769592D+01
   x          0.000000D+00      0.000000D+00      0.000000D+00
   y          0.000000D+00      0.000000D+00      0.000000D+00
   z          0.907714D+00      0.230718D+01      0.769592D+01

 Dipole polarizability, Alpha (dipole orientation).
 (esu units = cm**3 , SI units = C**2 m**2 J**-1)
 Alpha(0;0):
               (au)            (10**-24 esu)      (10**-40 SI)
   iso        0.438584D+02      0.649914D+01      0.723127D+01
   aniso      0.105415D+02      0.156209D+01      0.173806D+01
   xx         0.430902D+02      0.638532D+01      0.710462D+01
   yx        -0.549143D+01     -0.813746D+00     -0.905415D+00
   yy         0.419346D+02      0.621406D+01      0.691408D+01
   zx         0.105001D+01      0.155596D+00      0.173124D+00
   zy        -0.118253D+00     -0.175232D-01     -0.194972D-01
   zz         0.465503D+02      0.689805D+01      0.767511D+01

 ----------------------------------------------------------------------
 Unable to Open any file for archive entry.
 1\1\GINC-SPARTAN-BM143\Freq\RM062X\def2TZVPP\C3H1F5O2\AKHALILOV\23-May
 -2025\0\\#P Geom=AllCheck Guess=TCheck SCRF=Check GenChk RM062X/def2TZ
 VPP Freq\\Gaussian input prepared by ASE\\0,1\C,1.5441693424,0.0003321
 593,0.0002593151\O,2.1887910994,-0.9973352448,0.0102843985\C,-0.000089
 7775,-0.0003998735,0.0000564745\C,-0.5940314394,0.3880927992,1.3716137
 454\F,-1.908544954,0.2379005985,1.3521387819\F,-0.0821089003,-0.395825
 207,2.3142048174\F,-0.3105716195,1.6489649878,1.6639668009\F,-0.466017
 3295,0.8631561314,-0.9147875166\F,-0.429956008,-1.2263693056,-0.297757
 4733\O,2.0106222228,1.2448177693,-0.0010817627\H,2.9772364485,1.208068
 4786,0.0132040031\\Version=ES64L-G16RevC.01\HF=-764.6682625\RMSD=1.735
 e-09\RMSF=1.451e-06\ZeroPoint=0.0527185\Thermal=0.0616492\ETot=-764.60
 66133\HTot=-764.6056691\GTot=-764.651329\Dipole=0.6575757,0.6253442,-0
 .0220099\DipoleDeriv=1.1527062,0.0062135,-0.1348395,0.0615942,1.805054
 7,0.003555,0.0438789,-0.0069225,0.2360116,-0.7784083,0.366943,0.047422
 4,0.1209531,-0.9655309,-0.022819,-0.0096577,0.0033733,-0.310584,0.7349
 331,0.0428427,0.1910975,0.1021629,1.1919304,-0.1108947,0.2694724,-0.11
 56209,0.9365216,1.6492834,0.0314436,0.0954576,-0.02085,1.563904,-0.056
 6528,-0.1122092,-0.0481675,1.3948365,-0.997841,-0.0523965,0.029282,-0.
 0378649,-0.2757483,-0.0179292,0.1340901,-0.0165436,-0.3356674,-0.38398
 39,0.1232837,-0.0997132,0.1329773,-0.4656483,0.2118785,-0.1283871,0.27
 45554,-0.6708574,-0.3225573,-0.0755438,0.0129955,-0.1035291,-0.8150626
 ,-0.13135,0.0100144,-0.2056838,-0.3681896,-0.3966218,0.1576646,-0.1390
 339,0.1193731,-0.4770648,0.2182426,-0.1581091,0.2855982,-0.5802142,-0.
 3655253,-0.2071819,-0.0333657,-0.1871828,-0.7239443,-0.1077249,-0.0554
 513,-0.1768095,-0.3206376,-0.6169719,-0.4867614,0.0366512,-0.2751231,-
 1.1419639,0.0162107,0.012826,0.005274,-0.3274749,0.3249868,0.0934924,-
 0.0059539,0.0874892,0.3040739,-0.0025161,-0.0064674,0.0009468,0.346255
 4\Polar=47.9906668,-0.766708,46.4890474,-1.2595767,0.0058383,37.095439
 3\PG=Unknown\NImag=0\\0.75495991,-0.20919365,0.96970640,-0.00163589,-0
 .00650915,0.22926413,-0.35163753,0.32786534,-0.00239350,0.34267771,0.3
 4315664,-0.59973466,0.00447313,-0.38453834,0.71353651,-0.00149363,0.00
 442836,-0.07499891,0.00399848,-0.00512140,0.03003902,-0.18107847,-0.01
 198425,0.02347653,-0.01759429,0.01521014,-0.00582245,0.55832452,-0.011
 11661,-0.04669435,-0.00758240,0.03905894,-0.01865110,-0.00036895,0.018
 16354,0.58815657,-0.01102085,-0.00803166,-0.09787080,0.00923559,-0.004
 74442,0.02371693,0.03472374,0.00903413,0.54785217,-0.01295309,0.010593
 61,0.03180515,-0.00230860,-0.00002138,-0.00449460,-0.09080858,0.018949
 22,0.07211708,0.60797111,0.00935474,0.02109214,0.00219372,-0.00312936,
 -0.00525101,0.00096975,0.00801824,-0.04723092,-0.03463355,-0.00325546,
 0.59830518,0.03009030,-0.00019166,0.01456933,-0.01329160,0.00637635,-0
 .00557346,0.03363899,-0.03664704,-0.16308559,-0.01713158,0.01200083,0.
 61947079,0.00831401,0.00150854,0.00637009,-0.00429088,0.00196562,-0.00
 101350,-0.05364536,-0.00632342,-0.00279803,-0.31969761,-0.01710328,0.0
 2962143,0.44932006,-0.00111149,-0.00237996,-0.00102644,0.00055046,0.00
 066923,0.00012758,0.00542143,0.00223162,-0.00139511,-0.02066641,-0.077
 87958,0.00029530,0.04327190,0.08757795,-0.00649710,-0.00191746,-0.0067
 3389,0.00384695,-0.00138996,0.00157614,0.03760673,0.00237586,0.0012230
 9,0.02122406,-0.00119939,-0.08594141,0.00842373,-0.00023047,0.07387351
 ,-0.00142027,0.00167700,-0.00274292,0.00113451,-0.00167743,0.00179735,
 0.00662225,0.00020485,0.00030849,-0.10059372,0.04013305,-0.05557186,-0
 .05366181,0.03190450,-0.04896607,0.13221763,0.00162773,-0.00461896,0.0
 0098831,-0.00126644,0.00251920,-0.00119105,0.00546601,-0.00581286,0.00
 561281,0.03964152,-0.14259173,0.10039544,0.02223789,0.00701487,0.00891
 307,-0.08037743,0.20850659,-0.00632113,0.00108397,-0.00210528,0.003941
 63,-0.00210020,0.00084164,-0.02055870,0.03638059,-0.02513526,-0.049642
 87,0.09176909,-0.23316360,-0.03353031,0.00880580,-0.00023351,0.1012815
 1,-0.15634596,0.26140759,-0.00048106,-0.00409417,-0.00273839,0.0002185
 8,0.00117726,0.00032535,0.00871140,0.00559447,-0.00077734,-0.08354527,
 -0.03473790,-0.00786618,-0.03640340,-0.06167079,-0.01682744,0.01333833
 ,0.01398483,0.00021859,0.09890788,-0.00548576,-0.00696505,-0.00175934,
 0.00163891,0.00228947,0.00004308,-0.00820458,-0.03329229,0.00091481,-0
 .03136138,-0.28928798,-0.08046799,-0.04495884,-0.02430935,-0.00790537,
 0.00844520,-0.07395151,0.02309598,0.07572678,0.41869064,-0.00447146,-0
 .00005854,-0.00160275,0.00188459,-0.00046894,0.00058578,-0.00747789,-0
 .03214342,0.00149752,-0.00556445,-0.07000976,-0.11019981,-0.01006922,-
 0.00563713,0.01256709,0.00031598,0.03962748,0.01357769,0.02024074,0.07
 594234,0.09250979,-0.00431009,0.02898999,-0.03693427,-0.01141099,0.002
 79289,0.00485547,-0.11297898,0.05020291,-0.07479587,0.00198838,0.00103
 123,0.00398923,0.00623017,-0.00118838,-0.00066376,0.00113221,-0.001110
 67,0.00250090,0.00053602,-0.00075307,0.00013488,0.10774644,0.00260227,
 -0.01317978,0.01435794,0.00546504,0.00147316,-0.00152315,0.05846078,-0
 .14540163,0.10911689,0.00405419,-0.01045185,0.00703485,-0.00204537,0.0
 0194054,-0.00041422,-0.00032366,0.00157048,0.00122793,-0.00051136,0.00
 642913,-0.00039647,-0.07694914,0.22209315,-0.00034275,0.01593291,-0.00
 659021,-0.00689120,0.00070737,0.00031979,-0.06760821,0.09230990,-0.204
 96325,-0.02680173,0.03819438,-0.03027257,0.00307841,-0.00238676,0.0021
 8370,0.00244764,0.00107246,-0.01541575,0.00150982,-0.00301266,0.000424
 57,0.09053021,-0.16017211,0.23910043,-0.01435363,-0.04245016,-0.014524
 97,0.00100987,-0.00230432,0.00172545,-0.10799376,-0.07596826,-0.030535
 20,0.00066788,0.00201097,0.00421786,0.00568938,0.00299083,-0.00006295,
 0.00067571,-0.00002594,0.00027892,0.00062871,0.00218561,0.00125453,0.0
 1410549,0.00775932,0.00601053,0.11161245,-0.00394232,-0.02935030,-0.00
 594131,0.00046024,0.00885593,0.00199479,-0.08685630,-0.27454480,-0.080
 73019,-0.01584795,-0.03827106,-0.00395625,0.00245405,0.00396480,0.0002
 6887,0.00034194,0.00571946,-0.00425099,0.00239621,-0.00431164,-0.00796
 189,-0.00110310,-0.06973864,0.02102388,0.10958960,0.39662634,0.0003901
 8,-0.00657451,0.00582377,-0.00014802,0.00163283,-0.00034242,-0.0240892
 8,-0.06635879,-0.09886092,-0.01808357,-0.03612359,-0.00306114,0.000390
 41,0.00100062,0.00052456,0.00101971,0.00059163,0.00008510,0.00300623,-
 0.00794893,-0.00875473,0.00819117,0.03356179,0.01370783,0.03067929,0.0
 8001170,0.09071014,-0.17178590,-0.09073310,-0.00037720,0.04091166,0.01
 542733,0.00018456,-0.01057329,-0.03662419,0.00366538,0.00032345,-0.002
 25136,-0.00791005,-0.00227119,0.00045924,0.00197770,0.00034638,-0.0001
 7088,0.00195751,-0.00217069,0.00260133,0.00374585,-0.00402377,0.001121
 13,-0.00215490,-0.01212532,-0.00731407,-0.00153065,0.66142695,-0.06771
 167,-0.28829145,0.00131714,0.00631504,-0.10775664,0.00059162,-0.003099
 17,-0.01306083,0.00426544,-0.00127960,-0.00833315,-0.00478321,-0.00122
 410,0.00115648,0.00147835,-0.00052379,0.00171470,0.00036646,0.00180515
 ,0.00455527,0.00128251,-0.00276844,0.00461919,-0.00372247,-0.00197225,
 0.00215373,0.00047010,0.06209616,0.44912073,0.00057866,0.00119942,-0.0
 6415195,-0.00021425,0.00071009,0.02964981,-0.00248404,0.00188497,0.009
 90545,-0.00303952,-0.00278894,-0.00298473,-0.00006246,0.00042448,0.000
 83712,0.00032475,0.00024240,0.00052325,0.00263085,0.00108213,-0.000288
 41,0.00153128,-0.00193234,0.00160177,0.00037433,-0.00045571,0.00031400
 ,0.00789936,-0.00091172,0.04074381,-0.02525387,-0.01217915,-0.00030464
 ,0.00128995,0.00881157,-0.00006249,0.00101455,-0.00214144,-0.00012299,
 -0.00104394,-0.00007085,0.00021346,0.00041663,0.00003873,-0.00006185,0
 .00020878,-0.00000661,-0.00012604,0.00025950,0.00016580,0.00000643,0.0
 0098512,0.00036680,0.00022219,0.00008321,-0.00017831,0.00017453,-0.500
 05829,0.00836266,-0.00753898,0.52209835,-0.05817989,0.00041598,-0.0005
 1160,0.00758018,0.00204990,0.00004939,-0.00059584,-0.00569941,0.000590
 85,-0.00080636,-0.00010004,-0.00005661,0.00021701,0.00001339,0.0000207
 0,0.00019578,-0.00007024,-0.00003268,0.00032952,0.00015329,-0.00017618
 ,0.00085579,0.00064625,0.00005310,-0.00181539,-0.00110383,-0.00026285,
 0.05538841,-0.04587804,0.00054523,-0.00316921,0.04957273,0.00072367,0.
 00063831,0.00439656,0.00003131,-0.00007484,-0.00581432,-0.00140542,0.0
 0111516,0.00572066,-0.00038796,-0.00037255,0.00024219,-0.00041055,0.00
 002213,0.00012360,-0.00021458,0.00009343,-0.00038186,0.00027778,0.0000
 1594,-0.00031674,0.00066075,-0.00086111,-0.00009631,0.00058220,-0.0000
 0290,-0.00014618,-0.00745756,-0.00035422,-0.01615011,0.00760037,-0.000
 21935,0.01242252\\0.00000037,0.00000070,0.00000122,0.00000120,0.000000
 77,0.00000133,0.00000082,0.00000040,-0.00000075,-0.00000111,-0.0000008
 5,-0.00000126,-0.00000109,-0.00000142,-0.00000322,-0.00000207,-0.00000
 132,-0.00000112,-0.00000178,-0.00000102,-0.00000021,0.00000151,0.00000
 061,-0.00000067,0.00000151,0.00000024,-0.00000192,0.00000038,0.0000008
 1,0.00000275,0.00000028,0.00000108,0.00000385\\\@
 The archive entry for this job was punched.


 Statistics are no substitute for judgment.
                            -- Henry Clay
 Job cpu time:       0 days  0 hours 27 minutes 13.8 seconds.
 Elapsed time:       0 days  0 hours  3 minutes 27.8 seconds.
 File lengths (MBytes):  RWF=    116 Int=      0 D2E=      0 Chk=      9 Scr=      1
 Normal termination of Gaussian 16 at Fri May 23 23:30:03 2025.
done
