 Entering Gaussian System, Link 0=g16
 Initial command:
 /apps/easybuild-2022/easybuild/software/Compiler/NVHPC/22.11-CUDA-11.7.0/Gaussian/g16c01-CUDA-11.7.0/g16/l1.exe "/tmp/Gau-143057.inp" -scrdir="/tmp/"
 Entering Link 1 = /apps/easybuild-2022/easybuild/software/Compiler/NVHPC/22.11-CUDA-11.7.0/Gaussian/g16c01-CUDA-11.7.0/g16/l1.exe PID=    143058.
  
 Copyright (c) 1988-2019, Gaussian, Inc.  All Rights Reserved.
  
 This is part of the Gaussian(R) 16 program.  It is based on
 the Gaussian(R) 09 system (copyright 2009, Gaussian, Inc.),
 the Gaussian(R) 03 system (copyright 2003, Gaussian, Inc.),
 the Gaussian(R) 98 system (copyright 1998, Gaussian, Inc.),
 the Gaussian(R) 94 system (copyright 1995, Gaussian, Inc.),
 the Gaussian 92(TM) system (copyright 1992, Gaussian, Inc.),
 the Gaussian 90(TM) system (copyright 1990, Gaussian, Inc.),
 the Gaussian 88(TM) system (copyright 1988, Gaussian, Inc.),
 the Gaussian 86(TM) system (copyright 1986, Carnegie Mellon
 University), and the Gaussian 82(TM) system (copyright 1983,
 Carnegie Mellon University). Gaussian is a federally registered
 trademark of Gaussian, Inc.
  
 This software contains proprietary and confidential information,
 including trade secrets, belonging to Gaussian, Inc.
  
 This software is provided under written license and may be
 used, copied, transmitted, or stored only in accord with that
 written license.
  
 The following legend is applicable only to US Government
 contracts under FAR:
  
                    RESTRICTED RIGHTS LEGEND
  
 Use, reproduction and disclosure by the US Government is
 subject to restrictions as set forth in subparagraphs (a)
 and (c) of the Commercial Computer Software - Restricted
 Rights clause in FAR 52.227-19.
  
 Gaussian, Inc.
 340 Quinnipiac St., Bldg. 40, Wallingford CT 06492
  
  
 ---------------------------------------------------------------
 Warning -- This program may not be used in any manner that
 competes with the business of Gaussian, Inc. or will provide
 assistance to any competitor of Gaussian, Inc.  The licensee
 of this program is prohibited from giving any competitor of
 Gaussian, Inc. access to this program.  By using this program,
 the user acknowledges that Gaussian, Inc. is engaged in the
 business of creating and licensing software in the field of
 computational chemistry and represents and warrants to the
 licensee that it is not a competitor of Gaussian, Inc. and that
 it will not use this program in any manner prohibited above.
 ---------------------------------------------------------------
  

 Cite this work as:
 Gaussian 16, Revision C.01,
 M. J. Frisch, G. W. Trucks, H. B. Schlegel, G. E. Scuseria, 
 M. A. Robb, J. R. Cheeseman, G. Scalmani, V. Barone, 
 G. A. Petersson, H. Nakatsuji, X. Li, M. Caricato, A. V. Marenich, 
 J. Bloino, B. G. Janesko, R. Gomperts, B. Mennucci, H. P. Hratchian, 
 J. V. Ortiz, A. F. Izmaylov, J. L. Sonnenberg, D. Williams-Young, 
 F. Ding, F. Lipparini, F. Egidi, J. Goings, B. Peng, A. Petrone, 
 T. Henderson, D. Ranasinghe, V. G. Zakrzewski, J. Gao, N. Rega, 
 G. Zheng, W. Liang, M. Hada, M. Ehara, K. Toyota, R. Fukuda, 
 J. Hasegawa, M. Ishida, T. Nakajima, Y. Honda, O. Kitao, H. Nakai, 
 T. Vreven, K. Throssell, J. A. Montgomery, Jr., J. E. Peralta, 
 F. Ogliaro, M. J. Bearpark, J. J. Heyd, E. N. Brothers, K. N. Kudin, 
 V. N. Staroverov, T. A. Keith, R. Kobayashi, J. Normand, 
 K. Raghavachari, A. P. Rendell, J. C. Burant, S. S. Iyengar, 
 J. Tomasi, M. Cossi, J. M. Millam, M. Klene, C. Adamo, R. Cammi, 
 J. W. Ochterski, R. L. Martin, K. Morokuma, O. Farkas, 
 J. B. Foresman, and D. J. Fox, Gaussian, Inc., Wallingford CT, 2019.
 
 ******************************************
 Gaussian 16:  ES64L-G16RevC.01  3-Jul-2019
                24-May-2025 
 ******************************************
 %mem=28GB
 %nprocshared=8
 Will use up to    8 processors via shared memory.
 ------------------------------------------
 #P am1 Symm(None) scf(xqc) pop(None) force
 ------------------------------------------
 1/10=7,30=1,38=1/1,3;
 2/12=2,15=3,17=6,18=5,40=1/2;
 3/5=2,25=1,41=700000,71=1/1,2,3;
 4/35=1/1;
 5/5=2,8=3,13=1,35=1,38=5/2,8;
 7/29=1,30=1/1,2,3,16;
 1/10=7,30=1/3;
 99//99;
 Leave Link    1 at Sat May 24 07:33:10 2025, MaxMem=  3758096384 cpu:               0.0 elap:               0.0
 (Enter /apps/easybuild-2022/easybuild/software/Compiler/NVHPC/22.11-CUDA-11.7.0/Gaussian/g16c01-CUDA-11.7.0/g16/l101.exe)
 ------------------------------
 Gaussian input prepared by ASE
 ------------------------------
 Symbolic Z-matrix:
 Charge =  0 Multiplicity = 1
 C                     2.16284   1.09274  -0.09778 
 O                     1.14143   1.71117   0.27159 
 C                     1.98759  -0.34043  -0.04622 
 C                    -0.22774   0.4753    0.0198 
 F                    -0.59306  -0.7686   -0.15558 
 F                    -0.70652   0.90314   1.1699 
 F                    -0.56676   1.18184  -1.01859 
 F                     2.25562  -1.10811  -1.11389 
 F                     2.46019  -1.00289   1.03675 
 O                     3.26246   1.73457  -0.38631 
 H                     3.15238   2.6917   -0.29368 
 
 ITRead=  0  0  0  0  0  0  0  0  0  0  0
 MicOpt= -1 -1 -1 -1 -1 -1 -1 -1 -1 -1 -1
 NAtoms=     11 NQM=       11 NQMF=       0 NMMI=      0 NMMIF=      0
                NMic=       0 NMicF=      0.
                    Isotopes and Nuclear Properties:
 (Nuclear quadrupole moments (NQMom) in fm**2, nuclear magnetic moments (NMagM)
  in nuclear magnetons)

  Atom         1           2           3           4           5           6           7           8           9          10
 IAtWgt=          12          16          12          12          19          19          19          19          19          16
 AtmWgt=  12.0000000  15.9949146  12.0000000  12.0000000  18.9984032  18.9984032  18.9984032  18.9984032  18.9984032  15.9949146
 NucSpn=           0           0           0           0           1           1           1           1           1           0
 AtZEff=  -0.0000000  -0.0000000  -0.0000000  -0.0000000  -0.0000000  -0.0000000  -0.0000000  -0.0000000  -0.0000000  -0.0000000
 NQMom=    0.0000000   0.0000000   0.0000000   0.0000000   0.0000000   0.0000000   0.0000000   0.0000000   0.0000000   0.0000000
 NMagM=    0.0000000   0.0000000   0.0000000   0.0000000   2.6288670   2.6288670   2.6288670   2.6288670   2.6288670   0.0000000
 AtZNuc=   6.0000000   8.0000000   6.0000000   6.0000000   9.0000000   9.0000000   9.0000000   9.0000000   9.0000000   8.0000000

  Atom        11
 IAtWgt=           1
 AtmWgt=   1.0078250
 NucSpn=           1
 AtZEff=  -0.0000000
 NQMom=    0.0000000
 NMagM=    2.7928460
 AtZNuc=   1.0000000
 Leave Link  101 at Sat May 24 07:33:10 2025, MaxMem=  3758096384 cpu:               0.1 elap:               0.1
 (Enter /apps/easybuild-2022/easybuild/software/Compiler/NVHPC/22.11-CUDA-11.7.0/Gaussian/g16c01-CUDA-11.7.0/g16/l103.exe)

 GradGradGradGradGradGradGradGradGradGradGradGradGradGradGradGradGradGrad
 Berny optimization.
 Initialization pass.
 Trust Radius=3.00D-01 FncErr=1.00D-07 GrdErr=1.00D-07 EigMax=2.50D+02 EigMin=1.00D-04
 Number of steps in this run=      2 maximum allowed number of steps=      2.
 GradGradGradGradGradGradGradGradGradGradGradGradGradGradGradGradGradGrad

 Leave Link  103 at Sat May 24 07:33:10 2025, MaxMem=  3758096384 cpu:               0.0 elap:               0.0
 (Enter /apps/easybuild-2022/easybuild/software/Compiler/NVHPC/22.11-CUDA-11.7.0/Gaussian/g16c01-CUDA-11.7.0/g16/l202.exe)
                          Input orientation:                          
 ---------------------------------------------------------------------
 Center     Atomic      Atomic             Coordinates (Angstroms)
 Number     Number       Type             X           Y           Z
 ---------------------------------------------------------------------
      1          6           0        2.162844    1.092736   -0.097785
      2          8           0        1.141429    1.711169    0.271588
      3          6           0        1.987590   -0.340428   -0.046216
      4          6           0       -0.227740    0.475301    0.019796
      5          9           0       -0.593061   -0.768597   -0.155585
      6          9           0       -0.706522    0.903138    1.169899
      7          9           0       -0.566759    1.181837   -1.018592
      8          9           0        2.255620   -1.108110   -1.113894
      9          9           0        2.460189   -1.002886    1.036746
     10          8           0        3.262459    1.734575   -0.386305
     11          1           0        3.152376    2.691704   -0.293677
 ---------------------------------------------------------------------
                    Distance matrix (angstroms):
                    1          2          3          4          5
     1  C    0.000000
     2  O    1.249874   0.000000
     3  C    1.444761   2.241883   0.000000
     4  C    2.471830   1.861556   2.361664   0.000000
     5  F    3.326096   3.056170   2.618215   1.308243   0.000000
     6  F    3.142647   2.207895   3.206810   1.317199   2.136464
     7  F    2.882110   2.205145   3.128499   1.300914   2.132995
     8  F    2.425862   3.333064   1.342055   3.155870   3.024666
     9  F    2.401500   3.112987   1.354623   3.231746   3.286164
    10  O    1.305509   2.220842   2.458982   3.732582   4.602622
    11  H    1.890567   2.307570   3.257574   4.054120   5.101083
                    6          7          8          9         10
     6  F    0.000000
     7  F    2.210588   0.000000
     8  F    4.246777   3.635762   0.000000
     9  F    3.698474   4.261436   2.162908   0.000000
    10  O    4.343485   3.920231   3.102252   3.187852   0.000000
    11  H    4.498012   4.078868   3.989425   3.987372   0.967881
                   11
    11  H    0.000000
 Symmetry turned off by external request.
 Stoichiometry    C3HF5O2
 Rotational constants (GHZ):           1.7680273           1.1237278           0.9186510
 Leave Link  202 at Sat May 24 07:33:10 2025, MaxMem=  3758096384 cpu:               0.0 elap:               0.0
 (Enter /apps/easybuild-2022/easybuild/software/Compiler/NVHPC/22.11-CUDA-11.7.0/Gaussian/g16c01-CUDA-11.7.0/g16/l301.exe)
 Standard basis: VSTO-6G (5D, 7F)
 Ernie: Thresh=  0.10000D-02 Tol=  0.10000D-05 Strict=F.
  NNHCO=     0 NNPyr=     0 NCTC=     0               EPep=         0.000000000
    EC=       309.431919326  ECS=         2.436297875   EG=         0.940014590
   EHC=         0.000000000  EAt=      -125.590658467  AtH=         1.240363743
 EPDDG=         0.000000000  ECC=       312.808231790 EAtT=       126.831022209
    41 basis functions,   246 primitive gaussians,    41 cartesian basis functions
    30 alpha electrons       30 beta electrons
       nuclear repulsion energy       442.9196806314 Hartrees.
 IExCor=    0 DFT=F Ex=HF Corr=None ExCW=0 ScaHFX=  1.000000
 ScaDFX=  1.000000  1.000000  1.000000  1.000000 ScalE2=  1.000000  1.000000
 IRadAn=      5 IRanWt=     -1 IRanGd=            0 ICorTp=0 IEmpDi=  4
 Integral buffers will be    131072 words long.
 Regular integral format.
 Two-electron integral symmetry is turned off.
 Leave Link  301 at Sat May 24 07:33:10 2025, MaxMem=  3758096384 cpu:               0.0 elap:               0.0
 (Enter /apps/easybuild-2022/easybuild/software/Compiler/NVHPC/22.11-CUDA-11.7.0/Gaussian/g16c01-CUDA-11.7.0/g16/l302.exe)
 Do NDO integrals.
 NPDir=0 NMtPBC=     1 NCelOv=     1 NCel=       1 NClECP=     1 NCelD=      1
         NCelK=      1 NCelE2=     1 NClLst=     1 CellRange=     0.0.
 One-electron integrals computed using PRISM.
 NBasis=    41 RedAO= F EigKep=  0.00D+00  NBF=    41
 NBsUse=    41 1.00D-04 EigRej=  0.00D+00 NBFU=    41
 Leave Link  302 at Sat May 24 07:33:10 2025, MaxMem=  3758096384 cpu:               0.1 elap:               0.0
 (Enter /apps/easybuild-2022/easybuild/software/Compiler/NVHPC/22.11-CUDA-11.7.0/Gaussian/g16c01-CUDA-11.7.0/g16/l303.exe)
 DipDrv:  MaxL=1.
 Leave Link  303 at Sat May 24 07:33:10 2025, MaxMem=  3758096384 cpu:               0.0 elap:               0.0
 (Enter /apps/easybuild-2022/easybuild/software/Compiler/NVHPC/22.11-CUDA-11.7.0/Gaussian/g16c01-CUDA-11.7.0/g16/l401.exe)
 Simple Huckel Guess.
 JPrj=0 DoOrth=F DoCkMO=F.
 Leave Link  401 at Sat May 24 07:33:10 2025, MaxMem=  3758096384 cpu:               0.0 elap:               0.0
 (Enter /apps/easybuild-2022/easybuild/software/Compiler/NVHPC/22.11-CUDA-11.7.0/Gaussian/g16c01-CUDA-11.7.0/g16/l502.exe)
 Keep J ints in memory in canonical form, NReq=864717.
 FoFCou: FMM=F IPFlag=           0 FMFlag=           0 FMFlg1=           0
         NFxFlg=           0 DoJE=F BraDBF=F KetDBF=F FulRan=T
         wScrn=  0.000000 ICntrl=       600 IOpCl=  2 I1Cent=           0 NGrid=           0
         NMat0=    1 NMatS0=    101 NMatT0=    0 NMatD0=    1 NMtDS0=    0 NMtDT0=    0
 Symmetry not used in FoFCou.
 Two-electron integral symmetry not used.
 Closed shell SCF:
 Using DIIS extrapolation, IDIIS=  1040.
 Overlap will be assumed to be unity.
 NGot=  3758096384 LenX=  3758027724 LenY=  3758025602
 Requested convergence on RMS density matrix=1.00D-08 within  32 cycles.
 Requested convergence on MAX density matrix=1.00D-06.
 Requested convergence on             energy=1.00D-06.
 No special actions if energy rises.

 Cycle   1  Pass 1  IDiag  1:
 E=  3.93120012592732    
 DIIS: error= 9.22D-02 at cycle   1 NSaved=   1.
 NSaved= 1 IEnMin= 1 EnMin=  3.93120012592732     IErMin= 1 ErrMin= 9.22D-02
 ErrMax= 9.22D-02  0.00D+00 EMaxC= 1.00D-01 BMatC= 3.87D-01 BMatP= 3.87D-01
 IDIUse=3 WtCom= 7.84D-02 WtEn= 9.22D-01
 Coeff-Com:  0.100D+01
 Coeff-En:   0.100D+01
 Coeff:      0.100D+01
 GapD=    2.000 DampG=2.000 DampE=0.500 DampFc=1.0000 IDamp=-1.
 RMSDP=2.11D-02 MaxDP=1.77D-01              OVMax= 0.00D+00

 Cycle   2  Pass 1  IDiag  1:
 E=  2.97805692618073     Delta-E=       -0.953143199747 Rises=F Damp=F
 DIIS: error= 2.12D-02 at cycle   2 NSaved=   2.
 NSaved= 2 IEnMin= 2 EnMin=  2.97805692618073     IErMin= 2 ErrMin= 2.12D-02
 ErrMax= 2.12D-02  0.00D+00 EMaxC= 1.00D-01 BMatC= 3.36D-02 BMatP= 3.87D-01
 IDIUse=3 WtCom= 7.88D-01 WtEn= 2.12D-01
 Coeff-Com: -0.362D+00 0.136D+01
 Coeff-En:   0.000D+00 0.100D+01
 Coeff:     -0.286D+00 0.129D+01
 RMSDP=8.61D-03 MaxDP=6.07D-02 DE=-9.53D-01 OVMax= 0.00D+00

 Cycle   3  Pass 1  IDiag  1:
 E=  2.87999707948467     Delta-E=       -0.098059846696 Rises=F Damp=F
 DIIS: error= 4.92D-03 at cycle   3 NSaved=   3.
 NSaved= 3 IEnMin= 3 EnMin=  2.87999707948467     IErMin= 3 ErrMin= 4.92D-03
 ErrMax= 4.92D-03  0.00D+00 EMaxC= 1.00D-01 BMatC= 1.10D-03 BMatP= 3.36D-02
 IDIUse=3 WtCom= 9.51D-01 WtEn= 4.92D-02
 Coeff-Com:  0.130D+00-0.532D+00 0.140D+01
 Coeff-En:   0.000D+00 0.000D+00 0.100D+01
 Coeff:      0.124D+00-0.506D+00 0.138D+01
 RMSDP=2.53D-03 MaxDP=2.69D-02 DE=-9.81D-02 OVMax= 0.00D+00

 Cycle   4  Pass 1  IDiag  3:
 E=  2.87386199242621     Delta-E=       -0.006135087058 Rises=F Damp=F
 DIIS: error= 1.35D-03 at cycle   4 NSaved=   4.
 NSaved= 4 IEnMin= 4 EnMin=  2.87386199242621     IErMin= 4 ErrMin= 1.35D-03
 ErrMax= 1.35D-03  0.00D+00 EMaxC= 1.00D-01 BMatC= 1.28D-04 BMatP= 1.10D-03
 IDIUse=3 WtCom= 9.87D-01 WtEn= 1.35D-02
 Coeff-Com: -0.863D-03-0.132D-01-0.316D+00 0.133D+01
 Coeff-En:   0.000D+00 0.000D+00 0.000D+00 0.100D+01
 Coeff:     -0.852D-03-0.130D-01-0.312D+00 0.133D+01
 Gap=     0.273 Goal=   None    Shift=    0.000
 RMSDP=1.26D-03 MaxDP=1.32D-02 DE=-6.14D-03 OVMax= 1.91D-02

 Cycle   5  Pass 1  IDiag  3:
 E=  2.87284833563353     Delta-E=       -0.001013656793 Rises=F Damp=F
 DIIS: error= 4.89D-04 at cycle   5 NSaved=   5.
 NSaved= 5 IEnMin= 5 EnMin=  2.87284833563353     IErMin= 5 ErrMin= 4.89D-04
 ErrMax= 4.89D-04  0.00D+00 EMaxC= 1.00D-01 BMatC= 1.54D-05 BMatP= 1.28D-04
 IDIUse=3 WtCom= 9.95D-01 WtEn= 4.89D-03
 Coeff-Com: -0.750D-02 0.420D-01 0.741D-01-0.711D+00 0.160D+01
 Coeff-En:   0.000D+00 0.000D+00 0.000D+00 0.000D+00 0.100D+01
 Coeff:     -0.746D-02 0.418D-01 0.738D-01-0.707D+00 0.160D+01
 Gap=     0.273 Goal=   None    Shift=    0.000
 RMSDP=6.25D-04 MaxDP=6.66D-03 DE=-1.01D-03 OVMax= 1.29D-02

 Cycle   6  Pass 1  IDiag  3:
 E=  2.87265059745329     Delta-E=       -0.000197738180 Rises=F Damp=F
 DIIS: error= 2.56D-04 at cycle   6 NSaved=   6.
 NSaved= 6 IEnMin= 6 EnMin=  2.87265059745329     IErMin= 6 ErrMin= 2.56D-04
 ErrMax= 2.56D-04  0.00D+00 EMaxC= 1.00D-01 BMatC= 3.60D-06 BMatP= 1.54D-05
 IDIUse=3 WtCom= 9.97D-01 WtEn= 2.56D-03
 Coeff-Com:  0.128D-02-0.980D-02-0.306D-01 0.279D+00-0.112D+01 0.188D+01
 Coeff-En:   0.000D+00 0.000D+00 0.000D+00 0.000D+00 0.000D+00 0.100D+01
 Coeff:      0.128D-02-0.978D-02-0.305D-01 0.278D+00-0.112D+01 0.188D+01
 Gap=     0.274 Goal=   None    Shift=    0.000
 RMSDP=4.42D-04 MaxDP=4.61D-03 DE=-1.98D-04 OVMax= 1.00D-02

 Cycle   7  Pass 1  IDiag  3:
 E=  2.87259204063258     Delta-E=       -0.000058556821 Rises=F Damp=F
 DIIS: error= 1.07D-04 at cycle   7 NSaved=   7.
 NSaved= 7 IEnMin= 7 EnMin=  2.87259204063258     IErMin= 7 ErrMin= 1.07D-04
 ErrMax= 1.07D-04  0.00D+00 EMaxC= 1.00D-01 BMatC= 4.24D-07 BMatP= 3.60D-06
 IDIUse=3 WtCom= 9.99D-01 WtEn= 1.07D-03
 Coeff-Com:  0.934D-03-0.448D-02-0.263D-02 0.457D-01 0.147D-01-0.453D+00
 Coeff-Com:  0.140D+01
 Coeff-En:   0.000D+00 0.000D+00 0.000D+00 0.000D+00 0.000D+00 0.000D+00
 Coeff-En:   0.100D+01
 Coeff:      0.933D-03-0.448D-02-0.263D-02 0.457D-01 0.146D-01-0.452D+00
 Coeff:      0.140D+01
 Gap=     0.273 Goal=   None    Shift=    0.000
 RMSDP=1.42D-04 MaxDP=1.65D-03 DE=-5.86D-05 OVMax= 3.48D-03

 Cycle   8  Pass 1  IDiag  3:
 E=  2.87258585166273     Delta-E=       -0.000006188970 Rises=F Damp=F
 DIIS: error= 4.23D-05 at cycle   8 NSaved=   8.
 NSaved= 8 IEnMin= 8 EnMin=  2.87258585166273     IErMin= 8 ErrMin= 4.23D-05
 ErrMax= 4.23D-05  0.00D+00 EMaxC= 1.00D-01 BMatC= 6.68D-08 BMatP= 4.24D-07
 IDIUse=1 WtCom= 1.00D+00 WtEn= 0.00D+00
 Coeff-Com: -0.429D-03 0.248D-02 0.753D-02-0.595D-01 0.137D+00-0.547D-01
 Coeff-Com: -0.556D+00 0.152D+01
 Coeff:     -0.429D-03 0.248D-02 0.753D-02-0.595D-01 0.137D+00-0.547D-01
 Coeff:     -0.556D+00 0.152D+01
 Gap=     0.273 Goal=   None    Shift=    0.000
 RMSDP=5.03D-05 MaxDP=6.36D-04 DE=-6.19D-06 OVMax= 1.27D-03

 Cycle   9  Pass 1  IDiag  3:
 E=  2.87258495732584     Delta-E=       -0.000000894337 Rises=F Damp=F
 DIIS: error= 1.77D-05 at cycle   9 NSaved=   9.
 NSaved= 9 IEnMin= 9 EnMin=  2.87258495732584     IErMin= 9 ErrMin= 1.77D-05
 ErrMax= 1.77D-05  0.00D+00 EMaxC= 1.00D-01 BMatC= 1.09D-08 BMatP= 6.68D-08
 IDIUse=1 WtCom= 1.00D+00 WtEn= 0.00D+00
 Coeff-Com:  0.836D-04-0.575D-03-0.415D-02 0.256D-01-0.642D-01 0.591D-01
 Coeff-Com:  0.137D+00-0.831D+00 0.168D+01
 Coeff:      0.836D-04-0.575D-03-0.415D-02 0.256D-01-0.642D-01 0.591D-01
 Coeff:      0.137D+00-0.831D+00 0.168D+01
 Gap=     0.273 Goal=   None    Shift=    0.000
 RMSDP=2.25D-05 MaxDP=2.88D-04 DE=-8.94D-07 OVMax= 5.41D-04

 Cycle  10  Pass 1  IDiag  3:
 E=  2.87258480256065     Delta-E=       -0.000000154765 Rises=F Damp=F
 DIIS: error= 4.84D-06 at cycle  10 NSaved=  10.
 NSaved=10 IEnMin=10 EnMin=  2.87258480256065     IErMin=10 ErrMin= 4.84D-06
 ErrMax= 4.84D-06  0.00D+00 EMaxC= 1.00D-01 BMatC= 1.26D-09 BMatP= 1.09D-08
 IDIUse=1 WtCom= 1.00D+00 WtEn= 0.00D+00
 Coeff-Com: -0.280D-05 0.770D-04 0.170D-02-0.884D-02 0.216D-01-0.211D-01
 Coeff-Com: -0.362D-01 0.282D+00-0.840D+00 0.160D+01
 Coeff:     -0.280D-05 0.770D-04 0.170D-02-0.884D-02 0.216D-01-0.211D-01
 Coeff:     -0.362D-01 0.282D+00-0.840D+00 0.160D+01
 Gap=     0.273 Goal=   None    Shift=    0.000
 RMSDP=7.13D-06 MaxDP=8.74D-05 DE=-1.55D-07 OVMax= 1.55D-04

 Cycle  11  Pass 1  IDiag  3:
 E=  2.87258478622516     Delta-E=       -0.000000016335 Rises=F Damp=F
 DIIS: error= 1.58D-06 at cycle  11 NSaved=  11.
 NSaved=11 IEnMin=11 EnMin=  2.87258478622516     IErMin=11 ErrMin= 1.58D-06
 ErrMax= 1.58D-06  0.00D+00 EMaxC= 1.00D-01 BMatC= 1.51D-10 BMatP= 1.26D-09
 IDIUse=1 WtCom= 1.00D+00 WtEn= 0.00D+00
 Coeff-Com:  0.943D-05-0.574D-04-0.462D-03 0.264D-02-0.716D-02 0.842D-02
 Coeff-Com:  0.684D-02-0.769D-01 0.275D+00-0.812D+00 0.160D+01
 Coeff:      0.943D-05-0.574D-04-0.462D-03 0.264D-02-0.716D-02 0.842D-02
 Coeff:      0.684D-02-0.769D-01 0.275D+00-0.812D+00 0.160D+01
 Gap=     0.273 Goal=   None    Shift=    0.000
 RMSDP=2.18D-06 MaxDP=2.27D-05 DE=-1.63D-08 OVMax= 3.87D-05

 Cycle  12  Pass 1  IDiag  3:
 E=  2.87258478448871     Delta-E=       -0.000000001736 Rises=F Damp=F
 DIIS: error= 6.95D-07 at cycle  12 NSaved=  12.
 NSaved=12 IEnMin=12 EnMin=  2.87258478448871     IErMin=12 ErrMin= 6.95D-07
 ErrMax= 6.95D-07  0.00D+00 EMaxC= 1.00D-01 BMatC= 1.62D-11 BMatP= 1.51D-10
 IDIUse=1 WtCom= 1.00D+00 WtEn= 0.00D+00
 Coeff-Com: -0.251D-05 0.174D-04 0.170D-03-0.911D-03 0.238D-02-0.271D-02
 Coeff-Com: -0.227D-02 0.236D-01-0.837D-01 0.275D+00-0.821D+00 0.161D+01
 Coeff:     -0.251D-05 0.174D-04 0.170D-03-0.911D-03 0.238D-02-0.271D-02
 Coeff:     -0.227D-02 0.236D-01-0.837D-01 0.275D+00-0.821D+00 0.161D+01
 Gap=     0.273 Goal=   None    Shift=    0.000
 RMSDP=6.99D-07 MaxDP=5.55D-06 DE=-1.74D-09 OVMax= 9.96D-06

 Cycle  13  Pass 1  IDiag  3:
 E=  2.87258478431056     Delta-E=       -0.000000000178 Rises=F Damp=F
 DIIS: error= 2.53D-07 at cycle  13 NSaved=  13.
 NSaved=13 IEnMin=13 EnMin=  2.87258478431056     IErMin=13 ErrMin= 2.53D-07
 ErrMax= 2.53D-07  0.00D+00 EMaxC= 1.00D-01 BMatC= 1.61D-12 BMatP= 1.62D-11
 IDIUse=1 WtCom= 1.00D+00 WtEn= 0.00D+00
 Coeff-Com:  0.201D-06-0.878D-06-0.354D-04 0.152D-03-0.402D-03 0.434D-03
 Coeff-Com:  0.823D-03-0.706D-02 0.260D-01-0.904D-01 0.314D+00-0.864D+00
 Coeff-Com:  0.162D+01
 Coeff:      0.201D-06-0.878D-06-0.354D-04 0.152D-03-0.402D-03 0.434D-03
 Coeff:      0.823D-03-0.706D-02 0.260D-01-0.904D-01 0.314D+00-0.864D+00
 Coeff:      0.162D+01
 Gap=     0.273 Goal=   None    Shift=    0.000
 RMSDP=2.16D-07 MaxDP=1.89D-06 DE=-1.78D-10 OVMax= 3.98D-06

 Cycle  14  Pass 1  IDiag  3:
 E=  2.87258478428987     Delta-E=       -0.000000000021 Rises=F Damp=F
 DIIS: error= 7.96D-08 at cycle  14 NSaved=  14.
 NSaved=14 IEnMin=14 EnMin=  2.87258478428987     IErMin=14 ErrMin= 7.96D-08
 ErrMax= 7.96D-08  0.00D+00 EMaxC= 1.00D-01 BMatC= 2.43D-13 BMatP= 1.61D-12
 IDIUse=1 WtCom= 1.00D+00 WtEn= 0.00D+00
 Coeff-Com: -0.231D-06 0.157D-05 0.221D-04-0.107D-03 0.311D-03-0.437D-03
 Coeff-Com:  0.652D-05 0.257D-02-0.106D-01 0.389D-01-0.144D+00 0.447D+00
 Coeff-Com: -0.116D+01 0.183D+01
 Coeff:     -0.231D-06 0.157D-05 0.221D-04-0.107D-03 0.311D-03-0.437D-03
 Coeff:      0.652D-05 0.257D-02-0.106D-01 0.389D-01-0.144D+00 0.447D+00
 Coeff:     -0.116D+01 0.183D+01
 Gap=     0.273 Goal=   None    Shift=    0.000
 RMSDP=9.82D-08 MaxDP=8.04D-07 DE=-2.07D-11 OVMax= 2.18D-06

 Cycle  15  Pass 1  IDiag  3:
 E=  2.87258478428436     Delta-E=       -0.000000000006 Rises=F Damp=F
 DIIS: error= 2.01D-08 at cycle  15 NSaved=  15.
 NSaved=15 IEnMin=15 EnMin=  2.87258478428436     IErMin=15 ErrMin= 2.01D-08
 ErrMax= 2.01D-08  0.00D+00 EMaxC= 1.00D-01 BMatC= 2.42D-14 BMatP= 2.43D-13
 IDIUse=1 WtCom= 1.00D+00 WtEn= 0.00D+00
 Coeff-Com:  0.349D-07-0.467D-07-0.347D-05 0.126D-04-0.377D-04 0.508D-04
 Coeff-Com:  0.465D-04-0.559D-03 0.229D-02-0.934D-02 0.368D-01-0.124D+00
 Coeff-Com:  0.381D+00-0.911D+00 0.163D+01
 Coeff:      0.349D-07-0.467D-07-0.347D-05 0.126D-04-0.377D-04 0.508D-04
 Coeff:      0.465D-04-0.559D-03 0.229D-02-0.934D-02 0.368D-01-0.124D+00
 Coeff:      0.381D+00-0.911D+00 0.163D+01
 Gap=     0.273 Goal=   None    Shift=    0.000
 RMSDP=3.25D-08 MaxDP=3.06D-07 DE=-5.51D-12 OVMax= 7.33D-07

 Cycle  16  Pass 1  IDiag  3:
 E=  2.87258478428674     Delta-E=        0.000000000002 Rises=F Damp=F
 DIIS: error= 4.19D-09 at cycle  16 NSaved=  16.
 NSaved=16 IEnMin=15 EnMin=  2.87258478428436     IErMin=16 ErrMin= 4.19D-09
 ErrMax= 4.19D-09  0.00D+00 EMaxC= 1.00D-01 BMatC= 1.34D-15 BMatP= 2.42D-14
 IDIUse=1 WtCom= 1.00D+00 WtEn= 0.00D+00
 Large coefficients: NSaved= 16 BigCof=    0.00 CofMax=   10.00 Det=-1.25D-15
 Inversion failed.  Reducing to 15 matrices.
 Coeff-Com: -0.261D-07 0.521D-06-0.144D-05 0.551D-05-0.103D-04 0.376D-05
 Coeff-Com:  0.496D-04-0.264D-03 0.132D-02-0.557D-02 0.197D-01-0.680D-01
 Coeff-Com:  0.214D+00-0.595D+00 0.143D+01
 Coeff:     -0.261D-07 0.521D-06-0.144D-05 0.551D-05-0.103D-04 0.376D-05
 Coeff:      0.496D-04-0.264D-03 0.132D-02-0.557D-02 0.197D-01-0.680D-01
 Coeff:      0.214D+00-0.595D+00 0.143D+01
 Gap=     0.273 Goal=   None    Shift=    0.000
 RMSDP=5.47D-09 MaxDP=5.15D-08 DE= 2.39D-12 OVMax= 1.08D-07

 Cycle  17  Pass 2  IDiag  1:
 SCF Done:  E(RAM1) =   2.87258478429     A.U. after   17 cycles
            NFock= 16  Conv=0.55D-08     -V/T= 1.0136
 KE=-2.119356430959D+02 PE=-6.134741049657D+02 EE= 3.853626522145D+02
 Leave Link  502 at Sat May 24 07:33:10 2025, MaxMem=  3758096384 cpu:               0.1 elap:               0.0
 (Enter /apps/easybuild-2022/easybuild/software/Compiler/NVHPC/22.11-CUDA-11.7.0/Gaussian/g16c01-CUDA-11.7.0/g16/l508.exe)
 QCSCF skips out because SCF is already converged.
 Leave Link  508 at Sat May 24 07:33:10 2025, MaxMem=  3758096384 cpu:               0.0 elap:               0.0
 (Enter /apps/easybuild-2022/easybuild/software/Compiler/NVHPC/22.11-CUDA-11.7.0/Gaussian/g16c01-CUDA-11.7.0/g16/l701.exe)
 ... and contract with generalized density number  0.
 Compute integral first derivatives.
 Leave Link  701 at Sat May 24 07:33:10 2025, MaxMem=  3758096384 cpu:               0.1 elap:               0.0
 (Enter /apps/easybuild-2022/easybuild/software/Compiler/NVHPC/22.11-CUDA-11.7.0/Gaussian/g16c01-CUDA-11.7.0/g16/l702.exe)
 L702 exits ... SP integral derivatives will be done elsewhere.
 Leave Link  702 at Sat May 24 07:33:10 2025, MaxMem=  3758096384 cpu:               0.0 elap:               0.0
 (Enter /apps/easybuild-2022/easybuild/software/Compiler/NVHPC/22.11-CUDA-11.7.0/Gaussian/g16c01-CUDA-11.7.0/g16/l703.exe)
 Integral derivatives from FoFJK, PRISM(SPDF).
 Compute integral first derivatives, UseDBF=F ICtDFT=           0.
 Calling FoFJK, ICntrl=      2127 FMM=F ISym2X=0 I1Cent= 0 IOpClX= 0 NMat=1 NMatS=1 NMatT=0.
 FoFJK:  IHMeth= 8 ICntrl=    2127 DoSepK=F KAlg= 0 I1Cent=           0 FoldK=F
 IRaf=         0 NMat=       1 IRICut=       1 DoRegI=T DoRafI=F ISym2E= 0 IDoP0=3 IntGTp=3.
 FoFCou: FMM=F IPFlag=           0 FMFlag=      100000 FMFlg1=         800
         NFxFlg=           0 DoJE=F BraDBF=F KetDBF=F FulRan=T
         wScrn=  0.000000 ICntrl=      2127 IOpCl=  0 I1Cent=           0 NGrid=           0
         NMat0=    1 NMatS0=      1 NMatT0=    0 NMatD0=    1 NMtDS0=    0 NMtDT0=    0
 Symmetry not used in FoFCou.
 Leave Link  703 at Sat May 24 07:33:10 2025, MaxMem=  3758096384 cpu:               0.0 elap:               0.0
 (Enter /apps/easybuild-2022/easybuild/software/Compiler/NVHPC/22.11-CUDA-11.7.0/Gaussian/g16c01-CUDA-11.7.0/g16/l716.exe)
 Dipole        = 2.40783023D-01 1.11166602D+00-1.90864002D-01
 -------------------------------------------------------------------
 Center     Atomic                   Forces (Hartrees/Bohr)
 Number     Number              X              Y              Z
 -------------------------------------------------------------------
      1        6          -0.003358006    0.025753634    0.017221025
      2        8           0.014662593    0.049729957   -0.000488881
      3        6          -0.022766900   -0.054927302    0.001107140
      4        6           0.018123997   -0.030200165    0.021686240
      5        9          -0.014520917   -0.049498654   -0.007045290
      6        9          -0.011332263    0.010303747    0.027217830
      7        9          -0.013759123    0.028475875   -0.041805781
      8        9           0.000969511   -0.002791855   -0.004093723
      9        9          -0.002172735    0.003162720   -0.004829522
     10        8           0.035181863    0.010917351   -0.009869455
     11        1          -0.001028020    0.009074692    0.000900419
 -------------------------------------------------------------------
 Cartesian Forces:  Max     0.054927302 RMS     0.022658742
 Z-matrix is all fixed cartesians, so copy forces.
 Force constants in Cartesian coordinates: 
                1             2             3             4             5 
      1  0.120538D+01
      2 -0.370333D-01  0.960675D+00
      3 -0.333028D+00  0.473599D-01  0.294349D+00
      4 -0.588485D+00  0.283763D+00  0.195139D+00  0.579116D+00
      5  0.285197D+00 -0.299343D+00 -0.107131D+00 -0.299639D+00  0.271354D+00
      6  0.198194D+00 -0.108534D+00 -0.113855D+00 -0.199921D+00  0.111494D+00
      7 -0.132683D+00 -0.356638D-01  0.154407D-01  0.176526D-01  0.313825D-01
      8 -0.560391D-01 -0.381456D+00  0.885161D-02 -0.232029D-02 -0.425175D-02
      9  0.169056D-01  0.121259D-01 -0.132735D+00 -0.449248D-02 -0.115097D-01
     10  0.000000D+00  0.000000D+00  0.000000D+00  0.000000D+00  0.000000D+00
     11  0.000000D+00  0.000000D+00  0.000000D+00  0.000000D+00  0.000000D+00
     12  0.000000D+00  0.000000D+00  0.000000D+00  0.000000D+00  0.000000D+00
     13  0.000000D+00  0.000000D+00  0.000000D+00  0.000000D+00  0.000000D+00
     14  0.000000D+00  0.000000D+00  0.000000D+00  0.000000D+00  0.000000D+00
     15  0.000000D+00  0.000000D+00  0.000000D+00  0.000000D+00  0.000000D+00
     16  0.000000D+00  0.000000D+00  0.000000D+00  0.000000D+00  0.000000D+00
     17  0.000000D+00  0.000000D+00  0.000000D+00  0.000000D+00  0.000000D+00
     18  0.000000D+00  0.000000D+00  0.000000D+00  0.000000D+00  0.000000D+00
     19  0.000000D+00  0.000000D+00  0.000000D+00  0.000000D+00  0.000000D+00
     20  0.000000D+00  0.000000D+00  0.000000D+00  0.000000D+00  0.000000D+00
     21  0.000000D+00  0.000000D+00  0.000000D+00  0.000000D+00  0.000000D+00
     22  0.709967D-02 -0.112171D-02 -0.704584D-02  0.100082D-02 -0.215060D-04
     23  0.905104D-02 -0.211974D-02 -0.281506D-01 -0.110486D-03  0.237417D-05
     24 -0.472557D-02  0.124254D-02  0.184721D-01  0.330687D-03 -0.710594D-05
     25  0.889456D-02 -0.798260D-03  0.804303D-02 -0.897527D-03  0.192864D-04
     26  0.142524D-01 -0.747152D-03  0.276717D-01  0.126635D-03 -0.272118D-05
     27  0.483679D-02 -0.108683D-03  0.134171D-01  0.469139D-03 -0.100811D-04
     28 -0.516208D+00 -0.179437D+00  0.126547D+00 -0.766660D-02 -0.171325D-01
     29 -0.217512D+00 -0.272899D+00  0.525989D-01  0.180289D-01  0.322809D-01
     30  0.120332D+00  0.407499D-01 -0.859995D-01  0.108878D-01  0.651605D-02
     31  0.160040D-01 -0.297094D-01 -0.509670D-02 -0.721078D-03  0.193442D-03
     32  0.208407D-02 -0.411029D-02 -0.120084D-02  0.150605D-03 -0.404026D-04
     33 -0.251505D-02  0.716385D-02  0.635118D-02 -0.241315D-02  0.647371D-03
                6             7             8             9            10 
      6  0.933259D-01
      7 -0.372894D-02  0.245554D+00
      8  0.702387D-03 -0.119746D+00  0.826494D+00
      9  0.684758D-02  0.480969D-01  0.335504D-01  0.863690D+00
     10  0.000000D+00  0.000000D+00  0.000000D+00  0.000000D+00  0.279017D+00
     11  0.000000D+00  0.000000D+00  0.000000D+00  0.000000D+00 -0.867814D-03
     12  0.000000D+00  0.000000D+00  0.000000D+00  0.000000D+00 -0.362712D-01
     13  0.000000D+00  0.000000D+00  0.000000D+00  0.000000D+00 -0.812882D-01
     14  0.000000D+00  0.000000D+00  0.000000D+00  0.000000D+00 -0.164028D+00
     15  0.000000D+00  0.000000D+00  0.000000D+00  0.000000D+00 -0.203187D-01
     16  0.000000D+00  0.000000D+00  0.000000D+00  0.000000D+00 -0.117539D+00
     17  0.000000D+00  0.000000D+00  0.000000D+00  0.000000D+00  0.713137D-01
     18  0.000000D+00  0.000000D+00  0.000000D+00  0.000000D+00  0.185284D+00
     19  0.000000D+00  0.000000D+00  0.000000D+00  0.000000D+00 -0.801902D-01
     20  0.000000D+00  0.000000D+00  0.000000D+00  0.000000D+00  0.935819D-01
     21  0.000000D+00  0.000000D+00  0.000000D+00  0.000000D+00 -0.128694D+00
     22  0.280354D-02 -0.535523D-01  0.809817D-01  0.101161D+00  0.000000D+00
     23 -0.309499D-03  0.668481D-01 -0.247092D+00 -0.213139D+00  0.000000D+00
     24  0.926336D-03  0.809484D-01 -0.210027D+00 -0.388823D+00  0.000000D+00
     25 -0.251420D-02 -0.950172D-01  0.993419D-01 -0.161343D+00  0.000000D+00
     26  0.354736D-03  0.882457D-01 -0.197781D+00  0.170991D+00  0.000000D+00
     27  0.131418D-02 -0.140423D+00  0.166288D+00 -0.365488D+00  0.000000D+00
     28  0.748431D-02  0.174773D-01 -0.222769D-02 -0.251476D-02  0.000000D+00
     29 -0.419239D-02 -0.309480D-01  0.408811D-02  0.843842D-02  0.000000D+00
     30  0.191980D-01 -0.223691D-02  0.604137D-03  0.918770D-02  0.000000D+00
     31 -0.231785D-02  0.568492D-03  0.917837D-05  0.218706D-02  0.000000D+00
     32  0.484109D-03 -0.118736D-03 -0.191701D-05 -0.456792D-03  0.000000D+00
     33 -0.775689D-02  0.190251D-02  0.307162D-04  0.731919D-02  0.000000D+00
               11            12            13            14            15 
     11  0.971986D+00
     12 -0.279688D-01  0.103192D+01
     13 -0.198547D+00 -0.245149D-01  0.662751D-01
     14 -0.580953D+00 -0.706594D-01  0.168355D+00  0.589567D+00
     15 -0.729371D-01 -0.973261D-01  0.209006D-01  0.747350D-01  0.759485D-01
     16  0.845687D-01  0.218669D+00  0.857287D-02 -0.409954D-03 -0.149498D-01
     17 -0.139479D+00 -0.143920D+00  0.174791D-01 -0.643354D-03 -0.318462D-01
     18 -0.145907D+00 -0.481774D+00 -0.293334D-02  0.686650D-04  0.562320D-02
     19  0.114846D+00 -0.157883D+00  0.644026D-02 -0.391722D-02  0.143680D-01
     20 -0.251554D+00  0.242549D+00  0.127131D-01 -0.797031D-02  0.300483D-01
     21  0.246813D+00 -0.452819D+00  0.654756D-02 -0.414421D-02  0.157544D-01
     22  0.000000D+00  0.000000D+00  0.000000D+00  0.000000D+00  0.000000D+00
     23  0.000000D+00  0.000000D+00  0.000000D+00  0.000000D+00  0.000000D+00
     24  0.000000D+00  0.000000D+00  0.000000D+00  0.000000D+00  0.000000D+00
     25  0.000000D+00  0.000000D+00  0.000000D+00  0.000000D+00  0.000000D+00
     26  0.000000D+00  0.000000D+00  0.000000D+00  0.000000D+00  0.000000D+00
     27  0.000000D+00  0.000000D+00  0.000000D+00  0.000000D+00  0.000000D+00
     28  0.000000D+00  0.000000D+00  0.000000D+00  0.000000D+00  0.000000D+00
     29  0.000000D+00  0.000000D+00  0.000000D+00  0.000000D+00  0.000000D+00
     30  0.000000D+00  0.000000D+00  0.000000D+00  0.000000D+00  0.000000D+00
     31  0.000000D+00  0.000000D+00  0.000000D+00  0.000000D+00  0.000000D+00
     32  0.000000D+00  0.000000D+00  0.000000D+00  0.000000D+00  0.000000D+00
     33  0.000000D+00  0.000000D+00  0.000000D+00  0.000000D+00  0.000000D+00
               16            17            18            19            20 
     16  0.987416D-01
     17 -0.727089D-01  0.121203D+00
     18 -0.192590D+00  0.157643D+00  0.487526D+00
     19  0.102243D-01 -0.160839D-01  0.102395D-01  0.635256D-01
     20 -0.114498D-01  0.189186D-01 -0.118042D-01 -0.948452D-01  0.240606D+00
     21 -0.111287D-01  0.181237D-01 -0.113748D-01  0.133275D+00 -0.260793D+00
     22  0.000000D+00  0.000000D+00  0.000000D+00  0.000000D+00  0.000000D+00
     23  0.000000D+00  0.000000D+00  0.000000D+00  0.000000D+00  0.000000D+00
     24  0.000000D+00  0.000000D+00  0.000000D+00  0.000000D+00  0.000000D+00
     25  0.000000D+00  0.000000D+00  0.000000D+00  0.000000D+00  0.000000D+00
     26  0.000000D+00  0.000000D+00  0.000000D+00  0.000000D+00  0.000000D+00
     27  0.000000D+00  0.000000D+00  0.000000D+00  0.000000D+00  0.000000D+00
     28  0.000000D+00  0.000000D+00  0.000000D+00  0.000000D+00  0.000000D+00
     29  0.000000D+00  0.000000D+00  0.000000D+00  0.000000D+00  0.000000D+00
     30  0.000000D+00  0.000000D+00  0.000000D+00  0.000000D+00  0.000000D+00
     31  0.000000D+00  0.000000D+00  0.000000D+00  0.000000D+00  0.000000D+00
     32  0.000000D+00  0.000000D+00  0.000000D+00  0.000000D+00  0.000000D+00
     33  0.000000D+00  0.000000D+00  0.000000D+00  0.000000D+00  0.000000D+00
               21            22            23            24            25 
     21  0.448440D+00
     22  0.000000D+00  0.395838D-01
     23  0.000000D+00 -0.680336D-01  0.229619D+00
     24  0.000000D+00 -0.836027D-01  0.225841D+00  0.384097D+00
     25  0.000000D+00  0.669486D-02 -0.784633D-02  0.732234D-02  0.795838D-01
     26  0.000000D+00 -0.117915D-01  0.195886D-01 -0.170447D-01 -0.907286D-01
     27  0.000000D+00 -0.101346D-01  0.154066D-01 -0.136218D-01  0.145639D+00
     28  0.000000D+00 -0.826849D-03  0.912805D-04 -0.273204D-03  0.741512D-03
     29  0.000000D+00 -0.133496D-04  0.147373D-05 -0.441092D-05  0.119718D-04
     30  0.000000D+00 -0.318100D-02  0.351168D-03 -0.105105D-02  0.285269D-02
     31  0.000000D+00  0.000000D+00  0.000000D+00  0.000000D+00  0.000000D+00
     32  0.000000D+00  0.000000D+00  0.000000D+00  0.000000D+00  0.000000D+00
     33  0.000000D+00  0.000000D+00  0.000000D+00  0.000000D+00  0.000000D+00
               26            27            28            29            30 
     26  0.178944D+00
     27 -0.181570D+00  0.365870D+00
     28 -0.104622D-03 -0.387590D-03  0.574261D+00
     29 -0.168914D-05 -0.625769D-05  0.146250D+00  0.759569D+00
     30 -0.402495D-03 -0.149111D-02 -0.146726D+00 -0.102316D-02  0.932641D-01
     31  0.000000D+00  0.000000D+00 -0.677781D-01  0.841829D-01  0.180715D-01
     32  0.000000D+00  0.000000D+00  0.525601D-01 -0.523039D+00 -0.467956D-01
     33  0.000000D+00  0.000000D+00  0.158697D-01 -0.558111D-01 -0.331082D-01
               31            32            33 
     31  0.519267D-01
     32 -0.546761D-01  0.527191D+00
     33 -0.128440D-01  0.479692D-01  0.271947D-01
 Leave Link  716 at Sat May 24 07:33:10 2025, MaxMem=  3758096384 cpu:               0.0 elap:               0.0
 (Enter /apps/easybuild-2022/easybuild/software/Compiler/NVHPC/22.11-CUDA-11.7.0/Gaussian/g16c01-CUDA-11.7.0/g16/l103.exe)

 GradGradGradGradGradGradGradGradGradGradGradGradGradGradGradGradGradGrad
 Berny optimization.
 Search for a local minimum.
 Step number   1 out of a maximum of    2
 All quantities printed in internal units (Hartrees-Bohrs-Radians)
 Second derivative matrix not updated -- first step.
 ITU=  0
     Eigenvalues ---   -0.00000  -0.00000   0.00000   0.00000   0.00000
     Eigenvalues ---    0.00001   0.01224   0.02651   0.03004   0.05899
     Eigenvalues ---    0.07671   0.09454   0.11050   0.14674   0.14980
     Eigenvalues ---    0.18213   0.23147   0.24898   0.49646   0.84791
     Eigenvalues ---    0.95722   1.14276   1.36178   1.54877   1.59813
     Eigenvalues ---    1.64738   2.05292
 Eigenvalue     1 is  -2.22D-16 should be greater than     0.000000 Eigenvector:
                          X7        X5        X4        Z4        X11
   1                    0.65205   0.33536   0.26623   0.20121  -0.18469
                          X2        X10       X1        X3        X9
   1                   -0.18227  -0.18182  -0.18017  -0.17603  -0.17494
 Eigenvalue     2 is  -1.11D-16 should be greater than     0.000000 Eigenvector:
                          Z5        Y6        Y7        Z11       Z7
   1                    0.41058   0.39096  -0.36691   0.28586  -0.26343
                          X6        Z8        Z9        Z2        Z10
   1                    0.22752  -0.19119  -0.17847   0.16767   0.16477
 Eigenvalue     3 is   4.44D-16 Eigenvector:
                          X6        X7        Z4        Z5        X4
   1                    0.71406  -0.24789  -0.24619  -0.24458   0.21582
                          X5        Z8        X11       Z9        X2
   1                    0.15481   0.14877  -0.14512   0.14393  -0.14185
 Eigenvalue     4 is   1.23D-06 Eigenvector:
                          X5        X7        Y4        X6        Y2
   1                    0.58454  -0.36533   0.36340  -0.24643  -0.23612
                          Y5        X11       Y6        Y3        Y7
   1                    0.17734  -0.17683   0.17423  -0.16149   0.15560
 Eigenvalue     5 is   2.03D-06 Eigenvector:
                          X5        X11       X8        Y2        X9
   1                    0.49102   0.38118  -0.33468   0.29471  -0.24925
                          X7        X2        X10       Y6        X3
   1                   -0.24182   0.21964   0.20380  -0.18923  -0.16420
 Eigenvalue     6 is   1.45D-05 Eigenvector:
                          Z2        X9        X8        Z10       Z3
   1                    0.56071   0.44057  -0.38366  -0.24888   0.20404
                          Z11       Z6        Z7        Z1        Z5
   1                   -0.19400  -0.18012  -0.17075   0.17071  -0.14283
 Quadratic step=3.864D+02 exceeds max=3.000D-01 adjusted using Lamda=-1.983D-01.
 Angle between NR and scaled steps=  49.42 degrees.
 Angle between quadratic step and forces=  37.57 degrees.
 Linear search not attempted -- first point.
 B after Tr=    -0.000254   -0.001022   -0.000696
         Rot=    1.000000    0.000010   -0.000043   -0.000002 Ang=   0.01 deg.
 Variable       Old X    -DE/DX   Delta X   Delta X   Delta X     New X
                                 (Linear)    (Quad)   (Total)
    X1        4.08718  -0.00336   0.00000   0.02649   0.02622   4.11340
    Y1        2.06497   0.02575   0.00000   0.04890   0.04789   2.11287
    Z1       -0.18479   0.01722   0.00000   0.03892   0.03783  -0.14696
    X2        2.15699   0.01466   0.00000   0.08703   0.08680   2.24379
    Y2        3.23364   0.04973   0.00000   0.19196   0.19096   3.42460
    Z2        0.51323  -0.00049   0.00000  -0.00093  -0.00188   0.51134
    X3        3.75600  -0.02277   0.00000  -0.07350  -0.07376   3.68224
    Y3       -0.64332  -0.05493   0.00000  -0.04487  -0.04587  -0.68919
    Z3       -0.08733   0.00111   0.00000   0.00263   0.00163  -0.08571
    X4       -0.43037   0.01812   0.00000  -0.03732  -0.03757  -0.46793
    Y4        0.89819  -0.03020   0.00000  -0.07961  -0.08064   0.81755
    Z4        0.03741   0.02169   0.00000   0.00905   0.00838   0.04579
    X5       -1.12072  -0.01452   0.00000  -0.04719  -0.04747  -1.16819
    Y5       -1.45244  -0.04950   0.00000  -0.11722  -0.11825  -1.57069
    Z5       -0.29401  -0.00705   0.00000  -0.01135  -0.01192  -0.30593
    X6       -1.33513  -0.01133   0.00000  -0.01552  -0.01559  -1.35072
    Y6        1.70668   0.01030   0.00000  -0.00863  -0.00961   1.69707
    Z6        2.21079   0.02722   0.00000   0.03654   0.03593   2.24672
    X7       -1.07102  -0.01376   0.00000  -0.00716  -0.00759  -1.07861
    Y7        2.23335   0.02848   0.00000   0.00340   0.00234   2.23569
    Z7       -1.92486  -0.04181   0.00000  -0.03165  -0.03230  -1.95716
    X8        4.26250   0.00097   0.00000  -0.00459  -0.00502   4.25749
    Y8       -2.09402  -0.00279   0.00000  -0.01233  -0.01338  -2.10740
    Z8       -2.10495  -0.00409   0.00000  -0.00836  -0.00938  -2.11433
    X9        4.64908  -0.00217   0.00000  -0.01416  -0.01424   4.63484
    Y9       -1.89518   0.00316   0.00000  -0.01182  -0.01278  -1.90796
    Z9        1.95917  -0.00483   0.00000  -0.01279  -0.01385   1.94531
   X10        6.16515   0.03518   0.00000   0.06975   0.06942   6.23457
   Y10        3.27787   0.01092   0.00000   0.01892   0.01791   3.29579
   Z10       -0.73001  -0.00987   0.00000  -0.00968  -0.01098  -0.74099
   X11        5.95713  -0.00103   0.00000   0.01912   0.01879   5.97592
   Y11        5.08658   0.00907   0.00000   0.02244   0.02143   5.10801
   Z11       -0.55497   0.00090   0.00000  -0.00215  -0.00346  -0.55843
         Item               Value     Threshold  Converged?
 Maximum Force            0.054927     0.000450     NO 
 RMS     Force            0.022659     0.000300     NO 
 Maximum Displacement     0.190958     0.001800     NO 
 RMS     Displacement     0.052222     0.001200     NO 
 Predicted change in Energy=-2.440363D-02
 GradGradGradGradGradGradGradGradGradGradGradGradGradGradGradGradGradGrad

 Leave Link  103 at Sat May 24 07:33:10 2025, MaxMem=  3758096384 cpu:               0.0 elap:               0.0
 (Enter /apps/easybuild-2022/easybuild/software/Compiler/NVHPC/22.11-CUDA-11.7.0/Gaussian/g16c01-CUDA-11.7.0/g16/l9999.exe)
 Unable to Open any file for archive entry.
 1\1\GINC-SPARTAN-BM167\Force\RAM1\ZDO\C3H1F5O2\AKHALILOV\24-May-2025\0
 \\#P am1 Symm(None) scf(xqc) pop(None) force\\Gaussian input prepared 
 by ASE\\0,1\C,2.1628443698,1.0927360136,-0.0977845812\O,1.1414292415,1
 .7111693009,0.2715878305\C,1.9875901149,-0.3404284187,-0.0462155237\C,
 -0.2277395724,0.4753013083,0.0197955683\F,-0.593060668,-0.7685969864,-
 0.1555847714\F,-0.7065218484,0.9031381947,1.1698988232\F,-0.5667586476
 ,1.1818373822,-1.0185924098\F,2.2556199316,-1.1081100107,-1.1138939105
 \F,2.460188574,-1.0028856457,1.0367459011\O,3.2624586872,1.7345749918,
 -0.3863053499\H,3.1523758172,2.6917038701,-0.2936765765\\Version=ES64L
 -G16RevC.01\HF=2.8725848\RMSD=5.473e-09\RMSF=2.266e-02\Dipole=0.240783
 ,1.111666,-0.190864\PG=Unknown\\@
 The archive entry for this job was punched.


 Spring appears, and we are once more children.
                                  -- Anonymous
 Job cpu time:       0 days  0 hours  0 minutes  0.8 seconds.
 Elapsed time:       0 days  0 hours  0 minutes  0.4 seconds.
 File lengths (MBytes):  RWF=      6 Int=      0 D2E=      0 Chk=      2 Scr=      1
 Normal termination of Gaussian 16 at Sat May 24 07:33:10 2025.
done
