 Entering Gaussian System, Link 0=g16
 Initial command:
 /apps/easybuild-2022/easybuild/software/Compiler/NVHPC/22.11-CUDA-11.7.0/Gaussian/g16c01-CUDA-11.7.0/g16/l1.exe "/tmp/Gau-68067.inp" -scrdir="/tmp/"
 Entering Link 1 = /apps/easybuild-2022/easybuild/software/Compiler/NVHPC/22.11-CUDA-11.7.0/Gaussian/g16c01-CUDA-11.7.0/g16/l1.exe PID=     68068.
  
 Copyright (c) 1988-2019, Gaussian, Inc.  All Rights Reserved.
  
 This is part of the Gaussian(R) 16 program.  It is based on
 the Gaussian(R) 09 system (copyright 2009, Gaussian, Inc.),
 the Gaussian(R) 03 system (copyright 2003, Gaussian, Inc.),
 the Gaussian(R) 98 system (copyright 1998, Gaussian, Inc.),
 the Gaussian(R) 94 system (copyright 1995, Gaussian, Inc.),
 the Gaussian 92(TM) system (copyright 1992, Gaussian, Inc.),
 the Gaussian 90(TM) system (copyright 1990, Gaussian, Inc.),
 the Gaussian 88(TM) system (copyright 1988, Gaussian, Inc.),
 the Gaussian 86(TM) system (copyright 1986, Carnegie Mellon
 University), and the Gaussian 82(TM) system (copyright 1983,
 Carnegie Mellon University). Gaussian is a federally registered
 trademark of Gaussian, Inc.
  
 This software contains proprietary and confidential information,
 including trade secrets, belonging to Gaussian, Inc.
  
 This software is provided under written license and may be
 used, copied, transmitted, or stored only in accord with that
 written license.
  
 The following legend is applicable only to US Government
 contracts under FAR:
  
                    RESTRICTED RIGHTS LEGEND
  
 Use, reproduction and disclosure by the US Government is
 subject to restrictions as set forth in subparagraphs (a)
 and (c) of the Commercial Computer Software - Restricted
 Rights clause in FAR 52.227-19.
  
 Gaussian, Inc.
 340 Quinnipiac St., Bldg. 40, Wallingford CT 06492
  
  
 ---------------------------------------------------------------
 Warning -- This program may not be used in any manner that
 competes with the business of Gaussian, Inc. or will provide
 assistance to any competitor of Gaussian, Inc.  The licensee
 of this program is prohibited from giving any competitor of
 Gaussian, Inc. access to this program.  By using this program,
 the user acknowledges that Gaussian, Inc. is engaged in the
 business of creating and licensing software in the field of
 computational chemistry and represents and warrants to the
 licensee that it is not a competitor of Gaussian, Inc. and that
 it will not use this program in any manner prohibited above.
 ---------------------------------------------------------------
  

 Cite this work as:
 Gaussian 16, Revision C.01,
 M. J. Frisch, G. W. Trucks, H. B. Schlegel, G. E. Scuseria, 
 M. A. Robb, J. R. Cheeseman, G. Scalmani, V. Barone, 
 G. A. Petersson, H. Nakatsuji, X. Li, M. Caricato, A. V. Marenich, 
 J. Bloino, B. G. Janesko, R. Gomperts, B. Mennucci, H. P. Hratchian, 
 J. V. Ortiz, A. F. Izmaylov, J. L. Sonnenberg, D. Williams-Young, 
 F. Ding, F. Lipparini, F. Egidi, J. Goings, B. Peng, A. Petrone, 
 T. Henderson, D. Ranasinghe, V. G. Zakrzewski, J. Gao, N. Rega, 
 G. Zheng, W. Liang, M. Hada, M. Ehara, K. Toyota, R. Fukuda, 
 J. Hasegawa, M. Ishida, T. Nakajima, Y. Honda, O. Kitao, H. Nakai, 
 T. Vreven, K. Throssell, J. A. Montgomery, Jr., J. E. Peralta, 
 F. Ogliaro, M. J. Bearpark, J. J. Heyd, E. N. Brothers, K. N. Kudin, 
 V. N. Staroverov, T. A. Keith, R. Kobayashi, J. Normand, 
 K. Raghavachari, A. P. Rendell, J. C. Burant, S. S. Iyengar, 
 J. Tomasi, M. Cossi, J. M. Millam, M. Klene, C. Adamo, R. Cammi, 
 J. W. Ochterski, R. L. Martin, K. Morokuma, O. Farkas, 
 J. B. Foresman, and D. J. Fox, Gaussian, Inc., Wallingford CT, 2019.
 
 ******************************************
 Gaussian 16:  ES64L-G16RevC.01  3-Jul-2019
                24-May-2025 
 ******************************************
 %mem=28GB
 %nprocshared=8
 Will use up to    8 processors via shared memory.
 -----------------------------------------------------------------
 #P M062X/Def2TZVPP Symm(None) scf(xqc) pop(None) freq opt(CalcFC)
 -----------------------------------------------------------------
 1/10=4,18=20,19=15,26=3,38=1/1,3;
 2/9=110,12=2,15=3,17=6,18=5,40=1/2;
 3/5=44,7=202,11=2,25=1,30=1,71=2,74=-55,140=1/1,2,3;
 4//1;
 5/5=2,8=3,13=1,38=5/2,8;
 8/6=4,10=90,11=11/1;
 11/6=1,8=1,9=11,15=111,16=1,31=1/1,2,10;
 10/6=1,13=1,31=1/2;
 7/10=1,25=1,30=1/1,2,3,16;
 1/10=4,18=20,19=15,26=3/3(2);
 2/9=110,15=3/2;
 99//99;
 2/9=110,15=3/2;
 3/5=44,7=202,11=2,25=1,30=1,71=1,74=-55/1,2,3;
 4/5=5,16=3,69=1/1;
 5/5=2,8=3,13=1,38=5/2,8;
 7/30=1/1,2,3,16;
 1/18=20,19=15,26=3/3(-5);
 2/9=110,15=3/2;
 99/9=1/99;
 Leave Link    1 at Sat May 24 06:11:32 2025, MaxMem=  3758096384 cpu:               0.0 elap:               0.0
 (Enter /apps/easybuild-2022/easybuild/software/Compiler/NVHPC/22.11-CUDA-11.7.0/Gaussian/g16c01-CUDA-11.7.0/g16/l101.exe)
 ------------------------------
 Gaussian input prepared by ASE
 ------------------------------
 Symbolic Z-matrix:
 Charge =  0 Multiplicity = 1
 C                     1.42498   0.        0. 
 O                     0.        0.        0. 
 C                     1.86292   1.47685   0. 
 C                     3.21202   1.65452   0.71842 
 F                     3.60946   2.917     0.64509 
 F                     3.10556   1.31339   1.99166 
 F                     4.12841   0.88347   0.13942 
 F                     2.00464   2.01821  -1.25248 
 F                     0.93619   2.2101    0.63161 
 O                     0.57559  -0.09742   1.32473 
 H                     0.39918   0.80308   1.67005 
 
 Add atom     10 valence  3 ND=      1 dihedral      11      2     10      1
 ITRead=  0  0  0  0  0  0  0  0  0  0  0
 MicOpt= -1 -1 -1 -1 -1 -1 -1 -1 -1 -1 -1
 NAtoms=     11 NQM=       11 NQMF=       0 NMMI=      0 NMMIF=      0
                NMic=       0 NMicF=      0.
                    Isotopes and Nuclear Properties:
 (Nuclear quadrupole moments (NQMom) in fm**2, nuclear magnetic moments (NMagM)
  in nuclear magnetons)

  Atom         1           2           3           4           5           6           7           8           9          10
 IAtWgt=          12          16          12          12          19          19          19          19          19          16
 AtmWgt=  12.0000000  15.9949146  12.0000000  12.0000000  18.9984032  18.9984032  18.9984032  18.9984032  18.9984032  15.9949146
 NucSpn=           0           0           0           0           1           1           1           1           1           0
 AtZEff=  -0.0000000  -0.0000000  -0.0000000  -0.0000000  -0.0000000  -0.0000000  -0.0000000  -0.0000000  -0.0000000  -0.0000000
 NQMom=    0.0000000   0.0000000   0.0000000   0.0000000   0.0000000   0.0000000   0.0000000   0.0000000   0.0000000   0.0000000
 NMagM=    0.0000000   0.0000000   0.0000000   0.0000000   2.6288670   2.6288670   2.6288670   2.6288670   2.6288670   0.0000000
 AtZNuc=   6.0000000   8.0000000   6.0000000   6.0000000   9.0000000   9.0000000   9.0000000   9.0000000   9.0000000   8.0000000

  Atom        11
 IAtWgt=           1
 AtmWgt=   1.0078250
 NucSpn=           1
 AtZEff=  -0.0000000
 NQMom=    0.0000000
 NMagM=    2.7928460
 AtZNuc=   1.0000000
 Leave Link  101 at Sat May 24 06:11:32 2025, MaxMem=  3758096384 cpu:               0.3 elap:               0.2
 (Enter /apps/easybuild-2022/easybuild/software/Compiler/NVHPC/22.11-CUDA-11.7.0/Gaussian/g16c01-CUDA-11.7.0/g16/l103.exe)

 GradGradGradGradGradGradGradGradGradGradGradGradGradGradGradGradGradGrad
 Berny optimization.
 Initialization pass.
                           ----------------------------
                           !    Initial Parameters    !
                           ! (Angstroms and Degrees)  !
 --------------------------                            --------------------------
 ! Name  Definition              Value          Derivative Info.                !
 --------------------------------------------------------------------------------
 ! R1    R(1,2)                  1.425          calculate D2E/DX2 analytically  !
 ! R2    R(1,3)                  1.5404         calculate D2E/DX2 analytically  !
 ! R3    R(1,10)                 1.5767         calculate D2E/DX2 analytically  !
 ! R4    R(2,10)                 1.4477         calculate D2E/DX2 analytically  !
 ! R5    R(3,4)                  1.5388         calculate D2E/DX2 analytically  !
 ! R6    R(3,8)                  1.3718         calculate D2E/DX2 analytically  !
 ! R7    R(3,9)                  1.3399         calculate D2E/DX2 analytically  !
 ! R8    R(4,5)                  1.3256         calculate D2E/DX2 analytically  !
 ! R9    R(4,6)                  1.3224         calculate D2E/DX2 analytically  !
 ! R10   R(4,7)                  1.3302         calculate D2E/DX2 analytically  !
 ! R11   R(10,11)                0.9804         calculate D2E/DX2 analytically  !
 ! A1    A(2,1,3)              106.5167         calculate D2E/DX2 analytically  !
 ! A2    A(3,1,10)             102.263          calculate D2E/DX2 analytically  !
 ! A3    A(1,3,4)              111.0973         calculate D2E/DX2 analytically  !
 ! A4    A(1,3,8)              114.0614         calculate D2E/DX2 analytically  !
 ! A5    A(1,3,9)              109.1489         calculate D2E/DX2 analytically  !
 ! A6    A(4,3,8)              106.8655         calculate D2E/DX2 analytically  !
 ! A7    A(4,3,9)              108.8518         calculate D2E/DX2 analytically  !
 ! A8    A(8,3,9)              106.611          calculate D2E/DX2 analytically  !
 ! A9    A(3,4,5)              110.304          calculate D2E/DX2 analytically  !
 ! A10   A(3,4,6)              110.4353         calculate D2E/DX2 analytically  !
 ! A11   A(3,4,7)              109.5023         calculate D2E/DX2 analytically  !
 ! A12   A(5,4,6)              108.8486         calculate D2E/DX2 analytically  !
 ! A13   A(5,4,7)              108.7487         calculate D2E/DX2 analytically  !
 ! A14   A(6,4,7)              108.9662         calculate D2E/DX2 analytically  !
 ! A15   A(1,10,11)            109.6397         calculate D2E/DX2 analytically  !
 ! A16   A(2,10,11)            100.891          calculate D2E/DX2 analytically  !
 ! D1    D(2,1,3,4)            149.9718         calculate D2E/DX2 analytically  !
 ! D2    D(2,1,3,8)            -89.1754         calculate D2E/DX2 analytically  !
 ! D3    D(2,1,3,9)             29.9328         calculate D2E/DX2 analytically  !
 ! D4    D(10,1,3,4)            90.6743         calculate D2E/DX2 analytically  !
 ! D5    D(10,1,3,8)          -148.473          calculate D2E/DX2 analytically  !
 ! D6    D(10,1,3,9)           -29.3648         calculate D2E/DX2 analytically  !
 ! D7    D(3,1,10,11)           11.8259         calculate D2E/DX2 analytically  !
 ! D8    D(11,2,10,1)         -106.4436         calculate D2E/DX2 analytically  !
 ! D9    D(1,3,4,5)            176.5619         calculate D2E/DX2 analytically  !
 ! D10   D(1,3,4,6)            -63.0759         calculate D2E/DX2 analytically  !
 ! D11   D(1,3,4,7)             56.918          calculate D2E/DX2 analytically  !
 ! D12   D(8,3,4,5)             51.5592         calculate D2E/DX2 analytically  !
 ! D13   D(8,3,4,6)            171.9214         calculate D2E/DX2 analytically  !
 ! D14   D(8,3,4,7)            -68.0847         calculate D2E/DX2 analytically  !
 ! D15   D(9,3,4,5)            -63.2228         calculate D2E/DX2 analytically  !
 ! D16   D(9,3,4,6)             57.1395         calculate D2E/DX2 analytically  !
 ! D17   D(9,3,4,7)            177.1333         calculate D2E/DX2 analytically  !
 --------------------------------------------------------------------------------
 Trust Radius=3.00D-01 FncErr=1.00D-07 GrdErr=1.00D-06 EigMax=2.50D+02 EigMin=1.00D-04
 Number of steps in this run=     54 maximum allowed number of steps=    100.
 GradGradGradGradGradGradGradGradGradGradGradGradGradGradGradGradGradGrad

 Leave Link  103 at Sat May 24 06:11:32 2025, MaxMem=  3758096384 cpu:               0.1 elap:               0.0
 (Enter /apps/easybuild-2022/easybuild/software/Compiler/NVHPC/22.11-CUDA-11.7.0/Gaussian/g16c01-CUDA-11.7.0/g16/l202.exe)
                          Input orientation:                          
 ---------------------------------------------------------------------
 Center     Atomic      Atomic             Coordinates (Angstroms)
 Number     Number       Type             X           Y           Z
 ---------------------------------------------------------------------
      1          6           0        1.424983    0.000000    0.000000
      2          8           0        0.000000    0.000000    0.000000
      3          6           0        1.862916    1.476851    0.000000
      4          6           0        3.212023    1.654517    0.718420
      5          9           0        3.609458    2.916997    0.645090
      6          9           0        3.105562    1.313390    1.991665
      7          9           0        4.128405    0.883474    0.139423
      8          9           0        2.004642    2.018206   -1.252481
      9          9           0        0.936186    2.210102    0.631609
     10          8           0        0.575592   -0.097425    1.324731
     11          1           0        0.399177    0.803085    1.670046
 ---------------------------------------------------------------------
                    Distance matrix (angstroms):
                    1          2          3          4          5
     1  C    0.000000
     2  O    1.424983   0.000000
     3  C    1.540414   2.377298   0.000000
     4  C    2.539107   3.683836   1.538760   0.000000
     5  F    3.700938   4.685424   2.353842   1.325589   0.000000
     6  F    2.918230   3.916150   2.353214   1.322442   2.153771
     7  F    2.847535   4.224180   2.346056   1.330226   2.158755
     8  F    2.444968   3.108127   1.371809   2.339763   2.642733
     9  F    2.349979   2.481920   1.339931   2.344279   2.765188
    10  O    1.576664   1.447657   2.427027   3.222992   4.330473
    11  H    2.118083   1.895611   2.320678   3.089115   3.978073
                    6          7          8          9         10
     6  F    0.000000
     7  F    2.159128   0.000000
     8  F    3.497609   2.781256   0.000000
     9  F    2.712938   3.491769   2.174446   0.000000
    10  O    2.972531   3.871640   3.627685   2.436212   0.000000
    11  H    2.772790   4.031924   3.548972   1.829325   0.980450
                   11
    11  H    0.000000
 Symmetry turned off by external request.
 Stoichiometry    C3HF5O2
 Rotational constants (GHZ):           2.1954526           1.1421256           1.0232523
 Leave Link  202 at Sat May 24 06:11:32 2025, MaxMem=  3758096384 cpu:               0.1 elap:               0.0
 (Enter /apps/easybuild-2022/easybuild/software/Compiler/NVHPC/22.11-CUDA-11.7.0/Gaussian/g16c01-CUDA-11.7.0/g16/l301.exe)
 Standard basis: def2TZVPP (5D, 7F)
 Ernie: Thresh=  0.10000D-02 Tol=  0.10000D-05 Strict=F.
   324 basis functions,   527 primitive gaussians,   375 cartesian basis functions
    40 alpha electrons       40 beta electrons
       nuclear repulsion energy       641.9326420076 Hartrees.
 IExCor= 4336 DFT=T Ex+Corr=M062X ExCW=0 ScaHFX=  0.540000
 ScaDFX=  1.000000  1.000000  1.000000  1.000000 ScalE2=  1.000000  1.000000
 IRadAn=      5 IRanWt=     -1 IRanGd=            0 ICorTp=0 IEmpDi=  4
 NAtoms=   11 NActive=   11 NUniq=   11 SFac= 1.00D+00 NAtFMM=   60 NAOKFM=F Big=F
 Integral buffers will be    131072 words long.
 Raffenetti 2 integral format.
 Two-electron integral symmetry is turned off.
 Leave Link  301 at Sat May 24 06:11:32 2025, MaxMem=  3758096384 cpu:               0.1 elap:               0.1
 (Enter /apps/easybuild-2022/easybuild/software/Compiler/NVHPC/22.11-CUDA-11.7.0/Gaussian/g16c01-CUDA-11.7.0/g16/l302.exe)
 NPDir=0 NMtPBC=     1 NCelOv=     1 NCel=       1 NClECP=     1 NCelD=      1
         NCelK=      1 NCelE2=     1 NClLst=     1 CellRange=     0.0.
 One-electron integrals computed using PRISM.
   1 Symmetry operations used in ECPInt.
 ECPInt:  NShTT=    6786 NPrTT=   21959 LenC2=    6486 LenP2D=   16057.
 LDataN:  DoStor=T MaxTD1= 6 Len=  172
 NBasis=   324 RedAO= T EigKep=  3.85D-04  NBF=   324
 NBsUse=   324 1.00D-06 EigRej= -1.00D+00 NBFU=   324
 Precomputing XC quadrature grid using
 IXCGrd= 4 IRadAn=           5 IRanWt=          -1 IRanGd=           0 AccXCQ= 0.00D+00.
 Generated NRdTot=       0 NPtTot=           0 NUsed=           0 NTot=          32
 NSgBfM=   374   374   374   374   374 MxSgAt=    11 MxSgA2=    11.
 Leave Link  302 at Sat May 24 06:11:32 2025, MaxMem=  3758096384 cpu:               0.9 elap:               0.2
 (Enter /apps/easybuild-2022/easybuild/software/Compiler/NVHPC/22.11-CUDA-11.7.0/Gaussian/g16c01-CUDA-11.7.0/g16/l303.exe)
 DipDrv:  MaxL=1.
 Leave Link  303 at Sat May 24 06:11:32 2025, MaxMem=  3758096384 cpu:               0.1 elap:               0.0
 (Enter /apps/easybuild-2022/easybuild/software/Compiler/NVHPC/22.11-CUDA-11.7.0/Gaussian/g16c01-CUDA-11.7.0/g16/l401.exe)
 ExpMin= 9.52D-02 ExpMax= 3.55D+04 ExpMxC= 1.21D+03 IAcc=3 IRadAn=         5 AccDes= 0.00D+00
 Harris functional with IExCor= 1009 and IRadAn=       5 diagonalized for initial guess.
 HarFok:  IExCor= 1009 AccDes= 0.00D+00 IRadAn=         5 IDoV= 1 UseB2=F ITyADJ=14
 ICtDFT=  3500011 ScaDFX=  1.000000  1.000000  1.000000  1.000000
 FoFCou: FMM=F IPFlag=           0 FMFlag=      100000 FMFlg1=           0
         NFxFlg=           0 DoJE=T BraDBF=F KetDBF=T FulRan=T
         wScrn=  0.000000 ICntrl=       500 IOpCl=  0 I1Cent=   200000004 NGrid=           0
         NMat0=    1 NMatS0=      1 NMatT0=    0 NMatD0=    1 NMtDS0=    0 NMtDT0=    0
 Symmetry not used in FoFCou.
 Harris En= -763.928382432320    
 JPrj=0 DoOrth=F DoCkMO=F.
 Leave Link  401 at Sat May 24 06:11:33 2025, MaxMem=  3758096384 cpu:               3.8 elap:               0.6
 (Enter /apps/easybuild-2022/easybuild/software/Compiler/NVHPC/22.11-CUDA-11.7.0/Gaussian/g16c01-CUDA-11.7.0/g16/l502.exe)
 Keep R1 ints in memory in canonical form, NReq=1412617130.
 FoFCou: FMM=F IPFlag=           0 FMFlag=           0 FMFlg1=           0
         NFxFlg=           0 DoJE=F BraDBF=F KetDBF=F FulRan=T
         wScrn=  0.000000 ICntrl=       600 IOpCl=  0 I1Cent=           0 NGrid=           0
         NMat0=    1 NMatS0=  52650 NMatT0=    0 NMatD0=    1 NMtDS0=    0 NMtDT0=    0
 Symmetry not used in FoFCou.
 Two-electron integral symmetry not used.
 Closed shell SCF:
 Using DIIS extrapolation, IDIIS=  1040.
 NGot=  3758096384 LenX=  2371771924 LenY=  2371630858
 Requested convergence on RMS density matrix=1.00D-08 within  32 cycles.
 Requested convergence on MAX density matrix=1.00D-06.
 Requested convergence on             energy=1.00D-06.
 No special actions if energy rises.
 Integral accuracy reduced to 1.0D-05 until final iterations.

 Cycle   1  Pass 0  IDiag  1:
 E= -764.297842645960    
 DIIS: error= 1.85D-02 at cycle   1 NSaved=   1.
 NSaved= 1 IEnMin= 1 EnMin= -764.297842645960     IErMin= 1 ErrMin= 1.85D-02
 ErrMax= 1.85D-02  0.00D+00 EMaxC= 1.00D-01 BMatC= 2.44D-01 BMatP= 2.44D-01
 IDIUse=3 WtCom= 8.15D-01 WtEn= 1.85D-01
 Coeff-Com:  0.100D+01
 Coeff-En:   0.100D+01
 Coeff:      0.100D+01
 Gap=     0.257 Goal=   None    Shift=    0.000
 GapD=    0.257 DampG=1.000 DampE=0.500 DampFc=0.5000 IDamp=-1.
 Damping current iteration by 5.00D-01
 RMSDP=1.94D-03 MaxDP=1.45D-01              OVMax= 8.68D-02

 Cycle   2  Pass 0  IDiag  1:
 E= -764.347830515828     Delta-E=       -0.049987869867 Rises=F Damp=T
 DIIS: error= 6.64D-03 at cycle   2 NSaved=   2.
 NSaved= 2 IEnMin= 2 EnMin= -764.347830515828     IErMin= 2 ErrMin= 6.64D-03
 ErrMax= 6.64D-03  0.00D+00 EMaxC= 1.00D-01 BMatC= 3.46D-02 BMatP= 2.44D-01
 IDIUse=3 WtCom= 9.34D-01 WtEn= 6.64D-02
 Coeff-Com: -0.983D-01 0.110D+01
 Coeff-En:   0.000D+00 0.100D+01
 Coeff:     -0.918D-01 0.109D+01
 Gap=     0.292 Goal=   None    Shift=    0.000
 RMSDP=6.71D-04 MaxDP=2.15D-02 DE=-5.00D-02 OVMax= 5.71D-02

 Cycle   3  Pass 0  IDiag  1:
 E= -764.398627709821     Delta-E=       -0.050797193993 Rises=F Damp=F
 DIIS: error= 3.79D-03 at cycle   3 NSaved=   3.
 NSaved= 3 IEnMin= 3 EnMin= -764.398627709821     IErMin= 3 ErrMin= 3.79D-03
 ErrMax= 3.79D-03  0.00D+00 EMaxC= 1.00D-01 BMatC= 1.51D-02 BMatP= 3.46D-02
 IDIUse=3 WtCom= 9.62D-01 WtEn= 3.79D-02
 Coeff-Com: -0.177D+00 0.471D+00 0.706D+00
 Coeff-En:   0.000D+00 0.000D+00 0.100D+01
 Coeff:     -0.170D+00 0.453D+00 0.717D+00
 Gap=     0.300 Goal=   None    Shift=    0.000
 RMSDP=2.42D-04 MaxDP=1.35D-02 DE=-5.08D-02 OVMax= 2.72D-02

 Cycle   4  Pass 0  IDiag  1:
 E= -764.406073640529     Delta-E=       -0.007445930708 Rises=F Damp=F
 DIIS: error= 2.08D-03 at cycle   4 NSaved=   4.
 NSaved= 4 IEnMin= 4 EnMin= -764.406073640529     IErMin= 4 ErrMin= 2.08D-03
 ErrMax= 2.08D-03  0.00D+00 EMaxC= 1.00D-01 BMatC= 3.24D-03 BMatP= 1.51D-02
 IDIUse=3 WtCom= 9.79D-01 WtEn= 2.08D-02
 Coeff-Com: -0.937D-01 0.196D+00 0.421D+00 0.477D+00
 Coeff-En:   0.000D+00 0.000D+00 0.148D+00 0.852D+00
 Coeff:     -0.918D-01 0.192D+00 0.416D+00 0.485D+00
 Gap=     0.300 Goal=   None    Shift=    0.000
 RMSDP=9.23D-05 MaxDP=5.15D-03 DE=-7.45D-03 OVMax= 1.20D-02

 Cycle   5  Pass 0  IDiag  1:
 E= -764.408112576677     Delta-E=       -0.002038936148 Rises=F Damp=F
 DIIS: error= 2.91D-04 at cycle   5 NSaved=   5.
 NSaved= 5 IEnMin= 5 EnMin= -764.408112576677     IErMin= 5 ErrMin= 2.91D-04
 ErrMax= 2.91D-04  0.00D+00 EMaxC= 1.00D-01 BMatC= 8.74D-05 BMatP= 3.24D-03
 IDIUse=3 WtCom= 9.97D-01 WtEn= 2.91D-03
 Coeff-Com: -0.241D-01 0.427D-01 0.114D+00 0.202D+00 0.665D+00
 Coeff-En:   0.000D+00 0.000D+00 0.000D+00 0.000D+00 0.100D+01
 Coeff:     -0.240D-01 0.425D-01 0.114D+00 0.202D+00 0.666D+00
 Gap=     0.298 Goal=   None    Shift=    0.000
 RMSDP=2.16D-05 MaxDP=1.40D-03 DE=-2.04D-03 OVMax= 2.03D-03

 Cycle   6  Pass 0  IDiag  1:
 E= -764.408171511770     Delta-E=       -0.000058935094 Rises=F Damp=F
 DIIS: error= 7.66D-05 at cycle   6 NSaved=   6.
 NSaved= 6 IEnMin= 6 EnMin= -764.408171511770     IErMin= 6 ErrMin= 7.66D-05
 ErrMax= 7.66D-05  0.00D+00 EMaxC= 1.00D-01 BMatC= 4.26D-06 BMatP= 8.74D-05
 IDIUse=1 WtCom= 1.00D+00 WtEn= 0.00D+00
 Coeff-Com: -0.408D-02 0.556D-02 0.183D-01 0.382D-01 0.217D+00 0.724D+00
 Coeff:     -0.408D-02 0.556D-02 0.183D-01 0.382D-01 0.217D+00 0.724D+00
 Gap=     0.298 Goal=   None    Shift=    0.000
 RMSDP=7.26D-06 MaxDP=5.18D-04 DE=-5.89D-05 OVMax= 6.24D-04

 Initial convergence to 1.0D-05 achieved.  Increase integral accuracy.
 Cycle   7  Pass 1  IDiag  1:
 E= -764.408155430934     Delta-E=        0.000016080837 Rises=F Damp=F
 DIIS: error= 2.24D-05 at cycle   1 NSaved=   1.
 NSaved= 1 IEnMin= 1 EnMin= -764.408155430934     IErMin= 1 ErrMin= 2.24D-05
 ErrMax= 2.24D-05  0.00D+00 EMaxC= 1.00D-01 BMatC= 1.18D-06 BMatP= 1.18D-06
 IDIUse=1 WtCom= 1.00D+00 WtEn= 0.00D+00
 Coeff-Com:  0.100D+01
 Coeff:      0.100D+01
 Gap=     0.298 Goal=   None    Shift=    0.000
 RMSDP=7.26D-06 MaxDP=5.18D-04 DE= 1.61D-05 OVMax= 4.73D-04

 Cycle   8  Pass 1  IDiag  1:
 E= -764.408155767156     Delta-E=       -0.000000336222 Rises=F Damp=F
 DIIS: error= 2.79D-05 at cycle   2 NSaved=   2.
 NSaved= 2 IEnMin= 2 EnMin= -764.408155767156     IErMin= 1 ErrMin= 2.24D-05
 ErrMax= 2.79D-05  0.00D+00 EMaxC= 1.00D-01 BMatC= 1.08D-06 BMatP= 1.18D-06
 IDIUse=1 WtCom= 1.00D+00 WtEn= 0.00D+00
 Coeff-Com:  0.486D+00 0.514D+00
 Coeff:      0.486D+00 0.514D+00
 Gap=     0.298 Goal=   None    Shift=    0.000
 RMSDP=2.31D-06 MaxDP=1.73D-04 DE=-3.36D-07 OVMax= 1.84D-04

 Cycle   9  Pass 1  IDiag  1:
 E= -764.408156472045     Delta-E=       -0.000000704889 Rises=F Damp=F
 DIIS: error= 4.32D-06 at cycle   3 NSaved=   3.
 NSaved= 3 IEnMin= 3 EnMin= -764.408156472045     IErMin= 3 ErrMin= 4.32D-06
 ErrMax= 4.32D-06  0.00D+00 EMaxC= 1.00D-01 BMatC= 2.52D-08 BMatP= 1.08D-06
 IDIUse=1 WtCom= 1.00D+00 WtEn= 0.00D+00
 Coeff-Com: -0.374D-01 0.949D-01 0.943D+00
 Coeff:     -0.374D-01 0.949D-01 0.943D+00
 Gap=     0.298 Goal=   None    Shift=    0.000
 RMSDP=8.80D-07 MaxDP=4.46D-05 DE=-7.05D-07 OVMax= 6.48D-05

 Cycle  10  Pass 1  IDiag  1:
 E= -764.408156497045     Delta-E=       -0.000000025000 Rises=F Damp=F
 DIIS: error= 1.98D-06 at cycle   4 NSaved=   4.
 NSaved= 4 IEnMin= 4 EnMin= -764.408156497045     IErMin= 4 ErrMin= 1.98D-06
 ErrMax= 1.98D-06  0.00D+00 EMaxC= 1.00D-01 BMatC= 3.58D-09 BMatP= 2.52D-08
 IDIUse=1 WtCom= 1.00D+00 WtEn= 0.00D+00
 Coeff-Com: -0.301D-01 0.204D-01 0.391D+00 0.618D+00
 Coeff:     -0.301D-01 0.204D-01 0.391D+00 0.618D+00
 Gap=     0.298 Goal=   None    Shift=    0.000
 RMSDP=1.69D-07 MaxDP=5.08D-06 DE=-2.50D-08 OVMax= 2.18D-05

 Cycle  11  Pass 1  IDiag  1:
 E= -764.408156500097     Delta-E=       -0.000000003051 Rises=F Damp=F
 DIIS: error= 6.65D-07 at cycle   5 NSaved=   5.
 NSaved= 5 IEnMin= 5 EnMin= -764.408156500097     IErMin= 5 ErrMin= 6.65D-07
 ErrMax= 6.65D-07  0.00D+00 EMaxC= 1.00D-01 BMatC= 4.83D-10 BMatP= 3.58D-09
 IDIUse=1 WtCom= 1.00D+00 WtEn= 0.00D+00
 Coeff-Com: -0.258D-02-0.133D-01-0.441D-01 0.216D+00 0.844D+00
 Coeff:     -0.258D-02-0.133D-01-0.441D-01 0.216D+00 0.844D+00
 Gap=     0.298 Goal=   None    Shift=    0.000
 RMSDP=1.17D-07 MaxDP=5.01D-06 DE=-3.05D-09 OVMax= 1.98D-05

 Cycle  12  Pass 1  IDiag  1:
 E= -764.408156500829     Delta-E=       -0.000000000733 Rises=F Damp=F
 DIIS: error= 5.72D-07 at cycle   6 NSaved=   6.
 NSaved= 6 IEnMin= 6 EnMin= -764.408156500829     IErMin= 6 ErrMin= 5.72D-07
 ErrMax= 5.72D-07  0.00D+00 EMaxC= 1.00D-01 BMatC= 1.71D-10 BMatP= 4.83D-10
 IDIUse=1 WtCom= 1.00D+00 WtEn= 0.00D+00
 Coeff-Com:  0.314D-02-0.117D-01-0.886D-01 0.234D-01 0.469D+00 0.604D+00
 Coeff:      0.314D-02-0.117D-01-0.886D-01 0.234D-01 0.469D+00 0.604D+00
 Gap=     0.298 Goal=   None    Shift=    0.000
 RMSDP=5.38D-08 MaxDP=2.17D-06 DE=-7.33D-10 OVMax= 9.10D-06

 Cycle  13  Pass 1  IDiag  1:
 E= -764.408156501054     Delta-E=       -0.000000000225 Rises=F Damp=F
 DIIS: error= 1.19D-07 at cycle   7 NSaved=   7.
 NSaved= 7 IEnMin= 7 EnMin= -764.408156501054     IErMin= 7 ErrMin= 1.19D-07
 ErrMax= 1.19D-07  0.00D+00 EMaxC= 1.00D-01 BMatC= 2.05D-11 BMatP= 1.71D-10
 IDIUse=1 WtCom= 1.00D+00 WtEn= 0.00D+00
 Coeff-Com:  0.185D-02-0.272D-02-0.298D-01-0.255D-01 0.549D-01 0.262D+00
 Coeff-Com:  0.739D+00
 Coeff:      0.185D-02-0.272D-02-0.298D-01-0.255D-01 0.549D-01 0.262D+00
 Coeff:      0.739D+00
 Gap=     0.298 Goal=   None    Shift=    0.000
 RMSDP=2.87D-08 MaxDP=8.88D-07 DE=-2.25D-10 OVMax= 5.43D-06

 Cycle  14  Pass 1  IDiag  1:
 E= -764.408156501051     Delta-E=        0.000000000004 Rises=F Damp=F
 DIIS: error= 7.24D-08 at cycle   8 NSaved=   8.
 NSaved= 8 IEnMin= 7 EnMin= -764.408156501054     IErMin= 8 ErrMin= 7.24D-08
 ErrMax= 7.24D-08  0.00D+00 EMaxC= 1.00D-01 BMatC= 3.84D-12 BMatP= 2.05D-11
 IDIUse=1 WtCom= 1.00D+00 WtEn= 0.00D+00
 Coeff-Com: -0.294D-03 0.250D-02 0.160D-01-0.147D-01-0.120D+00-0.928D-01
 Coeff-Com:  0.219D+00 0.990D+00
 Coeff:     -0.294D-03 0.250D-02 0.160D-01-0.147D-01-0.120D+00-0.928D-01
 Coeff:      0.219D+00 0.990D+00
 Gap=     0.298 Goal=   None    Shift=    0.000
 RMSDP=2.32D-08 MaxDP=8.52D-07 DE= 3.64D-12 OVMax= 4.35D-06

 Cycle  15  Pass 1  IDiag  1:
 E= -764.408156501105     Delta-E=       -0.000000000054 Rises=F Damp=F
 DIIS: error= 2.40D-08 at cycle   9 NSaved=   9.
 NSaved= 9 IEnMin= 9 EnMin= -764.408156501105     IErMin= 9 ErrMin= 2.40D-08
 ErrMax= 2.40D-08  0.00D+00 EMaxC= 1.00D-01 BMatC= 4.74D-13 BMatP= 3.84D-12
 IDIUse=1 WtCom= 1.00D+00 WtEn= 0.00D+00
 Coeff-Com: -0.357D-03 0.102D-02 0.841D-02 0.572D-03-0.363D-01-0.655D-01
 Coeff-Com: -0.766D-01 0.256D+00 0.912D+00
 Coeff:     -0.357D-03 0.102D-02 0.841D-02 0.572D-03-0.363D-01-0.655D-01
 Coeff:     -0.766D-01 0.256D+00 0.912D+00
 Gap=     0.298 Goal=   None    Shift=    0.000
 RMSDP=7.56D-09 MaxDP=2.91D-07 DE=-5.43D-11 OVMax= 1.47D-06

 SCF Done:  E(RM062X) =  -764.408156501     A.U. after   15 cycles
            NFock= 15  Conv=0.76D-08     -V/T= 2.0036
 KE= 7.616565392038D+02 PE=-3.095245209179D+03 EE= 9.272478714664D+02
 Leave Link  502 at Sat May 24 06:12:03 2025, MaxMem=  3758096384 cpu:             134.8 elap:              30.2
 (Enter /apps/easybuild-2022/easybuild/software/Compiler/NVHPC/22.11-CUDA-11.7.0/Gaussian/g16c01-CUDA-11.7.0/g16/l508.exe)
 QCSCF skips out because SCF is already converged.
 Leave Link  508 at Sat May 24 06:12:03 2025, MaxMem=  3758096384 cpu:               0.1 elap:               0.0
 (Enter /apps/easybuild-2022/easybuild/software/Compiler/NVHPC/22.11-CUDA-11.7.0/Gaussian/g16c01-CUDA-11.7.0/g16/l801.exe)
 DoSCS=F DFT=T ScalE2(SS,OS)=  1.000000  1.000000
 Range of M.O.s used for correlation:     1   324
 NBasis=   324 NAE=    40 NBE=    40 NFC=     0 NFV=     0
 NROrb=    324 NOA=    40 NOB=    40 NVA=   284 NVB=   284

 **** Warning!!: The largest alpha MO coefficient is  0.15372646D+02

 Leave Link  801 at Sat May 24 06:12:03 2025, MaxMem=  3758096384 cpu:               0.1 elap:               0.0
 (Enter /apps/easybuild-2022/easybuild/software/Compiler/NVHPC/22.11-CUDA-11.7.0/Gaussian/g16c01-CUDA-11.7.0/g16/l1101.exe)
 Using compressed storage, NAtomX=    11.
 Will process     12 centers per pass.
   1 Symmetry operations used in ECPInt.
 ECPInt:  NShTT=    6786 NPrTT=   21959 LenC2=    6486 LenP2D=   16057.
 LDataN:  DoStor=T MaxTD1= 7 Len=  274
 Leave Link 1101 at Sat May 24 06:12:03 2025, MaxMem=  3758096384 cpu:               1.2 elap:               0.2
 (Enter /apps/easybuild-2022/easybuild/software/Compiler/NVHPC/22.11-CUDA-11.7.0/Gaussian/g16c01-CUDA-11.7.0/g16/l1102.exe)
 Symmetrizing basis deriv contribution to polar:
 IMax=3 JMax=2 DiffMx= 0.00D+00
 Leave Link 1102 at Sat May 24 06:12:03 2025, MaxMem=  3758096384 cpu:               0.1 elap:               0.0
 (Enter /apps/easybuild-2022/easybuild/software/Compiler/NVHPC/22.11-CUDA-11.7.0/Gaussian/g16c01-CUDA-11.7.0/g16/l1110.exe)
 Forming Gx(P) for the SCF density, NAtomX=    11.
 Integral derivatives from FoFJK, PRISM(SPDF).
 Do as many integral derivatives as possible in FoFJK.
 G2DrvN: MDV=    3758095115.
 G2DrvN: will do    12 centers at a time, making    1 passes.
 Calling FoFCou, ICntrl=  3107 FMM=F I1Cent=   0 AccDes= 0.00D+00.
 FoFJK:  IHMeth= 1 ICntrl=    3107 DoSepK=F KAlg= 0 I1Cent=           0 FoldK=F
 IRaf=         0 NMat=       1 IRICut=       1 DoRegI=T DoRafI=F ISym2E= 0 IDoP0=0 IntGTp=1.
 FoFCou: FMM=F IPFlag=           0 FMFlag=      100000 FMFlg1=           0
         NFxFlg=           0 DoJE=F BraDBF=F KetDBF=F FulRan=T
         wScrn=  0.000000 ICntrl=      3107 IOpCl=  0 I1Cent=           0 NGrid=           0
         NMat0=    1 NMatS0=      1 NMatT0=    0 NMatD0=    1 NMtDS0=    0 NMtDT0=    0
 Symmetry not used in FoFCou.
 End of G2Drv F.D. properties file   721 does not exist.
 End of G2Drv F.D. properties file   722 does not exist.
 End of G2Drv F.D. properties file   788 does not exist.
 Leave Link 1110 at Sat May 24 06:12:44 2025, MaxMem=  3758096384 cpu:             322.9 elap:              40.7
 (Enter /apps/easybuild-2022/easybuild/software/Compiler/NVHPC/22.11-CUDA-11.7.0/Gaussian/g16c01-CUDA-11.7.0/g16/l1002.exe)
 Minotr:  Closed shell wavefunction.
          IDoAtm=11111111111
          Direct CPHF calculation.
          Differentiating once with respect to nuclear coordinates.
          Requested convergence is 1.0D-08 RMS, and 1.0D-07 maximum.
          Secondary convergence is 1.0D-12 RMS, and 1.0D-12 maximum.
          NewPWx=T KeepS1=F KeepF1=F KeepIn=T MapXYZ=F SortEE=F KeepMc=T.
         3307 words used for storage of precomputed grid.
 Keep R1 ints in memory in canonical form, NReq=1412622537.
 FoFCou: FMM=F IPFlag=           0 FMFlag=           0 FMFlg1=           0
         NFxFlg=           0 DoJE=F BraDBF=F KetDBF=F FulRan=T
         wScrn=  0.000000 ICntrl=       600 IOpCl=  0 I1Cent=           0 NGrid=           0
         NMat0=    1 NMatS0=  52650 NMatT0=    0 NMatD0=    1 NMtDS0=    0 NMtDT0=    0
 Symmetry not used in FoFCou.
 Two-electron integral symmetry not used.
          MDV=    3758096384 using IRadAn=       1.
          Solving linear equations simultaneously, MaxMat=       0.
          There are    36 degrees of freedom in the 1st order CPHF.  IDoFFX=6 NUNeed=     0.
     30 vectors produced by pass  0 Test12= 3.16D-14 2.78D-09 XBig12= 1.12D-01 9.31D-02.
 AX will form    30 AO Fock derivatives at one time.
     30 vectors produced by pass  1 Test12= 3.16D-14 2.78D-09 XBig12= 1.69D-02 2.42D-02.
     30 vectors produced by pass  2 Test12= 3.16D-14 2.78D-09 XBig12= 1.20D-03 5.95D-03.
     30 vectors produced by pass  3 Test12= 3.16D-14 2.78D-09 XBig12= 2.36D-05 8.09D-04.
     30 vectors produced by pass  4 Test12= 3.16D-14 2.78D-09 XBig12= 3.16D-07 1.48D-04.
     30 vectors produced by pass  5 Test12= 3.16D-14 2.78D-09 XBig12= 3.87D-09 1.03D-05.
     30 vectors produced by pass  6 Test12= 3.16D-14 2.78D-09 XBig12= 3.33D-11 9.49D-07.
     14 vectors produced by pass  7 Test12= 3.16D-14 2.78D-09 XBig12= 1.94D-13 4.86D-08.
      2 vectors produced by pass  8 Test12= 3.16D-14 2.78D-09 XBig12= 9.25D-16 3.35D-09.
 InvSVY:  IOpt=1 It=  1 EMax= 1.44D-15
 Solved reduced A of dimension   226 with    30 vectors.
 End of Minotr F.D. properties file   721 does not exist.
 End of Minotr F.D. properties file   722 does not exist.
 End of Minotr F.D. properties file   788 does not exist.
 Leave Link 1002 at Sat May 24 06:13:46 2025, MaxMem=  3758096384 cpu:             483.4 elap:              61.5
 (Enter /apps/easybuild-2022/easybuild/software/Compiler/NVHPC/22.11-CUDA-11.7.0/Gaussian/g16c01-CUDA-11.7.0/g16/l701.exe)
 ... and contract with generalized density number  0.
 Compute integral second derivatives.
   1 Symmetry operations used in ECPInt.
 ECPInt:  NShTT=    6786 NPrTT=   21959 LenC2=    6486 LenP2D=   16057.
 LDataN:  DoStor=T MaxTD1= 8 Len=  415
 Leave Link  701 at Sat May 24 06:13:46 2025, MaxMem=  3758096384 cpu:               0.9 elap:               0.2
 (Enter /apps/easybuild-2022/easybuild/software/Compiler/NVHPC/22.11-CUDA-11.7.0/Gaussian/g16c01-CUDA-11.7.0/g16/l702.exe)
 L702 exits ... SP integral derivatives will be done elsewhere.
 Leave Link  702 at Sat May 24 06:13:46 2025, MaxMem=  3758096384 cpu:               0.1 elap:               0.0
 (Enter /apps/easybuild-2022/easybuild/software/Compiler/NVHPC/22.11-CUDA-11.7.0/Gaussian/g16c01-CUDA-11.7.0/g16/l703.exe)
 Integral derivatives from FoFJK, PRISM(SPDF).
 Compute integral second derivatives, UseDBF=F ICtDFT=           0.
 Calling FoFJK, ICntrl=    100127 FMM=F ISym2X=0 I1Cent= 0 IOpClX= 0 NMat=1 NMatS=1 NMatT=0.
 FoFJK:  IHMeth= 1 ICntrl=  100127 DoSepK=F KAlg= 0 I1Cent=           0 FoldK=F
 IRaf=         0 NMat=       1 IRICut=       1 DoRegI=T DoRafI=F ISym2E= 0 IDoP0=0 IntGTp=1.
 FoFCou: FMM=F IPFlag=           0 FMFlag=      100000 FMFlg1=         800
         NFxFlg=           0 DoJE=F BraDBF=F KetDBF=F FulRan=T
         wScrn=  0.000000 ICntrl=    100127 IOpCl=  0 I1Cent=           0 NGrid=           0
         NMat0=    1 NMatS0=      1 NMatT0=    0 NMatD0=    1 NMtDS0=    0 NMtDT0=    0
 Symmetry not used in FoFCou.
 Leave Link  703 at Sat May 24 06:15:19 2025, MaxMem=  3758096384 cpu:             738.3 elap:              93.0
 (Enter /apps/easybuild-2022/easybuild/software/Compiler/NVHPC/22.11-CUDA-11.7.0/Gaussian/g16c01-CUDA-11.7.0/g16/l716.exe)
 Dipole        =-6.38921668D-01 4.02457025D-01 8.64833141D-01
 Polarizability= 0.00000000D+00 0.00000000D+00 0.00000000D+00
                 0.00000000D+00 0.00000000D+00 0.00000000D+00
 -------------------------------------------------------------------
 Center     Atomic                   Forces (Hartrees/Bohr)
 Number     Number              X              Y              Z
 -------------------------------------------------------------------
      1        6           0.003960639   -0.011038172   -0.011340169
      2        8           0.001687222    0.000875554   -0.000377901
      3        6           0.005789781    0.004238084   -0.017007264
      4        6           0.006185304   -0.000992670   -0.014802764
      5        9          -0.000169342    0.000374695    0.002051094
      6        9          -0.002546672   -0.002229130    0.007629372
      7        9          -0.003007168    0.004595503    0.003480646
      8        9          -0.004936108   -0.021063824    0.020386716
      9        9          -0.007370144    0.028798450    0.010995764
     10        8           0.001186909   -0.002229059   -0.001096821
     11        1          -0.000780420   -0.001329431    0.000081328
 -------------------------------------------------------------------
 Cartesian Forces:  Max     0.028798450 RMS     0.009347664
 Force constants in Cartesian coordinates: 
                1             2             3             4             5 
      1  0.369432D+00
      2  0.213734D-01  0.274901D+00
      3 -0.699074D-01  0.175456D-01  0.120088D+00
      4 -0.248921D+00 -0.118158D-01  0.315200D-01  0.319984D+00
      5  0.338097D-01 -0.403936D-01  0.145159D-01  0.169437D-01  0.856913D-01
      6  0.284302D-03  0.338886D-02 -0.566187D-02  0.107813D+00  0.612952D-02
      7 -0.563501D-01  0.135678D-01 -0.873285D-02 -0.481587D-01 -0.467401D-01
      8 -0.606076D-01 -0.152724D+00  0.128980D-01 -0.348493D-02 -0.109038D-01
      9 -0.112691D-01 -0.132684D-01 -0.485298D-01 -0.162961D-01 -0.237139D-01
     10 -0.110326D-01 -0.186790D-01 -0.269222D-02  0.682196D-02  0.490914D-02
     11 -0.240868D-01  0.609983D-02 -0.941708D-02 -0.167624D-02 -0.102198D-01
     12 -0.781458D-02 -0.697064D-02  0.101497D-01  0.547308D-02  0.257356D-02
     13 -0.215186D-02  0.658982D-02 -0.341684D-02 -0.383382D-02 -0.339335D-02
     14 -0.873392D-03  0.415830D-02 -0.287906D-02 -0.395447D-02 -0.149738D-02
     15 -0.468351D-03  0.212196D-02 -0.193428D-02 -0.133615D-02 -0.110838D-02
     16  0.453800D-04  0.118397D-02  0.193119D-02 -0.615076D-03 -0.553439D-03
     17  0.201993D-03 -0.115727D-02  0.136936D-02  0.297295D-04  0.105869D-02
     18  0.224506D-02  0.174284D-02 -0.247530D-02 -0.174272D-02 -0.582486D-03
     19 -0.119992D-02  0.703736D-03 -0.306179D-03 -0.639772D-03 -0.617764D-03
     20 -0.104528D-02 -0.456846D-02 -0.136383D-02 -0.724555D-03  0.248014D-02
     21  0.754593D-03 -0.168405D-02 -0.880719D-03 -0.499465D-03  0.570188D-03
     22  0.103859D-02 -0.313913D-02  0.959056D-02  0.349396D-02  0.358340D-02
     23  0.295532D-02 -0.822357D-03  0.268539D-01 -0.312202D-04  0.408397D-02
     24  0.157161D-02  0.291513D-02 -0.105146D-01  0.325783D-02  0.273841D-03
     25 -0.928947D-02  0.122687D-01  0.889441D-02  0.898466D-02 -0.127216D-01
     26  0.326420D-01 -0.586553D-01 -0.209652D-01  0.310537D-03  0.487353D-02
     27  0.141400D-01 -0.193931D-01 -0.591649D-02  0.658981D-03  0.144980D-02
     28 -0.355584D-01 -0.386324D-01  0.216874D-01 -0.353779D-01  0.225450D-01
     29 -0.137217D-01 -0.316847D-01 -0.274838D-01  0.498507D-02 -0.376548D-01
     30  0.741887D-01  0.242041D-01 -0.445828D-01 -0.132184D+00  0.260581D-01
     31 -0.601254D-02  0.165789D-01  0.114320D-01 -0.173813D-02 -0.177646D-01
     32  0.935239D-02  0.484673D-02 -0.110739D-01 -0.581876D-03  0.248162D-02
     33 -0.372476D-02 -0.106023D-01 -0.974147D-02  0.333588D-02 -0.261662D-01
                6             7             8             9            10 
      6  0.266929D+00
      7  0.469485D-02  0.582775D+00
      8 -0.454161D-02 -0.261712D-01  0.531850D+00
      9 -0.216728D-02 -0.816508D-03 -0.593582D-02  0.493426D+00
     10 -0.110673D-02 -0.173253D+00 -0.475245D-02 -0.685246D-01  0.629203D+00
     11 -0.814435D-03 -0.386150D-01 -0.671800D-01 -0.196273D-01  0.143834D-01
     12 -0.134181D-02 -0.712501D-01  0.780879D-03 -0.741632D-01  0.207748D-01
     13  0.326517D-03 -0.102028D-01 -0.483992D-01  0.528543D-03 -0.121633D+00
     14  0.445664D-03 -0.835554D-02 -0.390326D-01  0.330567D-02 -0.921479D-01
     15  0.225131D-03 -0.561402D-02 -0.160666D-01  0.182255D-02 -0.325238D-02
     16 -0.279331D-04  0.895528D-02  0.691477D-02 -0.227572D-01 -0.845386D-01
     17 -0.438480D-03  0.168505D-03  0.575589D-02  0.444917D-02  0.956854D-03
     18  0.970602D-03  0.156412D-01  0.986884D-02 -0.387203D-01 -0.194673D-01
     19  0.158041D-03 -0.230626D-01  0.286589D-01  0.289003D-01 -0.223195D+00
     20  0.687641D-03  0.965981D-02 -0.145499D-02 -0.810514D-02  0.963241D-01
     21  0.336655D-03 -0.258654D-03  0.256815D-03  0.244354D-02  0.607443D-01
     22 -0.427751D-03 -0.755927D-01 -0.694495D-02  0.502472D-02  0.608778D-02
     23  0.930168D-03  0.287584D-02 -0.117250D+00  0.774492D-01 -0.678532D-02
     24 -0.635306D-03 -0.955902D-02  0.771764D-01 -0.215790D+00  0.121340D-01
     25 -0.808046D-03 -0.193737D+00  0.100549D+00  0.585468D-01 -0.272586D-01
     26  0.121934D-02  0.993773D-01 -0.149264D+00 -0.536950D-01  0.625090D-02
     27 -0.583909D-03  0.648726D-01 -0.584196D-01 -0.935541D-01 -0.503255D-04
     28 -0.891183D-01 -0.718286D-02  0.131824D-01  0.208775D-01  0.175911D-02
     29 -0.136406D-01  0.543990D-02 -0.113417D-01  0.292899D-01  0.549411D-03
     30 -0.226413D+00  0.205744D-02 -0.146761D-01 -0.196146D-01 -0.395909D-03
     31 -0.217877D-01 -0.419100D-02  0.105523D-02  0.578562D-02 -0.296033D-02
     32  0.663393D-02 -0.112073D-01  0.115448D-01  0.985161D-02 -0.100909D-02
     33 -0.316587D-01  0.896507D-02 -0.134122D-02 -0.515235D-02  0.183640D-02
               11            12            13            14            15 
     11  0.588476D+00
     12 -0.289982D-02  0.614264D+00
     13 -0.836057D-01 -0.616795D-02  0.107846D+00
     14 -0.278895D+00 -0.432901D-02  0.105234D+00  0.415813D+00
     15  0.185479D-02 -0.774594D-01 -0.902827D-02 -0.194860D-01  0.828899D-01
     16 -0.735745D-03 -0.105921D-01  0.912340D-02 -0.170069D-01  0.218840D-01
     17 -0.866592D-01  0.563979D-01 -0.132703D-01 -0.383277D-01  0.590912D-01
     18  0.547428D-01 -0.316704D+00  0.141388D-01  0.431698D-01 -0.190636D-01
     19  0.885393D-01  0.519533D-01  0.176585D-01  0.176146D-01  0.175030D-02
     20 -0.141813D+00 -0.425258D-01  0.337659D-01 -0.730339D-01 -0.251535D-01
     21 -0.449981D-01 -0.107117D+00  0.435597D-02 -0.199597D-01  0.818775D-02
     22  0.122235D-01 -0.227625D-01  0.115684D-02  0.168200D-02 -0.922432D-03
     23 -0.394860D-02  0.736755D-02  0.203805D-02  0.532190D-02 -0.305927D-02
     24  0.189428D-01 -0.420292D-01 -0.102861D-02 -0.172194D-02  0.332922D-02
     25  0.350142D-01  0.322286D-01  0.223906D-02 -0.257196D-02 -0.187930D-02
     26 -0.870359D-02 -0.848542D-02  0.677816D-03  0.574199D-02  0.158329D-02
     27  0.191833D-02 -0.170603D-02  0.985069D-04  0.109944D-02  0.137702D-02
     28 -0.997289D-04  0.340084D-02 -0.529334D-03 -0.240101D-03 -0.587263D-03
     29  0.165482D-02 -0.231745D-02  0.651393D-03  0.747665D-03  0.422847D-03
     30  0.384152D-03 -0.744442D-02  0.739738D-03  0.486894D-03  0.117930D-02
     31 -0.134109D-02  0.475660D-02  0.326706D-03  0.619872D-03 -0.546141D-03
     32  0.118885D-02  0.408237D-03 -0.288193D-03 -0.996166D-03 -0.200273D-03
     33 -0.861561D-04  0.355078D-02 -0.546351D-03 -0.131733D-03 -0.553694D-03
               16            17            18            19            20 
     16  0.743881D-01
     17  0.642499D-02  0.105495D+00
     18 -0.299472D-01 -0.952848D-01  0.433740D+00
     19 -0.397280D-02  0.576138D-02  0.370597D-01  0.247776D+00
     20  0.347809D-02  0.128073D-01 -0.148558D-01 -0.142132D+00  0.203964D+00
     21  0.511616D-01 -0.245964D-01 -0.563155D-01 -0.111090D+00  0.889850D-01
     22 -0.482454D-02 -0.601998D-04 -0.845754D-02  0.869997D-03 -0.934585D-03
     23  0.174560D-02  0.937870D-03  0.572677D-03  0.326101D-03  0.717482D-03
     24 -0.832567D-02  0.729744D-04 -0.849553D-02 -0.531660D-02  0.666433D-03
     25  0.122124D-02 -0.138657D-02 -0.448794D-02 -0.145527D-01  0.261209D-02
     26 -0.870619D-03  0.128576D-02  0.746472D-03  0.171866D-03  0.146696D-02
     27 -0.156539D-02  0.374678D-03  0.546297D-02 -0.217130D-02  0.525992D-03
     28 -0.128798D-02  0.334086D-03 -0.262377D-02 -0.504445D-03 -0.388472D-03
     29 -0.917522D-03 -0.541688D-03  0.823635D-04 -0.430201D-03  0.377393D-03
     30 -0.162219D-02 -0.169676D-02  0.372227D-02 -0.181563D-03  0.102108D-02
     31  0.150552D-02  0.839532D-03 -0.235816D-02  0.822902D-03 -0.615529D-03
     32  0.336803D-03 -0.654425D-03 -0.202656D-03  0.140364D-02 -0.942562D-03
     33 -0.139164D-03  0.261166D-03 -0.212222D-02 -0.756340D-03  0.117810D-03
               21            22            23            24            25 
     21  0.146956D+00
     22 -0.662709D-03  0.755913D-01
     23  0.988826D-04  0.198547D-02  0.102196D+00
     24  0.416928D-02 -0.267814D-01 -0.953347D-01  0.322497D+00
     25 -0.263300D-02 -0.781867D-02 -0.744054D-04  0.361322D-01  0.237409D+00
     26  0.106090D-02 -0.544883D-02  0.173637D-01 -0.404272D-02 -0.129664D+00
     27  0.114834D-02  0.453585D-01 -0.184267D-01 -0.564325D-01 -0.117375D+00
     28 -0.923555D-03 -0.343540D-03 -0.593621D-02 -0.417736D-03  0.152729D-02
     29  0.633246D-03 -0.472749D-02 -0.711481D-02  0.402640D-02 -0.107873D-01
     30  0.157699D-02  0.116306D-02  0.442105D-02  0.235216D-02 -0.426001D-02
     31 -0.949500D-03  0.340907D-03  0.900770D-03 -0.166660D-02  0.127481D-02
     32 -0.366880D-03  0.178081D-02 -0.148578D-02 -0.297465D-02  0.676236D-02
     33 -0.505996D-03 -0.112249D-02 -0.872784D-03  0.155013D-02 -0.435927D-02
               26            27            28            29            30 
     26  0.214382D+00
     27  0.780648D-01  0.143384D+00
     28 -0.105021D-02 -0.492399D-03  0.114962D+00
     29 -0.160259D-01  0.161814D-01 -0.563418D-01  0.502431D+00
     30  0.378499D-02  0.478461D-02  0.259629D-01  0.930577D-01  0.357814D+00
     31 -0.239629D-02 -0.347465D-02 -0.374639D-01  0.753002D-01  0.345320D-01
     32 -0.124651D-01 -0.337506D-02  0.666274D-01 -0.400848D+00 -0.137045D+00
     33  0.728479D-03  0.203579D-02  0.222344D-01 -0.100252D+00 -0.733745D-01
               31            32            33 
     31  0.480951D-01
     32 -0.731770D-01  0.397330D+00
     33 -0.257234D-01  0.138345D+00  0.115972D+00
 FormGI is forming the generalized inverse of G from B-inverse, IUseBI=4.
 Leave Link  716 at Sat May 24 06:15:19 2025, MaxMem=  3758096384 cpu:               0.1 elap:               0.0
 (Enter /apps/easybuild-2022/easybuild/software/Compiler/NVHPC/22.11-CUDA-11.7.0/Gaussian/g16c01-CUDA-11.7.0/g16/l103.exe)

 GradGradGradGradGradGradGradGradGradGradGradGradGradGradGradGradGradGrad
 Berny optimization.
 Red2BG is reusing G-inverse.
 Internal  Forces:  Max     0.027435880 RMS     0.008476020
 Search for a local minimum.
 Step number   1 out of a maximum of   54
 All quantities printed in internal units (Hartrees-Bohrs-Radians)
 RMS Force = .84760D-02 SwitMx=.10000D-02 MixMth= 1
 Mixed Optimization -- RFO/linear search
 Second derivative matrix not updated -- analytic derivatives used.
 ITU=  0
     Eigenvalues ---    0.00297   0.00453   0.04426   0.05729   0.07063
     Eigenvalues ---    0.09732   0.10116   0.10531   0.10879   0.13393
     Eigenvalues ---    0.15869   0.19844   0.21321   0.23360   0.23898
     Eigenvalues ---    0.26194   0.27109   0.28330   0.34477   0.38628
     Eigenvalues ---    0.39894   0.41737   0.42326   0.46205   0.47037
     Eigenvalues ---    0.58489   0.66668
 RFO step:  Lambda=-1.10577732D-02 EMin= 2.97008173D-03
 Linear search not attempted -- first point.
 Iteration  1 RMS(Cart)=  0.05590270 RMS(Int)=  0.00258275
 Iteration  2 RMS(Cart)=  0.00254001 RMS(Int)=  0.00053380
 Iteration  3 RMS(Cart)=  0.00000427 RMS(Int)=  0.00053377
 Iteration  4 RMS(Cart)=  0.00000000 RMS(Int)=  0.00053377
 ITry= 1 IFail=0 DXMaxC= 2.23D-01 DCOld= 1.00D+10 DXMaxT= 3.00D-01 DXLimC= 3.00D+00 Rises=F
 Variable       Old X    -DE/DX   Delta X   Delta X   Delta X     New X
                                 (Linear)    (Quad)   (Total)
    R1        2.69283  -0.00177   0.00000  -0.00177  -0.00181   2.69102
    R2        2.91096   0.01143   0.00000  -0.00126  -0.00126   2.90970
    R3        2.97946  -0.00019   0.00000  -0.00341  -0.00345   2.97601
    R4        2.73568  -0.00064   0.00000  -0.00001   0.00008   2.73575
    R5        2.90784  -0.00016   0.00000  -0.00555  -0.00555   2.90229
    R6        2.59234  -0.02744   0.00000  -0.07740  -0.07740   2.51494
    R7        2.53210   0.02604   0.00000   0.05649   0.05649   2.58859
    R8        2.50500   0.00019   0.00000   0.00059   0.00059   2.50559
    R9        2.49905   0.00813   0.00000   0.02446   0.02446   2.52352
   R10        2.51376  -0.00625   0.00000  -0.01965  -0.01965   2.49412
   R11        1.85278  -0.00105   0.00000   0.00068   0.00068   1.85347
    A1        1.85907   0.00086   0.00000  -0.01605  -0.01603   1.84303
    A2        1.78483   0.01028   0.00000   0.00510   0.00514   1.78997
    A3        1.93901  -0.00035   0.00000   0.02653   0.02616   1.96517
    A4        1.99075  -0.01482   0.00000  -0.11356  -0.11264   1.87810
    A5        1.90501   0.01991   0.00000   0.07442   0.07539   1.98039
    A6        1.86516   0.00834   0.00000   0.04428   0.04447   1.90962
    A7        1.89982  -0.01332   0.00000  -0.05288  -0.05385   1.84597
    A8        1.86071  -0.00049   0.00000   0.01993   0.02184   1.88255
    A9        1.92517   0.00149   0.00000   0.00189   0.00164   1.92681
   A10        1.92746  -0.00451   0.00000  -0.02879  -0.02876   1.89870
   A11        1.91118   0.00386   0.00000   0.03004   0.03001   1.94119
   A12        1.89977   0.00000   0.00000  -0.00477  -0.00497   1.89479
   A13        1.89802  -0.00123   0.00000   0.00237   0.00209   1.90011
   A14        1.90182   0.00040   0.00000  -0.00054  -0.00030   1.90152
   A15        1.91357   0.00087   0.00000  -0.00007  -0.00007   1.91350
   A16        1.76088  -0.00204   0.00000  -0.00131  -0.00131   1.75957
    D1        2.61750  -0.00026   0.00000   0.02931   0.02993   2.64743
    D2       -1.55640  -0.00023   0.00000   0.02583   0.02639  -1.53002
    D3        0.52243   0.00360   0.00000   0.03023   0.02885   0.55127
    D4        1.58256  -0.00262   0.00000   0.02834   0.02909   1.61166
    D5       -2.59134  -0.00258   0.00000   0.02486   0.02555  -2.56579
    D6       -0.51251   0.00124   0.00000   0.02926   0.02801  -0.48450
    D7        0.20640  -0.00187   0.00000  -0.02051  -0.02051   0.18589
    D8       -1.85779  -0.00237   0.00000  -0.00076  -0.00076  -1.85855
    D9        3.08159  -0.00780   0.00000  -0.00753  -0.00721   3.07438
   D10       -1.10088  -0.00975   0.00000  -0.03088  -0.03046  -1.13134
   D11        0.99341  -0.00962   0.00000  -0.03045  -0.03029   0.96312
   D12        0.89988   0.00523   0.00000   0.08701   0.08695   0.98682
   D13        3.00059   0.00328   0.00000   0.06366   0.06370   3.06430
   D14       -1.18830   0.00340   0.00000   0.06409   0.06387  -1.12443
   D15       -1.10345   0.00805   0.00000   0.06694   0.06673  -1.03671
   D16        0.99727   0.00610   0.00000   0.04359   0.04349   1.04076
   D17        3.09156   0.00622   0.00000   0.04401   0.04365   3.13521
         Item               Value     Threshold  Converged?
 Maximum Force            0.027436     0.000450     NO 
 RMS     Force            0.008476     0.000300     NO 
 Maximum Displacement     0.222854     0.001800     NO 
 RMS     Displacement     0.055959     0.001200     NO 
 Predicted change in Energy=-5.902808D-03
 Lowest energy point so far.  Saving SCF results.
 GradGradGradGradGradGradGradGradGradGradGradGradGradGradGradGradGradGrad

 Leave Link  103 at Sat May 24 06:15:19 2025, MaxMem=  3758096384 cpu:               0.1 elap:               0.0
 (Enter /apps/easybuild-2022/easybuild/software/Compiler/NVHPC/22.11-CUDA-11.7.0/Gaussian/g16c01-CUDA-11.7.0/g16/l202.exe)
                          Input orientation:                          
 ---------------------------------------------------------------------
 Center     Atomic      Atomic             Coordinates (Angstroms)
 Number     Number       Type             X           Y           Z
 ---------------------------------------------------------------------
      1          6           0        1.419777    0.001914   -0.016887
      2          8           0       -0.003814    0.033636   -0.032270
      3          6           0        1.866380    1.475075    0.017235
      4          6           0        3.224537    1.664101    0.708929
      5          9           0        3.605126    2.932396    0.641147
      6          9           0        3.103225    1.324784    1.994778
      7          9           0        4.153302    0.909434    0.152311
      8          9           0        1.947907    1.900276   -1.241223
      9          9           0        0.992921    2.294651    0.681897
     10          8           0        0.555603   -0.124336    1.293599
     11          1           0        0.393980    0.767266    1.668987
 ---------------------------------------------------------------------
                    Distance matrix (angstroms):
                    1          2          3          4          5
     1  C    0.000000
     2  O    1.424027   0.000000
     3  C    1.539748   2.361742   0.000000
     4  C    2.558678   3.691888   1.535826   0.000000
     5  F    3.714361   4.677685   2.352931   1.325901   0.000000
     6  F    2.937819   3.928063   2.337317   1.335387   2.160703
     7  F    2.885200   4.252376   2.359705   1.319830   2.152169
     8  F    2.319849   2.958907   1.330849   2.342788   2.712003
     9  F    2.434574   2.572101   1.369821   2.319145   2.689236
    10  O    1.574837   1.447699   2.430095   3.265510   4.366794
    11  H    2.116647   1.894922   2.323197   3.120589   4.006956
                    6          7          8          9         10
     6  F    0.000000
     7  F    2.160986   0.000000
     8  F    3.483914   2.790604   0.000000
     9  F    2.667898   3.491030   2.183098   0.000000
    10  O    3.013632   3.913394   3.530282   2.533165   0.000000
    11  H    2.785135   4.056232   3.488227   1.914676   0.980812
                   11
    11  H    0.000000
 Symmetry turned off by external request.
 Stoichiometry    C3HF5O2
 Rotational constants (GHZ):           2.2069994           1.1277761           1.0289286
 Leave Link  202 at Sat May 24 06:15:19 2025, MaxMem=  3758096384 cpu:               0.1 elap:               0.0
 (Enter /apps/easybuild-2022/easybuild/software/Compiler/NVHPC/22.11-CUDA-11.7.0/Gaussian/g16c01-CUDA-11.7.0/g16/l301.exe)
 Standard basis: def2TZVPP (5D, 7F)
 Ernie: Thresh=  0.10000D-02 Tol=  0.10000D-05 Strict=F.
   324 basis functions,   527 primitive gaussians,   375 cartesian basis functions
    40 alpha electrons       40 beta electrons
       nuclear repulsion energy       641.5268106017 Hartrees.
 IExCor= 4336 DFT=T Ex+Corr=M062X ExCW=0 ScaHFX=  0.540000
 ScaDFX=  1.000000  1.000000  1.000000  1.000000 ScalE2=  1.000000  1.000000
 IRadAn=      5 IRanWt=     -1 IRanGd=            0 ICorTp=0 IEmpDi=  4
 NAtoms=   11 NActive=   11 NUniq=   11 SFac= 1.00D+00 NAtFMM=   60 NAOKFM=F Big=F
 Integral buffers will be    131072 words long.
 Raffenetti 2 integral format.
 Two-electron integral symmetry is turned off.
 Leave Link  301 at Sat May 24 06:15:19 2025, MaxMem=  3758096384 cpu:               0.1 elap:               0.1
 (Enter /apps/easybuild-2022/easybuild/software/Compiler/NVHPC/22.11-CUDA-11.7.0/Gaussian/g16c01-CUDA-11.7.0/g16/l302.exe)
 NPDir=0 NMtPBC=     1 NCelOv=     1 NCel=       1 NClECP=     1 NCelD=      1
         NCelK=      1 NCelE2=     1 NClLst=     1 CellRange=     0.0.
 One-electron integrals computed using PRISM.
   1 Symmetry operations used in ECPInt.
 ECPInt:  NShTT=    6786 NPrTT=   21959 LenC2=    6487 LenP2D=   16071.
 LDataN:  DoStor=T MaxTD1= 6 Len=  172
 NBasis=   324 RedAO= T EigKep=  3.74D-04  NBF=   324
 NBsUse=   324 1.00D-06 EigRej= -1.00D+00 NBFU=   324
 Precomputing XC quadrature grid using
 IXCGrd= 4 IRadAn=           5 IRanWt=          -1 IRanGd=           0 AccXCQ= 0.00D+00.
 Generated NRdTot=       0 NPtTot=           0 NUsed=           0 NTot=          32
 NSgBfM=   374   374   374   374   374 MxSgAt=    11 MxSgA2=    11.
 Leave Link  302 at Sat May 24 06:15:19 2025, MaxMem=  3758096384 cpu:               0.8 elap:               0.2
 (Enter /apps/easybuild-2022/easybuild/software/Compiler/NVHPC/22.11-CUDA-11.7.0/Gaussian/g16c01-CUDA-11.7.0/g16/l303.exe)
 DipDrv:  MaxL=1.
 Leave Link  303 at Sat May 24 06:15:19 2025, MaxMem=  3758096384 cpu:               0.1 elap:               0.0
 (Enter /apps/easybuild-2022/easybuild/software/Compiler/NVHPC/22.11-CUDA-11.7.0/Gaussian/g16c01-CUDA-11.7.0/g16/l401.exe)
 Initial guess from the checkpoint file:  "/tmp/Gau-68068.chk"
 B after Tr=    -0.003814    0.010249    0.011506
         Rot=    0.999998    0.001990    0.000063    0.000968 Ang=   0.25 deg.
 Guess basis will be translated and rotated to current coordinates.
 JPrj=2 DoOrth=T DoCkMO=T.
 Generating alternative initial guess.
 ExpMin= 9.52D-02 ExpMax= 3.55D+04 ExpMxC= 1.21D+03 IAcc=3 IRadAn=         5 AccDes= 0.00D+00
 Harris functional with IExCor= 1009 and IRadAn=       5 diagonalized for initial guess.
 HarFok:  IExCor= 1009 AccDes= 0.00D+00 IRadAn=         5 IDoV= 1 UseB2=F ITyADJ=14
 ICtDFT=  3500011 ScaDFX=  1.000000  1.000000  1.000000  1.000000
 FoFCou: FMM=F IPFlag=           0 FMFlag=      100000 FMFlg1=           0
         NFxFlg=           0 DoJE=T BraDBF=F KetDBF=T FulRan=T
         wScrn=  0.000000 ICntrl=       500 IOpCl=  0 I1Cent=   200000004 NGrid=           0
         NMat0=    1 NMatS0=      1 NMatT0=    0 NMatD0=    1 NMtDS0=    0 NMtDT0=    0
 Symmetry not used in FoFCou.
 Harris En= -763.931846878564    
 Leave Link  401 at Sat May 24 06:15:20 2025, MaxMem=  3758096384 cpu:               4.2 elap:               0.7
 (Enter /apps/easybuild-2022/easybuild/software/Compiler/NVHPC/22.11-CUDA-11.7.0/Gaussian/g16c01-CUDA-11.7.0/g16/l502.exe)
 Keep R1 ints in memory in canonical form, NReq=1412617130.
 FoFCou: FMM=F IPFlag=           0 FMFlag=           0 FMFlg1=           0
         NFxFlg=           0 DoJE=F BraDBF=F KetDBF=F FulRan=T
         wScrn=  0.000000 ICntrl=       600 IOpCl=  0 I1Cent=           0 NGrid=           0
         NMat0=    1 NMatS0=  52650 NMatT0=    0 NMatD0=    1 NMtDS0=    0 NMtDT0=    0
 Symmetry not used in FoFCou.
 Two-electron integral symmetry not used.
 Closed shell SCF:
 Using DIIS extrapolation, IDIIS=  1040.
 NGot=  3758096384 LenX=  2371771924 LenY=  2371630858
 Requested convergence on RMS density matrix=1.00D-08 within  32 cycles.
 Requested convergence on MAX density matrix=1.00D-06.
 Requested convergence on             energy=1.00D-06.
 No special actions if energy rises.
 Integral accuracy reduced to 1.0D-05 until final iterations.

 Cycle   1  Pass 0  IDiag  1:
 E= -764.404880106803    
 DIIS: error= 2.53D-03 at cycle   1 NSaved=   1.
 NSaved= 1 IEnMin= 1 EnMin= -764.404880106803     IErMin= 1 ErrMin= 2.53D-03
 ErrMax= 2.53D-03  0.00D+00 EMaxC= 1.00D-01 BMatC= 7.01D-03 BMatP= 7.01D-03
 IDIUse=3 WtCom= 9.75D-01 WtEn= 2.53D-02
 Coeff-Com:  0.100D+01
 Coeff-En:   0.100D+01
 Coeff:      0.100D+01
 Gap=     0.884 Goal=   None    Shift=    0.000
 GapD=    0.884 DampG=2.000 DampE=1.000 DampFc=2.0000 IDamp=-1.
 RMSDP=2.64D-04 MaxDP=7.09D-03              OVMax= 1.80D-02

 Cycle   2  Pass 0  IDiag  1:
 E= -764.413342950677     Delta-E=       -0.008462843874 Rises=F Damp=F
 DIIS: error= 5.98D-04 at cycle   2 NSaved=   2.
 NSaved= 2 IEnMin= 2 EnMin= -764.413342950677     IErMin= 2 ErrMin= 5.98D-04
 ErrMax= 5.98D-04  0.00D+00 EMaxC= 1.00D-01 BMatC= 3.53D-04 BMatP= 7.01D-03
 IDIUse=3 WtCom= 9.94D-01 WtEn= 5.98D-03
 Coeff-Com: -0.680D-01 0.107D+01
 Coeff-En:   0.000D+00 0.100D+01
 Coeff:     -0.676D-01 0.107D+01
 Gap=     0.303 Goal=   None    Shift=    0.000
 RMSDP=7.48D-05 MaxDP=2.64D-03 DE=-8.46D-03 OVMax= 8.03D-03

 Cycle   3  Pass 0  IDiag  1:
 E= -764.413761399893     Delta-E=       -0.000418449215 Rises=F Damp=F
 DIIS: error= 6.56D-04 at cycle   3 NSaved=   3.
 NSaved= 3 IEnMin= 3 EnMin= -764.413761399893     IErMin= 2 ErrMin= 5.98D-04
 ErrMax= 6.56D-04  0.00D+00 EMaxC= 1.00D-01 BMatC= 2.41D-04 BMatP= 3.53D-04
 IDIUse=3 WtCom= 9.93D-01 WtEn= 6.56D-03
 Coeff-Com: -0.766D-01 0.504D+00 0.573D+00
 Coeff-En:   0.000D+00 0.000D+00 0.100D+01
 Coeff:     -0.761D-01 0.501D+00 0.575D+00
 Gap=     0.303 Goal=   None    Shift=    0.000
 RMSDP=3.00D-05 MaxDP=1.51D-03 DE=-4.18D-04 OVMax= 2.53D-03

 Cycle   4  Pass 0  IDiag  1:
 E= -764.413907112606     Delta-E=       -0.000145712713 Rises=F Damp=F
 DIIS: error= 1.46D-04 at cycle   4 NSaved=   4.
 NSaved= 4 IEnMin= 4 EnMin= -764.413907112606     IErMin= 4 ErrMin= 1.46D-04
 ErrMax= 1.46D-04  0.00D+00 EMaxC= 1.00D-01 BMatC= 1.51D-05 BMatP= 2.41D-04
 IDIUse=3 WtCom= 9.99D-01 WtEn= 1.46D-03
 Coeff-Com: -0.903D-02-0.248D-01 0.170D+00 0.864D+00
 Coeff-En:   0.000D+00 0.000D+00 0.000D+00 0.100D+01
 Coeff:     -0.902D-02-0.247D-01 0.170D+00 0.864D+00
 Gap=     0.302 Goal=   None    Shift=    0.000
 RMSDP=1.27D-05 MaxDP=4.19D-04 DE=-1.46D-04 OVMax= 1.90D-03

 Cycle   5  Pass 0  IDiag  1:
 E= -764.413922753077     Delta-E=       -0.000015640471 Rises=F Damp=F
 DIIS: error= 6.54D-05 at cycle   5 NSaved=   5.
 NSaved= 5 IEnMin= 5 EnMin= -764.413922753077     IErMin= 5 ErrMin= 6.54D-05
 ErrMax= 6.54D-05  0.00D+00 EMaxC= 1.00D-01 BMatC= 3.09D-06 BMatP= 1.51D-05
 IDIUse=1 WtCom= 1.00D+00 WtEn= 0.00D+00
 Coeff-Com:  0.180D-02-0.530D-01 0.314D-01 0.409D+00 0.611D+00
 Coeff:      0.180D-02-0.530D-01 0.314D-01 0.409D+00 0.611D+00
 Gap=     0.303 Goal=   None    Shift=    0.000
 RMSDP=5.23D-06 MaxDP=2.26D-04 DE=-1.56D-05 OVMax= 9.37D-04

 Initial convergence to 1.0D-05 achieved.  Increase integral accuracy.
 Cycle   6  Pass 1  IDiag  1:
 E= -764.413930626234     Delta-E=       -0.000007873157 Rises=F Damp=F
 DIIS: error= 3.43D-05 at cycle   1 NSaved=   1.
 NSaved= 1 IEnMin= 1 EnMin= -764.413930626234     IErMin= 1 ErrMin= 3.43D-05
 ErrMax= 3.43D-05  0.00D+00 EMaxC= 1.00D-01 BMatC= 1.26D-06 BMatP= 1.26D-06
 IDIUse=1 WtCom= 1.00D+00 WtEn= 0.00D+00
 Coeff-Com:  0.100D+01
 Coeff:      0.100D+01
 Gap=     0.302 Goal=   None    Shift=    0.000
 RMSDP=5.23D-06 MaxDP=2.26D-04 DE=-7.87D-06 OVMax= 5.02D-04

 Cycle   7  Pass 1  IDiag  1:
 E= -764.413930871262     Delta-E=       -0.000000245028 Rises=F Damp=F
 DIIS: error= 5.24D-05 at cycle   2 NSaved=   2.
 NSaved= 2 IEnMin= 2 EnMin= -764.413930871262     IErMin= 1 ErrMin= 3.43D-05
 ErrMax= 5.24D-05  0.00D+00 EMaxC= 1.00D-01 BMatC= 1.79D-06 BMatP= 1.26D-06
 IDIUse=1 WtCom= 1.00D+00 WtEn= 0.00D+00
 Coeff-Com:  0.553D+00 0.447D+00
 Coeff:      0.553D+00 0.447D+00
 Gap=     0.303 Goal=   None    Shift=    0.000
 RMSDP=2.51D-06 MaxDP=1.41D-04 DE=-2.45D-07 OVMax= 3.27D-04

 Cycle   8  Pass 1  IDiag  1:
 E= -764.413932062341     Delta-E=       -0.000001191079 Rises=F Damp=F
 DIIS: error= 1.30D-05 at cycle   3 NSaved=   3.
 NSaved= 3 IEnMin= 3 EnMin= -764.413932062341     IErMin= 3 ErrMin= 1.30D-05
 ErrMax= 1.30D-05  0.00D+00 EMaxC= 1.00D-01 BMatC= 9.89D-08 BMatP= 1.26D-06
 IDIUse=1 WtCom= 1.00D+00 WtEn= 0.00D+00
 Coeff-Com: -0.669D-01 0.146D+00 0.921D+00
 Coeff:     -0.669D-01 0.146D+00 0.921D+00
 Gap=     0.303 Goal=   None    Shift=    0.000
 RMSDP=1.51D-06 MaxDP=5.96D-05 DE=-1.19D-06 OVMax= 2.41D-04

 Cycle   9  Pass 1  IDiag  1:
 E= -764.413932216463     Delta-E=       -0.000000154122 Rises=F Damp=F
 DIIS: error= 4.66D-06 at cycle   4 NSaved=   4.
 NSaved= 4 IEnMin= 4 EnMin= -764.413932216463     IErMin= 4 ErrMin= 4.66D-06
 ErrMax= 4.66D-06  0.00D+00 EMaxC= 1.00D-01 BMatC= 1.48D-08 BMatP= 9.89D-08
 IDIUse=1 WtCom= 1.00D+00 WtEn= 0.00D+00
 Coeff-Com: -0.628D-01 0.307D-01 0.361D+00 0.671D+00
 Coeff:     -0.628D-01 0.307D-01 0.361D+00 0.671D+00
 Gap=     0.303 Goal=   None    Shift=    0.000
 RMSDP=5.26D-07 MaxDP=2.28D-05 DE=-1.54D-07 OVMax= 9.97D-05

 Cycle  10  Pass 1  IDiag  1:
 E= -764.413932243108     Delta-E=       -0.000000026645 Rises=F Damp=F
 DIIS: error= 2.00D-06 at cycle   5 NSaved=   5.
 NSaved= 5 IEnMin= 5 EnMin= -764.413932243108     IErMin= 5 ErrMin= 2.00D-06
 ErrMax= 2.00D-06  0.00D+00 EMaxC= 1.00D-01 BMatC= 3.41D-09 BMatP= 1.48D-08
 IDIUse=1 WtCom= 1.00D+00 WtEn= 0.00D+00
 Coeff-Com:  0.829D-02-0.577D-01-0.326D+00 0.186D+00 0.119D+01
 Coeff:      0.829D-02-0.577D-01-0.326D+00 0.186D+00 0.119D+01
 Gap=     0.303 Goal=   None    Shift=    0.000
 RMSDP=6.73D-07 MaxDP=3.22D-05 DE=-2.66D-08 OVMax= 1.37D-04

 Cycle  11  Pass 1  IDiag  1:
 E= -764.413932257546     Delta-E=       -0.000000014437 Rises=F Damp=F
 DIIS: error= 4.09D-07 at cycle   6 NSaved=   6.
 NSaved= 6 IEnMin= 6 EnMin= -764.413932257546     IErMin= 6 ErrMin= 4.09D-07
 ErrMax= 4.09D-07  0.00D+00 EMaxC= 1.00D-01 BMatC= 1.44D-10 BMatP= 3.41D-09
 IDIUse=1 WtCom= 1.00D+00 WtEn= 0.00D+00
 Coeff-Com:  0.615D-02-0.131D-01-0.910D-01-0.933D-03 0.223D+00 0.876D+00
 Coeff:      0.615D-02-0.131D-01-0.910D-01-0.933D-03 0.223D+00 0.876D+00
 Gap=     0.303 Goal=   None    Shift=    0.000
 RMSDP=1.14D-07 MaxDP=4.90D-06 DE=-1.44D-08 OVMax= 2.19D-05

 Cycle  12  Pass 1  IDiag  1:
 E= -764.413932258050     Delta-E=       -0.000000000505 Rises=F Damp=F
 DIIS: error= 1.86D-07 at cycle   7 NSaved=   7.
 NSaved= 7 IEnMin= 7 EnMin= -764.413932258050     IErMin= 7 ErrMin= 1.86D-07
 ErrMax= 1.86D-07  0.00D+00 EMaxC= 1.00D-01 BMatC= 4.04D-11 BMatP= 1.44D-10
 IDIUse=1 WtCom= 1.00D+00 WtEn= 0.00D+00
 Coeff-Com:  0.107D-02 0.257D-02 0.848D-02-0.215D-01-0.732D-01 0.321D+00
 Coeff-Com:  0.761D+00
 Coeff:      0.107D-02 0.257D-02 0.848D-02-0.215D-01-0.732D-01 0.321D+00
 Coeff:      0.761D+00
 Gap=     0.303 Goal=   None    Shift=    0.000
 RMSDP=3.86D-08 MaxDP=1.92D-06 DE=-5.05D-10 OVMax= 6.98D-06

 Cycle  13  Pass 1  IDiag  1:
 E= -764.413932258095     Delta-E=       -0.000000000044 Rises=F Damp=F
 DIIS: error= 9.77D-08 at cycle   8 NSaved=   8.
 NSaved= 8 IEnMin= 8 EnMin= -764.413932258095     IErMin= 8 ErrMin= 9.77D-08
 ErrMax= 9.77D-08  0.00D+00 EMaxC= 1.00D-01 BMatC= 6.37D-12 BMatP= 4.04D-11
 IDIUse=1 WtCom= 1.00D+00 WtEn= 0.00D+00
 Coeff-Com: -0.968D-03 0.371D-02 0.227D-01-0.920D-02-0.750D-01-0.583D-01
 Coeff-Com:  0.267D+00 0.850D+00
 Coeff:     -0.968D-03 0.371D-02 0.227D-01-0.920D-02-0.750D-01-0.583D-01
 Coeff:      0.267D+00 0.850D+00
 Gap=     0.303 Goal=   None    Shift=    0.000
 RMSDP=1.98D-08 MaxDP=6.42D-07 DE=-4.43D-11 OVMax= 4.13D-06

 Cycle  14  Pass 1  IDiag  1:
 E= -764.413932258162     Delta-E=       -0.000000000068 Rises=F Damp=F
 DIIS: error= 2.21D-08 at cycle   9 NSaved=   9.
 NSaved= 9 IEnMin= 9 EnMin= -764.413932258162     IErMin= 9 ErrMin= 2.21D-08
 ErrMax= 2.21D-08  0.00D+00 EMaxC= 1.00D-01 BMatC= 6.11D-13 BMatP= 6.37D-12
 IDIUse=1 WtCom= 1.00D+00 WtEn= 0.00D+00
 Coeff-Com: -0.314D-03 0.545D-03 0.411D-02-0.342D-03-0.717D-02-0.514D-01
 Coeff-Com: -0.333D-01 0.189D+00 0.899D+00
 Coeff:     -0.314D-03 0.545D-03 0.411D-02-0.342D-03-0.717D-02-0.514D-01
 Coeff:     -0.333D-01 0.189D+00 0.899D+00
 Gap=     0.303 Goal=   None    Shift=    0.000
 RMSDP=7.09D-09 MaxDP=2.16D-07 DE=-6.75D-11 OVMax= 1.49D-06

 SCF Done:  E(RM062X) =  -764.413932258     A.U. after   14 cycles
            NFock= 14  Conv=0.71D-08     -V/T= 2.0036
 KE= 7.616726919873D+02 PE=-3.094499610389D+03 EE= 9.268861755416D+02
 Leave Link  502 at Sat May 24 06:15:50 2025, MaxMem=  3758096384 cpu:             131.2 elap:              29.7
 (Enter /apps/easybuild-2022/easybuild/software/Compiler/NVHPC/22.11-CUDA-11.7.0/Gaussian/g16c01-CUDA-11.7.0/g16/l508.exe)
 QCSCF skips out because SCF is already converged.
 Leave Link  508 at Sat May 24 06:15:50 2025, MaxMem=  3758096384 cpu:               0.1 elap:               0.0
 (Enter /apps/easybuild-2022/easybuild/software/Compiler/NVHPC/22.11-CUDA-11.7.0/Gaussian/g16c01-CUDA-11.7.0/g16/l701.exe)
 ... and contract with generalized density number  0.
 Compute integral first derivatives.
   1 Symmetry operations used in ECPInt.
 ECPInt:  NShTT=    6786 NPrTT=   21959 LenC2=    6487 LenP2D=   16071.
 LDataN:  DoStor=T MaxTD1= 7 Len=  274
 Leave Link  701 at Sat May 24 06:15:50 2025, MaxMem=  3758096384 cpu:               0.8 elap:               0.2
 (Enter /apps/easybuild-2022/easybuild/software/Compiler/NVHPC/22.11-CUDA-11.7.0/Gaussian/g16c01-CUDA-11.7.0/g16/l702.exe)
 L702 exits ... SP integral derivatives will be done elsewhere.
 Leave Link  702 at Sat May 24 06:15:50 2025, MaxMem=  3758096384 cpu:               0.1 elap:               0.0
 (Enter /apps/easybuild-2022/easybuild/software/Compiler/NVHPC/22.11-CUDA-11.7.0/Gaussian/g16c01-CUDA-11.7.0/g16/l703.exe)
 Integral derivatives from FoFJK, PRISM(SPDF).
 Compute integral first derivatives, UseDBF=F ICtDFT=           0.
 Calling FoFJK, ICntrl=      2127 FMM=F ISym2X=0 I1Cent= 0 IOpClX= 0 NMat=1 NMatS=1 NMatT=0.
 FoFJK:  IHMeth= 1 ICntrl=    2127 DoSepK=F KAlg= 0 I1Cent=           0 FoldK=F
 IRaf=         0 NMat=       1 IRICut=       1 DoRegI=T DoRafI=F ISym2E= 0 IDoP0=0 IntGTp=1.
 FoFCou: FMM=F IPFlag=           0 FMFlag=      100000 FMFlg1=         800
         NFxFlg=           0 DoJE=F BraDBF=F KetDBF=F FulRan=T
         wScrn=  0.000000 ICntrl=      2127 IOpCl=  0 I1Cent=           0 NGrid=           0
         NMat0=    1 NMatS0=      1 NMatT0=    0 NMatD0=    1 NMtDS0=    0 NMtDT0=    0
 Symmetry not used in FoFCou.
 Leave Link  703 at Sat May 24 06:16:01 2025, MaxMem=  3758096384 cpu:              79.7 elap:              10.8
 (Enter /apps/easybuild-2022/easybuild/software/Compiler/NVHPC/22.11-CUDA-11.7.0/Gaussian/g16c01-CUDA-11.7.0/g16/l716.exe)
 Dipole        =-5.95027330D-01 3.31347418D-01 7.83755243D-01
 -------------------------------------------------------------------
 Center     Atomic                   Forces (Hartrees/Bohr)
 Number     Number              X              Y              Z
 -------------------------------------------------------------------
      1        6           0.000633544   -0.002241942    0.000319710
      2        8           0.000275715   -0.000133362   -0.000340998
      3        6          -0.000103123   -0.001679022    0.003709879
      4        6           0.000655084    0.000140835   -0.001648336
      5        9          -0.000001548    0.000143620    0.000785175
      6        9           0.000012829   -0.000612557    0.000604284
      7        9           0.000280054    0.000186187   -0.000202784
      8        9           0.000080563    0.001247391   -0.003958139
      9        9          -0.000959660    0.003900544    0.000161374
     10        8          -0.000942913   -0.000530107    0.000333163
     11        1           0.000069454   -0.000421587    0.000236672
 -------------------------------------------------------------------
 Cartesian Forces:  Max     0.003958139 RMS     0.001370037
 Leave Link  716 at Sat May 24 06:16:01 2025, MaxMem=  3758096384 cpu:               0.1 elap:               0.0
 (Enter /apps/easybuild-2022/easybuild/software/Compiler/NVHPC/22.11-CUDA-11.7.0/Gaussian/g16c01-CUDA-11.7.0/g16/l103.exe)

 GradGradGradGradGradGradGradGradGradGradGradGradGradGradGradGradGradGrad
 Berny optimization.
 Using GEDIIS/GDIIS optimizer.
 FormGI is forming the generalized inverse of G from B-inverse, IUseBI=4.
 Internal  Forces:  Max     0.004145517 RMS     0.001238694
 Search for a local minimum.
 Step number   2 out of a maximum of   54
 All quantities printed in internal units (Hartrees-Bohrs-Radians)
 RMS Force = .12387D-02 SwitMx=.10000D-02 MixMth= 1
 Mixed Optimization -- RFO/linear search
 Update second derivatives using D2CorX and points    1    2
 DE= -5.78D-03 DEPred=-5.90D-03 R= 9.78D-01
 TightC=F SS=  1.41D+00  RLast= 2.60D-01 DXNew= 5.0454D-01 7.8025D-01
 Trust test= 9.78D-01 RLast= 2.60D-01 DXMaxT set to 5.05D-01
 ITU=  1  0
 Use linear search instead of GDIIS.
     Eigenvalues ---    0.00297   0.00453   0.04425   0.05697   0.07067
     Eigenvalues ---    0.09784   0.10057   0.10535   0.10875   0.13993
     Eigenvalues ---    0.16128   0.19863   0.21214   0.23363   0.23855
     Eigenvalues ---    0.26187   0.27014   0.28023   0.35904   0.38423
     Eigenvalues ---    0.39898   0.41646   0.42325   0.46315   0.47035
     Eigenvalues ---    0.58468   0.64100
 RFO step:  Lambda=-6.41594831D-04 EMin= 2.97277115D-03
 Quartic linear search produced a step of  0.03085.
 Iteration  1 RMS(Cart)=  0.06662613 RMS(Int)=  0.00268598
 Iteration  2 RMS(Cart)=  0.00269616 RMS(Int)=  0.00003564
 Iteration  3 RMS(Cart)=  0.00000543 RMS(Int)=  0.00003550
 Iteration  4 RMS(Cart)=  0.00000000 RMS(Int)=  0.00003550
 ITry= 1 IFail=0 DXMaxC= 1.68D-01 DCOld= 1.00D+10 DXMaxT= 5.05D-01 DXLimC= 3.00D+00 Rises=F
 Variable       Old X    -DE/DX   Delta X   Delta X   Delta X     New X
                                 (Linear)    (Quad)   (Total)
    R1        2.69102  -0.00027  -0.00006   0.00310   0.00302   2.69404
    R2        2.90970   0.00316  -0.00004   0.00701   0.00697   2.91667
    R3        2.97601   0.00111  -0.00011  -0.00232  -0.00247   2.97354
    R4        2.73575  -0.00009   0.00000   0.00002   0.00010   2.73586
    R5        2.90229   0.00061  -0.00017  -0.00316  -0.00333   2.89896
    R6        2.51494   0.00415  -0.00239   0.01530   0.01292   2.52786
    R7        2.58859   0.00303   0.00174   0.00262   0.00436   2.59295
    R8        2.50559   0.00009   0.00002   0.00098   0.00100   2.50659
    R9        2.52352   0.00074   0.00075  -0.00018   0.00058   2.52410
   R10        2.49412   0.00018  -0.00061   0.00012  -0.00049   2.49363
   R11        1.85347  -0.00031   0.00002  -0.00073  -0.00071   1.85276
    A1        1.84303   0.00068  -0.00049  -0.00669  -0.00717   1.83587
    A2        1.78997   0.00317   0.00016   0.01247   0.01266   1.80263
    A3        1.96517  -0.00178   0.00081  -0.00867  -0.00790   1.95727
    A4        1.87810   0.00014  -0.00348   0.00019  -0.00330   1.87481
    A5        1.98039   0.00238   0.00233   0.00976   0.01213   1.99252
    A6        1.90962   0.00036   0.00137  -0.00380  -0.00246   1.90716
    A7        1.84597  -0.00015  -0.00166   0.00887   0.00719   1.85316
    A8        1.88255  -0.00097   0.00067  -0.00679  -0.00603   1.87652
    A9        1.92681   0.00067   0.00005   0.00357   0.00362   1.93043
   A10        1.89870  -0.00027  -0.00089  -0.00087  -0.00176   1.89694
   A11        1.94119   0.00015   0.00093  -0.00421  -0.00328   1.93790
   A12        1.89479  -0.00029  -0.00015  -0.00079  -0.00094   1.89385
   A13        1.90011  -0.00020   0.00006   0.00092   0.00098   1.90110
   A14        1.90152  -0.00009  -0.00001   0.00141   0.00141   1.90293
   A15        1.91350   0.00029  -0.00000  -0.00050  -0.00051   1.91300
   A16        1.75957  -0.00011  -0.00004   0.00420   0.00417   1.76374
    D1        2.64743   0.00065   0.00092   0.09127   0.09214   2.73957
    D2       -1.53002   0.00009   0.00081   0.08132   0.08210  -1.44791
    D3        0.55127   0.00043   0.00089   0.07890   0.07968   0.63095
    D4        1.61166   0.00023   0.00090   0.08946   0.09043   1.70209
    D5       -2.56579  -0.00033   0.00079   0.07951   0.08040  -2.48539
    D6       -0.48450   0.00001   0.00086   0.07709   0.07798  -0.40653
    D7        0.18589  -0.00069  -0.00063  -0.02177  -0.02240   0.16350
    D8       -1.85855  -0.00042  -0.00002   0.00331   0.00329  -1.85526
    D9        3.07438  -0.00029  -0.00022   0.08923   0.08902  -3.11979
   D10       -1.13134  -0.00041  -0.00094   0.08986   0.08894  -1.04240
   D11        0.96312  -0.00060  -0.00093   0.08845   0.08753   1.05065
   D12        0.98682   0.00043   0.00268   0.09714   0.09981   1.08663
   D13        3.06430   0.00031   0.00197   0.09777   0.09972  -3.11917
   D14       -1.12443   0.00012   0.00197   0.09636   0.09832  -1.02612
   D15       -1.03671   0.00146   0.00206   0.10220   0.10425  -0.93246
   D16        1.04076   0.00135   0.00134   0.10283   0.10417   1.14493
   D17        3.13521   0.00116   0.00135   0.10142   0.10276  -3.04521
         Item               Value     Threshold  Converged?
 Maximum Force            0.004146     0.000450     NO 
 RMS     Force            0.001239     0.000300     NO 
 Maximum Displacement     0.167827     0.001800     NO 
 RMS     Displacement     0.066248     0.001200     NO 
 Predicted change in Energy=-3.763805D-04
 Lowest energy point so far.  Saving SCF results.
 GradGradGradGradGradGradGradGradGradGradGradGradGradGradGradGradGradGrad

 Leave Link  103 at Sat May 24 06:16:01 2025, MaxMem=  3758096384 cpu:               0.1 elap:               0.0
 (Enter /apps/easybuild-2022/easybuild/software/Compiler/NVHPC/22.11-CUDA-11.7.0/Gaussian/g16c01-CUDA-11.7.0/g16/l202.exe)
                          Input orientation:                          
 ---------------------------------------------------------------------
 Center     Atomic      Atomic             Coordinates (Angstroms)
 Number     Number       Type             X           Y           Z
 ---------------------------------------------------------------------
      1          6           0        1.439318   -0.016953    0.055742
      2          8           0        0.018686    0.012024   -0.059877
      3          6           0        1.876548    1.463178    0.040114
      4          6           0        3.245315    1.668783    0.701594
      5          9           0        3.578641    2.952634    0.695404
      6          9           0        3.174239    1.255255    1.969672
      7          9           0        4.181640    0.980502    0.076425
      8          9           0        1.942285    1.847809   -1.239392
      9          9           0        1.010244    2.311548    0.682395
     10          8           0        0.486859   -0.099400    1.305548
     11          1           0        0.305170    0.803817    1.640879
 ---------------------------------------------------------------------
                    Distance matrix (angstroms):
                    1          2          3          4          5
     1  C    0.000000
     2  O    1.425624   0.000000
     3  C    1.543438   2.359554   0.000000
     4  C    2.553518   3.706187   1.534064   0.000000
     5  F    3.715415   4.678773   2.354784   1.326430   0.000000
     6  F    2.879512   3.952494   2.334615   1.335694   2.160647
     7  F    2.918163   4.276297   2.355365   1.319572   2.153147
     8  F    2.325443   2.908882   1.337684   2.344646   2.764369
     9  F    2.449228   2.611890   1.372130   2.325738   2.647229
    10  O    1.573528   1.447752   2.444219   3.331713   4.387060
    11  H    2.114855   1.897783   2.338041   3.205445   4.028269
                    6          7          8          9         10
     6  F    0.000000
     7  F    2.162112   0.000000
     8  F    3.488112   2.738304   0.000000
     9  F    2.730515   3.492368   2.185640   0.000000
    10  O    3.081909   4.040834   3.519461   2.544587   0.000000
    11  H    2.922920   4.183988   3.473619   1.920697   0.980437
                   11
    11  H    0.000000
 Symmetry turned off by external request.
 Stoichiometry    C3HF5O2
 Rotational constants (GHZ):           2.2167624           1.1102177           1.0213333
 Leave Link  202 at Sat May 24 06:16:01 2025, MaxMem=  3758096384 cpu:               0.1 elap:               0.0
 (Enter /apps/easybuild-2022/easybuild/software/Compiler/NVHPC/22.11-CUDA-11.7.0/Gaussian/g16c01-CUDA-11.7.0/g16/l301.exe)
 Standard basis: def2TZVPP (5D, 7F)
 Ernie: Thresh=  0.10000D-02 Tol=  0.10000D-05 Strict=F.
   324 basis functions,   527 primitive gaussians,   375 cartesian basis functions
    40 alpha electrons       40 beta electrons
       nuclear repulsion energy       639.9772350063 Hartrees.
 IExCor= 4336 DFT=T Ex+Corr=M062X ExCW=0 ScaHFX=  0.540000
 ScaDFX=  1.000000  1.000000  1.000000  1.000000 ScalE2=  1.000000  1.000000
 IRadAn=      5 IRanWt=     -1 IRanGd=            0 ICorTp=0 IEmpDi=  4
 NAtoms=   11 NActive=   11 NUniq=   11 SFac= 1.00D+00 NAtFMM=   60 NAOKFM=F Big=F
 Integral buffers will be    131072 words long.
 Raffenetti 2 integral format.
 Two-electron integral symmetry is turned off.
 Leave Link  301 at Sat May 24 06:16:01 2025, MaxMem=  3758096384 cpu:               0.1 elap:               0.0
[...]
    A4        1.87188   0.00002   0.00000   0.00011   0.00011   1.87199
    A5        1.99352   0.00001   0.00000   0.00002   0.00002   1.99353
    A6        1.90921   0.00000   0.00000  -0.00001  -0.00001   1.90920
    A7        1.85378  -0.00000   0.00000  -0.00001  -0.00001   1.85377
    A8        1.87685  -0.00000   0.00000   0.00003   0.00003   1.87688
    A9        1.93330  -0.00001   0.00000  -0.00003  -0.00003   1.93327
   A10        1.89520   0.00000   0.00000   0.00000   0.00000   1.89520
   A11        1.93834  -0.00000   0.00000   0.00002   0.00002   1.93836
   A12        1.89268   0.00000   0.00000  -0.00003  -0.00003   1.89265
   A13        1.90054   0.00001   0.00000   0.00005   0.00005   1.90059
   A14        1.90301  -0.00000   0.00000  -0.00001  -0.00001   1.90300
   A15        1.91381   0.00000   0.00000   0.00005   0.00005   1.91385
   A16        1.76385  -0.00001   0.00000  -0.00001  -0.00001   1.76384
    D1        2.71932  -0.00000   0.00000  -0.00050  -0.00050   2.71883
    D2       -1.46806  -0.00001   0.00000  -0.00052  -0.00052  -1.46858
    D3        0.60982   0.00001   0.00000  -0.00040  -0.00040   0.60942
    D4        1.68247  -0.00001   0.00000  -0.00052  -0.00052   1.68195
    D5       -2.50492  -0.00001   0.00000  -0.00054  -0.00054  -2.50545
    D6       -0.42704   0.00000   0.00000  -0.00042  -0.00042  -0.42746
    D7        0.16914  -0.00001   0.00000   0.00010   0.00010   0.16924
    D8       -1.85616  -0.00001   0.00000  -0.00006  -0.00006  -1.85622
    D9       -3.11560   0.00001   0.00000   0.00024   0.00024  -3.11535
   D10       -1.03901   0.00000   0.00000   0.00019   0.00019  -1.03882
   D11        1.05330   0.00000   0.00000   0.00019   0.00019   1.05349
   D12        1.09367   0.00000   0.00000   0.00020   0.00020   1.09387
   D13       -3.11292  -0.00000   0.00000   0.00014   0.00014  -3.11278
   D14       -1.02061  -0.00000   0.00000   0.00015   0.00015  -1.02047
   D15       -0.92714   0.00000   0.00000   0.00017   0.00017  -0.92697
   D16        1.14944  -0.00000   0.00000   0.00011   0.00011   1.14956
   D17       -3.04143  -0.00000   0.00000   0.00012   0.00012  -3.04131
         Item               Value     Threshold  Converged?
 Maximum Force            0.000050     0.000450     YES
 RMS     Force            0.000013     0.000300     YES
 Maximum Displacement     0.000723     0.001800     YES
 RMS     Displacement     0.000309     0.001200     YES
 Predicted change in Energy=-1.583179D-08
 Optimization completed.
    -- Stationary point found.
                           ----------------------------
                           !   Optimized Parameters   !
                           ! (Angstroms and Degrees)  !
 --------------------------                            --------------------------
 ! Name  Definition              Value          Derivative Info.                !
 --------------------------------------------------------------------------------
 ! R1    R(1,2)                  1.4245         -DE/DX =    0.0                 !
 ! R2    R(1,3)                  1.5437         -DE/DX =    0.0                 !
 ! R3    R(1,10)                 1.5753         -DE/DX =    0.0                 !
 ! R4    R(2,10)                 1.4479         -DE/DX =    0.0                 !
 ! R5    R(3,4)                  1.5355         -DE/DX =    0.0                 !
 ! R6    R(3,8)                  1.3366         -DE/DX =    0.0                 !
 ! R7    R(3,9)                  1.3719         -DE/DX =    0.0                 !
 ! R8    R(4,5)                  1.326          -DE/DX =    0.0                 !
 ! R9    R(4,6)                  1.3361         -DE/DX =    0.0                 !
 ! R10   R(4,7)                  1.3197         -DE/DX =    0.0                 !
 ! R11   R(10,11)                0.9803         -DE/DX =    0.0                 !
 ! A1    A(2,1,3)              105.3218         -DE/DX =    0.0                 !
 ! A2    A(3,1,10)             103.1005         -DE/DX =    0.0                 !
 ! A3    A(1,3,4)              112.0929         -DE/DX =    0.0                 !
 ! A4    A(1,3,8)              107.2509         -DE/DX =    0.0                 !
 ! A5    A(1,3,9)              114.2202         -DE/DX =    0.0                 !
 ! A6    A(4,3,8)              109.3894         -DE/DX =    0.0                 !
 ! A7    A(4,3,9)              106.2137         -DE/DX =    0.0                 !
 ! A8    A(8,3,9)              107.5355         -DE/DX =    0.0                 !
 ! A9    A(3,4,5)              110.7702         -DE/DX =    0.0                 !
 ! A10   A(3,4,6)              108.5869         -DE/DX =    0.0                 !
 ! A11   A(3,4,7)              111.0587         -DE/DX =    0.0                 !
 ! A12   A(5,4,6)              108.4424         -DE/DX =    0.0                 !
 ! A13   A(5,4,7)              108.8931         -DE/DX =    0.0                 !
 ! A14   A(6,4,7)              109.0346         -DE/DX =    0.0                 !
 ! A15   A(1,10,11)            109.653          -DE/DX =    0.0                 !
 ! A16   A(2,10,11)            101.0613         -DE/DX =    0.0                 !
 ! D1    D(2,1,3,4)            155.8058         -DE/DX =    0.0                 !
 ! D2    D(2,1,3,8)            -84.1136         -DE/DX =    0.0                 !
 ! D3    D(2,1,3,9)             34.9399         -DE/DX =    0.0                 !
 ! D4    D(10,1,3,4)            96.3983         -DE/DX =    0.0                 !
 ! D5    D(10,1,3,8)          -143.5211         -DE/DX =    0.0                 !
 ! D6    D(10,1,3,9)           -24.4676         -DE/DX =    0.0                 !
 ! D7    D(3,1,10,11)            9.6911         -DE/DX =    0.0                 !
 ! D8    D(11,2,10,1)         -106.3499         -DE/DX =    0.0                 !
 ! D9    D(1,3,4,5)           -178.5105         -DE/DX =    0.0                 !
 ! D10   D(1,3,4,6)            -59.5308         -DE/DX =    0.0                 !
 ! D11   D(1,3,4,7)             60.3497         -DE/DX =    0.0                 !
 ! D12   D(8,3,4,5)             62.6629         -DE/DX =    0.0                 !
 ! D13   D(8,3,4,6)           -178.3574         -DE/DX =    0.0                 !
 ! D14   D(8,3,4,7)            -58.4769         -DE/DX =    0.0                 !
 ! D15   D(9,3,4,5)            -53.1213         -DE/DX =    0.0                 !
 ! D16   D(9,3,4,6)             65.8583         -DE/DX =    0.0                 !
 ! D17   D(9,3,4,7)           -174.2611         -DE/DX =    0.0                 !
 --------------------------------------------------------------------------------
 GradGradGradGradGradGradGradGradGradGradGradGradGradGradGradGradGradGrad

 Leave Link  103 at Sat May 24 06:21:24 2025, MaxMem=  3758096384 cpu:               0.1 elap:               0.0
 (Enter /apps/easybuild-2022/easybuild/software/Compiler/NVHPC/22.11-CUDA-11.7.0/Gaussian/g16c01-CUDA-11.7.0/g16/l9999.exe)

 ----------------------------------------------------------------------

 Electric dipole moment (input orientation):
 (Debye = 10**-18 statcoulomb cm , SI units = C m)
                  (au)            (Debye)         (10**-30 SI)
   Tot        0.106034D+01      0.269512D+01      0.898995D+01
   x         -0.648983D+00     -0.164955D+01     -0.550231D+01
   y          0.350607D+00      0.891154D+00      0.297257D+01
   z          0.761722D+00      0.193610D+01      0.645815D+01

 Dipole polarizability, Alpha (input orientation).
 (esu units = cm**3 , SI units = C**2 m**2 J**-1)
 Alpha(0;0):
               (au)            (10**-24 esu)      (10**-40 SI)
   iso        0.462787D+02      0.685779D+01      0.763032D+01
   aniso      0.760429D+01      0.112684D+01      0.125378D+01
   xx         0.481002D+02      0.712771D+01      0.793064D+01
   yx         0.356852D+01      0.528800D+00      0.588370D+00
   yy         0.446625D+02      0.661830D+01      0.736385D+01
   zx        -0.188370D+01     -0.279136D+00     -0.310580D+00
   zy        -0.797020D-01     -0.118106D-01     -0.131411D-01
   zz         0.460733D+02      0.682737D+01      0.759647D+01

 ----------------------------------------------------------------------

 Dipole orientation:
     6          2.17075492          0.26516461         -1.60774730
     8         -0.03315936          0.05810225         -0.07592237
     6          3.13436249          2.98936279         -1.20773427
     6          5.97389861          3.23362796         -1.75272969
     9          6.76037385          5.57600901         -1.33621680
     9          7.22702070          1.68295820         -0.20352428
     9          6.48965929          2.61634876         -4.11340520
     9          1.84588039          4.47936315         -2.78867087
     9          2.77673267          3.90234286          1.19212560
     8          2.23127618         -0.88200472          1.13847692
     1          2.55962579          0.46362982          2.36873150

 Electric dipole moment (dipole orientation):
 (Debye = 10**-18 statcoulomb cm , SI units = C m)
                  (au)            (Debye)         (10**-30 SI)
   Tot        0.106034D+01      0.269512D+01      0.898995D+01
   x          0.000000D+00      0.000000D+00      0.000000D+00
   y          0.000000D+00      0.000000D+00      0.000000D+00
   z          0.106034D+01      0.269512D+01      0.898995D+01

 Dipole polarizability, Alpha (dipole orientation).
 (esu units = cm**3 , SI units = C**2 m**2 J**-1)
 Alpha(0;0):
               (au)            (10**-24 esu)      (10**-40 SI)
   iso        0.462787D+02      0.685779D+01      0.763032D+01
   aniso      0.760429D+01      0.112684D+01      0.125378D+01
   xx         0.461359D+02      0.683663D+01      0.760678D+01
   yx         0.300232D+01      0.444898D+00      0.495015D+00
   yy         0.458475D+02      0.679390D+01      0.755924D+01
   zx        -0.734961D+00     -0.108910D+00     -0.121179D+00
   zy        -0.307460D+01     -0.455609D+00     -0.506933D+00
   zz         0.468526D+02      0.694283D+01      0.772494D+01

 ----------------------------------------------------------------------
 Unable to Open any file for archive entry.
 1\1\GINC-SPARTAN-BM197\Freq\RM062X\def2TZVPP\C3H1F5O2\AKHALILOV\24-May
 -2025\0\\#P Geom=AllCheck Guess=TCheck SCRF=Check GenChk RM062X/def2TZ
 VPP Freq\\Gaussian input prepared by ASE\\0,1\C,1.435542265,-0.0146372
 295,0.0454933137\O,0.0144891757,0.0134390394,-0.0497678783\C,1.8745204
 734,1.4652715611,0.0329871341\C,3.2413053429,1.6679136082,0.7027465615
 \F,3.5778434238,2.9504766701,0.7059509825\F,3.1614644263,1.2487142415,
 1.9688663301\F,4.1808484403,0.9811313225,0.0803969067\F,1.9462249673,1
 .846652866,-1.2460320531\F,1.0061522133,2.315287406,0.6697083106\O,0.4
 996363425,-0.0987765804,1.3097905843\H,0.3209173733,0.8037234209,1.648
 3631034\\Version=ES64L-G16RevC.01\HF=-764.4142597\RMSD=3.129e-09\RMSF=
 1.485e-05\ZeroPoint=0.0501292\Thermal=0.0588873\ETot=-764.3553724\HTot
 =-764.3544282\GTot=-764.3985423\Dipole=-0.6489829,0.350607,0.7617222\D
 ipoleDeriv=0.5831512,0.1204626,-0.2528977,0.0202099,0.1557308,0.083474
 1,-0.3234495,-0.0256863,0.2121084,-0.6291832,-0.1869852,-0.0352741,0.1
 336595,-0.1249398,0.0644157,0.0661753,0.0299903,0.1187674,0.8735121,-0
 .0955168,-0.1152448,-0.140949,0.7930617,-0.0697303,-0.1818021,-0.07843
 91,1.1712709,1.4847435,0.1183939,-0.1564255,0.0137798,1.6398644,-0.007
 343,-0.077353,0.040697,1.455987,-0.4337211,-0.2589906,-0.0132595,-0.21
 62302,-0.8929013,0.0084426,-0.0558993,-0.0541795,-0.274543,-0.3704783,
 -0.0311194,-0.0513844,-0.0482588,-0.3402851,0.1461274,0.0192047,0.1728
 753,-0.8277415,-0.6912887,0.2117721,0.2217006,0.1746633,-0.4184753,-0.
 1463938,0.134768,-0.1358038,-0.3866302,-0.2891201,-0.0069016,-0.024107
 9,-0.0706721,-0.3189694,0.2185689,0.0649458,0.1494726,-0.7676274,-0.54
 82135,0.2386892,0.186646,0.13258,-0.7610364,-0.1702905,0.1434435,-0.14
 43577,-0.3931127,-0.2871957,-0.1337863,0.2721236,-0.0343025,-0.0995096
 ,-0.2069047,0.2938235,0.0409132,-0.6531265,0.3077937,0.0239823,-0.0318
 764,0.0355201,0.36746,0.0796336,-0.0838569,0.0045181,0.3446476\Polar=4
 8.1001534,3.568522,44.6624689,-1.8837013,-0.079702,46.0733449\PG=Unkno
 wn\NImag=0\\0.37798229,0.02440684,0.26470540,-0.05648803,0.00570861,0.
 11576581,-0.25205728,-0.00950612,0.01674163,0.31026917,0.03211340,-0.0
 3854401,0.01473231,0.01479432,0.07801995,-0.01652003,0.00279996,-0.004
 09844,0.11051874,0.00336481,0.28066714,-0.05786559,0.01303507,-0.00517
 285,-0.05219355,-0.04802610,0.00189010,0.55695033,-0.06207773,-0.15003
 309,0.01103914,-0.00367180,-0.01071888,-0.00419187,0.00526893,0.508788
 34,-0.00779524,-0.00843707,-0.04222534,-0.02099828,-0.02264654,-0.0030
 9118,0.02612010,-0.04427701,0.55623194,-0.01064177,-0.01688652,-0.0025
 9244,0.00731124,0.00416624,-0.00078563,-0.18383793,-0.01025461,-0.0691
 1831,0.65195121,-0.02439407,0.00545939,-0.00796591,-0.00191396,-0.0097
 5874,-0.00067933,-0.04228823,-0.06606079,-0.01351425,0.00238422,0.5943
 2097,-0.00540936,-0.00710815,0.00899188,0.00569488,0.00335112,-0.00092
 249,-0.06695916,0.00417934,-0.07063247,0.01453860,0.01562173,0.5855429
 4,-0.00215526,0.00610756,-0.00266135,-0.00384771,-0.00319577,0.0001584
 1,-0.00816689,-0.04567953,0.00149569,-0.11437966,-0.07482194,-0.009454
 48,0.10066605,-0.00083468,0.00449695,-0.00233426,-0.00428404,-0.001634
 18,0.00022035,-0.00585196,-0.04063683,0.00260640,-0.08473544,-0.285891
 60,-0.01638716,0.08920448,0.42639800,-0.00070507,0.00256609,-0.0017866
 9,-0.00170405,-0.00134332,0.00016730,-0.00463527,-0.01930847,0.0033032
 7,-0.00916585,-0.01080568,-0.07833293,-0.00499178,0.00049906,0.0789042
 6,0.00046246,0.00108451,0.00159194,-0.00060695,-0.00029746,-0.00020694
 ,0.00856798,0.00874763,-0.02463510,-0.08623969,0.00189877,-0.01772797,
 0.01066981,-0.01496024,0.01787870,0.07565990,0.00012476,-0.00078688,0.
 00049758,-0.00009515,0.00105323,-0.00045505,-0.00087154,0.00401746,0.0
 0512049,0.00430663,-0.09139928,0.05846754,-0.01085647,-0.04477479,0.05
 752530,0.00432003,0.11523846,0.00242565,0.00121272,-0.00200378,-0.0012
 6735,-0.00041736,0.00065562,0.01351807,0.01349146,-0.03974880,-0.02650
 245,0.05550422,-0.27856123,0.01118675,0.04206124,-0.01326249,-0.017098
 42,-0.10316911,0.39281115,-0.00048506,0.00125955,-0.00042338,-0.001115
 89,-0.00088888,0.00000588,-0.02300944,0.02580717,0.03083231,-0.2437748
 9,0.09055024,0.06852522,0.01508457,0.02150802,0.00423678,-0.00314705,0
 .00228233,0.03700545,0.26888646,-0.00015477,-0.00415339,-0.00063602,-0
 .00023046,0.00218488,0.00051968,0.00836487,0.00113478,-0.00766020,0.09
 781623,-0.13485451,-0.04850974,0.03787209,-0.06899546,-0.03052024,-0.0
 0053660,0.01497511,-0.00902552,-0.14235797,0.18799802,0.00078499,-0.00
 144684,-0.00083875,-0.00032393,0.00044040,0.00024199,0.00002735,-0.000
 71272,0.00096714,0.07900439,-0.05129785,-0.11798579,0.00731137,-0.0248
 2714,0.00539818,0.05113026,-0.01791432,-0.05847351,-0.13321302,0.09394
 505,0.16350477,0.00184303,-0.00527944,0.01063494,0.00546526,0.00432932
 ,0.00015231,-0.07317548,-0.00505398,0.00257174,0.00685386,0.01319586,-
 0.02712811,0.00142693,0.00087383,0.00129707,-0.00584767,0.00024894,-0.
 00936703,0.00137599,-0.00135464,-0.00087579,0.06529861,0.00214652,-0.0
 0737127,0.03300936,0.00234682,0.00521115,0.00116457,0.00262189,-0.1055
 6533,0.08861323,-0.00452086,-0.00020545,0.00288504,0.00294112,0.005072
 36,-0.00062576,0.00084911,0.00111483,-0.00055419,-0.00005141,0.0004551
 6,0.00019454,-0.00176657,0.09726582,0.00187473,0.00858141,-0.02043034,
 0.00266150,-0.00209989,-0.00057954,-0.01321368,0.09383536,-0.29976900,
 0.01196410,0.01457233,-0.04231288,-0.00218321,-0.00329747,0.00369559,-
 0.00826186,0.00042995,-0.00792032,-0.00470997,0.00048925,0.00484340,-0
 .01883178,-0.10291469,0.41450250,-0.00714897,0.00738651,0.00637218,0.0
 0882610,-0.00748566,0.00011670,-0.15340105,0.07019404,0.03121930,-0.02
 658713,0.03662571,0.03009234,0.00108220,-0.00099403,-0.00106555,0.0004
 1171,-0.00090269,-0.00505444,-0.01443604,0.00174434,-0.00205213,-0.002
 70690,0.00383410,0.03152747,0.19078282,0.03027257,-0.04712865,-0.01682
 388,-0.00129197,0.00901327,0.00123386,0.07543580,-0.14351322,-0.037571
 31,0.00779720,-0.01351012,-0.01050084,-0.00169184,0.00641327,0.0018762
 8,-0.00050125,0.00164895,0.00091167,0.00088431,0.00152783,0.00134907,-
 0.00108605,0.01388263,-0.01337735,-0.10822959,0.18801929,0.01012014,-0
 .01356553,-0.00518846,0.00085269,0.00170749,-0.00006470,0.03915347,-0.
 03856891,-0.08030816,0.00145849,-0.00110046,-0.00271514,-0.00088462,0.
 00107857,0.00140881,-0.00136612,0.00045814,0.00510784,-0.00131664,0.00
 041345,0.00139489,0.03982844,-0.02777436,-0.05484712,-0.08275594,0.071
 37209,0.12912827,-0.04439995,-0.03918848,0.02071270,-0.02092843,0.0201
 6393,-0.07573478,-0.00958568,0.01580722,0.02458947,0.00193409,-0.00013
 093,0.00387031,-0.00071149,-0.00048629,-0.00072922,-0.00124325,0.00067
 453,-0.00294231,-0.00018044,-0.00065309,-0.00093417,-0.00098935,-0.009
 29242,0.00122712,0.00204371,0.00071476,-0.00153909,0.11169987,-0.01140
 816,-0.03122189,-0.02762937,0.00514743,-0.03829972,-0.01161051,0.00245
 761,-0.00842468,0.02803604,0.00073705,0.00076627,-0.00229031,0.0003489
 0,0.00063259,0.00039967,-0.00087557,-0.00046724,0.00004972,-0.00022961
 ,0.00045388,0.00060556,-0.00518932,-0.00779893,0.00628879,-0.00897993,
 -0.00812631,0.01048470,-0.05604092,0.50017941,0.07481039,0.01929359,-0
 .03843148,-0.11659202,0.03014734,-0.24019554,0.00152032,-0.01493672,-0
 .02071824,-0.00049071,-0.00011680,-0.00618291,0.00059833,0.00055245,0.
 00101827,-0.00122803,-0.00127497,0.00325317,-0.00029983,0.00091246,0.0
 0139381,0.00263998,0.00683903,0.00142634,-0.00455877,0.00222376,0.0049
 1284,0.00927276,0.09241139,0.36391032,-0.00553389,0.01758051,0.0112846
 5,-0.00112196,-0.01567334,-0.01959478,-0.00428271,0.00091264,0.0057183
 3,-0.00258933,-0.00110567,0.00395772,0.00033144,0.00056035,-0.00041578
 ,0.00131275,0.00076863,-0.00190392,0.00080179,-0.00050999,-0.00085931,
 0.00045572,0.00089171,-0.00205443,0.00113357,-0.00230393,-0.00355084,-
 0.03763907,0.07403251,0.03432758,0.04713168,0.00980531,0.00457745,-0.0
 0959755,-0.00129507,0.00347306,0.00763352,-0.01014634,0.01101226,0.009
 73021,-0.00081014,0.00113386,0.00029144,-0.00022860,-0.00108032,-0.000
 26293,0.00027108,-0.00061984,-0.00006484,0.00123624,-0.00072628,-0.000
 33575,0.00108205,-0.00206096,-0.00250769,0.00680720,-0.00822694,-0.004
 50517,0.06843169,-0.40769337,-0.13605155,-0.07515342,0.40021108,-0.003
 09817,-0.00960480,-0.00975440,0.00441618,-0.02723635,-0.03278016,0.007
 75153,-0.00054959,-0.00400917,0.00168980,-0.00021801,0.00311102,-0.000
 57512,-0.00017204,-0.00051356,-0.00007645,0.00031446,-0.00185764,-0.00
 064280,0.00007182,-0.00044614,-0.00092176,-0.00083677,0.00139139,-0.00
 384117,-0.00069334,0.00117092,0.02220721,-0.09674569,-0.07038657,-0.02
 690924,0.13567030,0.11407432\\-0.00000590,-0.00000777,-0.00002786,-0.0
 0000266,0.00000093,-0.00000901,0.00001951,-0.00000630,-0.00002975,0.00
 000661,0.00001397,0.00000146,0.00001028,-0.00000805,0.00000425,0.00000
 036,-0.00001163,0.00000420,0.00000698,0.00000262,-0.00000688,-0.000010
 52,-0.00001125,0.00004900,-0.00002617,0.00001997,0.00002086,-0.0000003
 1,0.00000996,-0.00000764,0.00000182,-0.00000244,0.00000137\\\@
 The archive entry for this job was punched.


 IF YOU WISH TO UNDERSTAND THE FRAGRANCE OF THE ROSE, 
 OR THE TENACITY OF THE OAK; 
 IF YOU ARE NOT SATISFIED UNTIL YOU KNOW THE SECRET PATHS 
 BY WHICH THE SUNSHINE AND THE AIR ACHIEVE THESE WONDERS; 
 IF YOU WISH TO SEE THE PATTERN WHICH UNDERLIES ONE LARGE FIELD OF 
 HUMAN EXPERIENCE AND HUMAN MEASUREMENT, THEN TAKE UP CHEMISTRY.

                                         -- C. A. COULSON, 1973.
 Job cpu time:       0 days  0 hours 27 minutes 26.4 seconds.
 Elapsed time:       0 days  0 hours  3 minutes 32.5 seconds.
 File lengths (MBytes):  RWF=    116 Int=      0 D2E=      0 Chk=      9 Scr=      1
 Normal termination of Gaussian 16 at Sat May 24 06:21:24 2025.
done
