2
energy = -75.7248769982
O 2.00876700 1.24488900 -0.00110900
H 2.97909100 1.20799700 0.01323100
