1
energy = -99.7337277474
F -0.46601700 0.86315600 -0.91478800
