2
energy = -113.31709943600002
C 2.49782300 -2.06835700 -2.31490700
O 2.58258200 -1.27475700 -1.52894200
