3
energy = -188.586549934
C 2.54169600 -0.78993100 -0.64183600
O 2.55934100 -1.94346000 -0.68788100
O 2.52404800 0.36359900 -0.59579100
