4
energy = -189.08249575000002
C 1.57009700 -0.00458000 -0.00067900
O 2.16104800 -1.02067000 0.01072900
O 2.00820400 1.24031600 0.00017100
H 2.98146900 1.24081800 0.01244300
