3
energy = -237.716060001
C -0.78866600 -0.67914600 -1.74444900
F -1.81119800 -0.42831100 -2.49614600
F -0.68470600 -1.96843500 -1.75858200
