 Entering Gaussian System, Link 0=g16
 Initial command:
 /apps/easybuild-2022/easybuild/software/Compiler/NVHPC/22.11-CUDA-11.7.0/Gaussian/g16c01-CUDA-11.7.0/g16/l1.exe "/tmp/Gau-114663.inp" -scrdir="/tmp/"
 Entering Link 1 = /apps/easybuild-2022/easybuild/software/Compiler/NVHPC/22.11-CUDA-11.7.0/Gaussian/g16c01-CUDA-11.7.0/g16/l1.exe PID=    114671.
  
 Copyright (c) 1988-2019, Gaussian, Inc.  All Rights Reserved.
  
 This is part of the Gaussian(R) 16 program.  It is based on
 the Gaussian(R) 09 system (copyright 2009, Gaussian, Inc.),
 the Gaussian(R) 03 system (copyright 2003, Gaussian, Inc.),
 the Gaussian(R) 98 system (copyright 1998, Gaussian, Inc.),
 the Gaussian(R) 94 system (copyright 1995, Gaussian, Inc.),
 the Gaussian 92(TM) system (copyright 1992, Gaussian, Inc.),
 the Gaussian 90(TM) system (copyright 1990, Gaussian, Inc.),
 the Gaussian 88(TM) system (copyright 1988, Gaussian, Inc.),
 the Gaussian 86(TM) system (copyright 1986, Carnegie Mellon
 University), and the Gaussian 82(TM) system (copyright 1983,
 Carnegie Mellon University). Gaussian is a federally registered
 trademark of Gaussian, Inc.
  
 This software contains proprietary and confidential information,
 including trade secrets, belonging to Gaussian, Inc.
  
 This software is provided under written license and may be
 used, copied, transmitted, or stored only in accord with that
 written license.
  
 The following legend is applicable only to US Government
 contracts under FAR:
  
                    RESTRICTED RIGHTS LEGEND
  
 Use, reproduction and disclosure by the US Government is
 subject to restrictions as set forth in subparagraphs (a)
 and (c) of the Commercial Computer Software - Restricted
 Rights clause in FAR 52.227-19.
  
 Gaussian, Inc.
 340 Quinnipiac St., Bldg. 40, Wallingford CT 06492
  
  
 ---------------------------------------------------------------
 Warning -- This program may not be used in any manner that
 competes with the business of Gaussian, Inc. or will provide
 assistance to any competitor of Gaussian, Inc.  The licensee
 of this program is prohibited from giving any competitor of
 Gaussian, Inc. access to this program.  By using this program,
 the user acknowledges that Gaussian, Inc. is engaged in the
 business of creating and licensing software in the field of
 computational chemistry and represents and warrants to the
 licensee that it is not a competitor of Gaussian, Inc. and that
 it will not use this program in any manner prohibited above.
 ---------------------------------------------------------------
  

 Cite this work as:
 Gaussian 16, Revision C.01,
 M. J. Frisch, G. W. Trucks, H. B. Schlegel, G. E. Scuseria, 
 M. A. Robb, J. R. Cheeseman, G. Scalmani, V. Barone, 
 G. A. Petersson, H. Nakatsuji, X. Li, M. Caricato, A. V. Marenich, 
 J. Bloino, B. G. Janesko, R. Gomperts, B. Mennucci, H. P. Hratchian, 
 J. V. Ortiz, A. F. Izmaylov, J. L. Sonnenberg, D. Williams-Young, 
 F. Ding, F. Lipparini, F. Egidi, J. Goings, B. Peng, A. Petrone, 
 T. Henderson, D. Ranasinghe, V. G. Zakrzewski, J. Gao, N. Rega, 
 G. Zheng, W. Liang, M. Hada, M. Ehara, K. Toyota, R. Fukuda, 
 J. Hasegawa, M. Ishida, T. Nakajima, Y. Honda, O. Kitao, H. Nakai, 
 T. Vreven, K. Throssell, J. A. Montgomery, Jr., J. E. Peralta, 
 F. Ogliaro, M. J. Bearpark, J. J. Heyd, E. N. Brothers, K. N. Kudin, 
 V. N. Staroverov, T. A. Keith, R. Kobayashi, J. Normand, 
 K. Raghavachari, A. P. Rendell, J. C. Burant, S. S. Iyengar, 
 J. Tomasi, M. Cossi, J. M. Millam, M. Klene, C. Adamo, R. Cammi, 
 J. W. Ochterski, R. L. Martin, K. Morokuma, O. Farkas, 
 J. B. Foresman, and D. J. Fox, Gaussian, Inc., Wallingford CT, 2019.
 
 ******************************************
 Gaussian 16:  ES64L-G16RevC.01  3-Jul-2019
                24-May-2025 
 ******************************************
 %mem=28GB
 %nprocshared=8
 Will use up to    8 processors via shared memory.
 -----------------------------------------------------------------
 #P M062X/Def2TZVPP Symm(None) scf(xqc) pop(None) freq opt(CalcFC)
 -----------------------------------------------------------------
 1/10=4,18=20,19=15,26=3,38=1/1,3;
 2/9=110,12=2,15=3,17=6,18=5,40=1/2;
 3/5=44,7=202,11=2,25=1,30=1,71=2,74=-55,140=1/1,2,3;
 4//1;
 5/5=2,8=3,13=1,38=5/2,8;
 8/6=4,10=90,11=11/1;
 11/6=1,8=1,9=11,15=111,16=1,31=1/1,2,10;
 10/6=1,13=1,31=1/2;
 7/10=1,25=1,30=1/1,2,3,16;
 1/10=4,18=20,19=15,26=3/3(2);
 2/9=110,15=3/2;
 99//99;
 2/9=110,15=3/2;
 3/5=44,7=202,11=2,25=1,30=1,71=1,74=-55/1,2,3;
 4/5=5,16=3,69=1/1;
 5/5=2,8=3,13=1,38=5/2,8;
 7/30=1/1,2,3,16;
 1/18=20,19=15,26=3/3(-5);
 2/9=110,15=3/2;
 99/9=1/99;
 Leave Link    1 at Sat May 24 05:02:07 2025, MaxMem=  3758096384 cpu:               0.0 elap:               0.0
 (Enter /apps/easybuild-2022/easybuild/software/Compiler/NVHPC/22.11-CUDA-11.7.0/Gaussian/g16c01-CUDA-11.7.0/g16/l101.exe)
 ------------------------------
 Gaussian input prepared by ASE
 ------------------------------
 Symbolic Z-matrix:
 Charge =  0 Multiplicity = 1
 C                    -0.78867  -0.67915  -1.74445 
 F                    -1.8112   -0.42831  -2.49615 
 F                    -0.68471  -1.96844  -1.75858 
 
 ITRead=  0  0  0
 MicOpt= -1 -1 -1
 NAtoms=      3 NQM=        3 NQMF=       0 NMMI=      0 NMMIF=      0
                NMic=       0 NMicF=      0.
                    Isotopes and Nuclear Properties:
 (Nuclear quadrupole moments (NQMom) in fm**2, nuclear magnetic moments (NMagM)
  in nuclear magnetons)

  Atom         1           2           3
 IAtWgt=          12          19          19
 AtmWgt=  12.0000000  18.9984032  18.9984032
 NucSpn=           0           1           1
 AtZEff=  -0.0000000  -0.0000000  -0.0000000
 NQMom=    0.0000000   0.0000000   0.0000000
 NMagM=    0.0000000   2.6288670   2.6288670
 AtZNuc=   6.0000000   9.0000000   9.0000000
 Leave Link  101 at Sat May 24 05:02:08 2025, MaxMem=  3758096384 cpu:               0.2 elap:               0.2
 (Enter /apps/easybuild-2022/easybuild/software/Compiler/NVHPC/22.11-CUDA-11.7.0/Gaussian/g16c01-CUDA-11.7.0/g16/l103.exe)

 GradGradGradGradGradGradGradGradGradGradGradGradGradGradGradGradGradGrad
 Berny optimization.
 Initialization pass.
                           ----------------------------
                           !    Initial Parameters    !
                           ! (Angstroms and Degrees)  !
 --------------------------                            --------------------------
 ! Name  Definition              Value          Derivative Info.                !
 --------------------------------------------------------------------------------
 ! R1    R(1,2)                  1.2937         calculate D2E/DX2 analytically  !
 ! R2    R(1,3)                  1.2936         calculate D2E/DX2 analytically  !
 ! A1    A(2,1,3)              104.5032         calculate D2E/DX2 analytically  !
 --------------------------------------------------------------------------------
 Trust Radius=3.00D-01 FncErr=1.00D-07 GrdErr=1.00D-06 EigMax=2.50D+02 EigMin=1.00D-04
 Number of steps in this run=     20 maximum allowed number of steps=    100.
 GradGradGradGradGradGradGradGradGradGradGradGradGradGradGradGradGradGrad

 Leave Link  103 at Sat May 24 05:02:08 2025, MaxMem=  3758096384 cpu:               0.0 elap:               0.0
 (Enter /apps/easybuild-2022/easybuild/software/Compiler/NVHPC/22.11-CUDA-11.7.0/Gaussian/g16c01-CUDA-11.7.0/g16/l202.exe)
                          Input orientation:                          
 ---------------------------------------------------------------------
 Center     Atomic      Atomic             Coordinates (Angstroms)
 Number     Number       Type             X           Y           Z
 ---------------------------------------------------------------------
      1          6           0       -0.788666   -0.679146   -1.744449
      2          9           0       -1.811198   -0.428311   -2.496146
      3          9           0       -0.684706   -1.968435   -1.758582
 ---------------------------------------------------------------------
                    Distance matrix (angstroms):
                    1          2          3
     1  C    0.000000
     2  F    1.293653   0.000000
     3  F    1.293551   2.045719   0.000000
 Symmetry turned off by external request.
 Stoichiometry    CF2
 Rotational constants (GHZ):          88.3588107          12.7127081          11.1137122
 Leave Link  202 at Sat May 24 05:02:08 2025, MaxMem=  3758096384 cpu:               0.0 elap:               0.0
 (Enter /apps/easybuild-2022/easybuild/software/Compiler/NVHPC/22.11-CUDA-11.7.0/Gaussian/g16c01-CUDA-11.7.0/g16/l301.exe)
 Standard basis: def2TZVPP (5D, 7F)
 Ernie: Thresh=  0.10000D-02 Tol=  0.10000D-05 Strict=F.
    93 basis functions,   153 primitive gaussians,   108 cartesian basis functions
    12 alpha electrons       12 beta electrons
       nuclear repulsion energy        65.1325574764 Hartrees.
 IExCor= 4336 DFT=T Ex+Corr=M062X ExCW=0 ScaHFX=  0.540000
 ScaDFX=  1.000000  1.000000  1.000000  1.000000 ScalE2=  1.000000  1.000000
 IRadAn=      5 IRanWt=     -1 IRanGd=            0 ICorTp=0 IEmpDi=  4
 NAtoms=    3 NActive=    3 NUniq=    3 SFac= 1.00D+00 NAtFMM=   60 NAOKFM=F Big=F
 Integral buffers will be    131072 words long.
 Raffenetti 2 integral format.
 Two-electron integral symmetry is turned off.
 Leave Link  301 at Sat May 24 05:02:08 2025, MaxMem=  3758096384 cpu:               0.0 elap:               0.0
 (Enter /apps/easybuild-2022/easybuild/software/Compiler/NVHPC/22.11-CUDA-11.7.0/Gaussian/g16c01-CUDA-11.7.0/g16/l302.exe)
 NPDir=0 NMtPBC=     1 NCelOv=     1 NCel=       1 NClECP=     1 NCelD=      1
         NCelK=      1 NCelE2=     1 NClLst=     1 CellRange=     0.0.
 One-electron integrals computed using PRISM.
   1 Symmetry operations used in ECPInt.
 ECPInt:  NShTT=     561 NPrTT=    1896 LenC2=     557 LenP2D=    1657.
 LDataN:  DoStor=T MaxTD1= 6 Len=  172
 NBasis=    93 RedAO= T EigKep=  2.21D-03  NBF=    93
 NBsUse=    93 1.00D-06 EigRej= -1.00D+00 NBFU=    93
 Precomputing XC quadrature grid using
 IXCGrd= 4 IRadAn=           5 IRanWt=          -1 IRanGd=           0 AccXCQ= 0.00D+00.
 Generated NRdTot=       0 NPtTot=           0 NUsed=           0 NTot=          32
 NSgBfM=   108   108   108   108   108 MxSgAt=     3 MxSgA2=     3.
 Leave Link  302 at Sat May 24 05:02:08 2025, MaxMem=  3758096384 cpu:               0.3 elap:               0.1
 (Enter /apps/easybuild-2022/easybuild/software/Compiler/NVHPC/22.11-CUDA-11.7.0/Gaussian/g16c01-CUDA-11.7.0/g16/l303.exe)
 DipDrv:  MaxL=1.
 Leave Link  303 at Sat May 24 05:02:08 2025, MaxMem=  3758096384 cpu:               0.1 elap:               0.0
 (Enter /apps/easybuild-2022/easybuild/software/Compiler/NVHPC/22.11-CUDA-11.7.0/Gaussian/g16c01-CUDA-11.7.0/g16/l401.exe)
 ExpMin= 9.52D-02 ExpMax= 3.55D+04 ExpMxC= 1.21D+03 IAcc=3 IRadAn=         5 AccDes= 0.00D+00
 Harris functional with IExCor= 1009 and IRadAn=       5 diagonalized for initial guess.
 HarFok:  IExCor= 1009 AccDes= 0.00D+00 IRadAn=         5 IDoV= 1 UseB2=F ITyADJ=14
 ICtDFT=  3500011 ScaDFX=  1.000000  1.000000  1.000000  1.000000
 FoFCou: FMM=F IPFlag=           0 FMFlag=      100000 FMFlg1=           0
         NFxFlg=           0 DoJE=T BraDBF=F KetDBF=T FulRan=T
         wScrn=  0.000000 ICntrl=       500 IOpCl=  0 I1Cent=   200000004 NGrid=           0
         NMat0=    1 NMatS0=      1 NMatT0=    0 NMatD0=    1 NMtDS0=    0 NMtDT0=    0
 Symmetry not used in FoFCou.
 Harris En= -237.567242943967    
 JPrj=0 DoOrth=F DoCkMO=F.
 Leave Link  401 at Sat May 24 05:02:08 2025, MaxMem=  3758096384 cpu:               0.7 elap:               0.1
 (Enter /apps/easybuild-2022/easybuild/software/Compiler/NVHPC/22.11-CUDA-11.7.0/Gaussian/g16c01-CUDA-11.7.0/g16/l502.exe)
 Keep R1 ints in memory in canonical form, NReq=17039264.
 FoFCou: FMM=F IPFlag=           0 FMFlag=           0 FMFlg1=           0
         NFxFlg=           0 DoJE=F BraDBF=F KetDBF=F FulRan=T
         wScrn=  0.000000 ICntrl=       600 IOpCl=  0 I1Cent=           0 NGrid=           0
         NMat0=    1 NMatS0=   4371 NMatT0=    0 NMatD0=    1 NMtDS0=    0 NMtDT0=    0
 Symmetry not used in FoFCou.
 Two-electron integral symmetry not used.
 Closed shell SCF:
 Using DIIS extrapolation, IDIIS=  1040.
 NGot=  3758096384 LenX=  3748516330 LenY=  3748504225
 Requested convergence on RMS density matrix=1.00D-08 within  32 cycles.
 Requested convergence on MAX density matrix=1.00D-06.
 Requested convergence on             energy=1.00D-06.
 No special actions if energy rises.
 Integral accuracy reduced to 1.0D-05 until final iterations.

 Cycle   1  Pass 0  IDiag  1:
 E= -237.705035544451    
 DIIS: error= 2.03D-02 at cycle   1 NSaved=   1.
 NSaved= 1 IEnMin= 1 EnMin= -237.705035544451     IErMin= 1 ErrMin= 2.03D-02
 ErrMax= 2.03D-02  0.00D+00 EMaxC= 1.00D-01 BMatC= 5.04D-02 BMatP= 5.04D-02
 IDIUse=3 WtCom= 7.97D-01 WtEn= 2.03D-01
 Coeff-Com:  0.100D+01
 Coeff-En:   0.100D+01
 Coeff:      0.100D+01
 Gap=     0.331 Goal=   None    Shift=    0.000
 GapD=    0.331 DampG=1.000 DampE=0.500 DampFc=0.5000 IDamp=-1.
 Damping current iteration by 5.00D-01
 RMSDP=1.69D-03 MaxDP=2.44D-02              OVMax= 4.05D-02

 Cycle   2  Pass 0  IDiag  1:
 E= -237.713645991314     Delta-E=       -0.008610446863 Rises=F Damp=T
 DIIS: error= 1.00D-02 at cycle   2 NSaved=   2.
 NSaved= 2 IEnMin= 2 EnMin= -237.713645991314     IErMin= 2 ErrMin= 1.00D-02
 ErrMax= 1.00D-02  0.00D+00 EMaxC= 1.00D-01 BMatC= 8.17D-03 BMatP= 5.04D-02
 IDIUse=3 WtCom= 9.00D-01 WtEn= 1.00D-01
 Coeff-Com: -0.267D+00 0.127D+01
 Coeff-En:   0.000D+00 0.100D+01
 Coeff:     -0.240D+00 0.124D+01
 Gap=     0.338 Goal=   None    Shift=    0.000
 RMSDP=7.13D-04 MaxDP=1.37D-02 DE=-8.61D-03 OVMax= 4.17D-02

 Cycle   3  Pass 0  IDiag  1:
 E= -237.721544480251     Delta-E=       -0.007898488937 Rises=F Damp=F
 DIIS: error= 5.92D-03 at cycle   3 NSaved=   3.
 NSaved= 3 IEnMin= 3 EnMin= -237.721544480251     IErMin= 3 ErrMin= 5.92D-03
 ErrMax= 5.92D-03  0.00D+00 EMaxC= 1.00D-01 BMatC= 3.02D-03 BMatP= 8.17D-03
 IDIUse=3 WtCom= 9.41D-01 WtEn= 5.92D-02
 Coeff-Com: -0.265D+00 0.552D+00 0.714D+00
 Coeff-En:   0.000D+00 0.000D+00 0.100D+01
 Coeff:     -0.250D+00 0.519D+00 0.731D+00
 Gap=     0.342 Goal=   None    Shift=    0.000
 RMSDP=2.84D-04 MaxDP=6.15D-03 DE=-7.90D-03 OVMax= 1.06D-02

 Cycle   4  Pass 0  IDiag  1:
 E= -237.723241212752     Delta-E=       -0.001696732500 Rises=F Damp=F
 DIIS: error= 6.40D-04 at cycle   4 NSaved=   4.
 NSaved= 4 IEnMin= 4 EnMin= -237.723241212752     IErMin= 4 ErrMin= 6.40D-04
 ErrMax= 6.40D-04  0.00D+00 EMaxC= 1.00D-01 BMatC= 3.87D-05 BMatP= 3.02D-03
 IDIUse=3 WtCom= 9.94D-01 WtEn= 6.40D-03
 Coeff-Com: -0.394D-01 0.716D-01 0.179D+00 0.789D+00
 Coeff-En:   0.000D+00 0.000D+00 0.000D+00 0.100D+01
 Coeff:     -0.391D-01 0.711D-01 0.178D+00 0.790D+00
 Gap=     0.341 Goal=   None    Shift=    0.000
 RMSDP=3.03D-05 MaxDP=8.75D-04 DE=-1.70D-03 OVMax= 1.82D-03

 Cycle   5  Pass 0  IDiag  1:
 E= -237.723264984695     Delta-E=       -0.000023771944 Rises=F Damp=F
 DIIS: error= 8.17D-05 at cycle   5 NSaved=   5.
 NSaved= 5 IEnMin= 5 EnMin= -237.723264984695     IErMin= 5 ErrMin= 8.17D-05
 ErrMax= 8.17D-05  0.00D+00 EMaxC= 1.00D-01 BMatC= 2.94D-07 BMatP= 3.87D-05
 IDIUse=1 WtCom= 1.00D+00 WtEn= 0.00D+00
 Coeff-Com:  0.365D-02-0.759D-02-0.180D-01-0.288D-01 0.105D+01
 Coeff:      0.365D-02-0.759D-02-0.180D-01-0.288D-01 0.105D+01
 Gap=     0.341 Goal=   None    Shift=    0.000
 RMSDP=7.63D-06 MaxDP=2.37D-04 DE=-2.38D-05 OVMax= 4.28D-04

 Initial convergence to 1.0D-05 achieved.  Increase integral accuracy.
 Cycle   6  Pass 1  IDiag  1:
 E= -237.723264863956     Delta-E=        0.000000120739 Rises=F Damp=F
 DIIS: error= 2.78D-05 at cycle   1 NSaved=   1.
 NSaved= 1 IEnMin= 1 EnMin= -237.723264863956     IErMin= 1 ErrMin= 2.78D-05
 ErrMax= 2.78D-05  0.00D+00 EMaxC= 1.00D-01 BMatC= 1.38D-07 BMatP= 1.38D-07
 IDIUse=1 WtCom= 1.00D+00 WtEn= 0.00D+00
 Coeff-Com:  0.100D+01
 Coeff:      0.100D+01
 Gap=     0.341 Goal=   None    Shift=    0.000
 RMSDP=7.63D-06 MaxDP=2.37D-04 DE= 1.21D-07 OVMax= 1.29D-04

 Cycle   7  Pass 1  IDiag  1:
 E= -237.723264971390     Delta-E=       -0.000000107433 Rises=F Damp=F
 DIIS: error= 2.32D-05 at cycle   2 NSaved=   2.
 NSaved= 2 IEnMin= 2 EnMin= -237.723264971390     IErMin= 2 ErrMin= 2.32D-05
 ErrMax= 2.32D-05  0.00D+00 EMaxC= 1.00D-01 BMatC= 3.76D-08 BMatP= 1.38D-07
 IDIUse=1 WtCom= 1.00D+00 WtEn= 0.00D+00
 Coeff-Com:  0.268D+00 0.732D+00
 Coeff:      0.268D+00 0.732D+00
 Gap=     0.341 Goal=   None    Shift=    0.000
 RMSDP=1.67D-06 MaxDP=3.77D-05 DE=-1.07D-07 OVMax= 8.98D-05

 Cycle   8  Pass 1  IDiag  1:
 E= -237.723264990478     Delta-E=       -0.000000019088 Rises=F Damp=F
 DIIS: error= 1.34D-05 at cycle   3 NSaved=   3.
 NSaved= 3 IEnMin= 3 EnMin= -237.723264990478     IErMin= 3 ErrMin= 1.34D-05
 ErrMax= 1.34D-05  0.00D+00 EMaxC= 1.00D-01 BMatC= 1.64D-08 BMatP= 3.76D-08
 IDIUse=1 WtCom= 1.00D+00 WtEn= 0.00D+00
 Coeff-Com: -0.415D-01 0.390D+00 0.651D+00
 Coeff:     -0.415D-01 0.390D+00 0.651D+00
 Gap=     0.341 Goal=   None    Shift=    0.000
 RMSDP=6.22D-07 MaxDP=1.23D-05 DE=-1.91D-08 OVMax= 2.32D-05

 Cycle   9  Pass 1  IDiag  1:
 E= -237.723265000247     Delta-E=       -0.000000009769 Rises=F Damp=F
 DIIS: error= 1.61D-06 at cycle   4 NSaved=   4.
 NSaved= 4 IEnMin= 4 EnMin= -237.723265000247     IErMin= 4 ErrMin= 1.61D-06
 ErrMax= 1.61D-06  0.00D+00 EMaxC= 1.00D-01 BMatC= 2.21D-10 BMatP= 1.64D-08
 IDIUse=1 WtCom= 1.00D+00 WtEn= 0.00D+00
 Coeff-Com: -0.251D-01 0.584D-01 0.999D-01 0.867D+00
 Coeff:     -0.251D-01 0.584D-01 0.999D-01 0.867D+00
 Gap=     0.341 Goal=   None    Shift=    0.000
 RMSDP=1.83D-07 MaxDP=3.91D-06 DE=-9.77D-09 OVMax= 6.99D-06

 Cycle  10  Pass 1  IDiag  1:
 E= -237.723265000518     Delta-E=       -0.000000000271 Rises=F Damp=F
 DIIS: error= 4.23D-07 at cycle   5 NSaved=   5.
 NSaved= 5 IEnMin= 5 EnMin= -237.723265000518     IErMin= 5 ErrMin= 4.23D-07
 ErrMax= 4.23D-07  0.00D+00 EMaxC= 1.00D-01 BMatC= 2.10D-11 BMatP= 2.21D-10
 IDIUse=1 WtCom= 1.00D+00 WtEn= 0.00D+00
 Coeff-Com:  0.366D-02-0.363D-01-0.746D-01 0.525D-01 0.105D+01
 Coeff:      0.366D-02-0.363D-01-0.746D-01 0.525D-01 0.105D+01
 Gap=     0.341 Goal=   None    Shift=    0.000
 RMSDP=7.22D-08 MaxDP=1.71D-06 DE=-2.71D-10 OVMax= 3.41D-06

 Cycle  11  Pass 1  IDiag  1:
 E= -237.723265000550     Delta-E=       -0.000000000032 Rises=F Damp=F
 DIIS: error= 2.40D-07 at cycle   6 NSaved=   6.
 NSaved= 6 IEnMin= 6 EnMin= -237.723265000550     IErMin= 6 ErrMin= 2.40D-07
 ErrMax= 2.40D-07  0.00D+00 EMaxC= 1.00D-01 BMatC= 5.31D-12 BMatP= 2.10D-11
 IDIUse=1 WtCom= 1.00D+00 WtEn= 0.00D+00
 Coeff-Com:  0.262D-02-0.201D-01-0.411D-01-0.742D-02 0.530D+00 0.536D+00
 Coeff:      0.262D-02-0.201D-01-0.411D-01-0.742D-02 0.530D+00 0.536D+00
 Gap=     0.341 Goal=   None    Shift=    0.000
 RMSDP=1.24D-08 MaxDP=2.59D-07 DE=-3.18D-11 OVMax= 5.78D-07

 Cycle  12  Pass 1  IDiag  1:
 E= -237.723265000557     Delta-E=       -0.000000000007 Rises=F Damp=F
 DIIS: error= 4.60D-08 at cycle   7 NSaved=   7.
 NSaved= 7 IEnMin= 7 EnMin= -237.723265000557     IErMin= 7 ErrMin= 4.60D-08
 ErrMax= 4.60D-08  0.00D+00 EMaxC= 1.00D-01 BMatC= 2.57D-13 BMatP= 5.31D-12
 IDIUse=1 WtCom= 1.00D+00 WtEn= 0.00D+00
 Coeff-Com:  0.898D-05 0.124D-02 0.222D-02-0.148D-01-0.485D-01 0.140D+00
 Coeff-Com:  0.920D+00
 Coeff:      0.898D-05 0.124D-02 0.222D-02-0.148D-01-0.485D-01 0.140D+00
 Coeff:      0.920D+00
 Gap=     0.341 Goal=   None    Shift=    0.000
 RMSDP=5.90D-09 MaxDP=1.03D-07 DE=-7.05D-12 OVMax= 3.15D-07

 SCF Done:  E(RM062X) =  -237.723265001     A.U. after   12 cycles
            NFock= 12  Conv=0.59D-08     -V/T= 2.0035
 KE= 2.369036531608D+02 PE=-6.948480548349D+02 EE= 1.550885791972D+02
 Leave Link  502 at Sat May 24 05:02:09 2025, MaxMem=  3758096384 cpu:               4.8 elap:               0.7
 (Enter /apps/easybuild-2022/easybuild/software/Compiler/NVHPC/22.11-CUDA-11.7.0/Gaussian/g16c01-CUDA-11.7.0/g16/l508.exe)
 QCSCF skips out because SCF is already converged.
 Leave Link  508 at Sat May 24 05:02:09 2025, MaxMem=  3758096384 cpu:               0.0 elap:               0.0
 (Enter /apps/easybuild-2022/easybuild/software/Compiler/NVHPC/22.11-CUDA-11.7.0/Gaussian/g16c01-CUDA-11.7.0/g16/l801.exe)
 DoSCS=F DFT=T ScalE2(SS,OS)=  1.000000  1.000000
 Range of M.O.s used for correlation:     1    93
 NBasis=    93 NAE=    12 NBE=    12 NFC=     0 NFV=     0
 NROrb=     93 NOA=    12 NOB=    12 NVA=    81 NVB=    81
 Leave Link  801 at Sat May 24 05:02:09 2025, MaxMem=  3758096384 cpu:               0.0 elap:               0.0
 (Enter /apps/easybuild-2022/easybuild/software/Compiler/NVHPC/22.11-CUDA-11.7.0/Gaussian/g16c01-CUDA-11.7.0/g16/l1101.exe)
 Using compressed storage, NAtomX=     3.
 Will process      4 centers per pass.
   1 Symmetry operations used in ECPInt.
 ECPInt:  NShTT=     561 NPrTT=    1896 LenC2=     557 LenP2D=    1657.
 LDataN:  DoStor=T MaxTD1= 7 Len=  274
 Leave Link 1101 at Sat May 24 05:02:09 2025, MaxMem=  3758096384 cpu:               0.4 elap:               0.1
 (Enter /apps/easybuild-2022/easybuild/software/Compiler/NVHPC/22.11-CUDA-11.7.0/Gaussian/g16c01-CUDA-11.7.0/g16/l1102.exe)
 Symmetrizing basis deriv contribution to polar:
 IMax=3 JMax=2 DiffMx= 0.00D+00
 Leave Link 1102 at Sat May 24 05:02:09 2025, MaxMem=  3758096384 cpu:               0.1 elap:               0.0
 (Enter /apps/easybuild-2022/easybuild/software/Compiler/NVHPC/22.11-CUDA-11.7.0/Gaussian/g16c01-CUDA-11.7.0/g16/l1110.exe)
 Forming Gx(P) for the SCF density, NAtomX=     3.
 Integral derivatives from FoFJK, PRISM(SPDF).
 Do as many integral derivatives as possible in FoFJK.
 G2DrvN: MDV=    3758095951.
 G2DrvN: will do     4 centers at a time, making    1 passes.
 Calling FoFCou, ICntrl=  3107 FMM=F I1Cent=   0 AccDes= 0.00D+00.
 FoFJK:  IHMeth= 1 ICntrl=    3107 DoSepK=F KAlg= 0 I1Cent=           0 FoldK=F
 IRaf=         0 NMat=       1 IRICut=       1 DoRegI=T DoRafI=F ISym2E= 0 IDoP0=0 IntGTp=1.
 FoFCou: FMM=F IPFlag=           0 FMFlag=      100000 FMFlg1=           0
         NFxFlg=           0 DoJE=F BraDBF=F KetDBF=F FulRan=T
         wScrn=  0.000000 ICntrl=      3107 IOpCl=  0 I1Cent=           0 NGrid=           0
         NMat0=    1 NMatS0=      1 NMatT0=    0 NMatD0=    1 NMtDS0=    0 NMtDT0=    0
 Symmetry not used in FoFCou.
 End of G2Drv F.D. properties file   721 does not exist.
 End of G2Drv F.D. properties file   722 does not exist.
 End of G2Drv F.D. properties file   788 does not exist.
 Leave Link 1110 at Sat May 24 05:02:10 2025, MaxMem=  3758096384 cpu:               5.8 elap:               0.8
 (Enter /apps/easybuild-2022/easybuild/software/Compiler/NVHPC/22.11-CUDA-11.7.0/Gaussian/g16c01-CUDA-11.7.0/g16/l1002.exe)
 Minotr:  Closed shell wavefunction.
          IDoAtm=111
          Direct CPHF calculation.
          Differentiating once with respect to nuclear coordinates.
          Requested convergence is 1.0D-08 RMS, and 1.0D-07 maximum.
          Secondary convergence is 1.0D-12 RMS, and 1.0D-12 maximum.
          NewPWx=T KeepS1=F KeepF1=F KeepIn=T MapXYZ=F SortEE=F KeepMc=T.
          895 words used for storage of precomputed grid.
 Keep R1 ints in memory in canonical form, NReq=17014286.
 FoFCou: FMM=F IPFlag=           0 FMFlag=           0 FMFlg1=           0
         NFxFlg=           0 DoJE=F BraDBF=F KetDBF=F FulRan=T
         wScrn=  0.000000 ICntrl=       600 IOpCl=  0 I1Cent=           0 NGrid=           0
         NMat0=    1 NMatS0=   4371 NMatT0=    0 NMatD0=    1 NMtDS0=    0 NMtDT0=    0
 Symmetry not used in FoFCou.
 Two-electron integral symmetry not used.
          MDV=    3758096384 using IRadAn=       1.
          Solving linear equations simultaneously, MaxMat=       0.
          There are    12 degrees of freedom in the 1st order CPHF.  IDoFFX=6 NUNeed=     0.
      6 vectors produced by pass  0 Test12= 8.10D-15 8.33D-09 XBig12= 8.50D-02 1.53D-01.
 AX will form     6 AO Fock derivatives at one time.
      6 vectors produced by pass  1 Test12= 8.10D-15 8.33D-09 XBig12= 8.71D-03 4.94D-02.
      6 vectors produced by pass  2 Test12= 8.10D-15 8.33D-09 XBig12= 8.11D-04 8.76D-03.
      6 vectors produced by pass  3 Test12= 8.10D-15 8.33D-09 XBig12= 3.04D-05 2.59D-03.
      6 vectors produced by pass  4 Test12= 8.10D-15 8.33D-09 XBig12= 9.40D-07 3.36D-04.
      6 vectors produced by pass  5 Test12= 8.10D-15 8.33D-09 XBig12= 1.29D-08 2.99D-05.
      6 vectors produced by pass  6 Test12= 8.10D-15 8.33D-09 XBig12= 1.22D-10 2.66D-06.
      6 vectors produced by pass  7 Test12= 8.10D-15 8.33D-09 XBig12= 1.02D-12 3.10D-07.
      3 vectors produced by pass  8 Test12= 8.10D-15 8.33D-09 XBig12= 7.31D-15 2.68D-08.
 InvSVY:  IOpt=1 It=  1 EMax= 6.66D-16
 Solved reduced A of dimension    51 with     6 vectors.
 End of Minotr F.D. properties file   721 does not exist.
 End of Minotr F.D. properties file   722 does not exist.
 End of Minotr F.D. properties file   788 does not exist.
 Leave Link 1002 at Sat May 24 05:02:11 2025, MaxMem=  3758096384 cpu:               8.4 elap:               1.1
 (Enter /apps/easybuild-2022/easybuild/software/Compiler/NVHPC/22.11-CUDA-11.7.0/Gaussian/g16c01-CUDA-11.7.0/g16/l701.exe)
 ... and contract with generalized density number  0.
 Compute integral second derivatives.
   1 Symmetry operations used in ECPInt.
 ECPInt:  NShTT=     561 NPrTT=    1896 LenC2=     557 LenP2D=    1657.
 LDataN:  DoStor=T MaxTD1= 8 Len=  415
 Leave Link  701 at Sat May 24 05:02:11 2025, MaxMem=  3758096384 cpu:               0.5 elap:               0.1
 (Enter /apps/easybuild-2022/easybuild/software/Compiler/NVHPC/22.11-CUDA-11.7.0/Gaussian/g16c01-CUDA-11.7.0/g16/l702.exe)
 L702 exits ... SP integral derivatives will be done elsewhere.
 Leave Link  702 at Sat May 24 05:02:11 2025, MaxMem=  3758096384 cpu:               0.0 elap:               0.0
 (Enter /apps/easybuild-2022/easybuild/software/Compiler/NVHPC/22.11-CUDA-11.7.0/Gaussian/g16c01-CUDA-11.7.0/g16/l703.exe)
 Integral derivatives from FoFJK, PRISM(SPDF).
 Compute integral second derivatives, UseDBF=F ICtDFT=           0.
 Calling FoFJK, ICntrl=    100127 FMM=F ISym2X=0 I1Cent= 0 IOpClX= 0 NMat=1 NMatS=1 NMatT=0.
 FoFJK:  IHMeth= 1 ICntrl=  100127 DoSepK=F KAlg= 0 I1Cent=           0 FoldK=F
 IRaf=         0 NMat=       1 IRICut=       1 DoRegI=T DoRafI=F ISym2E= 0 IDoP0=0 IntGTp=1.
 FoFCou: FMM=F IPFlag=           0 FMFlag=      100000 FMFlg1=         800
         NFxFlg=           0 DoJE=F BraDBF=F KetDBF=F FulRan=T
         wScrn=  0.000000 ICntrl=    100127 IOpCl=  0 I1Cent=           0 NGrid=           0
         NMat0=    1 NMatS0=      1 NMatT0=    0 NMatD0=    1 NMtDS0=    0 NMtDT0=    0
 Symmetry not used in FoFCou.
 Leave Link  703 at Sat May 24 05:02:13 2025, MaxMem=  3758096384 cpu:              15.4 elap:               2.0
 (Enter /apps/easybuild-2022/easybuild/software/Compiler/NVHPC/22.11-CUDA-11.7.0/Gaussian/g16c01-CUDA-11.7.0/g16/l716.exe)
 Dipole        =-1.27338095D-01-1.44227257D-01-1.06182399D-01
 Polarizability= 0.00000000D+00 0.00000000D+00 0.00000000D+00
                 0.00000000D+00 0.00000000D+00 0.00000000D+00
 -------------------------------------------------------------------
 Center     Atomic                   Forces (Hartrees/Bohr)
 Number     Number              X              Y              Z
 -------------------------------------------------------------------
      1        6           0.000018145    0.000074658    0.000015440
      2        9          -0.000020284    0.000021723   -0.000008803
      3        9           0.000002139   -0.000096381   -0.000006637
 -------------------------------------------------------------------
 Cartesian Forces:  Max     0.000096381 RMS     0.000042740
 Force constants in Cartesian coordinates: 
                1             2             3             4             5 
      1  0.297925D+00
      2  0.168791D-01  0.456400D+00
      3  0.225391D+00  0.454801D-01  0.172614D+00
      4 -0.250325D+00  0.727693D-02 -0.187818D+00  0.270559D+00
      5 -0.400429D-03 -0.714898D-01 -0.546503D-02 -0.839419D-01  0.121932D+00
      6 -0.188402D+00  0.302540D-03 -0.141617D+00  0.197556D+00 -0.543652D-01
      7 -0.476002D-01 -0.241561D-01 -0.375739D-01 -0.202345D-01  0.843424D-01
      8 -0.164787D-01 -0.384910D+00 -0.400151D-01  0.766650D-01 -0.504419D-01
      9 -0.369893D-01 -0.457826D-01 -0.309966D-01 -0.973818D-02  0.598302D-01
                6             7             8             9 
      6  0.144814D+00
      7 -0.915366D-02  0.678346D-01
      8  0.540626D-01 -0.601863D-01  0.435352D+00
      9 -0.319667D-02  0.467275D-01 -0.140475D-01  0.341932D-01
 FormGI is forming the generalized inverse of G from B-inverse, IUseBI=4.
 Force constants in internal coordinates: 
                1             2             3 
      1  0.441885D+00
      2  0.104296D+00  0.442177D+00
      3  0.898842D-01  0.902364D-01  0.568764D+00
 Leave Link  716 at Sat May 24 05:02:13 2025, MaxMem=  3758096384 cpu:               0.0 elap:               0.0
 (Enter /apps/easybuild-2022/easybuild/software/Compiler/NVHPC/22.11-CUDA-11.7.0/Gaussian/g16c01-CUDA-11.7.0/g16/l103.exe)

 GradGradGradGradGradGradGradGradGradGradGradGradGradGradGradGradGradGrad
 Berny optimization.
 Red2BG is reusing G-inverse.
 Internal  Forces:  Max     0.000090879 RMS     0.000055806
 Search for a local minimum.
 Step number   1 out of a maximum of   20
 All quantities printed in internal units (Hartrees-Bohrs-Radians)
 RMS Force = .55806D-04 SwitMx=.10000D-02 MixMth= 2
 Mixed Optimization -- En-DIIS/RFO-DIIS
 Second derivative matrix not updated -- analytic derivatives used.
 The second derivative matrix:
                          R1        R2        A1
           R1           0.44188
           R2           0.10430   0.44218
           A1           0.08988   0.09024   0.56876
 ITU=  0
     Eigenvalues ---    0.33773   0.42969   0.68540
 RFO step:  Lambda=-1.90192759D-08 EMin= 3.37734551D-01
 Linear search not attempted -- first point.
 Iteration  1 RMS(Cart)=  0.00008964 RMS(Int)=  0.00000000
 Iteration  2 RMS(Cart)=  0.00000000 RMS(Int)=  0.00000000
 ITry= 1 IFail=0 DXMaxC= 1.17D-04 DCOld= 1.00D+10 DXMaxT= 3.00D-01 DXLimC= 3.00D+00 Rises=F
 Variable       Old X    -DE/DX   Delta X   Delta X   Delta X     New X
                                 (Linear)    (Quad)   (Total)
    R1        2.44465   0.00003   0.00000   0.00002   0.00002   2.44467
    R2        2.44446   0.00009   0.00000   0.00020   0.00020   2.44466
    A1        1.82392   0.00001   0.00000  -0.00002  -0.00002   1.82391
         Item               Value     Threshold  Converged?
 Maximum Force            0.000091     0.000450     YES
 RMS     Force            0.000056     0.000300     YES
 Maximum Displacement     0.000117     0.001800     YES
 RMS     Displacement     0.000090     0.001200     YES
 Predicted change in Energy=-9.509638D-09
 Optimization completed.
    -- Stationary point found.
                           ----------------------------
                           !   Optimized Parameters   !
                           ! (Angstroms and Degrees)  !
 --------------------------                            --------------------------
 ! Name  Definition              Value          Derivative Info.                !
 --------------------------------------------------------------------------------
 ! R1    R(1,2)                  1.2937         -DE/DX =    0.0                 !
 ! R2    R(1,3)                  1.2936         -DE/DX =    0.0001              !
 ! A1    A(2,1,3)              104.5032         -DE/DX =    0.0                 !
 --------------------------------------------------------------------------------
 Lowest energy point so far.  Saving SCF results.
 Largest change from initial coordinates is atom    0       0.000 Angstoms.
 GradGradGradGradGradGradGradGradGradGradGradGradGradGradGradGradGradGrad

 Leave Link  103 at Sat May 24 05:02:13 2025, MaxMem=  3758096384 cpu:               0.0 elap:               0.0
 (Enter /apps/easybuild-2022/easybuild/software/Compiler/NVHPC/22.11-CUDA-11.7.0/Gaussian/g16c01-CUDA-11.7.0/g16/l202.exe)
                          Input orientation:                          
 ---------------------------------------------------------------------
 Center     Atomic      Atomic             Coordinates (Angstroms)
 Number     Number       Type             X           Y           Z
 ---------------------------------------------------------------------
      1          6           0       -0.788666   -0.679146   -1.744449
      2          9           0       -1.811198   -0.428311   -2.496146
      3          9           0       -0.684706   -1.968435   -1.758582
 ---------------------------------------------------------------------
                    Distance matrix (angstroms):
                    1          2          3
     1  C    0.000000
     2  F    1.293653   0.000000
     3  F    1.293551   2.045719   0.000000
 Symmetry turned off by external request.
 Stoichiometry    CF2
 Rotational constants (GHZ):          88.3588107          12.7127081          11.1137122
 Leave Link  202 at Sat May 24 05:02:13 2025, MaxMem=  3758096384 cpu:               0.0 elap:               0.0
 (Enter /apps/easybuild-2022/easybuild/software/Compiler/NVHPC/22.11-CUDA-11.7.0/Gaussian/g16c01-CUDA-11.7.0/g16/l9999.exe)
 Unable to Open any file for archive entry.
 1\1\GINC-SPARTAN-BM197\FOpt\RM062X\def2TZVPP\C1F2\AKHALILOV\24-May-202
 5\0\\#P M062X/Def2TZVPP Symm(None) scf(xqc) pop(None) freq opt(CalcFC)
 \\Gaussian input prepared by ASE\\0,1\C,-0.788666,-0.679146,-1.744449\
 F,-1.811198,-0.428311,-2.496146\F,-0.684706,-1.968435,-1.758582\\Versi
 on=ES64L-G16RevC.01\HF=-237.723265\RMSD=5.905e-09\RMSF=4.274e-05\Dipol
 e=-0.1273381,-0.1442273,-0.1061824\Polar=0.,0.,0.,0.,0.,0.\PG=Unknown\
 \@
 The archive entry for this job was punched.


 CHINESE FORTUNE COOKIE OF JAN 1 1967 SAY....
 ALL THINGS ARE DIFFICULT BEFORE THEY ARE EASY.
 WE LEARN SO LITTLE AND FORGET SO MUCH.
 YOU WILL OVERCOME OBSTACLES TO ACHIEVE SUCCESS.
 AH SO.
 Leave Link 9999 at Sat May 24 05:02:13 2025, MaxMem=  3758096384 cpu:               0.0 elap:               0.0
 Job cpu time:       0 days  0 hours  0 minutes 37.2 seconds.
 Elapsed time:       0 days  0 hours  0 minutes  5.5 seconds.
 File lengths (MBytes):  RWF=     10 Int=      0 D2E=      0 Chk=      2 Scr=      1
 Normal termination of Gaussian 16 at Sat May 24 05:02:13 2025.
 (Enter /apps/easybuild-2022/easybuild/software/Compiler/NVHPC/22.11-CUDA-11.7.0/Gaussian/g16c01-CUDA-11.7.0/g16/l1.exe)
 Link1:  Proceeding to internal job step number  2.
 ---------------------------------------------------------------------
 #P Geom=AllCheck Guess=TCheck SCRF=Check GenChk RM062X/def2TZVPP Freq
 ---------------------------------------------------------------------
 1/10=4,29=7,30=1,38=1,40=1/1,3;
 2/12=2,15=3,40=1/2;
 3/5=44,7=202,11=2,14=-4,25=1,30=1,70=2,71=2,74=-55,116=1,140=1/1,2,3;
 4/5=101/1;
 5/5=2,8=3,13=1,38=6,98=1/2,8;
 8/6=4,10=90,11=11/1;
 11/6=1,8=1,9=11,15=111,16=1,31=1/1,2,10;
 10/6=1,31=1/2;
 7/8=1,10=1,25=1,30=1/1,2,3,16;
 1/10=4,30=1/3;
 99//99;
 Leave Link    1 at Sat May 24 05:02:13 2025, MaxMem=  3758096384 cpu:               0.0 elap:               0.0
 (Enter /apps/easybuild-2022/easybuild/software/Compiler/NVHPC/22.11-CUDA-11.7.0/Gaussian/g16c01-CUDA-11.7.0/g16/l101.exe)
 Structure from the checkpoint file:  "/tmp/Gau-114671.chk"
 ------------------------------
 Gaussian input prepared by ASE
 ------------------------------
 Charge =  0 Multiplicity = 1
 Redundant internal coordinates found in file.  (old form).
 C,0,-0.788666,-0.679146,-1.744449
 F,0,-1.811198,-0.428311,-2.496146
 F,0,-0.684706,-1.968435,-1.758582
 Recover connectivity data from disk.
 ITRead=  0  0  0
 MicOpt= -1 -1 -1
 NAtoms=      3 NQM=        3 NQMF=       0 NMMI=      0 NMMIF=      0
                NMic=       0 NMicF=      0.
                    Isotopes and Nuclear Properties:
 (Nuclear quadrupole moments (NQMom) in fm**2, nuclear magnetic moments (NMagM)
  in nuclear magnetons)

  Atom         1           2           3
 IAtWgt=          12          19          19
 AtmWgt=  12.0000000  18.9984032  18.9984032
 NucSpn=           0           1           1
 AtZEff=   3.6000000   6.7500000   6.7500000
 NQMom=    0.0000000   0.0000000   0.0000000
 NMagM=    0.0000000   2.6288670   2.6288670
 AtZNuc=   6.0000000   9.0000000   9.0000000
 Leave Link  101 at Sat May 24 05:02:13 2025, MaxMem=  3758096384 cpu:               0.2 elap:               0.2
 (Enter /apps/easybuild-2022/easybuild/software/Compiler/NVHPC/22.11-CUDA-11.7.0/Gaussian/g16c01-CUDA-11.7.0/g16/l103.exe)

 GradGradGradGradGradGradGradGradGradGradGradGradGradGradGradGradGradGrad
 Berny optimization.
 Initialization pass.
                           ----------------------------
                           !    Initial Parameters    !
                           ! (Angstroms and Degrees)  !
 --------------------------                            --------------------------
 ! Name  Definition              Value          Derivative Info.                !
 --------------------------------------------------------------------------------
 ! R1    R(1,2)                  1.2937         calculate D2E/DX2 analytically  !
 ! R2    R(1,3)                  1.2936         calculate D2E/DX2 analytically  !
 ! A1    A(2,1,3)              104.5032         calculate D2E/DX2 analytically  !
 --------------------------------------------------------------------------------
 Trust Radius=3.00D-01 FncErr=1.00D-07 GrdErr=1.00D-07 EigMax=2.50D+02 EigMin=1.00D-04
 Number of steps in this run=      2 maximum allowed number of steps=      2.
 GradGradGradGradGradGradGradGradGradGradGradGradGradGradGradGradGradGrad

 Leave Link  103 at Sat May 24 05:02:13 2025, MaxMem=  3758096384 cpu:               0.0 elap:               0.0
 (Enter /apps/easybuild-2022/easybuild/software/Compiler/NVHPC/22.11-CUDA-11.7.0/Gaussian/g16c01-CUDA-11.7.0/g16/l202.exe)
                          Input orientation:                          
 ---------------------------------------------------------------------
 Center     Atomic      Atomic             Coordinates (Angstroms)
 Number     Number       Type             X           Y           Z
 ---------------------------------------------------------------------
      1          6           0       -0.788666   -0.679146   -1.744449
      2          9           0       -1.811198   -0.428311   -2.496146
      3          9           0       -0.684706   -1.968435   -1.758582
 ---------------------------------------------------------------------
                    Distance matrix (angstroms):
                    1          2          3
     1  C    0.000000
     2  F    1.293653   0.000000
     3  F    1.293551   2.045719   0.000000
 Symmetry turned off by external request.
 Stoichiometry    CF2
 Rotational constants (GHZ):          88.3588107          12.7127081          11.1137122
 Leave Link  202 at Sat May 24 05:02:13 2025, MaxMem=  3758096384 cpu:               0.0 elap:               0.0
 (Enter /apps/easybuild-2022/easybuild/software/Compiler/NVHPC/22.11-CUDA-11.7.0/Gaussian/g16c01-CUDA-11.7.0/g16/l301.exe)
 Standard basis: def2TZVPP (5D, 7F)
 Ernie: Thresh=  0.10000D-02 Tol=  0.10000D-05 Strict=F.
    93 basis functions,   153 primitive gaussians,   108 cartesian basis functions
    12 alpha electrons       12 beta electrons
       nuclear repulsion energy        65.1325574764 Hartrees.
 IExCor= 4336 DFT=T Ex+Corr=M062X ExCW=0 ScaHFX=  0.540000
 ScaDFX=  1.000000  1.000000  1.000000  1.000000 ScalE2=  1.000000  1.000000
 IRadAn=      5 IRanWt=     -1 IRanGd=            0 ICorTp=0 IEmpDi=  4
 NAtoms=    3 NActive=    3 NUniq=    3 SFac= 1.00D+00 NAtFMM=   60 NAOKFM=F Big=F
 Integral buffers will be    131072 words long.
 Raffenetti 2 integral format.
 Two-electron integral symmetry is turned off.
 Leave Link  301 at Sat May 24 05:02:13 2025, MaxMem=  3758096384 cpu:               0.0 elap:               0.0
 (Enter /apps/easybuild-2022/easybuild/software/Compiler/NVHPC/22.11-CUDA-11.7.0/Gaussian/g16c01-CUDA-11.7.0/g16/l302.exe)
 NPDir=0 NMtPBC=     1 NCelOv=     1 NCel=       1 NClECP=     1 NCelD=      1
         NCelK=      1 NCelE2=     1 NClLst=     1 CellRange=     0.0.
 One-electron integrals computed using PRISM.
   1 Symmetry operations used in ECPInt.
 ECPInt:  NShTT=     561 NPrTT=    1896 LenC2=     557 LenP2D=    1657.
 LDataN:  DoStor=T MaxTD1= 6 Len=  172
 NBasis=    93 RedAO= T EigKep=  2.21D-03  NBF=    93
 NBsUse=    93 1.00D-06 EigRej= -1.00D+00 NBFU=    93
 Precomputing XC quadrature grid using
 IXCGrd= 4 IRadAn=           5 IRanWt=          -1 IRanGd=           0 AccXCQ= 0.00D+00.
 Generated NRdTot=       0 NPtTot=           0 NUsed=           0 NTot=          32
 NSgBfM=   108   108   108   108   108 MxSgAt=     3 MxSgA2=     3.
 Leave Link  302 at Sat May 24 05:02:13 2025, MaxMem=  3758096384 cpu:               0.3 elap:               0.1
 (Enter /apps/easybuild-2022/easybuild/software/Compiler/NVHPC/22.11-CUDA-11.7.0/Gaussian/g16c01-CUDA-11.7.0/g16/l303.exe)
 DipDrv:  MaxL=1.
 Leave Link  303 at Sat May 24 05:02:13 2025, MaxMem=  3758096384 cpu:               0.0 elap:               0.0
 (Enter /apps/easybuild-2022/easybuild/software/Compiler/NVHPC/22.11-CUDA-11.7.0/Gaussian/g16c01-CUDA-11.7.0/g16/l401.exe)
 Initial guess from the checkpoint file:  "/tmp/Gau-114671.chk"
 B after Tr=     0.000000    0.000000    0.000000
         Rot=    1.000000    0.000000    0.000000    0.000000 Ang=   0.00 deg.
 Guess basis will be translated and rotated to current coordinates.
 JPrj=2 DoOrth=T DoCkMO=T.
 Leave Link  401 at Sat May 24 05:02:13 2025, MaxMem=  3758096384 cpu:               0.1 elap:               0.1
 (Enter /apps/easybuild-2022/easybuild/software/Compiler/NVHPC/22.11-CUDA-11.7.0/Gaussian/g16c01-CUDA-11.7.0/g16/l502.exe)
 Keep R1 ints in memory in canonical form, NReq=17039264.
 FoFCou: FMM=F IPFlag=           0 FMFlag=           0 FMFlg1=           0
         NFxFlg=           0 DoJE=F BraDBF=F KetDBF=F FulRan=T
         wScrn=  0.000000 ICntrl=       600 IOpCl=  0 I1Cent=           0 NGrid=           0
         NMat0=    1 NMatS0=   4371 NMatT0=    0 NMatD0=    1 NMtDS0=    0 NMtDT0=    0
 Symmetry not used in FoFCou.
 Two-electron integral symmetry not used.
 Closed shell SCF:
 Using DIIS extrapolation, IDIIS=  1040.
 NGot=  3758096384 LenX=  3748516330 LenY=  3748504225
 Requested convergence on RMS density matrix=1.00D-08 within  32 cycles.
 Requested convergence on MAX density matrix=1.00D-06.
 Requested convergence on             energy=1.00D-06.
 No special actions if energy rises.

 Cycle   1  Pass 1  IDiag  1:
 E= -237.723265000555    
 DIIS: error= 9.45D-09 at cycle   1 NSaved=   1.
 NSaved= 1 IEnMin= 1 EnMin= -237.723265000555     IErMin= 1 ErrMin= 9.45D-09
 ErrMax= 9.45D-09  0.00D+00 EMaxC= 1.00D-01 BMatC= 4.87D-15 BMatP= 4.87D-15
 IDIUse=1 WtCom= 1.00D+00 WtEn= 0.00D+00
 Coeff-Com:  0.100D+01
 Coeff:      0.100D+01
 Gap=     0.341 Goal=   None    Shift=    0.000
 RMSDP=1.51D-09 MaxDP=1.86D-08              OVMax= 1.13D-07

 SCF Done:  E(RM062X) =  -237.723265001     A.U. after    1 cycles
            NFock=  1  Conv=0.15D-08     -V/T= 2.0035
 KE= 2.369036528502D+02 PE=-6.948480560377D+02 EE= 1.550885807106D+02
 Leave Link  502 at Sat May 24 05:02:14 2025, MaxMem=  3758096384 cpu:               1.1 elap:               0.2
 (Enter /apps/easybuild-2022/easybuild/software/Compiler/NVHPC/22.11-CUDA-11.7.0/Gaussian/g16c01-CUDA-11.7.0/g16/l508.exe)
 QCSCF skips out because SCF is already converged.
 Leave Link  508 at Sat May 24 05:02:14 2025, MaxMem=  3758096384 cpu:               0.0 elap:               0.0
 (Enter /apps/easybuild-2022/easybuild/software/Compiler/NVHPC/22.11-CUDA-11.7.0/Gaussian/g16c01-CUDA-11.7.0/g16/l801.exe)
 DoSCS=F DFT=T ScalE2(SS,OS)=  1.000000  1.000000
 Range of M.O.s used for correlation:     1    93
 NBasis=    93 NAE=    12 NBE=    12 NFC=     0 NFV=     0
 NROrb=     93 NOA=    12 NOB=    12 NVA=    81 NVB=    81
 Leave Link  801 at Sat May 24 05:02:14 2025, MaxMem=  3758096384 cpu:               0.0 elap:               0.0
 (Enter /apps/easybuild-2022/easybuild/software/Compiler/NVHPC/22.11-CUDA-11.7.0/Gaussian/g16c01-CUDA-11.7.0/g16/l1101.exe)
 Using compressed storage, NAtomX=     3.
 Will process      4 centers per pass.
   1 Symmetry operations used in ECPInt.
 ECPInt:  NShTT=     561 NPrTT=    1896 LenC2=     557 LenP2D=    1657.
 LDataN:  DoStor=T MaxTD1= 7 Len=  274
 Leave Link 1101 at Sat May 24 05:02:14 2025, MaxMem=  3758096384 cpu:               0.4 elap:               0.1
 (Enter /apps/easybuild-2022/easybuild/software/Compiler/NVHPC/22.11-CUDA-11.7.0/Gaussian/g16c01-CUDA-11.7.0/g16/l1102.exe)
 Symmetrizing basis deriv contribution to polar:
 IMax=3 JMax=2 DiffMx= 0.00D+00
 Leave Link 1102 at Sat May 24 05:02:14 2025, MaxMem=  3758096384 cpu:               0.0 elap:               0.0
 (Enter /apps/easybuild-2022/easybuild/software/Compiler/NVHPC/22.11-CUDA-11.7.0/Gaussian/g16c01-CUDA-11.7.0/g16/l1110.exe)
 Forming Gx(P) for the SCF density, NAtomX=     3.
 Integral derivatives from FoFJK, PRISM(SPDF).
 Do as many integral derivatives as possible in FoFJK.
 G2DrvN: MDV=    3758095951.
 G2DrvN: will do     4 centers at a time, making    1 passes.
 Calling FoFCou, ICntrl=  3107 FMM=F I1Cent=   0 AccDes= 0.00D+00.
 FoFJK:  IHMeth= 1 ICntrl=    3107 DoSepK=F KAlg= 0 I1Cent=           0 FoldK=F
 IRaf=         0 NMat=       1 IRICut=       1 DoRegI=T DoRafI=F ISym2E= 0 IDoP0=0 IntGTp=1.
 FoFCou: FMM=F IPFlag=           0 FMFlag=      100000 FMFlg1=           0
         NFxFlg=           0 DoJE=F BraDBF=F KetDBF=F FulRan=T
         wScrn=  0.000000 ICntrl=      3107 IOpCl=  0 I1Cent=           0 NGrid=           0
         NMat0=    1 NMatS0=      1 NMatT0=    0 NMatD0=    1 NMtDS0=    0 NMtDT0=    0
 Symmetry not used in FoFCou.
 End of G2Drv F.D. properties file   721 does not exist.
 End of G2Drv F.D. properties file   722 does not exist.
 End of G2Drv F.D. properties file   788 does not exist.
 Leave Link 1110 at Sat May 24 05:02:14 2025, MaxMem=  3758096384 cpu:               5.7 elap:               0.8
 (Enter /apps/easybuild-2022/easybuild/software/Compiler/NVHPC/22.11-CUDA-11.7.0/Gaussian/g16c01-CUDA-11.7.0/g16/l1002.exe)
 Minotr:  Closed shell wavefunction.
          IDoAtm=111
          Direct CPHF calculation.
          Differentiating once with respect to electric field.
                with respect to dipole field.
          Differentiating once with respect to nuclear coordinates.
          Requested convergence is 1.0D-08 RMS, and 1.0D-07 maximum.
          Secondary convergence is 1.0D-12 RMS, and 1.0D-12 maximum.
          NewPWx=T KeepS1=F KeepF1=F KeepIn=T MapXYZ=F SortEE=F KeepMc=T.
          895 words used for storage of precomputed grid.
 Keep R1 ints in memory in canonical form, NReq=17014286.
 FoFCou: FMM=F IPFlag=           0 FMFlag=           0 FMFlg1=           0
         NFxFlg=           0 DoJE=F BraDBF=F KetDBF=F FulRan=T
         wScrn=  0.000000 ICntrl=       600 IOpCl=  0 I1Cent=           0 NGrid=           0
         NMat0=    1 NMatS0=   4371 NMatT0=    0 NMatD0=    1 NMtDS0=    0 NMtDT0=    0
 Symmetry not used in FoFCou.
 Two-electron integral symmetry not used.
          MDV=    3758096384 using IRadAn=       1.
          Solving linear equations simultaneously, MaxMat=       0.
          There are    12 degrees of freedom in the 1st order CPHF.  IDoFFX=6 NUNeed=     3.
      9 vectors produced by pass  0 Test12= 8.10D-15 8.33D-09 XBig12= 5.68D+00 1.42D+00.
 AX will form     9 AO Fock derivatives at one time.
      9 vectors produced by pass  1 Test12= 8.10D-15 8.33D-09 XBig12= 9.94D-01 3.79D-01.
      9 vectors produced by pass  2 Test12= 8.10D-15 8.33D-09 XBig12= 2.60D-02 5.18D-02.
      9 vectors produced by pass  3 Test12= 8.10D-15 8.33D-09 XBig12= 5.62D-04 5.58D-03.
      9 vectors produced by pass  4 Test12= 8.10D-15 8.33D-09 XBig12= 8.15D-06 6.86D-04.
      9 vectors produced by pass  5 Test12= 8.10D-15 8.33D-09 XBig12= 8.91D-08 8.08D-05.
      9 vectors produced by pass  6 Test12= 8.10D-15 8.33D-09 XBig12= 4.83D-10 5.57D-06.
      5 vectors produced by pass  7 Test12= 8.10D-15 8.33D-09 XBig12= 2.45D-12 3.25D-07.
      2 vectors produced by pass  8 Test12= 8.10D-15 8.33D-09 XBig12= 8.69D-15 2.13D-08.
 InvSVY:  IOpt=1 It=  1 EMax= 8.88D-16
 Solved reduced A of dimension    70 with     9 vectors.
 FullF1:  Do perturbations      1 to       3.
 Isotropic polarizability for W=    0.000000       14.28 Bohr**3.
 End of Minotr F.D. properties file   721 does not exist.
 End of Minotr F.D. properties file   722 does not exist.
 End of Minotr F.D. properties file   788 does not exist.
 Leave Link 1002 at Sat May 24 05:02:16 2025, MaxMem=  3758096384 cpu:              10.0 elap:               1.3
 (Enter /apps/easybuild-2022/easybuild/software/Compiler/NVHPC/22.11-CUDA-11.7.0/Gaussian/g16c01-CUDA-11.7.0/g16/l701.exe)
 ... and contract with generalized density number  0.
 Compute integral second derivatives.
   1 Symmetry operations used in ECPInt.
 ECPInt:  NShTT=     561 NPrTT=    1896 LenC2=     557 LenP2D=    1657.
 LDataN:  DoStor=T MaxTD1= 8 Len=  415
 Leave Link  701 at Sat May 24 05:02:16 2025, MaxMem=  3758096384 cpu:               0.5 elap:               0.1
 (Enter /apps/easybuild-2022/easybuild/software/Compiler/NVHPC/22.11-CUDA-11.7.0/Gaussian/g16c01-CUDA-11.7.0/g16/l702.exe)
 L702 exits ... SP integral derivatives will be done elsewhere.
 Leave Link  702 at Sat May 24 05:02:16 2025, MaxMem=  3758096384 cpu:               0.0 elap:               0.0
 (Enter /apps/easybuild-2022/easybuild/software/Compiler/NVHPC/22.11-CUDA-11.7.0/Gaussian/g16c01-CUDA-11.7.0/g16/l703.exe)
 Integral derivatives from FoFJK, PRISM(SPDF).
 Compute integral second derivatives, UseDBF=F ICtDFT=           0.
 Calling FoFJK, ICntrl=    100127 FMM=F ISym2X=0 I1Cent= 0 IOpClX= 0 NMat=1 NMatS=1 NMatT=0.
 FoFJK:  IHMeth= 1 ICntrl=  100127 DoSepK=F KAlg= 0 I1Cent=           0 FoldK=F
 IRaf=         0 NMat=       1 IRICut=       1 DoRegI=T DoRafI=F ISym2E= 0 IDoP0=0 IntGTp=1.
 FoFCou: FMM=F IPFlag=           0 FMFlag=      100000 FMFlg1=         800
         NFxFlg=           0 DoJE=F BraDBF=F KetDBF=F FulRan=T
         wScrn=  0.000000 ICntrl=    100127 IOpCl=  0 I1Cent=           0 NGrid=           0
         NMat0=    1 NMatS0=      1 NMatT0=    0 NMatD0=    1 NMtDS0=    0 NMtDT0=    0
 Symmetry not used in FoFCou.
 Leave Link  703 at Sat May 24 05:02:18 2025, MaxMem=  3758096384 cpu:              15.2 elap:               2.0
 (Enter /apps/easybuild-2022/easybuild/software/Compiler/NVHPC/22.11-CUDA-11.7.0/Gaussian/g16c01-CUDA-11.7.0/g16/l716.exe)
 Dipole        =-1.27337967D-01-1.44227179D-01-1.06182565D-01
 Polarizability= 1.41376923D+01-1.56159286D+00 1.53469690D+01
                 1.01587300D+00-9.73423022D-01 1.33520094D+01
 Full mass-weighted force constant matrix:
 Low frequencies ---  -21.8226   -0.0018   -0.0016   -0.0011    9.7901   19.7536
 Low frequencies ---  692.4179 1183.0682 1287.1776
 Diagonal vibrational polarizability:
        3.0926946       5.3202000       1.5385033
 Harmonic frequencies (cm**-1), IR intensities (KM/Mole), Raman scattering
 activities (A**4/AMU), depolarization ratios for plane and unpolarized
 incident light, reduced masses (AMU), force constants (mDyne/A),
 and normal coordinates:
                      1                      2                      3
                      A                      A                      A
 Frequencies --    692.4179              1183.0681              1287.1776
 Red. masses --     17.7049                13.6928                13.8658
 Frc consts  --      5.0013                11.2918                13.5354
 IR Inten    --      4.4244               395.3110               129.4355
  Atom  AN      X      Y      Z        X      Y      Z        X      Y      Z
     1   6    -0.25  -0.28  -0.21    -0.48   0.66  -0.31     0.50   0.56   0.41
     2   9    -0.26   0.56  -0.16     0.27  -0.07   0.20    -0.29   0.01  -0.22
     3   9     0.42  -0.38   0.29     0.03  -0.35  -0.00    -0.02  -0.36  -0.04

 -------------------
 - Thermochemistry -
 -------------------
 Temperature   298.150 Kelvin.  Pressure   1.00000 Atm.
 Atom     1 has atomic number  6 and mass  12.00000
 Atom     2 has atomic number  9 and mass  18.99840
 Atom     3 has atomic number  9 and mass  18.99840
 Molecular mass:    49.99681 amu.
 Principal axes and moments of inertia in atomic units:
                           1         2         3
     Eigenvalues --    20.42514 141.96355 162.38869
           X           -0.55067   0.57990  -0.60040
           Y            0.75284   0.65571  -0.05716
           Z           -0.36055   0.48348   0.79765
 This molecule is an asymmetric top.
 Rotational symmetry number  1.
 Rotational temperatures (Kelvin)      4.24055     0.61011     0.53337
 Rotational constants (GHZ):          88.35881    12.71271    11.11371
 Zero-point vibrational energy      18916.9 (Joules/Mol)
                                    4.52125 (Kcal/Mol)
 Vibrational temperatures:    996.23  1702.17  1851.96
          (Kelvin)
 
 Zero-point correction=                           0.007205 (Hartree/Particle)
 Thermal correction to Energy=                    0.010183
 Thermal correction to Enthalpy=                  0.011127
 Thermal correction to Gibbs Free Energy=        -0.016821
 Sum of electronic and zero-point Energies=           -237.716060
 Sum of electronic and thermal Energies=              -237.713082
 Sum of electronic and thermal Enthalpies=            -237.712138
 Sum of electronic and thermal Free Energies=         -237.740086
 
                     E (Thermal)             CV                S
                      KCal/Mol        Cal/Mol-Kelvin    Cal/Mol-Kelvin
 Total                    6.390              7.176             58.822
 Electronic               0.000              0.000              0.000
 Translational            0.889              2.981             37.652
 Rotational               0.889              2.981             20.782
 Vibrational              4.613              1.214              0.388
                       Q            Log10(Q)             Ln(Q)
 Total Bot       0.545784D+08          7.737021         17.815149
 Total V=0       0.112492D+12         11.051123         25.446152
 Vib (Bot)       0.505660D-03         -3.296141         -7.589645
 Vib (V=0)       0.104223D+01          0.017962          0.041358
 Electronic      0.100000D+01          0.000000          0.000000
 Translational   0.138953D+08          7.142867         16.447060
 Rotational      0.776774D+04          3.890294          8.957734
 
                                                    Gaussian input prepared by AS
 E
                                                             IR Spectrum
 
     1          1                                                                                                                    
     2          1                                               6                                                                    
     8          8                                               9                                                                    
     7          3                                               2                                                                    
 
     X          X                                               X                                                                    
     X          X                                                                                                                    
     X          X                                                                                                                    
     X          X                                                                                                                    
     X          X                                                                                                                    
     X          X                                                                                                                    
     X          X                                                                                                                    
                X                                                                                                                    
                X                                                                                                                    
                X                                                                                                                    
                X                                                                                                                    
                X                                                                                                                    
                X                                                                                                                    
                X                                                                                                                    
                X                                                                                                                    
                X                                                                                                                    
                X                                                                                                                    
                X                                                                                                                    
                X                                                                                                                    
                X                                                                                                                    
 
 -------------------------------------------------------------------
 Center     Atomic                   Forces (Hartrees/Bohr)
 Number     Number              X              Y              Z
 -------------------------------------------------------------------
      1        6           0.000018124    0.000074679    0.000015461
      2        9          -0.000020269    0.000021716   -0.000008811
      3        9           0.000002145   -0.000096395   -0.000006650
 -------------------------------------------------------------------
 Cartesian Forces:  Max     0.000096395 RMS     0.000042747
 Force constants in Cartesian coordinates: 
                1             2             3             4             5 
      1  0.297925D+00
      2  0.168791D-01  0.456400D+00
      3  0.225391D+00  0.454801D-01  0.172614D+00
      4 -0.250325D+00  0.727693D-02 -0.187818D+00  0.270559D+00
      5 -0.400432D-03 -0.714898D-01 -0.546504D-02 -0.839419D-01  0.121932D+00
      6 -0.188402D+00  0.302535D-03 -0.141617D+00  0.197556D+00 -0.543652D-01
      7 -0.476002D-01 -0.241561D-01 -0.375739D-01 -0.202345D-01  0.843424D-01
      8 -0.164787D-01 -0.384910D+00 -0.400151D-01  0.766650D-01 -0.504419D-01
      9 -0.369893D-01 -0.457827D-01 -0.309966D-01 -0.973819D-02  0.598302D-01
                6             7             8             9 
      6  0.144814D+00
      7 -0.915365D-02  0.678346D-01
      8  0.540626D-01 -0.601863D-01  0.435352D+00
      9 -0.319667D-02  0.467275D-01 -0.140475D-01  0.341932D-01
 FormGI is forming the generalized inverse of G from B-inverse, IUseBI=4.
 Force constants in internal coordinates: 
                1             2             3 
      1  0.441885D+00
      2  0.104296D+00  0.442177D+00
      3  0.898842D-01  0.902364D-01  0.568764D+00
 Leave Link  716 at Sat May 24 05:02:18 2025, MaxMem=  3758096384 cpu:               0.0 elap:               0.0
 (Enter /apps/easybuild-2022/easybuild/software/Compiler/NVHPC/22.11-CUDA-11.7.0/Gaussian/g16c01-CUDA-11.7.0/g16/l103.exe)

 GradGradGradGradGradGradGradGradGradGradGradGradGradGradGradGradGradGrad
 Berny optimization.
 Red2BG is reusing G-inverse.
 Internal  Forces:  Max     0.000090895 RMS     0.000055812
 Search for a local minimum.
 Step number   1 out of a maximum of    2
 All quantities printed in internal units (Hartrees-Bohrs-Radians)
 Second derivative matrix not updated -- analytic derivatives used.
 The second derivative matrix:
                          R1        R2        A1
           R1           0.44188
           R2           0.10430   0.44218
           A1           0.08988   0.09024   0.56876
 ITU=  0
     Eigenvalues ---    0.33773   0.42969   0.68540
 Angle between quadratic step and forces=  16.25 degrees.
 Linear search not attempted -- first point.
 Iteration  1 RMS(Cart)=  0.00008966 RMS(Int)=  0.00000000
 Iteration  2 RMS(Cart)=  0.00000000 RMS(Int)=  0.00000000
 ITry= 1 IFail=0 DXMaxC= 1.17D-04 DCOld= 1.00D+10 DXMaxT= 3.00D-01 DXLimC= 3.00D+00 Rises=F
 Variable       Old X    -DE/DX   Delta X   Delta X   Delta X     New X
                                 (Linear)    (Quad)   (Total)
    R1        2.44465   0.00003   0.00000   0.00002   0.00002   2.44467
    R2        2.44446   0.00009   0.00000   0.00020   0.00020   2.44466
    A1        1.82392   0.00001   0.00000  -0.00002  -0.00002   1.82391
         Item               Value     Threshold  Converged?
 Maximum Force            0.000091     0.000450     YES
 RMS     Force            0.000056     0.000300     YES
 Maximum Displacement     0.000117     0.001800     YES
 RMS     Displacement     0.000090     0.001200     YES
 Predicted change in Energy=-9.512767D-09
 Optimization completed.
    -- Stationary point found.
                           ----------------------------
                           !   Optimized Parameters   !
                           ! (Angstroms and Degrees)  !
 --------------------------                            --------------------------
 ! Name  Definition              Value          Derivative Info.                !
 --------------------------------------------------------------------------------
 ! R1    R(1,2)                  1.2937         -DE/DX =    0.0                 !
 ! R2    R(1,3)                  1.2936         -DE/DX =    0.0001              !
 ! A1    A(2,1,3)              104.5032         -DE/DX =    0.0                 !
 --------------------------------------------------------------------------------
 GradGradGradGradGradGradGradGradGradGradGradGradGradGradGradGradGradGrad

 Leave Link  103 at Sat May 24 05:02:18 2025, MaxMem=  3758096384 cpu:               0.0 elap:               0.0
 (Enter /apps/easybuild-2022/easybuild/software/Compiler/NVHPC/22.11-CUDA-11.7.0/Gaussian/g16c01-CUDA-11.7.0/g16/l9999.exe)

 ----------------------------------------------------------------------

 Electric dipole moment (input orientation):
 (Debye = 10**-18 statcoulomb cm , SI units = C m)
                  (au)            (Debye)         (10**-30 SI)
   Tot        0.219753D+00      0.558555D+00      0.186314D+01
   x         -0.127338D+00     -0.323661D+00     -0.107962D+01
   y         -0.144227D+00     -0.366589D+00     -0.122281D+01
   z         -0.106183D+00     -0.269889D+00     -0.900253D+00

 Dipole polarizability, Alpha (input orientation).
 (esu units = cm**3 , SI units = C**2 m**2 J**-1)
 Alpha(0;0):
               (au)            (10**-24 esu)      (10**-40 SI)
   iso        0.142789D+02      0.211591D+01      0.235427D+01
   aniso      0.403536D+01      0.597979D+00      0.665341D+00
   xx         0.141377D+02      0.209499D+01      0.233099D+01
   yx        -0.156159D+01     -0.231404D+00     -0.257472D+00
   yy         0.153470D+02      0.227419D+01      0.253037D+01
   zx         0.101587D+01      0.150537D+00      0.167495D+00
   zy        -0.973423D+00     -0.144246D+00     -0.160496D+00
   zz         0.133520D+02      0.197856D+01      0.220145D+01

 ----------------------------------------------------------------------

 Dipole orientation:
     6          1.08632616         -1.63504285          3.29877894
     9          0.29305155         -3.39915617          4.79374825
     9          1.87850843          0.12662096          4.79689648

 Electric dipole moment (dipole orientation):
 (Debye = 10**-18 statcoulomb cm , SI units = C m)
                  (au)            (Debye)         (10**-30 SI)
   Tot        0.219753D+00      0.558555D+00      0.186314D+01
   x          0.000000D+00      0.000000D+00      0.000000D+00
   y          0.000000D+00      0.000000D+00      0.000000D+00
   z          0.219753D+00      0.558555D+00      0.186314D+01

 Dipole polarizability, Alpha (dipole orientation).
 (esu units = cm**3 , SI units = C**2 m**2 J**-1)
 Alpha(0;0):
               (au)            (10**-24 esu)      (10**-40 SI)
   iso        0.142789D+02      0.211591D+01      0.235427D+01
   aniso      0.403536D+01      0.597979D+00      0.665341D+00
   xx         0.133729D+02      0.198165D+01      0.220489D+01
   yx         0.160714D+01      0.238154D+00      0.264982D+00
   yy         0.162250D+02      0.240429D+01      0.267513D+01
   zx         0.149369D-01      0.221342D-02      0.246276D-02
   zy         0.638715D-02      0.946478D-03      0.105310D-02
   zz         0.132388D+02      0.196179D+01      0.218279D+01

 ----------------------------------------------------------------------
 Unable to Open any file for archive entry.
 1\1\GINC-SPARTAN-BM197\Freq\RM062X\def2TZVPP\C1F2\AKHALILOV\24-May-202
 5\0\\#P Geom=AllCheck Guess=TCheck SCRF=Check GenChk RM062X/def2TZVPP 
 Freq\\Gaussian input prepared by ASE\\0,1\C,-0.788666,-0.679146,-1.744
 449\F,-1.811198,-0.428311,-2.496146\F,-0.684706,-1.968435,-1.758582\\V
 ersion=ES64L-G16RevC.01\HF=-237.723265\RMSD=1.512e-09\RMSF=4.275e-05\Z
 eroPoint=0.0072051\Thermal=0.0101831\ETot=-237.7130819\HTot=-237.71213
 77\GTot=-237.7400858\Dipole=-0.127338,-0.1442272,-0.1061826\DipoleDeri
 v=0.8519912,-0.3281937,0.7294741,-0.3296409,1.4763323,-0.1313753,0.728
 4306,-0.1313376,0.3918684,-0.7491126,0.3936949,-0.5915286,0.0116456,-0
 .2383775,-0.0136559,-0.6182803,0.2740998,-0.3723019,-0.1028786,-0.0655
 012,-0.1379455,0.3179953,-1.2379548,0.1450312,-0.1101503,-0.1427622,-0
 .0195664\Polar=14.1376923,-1.5615929,15.346969,1.015873,-0.973423,13.3
 520094\PG=Unknown\NImag=0\\0.29792510,0.01687912,0.45639967,0.22539144
 ,0.04548013,0.17261369,-0.25032493,0.00727693,-0.18781757,0.27055941,-
 0.00040043,-0.07148979,-0.00546504,-0.08394194,0.12193172,-0.18840210,
 0.00030254,-0.14161712,0.19755575,-0.05436517,0.14481379,-0.04760016,-
 0.02415605,-0.03757387,-0.02023448,0.08434237,-0.00915365,0.06783464,-
 0.01647869,-0.38490987,-0.04001509,0.07666501,-0.05044193,0.05406263,-
 0.06018632,0.43535181,-0.03698934,-0.04578267,-0.03099657,-0.00973819,
 0.05983021,-0.00319667,0.04672753,-0.01404754,0.03419324\\-0.00001812,
 -0.00007468,-0.00001546,0.00002027,-0.00002172,0.00000881,-0.00000215,
 0.00009640,0.00000665\\\@
 The archive entry for this job was punched.


 THIS CURIOUS WORLD WHICH WE INHABIT IS MORE WONDERFUL THAN IT IS CONVENIENT;
 MORE BEAUTIFUL THAN IT IS USEFUL;
 IT IS MORE TO BE ADMIRED THAN IT IS TO BE USED.

                                                                 -- THOREAU
 Job cpu time:       0 days  0 hours  0 minutes 34.1 seconds.
 Elapsed time:       0 days  0 hours  0 minutes  5.0 seconds.
 File lengths (MBytes):  RWF=     10 Int=      0 D2E=      0 Chk=      2 Scr=      1
 Normal termination of Gaussian 16 at Sat May 24 05:02:18 2025.
done
