4
energy = -337.587348139
C -0.60908800 0.39827300 1.41028300
F -1.90806700 0.23205700 1.33829400
F -0.07564000 -0.40176700 2.30234800
F -0.30246200 1.65057100 1.65099900
