6
energy = -326.9666120520001
C 1.53139800 0.01864200 -0.13860100
O 1.94388200 -1.05558300 0.16903500
C 0.03500200 0.30901600 -0.26384600
F -0.43843500 -0.55699000 -1.08833600
O 2.30103300 1.10131900 -0.27581100
H 1.75424300 1.89120600 -0.37934100
6
energy = -326.966613984
C 1.53323700 0.00724300 0.01158200
O 2.05161300 -1.05553000 -0.13086000
C 0.01455000 0.18155900 -0.02812500
F -0.38141300 -0.31024400 -1.14871500
O 2.19292400 1.11985100 0.34567200
H 1.57078800 1.82872600 0.55546600
6
energy = -326.97269161900005
C 1.51509600 0.00000000 0.00000000
O 2.10162600 -1.03814400 0.09445800
C 0.00000000 0.00000000 0.00000000
F -0.36973100 -0.12225500 -1.23453200
O 2.05036800 1.21638900 0.00000000
H 3.01099500 1.13182000 0.09173000
