 Entering Gaussian System, Link 0=g16
 Initial command:
 /apps/easybuild-2022/easybuild/software/Compiler/NVHPC/22.11-CUDA-11.7.0/Gaussian/g16c01-CUDA-11.7.0/g16/l1.exe "/tmp/Gau-155696.inp" -scrdir="/tmp/"
 Entering Link 1 = /apps/easybuild-2022/easybuild/software/Compiler/NVHPC/22.11-CUDA-11.7.0/Gaussian/g16c01-CUDA-11.7.0/g16/l1.exe PID=    155698.
  
 Copyright (c) 1988-2019, Gaussian, Inc.  All Rights Reserved.
  
 This is part of the Gaussian(R) 16 program.  It is based on
 the Gaussian(R) 09 system (copyright 2009, Gaussian, Inc.),
 the Gaussian(R) 03 system (copyright 2003, Gaussian, Inc.),
 the Gaussian(R) 98 system (copyright 1998, Gaussian, Inc.),
 the Gaussian(R) 94 system (copyright 1995, Gaussian, Inc.),
 the Gaussian 92(TM) system (copyright 1992, Gaussian, Inc.),
 the Gaussian 90(TM) system (copyright 1990, Gaussian, Inc.),
 the Gaussian 88(TM) system (copyright 1988, Gaussian, Inc.),
 the Gaussian 86(TM) system (copyright 1986, Carnegie Mellon
 University), and the Gaussian 82(TM) system (copyright 1983,
 Carnegie Mellon University). Gaussian is a federally registered
 trademark of Gaussian, Inc.
  
 This software contains proprietary and confidential information,
 including trade secrets, belonging to Gaussian, Inc.
  
 This software is provided under written license and may be
 used, copied, transmitted, or stored only in accord with that
 written license.
  
 The following legend is applicable only to US Government
 contracts under FAR:
  
                    RESTRICTED RIGHTS LEGEND
  
 Use, reproduction and disclosure by the US Government is
 subject to restrictions as set forth in subparagraphs (a)
 and (c) of the Commercial Computer Software - Restricted
 Rights clause in FAR 52.227-19.
  
 Gaussian, Inc.
 340 Quinnipiac St., Bldg. 40, Wallingford CT 06492
  
  
 ---------------------------------------------------------------
 Warning -- This program may not be used in any manner that
 competes with the business of Gaussian, Inc. or will provide
 assistance to any competitor of Gaussian, Inc.  The licensee
 of this program is prohibited from giving any competitor of
 Gaussian, Inc. access to this program.  By using this program,
 the user acknowledges that Gaussian, Inc. is engaged in the
 business of creating and licensing software in the field of
 computational chemistry and represents and warrants to the
 licensee that it is not a competitor of Gaussian, Inc. and that
 it will not use this program in any manner prohibited above.
 ---------------------------------------------------------------
  

 Cite this work as:
 Gaussian 16, Revision C.01,
 M. J. Frisch, G. W. Trucks, H. B. Schlegel, G. E. Scuseria, 
 M. A. Robb, J. R. Cheeseman, G. Scalmani, V. Barone, 
 G. A. Petersson, H. Nakatsuji, X. Li, M. Caricato, A. V. Marenich, 
 J. Bloino, B. G. Janesko, R. Gomperts, B. Mennucci, H. P. Hratchian, 
 J. V. Ortiz, A. F. Izmaylov, J. L. Sonnenberg, D. Williams-Young, 
 F. Ding, F. Lipparini, F. Egidi, J. Goings, B. Peng, A. Petrone, 
 T. Henderson, D. Ranasinghe, V. G. Zakrzewski, J. Gao, N. Rega, 
 G. Zheng, W. Liang, M. Hada, M. Ehara, K. Toyota, R. Fukuda, 
 J. Hasegawa, M. Ishida, T. Nakajima, Y. Honda, O. Kitao, H. Nakai, 
 T. Vreven, K. Throssell, J. A. Montgomery, Jr., J. E. Peralta, 
 F. Ogliaro, M. J. Bearpark, J. J. Heyd, E. N. Brothers, K. N. Kudin, 
 V. N. Staroverov, T. A. Keith, R. Kobayashi, J. Normand, 
 K. Raghavachari, A. P. Rendell, J. C. Burant, S. S. Iyengar, 
 J. Tomasi, M. Cossi, J. M. Millam, M. Klene, C. Adamo, R. Cammi, 
 J. W. Ochterski, R. L. Martin, K. Morokuma, O. Farkas, 
 J. B. Foresman, and D. J. Fox, Gaussian, Inc., Wallingford CT, 2019.
 
 ******************************************
 Gaussian 16:  ES64L-G16RevC.01  3-Jul-2019
                24-May-2025 
 ******************************************
 %mem=28GB
 %nprocshared=8
 Will use up to    8 processors via shared memory.
 -----------------------------------------------------------------
 #P M062X/Def2TZVPP Symm(None) scf(xqc) pop(None) freq opt(CalcFC)
 -----------------------------------------------------------------
 1/10=4,18=20,19=15,26=3,38=1/1,3;
 2/9=110,12=2,15=3,17=6,18=5,40=1/2;
 3/5=44,7=202,11=2,25=1,30=1,71=2,74=-55,140=1/1,2,3;
 4//1;
 5/5=2,8=3,13=1,38=5/2,8;
 8/6=4,10=90,11=11/1;
 11/6=1,8=1,9=11,15=111,16=1,31=1/1,2,10;
 10/6=1,13=1,31=1/2;
 7/10=1,25=1,30=1/1,2,3,16;
 1/10=4,18=20,19=15,26=3/3(2);
 2/9=110,15=3/2;
 99//99;
 2/9=110,15=3/2;
 3/5=44,7=202,11=2,25=1,30=1,71=1,74=-55/1,2,3;
 4/5=5,16=3,69=1/1;
 5/5=2,8=3,13=1,38=5/2,8;
 7/30=1/1,2,3,16;
 1/18=20,19=15,26=3/3(-5);
 2/9=110,15=3/2;
 99/9=1/99;
 Leave Link    1 at Sat May 24 05:05:35 2025, MaxMem=  3758096384 cpu:               0.0 elap:               0.0
 (Enter /apps/easybuild-2022/easybuild/software/Compiler/NVHPC/22.11-CUDA-11.7.0/Gaussian/g16c01-CUDA-11.7.0/g16/l101.exe)
 ------------------------------
 Gaussian input prepared by ASE
 ------------------------------
 Symbolic Z-matrix:
 Charge =  0 Multiplicity = 1
 C                     1.5151    0.        0. 
 O                     2.10163  -1.03814   0.09446 
 C                     0.        0.        0. 
 F                    -0.36973  -0.12225  -1.23453 
 O                     2.05037   1.21639   0. 
 H                     3.011     1.13182   0.09173 
 
 ITRead=  0  0  0  0  0  0
 MicOpt= -1 -1 -1 -1 -1 -1
 NAtoms=      6 NQM=        6 NQMF=       0 NMMI=      0 NMMIF=      0
                NMic=       0 NMicF=      0.
                    Isotopes and Nuclear Properties:
 (Nuclear quadrupole moments (NQMom) in fm**2, nuclear magnetic moments (NMagM)
  in nuclear magnetons)

  Atom         1           2           3           4           5           6
 IAtWgt=          12          16          12          19          16           1
 AtmWgt=  12.0000000  15.9949146  12.0000000  18.9984032  15.9949146   1.0078250
 NucSpn=           0           0           0           1           0           1
 AtZEff=  -0.0000000  -0.0000000  -0.0000000  -0.0000000  -0.0000000  -0.0000000
 NQMom=    0.0000000   0.0000000   0.0000000   0.0000000   0.0000000   0.0000000
 NMagM=    0.0000000   0.0000000   0.0000000   2.6288670   0.0000000   2.7928460
 AtZNuc=   6.0000000   8.0000000   6.0000000   9.0000000   8.0000000   1.0000000
 Leave Link  101 at Sat May 24 05:05:36 2025, MaxMem=  3758096384 cpu:               0.2 elap:               0.2
 (Enter /apps/easybuild-2022/easybuild/software/Compiler/NVHPC/22.11-CUDA-11.7.0/Gaussian/g16c01-CUDA-11.7.0/g16/l103.exe)

 GradGradGradGradGradGradGradGradGradGradGradGradGradGradGradGradGradGrad
 Berny optimization.
 Initialization pass.
                           ----------------------------
                           !    Initial Parameters    !
                           ! (Angstroms and Degrees)  !
 --------------------------                            --------------------------
 ! Name  Definition              Value          Derivative Info.                !
 --------------------------------------------------------------------------------
 ! R1    R(1,2)                  1.1961         calculate D2E/DX2 analytically  !
 ! R2    R(1,3)                  1.5151         calculate D2E/DX2 analytically  !
 ! R3    R(1,5)                  1.329          calculate D2E/DX2 analytically  !
 ! R4    R(3,4)                  1.2945         calculate D2E/DX2 analytically  !
 ! R5    R(5,6)                  0.9687         calculate D2E/DX2 analytically  !
 ! A1    A(2,1,3)              119.3645         calculate D2E/DX2 analytically  !
 ! A2    A(2,1,5)              126.6489         calculate D2E/DX2 analytically  !
 ! A3    A(3,1,5)              113.7519         calculate D2E/DX2 analytically  !
 ! A4    A(1,3,4)              106.5958         calculate D2E/DX2 analytically  !
 ! A5    A(1,5,6)              108.6336         calculate D2E/DX2 analytically  !
 ! D1    D(2,1,3,4)            -89.5433         calculate D2E/DX2 analytically  !
 ! D2    D(5,1,3,4)             95.6555         calculate D2E/DX2 analytically  !
 ! D3    D(2,1,5,6)             -0.0866         calculate D2E/DX2 analytically  !
 ! D4    D(3,1,5,6)            174.2647         calculate D2E/DX2 analytically  !
 --------------------------------------------------------------------------------
 Trust Radius=3.00D-01 FncErr=1.00D-07 GrdErr=1.00D-06 EigMax=2.50D+02 EigMin=1.00D-04
 Number of steps in this run=     24 maximum allowed number of steps=    100.
 GradGradGradGradGradGradGradGradGradGradGradGradGradGradGradGradGradGrad

 Leave Link  103 at Sat May 24 05:05:36 2025, MaxMem=  3758096384 cpu:               0.1 elap:               0.0
 (Enter /apps/easybuild-2022/easybuild/software/Compiler/NVHPC/22.11-CUDA-11.7.0/Gaussian/g16c01-CUDA-11.7.0/g16/l202.exe)
                          Input orientation:                          
 ---------------------------------------------------------------------
 Center     Atomic      Atomic             Coordinates (Angstroms)
 Number     Number       Type             X           Y           Z
 ---------------------------------------------------------------------
      1          6           0        1.515096    0.000000    0.000000
      2          8           0        2.101626   -1.038144    0.094458
      3          6           0        0.000000    0.000000    0.000000
      4          9           0       -0.369731   -0.122255   -1.234532
      5          8           0        2.050368    1.216389    0.000000
      6          1           0        3.010995    1.131820    0.091730
 ---------------------------------------------------------------------
                    Distance matrix (angstroms):
                    1          2          3          4          5
     1  C    0.000000
     2  O    1.196112   0.000000
     3  C    1.515096   2.345954   0.000000
     4  F    2.256456   2.951724   1.294495   0.000000
     5  O    1.328954   2.257093   2.384033   3.028683   0.000000
     6  H    1.878069   2.352808   3.218000   3.842003   0.968695
                    6
     6  H    0.000000
 Symmetry turned off by external request.
 Stoichiometry    C2HFO2
 Rotational constants (GHZ):          10.2131841           4.3806265           3.3907224
 Leave Link  202 at Sat May 24 05:05:36 2025, MaxMem=  3758096384 cpu:               0.0 elap:               0.0
 (Enter /apps/easybuild-2022/easybuild/software/Compiler/NVHPC/22.11-CUDA-11.7.0/Gaussian/g16c01-CUDA-11.7.0/g16/l301.exe)
 Standard basis: def2TZVPP (5D, 7F)
 Ernie: Thresh=  0.10000D-02 Tol=  0.10000D-05 Strict=F.
   169 basis functions,   272 primitive gaussians,   195 cartesian basis functions
    19 alpha electrons       19 beta electrons
       nuclear repulsion energy       159.7223651485 Hartrees.
 IExCor= 4336 DFT=T Ex+Corr=M062X ExCW=0 ScaHFX=  0.540000
 ScaDFX=  1.000000  1.000000  1.000000  1.000000 ScalE2=  1.000000  1.000000
 IRadAn=      5 IRanWt=     -1 IRanGd=            0 ICorTp=0 IEmpDi=  4
 NAtoms=    6 NActive=    6 NUniq=    6 SFac= 1.00D+00 NAtFMM=   60 NAOKFM=F Big=F
 Integral buffers will be    131072 words long.
 Raffenetti 2 integral format.
 Two-electron integral symmetry is turned off.
 Leave Link  301 at Sat May 24 05:05:36 2025, MaxMem=  3758096384 cpu:               0.0 elap:               0.0
 (Enter /apps/easybuild-2022/easybuild/software/Compiler/NVHPC/22.11-CUDA-11.7.0/Gaussian/g16c01-CUDA-11.7.0/g16/l302.exe)
 NPDir=0 NMtPBC=     1 NCelOv=     1 NCel=       1 NClECP=     1 NCelD=      1
         NCelK=      1 NCelE2=     1 NClLst=     1 CellRange=     0.0.
 One-electron integrals computed using PRISM.
   1 Symmetry operations used in ECPInt.
 ECPInt:  NShTT=    1891 NPrTT=    5999 LenC2=    1863 LenP2D=    4942.
 LDataN:  DoStor=T MaxTD1= 6 Len=  172
 NBasis=   169 RedAO= T EigKep=  5.42D-04  NBF=   169
 NBsUse=   169 1.00D-06 EigRej= -1.00D+00 NBFU=   169
 Precomputing XC quadrature grid using
 IXCGrd= 4 IRadAn=           5 IRanWt=          -1 IRanGd=           0 AccXCQ= 0.00D+00.
 Generated NRdTot=       0 NPtTot=           0 NUsed=           0 NTot=          32
 NSgBfM=   194   194   194   194   194 MxSgAt=     6 MxSgA2=     6.
 Leave Link  302 at Sat May 24 05:05:36 2025, MaxMem=  3758096384 cpu:               0.4 elap:               0.1
 (Enter /apps/easybuild-2022/easybuild/software/Compiler/NVHPC/22.11-CUDA-11.7.0/Gaussian/g16c01-CUDA-11.7.0/g16/l303.exe)
 DipDrv:  MaxL=1.
 Leave Link  303 at Sat May 24 05:05:36 2025, MaxMem=  3758096384 cpu:               0.1 elap:               0.0
 (Enter /apps/easybuild-2022/easybuild/software/Compiler/NVHPC/22.11-CUDA-11.7.0/Gaussian/g16c01-CUDA-11.7.0/g16/l401.exe)
 ExpMin= 9.52D-02 ExpMax= 3.55D+04 ExpMxC= 1.21D+03 IAcc=3 IRadAn=         5 AccDes= 0.00D+00
 Harris functional with IExCor= 1009 and IRadAn=       5 diagonalized for initial guess.
 HarFok:  IExCor= 1009 AccDes= 0.00D+00 IRadAn=         5 IDoV= 1 UseB2=F ITyADJ=14
 ICtDFT=  3500011 ScaDFX=  1.000000  1.000000  1.000000  1.000000
 FoFCou: FMM=F IPFlag=           0 FMFlag=      100000 FMFlg1=           0
         NFxFlg=           0 DoJE=T BraDBF=F KetDBF=T FulRan=T
         wScrn=  0.000000 ICntrl=       500 IOpCl=  0 I1Cent=   200000004 NGrid=           0
         NMat0=    1 NMatS0=      1 NMatT0=    0 NMatD0=    1 NMtDS0=    0 NMtDT0=    0
 Symmetry not used in FoFCou.
 Harris En= -326.820327089453    
 JPrj=0 DoOrth=F DoCkMO=F.
 Leave Link  401 at Sat May 24 05:05:36 2025, MaxMem=  3758096384 cpu:               1.2 elap:               0.2
 (Enter /apps/easybuild-2022/easybuild/software/Compiler/NVHPC/22.11-CUDA-11.7.0/Gaussian/g16c01-CUDA-11.7.0/g16/l502.exe)
 Keep R1 ints in memory in canonical form, NReq=111366812.
 FoFCou: FMM=F IPFlag=           0 FMFlag=           0 FMFlg1=           0
         NFxFlg=           0 DoJE=F BraDBF=F KetDBF=F FulRan=T
         wScrn=  0.000000 ICntrl=       600 IOpCl=  0 I1Cent=           0 NGrid=           0
         NMat0=    1 NMatS0=  14365 NMatT0=    0 NMatD0=    1 NMtDS0=    0 NMtDT0=    0
 Symmetry not used in FoFCou.
 Two-electron integral symmetry not used.
 Closed shell SCF:
 Using DIIS extrapolation, IDIIS=  1040.
 NGot=  3758096384 LenX=  3654833526 LenY=  3654795060
 Requested convergence on RMS density matrix=1.00D-08 within  32 cycles.
 Requested convergence on MAX density matrix=1.00D-06.
 Requested convergence on             energy=1.00D-06.
 No special actions if energy rises.
 Integral accuracy reduced to 1.0D-05 until final iterations.

 Cycle   1  Pass 0  IDiag  1:
 E= -326.899417744925    
 DIIS: error= 2.78D-02 at cycle   1 NSaved=   1.
 NSaved= 1 IEnMin= 1 EnMin= -326.899417744925     IErMin= 1 ErrMin= 2.78D-02
 ErrMax= 2.78D-02  0.00D+00 EMaxC= 1.00D-01 BMatC= 1.83D-01 BMatP= 1.83D-01
 IDIUse=3 WtCom= 7.22D-01 WtEn= 2.78D-01
 Coeff-Com:  0.100D+01
 Coeff-En:   0.100D+01
 Coeff:      0.100D+01
 Gap=     0.257 Goal=   None    Shift=    0.000
 GapD=    0.257 DampG=1.000 DampE=0.500 DampFc=0.5000 IDamp=-1.
 Damping current iteration by 5.00D-01
 RMSDP=2.60D-03 MaxDP=9.24D-02              OVMax= 2.02D-01

 Cycle   2  Pass 0  IDiag  1:
 E= -326.935226072244     Delta-E=       -0.035808327319 Rises=F Damp=T
 DIIS: error= 7.80D-03 at cycle   2 NSaved=   2.
 NSaved= 2 IEnMin= 2 EnMin= -326.935226072244     IErMin= 2 ErrMin= 7.80D-03
 ErrMax= 7.80D-03  0.00D+00 EMaxC= 1.00D-01 BMatC= 2.30D-02 BMatP= 1.83D-01
 IDIUse=3 WtCom= 9.22D-01 WtEn= 7.80D-02
 Coeff-Com:  0.865D-01 0.913D+00
 Coeff-En:   0.249D+00 0.751D+00
 Coeff:      0.991D-01 0.901D+00
 Gap=     0.323 Goal=   None    Shift=    0.000
 RMSDP=8.37D-04 MaxDP=2.75D-02 DE=-3.58D-02 OVMax= 1.46D-01

 Cycle   3  Pass 0  IDiag  1:
 E= -326.994293551069     Delta-E=       -0.059067478825 Rises=F Damp=F
 DIIS: error= 7.81D-03 at cycle   3 NSaved=   3.
 NSaved= 3 IEnMin= 3 EnMin= -326.994293551069     IErMin= 2 ErrMin= 7.80D-03
 ErrMax= 7.81D-03  0.00D+00 EMaxC= 1.00D-01 BMatC= 1.08D-02 BMatP= 2.30D-02
 IDIUse=3 WtCom= 9.22D-01 WtEn= 7.81D-02
 Coeff-Com: -0.658D-01 0.390D+00 0.676D+00
 Coeff-En:   0.000D+00 0.000D+00 0.100D+01
 Coeff:     -0.607D-01 0.360D+00 0.701D+00
 Gap=     0.262 Goal=   None    Shift=    0.000
 RMSDP=4.36D-04 MaxDP=1.47D-02 DE=-5.91D-02 OVMax= 4.42D-02

 Cycle   4  Pass 0  IDiag  1:
 E= -327.000120790249     Delta-E=       -0.005827239180 Rises=F Damp=F
 DIIS: error= 3.38D-03 at cycle   4 NSaved=   4.
 NSaved= 4 IEnMin= 4 EnMin= -327.000120790249     IErMin= 4 ErrMin= 3.38D-03
 ErrMax= 3.38D-03  0.00D+00 EMaxC= 1.00D-01 BMatC= 3.21D-03 BMatP= 1.08D-02
 IDIUse=3 WtCom= 9.66D-01 WtEn= 3.38D-02
 Coeff-Com: -0.445D-01 0.955D-01 0.403D+00 0.546D+00
 Coeff-En:   0.000D+00 0.000D+00 0.208D+00 0.792D+00
 Coeff:     -0.430D-01 0.923D-01 0.396D+00 0.555D+00
 Gap=     0.263 Goal=   None    Shift=    0.000
 RMSDP=1.61D-04 MaxDP=6.23D-03 DE=-5.83D-03 OVMax= 1.41D-02

 Cycle   5  Pass 0  IDiag  1:
 E= -327.002227196392     Delta-E=       -0.002106406143 Rises=F Damp=F
 DIIS: error= 3.45D-04 at cycle   5 NSaved=   5.
 NSaved= 5 IEnMin= 5 EnMin= -327.002227196392     IErMin= 5 ErrMin= 3.45D-04
 ErrMax= 3.45D-04  0.00D+00 EMaxC= 1.00D-01 BMatC= 4.83D-05 BMatP= 3.21D-03
 IDIUse=3 WtCom= 9.97D-01 WtEn= 3.45D-03
 Coeff-Com: -0.106D-01 0.135D-01 0.980D-01 0.188D+00 0.711D+00
 Coeff-En:   0.000D+00 0.000D+00 0.000D+00 0.000D+00 0.100D+01
 Coeff:     -0.106D-01 0.134D-01 0.977D-01 0.187D+00 0.712D+00
 Gap=     0.263 Goal=   None    Shift=    0.000
 RMSDP=3.48D-05 MaxDP=1.59D-03 DE=-2.11D-03 OVMax= 2.27D-03

 Cycle   6  Pass 0  IDiag  1:
 E= -327.002274622192     Delta-E=       -0.000047425800 Rises=F Damp=F
 DIIS: error= 1.17D-04 at cycle   6 NSaved=   6.
 NSaved= 6 IEnMin= 6 EnMin= -327.002274622192     IErMin= 6 ErrMin= 1.17D-04
 ErrMax= 1.17D-04  0.00D+00 EMaxC= 1.00D-01 BMatC= 2.92D-06 BMatP= 4.83D-05
 IDIUse=3 WtCom= 9.99D-01 WtEn= 1.17D-03
 Coeff-Com:  0.169D-02-0.529D-02-0.197D-01-0.239D-01 0.960D-01 0.951D+00
 Coeff-En:   0.000D+00 0.000D+00 0.000D+00 0.000D+00 0.000D+00 0.100D+01
 Coeff:      0.169D-02-0.529D-02-0.196D-01-0.239D-01 0.958D-01 0.951D+00
 Gap=     0.264 Goal=   None    Shift=    0.000
 RMSDP=1.68D-05 MaxDP=3.11D-04 DE=-4.74D-05 OVMax= 1.65D-03

 Cycle   7  Pass 0  IDiag  1:
 E= -327.002281225624     Delta-E=       -0.000006603432 Rises=F Damp=F
 DIIS: error= 3.85D-05 at cycle   7 NSaved=   7.
 NSaved= 7 IEnMin= 7 EnMin= -327.002281225624     IErMin= 7 ErrMin= 3.85D-05
 ErrMax= 3.85D-05  0.00D+00 EMaxC= 1.00D-01 BMatC= 5.48D-07 BMatP= 2.92D-06
 IDIUse=1 WtCom= 1.00D+00 WtEn= 0.00D+00
 Coeff-Com:  0.182D-02-0.334D-02-0.172D-01-0.295D-01-0.504D-01 0.293D+00
 Coeff-Com:  0.805D+00
 Coeff:      0.182D-02-0.334D-02-0.172D-01-0.295D-01-0.504D-01 0.293D+00
 Coeff:      0.805D+00
 Gap=     0.264 Goal=   None    Shift=    0.000
 RMSDP=6.15D-06 MaxDP=1.30D-04 DE=-6.60D-06 OVMax= 6.28D-04

 Initial convergence to 1.0D-05 achieved.  Increase integral accuracy.
 Cycle   8  Pass 1  IDiag  1:
 E= -327.002322296369     Delta-E=       -0.000041070744 Rises=F Damp=F
 DIIS: error= 1.96D-05 at cycle   1 NSaved=   1.
 NSaved= 1 IEnMin= 1 EnMin= -327.002322296369     IErMin= 1 ErrMin= 1.96D-05
 ErrMax= 1.96D-05  0.00D+00 EMaxC= 1.00D-01 BMatC= 2.95D-07 BMatP= 2.95D-07
 IDIUse=1 WtCom= 1.00D+00 WtEn= 0.00D+00
 Coeff-Com:  0.100D+01
 Coeff:      0.100D+01
 Gap=     0.264 Goal=   None    Shift=    0.000
 RMSDP=6.15D-06 MaxDP=1.30D-04 DE=-4.11D-05 OVMax= 2.79D-04

 Cycle   9  Pass 1  IDiag  1:
 E= -327.002322505825     Delta-E=       -0.000000209456 Rises=F Damp=F
 DIIS: error= 2.33D-05 at cycle   2 NSaved=   2.
 NSaved= 2 IEnMin= 2 EnMin= -327.002322505825     IErMin= 1 ErrMin= 1.96D-05
 ErrMax= 2.33D-05  0.00D+00 EMaxC= 1.00D-01 BMatC= 1.42D-07 BMatP= 2.95D-07
 IDIUse=1 WtCom= 1.00D+00 WtEn= 0.00D+00
 Coeff-Com:  0.376D+00 0.624D+00
 Coeff:      0.376D+00 0.624D+00
 Gap=     0.264 Goal=   None    Shift=    0.000
 RMSDP=1.54D-06 MaxDP=5.51D-05 DE=-2.09D-07 OVMax= 9.77D-05

 Cycle  10  Pass 1  IDiag  1:
 E= -327.002322587118     Delta-E=       -0.000000081293 Rises=F Damp=F
 DIIS: error= 9.46D-06 at cycle   3 NSaved=   3.
 NSaved= 3 IEnMin= 3 EnMin= -327.002322587118     IErMin= 3 ErrMin= 9.46D-06
 ErrMax= 9.46D-06  0.00D+00 EMaxC= 1.00D-01 BMatC= 2.74D-08 BMatP= 1.42D-07
 IDIUse=1 WtCom= 1.00D+00 WtEn= 0.00D+00
 Coeff-Com: -0.425D-01 0.283D+00 0.760D+00
 Coeff:     -0.425D-01 0.283D+00 0.760D+00
 Gap=     0.264 Goal=   None    Shift=    0.000
 RMSDP=9.69D-07 MaxDP=2.52D-05 DE=-8.13D-08 OVMax= 9.27D-05

 Cycle  11  Pass 1  IDiag  1:
 E= -327.002322613297     Delta-E=       -0.000000026179 Rises=F Damp=F
 DIIS: error= 2.01D-06 at cycle   4 NSaved=   4.
 NSaved= 4 IEnMin= 4 EnMin= -327.002322613297     IErMin= 4 ErrMin= 2.01D-06
 ErrMax= 2.01D-06  0.00D+00 EMaxC= 1.00D-01 BMatC= 1.08D-09 BMatP= 2.74D-08
 IDIUse=1 WtCom= 1.00D+00 WtEn= 0.00D+00
 Coeff-Com: -0.219D-01 0.157D-01 0.125D+00 0.881D+00
 Coeff:     -0.219D-01 0.157D-01 0.125D+00 0.881D+00
 Gap=     0.264 Goal=   None    Shift=    0.000
 RMSDP=4.16D-07 MaxDP=1.67D-05 DE=-2.62D-08 OVMax= 5.30D-05

 Cycle  12  Pass 1  IDiag  1:
 E= -327.002322617321     Delta-E=       -0.000000004024 Rises=F Damp=F
 DIIS: error= 1.10D-06 at cycle   5 NSaved=   5.
 NSaved= 5 IEnMin= 5 EnMin= -327.002322617321     IErMin= 5 ErrMin= 1.10D-06
 ErrMax= 1.10D-06  0.00D+00 EMaxC= 1.00D-01 BMatC= 4.56D-10 BMatP= 1.08D-09
 IDIUse=1 WtCom= 1.00D+00 WtEn= 0.00D+00
 Coeff-Com:  0.655D-02-0.898D-01-0.216D+00 0.332D+00 0.968D+00
 Coeff:      0.655D-02-0.898D-01-0.216D+00 0.332D+00 0.968D+00
 Gap=     0.264 Goal=   None    Shift=    0.000
 RMSDP=3.41D-07 MaxDP=6.40D-06 DE=-4.02D-09 OVMax= 5.16D-05

 Cycle  13  Pass 1  IDiag  1:
 E= -327.002322619120     Delta-E=       -0.000000001799 Rises=F Damp=F
 DIIS: error= 8.08D-07 at cycle   6 NSaved=   6.
 NSaved= 6 IEnMin= 6 EnMin= -327.002322619120     IErMin= 6 ErrMin= 8.08D-07
 ErrMax= 8.08D-07  0.00D+00 EMaxC= 1.00D-01 BMatC= 1.46D-10 BMatP= 4.56D-10
 IDIUse=1 WtCom= 1.00D+00 WtEn= 0.00D+00
 Coeff-Com:  0.713D-02-0.544D-01-0.143D+00 0.717D-01 0.552D+00 0.567D+00
 Coeff:      0.713D-02-0.544D-01-0.143D+00 0.717D-01 0.552D+00 0.567D+00
 Gap=     0.264 Goal=   None    Shift=    0.000
 RMSDP=9.45D-08 MaxDP=2.09D-06 DE=-1.80D-09 OVMax= 1.38D-05

 Cycle  14  Pass 1  IDiag  1:
 E= -327.002322619377     Delta-E=       -0.000000000257 Rises=F Damp=F
 DIIS: error= 2.46D-07 at cycle   7 NSaved=   7.
 NSaved= 7 IEnMin= 7 EnMin= -327.002322619377     IErMin= 7 ErrMin= 2.46D-07
 ErrMax= 2.46D-07  0.00D+00 EMaxC= 1.00D-01 BMatC= 1.74D-11 BMatP= 1.46D-10
 IDIUse=1 WtCom= 1.00D+00 WtEn= 0.00D+00
 Coeff-Com:  0.503D-03 0.785D-02 0.185D-01-0.703D-01-0.119D+00 0.139D+00
 Coeff-Com:  0.102D+01
 Coeff:      0.503D-03 0.785D-02 0.185D-01-0.703D-01-0.119D+00 0.139D+00
 Coeff:      0.102D+01
 Gap=     0.264 Goal=   None    Shift=    0.000
 RMSDP=7.56D-08 MaxDP=1.69D-06 DE=-2.57D-10 OVMax= 1.20D-05

 Cycle  15  Pass 1  IDiag  1:
 E= -327.002322619454     Delta-E=       -0.000000000077 Rises=F Damp=F
 DIIS: error= 1.10D-07 at cycle   8 NSaved=   8.
 NSaved= 8 IEnMin= 8 EnMin= -327.002322619454     IErMin= 8 ErrMin= 1.10D-07
 ErrMax= 1.10D-07  0.00D+00 EMaxC= 1.00D-01 BMatC= 3.77D-12 BMatP= 1.74D-11
 IDIUse=1 WtCom= 1.00D+00 WtEn= 0.00D+00
 Coeff-Com: -0.138D-02 0.131D-01 0.359D-01-0.300D-01-0.148D+00-0.117D+00
 Coeff-Com:  0.300D+00 0.948D+00
 Coeff:     -0.138D-02 0.131D-01 0.359D-01-0.300D-01-0.148D+00-0.117D+00
 Coeff:      0.300D+00 0.948D+00
 Gap=     0.264 Goal=   None    Shift=    0.000
 RMSDP=3.35D-08 MaxDP=8.16D-07 DE=-7.74D-11 OVMax= 5.08D-06

 Cycle  16  Pass 1  IDiag  1:
 E= -327.002322619483     Delta-E=       -0.000000000028 Rises=F Damp=F
 DIIS: error= 3.41D-08 at cycle   9 NSaved=   9.
 NSaved= 9 IEnMin= 9 EnMin= -327.002322619483     IErMin= 9 ErrMin= 3.41D-08
 ErrMax= 3.41D-08  0.00D+00 EMaxC= 1.00D-01 BMatC= 5.00D-13 BMatP= 3.77D-12
 IDIUse=1 WtCom= 1.00D+00 WtEn= 0.00D+00
 Coeff-Com: -0.344D-03 0.173D-02 0.499D-02 0.654D-02-0.155D-01-0.617D-01
 Coeff-Com: -0.704D-01 0.256D+00 0.879D+00
 Coeff:     -0.344D-03 0.173D-02 0.499D-02 0.654D-02-0.155D-01-0.617D-01
 Coeff:     -0.704D-01 0.256D+00 0.879D+00
 Gap=     0.264 Goal=   None    Shift=    0.000
 RMSDP=8.94D-09 MaxDP=2.05D-07 DE=-2.83D-11 OVMax= 1.27D-06

 SCF Done:  E(RM062X) =  -327.002322619     A.U. after   16 cycles
            NFock= 16  Conv=0.89D-08     -V/T= 2.0038
 KE= 3.257735147636D+02 PE=-1.090932714767D+03 EE= 2.784345122356D+02
 Leave Link  502 at Sat May 24 05:05:40 2025, MaxMem=  3758096384 cpu:              24.6 elap:               4.4
 (Enter /apps/easybuild-2022/easybuild/software/Compiler/NVHPC/22.11-CUDA-11.7.0/Gaussian/g16c01-CUDA-11.7.0/g16/l508.exe)
 QCSCF skips out because SCF is already converged.
 Leave Link  508 at Sat May 24 05:05:41 2025, MaxMem=  3758096384 cpu:               0.0 elap:               0.0
 (Enter /apps/easybuild-2022/easybuild/software/Compiler/NVHPC/22.11-CUDA-11.7.0/Gaussian/g16c01-CUDA-11.7.0/g16/l801.exe)
 DoSCS=F DFT=T ScalE2(SS,OS)=  1.000000  1.000000
 Range of M.O.s used for correlation:     1   169
 NBasis=   169 NAE=    19 NBE=    19 NFC=     0 NFV=     0
 NROrb=    169 NOA=    19 NOB=    19 NVA=   150 NVB=   150

 **** Warning!!: The largest alpha MO coefficient is  0.12758191D+02

 Leave Link  801 at Sat May 24 05:05:41 2025, MaxMem=  3758096384 cpu:               0.1 elap:               0.1
 (Enter /apps/easybuild-2022/easybuild/software/Compiler/NVHPC/22.11-CUDA-11.7.0/Gaussian/g16c01-CUDA-11.7.0/g16/l1101.exe)
 Using compressed storage, NAtomX=     6.
 Will process      7 centers per pass.
   1 Symmetry operations used in ECPInt.
 ECPInt:  NShTT=    1891 NPrTT=    5999 LenC2=    1863 LenP2D=    4942.
 LDataN:  DoStor=T MaxTD1= 7 Len=  274
 Leave Link 1101 at Sat May 24 05:05:41 2025, MaxMem=  3758096384 cpu:               0.7 elap:               0.2
 (Enter /apps/easybuild-2022/easybuild/software/Compiler/NVHPC/22.11-CUDA-11.7.0/Gaussian/g16c01-CUDA-11.7.0/g16/l1102.exe)
 Symmetrizing basis deriv contribution to polar:
 IMax=3 JMax=2 DiffMx= 0.00D+00
 Leave Link 1102 at Sat May 24 05:05:41 2025, MaxMem=  3758096384 cpu:               0.1 elap:               0.1
 (Enter /apps/easybuild-2022/easybuild/software/Compiler/NVHPC/22.11-CUDA-11.7.0/Gaussian/g16c01-CUDA-11.7.0/g16/l1110.exe)
 Forming Gx(P) for the SCF density, NAtomX=     6.
 Integral derivatives from FoFJK, PRISM(SPDF).
 Do as many integral derivatives as possible in FoFJK.
 G2DrvN: MDV=    3758095642.
 G2DrvN: will do     7 centers at a time, making    1 passes.
 Calling FoFCou, ICntrl=  3107 FMM=F I1Cent=   0 AccDes= 0.00D+00.
 FoFJK:  IHMeth= 1 ICntrl=    3107 DoSepK=F KAlg= 0 I1Cent=           0 FoldK=F
 IRaf=         0 NMat=       1 IRICut=       1 DoRegI=T DoRafI=F ISym2E= 0 IDoP0=0 IntGTp=1.
 FoFCou: FMM=F IPFlag=           0 FMFlag=      100000 FMFlg1=           0
         NFxFlg=           0 DoJE=F BraDBF=F KetDBF=F FulRan=T
         wScrn=  0.000000 ICntrl=      3107 IOpCl=  0 I1Cent=           0 NGrid=           0
         NMat0=    1 NMatS0=      1 NMatT0=    0 NMatD0=    1 NMtDS0=    0 NMtDT0=    0
 Symmetry not used in FoFCou.
 End of G2Drv F.D. properties file   721 does not exist.
 End of G2Drv F.D. properties file   722 does not exist.
 End of G2Drv F.D. properties file   788 does not exist.
 Leave Link 1110 at Sat May 24 05:05:46 2025, MaxMem=  3758096384 cpu:              41.8 elap:               5.3
 (Enter /apps/easybuild-2022/easybuild/software/Compiler/NVHPC/22.11-CUDA-11.7.0/Gaussian/g16c01-CUDA-11.7.0/g16/l1002.exe)
 Minotr:  Closed shell wavefunction.
          IDoAtm=111111
          Direct CPHF calculation.
          Differentiating once with respect to nuclear coordinates.
          Requested convergence is 1.0D-08 RMS, and 1.0D-07 maximum.
          Secondary convergence is 1.0D-12 RMS, and 1.0D-12 maximum.
          NewPWx=T KeepS1=F KeepF1=F KeepIn=T MapXYZ=F SortEE=F KeepMc=T.
         1782 words used for storage of precomputed grid.
 Keep R1 ints in memory in canonical form, NReq=111344695.
 FoFCou: FMM=F IPFlag=           0 FMFlag=           0 FMFlg1=           0
         NFxFlg=           0 DoJE=F BraDBF=F KetDBF=F FulRan=T
         wScrn=  0.000000 ICntrl=       600 IOpCl=  0 I1Cent=           0 NGrid=           0
         NMat0=    1 NMatS0=  14365 NMatT0=    0 NMatD0=    1 NMtDS0=    0 NMtDT0=    0
 Symmetry not used in FoFCou.
 Two-electron integral symmetry not used.
          MDV=    3758096384 using IRadAn=       1.
          Solving linear equations simultaneously, MaxMat=       0.
          There are    21 degrees of freedom in the 1st order CPHF.  IDoFFX=6 NUNeed=     0.
     15 vectors produced by pass  0 Test12= 1.36D-14 4.76D-09 XBig12= 1.87D-01 1.36D-01.
 AX will form    15 AO Fock derivatives at one time.
     15 vectors produced by pass  1 Test12= 1.36D-14 4.76D-09 XBig12= 4.72D-02 1.01D-01.
     15 vectors produced by pass  2 Test12= 1.36D-14 4.76D-09 XBig12= 2.75D-03 1.39D-02.
     15 vectors produced by pass  3 Test12= 1.36D-14 4.76D-09 XBig12= 8.72D-05 3.11D-03.
     15 vectors produced by pass  4 Test12= 1.36D-14 4.76D-09 XBig12= 1.74D-06 1.89D-04.
     15 vectors produced by pass  5 Test12= 1.36D-14 4.76D-09 XBig12= 1.71D-08 2.55D-05.
     15 vectors produced by pass  6 Test12= 1.36D-14 4.76D-09 XBig12= 1.39D-10 2.40D-06.
     10 vectors produced by pass  7 Test12= 1.36D-14 4.76D-09 XBig12= 7.37D-13 1.61D-07.
      2 vectors produced by pass  8 Test12= 1.36D-14 4.76D-09 XBig12= 3.96D-15 1.19D-08.
 InvSVY:  IOpt=1 It=  1 EMax= 1.11D-15
 Solved reduced A of dimension   117 with    15 vectors.
 End of Minotr F.D. properties file   721 does not exist.
 End of Minotr F.D. properties file   722 does not exist.
 End of Minotr F.D. properties file   788 does not exist.
 Leave Link 1002 at Sat May 24 05:05:54 2025, MaxMem=  3758096384 cpu:              58.9 elap:               7.5
 (Enter /apps/easybuild-2022/easybuild/software/Compiler/NVHPC/22.11-CUDA-11.7.0/Gaussian/g16c01-CUDA-11.7.0/g16/l701.exe)
 ... and contract with generalized density number  0.
 Compute integral second derivatives.
   1 Symmetry operations used in ECPInt.
 ECPInt:  NShTT=    1891 NPrTT=    5999 LenC2=    1863 LenP2D=    4942.
 LDataN:  DoStor=T MaxTD1= 8 Len=  415
 Leave Link  701 at Sat May 24 05:05:54 2025, MaxMem=  3758096384 cpu:               0.7 elap:               0.1
 (Enter /apps/easybuild-2022/easybuild/software/Compiler/NVHPC/22.11-CUDA-11.7.0/Gaussian/g16c01-CUDA-11.7.0/g16/l702.exe)
 L702 exits ... SP integral derivatives will be done elsewhere.
 Leave Link  702 at Sat May 24 05:05:54 2025, MaxMem=  3758096384 cpu:               0.2 elap:               0.1
 (Enter /apps/easybuild-2022/easybuild/software/Compiler/NVHPC/22.11-CUDA-11.7.0/Gaussian/g16c01-CUDA-11.7.0/g16/l703.exe)
 Integral derivatives from FoFJK, PRISM(SPDF).
 Compute integral second derivatives, UseDBF=F ICtDFT=           0.
 Calling FoFJK, ICntrl=    100127 FMM=F ISym2X=0 I1Cent= 0 IOpClX= 0 NMat=1 NMatS=1 NMatT=0.
 FoFJK:  IHMeth= 1 ICntrl=  100127 DoSepK=F KAlg= 0 I1Cent=           0 FoldK=F
 IRaf=         0 NMat=       1 IRICut=       1 DoRegI=T DoRafI=F ISym2E= 0 IDoP0=0 IntGTp=1.
 FoFCou: FMM=F IPFlag=           0 FMFlag=      100000 FMFlg1=         800
         NFxFlg=           0 DoJE=F BraDBF=F KetDBF=F FulRan=T
         wScrn=  0.000000 ICntrl=    100127 IOpCl=  0 I1Cent=           0 NGrid=           0
         NMat0=    1 NMatS0=      1 NMatT0=    0 NMatD0=    1 NMtDS0=    0 NMtDT0=    0
 Symmetry not used in FoFCou.
 Leave Link  703 at Sat May 24 05:06:08 2025, MaxMem=  3758096384 cpu:             108.8 elap:              13.8
 (Enter /apps/easybuild-2022/easybuild/software/Compiler/NVHPC/22.11-CUDA-11.7.0/Gaussian/g16c01-CUDA-11.7.0/g16/l716.exe)
 Dipole        = 5.75879882D-01 6.53688592D-01-2.40250149D-01
 Polarizability= 0.00000000D+00 0.00000000D+00 0.00000000D+00
                 0.00000000D+00 0.00000000D+00 0.00000000D+00
 -------------------------------------------------------------------
 Center     Atomic                   Forces (Hartrees/Bohr)
 Number     Number              X              Y              Z
 -------------------------------------------------------------------
      1        6          -0.000003741   -0.000003357   -0.000000192
      2        8           0.000004986    0.000002729   -0.000001997
      3        6          -0.000001817   -0.000000436    0.000001780
      4        9           0.000003118   -0.000001908    0.000003521
      5        8           0.000003451    0.000009085   -0.000021884
      6        1          -0.000005997   -0.000006112    0.000018773
 -------------------------------------------------------------------
 Cartesian Forces:  Max     0.000021884 RMS     0.000007793
 Force constants in Cartesian coordinates: 
                1             2             3             4             5 
      1  0.737738D+00
      2 -0.169395D+00  0.870128D+00
      3  0.562864D-01 -0.397381D-01  0.245092D+00
      4 -0.312442D+00  0.328831D+00 -0.298822D-01  0.274608D+00
      5  0.306301D+00 -0.602569D+00  0.487022D-01 -0.349811D+00  0.715849D+00
      6 -0.334672D-01  0.511386D-01 -0.813149D-01  0.329917D-01 -0.569814D-01
      7 -0.183110D+00 -0.292432D-01  0.526961D-01 -0.115682D-01  0.298351D-01
      8 -0.610232D-02 -0.268502D-02  0.119586D-02  0.180847D-01 -0.943421D-02
      9 -0.141128D-01 -0.758355D-02 -0.844189D-01  0.106190D-01 -0.571934D-02
     10 -0.218638D-01 -0.241870D-02 -0.762688D-01 -0.480935D-02 -0.967704D-03
     11  0.298380D-03  0.255566D-02 -0.843325D-02 -0.854654D-03 -0.373300D-03
     12  0.691167D-03  0.183806D-02 -0.202422D-01 -0.148290D-01  0.592183D-02
     13 -0.189635D+00 -0.114344D+00 -0.515575D-03  0.507411D-01  0.720089D-02
     14 -0.724986D-01 -0.269632D+00  0.311399D-02 -0.652655D-02 -0.104494D+00
     15 -0.841278D-02 -0.334401D-02 -0.637864D-01  0.614480D-03  0.766653D-02
     16 -0.306863D-01 -0.134297D-01 -0.231594D-02  0.347101D-02  0.744187D-02
     17 -0.586037D-01  0.220310D-02 -0.484073D-02  0.102771D-01  0.102141D-02
     18 -0.984816D-03 -0.231101D-02  0.467042D-02  0.486049D-03  0.410161D-03
                6             7             8             9            10 
      6  0.355626D-01
      7 -0.107268D-01  0.277389D+00
      8 -0.192097D-02  0.195859D-01  0.275674D-01
      9  0.223693D-01  0.888841D-01  0.457945D-01  0.446868D+00
     10  0.103030D-01 -0.735231D-01 -0.114650D-01 -0.910162D-01  0.105551D+00
     11  0.366150D-02 -0.137253D-01 -0.675151D-02 -0.401854D-01  0.160126D-01
     12  0.131469D-02 -0.125199D+00 -0.451165D-01 -0.403906D+00  0.149377D+00
     13  0.279239D-03 -0.114127D-01 -0.196167D-01  0.675609D-02 -0.468521D-02
     14  0.328290D-02 -0.589327D-02 -0.622573D-02  0.758876D-02 -0.673881D-03
     15  0.282541D-01 -0.353741D-02 -0.145893D-02  0.132216D-01  0.475406D-02
     16  0.620047D-03  0.222477D-02 -0.486623D-03 -0.113022D-02 -0.669085D-03
     17  0.819390D-03 -0.559258D-03 -0.247097D-02  0.105013D-03 -0.487362D-03
     18 -0.618581D-02 -0.211695D-02  0.150604D-02  0.586603D-02  0.285115D-02
               11            12            13            14            15 
     11  0.640597D-02
     12  0.440807D-01  0.423327D+00
     13 -0.149184D-02 -0.101952D-01  0.639521D+00
     14 -0.163179D-02 -0.629518D-02  0.534614D-01  0.431669D+00
     15  0.127779D-02 -0.254548D-03  0.503286D-01 -0.129973D-01  0.422789D-01
     16 -0.239230D-03  0.155321D-03 -0.484528D+00  0.321309D-01 -0.437469D-01
     17 -0.205028D-03 -0.428874D-03  0.747905D-01 -0.496853D-01  0.885596D-02
     18 -0.401310D-03 -0.239110D-03 -0.466531D-01  0.530687D-02 -0.197137D-01
               16            17            18 
     16  0.510188D+00
     17 -0.254172D-01  0.491368D-01
     18  0.464177D-01 -0.451075D-02  0.156022D-01
 FormGI is forming the generalized inverse of G from B-inverse, IUseBI=4.
 Force constants in internal coordinates: 
                1             2             3             4             5 
      1  0.913643D+00
      2  0.331202D-01  0.235873D+00
      3  0.898104D-01  0.128167D-01  0.448416D+00
      4  0.119131D-01  0.324396D-01  0.108409D-01  0.483889D+00
      5 -0.510926D-02 -0.171197D-02  0.146736D-01  0.264765D-05  0.515458D+00
      6  0.102766D-01 -0.777577D-02 -0.340546D-01  0.108262D-01  0.403773D-02
      7  0.293045D-01 -0.785007D-02  0.148108D-01 -0.139169D-01 -0.915943D-02
      8 -0.390523D-01  0.161218D-01  0.197002D-01  0.381093D-02  0.509696D-02
      9 -0.687234D-02  0.580647D-01  0.288258D-03  0.916724D-01  0.876086D-03
     10  0.696371D-02  0.166996D-02  0.380459D-01  0.105916D-02  0.277411D-01
     11  0.202905D-02  0.243907D-02  0.462781D-02  0.653132D-02 -0.822329D-04
     12 -0.533453D-02 -0.265951D-02 -0.140134D-02 -0.613479D-03  0.707244D-03
     13 -0.321248D-02 -0.237550D-02 -0.171971D-02 -0.426716D-02  0.347891D-03
     14  0.320773D-02  0.331196D-02  0.184932D-02  0.512638D-02  0.388401D-03
                6             7             8             9            10 
      6  0.793911D-01
      7 -0.819834D-01  0.174025D+00
      8  0.261563D-02 -0.920327D-01  0.900298D-01
      9  0.327876D-02 -0.543842D-02  0.627796D-02  0.296781D+00
     10  0.900778D-02 -0.324468D-01  0.234071D-01  0.208525D-02  0.161837D+00
     11 -0.227740D-02  0.512140D-02  0.112644D-02  0.240885D-01 -0.741206D-03
     12  0.232561D-02 -0.481439D-02 -0.666990D-03 -0.210903D-01  0.141080D-02
     13 -0.339071D-02  0.279917D-02 -0.336682D-02 -0.187628D-01  0.753633D-03
     14  0.205673D-02 -0.376855D-02  0.550081D-02  0.309325D-01  0.130323D-02
               11            12            13            14 
     11  0.268349D-01
     12 -0.173107D-01  0.178199D-01
     13 -0.245710D-01  0.189828D-01  0.327943D-01
     14  0.229149D-01 -0.187230D-01 -0.149466D-01  0.307087D-01
 Leave Link  716 at Sat May 24 05:06:08 2025, MaxMem=  3758096384 cpu:               0.0 elap:               0.0
 (Enter /apps/easybuild-2022/easybuild/software/Compiler/NVHPC/22.11-CUDA-11.7.0/Gaussian/g16c01-CUDA-11.7.0/g16/l103.exe)

 GradGradGradGradGradGradGradGradGradGradGradGradGradGradGradGradGradGrad
 Berny optimization.
 Red2BG is reusing G-inverse.
 Internal  Forces:  Max     0.000019343 RMS     0.000007951
 Search for a local minimum.
 Step number   1 out of a maximum of   24
 All quantities printed in internal units (Hartrees-Bohrs-Radians)
 RMS Force = .79514D-05 SwitMx=.10000D-02 MixMth= 2
 Mixed Optimization -- En-DIIS/RFO-DIIS
 Second derivative matrix not updated -- analytic derivatives used.
 The second derivative matrix:
                          R1        R2        R3        R4        R5
           R1           0.91364
           R2           0.03312   0.23587
           R3           0.08981   0.01282   0.44842
           R4           0.01191   0.03244   0.01084   0.48389
           R5          -0.00511  -0.00171   0.01467   0.00000   0.51546
           A1           0.01028  -0.00778  -0.03405   0.01083   0.00404
           A2           0.02930  -0.00785   0.01481  -0.01392  -0.00916
           A3          -0.03905   0.01612   0.01970   0.00381   0.00510
           A4          -0.00687   0.05806   0.00029   0.09167   0.00088
           A5           0.00696   0.00167   0.03805   0.00106   0.02774
           D1           0.00203   0.00244   0.00463   0.00653  -0.00008
           D2          -0.00533  -0.00266  -0.00140  -0.00061   0.00071
           D3          -0.00321  -0.00238  -0.00172  -0.00427   0.00035
           D4           0.00321   0.00331   0.00185   0.00513   0.00039
                          A1        A2        A3        A4        A5
           A1           0.07939
           A2          -0.08198   0.17403
           A3           0.00262  -0.09203   0.09003
           A4           0.00328  -0.00544   0.00628   0.29678
           A5           0.00901  -0.03245   0.02341   0.00209   0.16184
           D1          -0.00228   0.00512   0.00113   0.02409  -0.00074
           D2           0.00233  -0.00481  -0.00067  -0.02109   0.00141
           D3          -0.00339   0.00280  -0.00337  -0.01876   0.00075
           D4           0.00206  -0.00377   0.00550   0.03093   0.00130
                          D1        D2        D3        D4
           D1           0.02683
           D2          -0.01731   0.01782
           D3          -0.02457   0.01898   0.03279
           D4           0.02291  -0.01872  -0.01495   0.03071
 ITU=  0
     Eigenvalues ---    0.00438   0.01633   0.07098   0.07807   0.14096
     Eigenvalues ---    0.20167   0.27081   0.29429   0.43747   0.52141
     Eigenvalues ---    0.53529   0.93583
 RFO step:  Lambda=-3.36438203D-08 EMin= 4.38105198D-03
 Linear search not attempted -- first point.
 Iteration  1 RMS(Cart)=  0.00035565 RMS(Int)=  0.00000020
 Iteration  2 RMS(Cart)=  0.00000018 RMS(Int)=  0.00000000
 ITry= 1 IFail=0 DXMaxC= 9.05D-04 DCOld= 1.00D+10 DXMaxT= 3.00D-01 DXLimC= 3.00D+00 Rises=F
 Variable       Old X    -DE/DX   Delta X   Delta X   Delta X     New X
                                 (Linear)    (Quad)   (Total)
    R1        2.26032   0.00000   0.00000   0.00001   0.00001   2.26033
    R2        2.86312   0.00000   0.00000  -0.00001  -0.00001   2.86311
    R3        2.51136   0.00000   0.00000   0.00001   0.00001   2.51137
    R4        2.44624  -0.00001   0.00000  -0.00002  -0.00002   2.44622
    R5        1.83057  -0.00000   0.00000  -0.00000  -0.00000   1.83057
    A1        2.08330   0.00000   0.00000  -0.00000  -0.00000   2.08330
    A2        2.21044  -0.00001   0.00000  -0.00005  -0.00005   2.21039
    A3        1.98534   0.00000   0.00000   0.00004   0.00004   1.98538
    A4        1.86045  -0.00000   0.00000   0.00007   0.00007   1.86052
    A5        1.89601  -0.00002   0.00000  -0.00010  -0.00010   1.89591
    D1       -1.56283  -0.00000   0.00000  -0.00006  -0.00006  -1.56289
    D2        1.66950   0.00000   0.00000   0.00008   0.00008   1.66958
    D3       -0.00151  -0.00001   0.00000  -0.00089  -0.00089  -0.00240
    D4        3.04149  -0.00002   0.00000  -0.00104  -0.00104   3.04045
         Item               Value     Threshold  Converged?
 Maximum Force            0.000019     0.000450     YES
 RMS     Force            0.000008     0.000300     YES
 Maximum Displacement     0.000905     0.001800     YES
 RMS     Displacement     0.000356     0.001200     YES
 Predicted change in Energy=-1.682191D-08
 Optimization completed.
    -- Stationary point found.
                           ----------------------------
                           !   Optimized Parameters   !
                           ! (Angstroms and Degrees)  !
 --------------------------                            --------------------------
 ! Name  Definition              Value          Derivative Info.                !
 --------------------------------------------------------------------------------
 ! R1    R(1,2)                  1.1961         -DE/DX =    0.0                 !
 ! R2    R(1,3)                  1.5151         -DE/DX =    0.0                 !
 ! R3    R(1,5)                  1.329          -DE/DX =    0.0                 !
 ! R4    R(3,4)                  1.2945         -DE/DX =    0.0                 !
 ! R5    R(5,6)                  0.9687         -DE/DX =    0.0                 !
 ! A1    A(2,1,3)              119.3645         -DE/DX =    0.0                 !
 ! A2    A(2,1,5)              126.6489         -DE/DX =    0.0                 !
 ! A3    A(3,1,5)              113.7519         -DE/DX =    0.0                 !
 ! A4    A(1,3,4)              106.5958         -DE/DX =    0.0                 !
 ! A5    A(1,5,6)              108.6336         -DE/DX =    0.0                 !
 ! D1    D(2,1,3,4)            -89.5433         -DE/DX =    0.0                 !
 ! D2    D(5,1,3,4)             95.6555         -DE/DX =    0.0                 !
 ! D3    D(2,1,5,6)             -0.0866         -DE/DX =    0.0                 !
 ! D4    D(3,1,5,6)            174.2647         -DE/DX =    0.0                 !
 --------------------------------------------------------------------------------
 Lowest energy point so far.  Saving SCF results.
 Largest change from initial coordinates is atom    0       0.000 Angstoms.
 GradGradGradGradGradGradGradGradGradGradGradGradGradGradGradGradGradGrad

 Leave Link  103 at Sat May 24 05:06:08 2025, MaxMem=  3758096384 cpu:               0.1 elap:               0.0
 (Enter /apps/easybuild-2022/easybuild/software/Compiler/NVHPC/22.11-CUDA-11.7.0/Gaussian/g16c01-CUDA-11.7.0/g16/l202.exe)
                          Input orientation:                          
 ---------------------------------------------------------------------
 Center     Atomic      Atomic             Coordinates (Angstroms)
 Number     Number       Type             X           Y           Z
 ---------------------------------------------------------------------
      1          6           0        1.515096    0.000000    0.000000
      2          8           0        2.101626   -1.038144    0.094458
      3          6           0        0.000000    0.000000    0.000000
      4          9           0       -0.369731   -0.122255   -1.234532
      5          8           0        2.050368    1.216389    0.000000
      6          1           0        3.010995    1.131820    0.091730
 ---------------------------------------------------------------------
                    Distance matrix (angstroms):
                    1          2          3          4          5
     1  C    0.000000
     2  O    1.196112   0.000000
     3  C    1.515096   2.345954   0.000000
     4  F    2.256456   2.951724   1.294495   0.000000
     5  O    1.328954   2.257093   2.384033   3.028683   0.000000
     6  H    1.878069   2.352808   3.218000   3.842003   0.968695
                    6
     6  H    0.000000
 Symmetry turned off by external request.
 Stoichiometry    C2HFO2
 Rotational constants (GHZ):          10.2131841           4.3806265           3.3907224
 Leave Link  202 at Sat May 24 05:06:08 2025, MaxMem=  3758096384 cpu:               0.0 elap:               0.0
 (Enter /apps/easybuild-2022/easybuild/software/Compiler/NVHPC/22.11-CUDA-11.7.0/Gaussian/g16c01-CUDA-11.7.0/g16/l9999.exe)
 Unable to Open any file for archive entry.
 1\1\GINC-SPARTAN-BM197\FOpt\RM062X\def2TZVPP\C2H1F1O2\AKHALILOV\24-May
 -2025\0\\#P M062X/Def2TZVPP Symm(None) scf(xqc) pop(None) freq opt(Cal
 cFC)\\Gaussian input prepared by ASE\\0,1\C,1.515096484,0.,0.\O,2.1016
 263504,-1.0381441725,0.0944576251\C,0.,0.,0.\F,-0.3697314281,-0.122254
 8406,-1.234532266\O,2.0503682021,1.2163887624,0.\H,3.0109952347,1.1318
 203392,0.0917301883\\Version=ES64L-G16RevC.01\HF=-327.0023226\RMSD=8.9
 41e-09\RMSF=7.793e-06\Dipole=0.5758799,0.6536886,-0.2402501\Polar=0.,0
 .,0.,0.,0.,0.\PG=Unknown\\@
 The archive entry for this job was punched.


 NATURE REVEALS EVERY SECRET ONCE.
                    - RALPH WALDO EMERSON
 Leave Link 9999 at Sat May 24 05:06:08 2025, MaxMem=  3758096384 cpu:               0.0 elap:               0.0
 Job cpu time:       0 days  0 hours  3 minutes 58.4 seconds.
 Elapsed time:       0 days  0 hours  0 minutes 32.2 seconds.
 File lengths (MBytes):  RWF=     21 Int=      0 D2E=      0 Chk=      3 Scr=      1
 Normal termination of Gaussian 16 at Sat May 24 05:06:08 2025.
 (Enter /apps/easybuild-2022/easybuild/software/Compiler/NVHPC/22.11-CUDA-11.7.0/Gaussian/g16c01-CUDA-11.7.0/g16/l1.exe)
 Link1:  Proceeding to internal job step number  2.
 ---------------------------------------------------------------------
 #P Geom=AllCheck Guess=TCheck SCRF=Check GenChk RM062X/def2TZVPP Freq
 ---------------------------------------------------------------------
 1/10=4,29=7,30=1,38=1,40=1/1,3;
 2/12=2,15=3,40=1/2;
 3/5=44,7=202,11=2,14=-4,25=1,30=1,70=2,71=2,74=-55,116=1,140=1/1,2,3;
 4/5=101/1;
 5/5=2,8=3,13=1,38=6,98=1/2,8;
 8/6=4,10=90,11=11/1;
 11/6=1,8=1,9=11,15=111,16=1,31=1/1,2,10;
 10/6=1,31=1/2;
 7/8=1,10=1,25=1,30=1/1,2,3,16;
 1/10=4,30=1/3;
 99//99;
 Leave Link    1 at Sat May 24 05:06:08 2025, MaxMem=  3758096384 cpu:               0.0 elap:               0.0
 (Enter /apps/easybuild-2022/easybuild/software/Compiler/NVHPC/22.11-CUDA-11.7.0/Gaussian/g16c01-CUDA-11.7.0/g16/l101.exe)
 Structure from the checkpoint file:  "/tmp/Gau-155698.chk"
 ------------------------------
 Gaussian input prepared by ASE
 ------------------------------
 Charge =  0 Multiplicity = 1
 Redundant internal coordinates found in file.  (old form).
 C,0,1.515096484,0.,0.
 O,0,2.1016263504,-1.0381441725,0.0944576251
 C,0,0.,0.,0.
 F,0,-0.3697314281,-0.1222548406,-1.234532266
 O,0,2.0503682021,1.2163887624,0.
 H,0,3.0109952347,1.1318203392,0.0917301883
 Recover connectivity data from disk.
 ITRead=  0  0  0  0  0  0
 MicOpt= -1 -1 -1 -1 -1 -1
 NAtoms=      6 NQM=        6 NQMF=       0 NMMI=      0 NMMIF=      0
                NMic=       0 NMicF=      0.
                    Isotopes and Nuclear Properties:
 (Nuclear quadrupole moments (NQMom) in fm**2, nuclear magnetic moments (NMagM)
  in nuclear magnetons)

  Atom         1           2           3           4           5           6
 IAtWgt=          12          16          12          19          16           1
 AtmWgt=  12.0000000  15.9949146  12.0000000  18.9984032  15.9949146   1.0078250
 NucSpn=           0           0           0           1           0           1
 AtZEff=   3.6000000   5.6000000   3.6000000   6.7500000   5.6000000   1.0000000
 NQMom=    0.0000000   0.0000000   0.0000000   0.0000000   0.0000000   0.0000000
 NMagM=    0.0000000   0.0000000   0.0000000   2.6288670   0.0000000   2.7928460
 AtZNuc=   6.0000000   8.0000000   6.0000000   9.0000000   8.0000000   1.0000000
 Leave Link  101 at Sat May 24 05:06:08 2025, MaxMem=  3758096384 cpu:               0.2 elap:               0.2
 (Enter /apps/easybuild-2022/easybuild/software/Compiler/NVHPC/22.11-CUDA-11.7.0/Gaussian/g16c01-CUDA-11.7.0/g16/l103.exe)

 GradGradGradGradGradGradGradGradGradGradGradGradGradGradGradGradGradGrad
 Berny optimization.
 Initialization pass.
                           ----------------------------
                           !    Initial Parameters    !
                           ! (Angstroms and Degrees)  !
 --------------------------                            --------------------------
 ! Name  Definition              Value          Derivative Info.                !
 --------------------------------------------------------------------------------
 ! R1    R(1,2)                  1.1961         calculate D2E/DX2 analytically  !
 ! R2    R(1,3)                  1.5151         calculate D2E/DX2 analytically  !
 ! R3    R(1,5)                  1.329          calculate D2E/DX2 analytically  !
 ! R4    R(3,4)                  1.2945         calculate D2E/DX2 analytically  !
 ! R5    R(5,6)                  0.9687         calculate D2E/DX2 analytically  !
 ! A1    A(2,1,3)              119.3645         calculate D2E/DX2 analytically  !
 ! A2    A(2,1,5)              126.6489         calculate D2E/DX2 analytically  !
 ! A3    A(3,1,5)              113.7519         calculate D2E/DX2 analytically  !
 ! A4    A(1,3,4)              106.5958         calculate D2E/DX2 analytically  !
 ! A5    A(1,5,6)              108.6336         calculate D2E/DX2 analytically  !
 ! D1    D(2,1,3,4)            -89.5433         calculate D2E/DX2 analytically  !
 ! D2    D(5,1,3,4)             95.6555         calculate D2E/DX2 analytically  !
 ! D3    D(2,1,5,6)             -0.0866         calculate D2E/DX2 analytically  !
 ! D4    D(3,1,5,6)            174.2647         calculate D2E/DX2 analytically  !
 --------------------------------------------------------------------------------
 Trust Radius=3.00D-01 FncErr=1.00D-07 GrdErr=1.00D-07 EigMax=2.50D+02 EigMin=1.00D-04
 Number of steps in this run=      2 maximum allowed number of steps=      2.
 GradGradGradGradGradGradGradGradGradGradGradGradGradGradGradGradGradGrad

 Leave Link  103 at Sat May 24 05:06:08 2025, MaxMem=  3758096384 cpu:               0.0 elap:               0.0
 (Enter /apps/easybuild-2022/easybuild/software/Compiler/NVHPC/22.11-CUDA-11.7.0/Gaussian/g16c01-CUDA-11.7.0/g16/l202.exe)
                          Input orientation:                          
 ---------------------------------------------------------------------
 Center     Atomic      Atomic             Coordinates (Angstroms)
 Number     Number       Type             X           Y           Z
 ---------------------------------------------------------------------
      1          6           0        1.515096    0.000000    0.000000
      2          8           0        2.101626   -1.038144    0.094458
      3          6           0        0.000000    0.000000    0.000000
      4          9           0       -0.369731   -0.122255   -1.234532
      5          8           0        2.050368    1.216389    0.000000
      6          1           0        3.010995    1.131820    0.091730
 ---------------------------------------------------------------------
                    Distance matrix (angstroms):
                    1          2          3          4          5
     1  C    0.000000
     2  O    1.196112   0.000000
     3  C    1.515096   2.345954   0.000000
     4  F    2.256456   2.951724   1.294495   0.000000
     5  O    1.328954   2.257093   2.384033   3.028683   0.000000
     6  H    1.878069   2.352808   3.218000   3.842003   0.968695
                    6
     6  H    0.000000
 Symmetry turned off by external request.
 Stoichiometry    C2HFO2
 Rotational constants (GHZ):          10.2131841           4.3806265           3.3907224
 Leave Link  202 at Sat May 24 05:06:08 2025, MaxMem=  3758096384 cpu:               0.0 elap:               0.0
 (Enter /apps/easybuild-2022/easybuild/software/Compiler/NVHPC/22.11-CUDA-11.7.0/Gaussian/g16c01-CUDA-11.7.0/g16/l301.exe)
 Standard basis: def2TZVPP (5D, 7F)
 Ernie: Thresh=  0.10000D-02 Tol=  0.10000D-05 Strict=F.
   169 basis functions,   272 primitive gaussians,   195 cartesian basis functions
    19 alpha electrons       19 beta electrons
       nuclear repulsion energy       159.7223651485 Hartrees.
 IExCor= 4336 DFT=T Ex+Corr=M062X ExCW=0 ScaHFX=  0.540000
 ScaDFX=  1.000000  1.000000  1.000000  1.000000 ScalE2=  1.000000  1.000000
 IRadAn=      5 IRanWt=     -1 IRanGd=            0 ICorTp=0 IEmpDi=  4
 NAtoms=    6 NActive=    6 NUniq=    6 SFac= 1.00D+00 NAtFMM=   60 NAOKFM=F Big=F
 Integral buffers will be    131072 words long.
 Raffenetti 2 integral format.
 Two-electron integral symmetry is turned off.
 Leave Link  301 at Sat May 24 05:06:08 2025, MaxMem=  3758096384 cpu:               0.1 elap:               0.0
 (Enter /apps/easybuild-2022/easybuild/software/Compiler/NVHPC/22.11-CUDA-11.7.0/Gaussian/g16c01-CUDA-11.7.0/g16/l302.exe)
 NPDir=0 NMtPBC=     1 NCelOv=     1 NCel=       1 NClECP=     1 NCelD=      1
         NCelK=      1 NCelE2=     1 NClLst=     1 CellRange=     0.0.
 One-electron integrals computed using PRISM.
   1 Symmetry operations used in ECPInt.
 ECPInt:  NShTT=    1891 NPrTT=    5999 LenC2=    1863 LenP2D=    4942.
 LDataN:  DoStor=T MaxTD1= 6 Len=  172
 NBasis=   169 RedAO= T EigKep=  5.42D-04  NBF=   169
 NBsUse=   169 1.00D-06 EigRej= -1.00D+00 NBFU=   169
 Precomputing XC quadrature grid using
 IXCGrd= 4 IRadAn=           5 IRanWt=          -1 IRanGd=           0 AccXCQ= 0.00D+00.
 Generated NRdTot=       0 NPtTot=           0 NUsed=           0 NTot=          32
 NSgBfM=   194   194   194   194   194 MxSgAt=     6 MxSgA2=     6.
 Leave Link  302 at Sat May 24 05:06:08 2025, MaxMem=  3758096384 cpu:               0.4 elap:               0.1
 (Enter /apps/easybuild-2022/easybuild/software/Compiler/NVHPC/22.11-CUDA-11.7.0/Gaussian/g16c01-CUDA-11.7.0/g16/l303.exe)
 DipDrv:  MaxL=1.
 Leave Link  303 at Sat May 24 05:06:08 2025, MaxMem=  3758096384 cpu:               0.1 elap:               0.0
 (Enter /apps/easybuild-2022/easybuild/software/Compiler/NVHPC/22.11-CUDA-11.7.0/Gaussian/g16c01-CUDA-11.7.0/g16/l401.exe)
 Initial guess from the checkpoint file:  "/tmp/Gau-155698.chk"
 B after Tr=     0.000000    0.000000    0.000000
         Rot=    1.000000    0.000000    0.000000    0.000000 Ang=   0.00 deg.
 Guess basis will be translated and rotated to current coordinates.
 JPrj=2 DoOrth=T DoCkMO=T.
 Leave Link  401 at Sat May 24 05:06:08 2025, MaxMem=  3758096384 cpu:               0.1 elap:               0.1
 (Enter /apps/easybuild-2022/easybuild/software/Compiler/NVHPC/22.11-CUDA-11.7.0/Gaussian/g16c01-CUDA-11.7.0/g16/l502.exe)
 Keep R1 ints in memory in canonical form, NReq=111366812.
 FoFCou: FMM=F IPFlag=           0 FMFlag=           0 FMFlg1=           0
         NFxFlg=           0 DoJE=F BraDBF=F KetDBF=F FulRan=T
         wScrn=  0.000000 ICntrl=       600 IOpCl=  0 I1Cent=           0 NGrid=           0
         NMat0=    1 NMatS0=  14365 NMatT0=    0 NMatD0=    1 NMtDS0=    0 NMtDT0=    0
 Symmetry not used in FoFCou.
 Two-electron integral symmetry not used.
 Closed shell SCF:
 Using DIIS extrapolation, IDIIS=  1040.
 NGot=  3758096384 LenX=  3654833526 LenY=  3654795060
 Requested convergence on RMS density matrix=1.00D-08 within  32 cycles.
 Requested convergence on MAX density matrix=1.00D-06.
 Requested convergence on             energy=1.00D-06.
 No special actions if energy rises.

 Cycle   1  Pass 1  IDiag  1:
 E= -327.002322619476    
 DIIS: error= 1.88D-08 at cycle   1 NSaved=   1.
 NSaved= 1 IEnMin= 1 EnMin= -327.002322619476     IErMin= 1 ErrMin= 1.88D-08
 ErrMax= 1.88D-08  0.00D+00 EMaxC= 1.00D-01 BMatC= 1.26D-13 BMatP= 1.26D-13
 IDIUse=1 WtCom= 1.00D+00 WtEn= 0.00D+00
 Coeff-Com:  0.100D+01
 Coeff:      0.100D+01
 Gap=     0.264 Goal=   None    Shift=    0.000
 RMSDP=2.80D-09 MaxDP=6.35D-08              OVMax= 2.19D-07

 SCF Done:  E(RM062X) =  -327.002322619     A.U. after    1 cycles
            NFock=  1  Conv=0.28D-08     -V/T= 2.0038
 KE= 3.257735123874D+02 PE=-1.090932715741D+03 EE= 2.784345155860D+02
 Leave Link  502 at Sat May 24 05:06:09 2025, MaxMem=  3758096384 cpu:               4.9 elap:               0.8
 (Enter /apps/easybuild-2022/easybuild/software/Compiler/NVHPC/22.11-CUDA-11.7.0/Gaussian/g16c01-CUDA-11.7.0/g16/l508.exe)
 QCSCF skips out because SCF is already converged.
 Leave Link  508 at Sat May 24 05:06:09 2025, MaxMem=  3758096384 cpu:               0.0 elap:               0.0
 (Enter /apps/easybuild-2022/easybuild/software/Compiler/NVHPC/22.11-CUDA-11.7.0/Gaussian/g16c01-CUDA-11.7.0/g16/l801.exe)
 DoSCS=F DFT=T ScalE2(SS,OS)=  1.000000  1.000000
 Range of M.O.s used for correlation:     1   169
 NBasis=   169 NAE=    19 NBE=    19 NFC=     0 NFV=     0
 NROrb=    169 NOA=    19 NOB=    19 NVA=   150 NVB=   150

 **** Warning!!: The largest alpha MO coefficient is  0.12758196D+02

 Leave Link  801 at Sat May 24 05:06:09 2025, MaxMem=  3758096384 cpu:               0.1 elap:               0.0
 (Enter /apps/easybuild-2022/easybuild/software/Compiler/NVHPC/22.11-CUDA-11.7.0/Gaussian/g16c01-CUDA-11.7.0/g16/l1101.exe)
 Using compressed storage, NAtomX=     6.
 Will process      7 centers per pass.
   1 Symmetry operations used in ECPInt.
 ECPInt:  NShTT=    1891 NPrTT=    5999 LenC2=    1863 LenP2D=    4942.
 LDataN:  DoStor=T MaxTD1= 7 Len=  274
 Leave Link 1101 at Sat May 24 05:06:09 2025, MaxMem=  3758096384 cpu:               0.5 elap:               0.1
 (Enter /apps/easybuild-2022/easybuild/software/Compiler/NVHPC/22.11-CUDA-11.7.0/Gaussian/g16c01-CUDA-11.7.0/g16/l1102.exe)
 Symmetrizing basis deriv contribution to polar:
 IMax=3 JMax=2 DiffMx= 0.00D+00
 Leave Link 1102 at Sat May 24 05:06:09 2025, MaxMem=  3758096384 cpu:               0.1 elap:               0.0
 (Enter /apps/easybuild-2022/easybuild/software/Compiler/NVHPC/22.11-CUDA-11.7.0/Gaussian/g16c01-CUDA-11.7.0/g16/l1110.exe)
 Forming Gx(P) for the SCF density, NAtomX=     6.
 Integral derivatives from FoFJK, PRISM(SPDF).
 Do as many integral derivatives as possible in FoFJK.
 G2DrvN: MDV=    3758095642.
 G2DrvN: will do     7 centers at a time, making    1 passes.
 Calling FoFCou, ICntrl=  3107 FMM=F I1Cent=   0 AccDes= 0.00D+00.
 FoFJK:  IHMeth= 1 ICntrl=    3107 DoSepK=F KAlg= 0 I1Cent=           0 FoldK=F
 IRaf=         0 NMat=       1 IRICut=       1 DoRegI=T DoRafI=F ISym2E= 0 IDoP0=0 IntGTp=1.
 FoFCou: FMM=F IPFlag=           0 FMFlag=      100000 FMFlg1=           0
         NFxFlg=           0 DoJE=F BraDBF=F KetDBF=F FulRan=T
         wScrn=  0.000000 ICntrl=      3107 IOpCl=  0 I1Cent=           0 NGrid=           0
         NMat0=    1 NMatS0=      1 NMatT0=    0 NMatD0=    1 NMtDS0=    0 NMtDT0=    0
 Symmetry not used in FoFCou.
 End of G2Drv F.D. properties file   721 does not exist.
 End of G2Drv F.D. properties file   722 does not exist.
 End of G2Drv F.D. properties file   788 does not exist.
 Leave Link 1110 at Sat May 24 05:06:14 2025, MaxMem=  3758096384 cpu:              40.0 elap:               5.1
 (Enter /apps/easybuild-2022/easybuild/software/Compiler/NVHPC/22.11-CUDA-11.7.0/Gaussian/g16c01-CUDA-11.7.0/g16/l1002.exe)
 Minotr:  Closed shell wavefunction.
          IDoAtm=111111
          Direct CPHF calculation.
          Differentiating once with respect to electric field.
                with respect to dipole field.
          Differentiating once with respect to nuclear coordinates.
          Requested convergence is 1.0D-08 RMS, and 1.0D-07 maximum.
          Secondary convergence is 1.0D-12 RMS, and 1.0D-12 maximum.
          NewPWx=T KeepS1=F KeepF1=F KeepIn=T MapXYZ=F SortEE=F KeepMc=T.
         1782 words used for storage of precomputed grid.
 Keep R1 ints in memory in canonical form, NReq=111344695.
 FoFCou: FMM=F IPFlag=           0 FMFlag=           0 FMFlg1=           0
         NFxFlg=           0 DoJE=F BraDBF=F KetDBF=F FulRan=T
         wScrn=  0.000000 ICntrl=       600 IOpCl=  0 I1Cent=           0 NGrid=           0
         NMat0=    1 NMatS0=  14365 NMatT0=    0 NMatD0=    1 NMtDS0=    0 NMtDT0=    0
 Symmetry not used in FoFCou.
 Two-electron integral symmetry not used.
          MDV=    3758096384 using IRadAn=       1.
          Solving linear equations simultaneously, MaxMat=       0.
          There are    21 degrees of freedom in the 1st order CPHF.  IDoFFX=6 NUNeed=     3.
     18 vectors produced by pass  0 Test12= 1.36D-14 4.76D-09 XBig12= 1.71D+01 2.22D+00.
 AX will form    18 AO Fock derivatives at one time.
     18 vectors produced by pass  1 Test12= 1.36D-14 4.76D-09 XBig12= 2.36D+00 3.74D-01.
     18 vectors produced by pass  2 Test12= 1.36D-14 4.76D-09 XBig12= 7.88D-02 6.07D-02.
     18 vectors produced by pass  3 Test12= 1.36D-14 4.76D-09 XBig12= 1.61D-03 7.47D-03.
     18 vectors produced by pass  4 Test12= 1.36D-14 4.76D-09 XBig12= 1.58D-05 7.47D-04.
     18 vectors produced by pass  5 Test12= 1.36D-14 4.76D-09 XBig12= 1.26D-07 6.82D-05.
     18 vectors produced by pass  6 Test12= 1.36D-14 4.76D-09 XBig12= 7.06D-10 4.03D-06.
      6 vectors produced by pass  7 Test12= 1.36D-14 4.76D-09 XBig12= 4.00D-12 3.62D-07.
      3 vectors produced by pass  8 Test12= 1.36D-14 4.76D-09 XBig12= 1.95D-14 2.56D-08.
 InvSVY:  IOpt=1 It=  1 EMax= 5.33D-15
 Solved reduced A of dimension   135 with    21 vectors.
 FullF1:  Do perturbations      1 to       3.
 Isotropic polarizability for W=    0.000000       30.93 Bohr**3.
 End of Minotr F.D. properties file   721 does not exist.
 End of Minotr F.D. properties file   722 does not exist.
 End of Minotr F.D. properties file   788 does not exist.
 Leave Link 1002 at Sat May 24 05:06:22 2025, MaxMem=  3758096384 cpu:              63.6 elap:               8.1
 (Enter /apps/easybuild-2022/easybuild/software/Compiler/NVHPC/22.11-CUDA-11.7.0/Gaussian/g16c01-CUDA-11.7.0/g16/l701.exe)
 ... and contract with generalized density number  0.
 Compute integral second derivatives.
   1 Symmetry operations used in ECPInt.
 ECPInt:  NShTT=    1891 NPrTT=    5999 LenC2=    1863 LenP2D=    4942.
 LDataN:  DoStor=T MaxTD1= 8 Len=  415
 Leave Link  701 at Sat May 24 05:06:23 2025, MaxMem=  3758096384 cpu:               0.5 elap:               0.1
 (Enter /apps/easybuild-2022/easybuild/software/Compiler/NVHPC/22.11-CUDA-11.7.0/Gaussian/g16c01-CUDA-11.7.0/g16/l702.exe)
 L702 exits ... SP integral derivatives will be done elsewhere.
 Leave Link  702 at Sat May 24 05:06:23 2025, MaxMem=  3758096384 cpu:               0.1 elap:               0.0
 (Enter /apps/easybuild-2022/easybuild/software/Compiler/NVHPC/22.11-CUDA-11.7.0/Gaussian/g16c01-CUDA-11.7.0/g16/l703.exe)
 Integral derivatives from FoFJK, PRISM(SPDF).
 Compute integral second derivatives, UseDBF=F ICtDFT=           0.
 Calling FoFJK, ICntrl=    100127 FMM=F ISym2X=0 I1Cent= 0 IOpClX= 0 NMat=1 NMatS=1 NMatT=0.
 FoFJK:  IHMeth= 1 ICntrl=  100127 DoSepK=F KAlg= 0 I1Cent=           0 FoldK=F
 IRaf=         0 NMat=       1 IRICut=       1 DoRegI=T DoRafI=F ISym2E= 0 IDoP0=0 IntGTp=1.
 FoFCou: FMM=F IPFlag=           0 FMFlag=      100000 FMFlg1=         800
         NFxFlg=           0 DoJE=F BraDBF=F KetDBF=F FulRan=T
         wScrn=  0.000000 ICntrl=    100127 IOpCl=  0 I1Cent=           0 NGrid=           0
         NMat0=    1 NMatS0=      1 NMatT0=    0 NMatD0=    1 NMtDS0=    0 NMtDT0=    0
 Symmetry not used in FoFCou.
 Leave Link  703 at Sat May 24 05:06:35 2025, MaxMem=  3758096384 cpu:              97.5 elap:              12.3
 (Enter /apps/easybuild-2022/easybuild/software/Compiler/NVHPC/22.11-CUDA-11.7.0/Gaussian/g16c01-CUDA-11.7.0/g16/l716.exe)
 Dipole        = 5.75880130D-01 6.53689078D-01-2.40250389D-01
 Polarizability= 3.71208332D+01 2.75164649D-02 3.21910335D+01
                 2.63338371D+00-1.71217945D-01 2.34885108D+01
 Full mass-weighted force constant matrix:
 Low frequencies ---  -17.8867   -8.8583   -6.5635   -0.0015   -0.0014   -0.0007
 Low frequencies ---   78.3594  272.5409  314.6935
 Diagonal vibrational polarizability:
       10.8824047      15.8279644      13.2783407
 Harmonic frequencies (cm**-1), IR intensities (KM/Mole), Raman scattering
 activities (A**4/AMU), depolarization ratios for plane and unpolarized
 incident light, reduced masses (AMU), force constants (mDyne/A),
 and normal coordinates:
                      1                      2                      3
                      A                      A                      A
 Frequencies --     78.3235               272.5404               314.6928
 Red. masses --     12.5730                 7.0567                10.5058
 Frc consts  --      0.0454                 0.3088                 0.6130
 IR Inten    --      1.7736                 6.9327                 9.4031
  Atom  AN      X      Y      Z        X      Y      Z        X      Y      Z
     1   6     0.00  -0.19   0.08    -0.13   0.06   0.19     0.01  -0.30   0.04
     2   8     0.23  -0.03   0.28    -0.22  -0.02  -0.21     0.31  -0.13  -0.04
     3   6    -0.00  -0.45   0.07    -0.10  -0.03   0.23    -0.04   0.64  -0.02
     4   9     0.04   0.48  -0.04     0.41  -0.01   0.05     0.08  -0.02   0.03
     5   8    -0.27  -0.06  -0.32    -0.09   0.02  -0.11    -0.36  -0.12   0.00
     6   1    -0.24   0.19  -0.34    -0.03  -0.00  -0.77    -0.31   0.27  -0.26
                      4                      5                      6
                      A                      A                      A
 Frequencies --    518.6492               601.4517               788.2574
 Red. masses --      2.8279                 1.5569                 5.1030
 Frc consts  --      0.4482                 0.3318                 1.8682
 IR Inten    --     40.3685               117.7896                39.3119
  Atom  AN      X      Y      Z        X      Y      Z        X      Y      Z
     1   6     0.07  -0.00  -0.12    -0.06  -0.00   0.02     0.18  -0.03   0.38
     2   8    -0.15  -0.12   0.01     0.05   0.06  -0.04     0.02  -0.19  -0.09
     3   6     0.23   0.00  -0.00    -0.11   0.01   0.05    -0.17  -0.00  -0.01
     4   9     0.05   0.01   0.06     0.04  -0.00   0.01    -0.11  -0.02  -0.10
     5   8    -0.12   0.09  -0.05     0.03  -0.06  -0.08     0.09   0.19  -0.09
     6   1    -0.17   0.48   0.78    -0.07  -0.18   0.96     0.10   0.78   0.24
                      7                      8                      9
                      A                      A                      A
 Frequencies --    912.5358              1168.2131              1285.7257
 Red. masses --      8.5831                 2.2002                 7.0267
 Frc consts  --      4.2111                 1.7691                 6.8438
 IR Inten    --     10.0955               277.0496               174.1118
  Atom  AN      X      Y      Z        X      Y      Z        X      Y      Z
     1   6    -0.14   0.10   0.50     0.10   0.10  -0.01     0.11   0.06  -0.03
     2   8    -0.03   0.14  -0.12    -0.04   0.09  -0.00    -0.00  -0.03   0.01
     3   6     0.49   0.02  -0.21    -0.02   0.00   0.06     0.16   0.06   0.54
     4   9    -0.11  -0.01  -0.02    -0.01  -0.00  -0.04    -0.10  -0.03  -0.33
     5   8    -0.09  -0.18  -0.09    -0.01  -0.22   0.01    -0.07   0.02   0.00
     6   1    -0.14  -0.56   0.11     0.07   0.95  -0.05    -0.11  -0.72   0.07
                     10                     11                     12
                      A                      A                      A
 Frequencies --   1417.8648              1863.6095              3784.7312
 Red. masses --      3.9577                11.3806                 1.0642
 Frc consts  --      4.6878                23.2875                 8.9813
 IR Inten    --     81.2501               349.7076               114.9997
  Atom  AN      X      Y      Z        X      Y      Z        X      Y      Z
     1   6     0.35   0.25   0.02    -0.43   0.63  -0.06    -0.00  -0.00  -0.00
     2   8    -0.02  -0.06   0.00     0.27  -0.43   0.04    -0.00   0.00  -0.00
     3   6    -0.14  -0.01  -0.11     0.03   0.01   0.02     0.00   0.00  -0.00
     4   9     0.02   0.01   0.07     0.00   0.00  -0.01    -0.00  -0.00   0.00
     5   8    -0.14  -0.07  -0.01     0.02  -0.07   0.00    -0.06   0.00  -0.01
     6   1    -0.17  -0.85   0.02     0.05   0.39  -0.02     0.99  -0.06   0.09

 -------------------
 - Thermochemistry -
 -------------------
 Temperature   298.150 Kelvin.  Pressure   1.00000 Atm.
 Atom     1 has atomic number  6 and mass  12.00000
 Atom     2 has atomic number  8 and mass  15.99491
 Atom     3 has atomic number  6 and mass  12.00000
 Atom     4 has atomic number  9 and mass  18.99840
 Atom     5 has atomic number  8 and mass  15.99491
 Atom     6 has atomic number  1 and mass   1.00783
 Molecular mass:    75.99606 amu.
 Principal axes and moments of inertia in atomic units:
                           1         2         3
     Eigenvalues --   176.70701 411.98244 532.25862
           X            0.91568  -0.09422  -0.39070
           Y            0.11700   0.99252   0.03488
           Z            0.38449  -0.07765   0.91986
 This molecule is an asymmetric top.
 Rotational symmetry number  1.
 Rotational temperatures (Kelvin)      0.49016     0.21024     0.16273
 Rotational constants (GHZ):          10.21318     4.38063     3.39072
 Zero-point vibrational energy      77796.7 (Joules/Mol)
                                   18.59386 (Kcal/Mol)
 Warning -- explicit consideration of   5 degrees of freedom as
           vibrations may cause significant error
 Vibrational temperatures:    112.69   392.12   452.77   746.22   865.35
          (Kelvin)           1134.13  1312.94  1680.80  1849.87  2039.99
                             2681.32  5445.38
 
 Zero-point correction=                           0.029631 (Hartree/Particle)
 Thermal correction to Energy=                    0.034640
 Thermal correction to Enthalpy=                  0.035585
 Thermal correction to Gibbs Free Energy=         0.001176
 Sum of electronic and zero-point Energies=           -326.972691
 Sum of electronic and thermal Energies=              -326.967682
 Sum of electronic and thermal Enthalpies=            -326.966738
 Sum of electronic and thermal Free Energies=         -327.001147
 
                     E (Thermal)             CV                S
                      KCal/Mol        Cal/Mol-Kelvin    Cal/Mol-Kelvin
 Total                   21.737             15.187             72.419
 Electronic               0.000              0.000              0.000
 Translational            0.889              2.981             38.900
 Rotational               0.889              2.981             25.164
 Vibrational             19.960              9.225              8.355
 Vibration     1          0.600              1.964              3.932
 Vibration     2          0.676              1.724              1.580
 Vibration     3          0.702              1.646              1.338
 Vibration     4          0.874              1.209              0.613
 Vibration     5          0.960              1.029              0.447
                       Q            Log10(Q)             Ln(Q)
 Total Bot       0.287767D+00         -0.540958         -1.245603
 Total V=0       0.122585D+14         13.088437         30.137240
 Vib (Bot)       0.156830D-12        -12.804572        -29.483617
 Vib (Bot)    1  0.263007D+01          0.419967          0.967011
 Vib (Bot)    2  0.708189D+00         -0.149851         -0.345045
 Vib (Bot)    3  0.599235D+00         -0.222403         -0.512102
 Vib (Bot)    4  0.311604D+00         -0.506396         -1.166021
 Vib (Bot)    5  0.247894D+00         -0.605733         -1.394753
 Vib (V=0)       0.668072D+01          0.824824          1.899226
 Vib (V=0)    1  0.317718D+01          0.502041          1.155993
 Vib (V=0)    2  0.136691D+01          0.135740          0.312552
 Vib (V=0)    3  0.128044D+01          0.107358          0.247201
 Vib (V=0)    4  0.108915D+01          0.037088          0.085397
 Vib (V=0)    5  0.105808D+01          0.024518          0.056455
 Electronic      0.100000D+01          0.000000          0.000000
 Translational   0.260400D+08          7.415640         17.075143
 Rotational      0.704650D+05          4.847973         11.162871
 
                                                    Gaussian input prepared by AS
 E
                                                             IR Spectrum
 
     3                                                                1              1   1   1                                       
     7                                                                8              4   2   1        9   7     6  5      32         
     8                                                                6              1   8   6        1   8     0  1      17      7  
     5                                                                4              8   6   8        3   8     1  9      53      8  
 
     X                                                                X              X   X   X        X   X     X  X      XX      X  
     X                                                                X              X   X   X            X     X  X                 
     X                                                                X              X   X   X                  X                    
     X                                                                X              X   X   X                  X                    
     X                                                                X              X   X   X                  X                    
     X                                                                X                  X   X                  X                    
     X                                                                X                  X   X                  X                    
                                                                      X                  X   X                                       
                                                                      X                  X   X                                       
                                                                      X                  X   X                                       
                                                                      X                      X                                       
                                                                      X                      X                                       
                                                                      X                      X                                       
                                                                      X                      X                                       
                                                                      X                      X                                       
                                                                      X                      X                                       
                                                                      X                                                              
                                                                      X                                                              
                                                                      X                                                              
                                                                      X                                                              
 
 -------------------------------------------------------------------
 Center     Atomic                   Forces (Hartrees/Bohr)
 Number     Number              X              Y              Z
 -------------------------------------------------------------------
      1        6          -0.000003714   -0.000003241   -0.000000203
      2        8           0.000005049    0.000002585   -0.000001978
      3        6          -0.000001865   -0.000000387    0.000001744
      4        9           0.000003120   -0.000001933    0.000003535
      5        8           0.000003464    0.000009099   -0.000021868
      6        1          -0.000006054   -0.000006123    0.000018771
 -------------------------------------------------------------------
 Cartesian Forces:  Max     0.000021868 RMS     0.000007791
 Force constants in Cartesian coordinates: 
                1             2             3             4             5 
      1  0.737738D+00
      2 -0.169395D+00  0.870128D+00
      3  0.562864D-01 -0.397381D-01  0.245092D+00
      4 -0.312442D+00  0.328831D+00 -0.298822D-01  0.274608D+00
      5  0.306301D+00 -0.602569D+00  0.487023D-01 -0.349811D+00  0.715849D+00
      6 -0.334672D-01  0.511386D-01 -0.813150D-01  0.329917D-01 -0.569814D-01
      7 -0.183110D+00 -0.292432D-01  0.526961D-01 -0.115682D-01  0.298351D-01
      8 -0.610234D-02 -0.268512D-02  0.119583D-02  0.180847D-01 -0.943420D-02
      9 -0.141128D-01 -0.758356D-02 -0.844189D-01  0.106190D-01 -0.571933D-02
     10 -0.218638D-01 -0.241871D-02 -0.762687D-01 -0.480934D-02 -0.967711D-03
     11  0.298374D-03  0.255568D-02 -0.843323D-02 -0.854652D-03 -0.373304D-03
     12  0.691142D-03  0.183807D-02 -0.202422D-01 -0.148289D-01  0.592182D-02
     13 -0.189635D+00 -0.114344D+00 -0.515591D-03  0.507411D-01  0.720089D-02
     14 -0.724986D-01 -0.269632D+00  0.311397D-02 -0.652652D-02 -0.104494D+00
     15 -0.841279D-02 -0.334402D-02 -0.637864D-01  0.614476D-03  0.766653D-02
     16 -0.306863D-01 -0.134297D-01 -0.231594D-02  0.347101D-02  0.744188D-02
     17 -0.586038D-01  0.220309D-02 -0.484073D-02  0.102771D-01  0.102141D-02
     18 -0.984812D-03 -0.231101D-02  0.467042D-02  0.486050D-03  0.410164D-03
                6             7             8             9            10 
      6  0.355627D-01
      7 -0.107268D-01  0.277389D+00
      8 -0.192096D-02  0.195859D-01  0.275676D-01
      9  0.223693D-01  0.888841D-01  0.457945D-01  0.446868D+00
     10  0.103030D-01 -0.735231D-01 -0.114650D-01 -0.910162D-01  0.105551D+00
     11  0.366150D-02 -0.137253D-01 -0.675159D-02 -0.401854D-01  0.160126D-01
     12  0.131468D-02 -0.125199D+00 -0.451165D-01 -0.403906D+00  0.149377D+00
     13  0.279244D-03 -0.114127D-01 -0.196167D-01  0.675608D-02 -0.468521D-02
     14  0.328290D-02 -0.589329D-02 -0.622572D-02  0.758877D-02 -0.673875D-03
     15  0.282541D-01 -0.353741D-02 -0.145893D-02  0.132216D-01  0.475405D-02
     16  0.620049D-03  0.222477D-02 -0.486621D-03 -0.113022D-02 -0.669086D-03
     17  0.819392D-03 -0.559254D-03 -0.247098D-02  0.105010D-03 -0.487362D-03
     18 -0.618581D-02 -0.211695D-02  0.150604D-02  0.586603D-02  0.285115D-02
               11            12            13            14            15 
     11  0.640604D-02
     12  0.440807D-01  0.423327D+00
     13 -0.149183D-02 -0.101952D-01  0.639521D+00
     14 -0.163180D-02 -0.629517D-02  0.534614D-01  0.431669D+00
     15  0.127779D-02 -0.254549D-03  0.503286D-01 -0.129973D-01  0.422788D-01
     16 -0.239229D-03  0.155322D-03 -0.484528D+00  0.321308D-01 -0.437469D-01
     17 -0.205028D-03 -0.428873D-03  0.747905D-01 -0.496853D-01  0.885595D-02
     18 -0.401311D-03 -0.239111D-03 -0.466531D-01  0.530686D-02 -0.197137D-01
               16            17            18 
     16  0.510188D+00
     17 -0.254172D-01  0.491368D-01
     18  0.464177D-01 -0.451075D-02  0.156021D-01
 FormGI is forming the generalized inverse of G from B-inverse, IUseBI=4.
 Force constants in internal coordinates: 
                1             2             3             4             5 
      1  0.913643D+00
      2  0.331202D-01  0.235873D+00
      3  0.898105D-01  0.128167D-01  0.448416D+00
      4  0.119131D-01  0.324396D-01  0.108409D-01  0.483889D+00
      5 -0.510926D-02 -0.171197D-02  0.146736D-01  0.264839D-05  0.515457D+00
      6  0.102766D-01 -0.777578D-02 -0.340546D-01  0.108262D-01  0.403775D-02
      7  0.293045D-01 -0.785008D-02  0.148108D-01 -0.139169D-01 -0.915942D-02
      8 -0.390523D-01  0.161218D-01  0.197002D-01  0.381093D-02  0.509693D-02
      9 -0.687234D-02  0.580647D-01  0.288250D-03  0.916723D-01  0.876087D-03
     10  0.696372D-02  0.166996D-02  0.380459D-01  0.105915D-02  0.277412D-01
     11  0.202903D-02  0.243907D-02  0.462781D-02  0.653132D-02 -0.822427D-04
     12 -0.533452D-02 -0.265951D-02 -0.140134D-02 -0.613464D-03  0.707225D-03
     13 -0.321246D-02 -0.237549D-02 -0.171970D-02 -0.426716D-02  0.347893D-03
     14  0.320771D-02  0.331197D-02  0.184932D-02  0.512636D-02  0.388414D-03
                6             7             8             9            10 
      6  0.793912D-01
      7 -0.819835D-01  0.174025D+00
      8  0.261559D-02 -0.920326D-01  0.900298D-01
      9  0.327875D-02 -0.543842D-02  0.627797D-02  0.296780D+00
     10  0.900776D-02 -0.324468D-01  0.234071D-01  0.208525D-02  0.161837D+00
     11 -0.227740D-02  0.512143D-02  0.112642D-02  0.240884D-01 -0.741193D-03
     12  0.232562D-02 -0.481437D-02 -0.667030D-03 -0.210903D-01  0.141082D-02
     13 -0.339071D-02  0.279916D-02 -0.336683D-02 -0.187627D-01  0.753640D-03
     14  0.205672D-02 -0.376856D-02  0.550082D-02  0.309324D-01  0.130323D-02
               11            12            13            14 
     11  0.268350D-01
     12 -0.173107D-01  0.178200D-01
     13 -0.245710D-01  0.189829D-01  0.327943D-01
     14  0.229150D-01 -0.187230D-01 -0.149466D-01  0.307087D-01
 Leave Link  716 at Sat May 24 05:06:35 2025, MaxMem=  3758096384 cpu:               0.1 elap:               0.0
 (Enter /apps/easybuild-2022/easybuild/software/Compiler/NVHPC/22.11-CUDA-11.7.0/Gaussian/g16c01-CUDA-11.7.0/g16/l103.exe)

 GradGradGradGradGradGradGradGradGradGradGradGradGradGradGradGradGradGrad
 Berny optimization.
 Red2BG is reusing G-inverse.
 Internal  Forces:  Max     0.000019350 RMS     0.000007956
 Search for a local minimum.
 Step number   1 out of a maximum of    2
 All quantities printed in internal units (Hartrees-Bohrs-Radians)
 Second derivative matrix not updated -- analytic derivatives used.
 The second derivative matrix:
                          R1        R2        R3        R4        R5
           R1           0.91364
           R2           0.03312   0.23587
           R3           0.08981   0.01282   0.44842
           R4           0.01191   0.03244   0.01084   0.48389
           R5          -0.00511  -0.00171   0.01467   0.00000   0.51546
           A1           0.01028  -0.00778  -0.03405   0.01083   0.00404
           A2           0.02930  -0.00785   0.01481  -0.01392  -0.00916
           A3          -0.03905   0.01612   0.01970   0.00381   0.00510
           A4          -0.00687   0.05806   0.00029   0.09167   0.00088
           A5           0.00696   0.00167   0.03805   0.00106   0.02774
           D1           0.00203   0.00244   0.00463   0.00653  -0.00008
           D2          -0.00533  -0.00266  -0.00140  -0.00061   0.00071
           D3          -0.00321  -0.00238  -0.00172  -0.00427   0.00035
           D4           0.00321   0.00331   0.00185   0.00513   0.00039
                          A1        A2        A3        A4        A5
           A1           0.07939
           A2          -0.08198   0.17403
           A3           0.00262  -0.09203   0.09003
           A4           0.00328  -0.00544   0.00628   0.29678
           A5           0.00901  -0.03245   0.02341   0.00209   0.16184
           D1          -0.00228   0.00512   0.00113   0.02409  -0.00074
           D2           0.00233  -0.00481  -0.00067  -0.02109   0.00141
           D3          -0.00339   0.00280  -0.00337  -0.01876   0.00075
           D4           0.00206  -0.00377   0.00550   0.03093   0.00130
                          D1        D2        D3        D4
           D1           0.02684
           D2          -0.01731   0.01782
           D3          -0.02457   0.01898   0.03279
           D4           0.02291  -0.01872  -0.01495   0.03071
 ITU=  0
     Eigenvalues ---    0.00438   0.01633   0.07098   0.07807   0.14096
     Eigenvalues ---    0.20167   0.27081   0.29429   0.43747   0.52141
     Eigenvalues ---    0.53529   0.93583
 Angle between quadratic step and forces=  35.30 degrees.
 Linear search not attempted -- first point.
 Iteration  1 RMS(Cart)=  0.00035655 RMS(Int)=  0.00000020
 Iteration  2 RMS(Cart)=  0.00000018 RMS(Int)=  0.00000000
 ITry= 1 IFail=0 DXMaxC= 9.07D-04 DCOld= 1.00D+10 DXMaxT= 3.00D-01 DXLimC= 3.00D+00 Rises=F
 Variable       Old X    -DE/DX   Delta X   Delta X   Delta X     New X
                                 (Linear)    (Quad)   (Total)
    R1        2.26032   0.00000   0.00000   0.00001   0.00001   2.26033
    R2        2.86312   0.00000   0.00000  -0.00001  -0.00001   2.86311
    R3        2.51136   0.00000   0.00000   0.00001   0.00001   2.51137
    R4        2.44624  -0.00001   0.00000  -0.00002  -0.00002   2.44622
    R5        1.83057  -0.00000   0.00000  -0.00000  -0.00000   1.83057
    A1        2.08330   0.00000   0.00000  -0.00000  -0.00000   2.08330
    A2        2.21044  -0.00001   0.00000  -0.00005  -0.00005   2.21039
    A3        1.98534   0.00000   0.00000   0.00004   0.00004   1.98538
    A4        1.86045  -0.00000   0.00000   0.00007   0.00007   1.86052
    A5        1.89601  -0.00002   0.00000  -0.00010  -0.00010   1.89591
    D1       -1.56283  -0.00000   0.00000  -0.00006  -0.00006  -1.56288
    D2        1.66950   0.00000   0.00000   0.00009   0.00009   1.66959
    D3       -0.00151  -0.00001   0.00000  -0.00089  -0.00089  -0.00240
    D4        3.04149  -0.00002   0.00000  -0.00105  -0.00105   3.04045
         Item               Value     Threshold  Converged?
 Maximum Force            0.000019     0.000450     YES
 RMS     Force            0.000008     0.000300     YES
 Maximum Displacement     0.000907     0.001800     YES
 RMS     Displacement     0.000357     0.001200     YES
 Predicted change in Energy=-1.682556D-08
 Optimization completed.
    -- Stationary point found.
                           ----------------------------
                           !   Optimized Parameters   !
                           ! (Angstroms and Degrees)  !
 --------------------------                            --------------------------
 ! Name  Definition              Value          Derivative Info.                !
 --------------------------------------------------------------------------------
 ! R1    R(1,2)                  1.1961         -DE/DX =    0.0                 !
 ! R2    R(1,3)                  1.5151         -DE/DX =    0.0                 !
 ! R3    R(1,5)                  1.329          -DE/DX =    0.0                 !
 ! R4    R(3,4)                  1.2945         -DE/DX =    0.0                 !
 ! R5    R(5,6)                  0.9687         -DE/DX =    0.0                 !
 ! A1    A(2,1,3)              119.3645         -DE/DX =    0.0                 !
 ! A2    A(2,1,5)              126.6489         -DE/DX =    0.0                 !
 ! A3    A(3,1,5)              113.7519         -DE/DX =    0.0                 !
 ! A4    A(1,3,4)              106.5958         -DE/DX =    0.0                 !
 ! A5    A(1,5,6)              108.6336         -DE/DX =    0.0                 !
 ! D1    D(2,1,3,4)            -89.5433         -DE/DX =    0.0                 !
 ! D2    D(5,1,3,4)             95.6555         -DE/DX =    0.0                 !
 ! D3    D(2,1,5,6)             -0.0866         -DE/DX =    0.0                 !
 ! D4    D(3,1,5,6)            174.2647         -DE/DX =    0.0                 !
 --------------------------------------------------------------------------------
 GradGradGradGradGradGradGradGradGradGradGradGradGradGradGradGradGradGrad

 Leave Link  103 at Sat May 24 05:06:35 2025, MaxMem=  3758096384 cpu:               0.1 elap:               0.0
 (Enter /apps/easybuild-2022/easybuild/software/Compiler/NVHPC/22.11-CUDA-11.7.0/Gaussian/g16c01-CUDA-11.7.0/g16/l9999.exe)

 ----------------------------------------------------------------------

 Electric dipole moment (input orientation):
 (Debye = 10**-18 statcoulomb cm , SI units = C m)
                  (au)            (Debye)         (10**-30 SI)
   Tot        0.903697D+00      0.229697D+01      0.766186D+01
   x          0.575880D+00      0.146374D+01      0.488252D+01
   y          0.653689D+00      0.166151D+01      0.554221D+01
   z         -0.240250D+00     -0.610656D+00     -0.203693D+01

 Dipole polarizability, Alpha (input orientation).
 (esu units = cm**3 , SI units = C**2 m**2 J**-1)
 Alpha(0;0):
               (au)            (10**-24 esu)      (10**-40 SI)
   iso        0.309335D+02      0.458387D+01      0.510024D+01
   aniso      0.127997D+02      0.189672D+01      0.211039D+01
   xx         0.371208D+02      0.550074D+01      0.612040D+01
   yx         0.275165D-01      0.407752D-02      0.453685D-02
   yy         0.321910D+02      0.477022D+01      0.530758D+01
   zx         0.263338D+01      0.390227D+00      0.434186D+00
   zy        -0.171218D+00     -0.253719D-01     -0.282300D-01
   zz         0.234885D+02      0.348064D+01      0.387273D+01

 ----------------------------------------------------------------------

 Dipole orientation:
     6          1.94462667          1.04259086          1.82451985
     8          3.52556960          2.46798758          1.06430615
     6          0.00000000          0.00000000          0.00000000
     9         -1.87707943          1.56863215          0.00786093
     8          1.79460841          0.06242307          4.13183116
     1          3.19623186          0.69182887          5.12696033

 Electric dipole moment (dipole orientation):
 (Debye = 10**-18 statcoulomb cm , SI units = C m)
                  (au)            (Debye)         (10**-30 SI)
   Tot        0.903697D+00      0.229697D+01      0.766186D+01
   x          0.000000D+00      0.000000D+00      0.000000D+00
   y          0.000000D+00      0.000000D+00      0.000000D+00
   z          0.903697D+00      0.229697D+01      0.766186D+01

 Dipole polarizability, Alpha (dipole orientation).
 (esu units = cm**3 , SI units = C**2 m**2 J**-1)
 Alpha(0;0):
               (au)            (10**-24 esu)      (10**-40 SI)
   iso        0.309335D+02      0.458387D+01      0.510024D+01
   aniso      0.127997D+02      0.189672D+01      0.211039D+01
   xx         0.332766D+02      0.493109D+01      0.548658D+01
   yx         0.455234D+01      0.674587D+00      0.750579D+00
   yy         0.267469D+02      0.396348D+01      0.440997D+01
   zx         0.411356D+01      0.609567D+00      0.678235D+00
   zy        -0.193853D+01     -0.287261D+00     -0.319620D+00
   zz         0.327768D+02      0.485703D+01      0.540417D+01

 ----------------------------------------------------------------------
 Unable to Open any file for archive entry.
 1\1\GINC-SPARTAN-BM197\Freq\RM062X\def2TZVPP\C2H1F1O2\AKHALILOV\24-May
 -2025\0\\#P Geom=AllCheck Guess=TCheck SCRF=Check GenChk RM062X/def2TZ
 VPP Freq\\Gaussian input prepared by ASE\\0,1\C,1.515096484,0.,0.\O,2.
 1016263504,-1.0381441725,0.0944576251\C,0.,0.,0.\F,-0.3697314281,-0.12
 22548406,-1.234532266\O,2.0503682021,1.2163887624,0.\H,3.0109952347,1.
 1318203392,0.0917301883\\Version=ES64L-G16RevC.01\HF=-327.0023226\RMSD
 =2.800e-09\RMSF=7.791e-06\ZeroPoint=0.0296312\Thermal=0.0346405\ETot=-
 326.9676821\HTot=-326.966738\GTot=-327.0011465\Dipole=0.5758801,0.6536
 891,-0.2402504\DipoleDeriv=0.9419724,0.1185605,0.038196,0.2576472,2.09
 41175,-0.0320148,0.3161811,-0.0329005,0.3350905,-0.832248,0.2649661,-0
 .0592609,0.1103964,-1.022934,0.0096674,-0.113639,0.0322735,-0.353794,0
 .3712085,0.0235262,0.1595212,-0.0063308,-0.2935883,0.0870939,0.5443128
 ,0.0912577,1.0048953,-0.1791044,-0.0146439,-0.1220499,-0.0720143,0.070
 1747,-0.0854263,-0.6691414,-0.0871696,-0.9816737,-0.6226587,-0.4708447
 ,-0.0123129,-0.3817518,-1.1493976,0.0092243,-0.0482164,-0.011451,-0.34
 95939,0.3208301,0.0784357,-0.0040936,0.0920533,0.3016277,0.0114555,-0.
 0294971,0.0079899,0.3450758\Polar=37.1208332,0.0275165,32.1910335,2.63
 33837,-0.1712179,23.4885108\PG=Unknown\NImag=0\\0.73773779,-0.16939470
 ,0.87012767,0.05628642,-0.03973808,0.24509196,-0.31244220,0.32883058,-
 0.02988225,0.27460762,0.30630102,-0.60256899,0.04870225,-0.34981116,0.
 71584885,-0.03346718,0.05113861,-0.08131499,0.03299167,-0.05698143,0.0
 3556267,-0.18310997,-0.02924316,0.05269606,-0.01156817,0.02983509,-0.0
 1072677,0.27738916,-0.00610234,-0.00268512,0.00119583,0.01808470,-0.00
 943420,-0.00192096,0.01958588,0.02756761,-0.01411278,-0.00758356,-0.08
 441885,0.01061900,-0.00571933,0.02236930,0.08888414,0.04579454,0.44686
 753,-0.02186384,-0.00241871,-0.07626870,-0.00480934,-0.00096771,0.0103
 0299,-0.07352311,-0.01146495,-0.09101622,0.10555060,0.00029837,0.00255
 568,-0.00843323,-0.00085465,-0.00037330,0.00366150,-0.01372527,-0.0067
 5159,-0.04018542,0.01601261,0.00640604,0.00069114,0.00183807,-0.020242
 18,-0.01482894,0.00592182,0.00131468,-0.12519907,-0.04511652,-0.403905
 65,0.14937673,0.04408067,0.42332681,-0.18963546,-0.11434433,-0.0005155
 9,0.05074108,0.00720089,0.00027924,-0.01141268,-0.01961667,0.00675608,
 -0.00468521,-0.00149183,-0.01019519,0.63952051,-0.07249859,-0.26963232
 ,0.00311397,-0.00652652,-0.10449376,0.00328290,-0.00589329,-0.00622572
 ,0.00758877,-0.00067388,-0.00163180,-0.00629517,0.05346145,0.43166886,
 -0.00841279,-0.00334402,-0.06378636,0.00061448,0.00766653,0.02825414,-
 0.00353741,-0.00145893,0.01322163,0.00475405,0.00127779,-0.00025455,0.
 05032857,-0.01299732,0.04227880,-0.03068633,-0.01342968,-0.00231594,0.
 00347101,0.00744188,0.00062005,0.00222477,-0.00048662,-0.00113022,-0.0
 0066909,-0.00023923,0.00015532,-0.48452824,0.03213082,-0.04374690,0.51
 018788,-0.05860377,0.00220309,-0.00484073,0.01027705,0.00102141,0.0008
 1939,-0.00055925,-0.00247098,0.00010501,-0.00048736,-0.00020503,-0.000
 42887,0.07479050,-0.04968526,0.00885595,-0.02541717,0.04913677,-0.0009
 8481,-0.00231101,0.00467042,0.00048605,0.00041016,-0.00618581,-0.00211
 695,0.00150604,0.00586603,0.00285115,-0.00040131,-0.00023911,-0.046653
 12,0.00530686,-0.01971367,0.04641768,-0.00451075,0.01560214\\0.0000037
 1,0.00000324,0.00000020,-0.00000505,-0.00000258,0.00000198,0.00000187,
 0.00000039,-0.00000174,-0.00000312,0.00000193,-0.00000354,-0.00000346,
 -0.00000910,0.00002187,0.00000605,0.00000612,-0.00001877\\\@
 The archive entry for this job was punched.


 ADVERTISING--  HE WHO HAS SOMETHING TO SELL AND GOES AND WHISPERS
                IN A WELL, IS NOT SO APT TO GET THE DOLLARS AS HE
                WHO CLIMBS A TREE AND HOLLERS.

                   -- FROM THE BACK OF A SUGAR PACKET
 Job cpu time:       0 days  0 hours  3 minutes 28.5 seconds.
 Elapsed time:       0 days  0 hours  0 minutes 27.1 seconds.
 File lengths (MBytes):  RWF=     22 Int=      0 D2E=      0 Chk=      3 Scr=      1
 Normal termination of Gaussian 16 at Sat May 24 05:06:35 2025.
done
