5
energy = -437.527037661
C -1.45702600 0.70579800 0.91612700
F -2.34420200 1.65182400 1.14155100
F -1.86038400 -0.41611400 1.47400700
F -0.29812800 1.05955400 1.43047600
F -1.32529100 0.52794000 -0.38141300
