7
energy = -426.8869432750001
C 1.46505800 -0.04232400 -0.06809300
O 2.08187800 -1.05956300 0.05008300
C 0.01617800 0.00697100 0.09975500
F -0.66705300 1.07033200 -0.27368400
F -0.69534500 -1.07635800 0.10817300
O 2.04911300 1.14554400 -0.30352500
H 1.39965300 1.85003500 -0.40420100
7
energy = -426.88693919
C 1.46515400 -0.04211300 0.06796400
O 2.08176800 -1.05908800 -0.05283200
C 0.01542100 0.00701800 -0.09557600
F -0.66649300 1.06996900 0.28185500
F -0.69566700 -1.07666500 -0.10109400
O 2.04959100 1.14569700 0.30200300
H 1.40019600 1.84962500 0.40694100
7
energy = -426.89343530400004
C 1.43450400 -0.00003600 0.00038400
O 2.09426400 -1.00962400 -0.00143600
C 0.00003300 -0.00003800 0.00279500
F -0.73229900 1.07408300 0.00440900
F -0.68231000 -1.10225000 0.00272900
O 1.93099600 1.25109700 0.00054300
H 2.89306000 1.16991700 -0.00099400
