 Entering Gaussian System, Link 0=g16
 Initial command:
 /apps/easybuild-2022/easybuild/software/Compiler/NVHPC/22.11-CUDA-11.7.0/Gaussian/g16c01-CUDA-11.7.0/g16/l1.exe "/tmp/Gau-253456.inp" -scrdir="/tmp/"
 Entering Link 1 = /apps/easybuild-2022/easybuild/software/Compiler/NVHPC/22.11-CUDA-11.7.0/Gaussian/g16c01-CUDA-11.7.0/g16/l1.exe PID=    253466.
  
 Copyright (c) 1988-2019, Gaussian, Inc.  All Rights Reserved.
  
 This is part of the Gaussian(R) 16 program.  It is based on
 the Gaussian(R) 09 system (copyright 2009, Gaussian, Inc.),
 the Gaussian(R) 03 system (copyright 2003, Gaussian, Inc.),
 the Gaussian(R) 98 system (copyright 1998, Gaussian, Inc.),
 the Gaussian(R) 94 system (copyright 1995, Gaussian, Inc.),
 the Gaussian 92(TM) system (copyright 1992, Gaussian, Inc.),
 the Gaussian 90(TM) system (copyright 1990, Gaussian, Inc.),
 the Gaussian 88(TM) system (copyright 1988, Gaussian, Inc.),
 the Gaussian 86(TM) system (copyright 1986, Carnegie Mellon
 University), and the Gaussian 82(TM) system (copyright 1983,
 Carnegie Mellon University). Gaussian is a federally registered
 trademark of Gaussian, Inc.
  
 This software contains proprietary and confidential information,
 including trade secrets, belonging to Gaussian, Inc.
  
 This software is provided under written license and may be
 used, copied, transmitted, or stored only in accord with that
 written license.
  
 The following legend is applicable only to US Government
 contracts under FAR:
  
                    RESTRICTED RIGHTS LEGEND
  
 Use, reproduction and disclosure by the US Government is
 subject to restrictions as set forth in subparagraphs (a)
 and (c) of the Commercial Computer Software - Restricted
 Rights clause in FAR 52.227-19.
  
 Gaussian, Inc.
 340 Quinnipiac St., Bldg. 40, Wallingford CT 06492
  
  
 ---------------------------------------------------------------
 Warning -- This program may not be used in any manner that
 competes with the business of Gaussian, Inc. or will provide
 assistance to any competitor of Gaussian, Inc.  The licensee
 of this program is prohibited from giving any competitor of
 Gaussian, Inc. access to this program.  By using this program,
 the user acknowledges that Gaussian, Inc. is engaged in the
 business of creating and licensing software in the field of
 computational chemistry and represents and warrants to the
 licensee that it is not a competitor of Gaussian, Inc. and that
 it will not use this program in any manner prohibited above.
 ---------------------------------------------------------------
  

 Cite this work as:
 Gaussian 16, Revision C.01,
 M. J. Frisch, G. W. Trucks, H. B. Schlegel, G. E. Scuseria, 
 M. A. Robb, J. R. Cheeseman, G. Scalmani, V. Barone, 
 G. A. Petersson, H. Nakatsuji, X. Li, M. Caricato, A. V. Marenich, 
 J. Bloino, B. G. Janesko, R. Gomperts, B. Mennucci, H. P. Hratchian, 
 J. V. Ortiz, A. F. Izmaylov, J. L. Sonnenberg, D. Williams-Young, 
 F. Ding, F. Lipparini, F. Egidi, J. Goings, B. Peng, A. Petrone, 
 T. Henderson, D. Ranasinghe, V. G. Zakrzewski, J. Gao, N. Rega, 
 G. Zheng, W. Liang, M. Hada, M. Ehara, K. Toyota, R. Fukuda, 
 J. Hasegawa, M. Ishida, T. Nakajima, Y. Honda, O. Kitao, H. Nakai, 
 T. Vreven, K. Throssell, J. A. Montgomery, Jr., J. E. Peralta, 
 F. Ogliaro, M. J. Bearpark, J. J. Heyd, E. N. Brothers, K. N. Kudin, 
 V. N. Staroverov, T. A. Keith, R. Kobayashi, J. Normand, 
 K. Raghavachari, A. P. Rendell, J. C. Burant, S. S. Iyengar, 
 J. Tomasi, M. Cossi, J. M. Millam, M. Klene, C. Adamo, R. Cammi, 
 J. W. Ochterski, R. L. Martin, K. Morokuma, O. Farkas, 
 J. B. Foresman, and D. J. Fox, Gaussian, Inc., Wallingford CT, 2019.
 
 ******************************************
 Gaussian 16:  ES64L-G16RevC.01  3-Jul-2019
                24-May-2025 
 ******************************************
 %mem=28GB
 %chk=1001482381140000000001_well
 %nprocshared=8
 Will use up to    8 processors via shared memory.
 -----------------------------------------------------------------
 #P M062X/Def2TZVPP Symm(None) scf(xqc) pop(None) freq opt(CalcFC)
 -----------------------------------------------------------------
 1/10=4,18=20,19=15,26=3,38=1/1,3;
 2/9=110,12=2,15=3,17=6,18=5,40=1/2;
 3/5=44,7=202,11=2,25=1,30=1,71=2,74=-55,140=1/1,2,3;
 4//1;
 5/5=2,8=3,13=1,38=5/2,8;
 8/6=4,10=90,11=11/1;
 11/6=1,8=1,9=11,15=111,16=1,31=1/1,2,10;
 10/6=1,13=1,31=1/2;
 7/10=1,25=1,30=1/1,2,3,16;
 1/10=4,18=20,19=15,26=3/3(2);
 2/9=110,15=3/2;
 99//99;
 2/9=110,15=3/2;
 3/5=44,7=202,11=2,25=1,30=1,71=1,74=-55/1,2,3;
 4/5=5,16=3,69=1/1;
 5/5=2,8=3,13=1,38=5/2,8;
 7/30=1/1,2,3,16;
 1/18=20,19=15,26=3/3(-5);
 2/9=110,15=3/2;
 99/9=1/99;
 Leave Link    1 at Sat May 24 05:01:29 2025, MaxMem=  3758096384 cpu:               0.1 elap:               0.0
 (Enter /apps/easybuild-2022/easybuild/software/Compiler/NVHPC/22.11-CUDA-11.7.0/Gaussian/g16c01-CUDA-11.7.0/g16/l101.exe)
 ------------------------------
 Gaussian input prepared by ASE
 ------------------------------
 Symbolic Z-matrix:
 Charge =  0 Multiplicity = 1
 C                    -0.0636   -0.7284    0.78033 
 C                    -1.07977   0.42751   0.9726 
 F                    -2.13275   0.35352   0.17587 
 F                    -1.48413   0.33213   2.24216 
 F                    -0.4796    1.59143   0.79892 
 F                    -0.7554   -1.77271   0.53353 
 
 ITRead=  0  0  0  0  0  0
 MicOpt= -1 -1 -1 -1 -1 -1
 NAtoms=      6 NQM=        6 NQMF=       0 NMMI=      0 NMMIF=      0
                NMic=       0 NMicF=      0.
                    Isotopes and Nuclear Properties:
 (Nuclear quadrupole moments (NQMom) in fm**2, nuclear magnetic moments (NMagM)
  in nuclear magnetons)

  Atom         1           2           3           4           5           6
 IAtWgt=          12          12          19          19          19          19
 AtmWgt=  12.0000000  12.0000000  18.9984032  18.9984032  18.9984032  18.9984032
 NucSpn=           0           0           1           1           1           1
 AtZEff=  -0.0000000  -0.0000000  -0.0000000  -0.0000000  -0.0000000  -0.0000000
 NQMom=    0.0000000   0.0000000   0.0000000   0.0000000   0.0000000   0.0000000
 NMagM=    0.0000000   0.0000000   2.6288670   2.6288670   2.6288670   2.6288670
 AtZNuc=   6.0000000   6.0000000   9.0000000   9.0000000   9.0000000   9.0000000
 Leave Link  101 at Sat May 24 05:01:29 2025, MaxMem=  3758096384 cpu:               0.2 elap:               0.2
 (Enter /apps/easybuild-2022/easybuild/software/Compiler/NVHPC/22.11-CUDA-11.7.0/Gaussian/g16c01-CUDA-11.7.0/g16/l103.exe)

 GradGradGradGradGradGradGradGradGradGradGradGradGradGradGradGradGradGrad
 Berny optimization.
 Initialization pass.
                           ----------------------------
                           !    Initial Parameters    !
                           ! (Angstroms and Degrees)  !
 --------------------------                            --------------------------
 ! Name  Definition              Value          Derivative Info.                !
 --------------------------------------------------------------------------------
 ! R1    R(1,2)                  1.551          calculate D2E/DX2 analytically  !
 ! R2    R(1,6)                  1.2768         calculate D2E/DX2 analytically  !
 ! R3    R(2,3)                  1.3225         calculate D2E/DX2 analytically  !
 ! R4    R(2,4)                  1.3358         calculate D2E/DX2 analytically  !
 ! R5    R(2,5)                  1.321          calculate D2E/DX2 analytically  !
 ! A1    A(2,1,6)              106.173          calculate D2E/DX2 analytically  !
 ! A2    A(1,2,3)              113.9075         calculate D2E/DX2 analytically  !
 ! A3    A(1,2,4)              105.2437         calculate D2E/DX2 analytically  !
 ! A4    A(1,2,5)              110.0395         calculate D2E/DX2 analytically  !
 ! A5    A(3,2,4)              109.1206         calculate D2E/DX2 analytically  !
 ! A6    A(3,2,5)              109.3792         calculate D2E/DX2 analytically  !
 ! A7    A(4,2,5)              108.9897         calculate D2E/DX2 analytically  !
 ! D1    D(6,1,2,3)            -36.4221         calculate D2E/DX2 analytically  !
 ! D2    D(6,1,2,4)             83.0612         calculate D2E/DX2 analytically  !
 ! D3    D(6,1,2,5)           -159.655          calculate D2E/DX2 analytically  !
 --------------------------------------------------------------------------------
 Trust Radius=3.00D-01 FncErr=1.00D-07 GrdErr=1.00D-06 EigMax=2.50D+02 EigMin=1.00D-04
 Number of steps in this run=     25 maximum allowed number of steps=    100.
 GradGradGradGradGradGradGradGradGradGradGradGradGradGradGradGradGradGrad

 Leave Link  103 at Sat May 24 05:01:29 2025, MaxMem=  3758096384 cpu:               0.1 elap:               0.0
 (Enter /apps/easybuild-2022/easybuild/software/Compiler/NVHPC/22.11-CUDA-11.7.0/Gaussian/g16c01-CUDA-11.7.0/g16/l202.exe)
                          Input orientation:                          
 ---------------------------------------------------------------------
 Center     Atomic      Atomic             Coordinates (Angstroms)
 Number     Number       Type             X           Y           Z
 ---------------------------------------------------------------------
      1          6           0       -0.063596   -0.728402    0.780326
      2          6           0       -1.079774    0.427511    0.972603
      3          9           0       -2.132754    0.353523    0.175865
      4          9           0       -1.484130    0.332129    2.242161
      5          9           0       -0.479599    1.591431    0.798918
      6          9           0       -0.755403   -1.772714    0.533529
 ---------------------------------------------------------------------
                    Distance matrix (angstroms):
                    1          2          3          4          5
     1  C    0.000000
     2  C    1.551039   0.000000
     3  F    2.411918   1.322510   0.000000
     4  F    2.297739   1.335807   2.165814   0.000000
     5  F    2.356911   1.321017   2.157205   2.162839   0.000000
     6  F    1.276751   2.266935   2.558496   2.807282   3.385849
                    6
     6  F    0.000000
 Symmetry turned off by external request.
 Stoichiometry    C2F4
 Rotational constants (GHZ):           5.7292463           3.0177817           2.9682832
 Leave Link  202 at Sat May 24 05:01:29 2025, MaxMem=  3758096384 cpu:               0.0 elap:               0.0
 (Enter /apps/easybuild-2022/easybuild/software/Compiler/NVHPC/22.11-CUDA-11.7.0/Gaussian/g16c01-CUDA-11.7.0/g16/l301.exe)
 Standard basis: def2TZVPP (5D, 7F)
 Ernie: Thresh=  0.10000D-02 Tol=  0.10000D-05 Strict=F.
   186 basis functions,   306 primitive gaussians,   216 cartesian basis functions
    24 alpha electrons       24 beta electrons
       nuclear repulsion energy       252.4683043602 Hartrees.
 IExCor= 4336 DFT=T Ex+Corr=M062X ExCW=0 ScaHFX=  0.540000
 ScaDFX=  1.000000  1.000000  1.000000  1.000000 ScalE2=  1.000000  1.000000
 IRadAn=      5 IRanWt=     -1 IRanGd=            0 ICorTp=0 IEmpDi=  4
 NAtoms=    6 NActive=    6 NUniq=    6 SFac= 1.00D+00 NAtFMM=   60 NAOKFM=F Big=F
 Integral buffers will be    131072 words long.
 Raffenetti 2 integral format.
 Two-electron integral symmetry is turned off.
 Leave Link  301 at Sat May 24 05:01:29 2025, MaxMem=  3758096384 cpu:               0.0 elap:               0.0
 (Enter /apps/easybuild-2022/easybuild/software/Compiler/NVHPC/22.11-CUDA-11.7.0/Gaussian/g16c01-CUDA-11.7.0/g16/l302.exe)
 NPDir=0 NMtPBC=     1 NCelOv=     1 NCel=       1 NClECP=     1 NCelD=      1
         NCelK=      1 NCelE2=     1 NClLst=     1 CellRange=     0.0.
 One-electron integrals computed using PRISM.
   1 Symmetry operations used in ECPInt.
 ECPInt:  NShTT=    2211 NPrTT=    7392 LenC2=    2162 LenP2D=    5853.
 LDataN:  DoStor=T MaxTD1= 6 Len=  172
 NBasis=   186 RedAO= T EigKep=  7.54D-04  NBF=   186
 NBsUse=   186 1.00D-06 EigRej= -1.00D+00 NBFU=   186
 Precomputing XC quadrature grid using
 IXCGrd= 4 IRadAn=           5 IRanWt=          -1 IRanGd=           0 AccXCQ= 0.00D+00.
 Generated NRdTot=       0 NPtTot=           0 NUsed=           0 NTot=          32
 NSgBfM=   215   215   215   215   215 MxSgAt=     6 MxSgA2=     6.
 Leave Link  302 at Sat May 24 05:01:29 2025, MaxMem=  3758096384 cpu:               0.7 elap:               0.1
 (Enter /apps/easybuild-2022/easybuild/software/Compiler/NVHPC/22.11-CUDA-11.7.0/Gaussian/g16c01-CUDA-11.7.0/g16/l303.exe)
 DipDrv:  MaxL=1.
 Leave Link  303 at Sat May 24 05:01:29 2025, MaxMem=  3758096384 cpu:               0.1 elap:               0.0
 (Enter /apps/easybuild-2022/easybuild/software/Compiler/NVHPC/22.11-CUDA-11.7.0/Gaussian/g16c01-CUDA-11.7.0/g16/l401.exe)
 ExpMin= 9.52D-02 ExpMax= 3.55D+04 ExpMxC= 1.21D+03 IAcc=3 IRadAn=         5 AccDes= 0.00D+00
 Harris functional with IExCor= 1009 and IRadAn=       5 diagonalized for initial guess.
 HarFok:  IExCor= 1009 AccDes= 0.00D+00 IRadAn=         5 IDoV= 1 UseB2=F ITyADJ=14
 ICtDFT=  3500011 ScaDFX=  1.000000  1.000000  1.000000  1.000000
 FoFCou: FMM=F IPFlag=           0 FMFlag=      100000 FMFlg1=           0
         NFxFlg=           0 DoJE=T BraDBF=F KetDBF=T FulRan=T
         wScrn=  0.000000 ICntrl=       500 IOpCl=  0 I1Cent=   200000004 NGrid=           0
         NMat0=    1 NMatS0=      1 NMatT0=    0 NMatD0=    1 NMtDS0=    0 NMtDT0=    0
 Symmetry not used in FoFCou.
 Harris En= -475.189472390007    
 JPrj=0 DoOrth=F DoCkMO=F.
 Leave Link  401 at Sat May 24 05:01:29 2025, MaxMem=  3758096384 cpu:               1.7 elap:               0.3
 (Enter /apps/easybuild-2022/easybuild/software/Compiler/NVHPC/22.11-CUDA-11.7.0/Gaussian/g16c01-CUDA-11.7.0/g16/l502.exe)
 Keep R1 ints in memory in canonical form, NReq=159612620.
 FoFCou: FMM=F IPFlag=           0 FMFlag=           0 FMFlg1=           0
         NFxFlg=           0 DoJE=F BraDBF=F KetDBF=F FulRan=T
         wScrn=  0.000000 ICntrl=       600 IOpCl=  0 I1Cent=           0 NGrid=           0
         NMat0=    1 NMatS0=  17391 NMatT0=    0 NMatD0=    1 NMtDS0=    0 NMtDT0=    0
 Symmetry not used in FoFCou.
 Two-electron integral symmetry not used.
 Closed shell SCF:
 Using DIIS extrapolation, IDIIS=  1040.
 NGot=  3758096384 LenX=  3606767638 LenY=  3606720541
 Requested convergence on RMS density matrix=1.00D-08 within  32 cycles.
 Requested convergence on MAX density matrix=1.00D-06.
 Requested convergence on             energy=1.00D-06.
 No special actions if energy rises.
 Integral accuracy reduced to 1.0D-05 until final iterations.

 Cycle   1  Pass 0  IDiag  1:
 E= -475.448310128176    
 DIIS: error= 2.01D-02 at cycle   1 NSaved=   1.
 NSaved= 1 IEnMin= 1 EnMin= -475.448310128176     IErMin= 1 ErrMin= 2.01D-02
 ErrMax= 2.01D-02  0.00D+00 EMaxC= 1.00D-01 BMatC= 1.30D-01 BMatP= 1.30D-01
 IDIUse=3 WtCom= 7.99D-01 WtEn= 2.01D-01
 Coeff-Com:  0.100D+01
 Coeff-En:   0.100D+01
 Coeff:      0.100D+01
 Gap=     0.261 Goal=   None    Shift=    0.000
 GapD=    0.261 DampG=1.000 DampE=0.500 DampFc=0.5000 IDamp=-1.
 Damping current iteration by 5.00D-01
 RMSDP=1.70D-03 MaxDP=3.65D-02              OVMax= 6.49D-02

 Cycle   2  Pass 0  IDiag  1:
 E= -475.473028764818     Delta-E=       -0.024718636642 Rises=F Damp=T
 DIIS: error= 8.25D-03 at cycle   2 NSaved=   2.
 NSaved= 2 IEnMin= 2 EnMin= -475.473028764818     IErMin= 2 ErrMin= 8.25D-03
 ErrMax= 8.25D-03  0.00D+00 EMaxC= 1.00D-01 BMatC= 1.71D-02 BMatP= 1.30D-01
 IDIUse=3 WtCom= 9.17D-01 WtEn= 8.25D-02
 Coeff-Com: -0.132D+00 0.113D+01
 Coeff-En:   0.000D+00 0.100D+01
 Coeff:     -0.121D+00 0.112D+01
 Gap=     0.259 Goal=   None    Shift=    0.000
 RMSDP=6.99D-04 MaxDP=1.85D-02 DE=-2.47D-02 OVMax= 4.88D-02

 Cycle   3  Pass 0  IDiag  1:
 E= -475.499149221049     Delta-E=       -0.026120456230 Rises=F Damp=F
 DIIS: error= 3.89D-03 at cycle   3 NSaved=   3.
 NSaved= 3 IEnMin= 3 EnMin= -475.499149221049     IErMin= 3 ErrMin= 3.89D-03
 ErrMax= 3.89D-03  0.00D+00 EMaxC= 1.00D-01 BMatC= 4.01D-03 BMatP= 1.71D-02
 IDIUse=3 WtCom= 9.61D-01 WtEn= 3.89D-02
 Coeff-Com: -0.175D+00 0.358D+00 0.817D+00
 Coeff-En:   0.000D+00 0.000D+00 0.100D+01
 Coeff:     -0.168D+00 0.344D+00 0.824D+00
 Gap=     0.263 Goal=   None    Shift=    0.000
 RMSDP=1.66D-04 MaxDP=4.70D-03 DE=-2.61D-02 OVMax= 8.08D-03

 Cycle   4  Pass 0  IDiag  1:
 E= -475.501359907738     Delta-E=       -0.002210686689 Rises=F Damp=F
 DIIS: error= 5.58D-04 at cycle   4 NSaved=   4.
 NSaved= 4 IEnMin= 4 EnMin= -475.501359907738     IErMin= 4 ErrMin= 5.58D-04
 ErrMax= 5.58D-04  0.00D+00 EMaxC= 1.00D-01 BMatC= 1.09D-04 BMatP= 4.01D-03
 IDIUse=3 WtCom= 9.94D-01 WtEn= 5.58D-03
 Coeff-Com: -0.613D-01 0.118D+00 0.318D+00 0.625D+00
 Coeff-En:   0.000D+00 0.000D+00 0.000D+00 0.100D+01
 Coeff:     -0.610D-01 0.118D+00 0.316D+00 0.627D+00
 Gap=     0.263 Goal=   None    Shift=    0.000
 RMSDP=3.62D-05 MaxDP=1.50D-03 DE=-2.21D-03 OVMax= 3.66D-03

 Cycle   5  Pass 0  IDiag  1:
 E= -475.501426350072     Delta-E=       -0.000066442335 Rises=F Damp=F
 DIIS: error= 2.81D-04 at cycle   5 NSaved=   5.
 NSaved= 5 IEnMin= 5 EnMin= -475.501426350072     IErMin= 5 ErrMin= 2.81D-04
 ErrMax= 2.81D-04  0.00D+00 EMaxC= 1.00D-01 BMatC= 1.99D-05 BMatP= 1.09D-04
 IDIUse=3 WtCom= 9.97D-01 WtEn= 2.81D-03
 Coeff-Com: -0.124D-01 0.204D-01 0.687D-01 0.316D+00 0.608D+00
 Coeff-En:   0.000D+00 0.000D+00 0.000D+00 0.102D-01 0.990D+00
 Coeff:     -0.124D-01 0.203D-01 0.685D-01 0.315D+00 0.609D+00
 Gap=     0.263 Goal=   None    Shift=    0.000
 RMSDP=1.09D-05 MaxDP=4.40D-04 DE=-6.64D-05 OVMax= 6.37D-04

 Cycle   6  Pass 0  IDiag  1:
 E= -475.501437397098     Delta-E=       -0.000011047025 Rises=F Damp=F
 DIIS: error= 3.82D-05 at cycle   6 NSaved=   6.
 NSaved= 6 IEnMin= 6 EnMin= -475.501437397098     IErMin= 6 ErrMin= 3.82D-05
 ErrMax= 3.82D-05  0.00D+00 EMaxC= 1.00D-01 BMatC= 4.34D-07 BMatP= 1.99D-05
 IDIUse=1 WtCom= 1.00D+00 WtEn= 0.00D+00
 Coeff-Com:  0.265D-02-0.557D-02-0.168D-01 0.498D-02 0.632D-01 0.952D+00
 Coeff:      0.265D-02-0.557D-02-0.168D-01 0.498D-02 0.632D-01 0.952D+00
 Gap=     0.263 Goal=   None    Shift=    0.000
 RMSDP=4.35D-06 MaxDP=1.05D-04 DE=-1.10D-05 OVMax= 3.10D-04

 Initial convergence to 1.0D-05 achieved.  Increase integral accuracy.
 Cycle   7  Pass 1  IDiag  1:
 E= -475.501407681487     Delta-E=        0.000029715611 Rises=F Damp=F
 DIIS: error= 3.26D-05 at cycle   1 NSaved=   1.
 NSaved= 1 IEnMin= 1 EnMin= -475.501407681487     IErMin= 1 ErrMin= 3.26D-05
 ErrMax= 3.26D-05  0.00D+00 EMaxC= 1.00D-01 BMatC= 4.93D-07 BMatP= 4.93D-07
 IDIUse=1 WtCom= 1.00D+00 WtEn= 0.00D+00
 Coeff-Com:  0.100D+01
 Coeff:      0.100D+01
 Gap=     0.263 Goal=   None    Shift=    0.000
 RMSDP=4.35D-06 MaxDP=1.05D-04 DE= 2.97D-05 OVMax= 2.55D-04

 Cycle   8  Pass 1  IDiag  1:
 E= -475.501408041826     Delta-E=       -0.000000360339 Rises=F Damp=F
 DIIS: error= 1.64D-05 at cycle   2 NSaved=   2.
 NSaved= 2 IEnMin= 2 EnMin= -475.501408041826     IErMin= 2 ErrMin= 1.64D-05
 ErrMax= 1.64D-05  0.00D+00 EMaxC= 1.00D-01 BMatC= 8.04D-08 BMatP= 4.93D-07
 IDIUse=1 WtCom= 1.00D+00 WtEn= 0.00D+00
 Coeff-Com:  0.191D+00 0.809D+00
 Coeff:      0.191D+00 0.809D+00
 Gap=     0.263 Goal=   None    Shift=    0.000
 RMSDP=1.35D-06 MaxDP=4.56D-05 DE=-3.60D-07 OVMax= 8.82D-05

 Cycle   9  Pass 1  IDiag  1:
 E= -475.501408074292     Delta-E=       -0.000000032466 Rises=F Damp=F
 DIIS: error= 1.16D-05 at cycle   3 NSaved=   3.
 NSaved= 3 IEnMin= 3 EnMin= -475.501408074292     IErMin= 3 ErrMin= 1.16D-05
 ErrMax= 1.16D-05  0.00D+00 EMaxC= 1.00D-01 BMatC= 4.02D-08 BMatP= 8.04D-08
 IDIUse=1 WtCom= 1.00D+00 WtEn= 0.00D+00
 Coeff-Com: -0.289D-01 0.407D+00 0.621D+00
 Coeff:     -0.289D-01 0.407D+00 0.621D+00
 Gap=     0.263 Goal=   None    Shift=    0.000
 RMSDP=6.28D-07 MaxDP=1.96D-05 DE=-3.25D-08 OVMax= 3.08D-05

 Cycle  10  Pass 1  IDiag  1:
 E= -475.501408096746     Delta-E=       -0.000000022453 Rises=F Damp=F
 DIIS: error= 2.12D-06 at cycle   4 NSaved=   4.
 NSaved= 4 IEnMin= 4 EnMin= -475.501408096746     IErMin= 4 ErrMin= 2.12D-06
 ErrMax= 2.12D-06  0.00D+00 EMaxC= 1.00D-01 BMatC= 1.32D-09 BMatP= 4.02D-08
 IDIUse=1 WtCom= 1.00D+00 WtEn= 0.00D+00
 Coeff-Com: -0.185D-01 0.137D+00 0.256D+00 0.625D+00
 Coeff:     -0.185D-01 0.137D+00 0.256D+00 0.625D+00
 Gap=     0.263 Goal=   None    Shift=    0.000
 RMSDP=1.46D-07 MaxDP=6.68D-06 DE=-2.25D-08 OVMax= 1.24D-05

 Cycle  11  Pass 1  IDiag  1:
 E= -475.501408097801     Delta-E=       -0.000000001055 Rises=F Damp=F
 DIIS: error= 4.68D-07 at cycle   5 NSaved=   5.
 NSaved= 5 IEnMin= 5 EnMin= -475.501408097801     IErMin= 5 ErrMin= 4.68D-07
 ErrMax= 4.68D-07  0.00D+00 EMaxC= 1.00D-01 BMatC= 8.24D-11 BMatP= 1.32D-09
 IDIUse=1 WtCom= 1.00D+00 WtEn= 0.00D+00
 Coeff-Com:  0.255D-02-0.421D-01-0.688D-01 0.949D-01 0.101D+01
 Coeff:      0.255D-02-0.421D-01-0.688D-01 0.949D-01 0.101D+01
 Gap=     0.263 Goal=   None    Shift=    0.000
 RMSDP=6.83D-08 MaxDP=3.02D-06 DE=-1.05D-09 OVMax= 3.27D-06

 Cycle  12  Pass 1  IDiag  1:
 E= -475.501408097916     Delta-E=       -0.000000000116 Rises=F Damp=F
 DIIS: error= 1.64D-07 at cycle   6 NSaved=   6.
 NSaved= 6 IEnMin= 6 EnMin= -475.501408097916     IErMin= 6 ErrMin= 1.64D-07
 ErrMax= 1.64D-07  0.00D+00 EMaxC= 1.00D-01 BMatC= 7.16D-12 BMatP= 8.24D-11
 IDIUse=1 WtCom= 1.00D+00 WtEn= 0.00D+00
 Coeff-Com:  0.177D-02-0.220D-01-0.392D-01 0.140D-01 0.349D+00 0.696D+00
 Coeff:      0.177D-02-0.220D-01-0.392D-01 0.140D-01 0.349D+00 0.696D+00
 Gap=     0.263 Goal=   None    Shift=    0.000
 RMSDP=1.21D-08 MaxDP=4.77D-07 DE=-1.16D-10 OVMax= 8.30D-07

 Cycle  13  Pass 1  IDiag  1:
 E= -475.501408097904     Delta-E=        0.000000000012 Rises=F Damp=F
 DIIS: error= 5.10D-08 at cycle   7 NSaved=   7.
 NSaved= 7 IEnMin= 6 EnMin= -475.501408097916     IErMin= 7 ErrMin= 5.10D-08
 ErrMax= 5.10D-08  0.00D+00 EMaxC= 1.00D-01 BMatC= 1.16D-12 BMatP= 7.16D-12
 IDIUse=1 WtCom= 1.00D+00 WtEn= 0.00D+00
 Coeff-Com:  0.228D-03-0.135D-02-0.405D-02-0.702D-02-0.393D-01 0.259D+00
 Coeff-Com:  0.792D+00
 Coeff:      0.228D-03-0.135D-02-0.405D-02-0.702D-02-0.393D-01 0.259D+00
 Coeff:      0.792D+00
 Gap=     0.263 Goal=   None    Shift=    0.000
 RMSDP=4.67D-09 MaxDP=1.44D-07 DE= 1.16D-11 OVMax= 2.80D-07

 SCF Done:  E(RM062X) =  -475.501408098     A.U. after   13 cycles
            NFock= 13  Conv=0.47D-08     -V/T= 2.0034
 KE= 4.738724051225D+02 PE=-1.633883390343D+03 EE= 4.320412727624D+02
 Leave Link  502 at Sat May 24 05:01:34 2025, MaxMem=  3758096384 cpu:              22.7 elap:               4.3
 (Enter /apps/easybuild-2022/easybuild/software/Compiler/NVHPC/22.11-CUDA-11.7.0/Gaussian/g16c01-CUDA-11.7.0/g16/l508.exe)
 QCSCF skips out because SCF is already converged.
 Leave Link  508 at Sat May 24 05:01:34 2025, MaxMem=  3758096384 cpu:               0.1 elap:               0.0
 (Enter /apps/easybuild-2022/easybuild/software/Compiler/NVHPC/22.11-CUDA-11.7.0/Gaussian/g16c01-CUDA-11.7.0/g16/l801.exe)
 DoSCS=F DFT=T ScalE2(SS,OS)=  1.000000  1.000000
 Range of M.O.s used for correlation:     1   186
 NBasis=   186 NAE=    24 NBE=    24 NFC=     0 NFV=     0
 NROrb=    186 NOA=    24 NOB=    24 NVA=   162 NVB=   162

 **** Warning!!: The largest alpha MO coefficient is  0.15902773D+02

 Leave Link  801 at Sat May 24 05:01:34 2025, MaxMem=  3758096384 cpu:               0.1 elap:               0.0
 (Enter /apps/easybuild-2022/easybuild/software/Compiler/NVHPC/22.11-CUDA-11.7.0/Gaussian/g16c01-CUDA-11.7.0/g16/l1101.exe)
 Using compressed storage, NAtomX=     6.
 Will process      7 centers per pass.
   1 Symmetry operations used in ECPInt.
 ECPInt:  NShTT=    2211 NPrTT=    7392 LenC2=    2162 LenP2D=    5853.
 LDataN:  DoStor=T MaxTD1= 7 Len=  274
 Leave Link 1101 at Sat May 24 05:01:34 2025, MaxMem=  3758096384 cpu:               0.7 elap:               0.1
 (Enter /apps/easybuild-2022/easybuild/software/Compiler/NVHPC/22.11-CUDA-11.7.0/Gaussian/g16c01-CUDA-11.7.0/g16/l1102.exe)
 Symmetrizing basis deriv contribution to polar:
 IMax=3 JMax=2 DiffMx= 0.00D+00
 Leave Link 1102 at Sat May 24 05:01:34 2025, MaxMem=  3758096384 cpu:               0.1 elap:               0.0
 (Enter /apps/easybuild-2022/easybuild/software/Compiler/NVHPC/22.11-CUDA-11.7.0/Gaussian/g16c01-CUDA-11.7.0/g16/l1110.exe)
 Forming Gx(P) for the SCF density, NAtomX=     6.
 Integral derivatives from FoFJK, PRISM(SPDF).
 Do as many integral derivatives as possible in FoFJK.
 G2DrvN: MDV=    3758095630.
 G2DrvN: will do     7 centers at a time, making    1 passes.
 Calling FoFCou, ICntrl=  3107 FMM=F I1Cent=   0 AccDes= 0.00D+00.
 FoFJK:  IHMeth= 1 ICntrl=    3107 DoSepK=F KAlg= 0 I1Cent=           0 FoldK=F
 IRaf=         0 NMat=       1 IRICut=       1 DoRegI=T DoRafI=F ISym2E= 0 IDoP0=0 IntGTp=1.
 FoFCou: FMM=F IPFlag=           0 FMFlag=      100000 FMFlg1=           0
         NFxFlg=           0 DoJE=F BraDBF=F KetDBF=F FulRan=T
         wScrn=  0.000000 ICntrl=      3107 IOpCl=  0 I1Cent=           0 NGrid=           0
         NMat0=    1 NMatS0=      1 NMatT0=    0 NMatD0=    1 NMtDS0=    0 NMtDT0=    0
 Symmetry not used in FoFCou.
 End of G2Drv F.D. properties file   721 does not exist.
 End of G2Drv F.D. properties file   722 does not exist.
 End of G2Drv F.D. properties file   788 does not exist.
 Leave Link 1110 at Sat May 24 05:01:40 2025, MaxMem=  3758096384 cpu:              46.6 elap:               5.9
 (Enter /apps/easybuild-2022/easybuild/software/Compiler/NVHPC/22.11-CUDA-11.7.0/Gaussian/g16c01-CUDA-11.7.0/g16/l1002.exe)
 Minotr:  Closed shell wavefunction.
          IDoAtm=111111
          Direct CPHF calculation.
          Differentiating once with respect to nuclear coordinates.
          Requested convergence is 1.0D-08 RMS, and 1.0D-07 maximum.
          Secondary convergence is 1.0D-12 RMS, and 1.0D-12 maximum.
          NewPWx=T KeepS1=F KeepF1=F KeepIn=T MapXYZ=F SortEE=F KeepMc=T.
         1803 words used for storage of precomputed grid.
 Keep R1 ints in memory in canonical form, NReq=159590575.
 FoFCou: FMM=F IPFlag=           0 FMFlag=           0 FMFlg1=           0
         NFxFlg=           0 DoJE=F BraDBF=F KetDBF=F FulRan=T
         wScrn=  0.000000 ICntrl=       600 IOpCl=  0 I1Cent=           0 NGrid=           0
         NMat0=    1 NMatS0=  17391 NMatT0=    0 NMatD0=    1 NMtDS0=    0 NMtDT0=    0
 Symmetry not used in FoFCou.
 Two-electron integral symmetry not used.
          MDV=    3758096384 using IRadAn=       1.
          Solving linear equations simultaneously, MaxMat=       0.
          There are    21 degrees of freedom in the 1st order CPHF.  IDoFFX=6 NUNeed=     0.
     15 vectors produced by pass  0 Test12= 1.85D-14 4.76D-09 XBig12= 1.19D-01 1.92D-01.
 AX will form    15 AO Fock derivatives at one time.
     15 vectors produced by pass  1 Test12= 1.85D-14 4.76D-09 XBig12= 1.39D-02 4.50D-02.
     15 vectors produced by pass  2 Test12= 1.85D-14 4.76D-09 XBig12= 7.99D-04 8.29D-03.
     15 vectors produced by pass  3 Test12= 1.85D-14 4.76D-09 XBig12= 2.19D-05 1.09D-03.
     15 vectors produced by pass  4 Test12= 1.85D-14 4.76D-09 XBig12= 3.17D-07 1.26D-04.
     15 vectors produced by pass  5 Test12= 1.85D-14 4.76D-09 XBig12= 3.72D-09 9.56D-06.
     15 vectors produced by pass  6 Test12= 1.85D-14 4.76D-09 XBig12= 3.50D-11 9.61D-07.
      9 vectors produced by pass  7 Test12= 1.85D-14 4.76D-09 XBig12= 1.98D-13 7.67D-08.
      1 vectors produced by pass  8 Test12= 1.85D-14 4.76D-09 XBig12= 1.07D-15 5.27D-09.
 InvSVY:  IOpt=1 It=  1 EMax= 1.67D-15
 Solved reduced A of dimension   115 with    15 vectors.
 End of Minotr F.D. properties file   721 does not exist.
 End of Minotr F.D. properties file   722 does not exist.
 End of Minotr F.D. properties file   788 does not exist.
 Leave Link 1002 at Sat May 24 05:01:49 2025, MaxMem=  3758096384 cpu:              66.0 elap:               8.7
 (Enter /apps/easybuild-2022/easybuild/software/Compiler/NVHPC/22.11-CUDA-11.7.0/Gaussian/g16c01-CUDA-11.7.0/g16/l701.exe)
 ... and contract with generalized density number  0.
 Compute integral second derivatives.
   1 Symmetry operations used in ECPInt.
 ECPInt:  NShTT=    2211 NPrTT=    7392 LenC2=    2162 LenP2D=    5853.
 LDataN:  DoStor=T MaxTD1= 8 Len=  415
 Leave Link  701 at Sat May 24 05:01:49 2025, MaxMem=  3758096384 cpu:               1.1 elap:               0.3
 (Enter /apps/easybuild-2022/easybuild/software/Compiler/NVHPC/22.11-CUDA-11.7.0/Gaussian/g16c01-CUDA-11.7.0/g16/l702.exe)
 L702 exits ... SP integral derivatives will be done elsewhere.
 Leave Link  702 at Sat May 24 05:01:49 2025, MaxMem=  3758096384 cpu:               0.1 elap:               0.0
 (Enter /apps/easybuild-2022/easybuild/software/Compiler/NVHPC/22.11-CUDA-11.7.0/Gaussian/g16c01-CUDA-11.7.0/g16/l703.exe)
 Integral derivatives from FoFJK, PRISM(SPDF).
 Compute integral second derivatives, UseDBF=F ICtDFT=           0.
 Calling FoFJK, ICntrl=    100127 FMM=F ISym2X=0 I1Cent= 0 IOpClX= 0 NMat=1 NMatS=1 NMatT=0.
 FoFJK:  IHMeth= 1 ICntrl=  100127 DoSepK=F KAlg= 0 I1Cent=           0 FoldK=F
 IRaf=         0 NMat=       1 IRICut=       1 DoRegI=T DoRafI=F ISym2E= 0 IDoP0=0 IntGTp=1.
 FoFCou: FMM=F IPFlag=           0 FMFlag=      100000 FMFlg1=         800
         NFxFlg=           0 DoJE=F BraDBF=F KetDBF=F FulRan=T
         wScrn=  0.000000 ICntrl=    100127 IOpCl=  0 I1Cent=           0 NGrid=           0
         NMat0=    1 NMatS0=      1 NMatT0=    0 NMatD0=    1 NMtDS0=    0 NMtDT0=    0
 Symmetry not used in FoFCou.
 Leave Link  703 at Sat May 24 05:02:08 2025, MaxMem=  3758096384 cpu:             129.8 elap:              18.7
 (Enter /apps/easybuild-2022/easybuild/software/Compiler/NVHPC/22.11-CUDA-11.7.0/Gaussian/g16c01-CUDA-11.7.0/g16/l716.exe)
 Dipole        =-1.87072878D-01-2.14317759D-01-1.35187645D-01
 Polarizability= 0.00000000D+00 0.00000000D+00 0.00000000D+00
                 0.00000000D+00 0.00000000D+00 0.00000000D+00
 -------------------------------------------------------------------
 Center     Atomic                   Forces (Hartrees/Bohr)
 Number     Number              X              Y              Z
 -------------------------------------------------------------------
      1        6           0.012395158    0.003831039    0.001601247
      2        6           0.002084381   -0.004749530    0.002870460
      3        9          -0.004536560    0.001822200   -0.003015033
      4        9          -0.001290460    0.001136518    0.001260457
      5        9          -0.001230573    0.000544325   -0.001172173
      6        9          -0.007421946   -0.002584553   -0.001544958
 -------------------------------------------------------------------
 Cartesian Forces:  Max     0.012395158 RMS     0.004155964
 Force constants in Cartesian coordinates: 
                1             2             3             4             5 
      1  0.357557D+00
      2  0.126015D+00  0.460378D+00
      3  0.467826D-01  0.921806D-01  0.311569D-01
      4 -0.126932D+00  0.988671D-01  0.114015D-01  0.606630D+00
      5  0.385732D-01 -0.107481D+00 -0.169429D-01 -0.382917D-03  0.624195D+00
      6  0.914403D-03 -0.124327D-01 -0.585751D-02  0.180076D-01  0.137933D-01
      7 -0.405286D-01 -0.953778D-02 -0.159641D-01 -0.255929D+00  0.212563D-01
      8  0.241083D-01  0.132113D-02  0.638204D-02  0.737319D-02 -0.817200D-01
      9 -0.179121D-01 -0.238490D-02 -0.377769D-02 -0.116130D+00  0.418567D-02
     10 -0.319279D-02 -0.624185D-02  0.153169D-01 -0.114705D+00  0.892268D-02
     11  0.790621D-02  0.703730D-02 -0.817404D-02  0.119885D-01 -0.772626D-01
     12  0.169955D-01  0.215324D-02 -0.154934D-01  0.860547D-01 -0.131091D-01
     13  0.723614D-02  0.871258D-02 -0.150976D-02 -0.114200D+00 -0.874794D-01
     14 -0.291372D-01 -0.274705D-01  0.157289D-02 -0.714476D-01 -0.304469D+00
     15 -0.907026D-03  0.890254D-03  0.545654D-02  0.109852D-01  0.213016D-01
     16 -0.194140D+00 -0.217815D+00 -0.560271D-01  0.513547D-02  0.191102D-01
     17 -0.167466D+00 -0.333785D+00 -0.750187D-01 -0.463983D-01 -0.532614D-01
     18 -0.458733D-01 -0.804065D-01 -0.114848D-01 -0.103189D-01 -0.922866D-02
                6             7             8             9            10 
      6  0.506733D+00
      7 -0.123504D+00  0.307552D+00
      8  0.599367D-02  0.243450D-01  0.761087D-01
      9 -0.146191D+00  0.184909D+00  0.944606D-02  0.211854D+00
     10  0.943833D-01  0.186557D-01 -0.226495D-02 -0.406247D-01  0.103852D+00
     11 -0.240216D-01 -0.284417D-02  0.127894D-01  0.435643D-02  0.156230D-01
     12 -0.276678D+00 -0.241793D-01  0.152445D-03 -0.711548D-01 -0.101719D+00
     13  0.797837D-02 -0.428227D-01 -0.538789D-01 -0.169430D-01 -0.762783D-02
     14  0.277542D-01 -0.378071D-01 -0.131197D-01 -0.162959D-01 -0.254239D-01
     15 -0.730889D-01 -0.209232D-01 -0.257131D-01  0.745251D-02  0.297356D-01
     16  0.222033D-02  0.130719D-01  0.317266D-03  0.670139D-02  0.301725D-02
     17 -0.110868D-01  0.458782D-02  0.462053D-02  0.692642D-03  0.938505D-02
     18 -0.491830D-02 -0.338009D-03  0.373890D-02  0.181678D-02  0.290794D-02
               11            12            13            14            15 
     11  0.686879D-01
     12 -0.221149D-01  0.391637D+00
     13 -0.306078D-01  0.269158D-01  0.156057D+00
     14 -0.109444D-01  0.378884D-01  0.157521D+00  0.373719D+00
     15  0.526870D-01 -0.243524D-01 -0.190419D-01 -0.486445D-01  0.850287D-01
     16 -0.206571D-02 -0.406770D-02  0.135704D-02  0.629451D-02  0.151345D-03
     17 -0.307585D-03 -0.497010D-02  0.573218D-02 -0.177149D-01 -0.521342D-03
     18 -0.273290D-02 -0.395817D-02  0.260053D-02 -0.227510D-02 -0.496451D-03
               16            17            18 
     16  0.171558D+00
     17  0.194159D+00  0.400448D+00
     18  0.510217D-01  0.909042D-01  0.190410D-01
 FormGI is forming the generalized inverse of G from B-inverse, IUseBI=4.
 Force constants in internal coordinates: 
                1             2             3             4             5 
      1  0.237559D+00
      2  0.270868D-01  0.530613D+00
      3  0.127060D-01  0.115900D-01  0.452269D+00
      4  0.137345D-01  0.953585D-02  0.561561D-01  0.425847D+00
      5  0.143664D-01  0.738860D-02  0.555356D-01  0.575790D-01  0.463447D+00
      6  0.523022D-01  0.788236D-01 -0.235673D-01  0.119858D-02  0.294521D-01
      7  0.144623D-01 -0.112394D-01  0.146194D-01 -0.272120D-01 -0.371470D-01
      8 -0.335953D-02  0.870061D-02 -0.279908D-01  0.227579D-01 -0.266408D-01
      9  0.193577D-01  0.217455D-01 -0.356635D-01 -0.258696D-01  0.217969D-01
     10 -0.583775D-02 -0.968500D-02  0.289415D-01  0.231974D-01 -0.141850D-01
     11 -0.174862D-01 -0.412920D-02  0.304386D-01 -0.137907D-01  0.282373D-01
     12 -0.757966D-02 -0.528530D-02 -0.131102D-01  0.253277D-01  0.282051D-01
     13  0.599575D-04  0.566840D-02 -0.106923D-02 -0.266239D-01  0.263934D-01
     14 -0.119991D-02 -0.681373D-02  0.242188D-01  0.167834D-02 -0.296725D-01
     15 -0.237060D-02  0.253488D-02 -0.242369D-01  0.311479D-01 -0.459109D-03
                6             7             8             9            10 
      6  0.378935D+00
      7 -0.255700D-01  0.176821D+00
      8 -0.227658D-02  0.222619D-01  0.144210D+00
      9  0.471629D-01 -0.160796D-01  0.184098D-01  0.189637D+00
     10 -0.578494D-02 -0.700875D-01 -0.805047D-01 -0.344788D-01  0.165523D+00
     11 -0.734593D-02 -0.833225D-01 -0.307502D-01 -0.879843D-01  0.126624D-01
     12 -0.603215D-02 -0.333848D-01 -0.746758D-01 -0.709588D-01  0.974835D-02
     13  0.493677D-02 -0.128292D-01 -0.235353D-02  0.205512D-01 -0.559459D-01
     14 -0.181054D-01  0.153629D-01  0.678727D-02 -0.187291D-01  0.548308D-01
     15 -0.310616D-02 -0.195143D-01  0.769573D-02  0.194632D-02  0.485928D-02
               11            12            13            14            15 
     11  0.173704D+00
     12  0.105215D-01  0.168350D+00
     13  0.513781D-01 -0.441576D-02  0.502705D-01
     14 -0.404994D-03 -0.607722D-01 -0.273665D-01  0.532676D-01
     15 -0.485281D-01  0.605871D-01 -0.236786D-01 -0.235942D-01  0.527265D-01
 Leave Link  716 at Sat May 24 05:02:08 2025, MaxMem=  3758096384 cpu:               0.1 elap:               0.1
 (Enter /apps/easybuild-2022/easybuild/software/Compiler/NVHPC/22.11-CUDA-11.7.0/Gaussian/g16c01-CUDA-11.7.0/g16/l103.exe)

 GradGradGradGradGradGradGradGradGradGradGradGradGradGradGradGradGradGrad
 Berny optimization.
 Red2BG is reusing G-inverse.
 Internal  Forces:  Max     0.011390756 RMS     0.003973969
 Search for a local minimum.
 Step number   1 out of a maximum of   25
 All quantities printed in internal units (Hartrees-Bohrs-Radians)
 RMS Force = .39740D-02 SwitMx=.10000D-02 MixMth= 1
 Mixed Optimization -- RFO/linear search
 Second derivative matrix not updated -- analytic derivatives used.
 The second derivative matrix:
                          R1        R2        R3        R4        R5
           R1           0.23756
           R2           0.02709   0.53061
           R3           0.01271   0.01159   0.45227
           R4           0.01373   0.00954   0.05616   0.42585
           R5           0.01437   0.00739   0.05554   0.05758   0.46345
           A1           0.05230   0.07882  -0.02357   0.00120   0.02945
           A2           0.01446  -0.01124   0.01462  -0.02721  -0.03715
           A3          -0.00336   0.00870  -0.02799   0.02276  -0.02664
           A4           0.01936   0.02175  -0.03566  -0.02587   0.02180
           A5          -0.00584  -0.00969   0.02894   0.02320  -0.01419
           A6          -0.01749  -0.00413   0.03044  -0.01379   0.02824
           A7          -0.00758  -0.00529  -0.01311   0.02533   0.02821
           D1           0.00006   0.00567  -0.00107  -0.02662   0.02639
           D2          -0.00120  -0.00681   0.02422   0.00168  -0.02967
           D3          -0.00237   0.00253  -0.02424   0.03115  -0.00046
                          A1        A2        A3        A4        A5
           A1           0.37893
           A2          -0.02557   0.17682
           A3          -0.00228   0.02226   0.14421
           A4           0.04716  -0.01608   0.01841   0.18964
           A5          -0.00578  -0.07009  -0.08050  -0.03448   0.16552
           A6          -0.00735  -0.08332  -0.03075  -0.08798   0.01266
           A7          -0.00603  -0.03338  -0.07468  -0.07096   0.00975
           D1           0.00494  -0.01283  -0.00235   0.02055  -0.05595
           D2          -0.01811   0.01536   0.00679  -0.01873   0.05483
           D3          -0.00311  -0.01951   0.00770   0.00195   0.00486
                          A6        A7        D1        D2        D3
           A6           0.17370
           A7           0.01052   0.16835
           D1           0.05138  -0.00442   0.05027
           D2          -0.00040  -0.06077  -0.02737   0.05327
           D3          -0.04853   0.06059  -0.02368  -0.02359   0.05273
 ITU=  0
     Eigenvalues ---    0.00089   0.10585   0.17051   0.20872   0.22277
     Eigenvalues ---    0.23496   0.33806   0.36819   0.40294   0.44802
     Eigenvalues ---    0.56799   0.59430
 RFO step:  Lambda=-8.26978051D-04 EMin= 8.89901489D-04
 Linear search not attempted -- first point.
 Iteration  1 RMS(Cart)=  0.06311248 RMS(Int)=  0.00516264
 Iteration  2 RMS(Cart)=  0.00461472 RMS(Int)=  0.00001700
 Iteration  3 RMS(Cart)=  0.00002122 RMS(Int)=  0.00000623
 Iteration  4 RMS(Cart)=  0.00000000 RMS(Int)=  0.00000623
 ITry= 1 IFail=0 DXMaxC= 1.58D-01 DCOld= 1.00D+10 DXMaxT= 3.00D-01 DXLimC= 3.00D+00 Rises=F
 Variable       Old X    -DE/DX   Delta X   Delta X   Delta X     New X
                                 (Linear)    (Quad)   (Total)
    R1        2.93104   0.00232   0.00000   0.01353   0.01353   2.94457
    R2        2.41271   0.00643   0.00000   0.01490   0.01490   2.42761
    R3        2.49918   0.00533   0.00000   0.01067   0.01067   2.50986
    R4        2.52431   0.00151   0.00000  -0.00074  -0.00074   2.52357
    R5        2.49636   0.00007   0.00000   0.00308   0.00308   2.49944
    A1        1.85307  -0.01139   0.00000  -0.02693  -0.02693   1.82614
    A2        1.98806   0.00245   0.00000   0.01685   0.01684   2.00490
    A3        1.83685   0.00263   0.00000  -0.00077  -0.00078   1.83607
    A4        1.92055   0.00052   0.00000   0.00034   0.00034   1.92089
    A5        1.90451  -0.00144   0.00000  -0.00624  -0.00625   1.89826
    A6        1.90903  -0.00327   0.00000  -0.01313  -0.01313   1.89590
    A7        1.90223  -0.00080   0.00000   0.00313   0.00313   1.90536
    D1       -0.63568  -0.00064   0.00000   0.15651   0.15650  -0.47919
    D2        1.44969   0.00071   0.00000   0.15782   0.15783   1.60752
    D3       -2.78651   0.00147   0.00000   0.16124   0.16124  -2.62527
         Item               Value     Threshold  Converged?
 Maximum Force            0.011391     0.000450     NO 
 RMS     Force            0.003974     0.000300     NO 
 Maximum Displacement     0.158412     0.001800     NO 
 RMS     Displacement     0.063707     0.001200     NO 
 Predicted change in Energy=-4.453920D-04
 Lowest energy point so far.  Saving SCF results.
 GradGradGradGradGradGradGradGradGradGradGradGradGradGradGradGradGradGrad

 Leave Link  103 at Sat May 24 05:02:08 2025, MaxMem=  3758096384 cpu:               0.1 elap:               0.0
 (Enter /apps/easybuild-2022/easybuild/software/Compiler/NVHPC/22.11-CUDA-11.7.0/Gaussian/g16c01-CUDA-11.7.0/g16/l202.exe)
                          Input orientation:                          
 ---------------------------------------------------------------------
 Center     Atomic      Atomic             Coordinates (Angstroms)
 Number     Number       Type             X           Y           Z
 ---------------------------------------------------------------------
      1          6           0       -0.054421   -0.747304    0.847495
      2          6           0       -1.078461    0.418687    0.988196
      3          9           0       -2.138871    0.329806    0.193440
      4          9           0       -1.488553    0.373136    2.258269
      5          9           0       -0.480129    1.577202    0.766301
      6          9           0       -0.754821   -1.748048    0.449701
 ---------------------------------------------------------------------
                    Distance matrix (angstroms):
                    1          2          3          4          5
     1  C    0.000000
     2  C    1.558201   0.000000
     3  F    2.435751   1.328159   0.000000
     4  F    2.302694   1.335416   2.165250   0.000000
     5  F    2.364561   1.322647   2.153042   2.166255   0.000000
     6  F    1.284636   2.255983   2.509729   2.882482   3.351564
                    6
     6  F    0.000000
 Symmetry turned off by external request.
 Stoichiometry    C2F4
 Rotational constants (GHZ):           5.6739187           3.0215862           2.9725380
 Leave Link  202 at Sat May 24 05:02:08 2025, MaxMem=  3758096384 cpu:               0.1 elap:               0.0
 (Enter /apps/easybuild-2022/easybuild/software/Compiler/NVHPC/22.11-CUDA-11.7.0/Gaussian/g16c01-CUDA-11.7.0/g16/l301.exe)
 Standard basis: def2TZVPP (5D, 7F)
 Ernie: Thresh=  0.10000D-02 Tol=  0.10000D-05 Strict=F.
   186 basis functions,   306 primitive gaussians,   216 cartesian basis functions
    24 alpha electrons       24 beta electrons
       nuclear repulsion energy       252.1104939223 Hartrees.
 IExCor= 4336 DFT=T Ex+Corr=M062X ExCW=0 ScaHFX=  0.540000
 ScaDFX=  1.000000  1.000000  1.000000  1.000000 ScalE2=  1.000000  1.000000
 IRadAn=      5 IRanWt=     -1 IRanGd=            0 ICorTp=0 IEmpDi=  4
 NAtoms=    6 NActive=    6 NUniq=    6 SFac= 1.00D+00 NAtFMM=   60 NAOKFM=F Big=F
 Integral buffers will be    131072 words long.
 Raffenetti 2 integral format.
 Two-electron integral symmetry is turned off.
 Leave Link  301 at Sat May 24 05:02:08 2025, MaxMem=  3758096384 cpu:               0.1 elap:               0.1
 (Enter /apps/easybuild-2022/easybuild/software/Compiler/NVHPC/22.11-CUDA-11.7.0/Gaussian/g16c01-CUDA-11.7.0/g16/l302.exe)
 NPDir=0 NMtPBC=     1 NCelOv=     1 NCel=       1 NClECP=     1 NCelD=      1
         NCelK=      1 NCelE2=     1 NClLst=     1 CellRange=     0.0.
 One-electron integrals computed using PRISM.
   1 Symmetry operations used in ECPInt.
 ECPInt:  NShTT=    2211 NPrTT=    7392 LenC2=    2160 LenP2D=    5844.
 LDataN:  DoStor=T MaxTD1= 6 Len=  172
 NBasis=   186 RedAO= T EigKep=  7.77D-04  NBF=   186
 NBsUse=   186 1.00D-06 EigRej= -1.00D+00 NBFU=   186
 Precomputing XC quadrature grid using
 IXCGrd= 4 IRadAn=           5 IRanWt=          -1 IRanGd=           0 AccXCQ= 0.00D+00.
 Generated NRdTot=       0 NPtTot=           0 NUsed=           0 NTot=          32
 NSgBfM=   215   215   215   215   215 MxSgAt=     6 MxSgA2=     6.
 Leave Link  302 at Sat May 24 05:02:08 2025, MaxMem=  3758096384 cpu:               0.7 elap:               0.3
 (Enter /apps/easybuild-2022/easybuild/software/Compiler/NVHPC/22.11-CUDA-11.7.0/Gaussian/g16c01-CUDA-11.7.0/g16/l303.exe)
 DipDrv:  MaxL=1.
 Leave Link  303 at Sat May 24 05:02:08 2025, MaxMem=  3758096384 cpu:               0.1 elap:               0.0
 (Enter /apps/easybuild-2022/easybuild/software/Compiler/NVHPC/22.11-CUDA-11.7.0/Gaussian/g16c01-CUDA-11.7.0/g16/l401.exe)
 Initial guess from the checkpoint file:  "1001482381140000000001_well.chk"
 B after Tr=    -0.009280    0.007679   -0.019175
         Rot=    0.999997   -0.000745   -0.002328   -0.000454 Ang=  -0.28 deg.
 Guess basis will be translated and rotated to current coordinates.
 JPrj=2 DoOrth=T DoCkMO=T.
 Generating alternative initial guess.
 ExpMin= 9.52D-02 ExpMax= 3.55D+04 ExpMxC= 1.21D+03 IAcc=3 IRadAn=         5 AccDes= 0.00D+00
 Harris functional with IExCor= 1009 and IRadAn=       5 diagonalized for initial guess.
 HarFok:  IExCor= 1009 AccDes= 0.00D+00 IRadAn=         5 IDoV= 1 UseB2=F ITyADJ=14
 ICtDFT=  3500011 ScaDFX=  1.000000  1.000000  1.000000  1.000000
 FoFCou: FMM=F IPFlag=           0 FMFlag=      100000 FMFlg1=           0
         NFxFlg=           0 DoJE=T BraDBF=F KetDBF=T FulRan=T
         wScrn=  0.000000 ICntrl=       500 IOpCl=  0 I1Cent=   200000004 NGrid=           0
         NMat0=    1 NMatS0=      1 NMatT0=    0 NMatD0=    1 NMtDS0=    0 NMtDT0=    0
 Symmetry not used in FoFCou.
 Harris En= -475.190431946095    
 Leave Link  401 at Sat May 24 05:02:09 2025, MaxMem=  3758096384 cpu:               2.1 elap:               0.4
 (Enter /apps/easybuild-2022/easybuild/software/Compiler/NVHPC/22.11-CUDA-11.7.0/Gaussian/g16c01-CUDA-11.7.0/g16/l502.exe)
 Keep R1 ints in memory in canonical form, NReq=159612620.
 FoFCou: FMM=F IPFlag=           0 FMFlag=           0 FMFlg1=           0
         NFxFlg=           0 DoJE=F BraDBF=F KetDBF=F FulRan=T
         wScrn=  0.000000 ICntrl=       600 IOpCl=  0 I1Cent=           0 NGrid=           0
         NMat0=    1 NMatS0=  17391 NMatT0=    0 NMatD0=    1 NMtDS0=    0 NMtDT0=    0
 Symmetry not used in FoFCou.
 Two-electron integral symmetry not used.
 Closed shell SCF:
 Using DIIS extrapolation, IDIIS=  1040.
 NGot=  3758096384 LenX=  3606767638 LenY=  3606720541
 Requested convergence on RMS density matrix=1.00D-08 within  32 cycles.
 Requested convergence on MAX density matrix=1.00D-06.
 Requested convergence on             energy=1.00D-06.
 No special actions if energy rises.
 Integral accuracy reduced to 1.0D-05 until final iterations.

 Cycle   1  Pass 0  IDiag  1:
 E= -475.490572205056    
 DIIS: error= 5.34D-03 at cycle   1 NSaved=   1.
 NSaved= 1 IEnMin= 1 EnMin= -475.490572205056     IErMin= 1 ErrMin= 5.34D-03
 ErrMax= 5.34D-03  0.00D+00 EMaxC= 1.00D-01 BMatC= 6.77D-03 BMatP= 6.77D-03
 IDIUse=3 WtCom= 9.47D-01 WtEn= 5.34D-02
 Coeff-Com:  0.100D+01
 Coeff-En:   0.100D+01
 Coeff:      0.100D+01
 Gap=     1.115 Goal=   None    Shift=    0.000
 GapD=    1.115 DampG=2.000 DampE=1.000 DampFc=2.0000 IDamp=-1.
 RMSDP=4.27D-04 MaxDP=1.03D-02              OVMax= 3.43D-02

 Cycle   2  Pass 0  IDiag  1:
 E= -475.500812979130     Delta-E=       -0.010240774073 Rises=F Damp=F
 DIIS: error= 1.68D-03 at cycle   2 NSaved=   2.
 NSaved= 2 IEnMin= 2 EnMin= -475.500812979130     IErMin= 2 ErrMin= 1.68D-03
 ErrMax= 1.68D-03  0.00D+00 EMaxC= 1.00D-01 BMatC= 4.19D-04 BMatP= 6.77D-03
 IDIUse=3 WtCom= 9.83D-01 WtEn= 1.68D-02
 Coeff-Com: -0.139D+00 0.114D+01
 Coeff-En:   0.000D+00 0.100D+01
 Coeff:     -0.136D+00 0.114D+01
 Gap=     0.266 Goal=   None    Shift=    0.000
 RMSDP=1.50D-04 MaxDP=3.44D-03 DE=-1.02D-02 OVMax= 1.94D-02

 Cycle   3  Pass 0  IDiag  1:
 E= -475.501602086225     Delta-E=       -0.000789107095 Rises=F Damp=F
 DIIS: error= 9.18D-04 at cycle   3 NSaved=   3.
 NSaved= 3 IEnMin= 3 EnMin= -475.501602086225     IErMin= 3 ErrMin= 9.18D-04
 ErrMax= 9.18D-04  0.00D+00 EMaxC= 1.00D-01 BMatC= 2.60D-04 BMatP= 4.19D-04
 IDIUse=3 WtCom= 9.91D-01 WtEn= 9.18D-03
 Coeff-Com: -0.107D+00 0.551D+00 0.556D+00
 Coeff-En:   0.000D+00 0.000D+00 0.100D+01
 Coeff:     -0.106D+00 0.546D+00 0.560D+00
 Gap=     0.267 Goal=   None    Shift=    0.000
 RMSDP=4.95D-05 MaxDP=1.90D-03 DE=-7.89D-04 OVMax= 6.01D-03

 Cycle   4  Pass 0  IDiag  1:
 E= -475.501795958929     Delta-E=       -0.000193872705 Rises=F Damp=F
 DIIS: error= 3.72D-04 at cycle   4 NSaved=   4.
 NSaved= 4 IEnMin= 4 EnMin= -475.501795958929     IErMin= 4 ErrMin= 3.72D-04
 ErrMax= 3.72D-04  0.00D+00 EMaxC= 1.00D-01 BMatC= 2.04D-05 BMatP= 2.60D-04
 IDIUse=3 WtCom= 9.96D-01 WtEn= 3.72D-03
 Coeff-Com:  0.175D-01-0.160D+00 0.117D+00 0.103D+01
 Coeff-En:   0.000D+00 0.000D+00 0.000D+00 0.100D+01
 Coeff:      0.174D-01-0.159D+00 0.116D+00 0.103D+01
 Gap=     0.267 Goal=   None    Shift=    0.000
 RMSDP=4.34D-05 MaxDP=1.18D-03 DE=-1.94D-04 OVMax= 7.82D-03

 Cycle   5  Pass 0  IDiag  1:
 E= -475.501854156902     Delta-E=       -0.000058197973 Rises=F Damp=F
 DIIS: error= 1.57D-04 at cycle   5 NSaved=   5.
 NSaved= 5 IEnMin= 5 EnMin= -475.501854156902     IErMin= 5 ErrMin= 1.57D-04
 ErrMax= 1.57D-04  0.00D+00 EMaxC= 1.00D-01 BMatC= 2.08D-06 BMatP= 2.04D-05
 IDIUse=3 WtCom= 9.98D-01 WtEn= 1.57D-03
 Coeff-Com:  0.921D-02-0.429D-01-0.908D-01-0.119D+00 0.124D+01
 Coeff-En:   0.000D+00 0.000D+00 0.000D+00 0.000D+00 0.100D+01
 Coeff:      0.920D-02-0.428D-01-0.907D-01-0.119D+00 0.124D+01
 Gap=     0.267 Goal=   None    Shift=    0.000
 RMSDP=2.64D-05 MaxDP=7.48D-04 DE=-5.82D-05 OVMax= 4.92D-03

 Cycle   6  Pass 0  IDiag  1:
 E= -475.501868328195     Delta-E=       -0.000014171294 Rises=F Damp=F
 DIIS: error= 4.89D-05 at cycle   6 NSaved=   6.
 NSaved= 6 IEnMin= 6 EnMin= -475.501868328195     IErMin= 6 ErrMin= 4.89D-05
 ErrMax= 4.89D-05  0.00D+00 EMaxC= 1.00D-01 BMatC= 4.62D-07 BMatP= 2.08D-06
 IDIUse=1 WtCom= 1.00D+00 WtEn= 0.00D+00
 Coeff-Com: -0.105D-02 0.243D-01-0.470D-01-0.267D+00 0.333D+00 0.958D+00
 Coeff:     -0.105D-02 0.243D-01-0.470D-01-0.267D+00 0.333D+00 0.958D+00
 Gap=     0.267 Goal=   None    Shift=    0.000
 RMSDP=1.22D-05 MaxDP=3.26D-04 DE=-1.42D-05 OVMax= 2.27D-03

 Cycle   7  Pass 0  IDiag  1:
 E= -475.501870681074     Delta-E=       -0.000002352878 Rises=F Damp=F
 DIIS: error= 1.62D-05 at cycle   7 NSaved=   7.
 NSaved= 7 IEnMin= 7 EnMin= -475.501870681074     IErMin= 7 ErrMin= 1.62D-05
 ErrMax= 1.62D-05  0.00D+00 EMaxC= 1.00D-01 BMatC= 1.07D-07 BMatP= 4.62D-07
 IDIUse=1 WtCom= 1.00D+00 WtEn= 0.00D+00
 Coeff-Com: -0.186D-02 0.186D-01-0.836D-02-0.112D+00-0.111D-01 0.424D+00
 Coeff-Com:  0.692D+00
 Coeff:     -0.186D-02 0.186D-01-0.836D-02-0.112D+00-0.111D-01 0.424D+00
 Coeff:      0.692D+00
 Gap=     0.267 Goal=   None    Shift=    0.000
 RMSDP=2.96D-06 MaxDP=7.08D-05 DE=-2.35D-06 OVMax= 5.24D-04

 Initial convergence to 1.0D-05 achieved.  Increase integral accuracy.
 Cycle   8  Pass 1  IDiag  1:
 E= -475.501840581680     Delta-E=        0.000030099394 Rises=F Damp=F
 DIIS: error= 2.57D-05 at cycle   1 NSaved=   1.
 NSaved= 1 IEnMin= 1 EnMin= -475.501840581680     IErMin= 1 ErrMin= 2.57D-05
 ErrMax= 2.57D-05  0.00D+00 EMaxC= 1.00D-01 BMatC= 3.77D-07 BMatP= 3.77D-07
 IDIUse=1 WtCom= 1.00D+00 WtEn= 0.00D+00
 Coeff-Com:  0.100D+01
 Coeff:      0.100D+01
 Gap=     0.267 Goal=   None    Shift=    0.000
 RMSDP=2.96D-06 MaxDP=7.08D-05 DE= 3.01D-05 OVMax= 2.44D-04

 Cycle   9  Pass 1  IDiag  1:
 E= -475.501840916784     Delta-E=       -0.000000335105 Rises=F Damp=F
 DIIS: error= 6.40D-06 at cycle   2 NSaved=   2.
 NSaved= 2 IEnMin= 2 EnMin= -475.501840916784     IErMin= 2 ErrMin= 6.40D-06
 ErrMax= 6.40D-06  0.00D+00 EMaxC= 1.00D-01 BMatC= 1.58D-08 BMatP= 3.77D-07
 IDIUse=1 WtCom= 1.00D+00 WtEn= 0.00D+00
 Coeff-Com: -0.445D-02 0.100D+01
 Coeff:     -0.445D-02 0.100D+01
 Gap=     0.267 Goal=   None    Shift=    0.000
 RMSDP=1.71D-06 MaxDP=8.15D-05 DE=-3.35D-07 OVMax= 1.27D-04

 Cycle  10  Pass 1  IDiag  1:
 E= -475.501840938427     Delta-E=       -0.000000021643 Rises=F Damp=F
 DIIS: error= 6.56D-06 at cycle   3 NSaved=   3.
 NSaved= 3 IEnMin= 3 EnMin= -475.501840938427     IErMin= 2 ErrMin= 6.40D-06
 ErrMax= 6.56D-06  0.00D+00 EMaxC= 1.00D-01 BMatC= 1.57D-08 BMatP= 1.58D-08
 IDIUse=1 WtCom= 1.00D+00 WtEn= 0.00D+00
 Coeff-Com: -0.425D-01 0.520D+00 0.523D+00
 Coeff:     -0.425D-01 0.520D+00 0.523D+00
 Gap=     0.267 Goal=   None    Shift=    0.000
 RMSDP=4.01D-07 MaxDP=9.77D-06 DE=-2.16D-08 OVMax= 4.24D-05

 Cycle  11  Pass 1  IDiag  1:
 E= -475.501840950197     Delta-E=       -0.000000011770 Rises=F Damp=F
 DIIS: error= 2.23D-06 at cycle   4 NSaved=   4.
 NSaved= 4 IEnMin= 4 EnMin= -475.501840950197     IErMin= 4 ErrMin= 2.23D-06
 ErrMax= 2.23D-06  0.00D+00 EMaxC= 1.00D-01 BMatC= 5.93D-10 BMatP= 1.57D-08
 IDIUse=1 WtCom= 1.00D+00 WtEn= 0.00D+00
 Coeff-Com:  0.995D-02-0.248D+00-0.140D+00 0.138D+01
 Coeff:      0.995D-02-0.248D+00-0.140D+00 0.138D+01
 Gap=     0.267 Goal=   None    Shift=    0.000
 RMSDP=4.66D-07 MaxDP=1.16D-05 DE=-1.18D-08 OVMax= 8.05D-05

 Cycle  12  Pass 1  IDiag  1:
 E= -475.501840954650     Delta-E=       -0.000000004453 Rises=F Damp=F
 DIIS: error= 1.04D-06 at cycle   5 NSaved=   5.
 NSaved= 5 IEnMin= 5 EnMin= -475.501840954650     IErMin= 5 ErrMin= 1.04D-06
 ErrMax= 1.04D-06  0.00D+00 EMaxC= 1.00D-01 BMatC= 1.21D-10 BMatP= 5.93D-10
 IDIUse=1 WtCom= 1.00D+00 WtEn= 0.00D+00
 Coeff-Com:  0.709D-02-0.105D+00-0.943D-01 0.196D+00 0.996D+00
 Coeff:      0.709D-02-0.105D+00-0.943D-01 0.196D+00 0.996D+00
 Gap=     0.267 Goal=   None    Shift=    0.000
 RMSDP=1.86D-07 MaxDP=4.78D-06 DE=-4.45D-09 OVMax= 3.42D-05

 Cycle  13  Pass 1  IDiag  1:
 E= -475.501840955370     Delta-E=       -0.000000000719 Rises=F Damp=F
 DIIS: error= 4.28D-07 at cycle   6 NSaved=   6.
 NSaved= 6 IEnMin= 6 EnMin= -475.501840955370     IErMin= 6 ErrMin= 4.28D-07
 ErrMax= 4.28D-07  0.00D+00 EMaxC= 1.00D-01 BMatC= 3.72D-11 BMatP= 1.21D-10
 IDIUse=1 WtCom= 1.00D+00 WtEn= 0.00D+00
 Coeff-Com:  0.970D-04 0.199D-01-0.121D-02-0.264D+00 0.369D+00 0.876D+00
 Coeff:      0.970D-04 0.199D-01-0.121D-02-0.264D+00 0.369D+00 0.876D+00
 Gap=     0.267 Goal=   None    Shift=    0.000
 RMSDP=9.34D-08 MaxDP=2.44D-06 DE=-7.19D-10 OVMax= 1.69D-05

 Cycle  14  Pass 1  IDiag  1:
 E= -475.501840955501     Delta-E=       -0.000000000131 Rises=F Damp=F
 DIIS: error= 1.58D-07 at cycle   7 NSaved=   7.
 NSaved= 7 IEnMin= 7 EnMin= -475.501840955501     IErMin= 7 ErrMin= 1.58D-07
 ErrMax= 1.58D-07  0.00D+00 EMaxC= 1.00D-01 BMatC= 6.69D-12 BMatP= 3.72D-11
 IDIUse=1 WtCom= 1.00D+00 WtEn= 0.00D+00
 Coeff-Com: -0.133D-02 0.290D-01 0.179D-01-0.157D+00-0.188D-01 0.357D+00
 Coeff-Com:  0.773D+00
 Coeff:     -0.133D-02 0.290D-01 0.179D-01-0.157D+00-0.188D-01 0.357D+00
 Coeff:      0.773D+00
 Gap=     0.267 Goal=   None    Shift=    0.000
 RMSDP=3.03D-08 MaxDP=7.73D-07 DE=-1.31D-10 OVMax= 5.30D-06

 Cycle  15  Pass 1  IDiag  1:
 E= -475.501840955535     Delta-E=       -0.000000000034 Rises=F Damp=F
 DIIS: error= 3.41D-08 at cycle   8 NSaved=   8.
 NSaved= 8 IEnMin= 8 EnMin= -475.501840955535     IErMin= 8 ErrMin= 3.41D-08
 ErrMax= 3.41D-08  0.00D+00 EMaxC= 1.00D-01 BMatC= 3.95D-13 BMatP= 6.69D-12
 IDIUse=1 WtCom= 1.00D+00 WtEn= 0.00D+00
 Coeff-Com: -0.355D-03 0.509D-02 0.472D-02-0.761D-02-0.424D-01-0.183D-01
 Coeff-Com:  0.161D+00 0.898D+00
 Coeff:     -0.355D-03 0.509D-02 0.472D-02-0.761D-02-0.424D-01-0.183D-01
 Coeff:      0.161D+00 0.898D+00
 Gap=     0.267 Goal=   None    Shift=    0.000
 RMSDP=5.75D-09 MaxDP=1.38D-07 DE=-3.43D-11 OVMax= 9.02D-07

 SCF Done:  E(RM062X) =  -475.501840956     A.U. after   15 cycles
            NFock= 15  Conv=0.57D-08     -V/T= 2.0035
 KE= 4.738359020758D+02 PE=-1.633184387883D+03 EE= 4.317361509297D+02
 Leave Link  502 at Sat May 24 05:02:15 2025, MaxMem=  3758096384 cpu:              25.7 elap:               6.4
 (Enter /apps/easybuild-2022/easybuild/software/Compiler/NVHPC/22.11-CUDA-11.7.0/Gaussian/g16c01-CUDA-11.7.0/g16/l508.exe)
 QCSCF skips out because SCF is already converged.
 Leave Link  508 at Sat May 24 05:02:15 2025, MaxMem=  3758096384 cpu:               0.1 elap:               0.1
 (Enter /apps/easybuild-2022/easybuild/software/Compiler/NVHPC/22.11-CUDA-11.7.0/Gaussian/g16c01-CUDA-11.7.0/g16/l701.exe)
 ... and contract with generalized density number  0.
 Compute integral first derivatives.
   1 Symmetry operations used in ECPInt.
 ECPInt:  NShTT=    2211 NPrTT=    7392 LenC2=    2160 LenP2D=    5844.
 LDataN:  DoStor=T MaxTD1= 7 Len=  274
 Leave Link  701 at Sat May 24 05:02:16 2025, MaxMem=  3758096384 cpu:               0.6 elap:               0.6
 (Enter /apps/easybuild-2022/easybuild/software/Compiler/NVHPC/22.11-CUDA-11.7.0/Gaussian/g16c01-CUDA-11.7.0/g16/l702.exe)
 L702 exits ... SP integral derivatives will be done elsewhere.
 Leave Link  702 at Sat May 24 05:02:16 2025, MaxMem=  3758096384 cpu:               0.1 elap:               0.1
 (Enter /apps/easybuild-2022/easybuild/software/Compiler/NVHPC/22.11-CUDA-11.7.0/Gaussian/g16c01-CUDA-11.7.0/g16/l703.exe)
 Integral derivatives from FoFJK, PRISM(SPDF).
 Compute integral first derivatives, UseDBF=F ICtDFT=           0.
 Calling FoFJK, ICntrl=      2127 FMM=F ISym2X=0 I1Cent= 0 IOpClX= 0 NMat=1 NMatS=1 NMatT=0.
 FoFJK:  IHMeth= 1 ICntrl=    2127 DoSepK=F KAlg= 0 I1Cent=           0 FoldK=F
 IRaf=         0 NMat=       1 IRICut=       1 DoRegI=T DoRafI=F ISym2E= 0 IDoP0=0 IntGTp=1.
 FoFCou: FMM=F IPFlag=           0 FMFlag=      100000 FMFlg1=         800
         NFxFlg=           0 DoJE=F BraDBF=F KetDBF=F FulRan=T
         wScrn=  0.000000 ICntrl=      2127 IOpCl=  0 I1Cent=           0 NGrid=           0
         NMat0=    1 NMatS0=      1 NMatT0=    0 NMatD0=    1 NMtDS0=    0 NMtDT0=    0
 Symmetry not used in FoFCou.
 Leave Link  703 at Sat May 24 05:02:24 2025, MaxMem=  3758096384 cpu:              13.5 elap:               7.6
 (Enter /apps/easybuild-2022/easybuild/software/Compiler/NVHPC/22.11-CUDA-11.7.0/Gaussian/g16c01-CUDA-11.7.0/g16/l716.exe)
 Dipole        =-1.42292464D-01-2.13015747D-01-1.54909090D-01
 -------------------------------------------------------------------
 Center     Atomic                   Forces (Hartrees/Bohr)
 Number     Number              X              Y              Z
 -------------------------------------------------------------------
      1        6           0.000027614    0.000104482   -0.000300779
      2        6           0.000111377   -0.000135838    0.000465978
      3        9           0.000027956   -0.000072407   -0.000058493
      4        9          -0.000291174    0.000379883    0.000173857
      5        9           0.000070448    0.000030749   -0.000083072
      6        9           0.000053779   -0.000306870   -0.000197491
 -------------------------------------------------------------------
 Cartesian Forces:  Max     0.000465978 RMS     0.000206529
 Leave Link  716 at Sat May 24 05:02:24 2025, MaxMem=  3758096384 cpu:               0.0 elap:               0.0
 (Enter /apps/easybuild-2022/easybuild/software/Compiler/NVHPC/22.11-CUDA-11.7.0/Gaussian/g16c01-CUDA-11.7.0/g16/l103.exe)

 GradGradGradGradGradGradGradGradGradGradGradGradGradGradGradGradGradGrad
 Berny optimization.
 Using GEDIIS/GDIIS optimizer.
 FormGI is forming the generalized inverse of G from B-inverse, IUseBI=4.
 Internal  Forces:  Max     0.000938585 RMS     0.000337808
 Search for a local minimum.
 Step number   2 out of a maximum of   25
 All quantities printed in internal units (Hartrees-Bohrs-Radians)
 RMS Force = .33781D-03 SwitMx=.10000D-02 MixMth= 2
 Mixed Optimization -- En-DIIS/RFO-DIIS
 Update second derivatives using D2CorX and points    1    2
 DE= -4.33D-04 DEPred=-4.45D-04 R= 9.72D-01
 TightC=F SS=  1.41D+00  RLast= 2.78D-01 DXNew= 5.0454D-01 8.3334D-01
 Trust test= 9.72D-01 RLast= 2.78D-01 DXMaxT set to 5.05D-01
 The second derivative matrix:
                          R1        R2        R3        R4        R5
           R1           0.23597
           R2           0.02372   0.52437
           R3           0.01045   0.00802   0.45069
           R4           0.01247   0.00666   0.05410   0.42488
           R5           0.01415   0.00680   0.05505   0.05744   0.46344
           A1           0.05561   0.08199  -0.02405   0.00467   0.03050
           A2           0.01430  -0.01030   0.01612  -0.02762  -0.03737
           A3          -0.00692  -0.00032  -0.03502   0.02025  -0.02688
           A4           0.01977   0.02327  -0.03420  -0.02569   0.02175
           A5          -0.00484  -0.00758   0.03035   0.02399  -0.01405
           A6          -0.01610  -0.00192   0.03142  -0.01253   0.02854
           A7          -0.00674  -0.00325  -0.01158   0.02595   0.02828
           D1           0.00111   0.00832   0.00100  -0.02589   0.02647
           D2          -0.00142  -0.00714   0.02410   0.00147  -0.02973
           D3          -0.00336   0.00037  -0.02572   0.03037  -0.00058
                          A1        A2        A3        A4        A5
           A1           0.38860
           A2          -0.03077   0.17866
           A3           0.01152   0.01976   0.13874
           A4           0.04349  -0.01509   0.01823   0.19001
           A5          -0.00787  -0.06998  -0.07829  -0.03473   0.16490
           A6          -0.00709  -0.08423  -0.02643  -0.08888   0.01179
           A7          -0.00886  -0.03294  -0.07320  -0.07099   0.00922
           D1           0.00087  -0.01209  -0.00074   0.02060  -0.05660
           D2          -0.01827   0.01555   0.00604  -0.01856   0.05497
           D3          -0.00078  -0.01970   0.00558   0.00216   0.00548
                          A6        A7        D1        D2        D3
           A6           0.17309
           A7           0.00958   0.16797
           D1           0.05011  -0.00485   0.04980
           D2          -0.00033  -0.06061  -0.02715   0.05326
           D3          -0.04761   0.06110  -0.02305  -0.02374   0.05211
 ITU=  1  0
 Use linear search instead of GDIIS.
     Eigenvalues ---    0.00097   0.10076   0.17088   0.20755   0.22339
     Eigenvalues ---    0.23812   0.33631   0.36762   0.40298   0.44666
     Eigenvalues ---    0.56922   0.59200
 RFO step:  Lambda=-1.86196402D-05 EMin= 9.71816528D-04
 Quartic linear search produced a step of  0.03984.
 Iteration  1 RMS(Cart)=  0.02337448 RMS(Int)=  0.00060153
 Iteration  2 RMS(Cart)=  0.00053109 RMS(Int)=  0.00000194
 Iteration  3 RMS(Cart)=  0.00000025 RMS(Int)=  0.00000194
 ITry= 1 IFail=0 DXMaxC= 5.75D-02 DCOld= 1.00D+10 DXMaxT= 5.05D-01 DXLimC= 3.00D+00 Rises=F
 Variable       Old X    -DE/DX   Delta X   Delta X   Delta X     New X
                                 (Linear)    (Quad)   (Total)
    R1        2.94457   0.00025   0.00054   0.00051   0.00105   2.94562
    R2        2.42761   0.00027   0.00059  -0.00074  -0.00015   2.42746
    R3        2.50986   0.00002   0.00043  -0.00024   0.00018   2.51004
    R4        2.52357   0.00024  -0.00003  -0.00064  -0.00067   2.52290
    R5        2.49944   0.00007   0.00012   0.00084   0.00096   2.50040
    A1        1.82614   0.00054  -0.00107   0.00545   0.00438   1.83052
    A2        2.00490  -0.00031   0.00067   0.00213   0.00280   2.00770
    A3        1.83607   0.00094  -0.00003   0.00214   0.00211   1.83818
    A4        1.92089  -0.00024   0.00001  -0.00381  -0.00380   1.91709
    A5        1.89826  -0.00016  -0.00025  -0.00079  -0.00104   1.89722
    A6        1.89590  -0.00002  -0.00052  -0.00000  -0.00052   1.89538
    A7        1.90536  -0.00019   0.00012   0.00036   0.00049   1.90585
    D1       -0.47919  -0.00015   0.00623   0.04769   0.05392  -0.42527
    D2        1.60752   0.00012   0.00629   0.04941   0.05570   1.66322
    D3       -2.62527   0.00030   0.00642   0.04913   0.05555  -2.56971
         Item               Value     Threshold  Converged?
 Maximum Force            0.000939     0.000450     NO 
 RMS     Force            0.000338     0.000300     NO 
 Maximum Displacement     0.057458     0.001800     NO 
 RMS     Displacement     0.023405     0.001200     NO 
 Predicted change in Energy=-1.027434D-05
 Lowest energy point so far.  Saving SCF results.
 GradGradGradGradGradGradGradGradGradGradGradGradGradGradGradGradGradGrad

 Leave Link  103 at Sat May 24 05:02:24 2025, MaxMem=  3758096384 cpu:               0.1 elap:               0.1
 (Enter /apps/easybuild-2022/easybuild/software/Compiler/NVHPC/22.11-CUDA-11.7.0/Gaussian/g16c01-CUDA-11.7.0/g16/l202.exe)
                          Input orientation:                          
 ---------------------------------------------------------------------
 Center     Atomic      Atomic             Coordinates (Angstroms)
 Number     Number       Type             X           Y           Z
 ---------------------------------------------------------------------
      1          6           0       -0.059298   -0.753761    0.868240
      2          6           0       -1.081067    0.416634    0.994283
      3          9           0       -2.142837    0.323587    0.201663
      4          9           0       -1.491484    0.391324    2.264440
      5          9           0       -0.475896    1.568799    0.755481
      6          9           0       -0.744673   -1.743105    0.419295
 ---------------------------------------------------------------------
                    Distance matrix (angstroms):
                    1          2          3          4          5
     1  C    0.000000
     2  C    1.558757   0.000000
     3  F    2.438471   1.328254   0.000000
     4  F    2.304724   1.335059   2.164232   0.000000
     5  F    2.362319   1.323156   2.153128   2.166755   0.000000
     6  F    1.284559   2.260142   2.504684   2.918574   3.339756
                    6
     6  F    0.000000
 Symmetry turned off by external request.
 Stoichiometry    C2F4
 Rotational constants (GHZ):           5.6571400           3.0141925           2.9687325
 Leave Link  202 at Sat May 24 05:02:24 2025, MaxMem=  3758096384 cpu:               0.0 elap:               0.1
 (Enter /apps/easybuild-2022/easybuild/software/Compiler/NVHPC/22.11-CUDA-11.7.0/Gaussian/g16c01-CUDA-11.7.0/g16/l301.exe)
 Standard basis: def2TZVPP (5D, 7F)
 Ernie: Thresh=  0.10000D-02 Tol=  0.10000D-05 Strict=F.
   186 basis functions,   306 primitive gaussians,   216 cartesian basis functions
    24 alpha electrons       24 beta electrons
       nuclear repulsion energy       251.9671495940 Hartrees.
 IExCor= 4336 DFT=T Ex+Corr=M062X ExCW=0 ScaHFX=  0.540000
 ScaDFX=  1.000000  1.000000  1.000000  1.000000 ScalE2=  1.000000  1.000000
 IRadAn=      5 IRanWt=     -1 IRanGd=            0 ICorTp=0 IEmpDi=  4
 NAtoms=    6 NActive=    6 NUniq=    6 SFac= 1.00D+00 NAtFMM=   60 NAOKFM=F Big=F
 Integral buffers will be    131072 words long.
 Raffenetti 2 integral format.
 Two-electron integral symmetry is turned off.
 Leave Link  301 at Sat May 24 05:02:24 2025, MaxMem=  3758096384 cpu:               0.1 elap:               0.1
 (Enter /apps/easybuild-2022/easybuild/software/Compiler/NVHPC/22.11-CUDA-11.7.0/Gaussian/g16c01-CUDA-11.7.0/g16/l302.exe)
 NPDir=0 NMtPBC=     1 NCelOv=     1 NCel=       1 NClECP=     1 NCelD=      1
         NCelK=      1 NCelE2=     1 NClLst=     1 CellRange=     0.0.
 One-electron integrals computed using PRISM.
   1 Symmetry operations used in ECPInt.
 ECPInt:  NShTT=    2211 NPrTT=    7392 LenC2=    2160 LenP2D=    5842.
 LDataN:  DoStor=T MaxTD1= 6 Len=  172
 NBasis=   186 RedAO= T EigKep=  7.76D-04  NBF=   186
 NBsUse=   186 1.00D-06 EigRej= -1.00D+00 NBFU=   186
 Precomputing XC quadrature grid using
 IXCGrd= 4 IRadAn=           5 IRanWt=          -1 IRanGd=           0 AccXCQ= 0.00D+00.
 Generated NRdTot=       0 NPtTot=           0 NUsed=           0 NTot=          32
 NSgBfM=   215   215   215   215   215 MxSgAt=     6 MxSgA2=     6.
 Leave Link  302 at Sat May 24 05:02:24 2025, MaxMem=  3758096384 cpu:               0.5 elap:               0.5
 (Enter /apps/easybuild-2022/easybuild/software/Compiler/NVHPC/22.11-CUDA-11.7.0/Gaussian/g16c01-CUDA-11.7.0/g16/l303.exe)
 DipDrv:  MaxL=1.
 Leave Link  303 at Sat May 24 05:02:24 2025, MaxMem=  3758096384 cpu:               0.1 elap:               0.0
 (Enter /apps/easybuild-2022/easybuild/software/Compiler/NVHPC/22.11-CUDA-11.7.0/Gaussian/g16c01-CUDA-11.7.0/g16/l401.exe)
 Initial guess from the checkpoint file:  "1001482381140000000001_well.chk"
 B after Tr=    -0.001471    0.002790   -0.005983
         Rot=    1.000000   -0.000226   -0.000695   -0.000252 Ang=  -0.09 deg.
 Guess basis will be translated and rotated to current coordinates.
 JPrj=2 DoOrth=T DoCkMO=T.
 Generating alternative initial guess.
 ExpMin= 9.52D-02 ExpMax= 3.55D+04 ExpMxC= 1.21D+03 IAcc=3 IRadAn=         5 AccDes= 0.00D+00
 Harris functional with IExCor= 1009 and IRadAn=       5 diagonalized for initial guess.
 HarFok:  IExCor= 1009 AccDes= 0.00D+00 IRadAn=         5 IDoV= 1 UseB2=F ITyADJ=14
 ICtDFT=  3500011 ScaDFX=  1.000000  1.000000  1.000000  1.000000
 FoFCou: FMM=F IPFlag=           0 FMFlag=      100000 FMFlg1=           0
         NFxFlg=           0 DoJE=T BraDBF=F KetDBF=T FulRan=T
         wScrn=  0.000000 ICntrl=       500 IOpCl=  0 I1Cent=   200000004 NGrid=           0
         NMat0=    1 NMatS0=      1 NMatT0=    0 NMatD0=    1 NMtDS0=    0 NMtDT0=    0
 Symmetry not used in FoFCou.
 Harris En= -475.190578884791    
 Leave Link  401 at Sat May 24 05:02:26 2025, MaxMem=  3758096384 cpu:               1.5 elap:               1.5
 (Enter /apps/easybuild-2022/easybuild/software/Compiler/NVHPC/22.11-CUDA-11.7.0/Gaussian/g16c01-CUDA-11.7.0/g16/l502.exe)
 Keep R1 ints in memory in canonical form, NReq=159612620.
 FoFCou: FMM=F IPFlag=           0 FMFlag=           0 FMFlg1=           0
         NFxFlg=           0 DoJE=F BraDBF=F KetDBF=F FulRan=T
         wScrn=  0.000000 ICntrl=       600 IOpCl=  0 I1Cent=           0 NGrid=           0
         NMat0=    1 NMatS0=  17391 NMatT0=    0 NMatD0=    1 NMtDS0=    0 NMtDT0=    0
 Symmetry not used in FoFCou.
 Two-electron integral symmetry not used.
 Closed shell SCF:
 Using DIIS extrapolation, IDIIS=  1040.
 NGot=  3758096384 LenX=  3606767638 LenY=  3606720541
 Requested convergence on RMS density matrix=1.00D-08 within  32 cycles.
 Requested convergence on MAX density matrix=1.00D-06.
 Requested convergence on             energy=1.00D-06.
 No special actions if energy rises.
 Integral accuracy reduced to 1.0D-05 until final iterations.

 Cycle   1  Pass 0  IDiag  1:
 E= -475.500511662182    
 DIIS: error= 1.73D-03 at cycle   1 NSaved=   1.
 NSaved= 1 IEnMin= 1 EnMin= -475.500511662182     IErMin= 1 ErrMin= 1.73D-03
 ErrMax= 1.73D-03  0.00D+00 EMaxC= 1.00D-01 BMatC= 8.18D-04 BMatP= 8.18D-04
 IDIUse=3 WtCom= 9.83D-01 WtEn= 1.73D-02
 Coeff-Com:  0.100D+01
 Coeff-En:   0.100D+01
 Coeff:      0.100D+01
 Gap=     1.117 Goal=   None    Shift=    0.000
 GapD=    1.117 DampG=2.000 DampE=1.000 DampFc=2.0000 IDamp=-1.
 RMSDP=1.48D-04 MaxDP=3.47D-03              OVMax= 1.09D-02

 Cycle   2  Pass 0  IDiag  1:
 E= -475.501765980838     Delta-E=       -0.001254318656 Rises=F Damp=F
 DIIS: error= 5.67D-04 at cycle   2 NSaved=   2.
 NSaved= 2 IEnMin= 2 EnMin= -475.501765980838     IErMin= 2 ErrMin= 5.67D-04
 ErrMax= 5.67D-04  0.00D+00 EMaxC= 1.00D-01 BMatC= 3.97D-05 BMatP= 8.18D-04
 IDIUse=3 WtCom= 9.94D-01 WtEn= 5.67D-03
 Coeff-Com: -0.191D+00 0.119D+01
 Coeff-En:   0.000D+00 0.100D+01
 Coeff:     -0.190D+00 0.119D+01
 Gap=     0.267 Goal=   None    Shift=    0.000
 RMSDP=4.97D-05 MaxDP=1.18D-03 DE=-1.25D-03 OVMax= 6.13D-03

 Cycle   3  Pass 0  IDiag  1:
 E= -475.501866160669     Delta-E=       -0.000100179831 Rises=F Damp=F
 DIIS: error= 1.44D-04 at cycle   3 NSaved=   3.
 NSaved= 3 IEnMin= 3 EnMin= -475.501866160669     IErMin= 3 ErrMin= 1.44D-04
 ErrMax= 1.44D-04  0.00D+00 EMaxC= 1.00D-01 BMatC= 4.96D-06 BMatP= 3.97D-05
 IDIUse=3 WtCom= 9.99D-01 WtEn= 1.44D-03
 Coeff-Com: -0.520D-01 0.236D+00 0.816D+00
 Coeff-En:   0.000D+00 0.000D+00 0.100D+01
 Coeff:     -0.519D-01 0.236D+00 0.816D+00
 Gap=     0.267 Goal=   None    Shift=    0.000
 RMSDP=1.41D-05 MaxDP=3.66D-04 DE=-1.00D-04 OVMax= 2.22D-03

 Cycle   4  Pass 0  IDiag  1:
 E= -475.501873762021     Delta-E=       -0.000007601352 Rises=F Damp=F
 DIIS: error= 1.02D-04 at cycle   4 NSaved=   4.
 NSaved= 4 IEnMin= 4 EnMin= -475.501873762021     IErMin= 4 ErrMin= 1.02D-04
 ErrMax= 1.02D-04  0.00D+00 EMaxC= 1.00D-01 BMatC= 3.12D-06 BMatP= 4.96D-06
 IDIUse=3 WtCom= 9.99D-01 WtEn= 1.02D-03
 Coeff-Com:  0.183D-01-0.159D+00 0.451D+00 0.689D+00
 Coeff-En:   0.000D+00 0.000D+00 0.000D+00 0.100D+01
 Coeff:      0.183D-01-0.159D+00 0.451D+00 0.689D+00
 Gap=     0.267 Goal=   None    Shift=    0.000
 RMSDP=9.64D-06 MaxDP=2.35D-04 DE=-7.60D-06 OVMax= 1.66D-03

 Initial convergence to 1.0D-05 achieved.  Increase integral accuracy.
 Cycle   5  Pass 1  IDiag  1:
 E= -475.501851480766     Delta-E=        0.000022281255 Rises=F Damp=F
 DIIS: error= 5.86D-05 at cycle   1 NSaved=   1.
 NSaved= 1 IEnMin= 1 EnMin= -475.501851480766     IErMin= 1 ErrMin= 5.86D-05
 ErrMax= 5.86D-05  0.00D+00 EMaxC= 1.00D-01 BMatC= 5.82D-07 BMatP= 5.82D-07
 IDIUse=1 WtCom= 1.00D+00 WtEn= 0.00D+00
 Coeff-Com:  0.100D+01
 Coeff:      0.100D+01
 Gap=     0.267 Goal=   None    Shift=    0.000
 RMSDP=9.64D-06 MaxDP=2.35D-04 DE= 2.23D-05 OVMax= 1.06D-03

 Cycle   6  Pass 1  IDiag  1:
 E= -475.501852903715     Delta-E=       -0.000001422948 Rises=F Damp=F
 DIIS: error= 3.15D-05 at cycle   2 NSaved=   2.
 NSaved= 2 IEnMin= 2 EnMin= -475.501852903715     IErMin= 2 ErrMin= 3.15D-05
 ErrMax= 3.15D-05  0.00D+00 EMaxC= 1.00D-01 BMatC= 9.43D-08 BMatP= 5.82D-07
 IDIUse=1 WtCom= 1.00D+00 WtEn= 0.00D+00
 Coeff-Com: -0.140D-01 0.101D+01
 Coeff:     -0.140D-01 0.101D+01
 Gap=     0.267 Goal=   None    Shift=    0.000
 RMSDP=3.92D-06 MaxDP=9.83D-05 DE=-1.42D-06 OVMax= 6.50D-04

 Cycle   7  Pass 1  IDiag  1:
 E= -475.501853307611     Delta-E=       -0.000000403896 Rises=F Damp=F
 DIIS: error= 1.72D-05 at cycle   3 NSaved=   3.
 NSaved= 3 IEnMin= 3 EnMin= -475.501853307611     IErMin= 3 ErrMin= 1.72D-05
 ErrMax= 1.72D-05  0.00D+00 EMaxC= 1.00D-01 BMatC= 8.06D-08 BMatP= 9.43D-08
 IDIUse=1 WtCom= 1.00D+00 WtEn= 0.00D+00
 Coeff-Com: -0.143D+00 0.530D+00 0.612D+00
 Coeff:     -0.143D+00 0.530D+00 0.612D+00
 Gap=     0.267 Goal=   None    Shift=    0.000
 RMSDP=1.81D-06 MaxDP=4.69D-05 DE=-4.04D-07 OVMax= 3.16D-04

 Cycle   8  Pass 1  IDiag  1:
 E= -475.501853465515     Delta-E=       -0.000000157904 Rises=F Damp=F
 DIIS: error= 1.19D-05 at cycle   4 NSaved=   4.
 NSaved= 4 IEnMin= 4 EnMin= -475.501853465515     IErMin= 4 ErrMin= 1.19D-05
 ErrMax= 1.19D-05  0.00D+00 EMaxC= 1.00D-01 BMatC= 1.17D-08 BMatP= 8.06D-08
 IDIUse=1 WtCom= 1.00D+00 WtEn= 0.00D+00
 Coeff-Com:  0.128D-01-0.512D+00-0.932D-01 0.159D+01
 Coeff:      0.128D-01-0.512D+00-0.932D-01 0.159D+01
 Gap=     0.267 Goal=   None    Shift=    0.000
 RMSDP=2.87D-06 MaxDP=7.57D-05 DE=-1.58D-07 OVMax= 5.37D-04

 Cycle   9  Pass 1  IDiag  1:
 E= -475.501853561650     Delta-E=       -0.000000096135 Rises=F Damp=F
 DIIS: error= 1.54D-06 at cycle   5 NSaved=   5.
 NSaved= 5 IEnMin= 5 EnMin= -475.501853561650     IErMin= 5 ErrMin= 1.54D-06
 ErrMax= 1.54D-06  0.00D+00 EMaxC= 1.00D-01 BMatC= 9.95D-10 BMatP= 1.17D-08
 IDIUse=1 WtCom= 1.00D+00 WtEn= 0.00D+00
 Coeff-Com:  0.175D-01-0.227D+00-0.752D-01 0.576D+00 0.709D+00
 Coeff:      0.175D-01-0.227D+00-0.752D-01 0.576D+00 0.709D+00
 Gap=     0.267 Goal=   None    Shift=    0.000
 RMSDP=3.37D-07 MaxDP=7.75D-06 DE=-9.61D-08 OVMax= 5.95D-05

 Cycle  10  Pass 1  IDiag  1:
 E= -475.501853563597     Delta-E=       -0.000000001946 Rises=F Damp=F
 DIIS: error= 5.34D-07 at cycle   6 NSaved=   6.
 NSaved= 6 IEnMin= 6 EnMin= -475.501853563597     IErMin= 6 ErrMin= 5.34D-07
 ErrMax= 5.34D-07  0.00D+00 EMaxC= 1.00D-01 BMatC= 7.32D-11 BMatP= 9.95D-10
 IDIUse=1 WtCom= 1.00D+00 WtEn= 0.00D+00
 Coeff-Com:  0.447D-02-0.313D-01-0.145D-01 0.522D-01 0.202D+00 0.787D+00
 Coeff:      0.447D-02-0.313D-01-0.145D-01 0.522D-01 0.202D+00 0.787D+00
 Gap=     0.267 Goal=   None    Shift=    0.000
 RMSDP=7.96D-08 MaxDP=2.94D-06 DE=-1.95D-09 OVMax= 1.05D-05

 Cycle  11  Pass 1  IDiag  1:
 E= -475.501853563695     Delta-E=       -0.000000000099 Rises=F Damp=F
 DIIS: error= 2.13D-07 at cycle   7 NSaved=   7.
 NSaved= 7 IEnMin= 7 EnMin= -475.501853563695     IErMin= 7 ErrMin= 2.13D-07
 ErrMax= 2.13D-07  0.00D+00 EMaxC= 1.00D-01 BMatC= 1.38D-11 BMatP= 7.32D-11
 IDIUse=1 WtCom= 1.00D+00 WtEn= 0.00D+00
 Coeff-Com: -0.668D-03 0.174D-01 0.459D-02-0.564D-01-0.268D-01 0.284D+00
 Coeff-Com:  0.778D+00
 Coeff:     -0.668D-03 0.174D-01 0.459D-02-0.564D-01-0.268D-01 0.284D+00
 Coeff:      0.778D+00
 Gap=     0.267 Goal=   None    Shift=    0.000
 RMSDP=3.06D-08 MaxDP=1.27D-06 DE=-9.87D-11 OVMax= 3.59D-06

 Cycle  12  Pass 1  IDiag  1:
 E= -475.501853563729     Delta-E=       -0.000000000033 Rises=F Damp=F
 DIIS: error= 6.96D-08 at cycle   8 NSaved=   8.
 NSaved= 8 IEnMin= 8 EnMin= -475.501853563729     IErMin= 8 ErrMin= 6.96D-08
 ErrMax= 6.96D-08  0.00D+00 EMaxC= 1.00D-01 BMatC= 1.42D-12 BMatP= 1.38D-11
 IDIUse=1 WtCom= 1.00D+00 WtEn= 0.00D+00
 Coeff-Com: -0.642D-03 0.863D-02 0.321D-02-0.235D-01-0.319D-01 0.100D-01
 Coeff-Com:  0.280D+00 0.754D+00
 Coeff:     -0.642D-03 0.863D-02 0.321D-02-0.235D-01-0.319D-01 0.100D-01
 Coeff:      0.280D+00 0.754D+00
 Gap=     0.267 Goal=   None    Shift=    0.000
 RMSDP=5.96D-09 MaxDP=1.22D-07 DE=-3.32D-11 OVMax= 5.97D-07

 SCF Done:  E(RM062X) =  -475.501853564     A.U. after   12 cycles
            NFock= 12  Conv=0.60D-08     -V/T= 2.0035
 KE= 4.738339291881D+02 PE=-1.632899092508D+03 EE= 4.315961601619D+02
 Leave Link  502 at Sat May 24 05:02:40 2025, MaxMem=  3758096384 cpu:              24.9 elap:              13.7
 (Enter /apps/easybuild-2022/easybuild/software/Compiler/NVHPC/22.11-CUDA-11.7.0/Gaussian/g16c01-CUDA-11.7.0/g16/l508.exe)
 QCSCF skips out because SCF is already converged.
 Leave Link  508 at Sat May 24 05:02:40 2025, MaxMem=  3758096384 cpu:               0.1 elap:               0.1
 (Enter /apps/easybuild-2022/easybuild/software/Compiler/NVHPC/22.11-CUDA-11.7.0/Gaussian/g16c01-CUDA-11.7.0/g16/l701.exe)
 ... and contract with generalized density number  0.
 Compute integral first derivatives.
   1 Symmetry operations used in ECPInt.
 ECPInt:  NShTT=    2211 NPrTT=    7392 LenC2=    2160 LenP2D=    5842.
 LDataN:  DoStor=T MaxTD1= 7 Len=  274
 Leave Link  701 at Sat May 24 05:02:40 2025, MaxMem=  3758096384 cpu:               0.6 elap:               0.2
 (Enter /apps/easybuild-2022/easybuild/software/Compiler/NVHPC/22.11-CUDA-11.7.0/Gaussian/g16c01-CUDA-11.7.0/g16/l702.exe)
 L702 exits ... SP integral derivatives will be done elsewhere.
 Leave Link  702 at Sat May 24 05:02:40 2025, MaxMem=  3758096384 cpu:               0.1 elap:               0.0
 (Enter /apps/easybuild-2022/easybuild/software/Compiler/NVHPC/22.11-CUDA-11.7.0/Gaussian/g16c01-CUDA-11.7.0/g16/l703.exe)
 Integral derivatives from FoFJK, PRISM(SPDF).
 Compute integral first derivatives, UseDBF=F ICtDFT=           0.
 Calling FoFJK, ICntrl=      2127 FMM=F ISym2X=0 I1Cent= 0 IOpClX= 0 NMat=1 NMatS=1 NMatT=0.
 FoFJK:  IHMeth= 1 ICntrl=    2127 DoSepK=F KAlg= 0 I1Cent=           0 FoldK=F
 IRaf=         0 NMat=       1 IRICut=       1 DoRegI=T DoRafI=F ISym2E= 0 IDoP0=0 IntGTp=1.
 FoFCou: FMM=F IPFlag=           0 FMFlag=      100000 FMFlg1=         800
         NFxFlg=           0 DoJE=F BraDBF=F KetDBF=F FulRan=T
[...]
           X                                                                                                                         
 
 -------------------------------------------------------------------
 Center     Atomic                   Forces (Hartrees/Bohr)
 Number     Number              X              Y              Z
 -------------------------------------------------------------------
      1        6          -0.000002542    0.000000097   -0.000004452
      2        6          -0.000002678   -0.000000941    0.000001506
      3        9           0.000000620   -0.000001298    0.000002155
      4        9           0.000000320   -0.000000675    0.000001518
      5        9           0.000000443    0.000000233    0.000002579
      6        9           0.000003837    0.000002582   -0.000003306
 -------------------------------------------------------------------
 Cartesian Forces:  Max     0.000004452 RMS     0.000002178
 Force constants in Cartesian coordinates: 
                1             2             3             4             5 
      1  0.331408D+00
      2  0.917320D-01  0.402543D+00
      3  0.106630D+00  0.134461D+00  0.935451D-01
      4 -0.120858D+00  0.961532D-01  0.127117D-02  0.589387D+00
      5  0.409667D-01 -0.102349D+00 -0.146858D-01 -0.437813D-02  0.611670D+00
      6 -0.140014D-01 -0.392843D-03 -0.148585D-01  0.204849D-01  0.163841D-01
      7 -0.413029D-01 -0.710901D-02 -0.220242D-01 -0.242186D+00  0.162831D-01
      8  0.232324D-01 -0.873086D-03  0.810029D-02  0.249532D-02 -0.813005D-01
      9 -0.173112D-01 -0.368460D-02 -0.553354D-02 -0.109082D+00  0.238789D-02
     10 -0.102571D-02 -0.388401D-02  0.184191D-01 -0.117266D+00  0.128239D-01
     11  0.547097D-02  0.751281D-02 -0.103477D-01  0.211444D-01 -0.789138D-01
     12  0.993319D-02 -0.193303D-03 -0.140597D-01  0.886462D-01 -0.241186D-01
     13  0.792568D-02  0.684813D-02 -0.258093D-02 -0.113152D+00 -0.838482D-01
     14 -0.271372D-01 -0.237691D-01  0.154510D-02 -0.715406D-01 -0.298781D+00
     15  0.117877D-02  0.371158D-02  0.498938D-02  0.139067D-01  0.324459D-01
     16 -0.176147D+00 -0.183740D+00 -0.101715D+00  0.407458D-02  0.181526D-01
     17 -0.134265D+00 -0.283065D+00 -0.119073D+00 -0.438742D-01 -0.503261D-01
     18 -0.864291D-01 -0.133902D+00 -0.640827D-01 -0.152267D-01 -0.124134D-01
                6             7             8             9            10 
      6  0.513383D+00
      7 -0.112101D+00  0.299558D+00
      8  0.901077D-03  0.299289D-01  0.808869D-01
      9 -0.142062D+00  0.173329D+00  0.152791D-01  0.206454D+00
     10  0.906308D-01  0.166845D-01 -0.348136D-02 -0.405326D-01  0.107803D+00
     11 -0.365212D-01 -0.316760D-02  0.123745D-01  0.149626D-03  0.794508D-02
     12 -0.276076D+00 -0.231235D-01 -0.461447D-02 -0.721327D-01 -0.102993D+00
     13  0.115947D-01 -0.454250D-01 -0.550943D-01 -0.141109D-01 -0.791894D-02
     14  0.445712D-01 -0.385265D-01 -0.145952D-01 -0.149454D-01 -0.240554D-01
     15 -0.761196D-01 -0.190221D-01 -0.236887D-01  0.100065D-01  0.313951D-01
     16  0.339224D-02  0.126712D-01  0.291908D-02  0.770828D-02  0.172296D-02
     17 -0.249423D-01  0.259116D-02  0.350742D-02  0.813406D-03  0.106518D-01
     18 -0.426640D-02  0.294227D-02  0.402267D-02  0.326786D-02  0.308043D-02
               11            12            13            14            15 
     11  0.652210D-01
     12 -0.246815D-02  0.395759D+00
     13 -0.292430D-01  0.284086D-01  0.157776D+00
     14 -0.325394D-02  0.370414D-01  0.156349D+00  0.357999D+00
     15  0.508762D-01 -0.290731D-01 -0.273605D-01 -0.647959D-01  0.905151D-01
     16 -0.214989D-02 -0.871615D-03  0.794347D-03  0.491046D-02 -0.980256D-04
     17 -0.294059D-02 -0.564679D-02  0.498809D-02 -0.175998D-01  0.145098D-02
     18 -0.168884D-02 -0.441687D-02  0.404910D-02 -0.341631D-02 -0.318220D-03
               16            17            18 
     16  0.156884D+00
     17  0.159908D+00  0.350424D+00
     18  0.915840D-01  0.147398D+00  0.698164D-01
 FormGI is forming the generalized inverse of G from B-inverse, IUseBI=4.
 Force constants in internal coordinates: 
                1             2             3             4             5 
      1  0.231851D+00
      2  0.269729D-01  0.506395D+00
      3  0.123889D-01  0.117672D-01  0.435326D+00
      4  0.131260D-01  0.921211D-02  0.553985D-01  0.428868D+00
      5  0.136325D-01  0.805474D-02  0.557546D-01  0.578169D-01  0.456883D+00
      6  0.620775D-01  0.834373D-01 -0.261017D-01  0.908309D-02  0.276808D-01
      7  0.243662D-01 -0.154751D-01  0.117606D-01 -0.302810D-01 -0.378584D-01
      8 -0.438856D-02  0.127157D-01 -0.306042D-01  0.210743D-01 -0.242469D-01
      9  0.128303D-01  0.216127D-01 -0.361877D-01 -0.231294D-01  0.205517D-01
     10 -0.968692D-02 -0.849559D-02  0.312174D-01  0.250690D-01 -0.136541D-01
     11 -0.187730D-01 -0.434372D-02  0.332898D-01 -0.132571D-01  0.297056D-01
     12 -0.518214D-02 -0.589037D-02 -0.117720D-01  0.249268D-01  0.267366D-01
     13 -0.729243D-03  0.424104D-02 -0.923184D-04 -0.270067D-01  0.265719D-01
     14 -0.154216D-02 -0.664064D-02  0.245455D-01  0.119632D-02 -0.297353D-01
     15 -0.359924D-02  0.424457D-02 -0.241837D-01  0.304142D-01 -0.132749D-02
                6             7             8             9            10 
      6  0.412180D+00
      7 -0.153042D-01  0.192517D+00
      8  0.494177D-02  0.101612D-01  0.142607D+00
      9  0.406431D-01 -0.184292D-01  0.269566D-01  0.178234D+00
     10 -0.920311D-02 -0.725371D-01 -0.826158D-01 -0.322723D-01  0.168497D+00
     11 -0.132019D-01 -0.853094D-01 -0.293356D-01 -0.879764D-01  0.130306D-01
     12 -0.793097D-02 -0.326050D-01 -0.711063D-01 -0.696033D-01  0.977276D-02
     13  0.376471D-03 -0.978188D-02 -0.452424D-02  0.170121D-01 -0.552092D-01
     14 -0.167109D-01  0.200650D-01 -0.241942D-02 -0.154204D-01  0.551755D-01
     15 -0.294123D-02 -0.218863D-01  0.574390D-02  0.697538D-02  0.520699D-02
               11            12            13            14            15 
     11  0.176482D+00
     12  0.104837D-01  0.165719D+00
     13  0.526838D-01 -0.320799D-02  0.518776D-01
     14 -0.176734D-02 -0.597944D-01 -0.261022D-01  0.530550D-01
     15 -0.496326D-01  0.609207D-01 -0.238195D-01 -0.262031D-01  0.519654D-01
 Leave Link  716 at Sat May 24 05:04:03 2025, MaxMem=  3758096384 cpu:               0.1 elap:               0.1
 (Enter /apps/easybuild-2022/easybuild/software/Compiler/NVHPC/22.11-CUDA-11.7.0/Gaussian/g16c01-CUDA-11.7.0/g16/l103.exe)

 GradGradGradGradGradGradGradGradGradGradGradGradGradGradGradGradGradGrad
 Berny optimization.
 Red2BG is reusing G-inverse.
 Internal  Forces:  Max     0.000004171 RMS     0.000002110
 Search for a local minimum.
 Step number   1 out of a maximum of    2
 All quantities printed in internal units (Hartrees-Bohrs-Radians)
 Second derivative matrix not updated -- analytic derivatives used.
 The second derivative matrix:
                          R1        R2        R3        R4        R5
           R1           0.23185
           R2           0.02697   0.50639
           R3           0.01239   0.01177   0.43533
           R4           0.01313   0.00921   0.05540   0.42887
           R5           0.01363   0.00805   0.05575   0.05782   0.45688
           A1           0.06208   0.08344  -0.02610   0.00908   0.02768
           A2           0.02437  -0.01548   0.01176  -0.03028  -0.03786
           A3          -0.00439   0.01272  -0.03060   0.02107  -0.02425
           A4           0.01283   0.02161  -0.03619  -0.02313   0.02055
           A5          -0.00969  -0.00850   0.03122   0.02507  -0.01365
           A6          -0.01877  -0.00434   0.03329  -0.01326   0.02971
           A7          -0.00518  -0.00589  -0.01177   0.02493   0.02674
           D1          -0.00073   0.00424  -0.00009  -0.02701   0.02657
           D2          -0.00154  -0.00664   0.02455   0.00120  -0.02974
           D3          -0.00360   0.00424  -0.02418   0.03041  -0.00133
                          A1        A2        A3        A4        A5
           A1           0.41218
           A2          -0.01530   0.19252
           A3           0.00494   0.01016   0.14261
           A4           0.04064  -0.01843   0.02696   0.17823
           A5          -0.00920  -0.07254  -0.08262  -0.03227   0.16850
           A6          -0.01320  -0.08531  -0.02934  -0.08798   0.01303
           A7          -0.00793  -0.03261  -0.07111  -0.06960   0.00977
           D1           0.00038  -0.00978  -0.00452   0.01701  -0.05521
           D2          -0.01671   0.02007  -0.00242  -0.01542   0.05518
           D3          -0.00294  -0.02189   0.00574   0.00698   0.00521
                          A6        A7        D1        D2        D3
           A6           0.17648
           A7           0.01048   0.16572
           D1           0.05268  -0.00321   0.05188
           D2          -0.00177  -0.05979  -0.02610   0.05305
           D3          -0.04963   0.06092  -0.02382  -0.02620   0.05197
 ITU=  0
     Eigenvalues ---    0.00072   0.10414   0.17350   0.20045   0.22710
     Eigenvalues ---    0.24156   0.34200   0.36865   0.40394   0.43618
     Eigenvalues ---    0.56448   0.58973
 Angle between quadratic step and forces=  77.11 degrees.
 Linear search not attempted -- first point.
 Iteration  1 RMS(Cart)=  0.00056884 RMS(Int)=  0.00000035
 Iteration  2 RMS(Cart)=  0.00000031 RMS(Int)=  0.00000000
 ITry= 1 IFail=0 DXMaxC= 1.37D-03 DCOld= 1.00D+10 DXMaxT= 3.00D-01 DXLimC= 3.00D+00 Rises=F
 Variable       Old X    -DE/DX   Delta X   Delta X   Delta X     New X
                                 (Linear)    (Quad)   (Total)
    R1        2.94653  -0.00000   0.00000   0.00001   0.00001   2.94654
    R2        2.42704  -0.00000   0.00000  -0.00002  -0.00002   2.42702
    R3        2.51018  -0.00000   0.00000  -0.00001  -0.00001   2.51017
    R4        2.52182   0.00000   0.00000  -0.00002  -0.00002   2.52179
    R5        2.50133   0.00000   0.00000   0.00003   0.00003   2.50135
    A1        1.83189   0.00000   0.00000   0.00008   0.00008   1.83197
    A2        2.00680  -0.00000   0.00000   0.00005   0.00005   2.00685
    A3        1.84354   0.00000   0.00000   0.00006   0.00006   1.84360
    A4        1.91332  -0.00000   0.00000  -0.00011  -0.00011   1.91321
    A5        1.89696   0.00000   0.00000  -0.00002  -0.00002   1.89694
    A6        1.89518   0.00000   0.00000   0.00000   0.00000   1.89518
    A7        1.90582  -0.00000   0.00000   0.00001   0.00001   1.90583
    D1       -0.40072  -0.00000   0.00000   0.00130   0.00130  -0.39942
    D2        1.69063   0.00000   0.00000   0.00136   0.00136   1.69199
    D3       -2.54128   0.00000   0.00000   0.00135   0.00135  -2.53993
         Item               Value     Threshold  Converged?
 Maximum Force            0.000004     0.000450     YES
 RMS     Force            0.000002     0.000300     YES
 Maximum Displacement     0.001366     0.001800     YES
 RMS     Displacement     0.000569     0.001200     YES
 Predicted change in Energy=-2.113748D-09
 Optimization completed.
    -- Stationary point found.
                           ----------------------------
                           !   Optimized Parameters   !
                           ! (Angstroms and Degrees)  !
 --------------------------                            --------------------------
 ! Name  Definition              Value          Derivative Info.                !
 --------------------------------------------------------------------------------
 ! R1    R(1,2)                  1.5592         -DE/DX =    0.0                 !
 ! R2    R(1,6)                  1.2843         -DE/DX =    0.0                 !
 ! R3    R(2,3)                  1.3283         -DE/DX =    0.0                 !
 ! R4    R(2,4)                  1.3345         -DE/DX =    0.0                 !
 ! R5    R(2,5)                  1.3236         -DE/DX =    0.0                 !
 ! A1    A(2,1,6)              104.9594         -DE/DX =    0.0                 !
 ! A2    A(1,2,3)              114.9809         -DE/DX =    0.0                 !
 ! A3    A(1,2,4)              105.627          -DE/DX =    0.0                 !
 ! A4    A(1,2,5)              109.625          -DE/DX =    0.0                 !
 ! A5    A(3,2,4)              108.6877         -DE/DX =    0.0                 !
 ! A6    A(3,2,5)              108.5857         -DE/DX =    0.0                 !
 ! A7    A(4,2,5)              109.1953         -DE/DX =    0.0                 !
 ! D1    D(6,1,2,3)            -22.9596         -DE/DX =    0.0                 !
 ! D2    D(6,1,2,4)             96.8661         -DE/DX =    0.0                 !
 ! D3    D(6,1,2,5)           -145.6045         -DE/DX =    0.0                 !
 --------------------------------------------------------------------------------
 GradGradGradGradGradGradGradGradGradGradGradGradGradGradGradGradGradGrad

 Leave Link  103 at Sat May 24 05:04:03 2025, MaxMem=  3758096384 cpu:               0.1 elap:               0.1
 (Enter /apps/easybuild-2022/easybuild/software/Compiler/NVHPC/22.11-CUDA-11.7.0/Gaussian/g16c01-CUDA-11.7.0/g16/l9999.exe)

 ----------------------------------------------------------------------

 Electric dipole moment (input orientation):
 (Debye = 10**-18 statcoulomb cm , SI units = C m)
                  (au)            (Debye)         (10**-30 SI)
   Tot        0.306714D+00      0.779589D+00      0.260043D+01
   x         -0.139846D+00     -0.355452D+00     -0.118566D+01
   y         -0.217746D+00     -0.553454D+00     -0.184612D+01
   z         -0.164631D+00     -0.418451D+00     -0.139580D+01

 Dipole polarizability, Alpha (input orientation).
 (esu units = cm**3 , SI units = C**2 m**2 J**-1)
 Alpha(0;0):
               (au)            (10**-24 esu)      (10**-40 SI)
   iso        0.262320D+02      0.388718D+01      0.432507D+01
   aniso      0.377828D+01      0.559884D+00      0.622955D+00
   xx         0.253362D+02      0.375443D+01      0.417737D+01
   yx        -0.490438D+00     -0.726754D-01     -0.808623D-01
   yy         0.283493D+02      0.420094D+01      0.467417D+01
   zx        -0.115959D-01     -0.171833D-02     -0.191190D-02
   zy         0.106250D+01      0.157446D+00      0.175182D+00
   zz         0.250104D+02      0.370617D+01      0.412367D+01

 ----------------------------------------------------------------------

 Dipole orientation:
     6         -0.55476388          2.11331740          0.17903426
     6         -2.79488705          0.38190344         -0.63710536
     9         -3.80826054         -0.98198453          1.21056353
     9         -4.55637110          1.93671673         -1.55323786
     9         -2.04172513         -1.16734790         -2.45071903
     9         -0.86358948          2.45587249          2.56184788

 Electric dipole moment (dipole orientation):
 (Debye = 10**-18 statcoulomb cm , SI units = C m)
                  (au)            (Debye)         (10**-30 SI)
   Tot        0.306714D+00      0.779589D+00      0.260043D+01
   x          0.000000D+00      0.000000D+00      0.000000D+00
   y          0.000000D+00      0.000000D+00      0.000000D+00
   z          0.306714D+00      0.779589D+00      0.260043D+01

 Dipole polarizability, Alpha (dipole orientation).
 (esu units = cm**3 , SI units = C**2 m**2 J**-1)
 Alpha(0;0):
               (au)            (10**-24 esu)      (10**-40 SI)
   iso        0.262320D+02      0.388718D+01      0.432507D+01
   aniso      0.377828D+01      0.559884D+00      0.622955D+00
   xx         0.257940D+02      0.382228D+01      0.425286D+01
   yx         0.999396D+00      0.148095D+00      0.164778D+00
   yy         0.256544D+02      0.380159D+01      0.422984D+01
   zx         0.109185D+01      0.161796D+00      0.180022D+00
   zy         0.133759D+01      0.198210D+00      0.220538D+00
   zz         0.272475D+02      0.403767D+01      0.449251D+01

 ----------------------------------------------------------------------
 Unable to Open any file for archive entry.
 1\1\GINC-SPARTAN-BM202\Freq\RM062X\def2TZVPP\C2F4\AKHALILOV\24-May-202
 5\0\\#P Geom=AllCheck Guess=TCheck SCRF=Check GenChk RM062X/def2TZVPP 
 Freq\\Gaussian input prepared by ASE\\0,1\C,-0.0614976473,-0.756974967
 6,0.8769284268\C,-1.0826301259,0.4150561051,0.998779331\F,-2.144163313
 ,0.3189118358,0.2060862523\F,-1.4943259987,0.4026345583,2.2681149687\F
 ,-0.473088567,1.5633982748,0.7501764423\F,-0.7395503482,-1.7395478064,
 0.4033165788\\Version=ES64L-G16RevC.01\HF=-475.5018571\RMSD=1.379e-09\
 RMSF=2.178e-06\ZeroPoint=0.0201978\Thermal=0.0256382\ETot=-475.4762188
 \HTot=-475.4752747\GTot=-475.5118203\Dipole=-0.1398455,-0.2177456,-0.1
 646313\DipoleDeriv=0.4803196,0.2586927,0.2628162,0.0793888,0.8137587,0
 .4015749,0.2326275,0.4307134,-0.1184929,1.3749633,0.3783052,0.0725864,
 0.2559609,1.4841344,-0.1337801,0.0317313,-0.1083877,1.80658,-0.8059241
 ,0.0642374,-0.2994986,0.0635667,-0.365349,-0.0099845,-0.3121574,0.0061
 29,-0.5162696,-0.3583973,0.0392994,0.1993293,0.0408818,-0.3589991,-0.0
 253932,0.1557312,-0.0037202,-0.7909916,-0.408862,-0.1812527,0.045443,-
 0.2760729,-0.8018622,0.0903084,0.0513041,0.086717,-0.3140546,-0.282099
 5,-0.559282,-0.2806763,-0.1637255,-0.7716828,-0.3227256,-0.1592366,-0.
 4114515,-0.0667713\Polar=25.3361636,-0.4904379,28.3493349,-0.0115959,1
 .0624966,25.0104492\PG=Unknown\NImag=0\\0.33140788,0.09173198,0.402543
 30,0.10662977,0.13446147,0.09354513,-0.12085754,0.09615319,0.00127117,
 0.58938652,0.04096668,-0.10234934,-0.01468576,-0.00437813,0.61167036,-
 0.01400140,-0.00039284,-0.01485849,0.02048493,0.01638405,0.51338318,-0
 .04130289,-0.00710901,-0.02202420,-0.24218555,0.01628308,-0.11210122,0
 .29955768,0.02323239,-0.00087309,0.00810029,0.00249532,-0.08130054,0.0
 0090108,0.02992889,0.08088685,-0.01731124,-0.00368460,-0.00553354,-0.1
 0908227,0.00238789,-0.14206235,0.17332880,0.01527910,0.20645428,-0.001
 02571,-0.00388401,0.01841912,-0.11726633,0.01282395,0.09063078,0.01668
 453,-0.00348136,-0.04053263,0.10780349,0.00547097,0.00751281,-0.010347
 65,0.02114444,-0.07891376,-0.03652115,-0.00316760,0.01237451,0.0001496
 3,0.00794508,0.06522097,0.00993319,-0.00019330,-0.01405974,0.08864618,
 -0.02411864,-0.27607632,-0.02312350,-0.00461447,-0.07213271,-0.1029928
 4,-0.00246815,0.39575872,0.00792568,0.00684813,-0.00258093,-0.11315168
 ,-0.08384820,0.01159467,-0.04542500,-0.05509431,-0.01411094,-0.0079189
 4,-0.02924300,0.02840858,0.15777560,-0.02713725,-0.02376907,0.00154510
 ,-0.07154057,-0.29878061,0.04457122,-0.03852654,-0.01459516,-0.0149454
 2,-0.02405541,-0.00325394,0.03704136,0.15634930,0.35799858,0.00117877,
 0.00371158,0.00498938,0.01390673,0.03244588,-0.07611962,-0.01902215,-0
 .02368867,0.01000646,0.03139515,0.05087617,-0.02907308,-0.02736048,-0.
 06479594,0.09051509,-0.17614742,-0.18374028,-0.10171492,0.00407458,0.0
 1815263,0.00339224,0.01267124,0.00291908,0.00770828,0.00172296,-0.0021
 4989,-0.00087161,0.00079435,0.00491046,-0.00009803,0.15688429,-0.13426
 478,-0.28306462,-0.11907344,-0.04387425,-0.05032610,-0.02494235,0.0025
 9116,0.00350742,0.00081341,0.01065176,-0.00294059,-0.00564679,0.004988
 09,-0.01759981,0.00145098,0.15990801,0.35042370,-0.08642910,-0.1339023
 0,-0.06408274,-0.01522675,-0.01241341,-0.00426640,0.00294227,0.0040226
 7,0.00326786,0.00308043,-0.00168884,-0.00441687,0.00404910,-0.00341631
 ,-0.00031822,0.09158404,0.14739820,0.06981636\\0.00000254,-0.00000010,
 0.00000445,0.00000268,0.00000094,-0.00000151,-0.00000062,0.00000130,-0
 .00000216,-0.00000032,0.00000067,-0.00000152,-0.00000044,-0.00000023,-
 0.00000258,-0.00000384,-0.00000258,0.00000331\\\@
 The archive entry for this job was punched.


 LIFE CAN ONLY BE UNDERSTOOD BACKWARD, BUT MUST
 BE LIVED FORWARD. -- KIRKEGAARD
 Job cpu time:       0 days  0 hours  5 minutes  3.4 seconds.
 Elapsed time:       0 days  0 hours  0 minutes 46.7 seconds.
 File lengths (MBytes):  RWF=     27 Int=      0 D2E=      0 Chk=      4 Scr=      1
 Normal termination of Gaussian 16 at Sat May 24 05:04:04 2025.
done
