 Entering Gaussian System, Link 0=g16
 Initial command:
 /apps/easybuild-2022/easybuild/software/Compiler/NVHPC/22.11-CUDA-11.7.0/Gaussian/g16c01-CUDA-11.7.0/g16/l1.exe "/tmp/Gau-142220.inp" -scrdir="/tmp/"
 Entering Link 1 = /apps/easybuild-2022/easybuild/software/Compiler/NVHPC/22.11-CUDA-11.7.0/Gaussian/g16c01-CUDA-11.7.0/g16/l1.exe PID=    142221.
  
 Copyright (c) 1988-2019, Gaussian, Inc.  All Rights Reserved.
  
 This is part of the Gaussian(R) 16 program.  It is based on
 the Gaussian(R) 09 system (copyright 2009, Gaussian, Inc.),
 the Gaussian(R) 03 system (copyright 2003, Gaussian, Inc.),
 the Gaussian(R) 98 system (copyright 1998, Gaussian, Inc.),
 the Gaussian(R) 94 system (copyright 1995, Gaussian, Inc.),
 the Gaussian 92(TM) system (copyright 1992, Gaussian, Inc.),
 the Gaussian 90(TM) system (copyright 1990, Gaussian, Inc.),
 the Gaussian 88(TM) system (copyright 1988, Gaussian, Inc.),
 the Gaussian 86(TM) system (copyright 1986, Carnegie Mellon
 University), and the Gaussian 82(TM) system (copyright 1983,
 Carnegie Mellon University). Gaussian is a federally registered
 trademark of Gaussian, Inc.
  
 This software contains proprietary and confidential information,
 including trade secrets, belonging to Gaussian, Inc.
  
 This software is provided under written license and may be
 used, copied, transmitted, or stored only in accord with that
 written license.
  
 The following legend is applicable only to US Government
 contracts under FAR:
  
                    RESTRICTED RIGHTS LEGEND
  
 Use, reproduction and disclosure by the US Government is
 subject to restrictions as set forth in subparagraphs (a)
 and (c) of the Commercial Computer Software - Restricted
 Rights clause in FAR 52.227-19.
  
 Gaussian, Inc.
 340 Quinnipiac St., Bldg. 40, Wallingford CT 06492
  
  
 ---------------------------------------------------------------
 Warning -- This program may not be used in any manner that
 competes with the business of Gaussian, Inc. or will provide
 assistance to any competitor of Gaussian, Inc.  The licensee
 of this program is prohibited from giving any competitor of
 Gaussian, Inc. access to this program.  By using this program,
 the user acknowledges that Gaussian, Inc. is engaged in the
 business of creating and licensing software in the field of
 computational chemistry and represents and warrants to the
 licensee that it is not a competitor of Gaussian, Inc. and that
 it will not use this program in any manner prohibited above.
 ---------------------------------------------------------------
  

 Cite this work as:
 Gaussian 16, Revision C.01,
 M. J. Frisch, G. W. Trucks, H. B. Schlegel, G. E. Scuseria, 
 M. A. Robb, J. R. Cheeseman, G. Scalmani, V. Barone, 
 G. A. Petersson, H. Nakatsuji, X. Li, M. Caricato, A. V. Marenich, 
 J. Bloino, B. G. Janesko, R. Gomperts, B. Mennucci, H. P. Hratchian, 
 J. V. Ortiz, A. F. Izmaylov, J. L. Sonnenberg, D. Williams-Young, 
 F. Ding, F. Lipparini, F. Egidi, J. Goings, B. Peng, A. Petrone, 
 T. Henderson, D. Ranasinghe, V. G. Zakrzewski, J. Gao, N. Rega, 
 G. Zheng, W. Liang, M. Hada, M. Ehara, K. Toyota, R. Fukuda, 
 J. Hasegawa, M. Ishida, T. Nakajima, Y. Honda, O. Kitao, H. Nakai, 
 T. Vreven, K. Throssell, J. A. Montgomery, Jr., J. E. Peralta, 
 F. Ogliaro, M. J. Bearpark, J. J. Heyd, E. N. Brothers, K. N. Kudin, 
 V. N. Staroverov, T. A. Keith, R. Kobayashi, J. Normand, 
 K. Raghavachari, A. P. Rendell, J. C. Burant, S. S. Iyengar, 
 J. Tomasi, M. Cossi, J. M. Millam, M. Klene, C. Adamo, R. Cammi, 
 J. W. Ochterski, R. L. Martin, K. Morokuma, O. Farkas, 
 J. B. Foresman, and D. J. Fox, Gaussian, Inc., Wallingford CT, 2019.
 
 ******************************************
 Gaussian 16:  ES64L-G16RevC.01  3-Jul-2019
                23-May-2025 
 ******************************************
 %mem=28GB
 %chk=1472314214191050000002_well
 %nprocshared=8
 Will use up to    8 processors via shared memory.
 -----------------------------------------------------------------
 #P M062X/Def2TZVPP Symm(None) scf(xqc) pop(None) freq opt(CalcFC)
 -----------------------------------------------------------------
 1/10=4,18=20,19=15,26=3,38=1/1,3;
 2/9=110,12=2,15=3,17=6,18=5,40=1/2;
 3/5=44,7=202,11=2,25=1,30=1,71=2,74=-55,140=1/1,2,3;
 4//1;
 5/5=2,8=3,13=1,38=5/2,8;
 8/6=4,10=90,11=11/1;
 11/6=1,8=1,9=11,15=111,16=1,31=1/1,2,10;
 10/6=1,13=1,31=1/2;
 7/10=1,25=1,30=1/1,2,3,16;
 1/10=4,18=20,19=15,26=3/3(2);
 2/9=110,15=3/2;
 99//99;
 2/9=110,15=3/2;
 3/5=44,7=202,11=2,25=1,30=1,71=1,74=-55/1,2,3;
 4/5=5,16=3,69=1/1;
 5/5=2,8=3,13=1,38=5/2,8;
 7/30=1/1,2,3,16;
 1/18=20,19=15,26=3/3(-5);
 2/9=110,15=3/2;
 99/9=1/99;
 Leave Link    1 at Fri May 23 23:57:49 2025, MaxMem=  3758096384 cpu:               0.0 elap:               0.0
 (Enter /apps/easybuild-2022/easybuild/software/Compiler/NVHPC/22.11-CUDA-11.7.0/Gaussian/g16c01-CUDA-11.7.0/g16/l101.exe)
 ------------------------------
 Gaussian input prepared by ASE
 ------------------------------
 Symbolic Z-matrix:
 Charge =  0 Multiplicity = 2
 C                     1.54417   0.00033   0.00026 
 O                     2.18879  -0.99734   0.01028 
 C                    -0.00009  -0.0004    0.00006 
 C                    -0.59403   0.38809   1.37161 
 F                    -1.90855   0.2379    1.35214 
 F                    -0.08211  -0.39583   2.31421 
 F                    -0.31057   1.64897   1.66397 
 F                    -0.46602   0.86316  -0.91479 
 F                    -0.42996  -1.22637  -0.29776 
 
 ITRead=  0  0  0  0  0  0  0  0  0
 MicOpt= -1 -1 -1 -1 -1 -1 -1 -1 -1
 NAtoms=      9 NQM=        9 NQMF=       0 NMMI=      0 NMMIF=      0
                NMic=       0 NMicF=      0.
                    Isotopes and Nuclear Properties:
 (Nuclear quadrupole moments (NQMom) in fm**2, nuclear magnetic moments (NMagM)
  in nuclear magnetons)

  Atom         1           2           3           4           5           6           7           8           9
 IAtWgt=          12          16          12          12          19          19          19          19          19
 AtmWgt=  12.0000000  15.9949146  12.0000000  12.0000000  18.9984032  18.9984032  18.9984032  18.9984032  18.9984032
 NucSpn=           0           0           0           0           1           1           1           1           1
 AtZEff=  -0.0000000  -0.0000000  -0.0000000  -0.0000000  -0.0000000  -0.0000000  -0.0000000  -0.0000000  -0.0000000
 NQMom=    0.0000000   0.0000000   0.0000000   0.0000000   0.0000000   0.0000000   0.0000000   0.0000000   0.0000000
 NMagM=    0.0000000   0.0000000   0.0000000   0.0000000   2.6288670   2.6288670   2.6288670   2.6288670   2.6288670
 AtZNuc=   6.0000000   8.0000000   6.0000000   6.0000000   9.0000000   9.0000000   9.0000000   9.0000000   9.0000000
 Leave Link  101 at Fri May 23 23:57:50 2025, MaxMem=  3758096384 cpu:               0.2 elap:               0.2
 (Enter /apps/easybuild-2022/easybuild/software/Compiler/NVHPC/22.11-CUDA-11.7.0/Gaussian/g16c01-CUDA-11.7.0/g16/l103.exe)

 GradGradGradGradGradGradGradGradGradGradGradGradGradGradGradGradGradGrad
 Berny optimization.
 Initialization pass.
                           ----------------------------
                           !    Initial Parameters    !
                           ! (Angstroms and Degrees)  !
 --------------------------                            --------------------------
 ! Name  Definition              Value          Derivative Info.                !
 --------------------------------------------------------------------------------
 ! R1    R(1,2)                  1.1878         calculate D2E/DX2 analytically  !
 ! R2    R(1,3)                  1.5443         calculate D2E/DX2 analytically  !
 ! R3    R(3,4)                  1.5443         calculate D2E/DX2 analytically  !
 ! R4    R(3,8)                  1.3416         calculate D2E/DX2 analytically  !
 ! R5    R(3,9)                  1.3328         calculate D2E/DX2 analytically  !
 ! R6    R(4,5)                  1.3232         calculate D2E/DX2 analytically  !
 ! R7    R(4,6)                  1.3286         calculate D2E/DX2 analytically  !
 ! R8    R(4,7)                  1.325          calculate D2E/DX2 analytically  !
 ! A1    A(2,1,3)              122.8393         calculate D2E/DX2 analytically  !
 ! A2    A(1,3,4)              112.6044         calculate D2E/DX2 analytically  !
 ! A3    A(1,3,8)              110.3094         calculate D2E/DX2 analytically  !
 ! A4    A(1,3,9)              108.8434         calculate D2E/DX2 analytically  !
 ! A5    A(4,3,8)              108.0679         calculate D2E/DX2 analytically  !
 ! A6    A(4,3,9)              107.8063         calculate D2E/DX2 analytically  !
 ! A7    A(8,3,9)              109.1293         calculate D2E/DX2 analytically  !
 ! A8    A(3,4,5)              109.9042         calculate D2E/DX2 analytically  !
 ! A9    A(3,4,6)              109.4808         calculate D2E/DX2 analytically  !
 ! A10   A(3,4,7)              110.6755         calculate D2E/DX2 analytically  !
 ! A11   A(5,4,6)              109.0417         calculate D2E/DX2 analytically  !
 ! A12   A(5,4,7)              108.892          calculate D2E/DX2 analytically  !
 ! A13   A(6,4,7)              108.8153         calculate D2E/DX2 analytically  !
 ! D1    D(2,1,3,4)            105.2541         calculate D2E/DX2 analytically  !
 ! D2    D(2,1,3,8)           -133.928          calculate D2E/DX2 analytically  !
 ! D3    D(2,1,3,9)            -14.2242         calculate D2E/DX2 analytically  !
 ! D4    D(1,3,4,5)           -173.6023         calculate D2E/DX2 analytically  !
 ! D5    D(1,3,4,6)            -53.8576         calculate D2E/DX2 analytically  !
 ! D6    D(1,3,4,7)             66.0861         calculate D2E/DX2 analytically  !
 ! D7    D(8,3,4,5)             64.3045         calculate D2E/DX2 analytically  !
 ! D8    D(8,3,4,6)           -175.9508         calculate D2E/DX2 analytically  !
 ! D9    D(8,3,4,7)            -56.0071         calculate D2E/DX2 analytically  !
 ! D10   D(9,3,4,5)            -53.5237         calculate D2E/DX2 analytically  !
 ! D11   D(9,3,4,6)             66.221          calculate D2E/DX2 analytically  !
 ! D12   D(9,3,4,7)           -173.8353         calculate D2E/DX2 analytically  !
 --------------------------------------------------------------------------------
 Trust Radius=3.00D-01 FncErr=1.00D-07 GrdErr=1.00D-06 EigMax=2.50D+02 EigMin=1.00D-04
 Number of steps in this run=     43 maximum allowed number of steps=    100.
 GradGradGradGradGradGradGradGradGradGradGradGradGradGradGradGradGradGrad

 Leave Link  103 at Fri May 23 23:57:50 2025, MaxMem=  3758096384 cpu:               0.0 elap:               0.0
 (Enter /apps/easybuild-2022/easybuild/software/Compiler/NVHPC/22.11-CUDA-11.7.0/Gaussian/g16c01-CUDA-11.7.0/g16/l202.exe)
                          Input orientation:                          
 ---------------------------------------------------------------------
 Center     Atomic      Atomic             Coordinates (Angstroms)
 Number     Number       Type             X           Y           Z
 ---------------------------------------------------------------------
      1          6           0        1.544169    0.000332    0.000259
      2          8           0        2.188791   -0.997335    0.010284
      3          6           0       -0.000090   -0.000400    0.000056
      4          6           0       -0.594031    0.388093    1.371614
      5          9           0       -1.908545    0.237901    1.352139
      6          9           0       -0.082109   -0.395825    2.314205
      7          9           0       -0.310572    1.648965    1.663967
      8          9           0       -0.466017    0.863156   -0.914788
      9          9           0       -0.429956   -1.226369   -0.297757
 ---------------------------------------------------------------------
                    Distance matrix (angstroms):
                    1          2          3          4          5
     1  C    0.000000
     2  O    1.187846   0.000000
     3  C    1.544259   2.405241   0.000000
     4  C    2.569605   3.393631   1.544301   0.000000
     5  F    3.715542   4.484924   2.350982   1.323210   0.000000
     6  F    2.855883   3.290418   2.349122   1.328559   2.159409
     7  F    2.987638   3.998048   2.363346   1.324997   2.154497
     8  F    2.371207   3.371230   1.341550   2.338740   2.758766
     9  F    2.343241   2.646730   1.332846   2.328134   2.655648
                    6          7          8          9
     6  F    0.000000
     7  F    2.157816   0.000000
     8  F    3.486949   2.700303   0.000000
     9  F    2.762815   3.482838   2.179023   0.000000
 Symmetry turned off by external request.
 Stoichiometry    C3F5O
 Rotational constants (GHZ):           2.3645817           1.4678877           1.3205302
 Leave Link  202 at Fri May 23 23:57:50 2025, MaxMem=  3758096384 cpu:               0.0 elap:               0.0
 (Enter /apps/easybuild-2022/easybuild/software/Compiler/NVHPC/22.11-CUDA-11.7.0/Gaussian/g16c01-CUDA-11.7.0/g16/l301.exe)
 Standard basis: def2TZVPP (5D, 7F)
 Ernie: Thresh=  0.10000D-02 Tol=  0.10000D-05 Strict=F.
   279 basis functions,   459 primitive gaussians,   324 cartesian basis functions
    36 alpha electrons       35 beta electrons
       nuclear repulsion energy       513.5816604381 Hartrees.
 IExCor= 4336 DFT=T Ex+Corr=M062X ExCW=0 ScaHFX=  0.540000
 ScaDFX=  1.000000  1.000000  1.000000  1.000000 ScalE2=  1.000000  1.000000
 IRadAn=      5 IRanWt=     -1 IRanGd=            0 ICorTp=0 IEmpDi=  4
 NAtoms=    9 NActive=    9 NUniq=    9 SFac= 1.00D+00 NAtFMM=   60 NAOKFM=F Big=F
 Integral buffers will be    131072 words long.
 Raffenetti 2 integral format.
 Two-electron integral symmetry is turned off.
 Leave Link  301 at Fri May 23 23:57:50 2025, MaxMem=  3758096384 cpu:               0.0 elap:               0.0
 (Enter /apps/easybuild-2022/easybuild/software/Compiler/NVHPC/22.11-CUDA-11.7.0/Gaussian/g16c01-CUDA-11.7.0/g16/l302.exe)
 NPDir=0 NMtPBC=     1 NCelOv=     1 NCel=       1 NClECP=     1 NCelD=      1
         NCelK=      1 NCelE2=     1 NClLst=     1 CellRange=     0.0.
 One-electron integrals computed using PRISM.
   1 Symmetry operations used in ECPInt.
 ECPInt:  NShTT=    4950 NPrTT=   16488 LenC2=    4755 LenP2D=   12175.
 LDataN:  DoStor=T MaxTD1= 6 Len=  172
 NBasis=   279 RedAO= T EigKep=  5.08D-04  NBF=   279
 NBsUse=   279 1.00D-06 EigRej= -1.00D+00 NBFU=   279
 Precomputing XC quadrature grid using
 IXCGrd= 4 IRadAn=           5 IRanWt=          -1 IRanGd=           0 AccXCQ= 0.00D+00.
 Generated NRdTot=       0 NPtTot=           0 NUsed=           0 NTot=          32
 NSgBfM=   323   323   323   323   323 MxSgAt=     9 MxSgA2=     9.
 Leave Link  302 at Fri May 23 23:57:50 2025, MaxMem=  3758096384 cpu:               0.5 elap:               0.1
 (Enter /apps/easybuild-2022/easybuild/software/Compiler/NVHPC/22.11-CUDA-11.7.0/Gaussian/g16c01-CUDA-11.7.0/g16/l303.exe)
 DipDrv:  MaxL=1.
 Leave Link  303 at Fri May 23 23:57:50 2025, MaxMem=  3758096384 cpu:               0.0 elap:               0.0
 (Enter /apps/easybuild-2022/easybuild/software/Compiler/NVHPC/22.11-CUDA-11.7.0/Gaussian/g16c01-CUDA-11.7.0/g16/l401.exe)
 ExpMin= 9.52D-02 ExpMax= 3.55D+04 ExpMxC= 1.21D+03 IAcc=3 IRadAn=         5 AccDes= 0.00D+00
 Harris functional with IExCor= 1009 and IRadAn=       5 diagonalized for initial guess.
 HarFok:  IExCor= 1009 AccDes= 0.00D+00 IRadAn=         5 IDoV= 1 UseB2=F ITyADJ=14
 ICtDFT=  3500011 ScaDFX=  1.000000  1.000000  1.000000  1.000000
 FoFCou: FMM=F IPFlag=           0 FMFlag=      100000 FMFlg1=           0
         NFxFlg=           0 DoJE=T BraDBF=F KetDBF=T FulRan=T
         wScrn=  0.000000 ICntrl=       500 IOpCl=  0 I1Cent=   200000004 NGrid=           0
         NMat0=    1 NMatS0=      1 NMatT0=    0 NMatD0=    1 NMtDS0=    0 NMtDT0=    0
 Symmetry not used in FoFCou.
 Harris En= -688.285445484099    
 JPrj=0 DoOrth=F DoCkMO=F.
 Initial guess <Sx>= 0.0000 <Sy>= 0.0000 <Sz>= 0.5000 <S**2>= 0.7500 S= 0.5000
 Leave Link  401 at Fri May 23 23:57:50 2025, MaxMem=  3758096384 cpu:               2.2 elap:               0.3
 (Enter /apps/easybuild-2022/easybuild/software/Compiler/NVHPC/22.11-CUDA-11.7.0/Gaussian/g16c01-CUDA-11.7.0/g16/l502.exe)
 Keep R1 and R2 ints in memory in canonical form, NReq=1542887460.
 FoFCou: FMM=F IPFlag=           0 FMFlag=           0 FMFlg1=           0
         NFxFlg=           0 DoJE=F BraDBF=F KetDBF=F FulRan=T
         wScrn=  0.000000 ICntrl=       600 IOpCl=  0 I1Cent=           0 NGrid=           0
         NMat0=    1 NMatS0=  39060 NMatT0=    0 NMatD0=    1 NMtDS0=    0 NMtDT0=    0
 Symmetry not used in FoFCou.
 Two-electron integral symmetry not used.
 UHF open shell SCF:
 Using DIIS extrapolation, IDIIS=  1040.
 NGot=  3758096384 LenX=  2232158908 LenY=  2232053491
 Requested convergence on RMS density matrix=1.00D-08 within  32 cycles.
 Requested convergence on MAX density matrix=1.00D-06.
 Requested convergence on             energy=1.00D-06.
 No special actions if energy rises.
 Integral accuracy reduced to 1.0D-05 until final iterations.

 Cycle   1  Pass 0  IDiag  1:
 E= -688.631669768068    
 DIIS: error= 1.87D-02 at cycle   1 NSaved=   1.
 NSaved= 1 IEnMin= 1 EnMin= -688.631669768068     IErMin= 1 ErrMin= 1.87D-02
 ErrMax= 1.87D-02  0.00D+00 EMaxC= 1.00D-01 BMatC= 9.97D-01 BMatP= 9.97D-01
 IDIUse=3 WtCom= 8.13D-01 WtEn= 1.87D-01
 Coeff-Com:  0.100D+01
 Coeff-En:   0.100D+01
 Coeff:      0.100D+01
 Gap=     0.275 Goal=   None    Shift=    0.000
 Gap=     0.425 Goal=   None    Shift=    0.000
 GapD=    0.275 DampG=1.000 DampE=0.500 DampFc=0.5000 IDamp=-1.
 Damping current iteration by 5.00D-01
 RMSDP=1.92D-03 MaxDP=7.50D-02              OVMax= 1.90D-01

 Cycle   2  Pass 0  IDiag  1:
 E= -688.670030200831     Delta-E=       -0.038360432763 Rises=F Damp=T
 DIIS: error= 8.13D-03 at cycle   2 NSaved=   2.
 NSaved= 2 IEnMin= 2 EnMin= -688.670030200831     IErMin= 2 ErrMin= 8.13D-03
 ErrMax= 8.13D-03  0.00D+00 EMaxC= 1.00D-01 BMatC= 1.46D-01 BMatP= 9.97D-01
 IDIUse=3 WtCom= 9.19D-01 WtEn= 8.13D-02
 Coeff-Com:  0.701D-01 0.930D+00
 Coeff-En:   0.269D+00 0.731D+00
 Coeff:      0.862D-01 0.914D+00
 Gap=     0.294 Goal=   None    Shift=    0.000
 Gap=     0.406 Goal=   None    Shift=    0.000
 RMSDP=6.88D-04 MaxDP=2.08D-02 DE=-3.84D-02 OVMax= 1.48D-01

 Cycle   3  Pass 0  IDiag  1:
 E= -688.734931403621     Delta-E=       -0.064901202790 Rises=F Damp=F
 DIIS: error= 6.91D-03 at cycle   3 NSaved=   3.
 NSaved= 3 IEnMin= 3 EnMin= -688.734931403621     IErMin= 3 ErrMin= 6.91D-03
 ErrMax= 6.91D-03  0.00D+00 EMaxC= 1.00D-01 BMatC= 6.85D-02 BMatP= 1.46D-01
 IDIUse=3 WtCom= 9.31D-01 WtEn= 6.91D-02
 Coeff-Com: -0.108D+00 0.400D+00 0.708D+00
 Coeff-En:   0.000D+00 0.000D+00 0.100D+01
 Coeff:     -0.100D+00 0.372D+00 0.728D+00
 Gap=     0.274 Goal=   None    Shift=    0.000
 Gap=     0.381 Goal=   None    Shift=    0.000
 RMSDP=3.37D-04 MaxDP=2.12D-02 DE=-6.49D-02 OVMax= 5.87D-02

 Cycle   4  Pass 0  IDiag  1:
 E= -688.743712782951     Delta-E=       -0.008781379330 Rises=F Damp=F
 DIIS: error= 2.84D-03 at cycle   4 NSaved=   4.
 NSaved= 4 IEnMin= 4 EnMin= -688.743712782951     IErMin= 4 ErrMin= 2.84D-03
 ErrMax= 2.84D-03  0.00D+00 EMaxC= 1.00D-01 BMatC= 2.33D-02 BMatP= 6.85D-02
 IDIUse=3 WtCom= 9.72D-01 WtEn= 2.84D-02
 Coeff-Com: -0.648D-01 0.121D+00 0.444D+00 0.500D+00
 Coeff-En:   0.000D+00 0.000D+00 0.247D+00 0.753D+00
 Coeff:     -0.630D-01 0.117D+00 0.439D+00 0.507D+00
 Gap=     0.273 Goal=   None    Shift=    0.000
 Gap=     0.383 Goal=   None    Shift=    0.000
 RMSDP=1.22D-04 MaxDP=6.81D-03 DE=-8.78D-03 OVMax= 1.89D-02

 Cycle   5  Pass 0  IDiag  1:
 E= -688.747601464969     Delta-E=       -0.003888682018 Rises=F Damp=F
 DIIS: error= 2.23D-04 at cycle   5 NSaved=   5.
 NSaved= 5 IEnMin= 5 EnMin= -688.747601464969     IErMin= 5 ErrMin= 2.23D-04
 ErrMax= 2.23D-04  0.00D+00 EMaxC= 1.00D-01 BMatC= 1.40D-04 BMatP= 2.33D-02
 IDIUse=3 WtCom= 9.98D-01 WtEn= 2.23D-03
 Coeff-Com: -0.101D-01 0.123D-01 0.768D-01 0.122D+00 0.799D+00
 Coeff-En:   0.000D+00 0.000D+00 0.000D+00 0.000D+00 0.100D+01
 Coeff:     -0.101D-01 0.123D-01 0.766D-01 0.121D+00 0.800D+00
 Gap=     0.274 Goal=   None    Shift=    0.000
 Gap=     0.385 Goal=   None    Shift=    0.000
 RMSDP=2.05D-05 MaxDP=9.78D-04 DE=-3.89D-03 OVMax= 3.06D-03

 Cycle   6  Pass 0  IDiag  1:
 E= -688.747637059526     Delta-E=       -0.000035594557 Rises=F Damp=F
 DIIS: error= 1.11D-04 at cycle   6 NSaved=   6.
 NSaved= 6 IEnMin= 6 EnMin= -688.747637059526     IErMin= 6 ErrMin= 1.11D-04
 ErrMax= 1.11D-04  0.00D+00 EMaxC= 1.00D-01 BMatC= 1.81D-05 BMatP= 1.40D-04
 IDIUse=3 WtCom= 9.99D-01 WtEn= 1.11D-03
 Coeff-Com:  0.429D-02-0.929D-02-0.313D-01-0.292D-01 0.178D+00 0.887D+00
 Coeff-En:   0.000D+00 0.000D+00 0.000D+00 0.000D+00 0.000D+00 0.100D+01
 Coeff:      0.428D-02-0.928D-02-0.312D-01-0.291D-01 0.178D+00 0.887D+00
 Gap=     0.274 Goal=   None    Shift=    0.000
 Gap=     0.384 Goal=   None    Shift=    0.000
 RMSDP=1.32D-05 MaxDP=1.83D-03 DE=-3.56D-05 OVMax= 1.60D-03

 Cycle   7  Pass 0  IDiag  1:
 E= -688.747644481161     Delta-E=       -0.000007421635 Rises=F Damp=F
 DIIS: error= 4.67D-05 at cycle   7 NSaved=   7.
 NSaved= 7 IEnMin= 7 EnMin= -688.747644481161     IErMin= 7 ErrMin= 4.67D-05
 ErrMax= 4.67D-05  0.00D+00 EMaxC= 1.00D-01 BMatC= 3.37D-06 BMatP= 1.81D-05
 IDIUse=1 WtCom= 1.00D+00 WtEn= 0.00D+00
 Coeff-Com:  0.257D-02-0.462D-02-0.197D-01-0.241D-01-0.196D-01 0.297D+00
 Coeff-Com:  0.768D+00
 Coeff:      0.257D-02-0.462D-02-0.197D-01-0.241D-01-0.196D-01 0.297D+00
 Coeff:      0.768D+00
 Gap=     0.274 Goal=   None    Shift=    0.000
 Gap=     0.385 Goal=   None    Shift=    0.000
 RMSDP=4.70D-06 MaxDP=5.69D-04 DE=-7.42D-06 OVMax= 8.05D-04

 Initial convergence to 1.0D-05 achieved.  Increase integral accuracy.
 Cycle   8  Pass 1  IDiag  1:
 E= -688.747665614646     Delta-E=       -0.000021133485 Rises=F Damp=F
 DIIS: error= 2.52D-05 at cycle   1 NSaved=   1.
 NSaved= 1 IEnMin= 1 EnMin= -688.747665614646     IErMin= 1 ErrMin= 2.52D-05
 ErrMax= 2.52D-05  0.00D+00 EMaxC= 1.00D-01 BMatC= 2.42D-06 BMatP= 2.42D-06
 IDIUse=1 WtCom= 1.00D+00 WtEn= 0.00D+00
 Coeff-Com:  0.100D+01
 Coeff:      0.100D+01
 Gap=     0.274 Goal=   None    Shift=    0.000
 Gap=     0.385 Goal=   None    Shift=    0.000
 RMSDP=4.70D-06 MaxDP=5.69D-04 DE=-2.11D-05 OVMax= 4.41D-04

 Cycle   9  Pass 1  IDiag  1:
 E= -688.747666463736     Delta-E=       -0.000000849090 Rises=F Damp=F
 DIIS: error= 1.63D-05 at cycle   2 NSaved=   2.
 NSaved= 2 IEnMin= 2 EnMin= -688.747666463736     IErMin= 2 ErrMin= 1.63D-05
 ErrMax= 1.63D-05  0.00D+00 EMaxC= 1.00D-01 BMatC= 6.13D-07 BMatP= 2.42D-06
 IDIUse=1 WtCom= 1.00D+00 WtEn= 0.00D+00
 Coeff-Com:  0.206D+00 0.794D+00
 Coeff:      0.206D+00 0.794D+00
 Gap=     0.274 Goal=   None    Shift=    0.000
 Gap=     0.385 Goal=   None    Shift=    0.000
 RMSDP=1.85D-06 MaxDP=9.37D-05 DE=-8.49D-07 OVMax= 2.30D-04

 Cycle  10  Pass 1  IDiag  1:
 E= -688.747666689111     Delta-E=       -0.000000225375 Rises=F Damp=F
 DIIS: error= 1.26D-05 at cycle   3 NSaved=   3.
 NSaved= 3 IEnMin= 3 EnMin= -688.747666689111     IErMin= 3 ErrMin= 1.26D-05
 ErrMax= 1.26D-05  0.00D+00 EMaxC= 1.00D-01 BMatC= 2.96D-07 BMatP= 6.13D-07
 IDIUse=1 WtCom= 1.00D+00 WtEn= 0.00D+00
 Coeff-Com: -0.102D+00 0.364D+00 0.738D+00
 Coeff:     -0.102D+00 0.364D+00 0.738D+00
 Gap=     0.274 Goal=   None    Shift=    0.000
 Gap=     0.385 Goal=   None    Shift=    0.000
 RMSDP=1.17D-06 MaxDP=6.18D-05 DE=-2.25D-07 OVMax= 1.80D-04

 Cycle  11  Pass 1  IDiag  1:
 E= -688.747666837464     Delta-E=       -0.000000148353 Rises=F Damp=F
 DIIS: error= 7.91D-06 at cycle   4 NSaved=   4.
 NSaved= 4 IEnMin= 4 EnMin= -688.747666837464     IErMin= 4 ErrMin= 7.91D-06
 ErrMax= 7.91D-06  0.00D+00 EMaxC= 1.00D-01 BMatC= 5.22D-08 BMatP= 2.96D-07
 IDIUse=1 WtCom= 1.00D+00 WtEn= 0.00D+00
 Coeff-Com:  0.121D-01-0.408D+00-0.417D+00 0.181D+01
 Coeff:      0.121D-01-0.408D+00-0.417D+00 0.181D+01
 Gap=     0.275 Goal=   None    Shift=    0.000
 Gap=     0.385 Goal=   None    Shift=    0.000
 RMSDP=1.41D-06 MaxDP=1.18D-04 DE=-1.48D-07 OVMax= 3.37D-04

 Cycle  12  Pass 1  IDiag  1:
 E= -688.747666940718     Delta-E=       -0.000000103254 Rises=F Damp=F
 DIIS: error= 4.87D-06 at cycle   5 NSaved=   5.
 NSaved= 5 IEnMin= 5 EnMin= -688.747666940718     IErMin= 5 ErrMin= 4.87D-06
 ErrMax= 4.87D-06  0.00D+00 EMaxC= 1.00D-01 BMatC= 2.44D-08 BMatP= 5.22D-08
 IDIUse=1 WtCom= 1.00D+00 WtEn= 0.00D+00
 Coeff-Com:  0.312D-01-0.317D+00-0.410D+00 0.106D+01 0.632D+00
 Coeff:      0.312D-01-0.317D+00-0.410D+00 0.106D+01 0.632D+00
 Gap=     0.275 Goal=   None    Shift=    0.000
 Gap=     0.385 Goal=   None    Shift=    0.000
 RMSDP=4.51D-07 MaxDP=3.09D-05 DE=-1.03D-07 OVMax= 1.02D-04

 Cycle  13  Pass 1  IDiag  1:
 E= -688.747666955444     Delta-E=       -0.000000014726 Rises=F Damp=F
 DIIS: error= 2.37D-06 at cycle   6 NSaved=   6.
 NSaved= 6 IEnMin= 6 EnMin= -688.747666955444     IErMin= 6 ErrMin= 2.37D-06
 ErrMax= 2.37D-06  0.00D+00 EMaxC= 1.00D-01 BMatC= 4.72D-09 BMatP= 2.44D-08
 IDIUse=1 WtCom= 1.00D+00 WtEn= 0.00D+00
 Coeff-Com:  0.912D-02-0.252D-01-0.662D-01-0.439D-01 0.287D+00 0.840D+00
 Coeff:      0.912D-02-0.252D-01-0.662D-01-0.439D-01 0.287D+00 0.840D+00
 Gap=     0.275 Goal=   None    Shift=    0.000
 Gap=     0.385 Goal=   None    Shift=    0.000
 RMSDP=2.45D-07 MaxDP=2.23D-05 DE=-1.47D-08 OVMax= 6.36D-05

 Cycle  14  Pass 1  IDiag  1:
 E= -688.747666958535     Delta-E=       -0.000000003091 Rises=F Damp=F
 DIIS: error= 1.06D-06 at cycle   7 NSaved=   7.
 NSaved= 7 IEnMin= 7 EnMin= -688.747666958535     IErMin= 7 ErrMin= 1.06D-06
 ErrMax= 1.06D-06  0.00D+00 EMaxC= 1.00D-01 BMatC= 1.23D-09 BMatP= 4.72D-09
 IDIUse=1 WtCom= 1.00D+00 WtEn= 0.00D+00
 Coeff-Com: -0.400D-02 0.781D-01 0.851D-01-0.319D+00-0.436D-01 0.429D+00
 Coeff-Com:  0.774D+00
 Coeff:     -0.400D-02 0.781D-01 0.851D-01-0.319D+00-0.436D-01 0.429D+00
 Coeff:      0.774D+00
 Gap=     0.275 Goal=   None    Shift=    0.000
 Gap=     0.385 Goal=   None    Shift=    0.000
 RMSDP=1.00D-07 MaxDP=6.22D-06 DE=-3.09D-09 OVMax= 1.82D-05

 Cycle  15  Pass 1  IDiag  1:
 E= -688.747666959152     Delta-E=       -0.000000000617 Rises=F Damp=F
 DIIS: error= 2.69D-07 at cycle   8 NSaved=   8.
 NSaved= 8 IEnMin= 8 EnMin= -688.747666959152     IErMin= 8 ErrMin= 2.69D-07
 ErrMax= 2.69D-07  0.00D+00 EMaxC= 1.00D-01 BMatC= 1.83D-10 BMatP= 1.23D-09
 IDIUse=1 WtCom= 1.00D+00 WtEn= 0.00D+00
 Coeff-Com: -0.383D-02 0.404D-01 0.525D-01-0.138D+00-0.765D-01 0.316D-01
 Coeff-Com:  0.318D+00 0.776D+00
 Coeff:     -0.383D-02 0.404D-01 0.525D-01-0.138D+00-0.765D-01 0.316D-01
 Coeff:      0.318D+00 0.776D+00
 Gap=     0.275 Goal=   None    Shift=    0.000
 Gap=     0.385 Goal=   None    Shift=    0.000
 RMSDP=4.49D-08 MaxDP=4.49D-06 DE=-6.17D-10 OVMax= 7.39D-06

 Cycle  16  Pass 1  IDiag  1:
 E= -688.747666959219     Delta-E=       -0.000000000067 Rises=F Damp=F
 DIIS: error= 9.80D-08 at cycle   9 NSaved=   9.
 NSaved= 9 IEnMin= 9 EnMin= -688.747666959219     IErMin= 9 ErrMin= 9.80D-08
 ErrMax= 9.80D-08  0.00D+00 EMaxC= 1.00D-01 BMatC= 1.63D-11 BMatP= 1.83D-10
 IDIUse=1 WtCom= 1.00D+00 WtEn= 0.00D+00
 Coeff-Com:  0.241D-03-0.842D-02-0.767D-02 0.382D-01-0.226D-02-0.765D-01
 Coeff-Com: -0.998D-01 0.127D+00 0.103D+01
 Coeff:      0.241D-03-0.842D-02-0.767D-02 0.382D-01-0.226D-02-0.765D-01
 Coeff:     -0.998D-01 0.127D+00 0.103D+01
 Gap=     0.275 Goal=   None    Shift=    0.000
 Gap=     0.385 Goal=   None    Shift=    0.000
 RMSDP=2.49D-08 MaxDP=2.44D-06 DE=-6.73D-11 OVMax= 2.94D-06

 Cycle  17  Pass 1  IDiag  1:
 E= -688.747666959236     Delta-E=       -0.000000000016 Rises=F Damp=F
 DIIS: error= 2.65D-08 at cycle  10 NSaved=  10.
 NSaved=10 IEnMin=10 EnMin= -688.747666959236     IErMin=10 ErrMin= 2.65D-08
 ErrMax= 2.65D-08  0.00D+00 EMaxC= 1.00D-01 BMatC= 1.50D-12 BMatP= 1.63D-11
 IDIUse=1 WtCom= 1.00D+00 WtEn= 0.00D+00
 Coeff-Com:  0.340D-03-0.438D-02-0.527D-02 0.164D-01 0.500D-02-0.117D-01
 Coeff-Com: -0.411D-01-0.442D-01 0.161D+00 0.924D+00
 Coeff:      0.340D-03-0.438D-02-0.527D-02 0.164D-01 0.500D-02-0.117D-01
 Coeff:     -0.411D-01-0.442D-01 0.161D+00 0.924D+00
 Gap=     0.275 Goal=   None    Shift=    0.000
 Gap=     0.385 Goal=   None    Shift=    0.000
 RMSDP=6.23D-09 MaxDP=4.25D-07 DE=-1.61D-11 OVMax= 1.23D-06

 SCF Done:  E(UM062X) =  -688.747666959     A.U. after   17 cycles
            NFock= 17  Conv=0.62D-08     -V/T= 2.0037
 <Sx>= 0.0000 <Sy>= 0.0000 <Sz>= 0.5000 <S**2>= 0.7540 S= 0.5020
 <L.S>=  0.00000000000    
 KE= 6.861858280154D+02 PE=-2.659893466302D+03 EE= 7.713783108895D+02
 Annihilation of the first spin contaminant:
 S**2 before annihilation     0.7540,   after     0.7500
 Leave Link  502 at Fri May 23 23:58:22 2025, MaxMem=  3758096384 cpu:             134.8 elap:              31.8
 (Enter /apps/easybuild-2022/easybuild/software/Compiler/NVHPC/22.11-CUDA-11.7.0/Gaussian/g16c01-CUDA-11.7.0/g16/l508.exe)
 QCSCF skips out because SCF is already converged.
 Leave Link  508 at Fri May 23 23:58:22 2025, MaxMem=  3758096384 cpu:               0.0 elap:               0.0
 (Enter /apps/easybuild-2022/easybuild/software/Compiler/NVHPC/22.11-CUDA-11.7.0/Gaussian/g16c01-CUDA-11.7.0/g16/l801.exe)
 DoSCS=F DFT=T ScalE2(SS,OS)=  1.000000  1.000000
 Range of M.O.s used for correlation:     1   279
 NBasis=   279 NAE=    36 NBE=    35 NFC=     0 NFV=     0
 NROrb=    279 NOA=    36 NOB=    35 NVA=   243 NVB=   244

 **** Warning!!: The largest alpha MO coefficient is  0.15513429D+02


 **** Warning!!: The largest beta MO coefficient is  0.15133225D+02

 Leave Link  801 at Fri May 23 23:58:22 2025, MaxMem=  3758096384 cpu:               0.0 elap:               0.0
 (Enter /apps/easybuild-2022/easybuild/software/Compiler/NVHPC/22.11-CUDA-11.7.0/Gaussian/g16c01-CUDA-11.7.0/g16/l1101.exe)
 Using compressed storage, NAtomX=     9.
 Will process     10 centers per pass.
   1 Symmetry operations used in ECPInt.
 ECPInt:  NShTT=    4950 NPrTT=   16488 LenC2=    4755 LenP2D=   12175.
 LDataN:  DoStor=T MaxTD1= 7 Len=  274
 Leave Link 1101 at Fri May 23 23:58:22 2025, MaxMem=  3758096384 cpu:               0.7 elap:               0.1
 (Enter /apps/easybuild-2022/easybuild/software/Compiler/NVHPC/22.11-CUDA-11.7.0/Gaussian/g16c01-CUDA-11.7.0/g16/l1102.exe)
 Symmetrizing basis deriv contribution to polar:
 IMax=3 JMax=2 DiffMx= 0.00D+00
 Leave Link 1102 at Fri May 23 23:58:22 2025, MaxMem=  3758096384 cpu:               0.1 elap:               0.0
 (Enter /apps/easybuild-2022/easybuild/software/Compiler/NVHPC/22.11-CUDA-11.7.0/Gaussian/g16c01-CUDA-11.7.0/g16/l1110.exe)
 Forming Gx(P) for the SCF density, NAtomX=     9.
 Integral derivatives from FoFJK, PRISM(SPDF).
 Do as many integral derivatives as possible in FoFJK.
 G2DrvN: MDV=    3758095321.
 G2DrvN: will do    10 centers at a time, making    1 passes.
 Calling FoFCou, ICntrl=  3107 FMM=F I1Cent=   0 AccDes= 0.00D+00.
 FoFJK:  IHMeth= 1 ICntrl=    3107 DoSepK=F KAlg= 0 I1Cent=           0 FoldK=F
 IRaf=         0 NMat=       1 IRICut=       1 DoRegI=T DoRafI=F ISym2E= 0 IDoP0=0 IntGTp=1.
 FoFCou: FMM=F IPFlag=           0 FMFlag=      100000 FMFlg1=           0
         NFxFlg=           0 DoJE=F BraDBF=F KetDBF=F FulRan=T
         wScrn=  0.000000 ICntrl=      3107 IOpCl=  1 I1Cent=           0 NGrid=           0
         NMat0=    1 NMatS0=      1 NMatT0=    0 NMatD0=    1 NMtDS0=    0 NMtDT0=    0
 Symmetry not used in FoFCou.
 End of G2Drv F.D. properties file   721 does not exist.
 End of G2Drv F.D. properties file   722 does not exist.
 End of G2Drv F.D. properties file   788 does not exist.
 Leave Link 1110 at Fri May 23 23:59:00 2025, MaxMem=  3758096384 cpu:             297.1 elap:              37.4
 (Enter /apps/easybuild-2022/easybuild/software/Compiler/NVHPC/22.11-CUDA-11.7.0/Gaussian/g16c01-CUDA-11.7.0/g16/l1002.exe)
 Minotr:  UHF open shell wavefunction.
          IDoAtm=111111111
          Direct CPHF calculation.
          Differentiating once with respect to nuclear coordinates.
          Requested convergence is 1.0D-08 RMS, and 1.0D-07 maximum.
          Secondary convergence is 1.0D-12 RMS, and 1.0D-12 maximum.
          NewPWx=T KeepS1=F KeepF1=F KeepIn=T MapXYZ=F SortEE=F KeepMc=T.
         2704 words used for storage of precomputed grid.
 Keep R1 and R2 ints in memory in canonical form, NReq=1542892240.
 FoFCou: FMM=F IPFlag=           0 FMFlag=           0 FMFlg1=           0
         NFxFlg=           0 DoJE=F BraDBF=F KetDBF=F FulRan=T
         wScrn=  0.000000 ICntrl=       600 IOpCl=  0 I1Cent=           0 NGrid=           0
         NMat0=    1 NMatS0=  39060 NMatT0=    0 NMatD0=    1 NMtDS0=    0 NMtDT0=    0
 Symmetry not used in FoFCou.
 Two-electron integral symmetry not used.
          MDV=    3758096384 using IRadAn=       1.
          Solving linear equations simultaneously, MaxMat=       0.
          There are    30 degrees of freedom in the 1st order CPHF.  IDoFFX=6 NUNeed=     0.
     24 vectors produced by pass  0 Test12= 5.76D-14 3.33D-09 XBig12= 2.23D-01 1.81D-01.
 AX will form    24 AO Fock derivatives at one time.
     24 vectors produced by pass  1 Test12= 5.76D-14 3.33D-09 XBig12= 7.77D-02 9.84D-02.
     24 vectors produced by pass  2 Test12= 5.76D-14 3.33D-09 XBig12= 7.97D-03 3.77D-02.
     24 vectors produced by pass  3 Test12= 5.76D-14 3.33D-09 XBig12= 2.30D-04 2.87D-03.
     24 vectors produced by pass  4 Test12= 5.76D-14 3.33D-09 XBig12= 7.03D-06 4.52D-04.
     24 vectors produced by pass  5 Test12= 5.76D-14 3.33D-09 XBig12= 1.31D-07 3.38D-05.
     24 vectors produced by pass  6 Test12= 5.76D-14 3.33D-09 XBig12= 1.88D-09 6.76D-06.
     24 vectors produced by pass  7 Test12= 5.76D-14 3.33D-09 XBig12= 2.25D-11 7.03D-07.
     10 vectors produced by pass  8 Test12= 5.76D-14 3.33D-09 XBig12= 2.43D-13 6.78D-08.
      1 vectors produced by pass  9 Test12= 5.76D-14 3.33D-09 XBig12= 2.42D-15 4.53D-09.
 InvSVY:  IOpt=1 It=  1 EMax= 1.33D-15
 Solved reduced A of dimension   203 with    24 vectors.
 End of Minotr F.D. properties file   721 does not exist.
 End of Minotr F.D. properties file   722 does not exist.
 End of Minotr F.D. properties file   788 does not exist.
 Leave Link 1002 at Sat May 24 00:00:02 2025, MaxMem=  3758096384 cpu:             480.1 elap:              61.9
 (Enter /apps/easybuild-2022/easybuild/software/Compiler/NVHPC/22.11-CUDA-11.7.0/Gaussian/g16c01-CUDA-11.7.0/g16/l701.exe)
 ... and contract with generalized density number  0.
 Compute integral second derivatives.
   1 Symmetry operations used in ECPInt.
 ECPInt:  NShTT=    4950 NPrTT=   16488 LenC2=    4755 LenP2D=   12175.
 LDataN:  DoStor=T MaxTD1= 8 Len=  415
 Leave Link  701 at Sat May 24 00:00:02 2025, MaxMem=  3758096384 cpu:               0.6 elap:               0.1
 (Enter /apps/easybuild-2022/easybuild/software/Compiler/NVHPC/22.11-CUDA-11.7.0/Gaussian/g16c01-CUDA-11.7.0/g16/l702.exe)
 L702 exits ... SP integral derivatives will be done elsewhere.
 Leave Link  702 at Sat May 24 00:00:02 2025, MaxMem=  3758096384 cpu:               0.0 elap:               0.0
 (Enter /apps/easybuild-2022/easybuild/software/Compiler/NVHPC/22.11-CUDA-11.7.0/Gaussian/g16c01-CUDA-11.7.0/g16/l703.exe)
 Integral derivatives from FoFJK, PRISM(SPDF).
 Compute integral second derivatives, UseDBF=F ICtDFT=           0.
 Calling FoFJK, ICntrl=    100127 FMM=F ISym2X=0 I1Cent= 0 IOpClX= 1 NMat=1 NMatS=1 NMatT=0.
 FoFJK:  IHMeth= 1 ICntrl=  100127 DoSepK=F KAlg= 0 I1Cent=           0 FoldK=F
 IRaf=         0 NMat=       1 IRICut=       1 DoRegI=T DoRafI=F ISym2E= 0 IDoP0=0 IntGTp=1.
 FoFCou: FMM=F IPFlag=           0 FMFlag=      100000 FMFlg1=         800
         NFxFlg=           0 DoJE=F BraDBF=F KetDBF=F FulRan=T
         wScrn=  0.000000 ICntrl=    100127 IOpCl=  1 I1Cent=           0 NGrid=           0
         NMat0=    1 NMatS0=      1 NMatT0=    0 NMatD0=    1 NMtDS0=    0 NMtDT0=    0
 Symmetry not used in FoFCou.
 Leave Link  703 at Sat May 24 00:01:10 2025, MaxMem=  3758096384 cpu:             541.5 elap:              68.1
 (Enter /apps/easybuild-2022/easybuild/software/Compiler/NVHPC/22.11-CUDA-11.7.0/Gaussian/g16c01-CUDA-11.7.0/g16/l716.exe)
 Dipole        =-5.86170248D-02 1.93716683D-01-3.65737705D-03
 Polarizability= 0.00000000D+00 0.00000000D+00 0.00000000D+00
                 0.00000000D+00 0.00000000D+00 0.00000000D+00
 -------------------------------------------------------------------
 Center     Atomic                   Forces (Hartrees/Bohr)
 Number     Number              X              Y              Z
 -------------------------------------------------------------------
      1        6           0.029981552   -0.035472277    0.001654606
      2        8          -0.024681551    0.040858852   -0.000083087
      3        6          -0.009370915    0.000645536   -0.001520579
      4        6           0.001787571    0.000515703    0.003635597
      5        9           0.001564190   -0.000176684   -0.001131997
      6        9          -0.000278788    0.000126526   -0.000977066
      7        9           0.001184543   -0.000545923   -0.001477726
      8        9           0.004560045   -0.002977925    0.002188754
      9        9          -0.004746648   -0.002973808   -0.002288501
 -------------------------------------------------------------------
 Cartesian Forces:  Max     0.040858852 RMS     0.013088762
 Force constants in Cartesian coordinates: 
                1             2             3             4             5 
      1  0.446826D+00
      2 -0.338680D+00  0.732542D+00
      3  0.677479D-02 -0.107742D-01  0.553989D-01
      4 -0.283515D+00  0.354527D+00 -0.296288D-02  0.328246D+00
      5  0.369454D+00 -0.654285D+00  0.627167D-02 -0.394601D+00  0.649545D+00
      6 -0.271452D-02  0.717348D-02 -0.233285D-01  0.388050D-02 -0.524719D-02
      7 -0.100076D+00 -0.863307D-02  0.914846D-02 -0.388182D-01  0.231289D-01
      8 -0.248921D-01 -0.508417D-01  0.256860D-02  0.366070D-01 -0.725924D-02
      9  0.112788D-02  0.539029D-02 -0.338566D-01  0.457866D-02 -0.864969D-02
     10 -0.162361D-01  0.709568D-02  0.182837D-01 -0.860935D-03 -0.103580D-02
     11  0.299317D-02  0.628155D-02 -0.214158D-02 -0.198299D-02 -0.147281D-02
     12  0.173953D-01 -0.875899D-02  0.535636D-02 -0.938585D-02  0.113152D-01
     13  0.571943D-02 -0.657557D-03  0.349943D-02 -0.320980D-02  0.303547D-02
     14 -0.730135D-04 -0.559645D-03 -0.215954D-03  0.313456D-03  0.208496D-03
     15 -0.329351D-02  0.810874D-03 -0.305558D-02  0.269483D-02 -0.252682D-02
     16 -0.429696D-03  0.912670D-03 -0.156367D-02  0.664595D-03 -0.150177D-02
     17  0.123763D-02 -0.182124D-02  0.995535D-03 -0.949764D-03  0.191911D-02
     18 -0.287526D-02  0.145072D-02 -0.119768D-02  0.258512D-02 -0.276489D-02
     19 -0.210550D-03 -0.316303D-03  0.280962D-03  0.266678D-03  0.401454D-03
     20 -0.735819D-03  0.238794D-03  0.495973D-03  0.683776D-03 -0.187983D-03
     21 -0.112713D-02  0.160821D-02 -0.572136D-03  0.101987D-02 -0.166988D-02
     22 -0.167980D-01  0.289052D-01 -0.267163D-01 -0.709764D-02  0.227763D-04
     23  0.123011D-01 -0.436067D-02  0.606756D-02  0.206333D-02  0.351210D-03
     24 -0.105779D-01  0.107820D-01 -0.409633D-02 -0.331958D-02  0.887045D-03
     25 -0.352799D-01 -0.431538D-01 -0.674447D-02  0.432385D-02  0.109606D-02
     26 -0.216052D-01 -0.271948D-01 -0.326765D-02  0.333941D-02  0.111803D-01
     27 -0.470965D-02 -0.768243D-02  0.535167D-02  0.909339D-03  0.238454D-02
                6             7             8             9            10 
      6  0.222549D-01
      7 -0.209012D-02  0.464390D+00
      8 -0.304626D-02  0.691299D-03  0.557502D+00
      9  0.281497D-02  0.330680D-01  0.658278D-02  0.516830D+00
     10 -0.215129D-03 -0.867092D-01  0.206415D-01  0.776327D-01  0.603547D+00
     11  0.126117D-02  0.946402D-02 -0.458537D-01 -0.339452D-01 -0.291278D-02
     12 -0.238598D-02  0.335363D-01 -0.378964D-01 -0.157839D+00 -0.171057D-01
     13 -0.210412D-03 -0.536985D-01 -0.625334D-02 -0.651730D-03 -0.319554D+00
     14 -0.387355D-04  0.494192D-02  0.207397D-02 -0.153064D-02 -0.204587D-01
     15  0.325518D-03  0.369392D-01  0.230598D-02 -0.832492D-03  0.214790D-01
     16  0.120346D-02  0.659553D-02  0.882883D-04 -0.608174D-03 -0.100585D+00
     17 -0.826051D-03  0.537113D-02 -0.610655D-02  0.581444D-02  0.395530D-01
     18  0.379481D-03 -0.204628D-01  0.366293D-01 -0.264930D-01 -0.497392D-01
     19 -0.335869D-03  0.874177D-02  0.502917D-02 -0.201320D-02 -0.836978D-01
     20 -0.542883D-03 -0.917559D-02 -0.338640D-01 -0.810202D-03 -0.310255D-01
     21  0.661811D-04 -0.787156D-02 -0.320340D-01 -0.101271D-04 -0.526539D-02
     22  0.200492D-02 -0.103375D+00  0.486218D-01 -0.786959D-01  0.229456D-02
     23  0.959041D-03  0.496482D-01 -0.145753D+00  0.109436D+00  0.433768D-02
     24 -0.443163D-03 -0.601929D-01  0.916150D-01 -0.204460D+00 -0.267242D-01
     25 -0.152283D-02 -0.970498D-01 -0.805335D-01 -0.344382D-01  0.180015D-02
     26  0.307428D-03 -0.754368D-01 -0.269897D+00 -0.822880D-01 -0.161951D-01
     27  0.316672D-03 -0.220747D-01 -0.667250D-01 -0.961531D-01 -0.183458D-01
               11            12            13            14            15 
     11  0.599102D+00
     12  0.116112D-01  0.615943D+00
     13 -0.175624D-01  0.277569D-01  0.448263D+00
     14 -0.782201D-01  0.198754D-03  0.433291D-01  0.881223D-01
     15 -0.989319D-03 -0.852852D-01  0.936596D-02 -0.337759D-03  0.739139D-01
     16  0.402376D-01 -0.547320D-01 -0.536425D-01  0.319089D-01 -0.490939D-01
     17 -0.142728D+00  0.996150D-01  0.222309D-01  0.703556D-02  0.905506D-02
     18  0.917615D-01 -0.232060D+00 -0.333820D-01  0.901721D-02 -0.364665D-03
     19 -0.341540D-01 -0.692607D-02 -0.363856D-01 -0.617549D-01 -0.170051D-01
     20 -0.289114D+00 -0.794703D-01 -0.447985D-01 -0.243616D-01 -0.805727D-02
     21 -0.700210D-01 -0.109691D+00 -0.982387D-02 -0.561367D-02  0.125845D-01
     22  0.180503D-02  0.518047D-02  0.649161D-02 -0.121117D-02 -0.865302D-03
     23 -0.104253D-01  0.699382D-02 -0.198463D-02  0.189999D-02 -0.401553D-03
     24  0.378447D-01 -0.309573D-01  0.304992D-02 -0.234127D-02  0.215147D-02
     25  0.211233D-02  0.428070D-02  0.601613D-02  0.300442D-02 -0.221301D-03
     26 -0.375694D-01 -0.360827D-02  0.266111D-02  0.380108D-02  0.140804D-03
     27 -0.353814D-01 -0.308031D-02  0.395857D-03  0.862066D-03  0.562528D-03
               16            17            18            19            20 
     16  0.132469D+00
     17 -0.801177D-01  0.208441D+00
     18  0.101132D+00 -0.156053D+00  0.261566D+00
     19  0.133304D-01  0.138343D-01  0.116145D-03  0.972841D-01
     20  0.835469D-02 -0.740071D-01  0.228725D-01  0.751594D-01  0.418908D+00
     21  0.122097D-03  0.397673D-01  0.133234D-01  0.213390D-01  0.759701D-01
     22  0.917376D-03 -0.103300D-02  0.198052D-02  0.360134D-03 -0.786236D-03
     23 -0.312202D-03  0.158646D-02  0.120715D-02 -0.417839D-03  0.630290D-02
     24  0.252179D-02  0.105280D-02 -0.151611D-01  0.161109D-02 -0.278527D-02
     25  0.680198D-03 -0.126440D-03  0.645127D-03  0.310847D-03  0.232384D-02
     26  0.429458D-03  0.568098D-02 -0.412052D-02  0.221872D-02 -0.391439D-02
     27  0.101800D-02  0.578922D-03  0.708711D-05  0.293304D-02 -0.767263D-02
               21            22            23            24            25 
     21  0.921442D-01
     22  0.488134D-04  0.103883D+00
     23 -0.531468D-03 -0.741103D-01  0.219565D+00
     24  0.533646D-03  0.887443D-01 -0.157355D+00  0.239070D+00
     25  0.155816D-02  0.133234D-01  0.847476D-02  0.488753D-02  0.105875D+00
     26 -0.747556D-02 -0.221406D-02 -0.691668D-01  0.202998D-01  0.106802D+00
     27 -0.837822D-02  0.831857D-02  0.336240D-01  0.133637D-01  0.315553D-01
               26            27 
     26  0.387080D+00
     27  0.800120D-01  0.880100D-01
 FormGI is forming the generalized inverse of G from B-inverse, IUseBI=4.
 Force constants in internal coordinates: 
                1             2             3             4             5 
      1  0.914719D+00
      2  0.453844D-01  0.208047D+00
      3 -0.416280D-02  0.120920D-01  0.277953D+00
      4  0.361801D-02  0.270140D-01  0.185258D-01  0.427994D+00
      5  0.684999D-02  0.276532D-01  0.178651D-01  0.516333D-01  0.443703D+00
      6  0.420921D-02 -0.250879D-02  0.187095D-01  0.522638D-02  0.498276D-02
      7  0.454952D-02 -0.289974D-03  0.195841D-01  0.614164D-02  0.534404D-02
      8  0.878261D-03 -0.457475D-04  0.175330D-01  0.544752D-02  0.557148D-02
      9  0.337832D-01  0.536845D-01  0.634480D-03  0.109413D-01 -0.224106D-01
     10  0.490254D-02  0.893599D-03  0.817248D-02 -0.239520D-01 -0.223139D-01
     11  0.207121D-02  0.103690D-01 -0.132311D-01  0.994693D-02 -0.270168D-02
     12 -0.613580D-02  0.195159D-01 -0.136273D-01 -0.273927D-02  0.763882D-02
     13 -0.214201D-02 -0.118823D-01  0.126873D-01  0.201554D-01 -0.115789D-01
     14  0.107660D-02 -0.172005D-01  0.140346D-01 -0.120312D-01  0.214144D-01
     15  0.162926D-03 -0.264120D-02 -0.778100D-02  0.905747D-02  0.883353D-02
     16  0.609633D-02 -0.102410D-02  0.217255D-01 -0.322027D-02 -0.587892D-02
     17 -0.612035D-03 -0.102916D-03  0.145779D-01  0.176700D-01 -0.201909D-02
     18  0.190687D-02 -0.265163D-04  0.127541D-01 -0.429944D-02  0.165995D-01
     19 -0.276263D-02  0.677993D-03 -0.169783D-01 -0.409825D-02 -0.167750D-02
     20 -0.305604D-02  0.436942D-03 -0.170582D-01 -0.186264D-02 -0.301012D-02
     21 -0.173070D-02  0.642677D-04 -0.160083D-01 -0.433876D-02 -0.422467D-02
     22  0.988928D-04 -0.770304D-03  0.137602D-02 -0.162928D-01  0.165826D-01
     23  0.215191D-02 -0.803981D-02  0.138140D-01  0.225340D-03 -0.152867D-01
     24 -0.206296D-03  0.710160D-02 -0.121731D-01  0.156330D-01 -0.135123D-02
     25  0.331391D-02 -0.269510D-02 -0.885458D-03  0.857878D-02 -0.861400D-02
     26  0.328699D-02 -0.255523D-02  0.634191D-03  0.125076D-01 -0.155360D-01
     27  0.194528D-02 -0.255802D-02 -0.189308D-02  0.157405D-01 -0.116739D-01
     28 -0.975531D-03 -0.808042D-02  0.169131D-02 -0.251903D-02  0.172719D-01
     29 -0.100245D-02 -0.794055D-02  0.321096D-02  0.140976D-02  0.103499D-01
     30 -0.234416D-02 -0.794334D-02  0.683685D-03  0.464268D-02  0.142120D-01
     31 -0.600689D-03  0.106601D-01 -0.347435D-02 -0.175225D-01  0.151485D-02
     32 -0.627610D-03  0.107999D-01 -0.195470D-02 -0.135937D-01 -0.540715D-02
     33 -0.196932D-02  0.107971D-01 -0.448197D-02 -0.103608D-01 -0.154508D-02
                6             7             8             9            10 
      6  0.453587D+00
      7  0.558037D-01  0.446275D+00
      8  0.566398D-01  0.563469D-01  0.452794D+00
      9  0.222161D-02  0.467527D-03  0.126051D-02  0.211088D+00
     10  0.105809D-01 -0.330951D-02 -0.283978D-02  0.291467D-02  0.120387D+00
     11  0.434658D-03 -0.518782D-02  0.736459D-03  0.958962D-02 -0.348155D-01
     12  0.512867D-03 -0.627195D-03 -0.507991D-02 -0.543287D-02 -0.395674D-01
     13 -0.517912D-02  0.135762D-01 -0.406368D-02 -0.715610D-02 -0.410044D-01
     14 -0.661020D-02 -0.203909D-02  0.133317D-01  0.529405D-03 -0.325609D-01
     15 -0.131678D-03 -0.234778D-02 -0.178155D-02 -0.702748D-03  0.265949D-01
     16  0.129818D-01 -0.295532D-01 -0.306637D-01  0.396839D-02  0.152674D-01
     17 -0.283847D-01  0.203908D-01 -0.295939D-01  0.252020D-02 -0.571239D-02
     18 -0.293784D-01 -0.296589D-01  0.165418D-01 -0.254462D-02 -0.627858D-02
     19  0.210100D-01  0.176403D-01  0.313542D-02 -0.230941D-02 -0.334377D-02
     20  0.216122D-01  0.302149D-02  0.203029D-01 -0.934406D-03 -0.255776D-02
     21  0.304915D-02  0.191988D-01  0.209078D-01 -0.777583D-03  0.253834D-02
     22 -0.834625D-03 -0.625713D-02  0.639264D-02 -0.107075D-02  0.163723D-02
     23  0.378681D-04  0.519276D-02 -0.212668D-03 -0.147427D-02  0.642513D-02
     24  0.457420D-03 -0.120738D-02 -0.510458D-02  0.843786D-04 -0.657517D-02
     25  0.559674D-03 -0.158074D-01  0.154169D-01  0.390212D-02  0.148918D-02
     26  0.167646D-01  0.328559D-03 -0.178928D-01  0.506396D-02  0.322456D-02
     27 -0.159847D-01  0.185861D-01 -0.569120D-03  0.412011D-02 -0.121161D-02
     28 -0.322091D-02 -0.165750D-01  0.191515D-01 -0.509582D-02 -0.384932D-02
     29  0.129840D-01 -0.439036D-03 -0.141582D-01 -0.393398D-02 -0.211394D-02
     30 -0.197652D-01  0.178185D-01  0.316548D-02 -0.487783D-02 -0.655011D-02
     31  0.326656D-02 -0.199747D-01  0.162516D-01 -0.720083D-03  0.424663D-02
     32  0.194715D-01 -0.383871D-02 -0.170581D-01  0.441755D-03  0.598201D-02
     33 -0.132778D-01  0.144188D-01  0.265610D-03 -0.502097D-03  0.154585D-02
               11            12            13            14            15 
     11  0.667470D-01
     12  0.270796D-02  0.775078D-01
     13 -0.469568D-01  0.172906D-01  0.112413D+00
     14  0.149837D-01 -0.553758D-01 -0.362925D-02  0.116113D+00
     15 -0.337464D-02 -0.389227D-02 -0.379048D-01 -0.377317D-01  0.574411D-01
     16  0.448032D-05 -0.242532D-02 -0.103889D-01 -0.702885D-02  0.429170D-02
     17 -0.823100D-02  0.264221D-02  0.206883D-01 -0.429069D-02 -0.510076D-02
     18  0.291201D-02 -0.729370D-02 -0.358354D-02  0.197323D-01 -0.514479D-02
     19  0.325087D-02  0.725341D-03 -0.406221D-02  0.235022D-02  0.116425D-02
     20 -0.240267D-03  0.420560D-02  0.307364D-02 -0.590656D-02  0.137673D-02
     21  0.240098D-02  0.229276D-02 -0.582726D-02 -0.502590D-02  0.352406D-02
     22  0.130517D-01 -0.144781D-01 -0.348404D-01  0.354564D-01 -0.296677D-03
     23 -0.235425D-01 -0.173385D-01  0.479045D-01  0.192691D-01 -0.330764D-01
     24  0.143204D-01  0.276421D-01 -0.161773D-01 -0.522961D-01  0.328625D-01
     25  0.131625D-01 -0.156520D-01 -0.299343D-02  0.354724D-02  0.346740D-03
     26  0.120617D-01 -0.146151D-01 -0.155539D-02 -0.540797D-03  0.125498D-02
     27  0.115951D-01 -0.146495D-01  0.221149D-02  0.283672D-02 -0.860078D-03
     28 -0.158450D-01 -0.553475D-02  0.448553D-02  0.821463D-02  0.138013D-01
     29 -0.169459D-01 -0.449786D-02  0.592357D-02  0.412659D-02  0.147095D-01
     30 -0.174124D-01 -0.453229D-02  0.969045D-02  0.750410D-02  0.125945D-01
     31  0.521069D-02  0.196183D-01 -0.900754D-02 -0.782746D-02 -0.133854D-01
     32  0.410988D-02  0.206552D-01 -0.756950D-02 -0.119155D-01 -0.124771D-01
     33  0.364331D-02  0.206207D-01 -0.380262D-02 -0.853798D-02 -0.145922D-01
               16            17            18            19            20 
     16  0.187337D+00
     17  0.107909D-02  0.191093D+00
     18 -0.455241D-03  0.132134D-02  0.186134D+00
     19 -0.886581D-01 -0.923985D-01 -0.103233D-01  0.121443D+00
     20 -0.935946D-01 -0.111241D-01 -0.900843D-01  0.369652D-01  0.124794D+00
     21 -0.962714D-02 -0.938022D-01 -0.902424D-01  0.372416D-01  0.366313D-01
     22  0.225641D-03 -0.692541D-02  0.717246D-02  0.188154D-02 -0.250105D-02
     23 -0.268295D-02  0.983852D-02  0.380056D-03 -0.329013D-02 -0.478148D-03
     24  0.107361D-02  0.256004D-03 -0.869363D-02  0.550556D-03  0.367462D-02
     25 -0.714794D-03 -0.497422D-02  0.514849D-02 -0.186779D-01  0.189764D-01
     26  0.614809D-02  0.521012D-03 -0.699214D-02  0.188053D-01 -0.745522D-05
     27 -0.536982D-02  0.733856D-02 -0.146098D-02 -0.599242D-03 -0.181105D-01
     28 -0.335493D-02 -0.530107D-02  0.802694D-02 -0.177901D-01  0.187928D-01
     29  0.350795D-02  0.194170D-03 -0.411368D-02  0.196931D-01 -0.191009D-03
     30 -0.800996D-02  0.701172D-02  0.141747D-02  0.288565D-03 -0.182940D-01
     31  0.926387D-03 -0.804689D-02  0.539326D-02 -0.182548D-01  0.187026D-01
     32  0.778927D-02 -0.255165D-02 -0.674736D-02  0.192284D-01 -0.281244D-03
     33 -0.372864D-02  0.426589D-02 -0.121621D-02 -0.176142D-03 -0.183843D-01
               21            22            23            24            25 
     21  0.123575D+00
     22  0.126978D-03  0.236688D-01
     23 -0.390532D-02 -0.105569D-01  0.384474D-01
     24  0.328694D-02 -0.120245D-01 -0.270712D-01  0.390109D-01
     25 -0.439860D-04 -0.336253D-02  0.310894D-02  0.176811D-02  0.284000D-01
     26 -0.182962D-01 -0.520092D-02  0.351140D-02  0.326235D-02  0.194081D-02
     27  0.183252D-01 -0.498373D-02  0.520214D-02  0.205790D-02  0.192739D-02
     28 -0.656594D-03  0.336767D-02 -0.469205D-02 -0.785450D-03  0.129193D-01
     29 -0.189088D-01  0.152927D-02 -0.428959D-02  0.708794D-03 -0.135399D-01
     30  0.177125D-01  0.174646D-02 -0.259885D-02 -0.495659D-03 -0.135533D-01
     31  0.101003D-02  0.328021D-02 -0.167545D-02 -0.275313D-02  0.122028D-01
     32 -0.172422D-01  0.144181D-02 -0.127300D-02 -0.125889D-02 -0.142565D-01
     33  0.193792D-01  0.165900D-02  0.417741D-03 -0.246334D-02 -0.142699D-01
               26            27            28            29            30 
     26  0.291370D-01
     27  0.243635D-02  0.289090D-01
     28 -0.142738D-01 -0.134540D-01  0.322701D-01
     29  0.129225D-01 -0.129450D-01  0.507699D-02  0.315394D-01
     30 -0.137782D-01  0.135276D-01  0.589674D-02  0.567185D-02  0.329776D-01
     31 -0.146311D-01 -0.151503D-01  0.915601D-02 -0.176778D-01 -0.181971D-01
     32  0.125652D-01 -0.146413D-01 -0.180371D-01  0.878455D-02 -0.184220D-01
     33 -0.141355D-01  0.118313D-01 -0.172173D-01 -0.170830D-01  0.888384D-02
               31            32            33 
     31  0.339918D-01
     32  0.715792D-02  0.339796D-01
     33  0.663870D-02  0.677305D-02  0.327399D-01
 Leave Link  716 at Sat May 24 00:01:10 2025, MaxMem=  3758096384 cpu:               0.0 elap:               0.0
 (Enter /apps/easybuild-2022/easybuild/software/Compiler/NVHPC/22.11-CUDA-11.7.0/Gaussian/g16c01-CUDA-11.7.0/g16/l103.exe)

 GradGradGradGradGradGradGradGradGradGradGradGradGradGradGradGradGradGrad
 Berny optimization.
 Red2BG is reusing G-inverse.
 Internal  Forces:  Max     0.047712162 RMS     0.008784382
 Search for a local minimum.
 Step number   1 out of a maximum of   43
 All quantities printed in internal units (Hartrees-Bohrs-Radians)
 RMS Force = .87844D-02 SwitMx=.10000D-02 MixMth= 1
 Mixed Optimization -- RFO/linear search
 Second derivative matrix not updated -- analytic derivatives used.
 ITU=  0
     Eigenvalues ---    0.00023   0.00294   0.06824   0.09696   0.10267
     Eigenvalues ---    0.10560   0.14106   0.15625   0.18821   0.19867
     Eigenvalues ---    0.23623   0.24150   0.26416   0.27187   0.38853
     Eigenvalues ---    0.39569   0.41654   0.42172   0.50402   0.58499
     Eigenvalues ---    0.92014
 RFO step:  Lambda=-4.08358486D-03 EMin= 2.25689765D-04
 Linear search not attempted -- first point.
 Iteration  1 RMS(Cart)=  0.04449881 RMS(Int)=  0.00094738
 Iteration  2 RMS(Cart)=  0.00118820 RMS(Int)=  0.00024370
 Iteration  3 RMS(Cart)=  0.00000038 RMS(Int)=  0.00024370
 ITry= 1 IFail=0 DXMaxC= 1.34D-01 DCOld= 1.00D+10 DXMaxT= 3.00D-01 DXLimC= 3.00D+00 Rises=F
 Variable       Old X    -DE/DX   Delta X   Delta X   Delta X     New X
                                 (Linear)    (Quad)   (Total)
    R1        2.24470  -0.04771   0.00000  -0.05339  -0.05339   2.19131
    R2        2.91823   0.00530   0.00000   0.03331   0.03331   2.95154
    R3        2.91831  -0.00161   0.00000  -0.00704  -0.00704   2.91127
    R4        2.53516  -0.00499   0.00000  -0.01280  -0.01280   2.52237
    R5        2.51871   0.00478   0.00000   0.00463   0.00463   2.52334
    R6        2.50050  -0.00152   0.00000  -0.00177  -0.00177   2.49873
    R7        2.51061  -0.00088   0.00000  -0.00241  -0.00241   2.50820
    R8        2.50388  -0.00059   0.00000  -0.00023  -0.00023   2.50365
    A1        2.14395   0.00324   0.00000   0.02233   0.02233   2.16628
    A2        1.96532  -0.00774   0.00000  -0.04453  -0.04462   1.92069
    A3        1.92526  -0.00199   0.00000  -0.02597  -0.02619   1.89907
    A4        1.89968   0.00621   0.00000   0.03778   0.03818   1.93786
    A5        1.88614   0.00438   0.00000   0.01783   0.01703   1.90318
    A6        1.88158   0.00100   0.00000   0.01729   0.01746   1.89904
    A7        1.90466  -0.00175   0.00000  -0.00087  -0.00101   1.90366
    A8        1.91819  -0.00147   0.00000   0.00321   0.00321   1.92140
    A9        1.91080  -0.00001   0.00000   0.00047   0.00045   1.91125
   A10        1.93165  -0.00279   0.00000  -0.01330  -0.01331   1.91834
   A11        1.90314   0.00093   0.00000   0.00198   0.00197   1.90511
   A12        1.90052   0.00209   0.00000   0.00508   0.00508   1.90561
   A13        1.89919   0.00134   0.00000   0.00277   0.00275   1.90194
    D1        1.83703   0.00033   0.00000   0.02434   0.02363   1.86066
    D2       -2.33748  -0.00073   0.00000  -0.00143  -0.00075  -2.33824
    D3       -0.24826  -0.00022   0.00000   0.00527   0.00530  -0.24296
    D4       -3.02993  -0.00303   0.00000  -0.05629  -0.05624  -3.08618
    D5       -0.93999  -0.00280   0.00000  -0.05160  -0.05155  -0.99154
    D6        1.15342  -0.00289   0.00000  -0.05619  -0.05613   1.09729
    D7        1.12233   0.00143   0.00000  -0.00718  -0.00710   1.11523
    D8       -3.07092   0.00166   0.00000  -0.00249  -0.00241  -3.07333
    D9       -0.97751   0.00157   0.00000  -0.00708  -0.00698  -0.98449
   D10       -0.93416   0.00062   0.00000  -0.02501  -0.02516  -0.95932
   D11        1.15577   0.00085   0.00000  -0.02032  -0.02047   1.13531
   D12       -3.03400   0.00076   0.00000  -0.02491  -0.02504  -3.05904
         Item               Value     Threshold  Converged?
 Maximum Force            0.047712     0.000450     NO 
 RMS     Force            0.008784     0.000300     NO 
 Maximum Displacement     0.134003     0.001800     NO 
 RMS     Displacement     0.044845     0.001200     NO 
 Predicted change in Energy=-2.084668D-03
 Lowest energy point so far.  Saving SCF results.
 GradGradGradGradGradGradGradGradGradGradGradGradGradGradGradGradGradGrad

 Leave Link  103 at Sat May 24 00:01:10 2025, MaxMem=  3758096384 cpu:               0.0 elap:               0.0
 (Enter /apps/easybuild-2022/easybuild/software/Compiler/NVHPC/22.11-CUDA-11.7.0/Gaussian/g16c01-CUDA-11.7.0/g16/l202.exe)
                          Input orientation:                          
 ---------------------------------------------------------------------
 Center     Atomic      Atomic             Coordinates (Angstroms)
 Number     Number       Type             X           Y           Z
 ---------------------------------------------------------------------
      1          6           0        1.534595    0.016385    0.022061
      2          8           0        2.209553   -0.926424    0.036183
      3          6           0       -0.026500   -0.024116   -0.006854
      4          6           0       -0.590799    0.378040    1.369087
      5          9           0       -1.909306    0.278397    1.365960
      6          9           0       -0.095599   -0.424613    2.303008
      7          9           0       -0.249276    1.627092    1.649319
      8          9           0       -0.462462    0.840140   -0.925894
      9          9           0       -0.468565   -1.246383   -0.312890
 ---------------------------------------------------------------------
                    Distance matrix (angstroms):
                    1          2          3          4          5
     1  C    0.000000
     2  O    1.159593   0.000000
     3  C    1.561888   2.411627   0.000000
     4  C    2.542159   3.364555   1.540577   0.000000
     5  F    3.706099   4.492761   2.349700   1.322271   0.000000
     6  F    2.838086   3.271702   2.345343   1.327284   2.159124
     7  F    2.902506   3.894675   2.349261   1.324877   2.157538
     8  F    2.359116   3.344549   1.334779   2.344556   2.767942
     9  F    2.391532   2.719659   1.335296   2.341525   2.686861
                    6          7          8          9
     6  F    0.000000
     7  F    2.158801   0.000000
     8  F    3.487118   2.701197   0.000000
     9  F    2.767188   3.486432   2.174715   0.000000
 Symmetry turned off by external request.
 Stoichiometry    C3F5O
 Rotational constants (GHZ):           2.3299317           1.4838860           1.3318796
 Leave Link  202 at Sat May 24 00:01:10 2025, MaxMem=  3758096384 cpu:               0.0 elap:               0.0
 (Enter /apps/easybuild-2022/easybuild/software/Compiler/NVHPC/22.11-CUDA-11.7.0/Gaussian/g16c01-CUDA-11.7.0/g16/l301.exe)
 Standard basis: def2TZVPP (5D, 7F)
 Ernie: Thresh=  0.10000D-02 Tol=  0.10000D-05 Strict=F.
   279 basis functions,   459 primitive gaussians,   324 cartesian basis functions
    36 alpha electrons       35 beta electrons
       nuclear repulsion energy       514.1242162930 Hartrees.
 IExCor= 4336 DFT=T Ex+Corr=M062X ExCW=0 ScaHFX=  0.540000
 ScaDFX=  1.000000  1.000000  1.000000  1.000000 ScalE2=  1.000000  1.000000
 IRadAn=      5 IRanWt=     -1 IRanGd=            0 ICorTp=0 IEmpDi=  4
 NAtoms=    9 NActive=    9 NUniq=    9 SFac= 1.00D+00 NAtFMM=   60 NAOKFM=F Big=F
 Integral buffers will be    131072 words long.
 Raffenetti 2 integral format.
 Two-electron integral symmetry is turned off.
 Leave Link  301 at Sat May 24 00:01:10 2025, MaxMem=  3758096384 cpu:               0.1 elap:               0.0
 (Enter /apps/easybuild-2022/easybuild/software/Compiler/NVHPC/22.11-CUDA-11.7.0/Gaussian/g16c01-CUDA-11.7.0/g16/l302.exe)
 NPDir=0 NMtPBC=     1 NCelOv=     1 NCel=       1 NClECP=     1 NCelD=      1
         NCelK=      1 NCelE2=     1 NClLst=     1 CellRange=     0.0.
 One-electron integrals computed using PRISM.
   1 Symmetry operations used in ECPInt.
 ECPInt:  NShTT=    4950 NPrTT=   16488 LenC2=    4758 LenP2D=   12178.
 LDataN:  DoStor=T MaxTD1= 6 Len=  172
 NBasis=   279 RedAO= T EigKep=  5.03D-04  NBF=   279
 NBsUse=   279 1.00D-06 EigRej= -1.00D+00 NBFU=   279
 Precomputing XC quadrature grid using
 IXCGrd= 4 IRadAn=           5 IRanWt=          -1 IRanGd=           0 AccXCQ= 0.00D+00.
 Generated NRdTot=       0 NPtTot=           0 NUsed=           0 NTot=          32
 NSgBfM=   323   323   323   323   323 MxSgAt=     9 MxSgA2=     9.
 Leave Link  302 at Sat May 24 00:01:10 2025, MaxMem=  3758096384 cpu:               0.5 elap:               0.1
 (Enter /apps/easybuild-2022/easybuild/software/Compiler/NVHPC/22.11-CUDA-11.7.0/Gaussian/g16c01-CUDA-11.7.0/g16/l303.exe)
 DipDrv:  MaxL=1.
 Leave Link  303 at Sat May 24 00:01:10 2025, MaxMem=  3758096384 cpu:               0.1 elap:               0.0
 (Enter /apps/easybuild-2022/easybuild/software/Compiler/NVHPC/22.11-CUDA-11.7.0/Gaussian/g16c01-CUDA-11.7.0/g16/l401.exe)
 Initial guess from the checkpoint file:  "1472314214191050000002_well.chk"
 B after Tr=     0.001331   -0.000601   -0.001753
         Rot=    1.000000   -0.000054   -0.000216    0.000878 Ang=  -0.10 deg.
 Guess basis will be translated and rotated to current coordinates.
 JPrj=2 DoOrth=T DoCkMO=T.
 Initial guess <Sx>= 0.0000 <Sy>= 0.0000 <Sz>= 0.5000 <S**2>= 0.7539 S= 0.5019
 Generating alternative initial guess.
 ExpMin= 9.52D-02 ExpMax= 3.55D+04 ExpMxC= 1.21D+03 IAcc=3 IRadAn=         5 AccDes= 0.00D+00
 Harris functional with IExCor= 1009 and IRadAn=       5 diagonalized for initial guess.
 HarFok:  IExCor= 1009 AccDes= 0.00D+00 IRadAn=         5 IDoV= 1 UseB2=F ITyADJ=14
 ICtDFT=  3500011 ScaDFX=  1.000000  1.000000  1.000000  1.000000
 FoFCou: FMM=F IPFlag=           0 FMFlag=      100000 FMFlg1=           0
         NFxFlg=           0 DoJE=T BraDBF=F KetDBF=T FulRan=T
         wScrn=  0.000000 ICntrl=       500 IOpCl=  0 I1Cent=   200000004 NGrid=           0
         NMat0=    1 NMatS0=      1 NMatT0=    0 NMatD0=    1 NMtDS0=    0 NMtDT0=    0
 Symmetry not used in FoFCou.
 Harris En= -688.287539593274    
 Leave Link  401 at Sat May 24 00:01:11 2025, MaxMem=  3758096384 cpu:               2.8 elap:               0.4
 (Enter /apps/easybuild-2022/easybuild/software/Compiler/NVHPC/22.11-CUDA-11.7.0/Gaussian/g16c01-CUDA-11.7.0/g16/l502.exe)
 Keep R1 and R2 ints in memory in canonical form, NReq=1542887460.
 FoFCou: FMM=F IPFlag=           0 FMFlag=           0 FMFlg1=           0
         NFxFlg=           0 DoJE=F BraDBF=F KetDBF=F FulRan=T
         wScrn=  0.000000 ICntrl=       600 IOpCl=  0 I1Cent=           0 NGrid=           0
         NMat0=    1 NMatS0=  39060 NMatT0=    0 NMatD0=    1 NMtDS0=    0 NMtDT0=    0
 Symmetry not used in FoFCou.
 Two-electron integral symmetry not used.
 UHF open shell SCF:
 Using DIIS extrapolation, IDIIS=  1040.
 NGot=  3758096384 LenX=  2232158908 LenY=  2232053491
 Requested convergence on RMS density matrix=1.00D-08 within  32 cycles.
 Requested convergence on MAX density matrix=1.00D-06.
 Requested convergence on             energy=1.00D-06.
 No special actions if energy rises.
 Integral accuracy reduced to 1.0D-05 until final iterations.

 Cycle   1  Pass 0  IDiag  1:
 E= -688.745216557641    
 DIIS: error= 2.15D-03 at cycle   1 NSaved=   1.
 NSaved= 1 IEnMin= 1 EnMin= -688.745216557641     IErMin= 1 ErrMin= 2.15D-03
 ErrMax= 2.15D-03  0.00D+00 EMaxC= 1.00D-01 BMatC= 1.58D-02 BMatP= 1.58D-02
 IDIUse=3 WtCom= 9.78D-01 WtEn= 2.15D-02
 Coeff-Com:  0.100D+01
 Coeff-En:   0.100D+01
 Coeff:      0.100D+01
 Gap=     0.992 Goal=   None    Shift=    0.000
 Gap=     1.144 Goal=   None    Shift=    0.000
 GapD=    0.992 DampG=2.000 DampE=1.000 DampFc=2.0000 IDamp=-1.
 RMSDP=2.23D-04 MaxDP=8.24D-03              OVMax= 1.75D-02

 Cycle   2  Pass 0  IDiag  1:
 E= -688.749406947516     Delta-E=       -0.004190389875 Rises=F Damp=F
 DIIS: error= 8.26D-04 at cycle   2 NSaved=   2.
 NSaved= 2 IEnMin= 2 EnMin= -688.749406947516     IErMin= 2 ErrMin= 8.26D-04
 ErrMax= 8.26D-04  0.00D+00 EMaxC= 1.00D-01 BMatC= 7.96D-04 BMatP= 1.58D-02
 IDIUse=3 WtCom= 9.92D-01 WtEn= 8.26D-03
 Coeff-Com: -0.418D-01 0.104D+01
 Coeff-En:   0.000D+00 0.100D+01
 Coeff:     -0.414D-01 0.104D+01
 Gap=     0.277 Goal=   None    Shift=    0.000
 Gap=     0.391 Goal=   None    Shift=    0.000
 RMSDP=8.00D-05 MaxDP=7.14D-03 DE=-4.19D-03 OVMax= 1.10D-02

 Cycle   3  Pass 0  IDiag  1:
 E= -688.749564750407     Delta-E=       -0.000157802892 Rises=F Damp=F
 DIIS: error= 4.96D-04 at cycle   3 NSaved=   3.
 NSaved= 3 IEnMin= 3 EnMin= -688.749564750407     IErMin= 3 ErrMin= 4.96D-04
 ErrMax= 4.96D-04  0.00D+00 EMaxC= 1.00D-01 BMatC= 7.03D-04 BMatP= 7.96D-04
 IDIUse=3 WtCom= 9.95D-01 WtEn= 4.96D-03
 Coeff-Com: -0.665D-01 0.528D+00 0.538D+00
 Coeff-En:   0.000D+00 0.000D+00 0.100D+01
 Coeff:     -0.661D-01 0.525D+00 0.541D+00
 Gap=     0.277 Goal=   None    Shift=    0.000
 Gap=     0.390 Goal=   None    Shift=    0.000
 RMSDP=2.66D-05 MaxDP=1.83D-03 DE=-1.58D-04 OVMax= 4.60D-03

 Cycle   4  Pass 0  IDiag  1:
 E= -688.749672187291     Delta-E=       -0.000107436884 Rises=F Damp=F
 DIIS: error= 2.61D-04 at cycle   4 NSaved=   4.
 NSaved= 4 IEnMin= 4 EnMin= -688.749672187291     IErMin= 4 ErrMin= 2.61D-04
 ErrMax= 2.61D-04  0.00D+00 EMaxC= 1.00D-01 BMatC= 8.98D-05 BMatP= 7.03D-04
 IDIUse=3 WtCom= 9.97D-01 WtEn= 2.61D-03
 Coeff-Com: -0.262D-01 0.101D+00 0.280D+00 0.644D+00
 Coeff-En:   0.000D+00 0.000D+00 0.338D-01 0.966D+00
 Coeff:     -0.262D-01 0.101D+00 0.280D+00 0.645D+00
 Gap=     0.277 Goal=   None    Shift=    0.000
 Gap=     0.389 Goal=   None    Shift=    0.000
 RMSDP=1.34D-05 MaxDP=6.27D-04 DE=-1.07D-04 OVMax= 1.85D-03

 Cycle   5  Pass 0  IDiag  1:
 E= -688.749690845549     Delta-E=       -0.000018658258 Rises=F Damp=F
 DIIS: error= 5.89D-05 at cycle   5 NSaved=   5.
 NSaved= 5 IEnMin= 5 EnMin= -688.749690845549     IErMin= 5 ErrMin= 5.89D-05
 ErrMax= 5.89D-05  0.00D+00 EMaxC= 1.00D-01 BMatC= 6.32D-06 BMatP= 8.98D-05
 IDIUse=1 WtCom= 1.00D+00 WtEn= 0.00D+00
 Coeff-Com:  0.111D-02-0.430D-01 0.663D-02 0.211D+00 0.824D+00
 Coeff:      0.111D-02-0.430D-01 0.663D-02 0.211D+00 0.824D+00
 Gap=     0.277 Goal=   None    Shift=    0.000
 Gap=     0.389 Goal=   None    Shift=    0.000
 RMSDP=7.30D-06 MaxDP=5.84D-04 DE=-1.87D-05 OVMax= 1.50D-03

 Initial convergence to 1.0D-05 achieved.  Increase integral accuracy.
 Cycle   6  Pass 1  IDiag  1:
 E= -688.749686390617     Delta-E=        0.000004454933 Rises=F Damp=F
 DIIS: error= 2.59D-05 at cycle   1 NSaved=   1.
 NSaved= 1 IEnMin= 1 EnMin= -688.749686390617     IErMin= 1 ErrMin= 2.59D-05
 ErrMax= 2.59D-05  0.00D+00 EMaxC= 1.00D-01 BMatC= 2.77D-06 BMatP= 2.77D-06
 IDIUse=1 WtCom= 1.00D+00 WtEn= 0.00D+00
 Coeff-Com:  0.100D+01
 Coeff:      0.100D+01
 Gap=     0.277 Goal=   None    Shift=    0.000
 Gap=     0.389 Goal=   None    Shift=    0.000
 RMSDP=7.30D-06 MaxDP=5.84D-04 DE= 4.45D-06 OVMax= 9.93D-04

 Cycle   7  Pass 1  IDiag  1:
 E= -688.749687275410     Delta-E=       -0.000000884794 Rises=F Damp=F
 DIIS: error= 2.36D-05 at cycle   2 NSaved=   2.
 NSaved= 2 IEnMin= 2 EnMin= -688.749687275410     IErMin= 2 ErrMin= 2.36D-05
 ErrMax= 2.36D-05  0.00D+00 EMaxC= 1.00D-01 BMatC= 1.32D-06 BMatP= 2.77D-06
 IDIUse=1 WtCom= 1.00D+00 WtEn= 0.00D+00
 Coeff-Com:  0.365D+00 0.635D+00
 Coeff:      0.365D+00 0.635D+00
 Gap=     0.277 Goal=   None    Shift=    0.000
 Gap=     0.389 Goal=   None    Shift=    0.000
 RMSDP=1.95D-06 MaxDP=7.15D-05 DE=-8.85D-07 OVMax= 4.31D-04

 Cycle   8  Pass 1  IDiag  1:
 E= -688.749687603181     Delta-E=       -0.000000327770 Rises=F Damp=F
 DIIS: error= 1.62D-05 at cycle   3 NSaved=   3.
 NSaved= 3 IEnMin= 3 EnMin= -688.749687603181     IErMin= 3 ErrMin= 1.62D-05
 ErrMax= 1.62D-05  0.00D+00 EMaxC= 1.00D-01 BMatC= 3.21D-07 BMatP= 1.32D-06
 IDIUse=1 WtCom= 1.00D+00 WtEn= 0.00D+00
 Coeff-Com: -0.728D-01 0.271D+00 0.801D+00
 Coeff:     -0.728D-01 0.271D+00 0.801D+00
 Gap=     0.277 Goal=   None    Shift=    0.000
 Gap=     0.389 Goal=   None    Shift=    0.000
 RMSDP=1.89D-06 MaxDP=8.94D-05 DE=-3.28D-07 OVMax= 5.46D-04

 Cycle   9  Pass 1  IDiag  1:
 E= -688.749687804749     Delta-E=       -0.000000201568 Rises=F Damp=F
 DIIS: error= 8.10D-06 at cycle   4 NSaved=   4.
 NSaved= 4 IEnMin= 4 EnMin= -688.749687804749     IErMin= 4 ErrMin= 8.10D-06
 ErrMax= 8.10D-06  0.00D+00 EMaxC= 1.00D-01 BMatC= 7.50D-08 BMatP= 3.21D-07
 IDIUse=1 WtCom= 1.00D+00 WtEn= 0.00D+00
 Coeff-Com: -0.671D-01 0.324D-01 0.294D+00 0.741D+00
 Coeff:     -0.671D-01 0.324D-01 0.294D+00 0.741D+00
 Gap=     0.277 Goal=   None    Shift=    0.000
 Gap=     0.389 Goal=   None    Shift=    0.000
 RMSDP=1.09D-06 MaxDP=5.80D-05 DE=-2.02D-07 OVMax= 3.51D-04

 Cycle  10  Pass 1  IDiag  1:
 E= -688.749687885500     Delta-E=       -0.000000080751 Rises=F Damp=F
 DIIS: error= 7.98D-06 at cycle   5 NSaved=   5.
 NSaved= 5 IEnMin= 5 EnMin= -688.749687885500     IErMin= 5 ErrMin= 7.98D-06
 ErrMax= 7.98D-06  0.00D+00 EMaxC= 1.00D-01 BMatC= 4.26D-08 BMatP= 7.50D-08
 IDIUse=1 WtCom= 1.00D+00 WtEn= 0.00D+00
 Coeff-Com:  0.177D-01-0.207D+00-0.484D+00 0.493D+00 0.118D+01
 Coeff:      0.177D-01-0.207D+00-0.484D+00 0.493D+00 0.118D+01
 Gap=     0.277 Goal=   None    Shift=    0.000
 Gap=     0.389 Goal=   None    Shift=    0.000
 RMSDP=1.91D-06 MaxDP=1.06D-04 DE=-8.08D-08 OVMax= 6.38D-04

 Cycle  11  Pass 1  IDiag  1:
 E= -688.749687968615     Delta-E=       -0.000000083115 Rises=F Damp=F
 DIIS: error= 2.26D-06 at cycle   6 NSaved=   6.
 NSaved= 6 IEnMin= 6 EnMin= -688.749687968615     IErMin= 6 ErrMin= 2.26D-06
 ErrMax= 2.26D-06  0.00D+00 EMaxC= 1.00D-01 BMatC= 6.45D-09 BMatP= 4.26D-08
 IDIUse=1 WtCom= 1.00D+00 WtEn= 0.00D+00
 Coeff-Com:  0.219D-01-0.905D-01-0.247D+00 0.388D-01 0.453D+00 0.824D+00
 Coeff:      0.219D-01-0.905D-01-0.247D+00 0.388D-01 0.453D+00 0.824D+00
 Gap=     0.277 Goal=   None    Shift=    0.000
 Gap=     0.389 Goal=   None    Shift=    0.000
 RMSDP=6.51D-07 MaxDP=3.62D-05 DE=-8.31D-08 OVMax= 2.19D-04

 Cycle  12  Pass 1  IDiag  1:
 E= -688.749687979020     Delta-E=       -0.000000010405 Rises=F Damp=F
 DIIS: error= 1.04D-06 at cycle   7 NSaved=   7.
 NSaved= 7 IEnMin= 7 EnMin= -688.749687979020     IErMin= 7 ErrMin= 1.04D-06
 ErrMax= 1.04D-06  0.00D+00 EMaxC= 1.00D-01 BMatC= 1.01D-09 BMatP= 6.45D-09
 IDIUse=1 WtCom= 1.00D+00 WtEn= 0.00D+00
 Coeff-Com: -0.163D-02 0.373D-01 0.903D-01-0.130D+00-0.226D+00 0.105D+00
 Coeff-Com:  0.112D+01
 Coeff:     -0.163D-02 0.373D-01 0.903D-01-0.130D+00-0.226D+00 0.105D+00
 Coeff:      0.112D+01
 Gap=     0.277 Goal=   None    Shift=    0.000
 Gap=     0.389 Goal=   None    Shift=    0.000
 RMSDP=3.15D-07 MaxDP=1.76D-05 DE=-1.04D-08 OVMax= 1.06D-04

 Cycle  13  Pass 1  IDiag  1:
 E= -688.749687980882     Delta-E=       -0.000000001862 Rises=F Damp=F
 DIIS: error= 3.41D-07 at cycle   8 NSaved=   8.
 NSaved= 8 IEnMin= 8 EnMin= -688.749687980882     IErMin= 8 ErrMin= 3.41D-07
 ErrMax= 3.41D-07  0.00D+00 EMaxC= 1.00D-01 BMatC= 2.27D-10 BMatP= 1.01D-09
 IDIUse=1 WtCom= 1.00D+00 WtEn= 0.00D+00
 Coeff-Com: -0.404D-02 0.271D-01 0.724D-01-0.543D-01-0.148D+00-0.103D+00
 Coeff-Com:  0.430D+00 0.780D+00
 Coeff:     -0.404D-02 0.271D-01 0.724D-01-0.543D-01-0.148D+00-0.103D+00
 Coeff:      0.430D+00 0.780D+00
 Gap=     0.277 Goal=   None    Shift=    0.000
 Gap=     0.389 Goal=   None    Shift=    0.000
 RMSDP=6.87D-08 MaxDP=3.66D-06 DE=-1.86D-09 OVMax= 2.19D-05

 Cycle  14  Pass 1  IDiag  1:
 E= -688.749687981007     Delta-E=       -0.000000000125 Rises=F Damp=F
 DIIS: error= 1.16D-07 at cycle   9 NSaved=   9.
 NSaved= 9 IEnMin= 9 EnMin= -688.749687981007     IErMin= 9 ErrMin= 1.16D-07
 ErrMax= 1.16D-07  0.00D+00 EMaxC= 1.00D-01 BMatC= 2.79D-11 BMatP= 2.27D-10
 IDIUse=1 WtCom= 1.00D+00 WtEn= 0.00D+00
 Coeff-Com: -0.822D-03 0.141D-02 0.622D-02 0.643D-02-0.427D-02-0.512D-01
 Coeff-Com: -0.638D-01 0.226D+00 0.880D+00
 Coeff:     -0.822D-03 0.141D-02 0.622D-02 0.643D-02-0.427D-02-0.512D-01
 Coeff:     -0.638D-01 0.226D+00 0.880D+00
 Gap=     0.277 Goal=   None    Shift=    0.000
 Gap=     0.389 Goal=   None    Shift=    0.000
 RMSDP=2.06D-08 MaxDP=8.64D-07 DE=-1.25D-10 OVMax= 5.25D-06

 Cycle  15  Pass 1  IDiag  1:
 E= -688.749687981006     Delta-E=        0.000000000001 Rises=F Damp=F
 DIIS: error= 4.45D-08 at cycle  10 NSaved=  10.
 NSaved=10 IEnMin= 9 EnMin= -688.749687981007     IErMin=10 ErrMin= 4.45D-08
 ErrMax= 4.45D-08  0.00D+00 EMaxC= 1.00D-01 BMatC= 3.66D-12 BMatP= 2.79D-11
 IDIUse=1 WtCom= 1.00D+00 WtEn= 0.00D+00
 Coeff-Com:  0.410D-03-0.403D-02-0.986D-02 0.100D-01 0.224D-01 0.296D-02
 Coeff-Com: -0.856D-01-0.586D-01 0.242D+00 0.881D+00
 Coeff:      0.410D-03-0.403D-02-0.986D-02 0.100D-01 0.224D-01 0.296D-02
 Coeff:     -0.856D-01-0.586D-01 0.242D+00 0.881D+00
 Gap=     0.277 Goal=   None    Shift=    0.000
 Gap=     0.389 Goal=   None    Shift=    0.000
 RMSDP=7.64D-09 MaxDP=2.86D-07 DE= 1.36D-12 OVMax= 1.67D-06

 SCF Done:  E(UM062X) =  -688.749687981     A.U. after   15 cycles
            NFock= 15  Conv=0.76D-08     -V/T= 2.0036
 <Sx>= 0.0000 <Sy>= 0.0000 <Sz>= 0.5000 <S**2>= 0.7538 S= 0.5019
 <L.S>=  0.00000000000    
 KE= 6.863063267365D+02 PE=-2.661083156090D+03 EE= 7.719029250790D+02
 Annihilation of the first spin contaminant:
 S**2 before annihilation     0.7538,   after     0.7500
 Leave Link  502 at Sat May 24 00:01:40 2025, MaxMem=  3758096384 cpu:             125.5 elap:              29.0
 (Enter /apps/easybuild-2022/easybuild/software/Compiler/NVHPC/22.11-CUDA-11.7.0/Gaussian/g16c01-CUDA-11.7.0/g16/l508.exe)
 QCSCF skips out because SCF is already converged.
 Leave Link  508 at Sat May 24 00:01:40 2025, MaxMem=  3758096384 cpu:               0.0 elap:               0.0
 (Enter /apps/easybuild-2022/easybuild/software/Compiler/NVHPC/22.11-CUDA-11.7.0/Gaussian/g16c01-CUDA-11.7.0/g16/l701.exe)
 ... and contract with generalized density number  0.
 Compute integral first derivatives.
   1 Symmetry operations used in ECPInt.
 ECPInt:  NShTT=    4950 NPrTT=   16488 LenC2=    4758 LenP2D=   12178.
 LDataN:  DoStor=T MaxTD1= 7 Len=  274
 Leave Link  701 at Sat May 24 00:01:40 2025, MaxMem=  3758096384 cpu:               0.5 elap:               0.1
 (Enter /apps/easybuild-2022/easybuild/software/Compiler/NVHPC/22.11-CUDA-11.7.0/Gaussian/g16c01-CUDA-11.7.0/g16/l702.exe)
 L702 exits ... SP integral derivatives will be done elsewhere.
 Leave Link  702 at Sat May 24 00:01:40 2025, MaxMem=  3758096384 cpu:               0.0 elap:               0.0
 (Enter /apps/easybuild-2022/easybuild/software/Compiler/NVHPC/22.11-CUDA-11.7.0/Gaussian/g16c01-CUDA-11.7.0/g16/l703.exe)
 Integral derivatives from FoFJK, PRISM(SPDF).
 Compute integral first derivatives, UseDBF=F ICtDFT=           0.
 Calling FoFJK, ICntrl=      2127 FMM=F ISym2X=0 I1Cent= 0 IOpClX= 1 NMat=1 NMatS=1 NMatT=0.
 FoFJK:  IHMeth= 1 ICntrl=    2127 DoSepK=F KAlg= 0 I1Cent=           0 FoldK=F
 IRaf=         0 NMat=       1 IRICut=       1 DoRegI=T DoRafI=F ISym2E= 0 IDoP0=0 IntGTp=1.
 FoFCou: FMM=F IPFlag=           0 FMFlag=      100000 FMFlg1=         800
         NFxFlg=           0 DoJE=F BraDBF=F KetDBF=F FulRan=T
         wScrn=  0.000000 ICntrl=      2127 IOpCl=  1 I1Cent=           0 NGrid=           0
         NMat0=    1 NMatS0=      1 NMatT0=    0 NMatD0=    1 NMtDS0=    0 NMtDT0=    0
 Symmetry not used in FoFCou.
 Leave Link  703 at Sat May 24 00:01:46 2025, MaxMem=  3758096384 cpu:              49.4 elap:               6.3
 (Enter /apps/easybuild-2022/easybuild/software/Compiler/NVHPC/22.11-CUDA-11.7.0/Gaussian/g16c01-CUDA-11.7.0/g16/l716.exe)
 Dipole        =-5.68910483D-02 1.48908852D-01-7.76591757D-03
 -------------------------------------------------------------------
 Center     Atomic                   Forces (Hartrees/Bohr)
 Number     Number              X              Y              Z
 -------------------------------------------------------------------
      1        6          -0.001450792    0.003815449   -0.000178675
      2        8           0.002809268   -0.003444819    0.000091232
      3        6          -0.000795276   -0.000216028    0.000233621
      4        6          -0.000023921   -0.000005062    0.000044740
      5        9          -0.000019330    0.000167400    0.000002743
      6        9          -0.000099882   -0.000092531    0.000023712
      7        9           0.000054100   -0.000057561    0.000092246
      8        9          -0.000019574    0.000044038   -0.000268599
      9        9          -0.000454594   -0.000210887   -0.000041019
 -------------------------------------------------------------------
 Cartesian Forces:  Max     0.003815449 RMS     0.001179882
 Leave Link  716 at Sat May 24 00:01:46 2025, MaxMem=  3758096384 cpu:               0.0 elap:               0.0
 (Enter /apps/easybuild-2022/easybuild/software/Compiler/NVHPC/22.11-CUDA-11.7.0/Gaussian/g16c01-CUDA-11.7.0/g16/l103.exe)

 GradGradGradGradGradGradGradGradGradGradGradGradGradGradGradGradGradGrad
 Berny optimization.
 Using GEDIIS/GDIIS optimizer.
 FormGI is forming the generalized inverse of G from B-inverse, IUseBI=4.
 Internal  Forces:  Max     0.004435889 RMS     0.000834059
 Search for a local minimum.
 Step number   2 out of a maximum of   43
 All quantities printed in internal units (Hartrees-Bohrs-Radians)
 RMS Force = .83406D-03 SwitMx=.10000D-02 MixMth= 2
 Mixed Optimization -- En-DIIS/RFO-DIIS
 Update second derivatives using D2CorX and points    1    2
 DE= -2.02D-03 DEPred=-2.08D-03 R= 9.69D-01
 TightC=F SS=  1.41D+00  RLast= 1.45D-01 DXNew= 5.0454D-01 4.3475D-01
 Trust test= 9.69D-01 RLast= 1.45D-01 DXMaxT set to 4.35D-01
 ITU=  1  0
 Use linear search instead of GDIIS.
     Eigenvalues ---    0.00023   0.00294   0.06766   0.09691   0.10267
     Eigenvalues ---    0.10563   0.14123   0.15615   0.18497   0.19901
     Eigenvalues ---    0.23609   0.23910   0.26378   0.26936   0.38844
     Eigenvalues ---    0.39549   0.41653   0.42175   0.50346   0.58499
     Eigenvalues ---    1.00682
 RFO step:  Lambda=-7.88414607D-05 EMin= 2.25717339D-04
 Quartic linear search produced a step of -0.02452.
 Iteration  1 RMS(Cart)=  0.03773629 RMS(Int)=  0.00157766
 Iteration  2 RMS(Cart)=  0.00163208 RMS(Int)=  0.00000671
 Iteration  3 RMS(Cart)=  0.00000454 RMS(Int)=  0.00000594
 Iteration  4 RMS(Cart)=  0.00000000 RMS(Int)=  0.00000594
 ITry= 1 IFail=0 DXMaxC= 1.13D-01 DCOld= 1.00D+10 DXMaxT= 4.35D-01 DXLimC= 3.00D+00 Rises=F
 Variable       Old X    -DE/DX   Delta X   Delta X   Delta X     New X
                                 (Linear)    (Quad)   (Total)
    R1        2.19131   0.00444   0.00131   0.00304   0.00435   2.19566
    R2        2.95154   0.00137  -0.00082   0.00531   0.00449   2.95603
[...]
     27 -0.561414D-02  0.727341D-02 -0.445927D-03 -0.574066D-03 -0.186828D-01
     28 -0.294722D-02 -0.554323D-02  0.816868D-02 -0.176327D-01  0.185960D-01
     29  0.305277D-02  0.522381D-03 -0.433800D-02  0.194449D-01  0.373783D-03
     30 -0.859163D-02  0.715373D-02  0.201575D-02  0.376083D-03 -0.184067D-01
     31  0.243805D-02 -0.822111D-02  0.522278D-02 -0.184599D-01  0.179800D-01
     32  0.843804D-02 -0.215550D-02 -0.728390D-02  0.186177D-01 -0.242208D-03
     33 -0.320636D-02  0.447584D-02 -0.930152D-03 -0.451118D-03 -0.190227D-01
               21            22            23            24            25 
     21  0.122686D+00
     22 -0.120642D-04  0.240527D-01
     23 -0.382075D-02 -0.114736D-01  0.391500D-01
     24  0.357400D-02 -0.113003D-01 -0.270353D-01  0.390155D-01
     25 -0.115981D-03 -0.304164D-02  0.221696D-02  0.198328D-02  0.280846D-01
     26 -0.185429D-01 -0.505179D-02  0.255001D-02  0.383309D-02  0.178183D-02
     27  0.181695D-01 -0.501230D-02  0.446270D-02  0.232455D-02  0.179898D-02
     28 -0.691362D-03  0.322786D-02 -0.431126D-02 -0.102532D-02  0.122407D-01
     29 -0.191183D-01  0.121771D-02 -0.397820D-02  0.824502D-03 -0.140621D-01
     30  0.175942D-01  0.125720D-02 -0.206551D-02 -0.684041D-03 -0.140449D-01
     31  0.978911D-03  0.342994D-02 -0.103828D-02 -0.374625D-02  0.129357D-01
     32 -0.174480D-01  0.141979D-02 -0.705230D-03 -0.189643D-02 -0.133670D-01
     33  0.192644D-01  0.145928D-02  0.120746D-02 -0.340498D-02 -0.133499D-01
               26            27            28            29            30 
     26  0.287509D-01
     27  0.215821D-02  0.287273D-01
     28 -0.148204D-01 -0.140659D-01  0.329629D-01
     29  0.121487D-01 -0.137067D-01  0.590187D-02  0.321127D-01
     30 -0.144440D-01  0.128624D-01  0.665635D-02  0.625732D-02  0.335637D-01
     31 -0.134711D-01 -0.141407D-01  0.903237D-02 -0.173745D-01 -0.180440D-01
     32  0.134979D-01 -0.137814D-01 -0.180287D-01  0.883627D-02 -0.184431D-01
     33 -0.130948D-01  0.127876D-01 -0.172742D-01 -0.170191D-01  0.886333D-02
               31            32            33 
     31  0.325278D-01
     32  0.612091D-02  0.329859D-01
     33  0.545138D-02  0.570652D-02  0.315889D-01
 Leave Link  716 at Sat May 24 00:06:50 2025, MaxMem=  3758096384 cpu:               0.0 elap:               0.0
 (Enter /apps/easybuild-2022/easybuild/software/Compiler/NVHPC/22.11-CUDA-11.7.0/Gaussian/g16c01-CUDA-11.7.0/g16/l103.exe)

 GradGradGradGradGradGradGradGradGradGradGradGradGradGradGradGradGradGrad
 Berny optimization.
 Red2BG is reusing G-inverse.
 Internal  Forces:  Max     0.000000460 RMS     0.000000187
 Search for a local minimum.
 Step number   1 out of a maximum of    2
 All quantities printed in internal units (Hartrees-Bohrs-Radians)
 Second derivative matrix not updated -- analytic derivatives used.
 ITU=  0
     Eigenvalues ---    0.00034   0.00319   0.06737   0.09185   0.10381
     Eigenvalues ---    0.10475   0.13389   0.15919   0.17319   0.19709
     Eigenvalues ---    0.22936   0.23812   0.25389   0.26613   0.39309
     Eigenvalues ---    0.39947   0.42049   0.42429   0.50604   0.58638
     Eigenvalues ---    1.08816
 Angle between quadratic step and forces=  83.26 degrees.
 Linear search not attempted -- first point.
 Iteration  1 RMS(Cart)=  0.00001826 RMS(Int)=  0.00000000
 Iteration  2 RMS(Cart)=  0.00000000 RMS(Int)=  0.00000000
 ITry= 1 IFail=0 DXMaxC= 8.06D-05 DCOld= 1.00D+10 DXMaxT= 3.00D-01 DXLimC= 3.00D+00 Rises=F
 Variable       Old X    -DE/DX   Delta X   Delta X   Delta X     New X
                                 (Linear)    (Quad)   (Total)
    R1        2.19536  -0.00000   0.00000  -0.00000  -0.00000   2.19536
    R2        2.95754   0.00000   0.00000   0.00000   0.00000   2.95754
    R3        2.91216  -0.00000   0.00000  -0.00000  -0.00000   2.91216
    R4        2.52213   0.00000   0.00000   0.00000   0.00000   2.52213
    R5        2.52384  -0.00000   0.00000  -0.00000  -0.00000   2.52384
    R6        2.49891   0.00000   0.00000   0.00000   0.00000   2.49891
    R7        2.50651   0.00000   0.00000   0.00000   0.00000   2.50651
    R8        2.50484  -0.00000   0.00000  -0.00000  -0.00000   2.50484
    A1        2.16624  -0.00000   0.00000  -0.00000  -0.00000   2.16624
    A2        1.92120   0.00000   0.00000   0.00000   0.00000   1.92120
    A3        1.89934   0.00000   0.00000  -0.00000  -0.00000   1.89934
    A4        1.93914  -0.00000   0.00000  -0.00000  -0.00000   1.93914
    A5        1.90236  -0.00000   0.00000   0.00000   0.00000   1.90236
    A6        1.89856   0.00000   0.00000   0.00000   0.00000   1.89856
    A7        1.90284   0.00000   0.00000   0.00000   0.00000   1.90284
    A8        1.92033  -0.00000   0.00000   0.00000   0.00000   1.92033
    A9        1.91326  -0.00000   0.00000  -0.00000  -0.00000   1.91326
   A10        1.91753  -0.00000   0.00000   0.00000   0.00000   1.91753
   A11        1.90542   0.00000   0.00000   0.00000   0.00000   1.90542
   A12        1.90499   0.00000   0.00000   0.00000   0.00000   1.90499
   A13        1.90212   0.00000   0.00000   0.00000   0.00000   1.90212
    D1        1.75403   0.00000   0.00000   0.00007   0.00007   1.75411
    D2       -2.44539   0.00000   0.00000   0.00007   0.00007  -2.44532
    D3       -0.35015  -0.00000   0.00000   0.00007   0.00007  -0.35008
    D4       -3.14054   0.00000   0.00000   0.00001   0.00001  -3.14054
    D5       -1.04493   0.00000   0.00000   0.00000   0.00000  -1.04493
    D6        1.04487   0.00000   0.00000   0.00000   0.00000   1.04488
    D7        1.06072  -0.00000   0.00000   0.00001   0.00001   1.06073
    D8       -3.12685  -0.00000   0.00000   0.00001   0.00001  -3.12685
    D9       -1.03705  -0.00000   0.00000   0.00000   0.00000  -1.03704
   D10       -1.01209  -0.00000   0.00000   0.00000   0.00000  -1.01209
   D11        1.08352  -0.00000   0.00000   0.00000   0.00000   1.08352
   D12       -3.10986  -0.00000   0.00000   0.00000   0.00000  -3.10986
         Item               Value     Threshold  Converged?
 Maximum Force            0.000000     0.000450     YES
 RMS     Force            0.000000     0.000300     YES
 Maximum Displacement     0.000081     0.001800     YES
 RMS     Displacement     0.000018     0.001200     YES
 Predicted change in Energy=-7.930158D-12
 Optimization completed.
    -- Stationary point found.
                           ----------------------------
                           !   Optimized Parameters   !
                           ! (Angstroms and Degrees)  !
 --------------------------                            --------------------------
 ! Name  Definition              Value          Derivative Info.                !
 --------------------------------------------------------------------------------
 ! R1    R(1,2)                  1.1617         -DE/DX =    0.0                 !
 ! R2    R(1,3)                  1.5651         -DE/DX =    0.0                 !
 ! R3    R(3,4)                  1.5411         -DE/DX =    0.0                 !
 ! R4    R(3,8)                  1.3347         -DE/DX =    0.0                 !
 ! R5    R(3,9)                  1.3356         -DE/DX =    0.0                 !
 ! R6    R(4,5)                  1.3224         -DE/DX =    0.0                 !
 ! R7    R(4,6)                  1.3264         -DE/DX =    0.0                 !
 ! R8    R(4,7)                  1.3255         -DE/DX =    0.0                 !
 ! A1    A(2,1,3)              124.1165         -DE/DX =    0.0                 !
 ! A2    A(1,3,4)              110.0765         -DE/DX =    0.0                 !
 ! A3    A(1,3,8)              108.8244         -DE/DX =    0.0                 !
 ! A4    A(1,3,9)              111.1044         -DE/DX =    0.0                 !
 ! A5    A(4,3,8)              108.9971         -DE/DX =    0.0                 !
 ! A6    A(4,3,9)              108.7795         -DE/DX =    0.0                 !
 ! A7    A(8,3,9)              109.0247         -DE/DX =    0.0                 !
 ! A8    A(3,4,5)              110.0269         -DE/DX =    0.0                 !
 ! A9    A(3,4,6)              109.6218         -DE/DX =    0.0                 !
 ! A10   A(3,4,7)              109.8663         -DE/DX =    0.0                 !
 ! A11   A(5,4,6)              109.1726         -DE/DX =    0.0                 !
 ! A12   A(5,4,7)              109.1481         -DE/DX =    0.0                 !
 ! A13   A(6,4,7)              108.9834         -DE/DX =    0.0                 !
 ! D1    D(2,1,3,4)            100.4988         -DE/DX =    0.0                 !
 ! D2    D(2,1,3,8)           -140.1107         -DE/DX =    0.0                 !
 ! D3    D(2,1,3,9)            -20.0624         -DE/DX =    0.0                 !
 ! D4    D(1,3,4,5)           -179.9397         -DE/DX =    0.0                 !
 ! D5    D(1,3,4,6)            -59.8701         -DE/DX =    0.0                 !
 ! D6    D(1,3,4,7)             59.8669         -DE/DX =    0.0                 !
 ! D7    D(8,3,4,5)             60.775          -DE/DX =    0.0                 !
 ! D8    D(8,3,4,6)           -179.1554         -DE/DX =    0.0                 !
 ! D9    D(8,3,4,7)            -59.4183         -DE/DX =    0.0                 !
 ! D10   D(9,3,4,5)            -57.9887         -DE/DX =    0.0                 !
 ! D11   D(9,3,4,6)             62.0809         -DE/DX =    0.0                 !
 ! D12   D(9,3,4,7)           -178.1821         -DE/DX =    0.0                 !
 --------------------------------------------------------------------------------
 GradGradGradGradGradGradGradGradGradGradGradGradGradGradGradGradGradGrad

 Leave Link  103 at Sat May 24 00:06:50 2025, MaxMem=  3758096384 cpu:               0.0 elap:               0.0
 (Enter /apps/easybuild-2022/easybuild/software/Compiler/NVHPC/22.11-CUDA-11.7.0/Gaussian/g16c01-CUDA-11.7.0/g16/l9999.exe)

 ----------------------------------------------------------------------

 Electric dipole moment (input orientation):
 (Debye = 10**-18 statcoulomb cm , SI units = C m)
                  (au)            (Debye)         (10**-30 SI)
   Tot        0.157953D+00      0.401476D+00      0.133918D+01
   x         -0.587429D-01     -0.149310D+00     -0.498043D+00
   y          0.144928D+00      0.368369D+00      0.122875D+01
   z         -0.222342D-01     -0.565136D-01     -0.188509D+00

 Dipole polarizability, Alpha (input orientation).
 (esu units = cm**3 , SI units = C**2 m**2 J**-1)
 Alpha(0;0):
               (au)            (10**-24 esu)      (10**-40 SI)
   iso        0.394668D+02      0.584837D+01      0.650719D+01
   aniso      0.934447D+01      0.138471D+01      0.154070D+01
   xx         0.436083D+02      0.646209D+01      0.719004D+01
   yx        -0.322295D+01     -0.477591D+00     -0.531392D+00
   yy         0.397059D+02      0.588380D+01      0.654661D+01
   zx        -0.615665D+00     -0.912321D-01     -0.101509D+00
   zy        -0.374023D+00     -0.554245D-01     -0.616681D-01
   zz         0.350861D+02      0.519922D+01      0.578491D+01

 ----------------------------------------------------------------------

 Dipole orientation:
     6          2.56789389         -0.85634284         -1.01021477
     8          3.11072791         -0.97754835         -3.13395382
     6         -0.06271783          0.06405489         -0.02037161
     6         -1.71834884         -2.22298029          0.69310952
     9         -3.94131196         -1.44332806          1.52685435
     9         -2.05802479         -3.67693992         -1.32015474
     9         -0.59251182         -3.56280013          2.48519895
     9          0.29264529          1.49137430          2.02843504
     9         -1.26750659          1.42438830         -1.77186446

 Electric dipole moment (dipole orientation):
 (Debye = 10**-18 statcoulomb cm , SI units = C m)
                  (au)            (Debye)         (10**-30 SI)
   Tot        0.157953D+00      0.401476D+00      0.133918D+01
   x          0.000000D+00      0.000000D+00      0.000000D+00
   y          0.000000D+00      0.000000D+00      0.000000D+00
   z          0.157953D+00      0.401476D+00      0.133918D+01

 Dipole polarizability, Alpha (dipole orientation).
 (esu units = cm**3 , SI units = C**2 m**2 J**-1)
 Alpha(0;0):
               (au)            (10**-24 esu)      (10**-40 SI)
   iso        0.394668D+02      0.584837D+01      0.650719D+01
   aniso      0.934447D+01      0.138471D+01      0.154070D+01
   xx         0.408717D+02      0.605656D+01      0.673883D+01
   yx        -0.107767D+01     -0.159694D+00     -0.177683D+00
   yy         0.351428D+02      0.520762D+01      0.579426D+01
   zx        -0.362293D+01     -0.536862D+00     -0.597340D+00
   zy         0.473052D+00      0.700991D-01      0.779957D-01
   zz         0.423858D+02      0.628093D+01      0.698847D+01

 ----------------------------------------------------------------------
 Unable to Open any file for archive entry.
 1\1\GINC-SPARTAN-BM195\Freq\UM062X\def2TZVPP\C3F5O1\AKHALILOV\24-May-2
 025\0\\#P Geom=AllCheck Guess=TCheck SCRF=Check GenChk UM062X/def2TZVP
 P Freq\\Gaussian input prepared by ASE\\0,2\C,1.5284797424,0.034706815
 3,-0.0143275757\O,2.2180488204,-0.8937219983,0.0958879681\C,-0.0352950
 539,-0.0287000593,-0.017240737\C,-0.5835894942,0.372746753,1.365890255
 3\F,-1.904801271,0.317589371,1.3627162845\F,-0.1151814685,-0.456950665
 9,2.2886613343\F,-0.2006603008,1.6068522905,1.6613673367\F,-0.49918616
 87,0.8244313887,-0.9328117303\F,-0.4661748056,-1.2584358949,-0.3101641
 361\\Version=ES64L-G16RevC.01\HF=-688.7497286\S2=0.753857\S2-1=0.\S2A=
 0.75001\RMSD=1.235e-09\RMSF=2.096e-06\ZeroPoint=0.0341955\Thermal=0.04
 23905\ETot=-688.707338\HTot=-688.7063939\GTot=-688.7507532\Dipole=-0.0
 587429,0.1449275,-0.0222342\DipoleDeriv=0.5810905,-0.2906364,-0.067926
 8,-0.3376363,0.3416281,-0.0332634,0.058373,-0.0288797,-0.0984238,-0.58
 43369,0.2308001,0.0097387,0.4895176,-0.4596321,0.0077466,-0.0574122,0.
 0283247,-0.0800193,0.8698552,0.0772779,0.1899039,0.0009836,1.3177588,-
 0.0786035,0.3758052,-0.1158473,1.0464202,1.6246595,0.0020344,0.074671,
 -0.0326145,1.5803427,-0.0673452,-0.1571488,-0.0295553,1.3915212,-0.993
 6138,-0.001229,0.0300644,0.011987,-0.2729268,-0.0177138,0.1475682,-0.0
 254548,-0.3322822,-0.3563127,0.1229373,-0.0895322,0.1249066,-0.4925593
 ,0.2205422,-0.1043889,0.2805787,-0.653099,-0.3336825,-0.111466,0.00638
 09,-0.1343528,-0.8051491,-0.1300388,0.0020091,-0.2106997,-0.3702393,-0
 .3565656,0.1428206,-0.131781,0.1411648,-0.4713193,0.206149,-0.1816151,
 0.2721727,-0.5764276,-0.4510938,-0.1725388,-0.0215189,-0.2639561,-0.73
 8143,-0.1074731,-0.0831905,-0.1706392,-0.3274504\Polar=43.6083239,-3.2
 229462,39.7058713,-0.615665,-0.374023,35.0860762\PG=Unknown\NImag=0\\0
 .49884345,-0.44289886,0.78297762,0.05675636,-0.09167127,0.04656050,-0.
 37311530,0.46097128,-0.05460435,0.42288802,0.46890183,-0.70179736,0.08
 261673,-0.49872081,0.69190224,-0.05548626,0.08326836,-0.01121597,0.059
 18041,-0.08081624,0.01025961,-0.06558287,-0.01295700,0.00800985,-0.044
 15152,0.02493476,-0.00386251,0.43348039,-0.02522092,-0.05533317,0.0055
 2375,0.03649432,-0.00282516,-0.00260544,-0.00301392,0.56233157,0.00200
 813,0.01051685,-0.03556350,0.00154811,-0.00966488,0.00384847,0.0418182
 6,-0.00384188,0.53106082,-0.01778554,0.00586107,0.01881739,-0.00082221
 ,-0.00035715,-0.00009311,-0.08329652,0.02121288,0.07609567,0.60817853,
 0.00298049,0.00660768,-0.00353647,-0.00185120,-0.00157088,0.00205100,0
 .00962995,-0.04763638,-0.03603287,-0.00476623,0.59891968,0.01996395,-0
 .01032134,0.00491988,-0.01035007,0.01224425,-0.00337016,0.03160585,-0.
 03964223,-0.16270566,-0.01756284,0.00786769,0.62015604,0.00601724,-0.0
 0095706,0.00345986,-0.00339970,0.00313204,-0.00042093,-0.05399361,-0.0
 0297351,0.00031233,-0.32318270,-0.00054179,0.03144004,0.45581469,-0.00
 053045,-0.00046611,-0.00031499,0.00053910,-0.00005406,-0.00011639,0.00
 906259,0.00271282,-0.00133763,-0.00264703,-0.07630688,-0.00188342,0.01
 646649,0.08218852,-0.00373268,0.00128767,-0.00307483,0.00297485,-0.002
 87912,0.00051149,0.03869861,0.00070177,-0.00170801,0.02533674,-0.00208
 346,-0.08585098,0.00335479,-0.00228000,0.07308040,-0.00067880,0.001132
 59,-0.00174996,0.00082954,-0.00168073,0.00151547,0.00657677,-0.0000854
 0,-0.00064951,-0.09724873,0.04044218,-0.05072266,-0.05059873,0.0367463
 1,-0.04726722,0.12499860,0.00162992,-0.00194213,0.00128193,-0.00123568
 ,0.00214930,-0.00110947,0.00486658,-0.00736872,0.00625084,0.03998498,-
 0.15313058,0.10641422,0.02683624,0.00249547,0.01224262,-0.07887700,0.2
 2568913,-0.00333727,0.00161265,-0.00154600,0.00297064,-0.00296452,0.00
 072665,-0.01859250,0.03823436,-0.02624137,-0.04595364,0.09814806,-0.23
 032620,-0.03156912,0.01084636,0.00098914,0.09229563,-0.16481045,0.2570
 9912,-0.00041504,0.00040077,0.00155681,0.00025113,0.00025885,-0.000798
 23,0.00770660,0.00147532,-0.00214005,-0.08979000,-0.04993489,-0.013757
 52,-0.04375407,-0.05964240,-0.01728300,0.01459251,0.00782860,0.0019941
 9,0.11060651,-0.00047391,0.00034807,0.00080456,0.00056405,-0.00028722,
 -0.00071778,-0.01286456,-0.03416624,-0.00178716,-0.04646524,-0.2811594
 9,-0.07945142,-0.04293525,-0.01608944,-0.00629515,0.00203237,-0.075389
 37,0.02176579,0.09808328,0.40463315,-0.00090064,0.00158450,-0.00106463
 ,0.00107566,-0.00191356,0.00032481,-0.01107739,-0.03310032,-0.00012221
 ,-0.01100651,-0.07060351,-0.11091073,-0.00978055,-0.00383908,0.0128274
 2,0.00313386,0.03851019,0.01411127,0.02674734,0.07689248,0.09305332,-0
 .02027571,0.03069103,-0.02871140,-0.00798636,-0.00083688,0.00198339,-0
 .10384782,0.05206186,-0.08403636,0.00187662,0.00194010,0.00537016,0.00
 679363,-0.00170268,-0.00087659,0.00094397,-0.00101546,0.00177062,0.000
 27848,-0.00037456,0.00005603,0.10902121,0.01190024,-0.00353643,0.00590
 649,0.00243372,0.00032397,0.00110820,0.05382587,-0.15090823,0.11623529
 ,0.00365242,-0.00952272,0.00666387,-0.00220047,0.00195243,-0.00053256,
 -0.00022917,0.00165496,0.00096210,-0.00006248,0.00593537,-0.00012932,-
 0.07818961,0.22411244,-0.01202186,0.01093580,-0.00408869,-0.00355571,0
 .00073972,-0.00072896,-0.06512829,0.09879783,-0.21289944,-0.02665958,0
 .03818121,-0.02997925,0.00253498,-0.00243770,0.00244899,0.00239637,0.0
 0109297,-0.01498844,0.00154092,-0.00330197,0.00045729,0.09620015,-0.16
 456890,0.24686315,-0.02700743,-0.04224381,-0.00353456,0.00550639,0.004
 36808,-0.00201821,-0.09689141,-0.07995063,-0.03495659,0.00207054,0.002
 10137,0.00401309,0.00630325,0.00170807,-0.00120549,0.00058488,-0.00001
 818,0.00042144,0.00052388,0.00243383,0.00175221,0.01319599,0.00886948,
 0.00469302,0.09571390,-0.01628833,-0.02685818,-0.00061073,0.00080522,0
 .01215915,-0.00106224,-0.07348427,-0.26680650,-0.08033855,-0.01647572,
 -0.03620043,-0.00189161,0.00317331,0.00356725,-0.00016177,0.00051886,0
 .00584194,-0.00379435,0.00159294,-0.00382483,-0.00740138,-0.00257380,-
 0.07001179,0.02056104,0.10273178,0.38213339,-0.00324973,-0.00721321,0.
 00507325,0.00076047,0.00263762,-0.00035594,-0.02147188,-0.06406785,-0.
 09566910,-0.01897413,-0.03399165,-0.00193294,0.00066860,0.00136286,0.0
 0077638,0.00104803,0.00012715,0.00017584,0.00213954,-0.00790935,-0.008
 67654,0.00824401,0.03435483,0.01291536,0.03083509,0.07469961,0.0876936
 8\\0.00000065,0.00000059,0.00000296,0.00000066,-0.00000053,0.00000290,
 0.00000200,0.00000087,-0.00000065,-0.00000149,-0.00000110,-0.00000051,
 -0.00000137,-0.00000022,-0.00000330,-0.00000382,-0.00000294,-0.0000012
 3,-0.00000122,-0.00000182,0.00000260,0.00000394,0.00000303,0.00000067,
 0.00000064,0.00000214,-0.00000344\\\@
 The archive entry for this job was punched.


 A DANDELION FROM A LOVER MEANS MORE THAN AN ORCHID FROM A FRIEND.
 Job cpu time:       0 days  0 hours 23 minutes 38.3 seconds.
 Elapsed time:       0 days  0 hours  3 minutes  0.5 seconds.
 File lengths (MBytes):  RWF=    141 Int=      0 D2E=      0 Chk=      8 Scr=      1
 Normal termination of Gaussian 16 at Sat May 24 00:06:50 2025.
done
