 Entering Gaussian System, Link 0=g16
 Initial command:
 /apps/easybuild-2022/easybuild/software/Compiler/NVHPC/22.11-CUDA-11.7.0/Gaussian/g16c01-CUDA-11.7.0/g16/l1.exe "/tmp/Gau-149909.inp" -scrdir="/tmp/"
 Entering Link 1 = /apps/easybuild-2022/easybuild/software/Compiler/NVHPC/22.11-CUDA-11.7.0/Gaussian/g16c01-CUDA-11.7.0/g16/l1.exe PID=    149910.
  
 Copyright (c) 1988-2019, Gaussian, Inc.  All Rights Reserved.
  
 This is part of the Gaussian(R) 16 program.  It is based on
 the Gaussian(R) 09 system (copyright 2009, Gaussian, Inc.),
 the Gaussian(R) 03 system (copyright 2003, Gaussian, Inc.),
 the Gaussian(R) 98 system (copyright 1998, Gaussian, Inc.),
 the Gaussian(R) 94 system (copyright 1995, Gaussian, Inc.),
 the Gaussian 92(TM) system (copyright 1992, Gaussian, Inc.),
 the Gaussian 90(TM) system (copyright 1990, Gaussian, Inc.),
 the Gaussian 88(TM) system (copyright 1988, Gaussian, Inc.),
 the Gaussian 86(TM) system (copyright 1986, Carnegie Mellon
 University), and the Gaussian 82(TM) system (copyright 1983,
 Carnegie Mellon University). Gaussian is a federally registered
 trademark of Gaussian, Inc.
  
 This software contains proprietary and confidential information,
 including trade secrets, belonging to Gaussian, Inc.
  
 This software is provided under written license and may be
 used, copied, transmitted, or stored only in accord with that
 written license.
  
 The following legend is applicable only to US Government
 contracts under FAR:
  
                    RESTRICTED RIGHTS LEGEND
  
 Use, reproduction and disclosure by the US Government is
 subject to restrictions as set forth in subparagraphs (a)
 and (c) of the Commercial Computer Software - Restricted
 Rights clause in FAR 52.227-19.
  
 Gaussian, Inc.
 340 Quinnipiac St., Bldg. 40, Wallingford CT 06492
  
  
 ---------------------------------------------------------------
 Warning -- This program may not be used in any manner that
 competes with the business of Gaussian, Inc. or will provide
 assistance to any competitor of Gaussian, Inc.  The licensee
 of this program is prohibited from giving any competitor of
 Gaussian, Inc. access to this program.  By using this program,
 the user acknowledges that Gaussian, Inc. is engaged in the
 business of creating and licensing software in the field of
 computational chemistry and represents and warrants to the
 licensee that it is not a competitor of Gaussian, Inc. and that
 it will not use this program in any manner prohibited above.
 ---------------------------------------------------------------
  

 Cite this work as:
 Gaussian 16, Revision C.01,
 M. J. Frisch, G. W. Trucks, H. B. Schlegel, G. E. Scuseria, 
 M. A. Robb, J. R. Cheeseman, G. Scalmani, V. Barone, 
 G. A. Petersson, H. Nakatsuji, X. Li, M. Caricato, A. V. Marenich, 
 J. Bloino, B. G. Janesko, R. Gomperts, B. Mennucci, H. P. Hratchian, 
 J. V. Ortiz, A. F. Izmaylov, J. L. Sonnenberg, D. Williams-Young, 
 F. Ding, F. Lipparini, F. Egidi, J. Goings, B. Peng, A. Petrone, 
 T. Henderson, D. Ranasinghe, V. G. Zakrzewski, J. Gao, N. Rega, 
 G. Zheng, W. Liang, M. Hada, M. Ehara, K. Toyota, R. Fukuda, 
 J. Hasegawa, M. Ishida, T. Nakajima, Y. Honda, O. Kitao, H. Nakai, 
 T. Vreven, K. Throssell, J. A. Montgomery, Jr., J. E. Peralta, 
 F. Ogliaro, M. J. Bearpark, J. J. Heyd, E. N. Brothers, K. N. Kudin, 
 V. N. Staroverov, T. A. Keith, R. Kobayashi, J. Normand, 
 K. Raghavachari, A. P. Rendell, J. C. Burant, S. S. Iyengar, 
 J. Tomasi, M. Cossi, J. M. Millam, M. Klene, C. Adamo, R. Cammi, 
 J. W. Ochterski, R. L. Martin, K. Morokuma, O. Farkas, 
 J. B. Foresman, and D. J. Fox, Gaussian, Inc., Wallingford CT, 2019.
 
 ******************************************
 Gaussian 16:  ES64L-G16RevC.01  3-Jul-2019
                24-May-2025 
 ******************************************
 %mem=28GB
 %chk=1642764945472630600001_r13_insertion_ROR_8_3_1_2_IRC_R_prod
 %nprocshared=8
 Will use up to    8 processors via shared memory.
 -----------------------------------------------------------------
 #P M062X/Def2TZVPP Symm(None) scf(xqc) pop(None) freq opt(CalcFC)
 -----------------------------------------------------------------
 1/10=4,18=20,19=15,26=3,38=1/1,3;
 2/9=110,12=2,15=3,17=6,18=5,40=1/2;
 3/5=44,7=202,11=2,25=1,30=1,71=2,74=-55,140=1/1,2,3;
 4//1;
 5/5=2,8=3,13=1,38=5/2,8;
 8/6=4,10=90,11=11/1;
 11/6=1,8=1,9=11,15=111,16=1,31=1/1,2,10;
 10/6=1,13=1,31=1/2;
 7/10=1,25=1,30=1/1,2,3,16;
 1/10=4,18=20,19=15,26=3/3(2);
 2/9=110,15=3/2;
 99//99;
 2/9=110,15=3/2;
 3/5=44,7=202,11=2,25=1,30=1,71=1,74=-55/1,2,3;
 4/5=5,16=3,69=1/1;
 5/5=2,8=3,13=1,38=5/2,8;
 7/30=1/1,2,3,16;
 1/18=20,19=15,26=3/3(-5);
 2/9=110,15=3/2;
 99/9=1/99;
 Leave Link    1 at Sat May 24 07:10:59 2025, MaxMem=  3758096384 cpu:               0.0 elap:               0.0
 (Enter /apps/easybuild-2022/easybuild/software/Compiler/NVHPC/22.11-CUDA-11.7.0/Gaussian/g16c01-CUDA-11.7.0/g16/l101.exe)
 ------------------------------
 Gaussian input prepared by ASE
 ------------------------------
 Symbolic Z-matrix:
 Charge =  0 Multiplicity = 1
 C                     0.7941    1.24557  -0.59593 
 O                     1.16779   1.8363    0.35928 
 C                    -0.11432   0.06155  -0.45844 
 C                    -0.18946  -0.94381   0.71119 
 F                     0.55692  -2.04094   0.54816 
 F                     0.16372  -0.37149   1.83171 
 F                    -1.45541  -1.33468   0.73262 
 F                    -1.21323   1.20361   0.04419 
 F                    -0.18218  -0.69079  -1.55782 
 O                     0.91131   1.57818  -1.87964 
 H                     1.32079   2.4533   -1.92434 
 
 Add virtual bond connecting atoms F8         and C3         Dist= 3.14D+00.
 ITRead=  0  0  0  0  0  0  0  0  0  0  0
 MicOpt= -1 -1 -1 -1 -1 -1 -1 -1 -1 -1 -1
 NAtoms=     11 NQM=       11 NQMF=       0 NMMI=      0 NMMIF=      0
                NMic=       0 NMicF=      0.
                    Isotopes and Nuclear Properties:
 (Nuclear quadrupole moments (NQMom) in fm**2, nuclear magnetic moments (NMagM)
  in nuclear magnetons)

  Atom         1           2           3           4           5           6           7           8           9          10
 IAtWgt=          12          16          12          12          19          19          19          19          19          16
 AtmWgt=  12.0000000  15.9949146  12.0000000  12.0000000  18.9984032  18.9984032  18.9984032  18.9984032  18.9984032  15.9949146
 NucSpn=           0           0           0           0           1           1           1           1           1           0
 AtZEff=  -0.0000000  -0.0000000  -0.0000000  -0.0000000  -0.0000000  -0.0000000  -0.0000000  -0.0000000  -0.0000000  -0.0000000
 NQMom=    0.0000000   0.0000000   0.0000000   0.0000000   0.0000000   0.0000000   0.0000000   0.0000000   0.0000000   0.0000000
 NMagM=    0.0000000   0.0000000   0.0000000   0.0000000   2.6288670   2.6288670   2.6288670   2.6288670   2.6288670   0.0000000
 AtZNuc=   6.0000000   8.0000000   6.0000000   6.0000000   9.0000000   9.0000000   9.0000000   9.0000000   9.0000000   8.0000000

  Atom        11
 IAtWgt=           1
 AtmWgt=   1.0078250
 NucSpn=           1
 AtZEff=  -0.0000000
 NQMom=    0.0000000
 NMagM=    2.7928460
 AtZNuc=   1.0000000
 Leave Link  101 at Sat May 24 07:10:59 2025, MaxMem=  3758096384 cpu:               0.2 elap:               0.2
 (Enter /apps/easybuild-2022/easybuild/software/Compiler/NVHPC/22.11-CUDA-11.7.0/Gaussian/g16c01-CUDA-11.7.0/g16/l103.exe)

 GradGradGradGradGradGradGradGradGradGradGradGradGradGradGradGradGradGrad
 Berny optimization.
 Initialization pass.
                           ----------------------------
                           !    Initial Parameters    !
                           ! (Angstroms and Degrees)  !
 --------------------------                            --------------------------
 ! Name  Definition              Value          Derivative Info.                !
 --------------------------------------------------------------------------------
 ! R1    R(1,2)                  1.1836         calculate D2E/DX2 analytically  !
 ! R2    R(1,3)                  1.4987         calculate D2E/DX2 analytically  !
 ! R3    R(1,10)                 1.3313         calculate D2E/DX2 analytically  !
 ! R4    R(3,4)                  1.5442         calculate D2E/DX2 analytically  !
 ! R5    R(3,8)                  1.6627         calculate D2E/DX2 analytically  !
 ! R6    R(3,9)                  1.3339         calculate D2E/DX2 analytically  !
 ! R7    R(4,5)                  1.3369         calculate D2E/DX2 analytically  !
 ! R8    R(4,6)                  1.3068         calculate D2E/DX2 analytically  !
 ! R9    R(4,7)                  1.3251         calculate D2E/DX2 analytically  !
 ! R10   R(10,11)                0.9672         calculate D2E/DX2 analytically  !
 ! A1    A(2,1,3)              120.7722         calculate D2E/DX2 analytically  !
 ! A2    A(2,1,10)             128.7323         calculate D2E/DX2 analytically  !
 ! A3    A(3,1,10)             109.8293         calculate D2E/DX2 analytically  !
 ! A4    A(1,3,4)              127.8326         calculate D2E/DX2 analytically  !
 ! A5    A(1,3,8)               83.4356         calculate D2E/DX2 analytically  !
 ! A6    A(1,3,9)              113.6296         calculate D2E/DX2 analytically  !
 ! A7    A(4,3,8)              100.7234         calculate D2E/DX2 analytically  !
 ! A8    A(4,3,9)              104.75           calculate D2E/DX2 analytically  !
 ! A9    A(8,3,9)              127.0812         calculate D2E/DX2 analytically  !
 ! A10   A(3,4,5)              114.5043         calculate D2E/DX2 analytically  !
 ! A11   A(3,4,6)              110.5594         calculate D2E/DX2 analytically  !
 ! A12   A(3,4,7)              104.5241         calculate D2E/DX2 analytically  !
 ! A13   A(5,4,6)              108.2448         calculate D2E/DX2 analytically  !
 ! A14   A(5,4,7)              107.0536         calculate D2E/DX2 analytically  !
 ! A15   A(6,4,7)              111.9318         calculate D2E/DX2 analytically  !
 ! A16   A(1,10,11)            107.9327         calculate D2E/DX2 analytically  !
 ! D1    D(2,1,3,4)            -30.4872         calculate D2E/DX2 analytically  !
 ! D2    D(2,1,3,8)             68.0108         calculate D2E/DX2 analytically  !
 ! D3    D(2,1,3,9)           -164.246          calculate D2E/DX2 analytically  !
 ! D4    D(10,1,3,4)           158.084          calculate D2E/DX2 analytically  !
 ! D5    D(10,1,3,8)          -103.418          calculate D2E/DX2 analytically  !
 ! D6    D(10,1,3,9)            24.3253         calculate D2E/DX2 analytically  !
 ! D7    D(2,1,10,11)           -3.7876         calculate D2E/DX2 analytically  !
 ! D8    D(3,1,10,11)          166.7641         calculate D2E/DX2 analytically  !
 ! D9    D(1,3,4,5)            -93.5389         calculate D2E/DX2 analytically  !
 ! D10   D(1,3,4,6)             29.0382         calculate D2E/DX2 analytically  !
 ! D11   D(1,3,4,7)            149.6519         calculate D2E/DX2 analytically  !
 ! D12   D(8,3,4,5)            176.4755         calculate D2E/DX2 analytically  !
 ! D13   D(8,3,4,6)            -60.9474         calculate D2E/DX2 analytically  !
 ! D14   D(8,3,4,7)             59.6662         calculate D2E/DX2 analytically  !
 ! D15   D(9,3,4,5)             43.2844         calculate D2E/DX2 analytically  !
 ! D16   D(9,3,4,6)            165.8616         calculate D2E/DX2 analytically  !
 ! D17   D(9,3,4,7)            -73.5248         calculate D2E/DX2 analytically  !
 --------------------------------------------------------------------------------
 Trust Radius=3.00D-01 FncErr=1.00D-07 GrdErr=1.00D-06 EigMax=2.50D+02 EigMin=1.00D-04
 Number of steps in this run=     53 maximum allowed number of steps=    100.
 GradGradGradGradGradGradGradGradGradGradGradGradGradGradGradGradGradGrad

 Leave Link  103 at Sat May 24 07:10:59 2025, MaxMem=  3758096384 cpu:               0.0 elap:               0.0
 (Enter /apps/easybuild-2022/easybuild/software/Compiler/NVHPC/22.11-CUDA-11.7.0/Gaussian/g16c01-CUDA-11.7.0/g16/l202.exe)
                          Input orientation:                          
 ---------------------------------------------------------------------
 Center     Atomic      Atomic             Coordinates (Angstroms)
 Number     Number       Type             X           Y           Z
 ---------------------------------------------------------------------
      1          6           0        0.794095    1.245574   -0.595930
      2          8           0        1.167792    1.836298    0.359275
      3          6           0       -0.114324    0.061545   -0.458444
      4          6           0       -0.189458   -0.943812    0.711189
      5          9           0        0.556920   -2.040944    0.548157
      6          9           0        0.163716   -0.371489    1.831708
      7          9           0       -1.455405   -1.334683    0.732620
      8          9           0       -1.213227    1.203610    0.044190
      9          9           0       -0.182175   -0.690787   -1.557824
     10          8           0        0.911312    1.578182   -1.879635
     11          1           0        1.320793    2.453303   -1.924341
 ---------------------------------------------------------------------
                    Distance matrix (angstroms):
                    1          2          3          4          5
     1  C    0.000000
     2  O    1.183647   0.000000
     3  C    1.498683   2.337142   0.000000
     4  C    2.733011   3.113677   1.544160   0.000000
     5  F    3.488035   3.929611   2.425752   1.336921   0.000000
     6  F    2.984241   2.837349   2.347258   1.306847   2.142240
     7  F    3.671923   4.132272   2.273012   1.325089   2.140627
     8  F    2.107334   2.483712   1.662691   2.470711   3.730219
     9  F    2.372306   3.447294   1.333883   2.283089   2.608513
    10  O    1.331265   2.268287   2.317736   3.779486   4.372395
    11  H    1.871015   2.370444   3.151019   4.557112   5.186039
                    6          7          8          9         10
     6  F    0.000000
     7  F    2.181121   0.000000
     8  F    2.751750   2.641120   0.000000
     9  F    3.422064   2.698490   2.686681   0.000000
    10  O    4.258425   4.572746   2.890514   2.539192   0.000000
    11  H    4.840060   5.395883   3.443560   3.504076   0.967218
                   11
    11  H    0.000000
 Symmetry turned off by external request.
 Stoichiometry    C3HF5O2
 Rotational constants (GHZ):           2.0950613           1.0996976           1.0019904
 Leave Link  202 at Sat May 24 07:10:59 2025, MaxMem=  3758096384 cpu:               0.1 elap:               0.0
 (Enter /apps/easybuild-2022/easybuild/software/Compiler/NVHPC/22.11-CUDA-11.7.0/Gaussian/g16c01-CUDA-11.7.0/g16/l301.exe)
 Standard basis: def2TZVPP (5D, 7F)
 Ernie: Thresh=  0.10000D-02 Tol=  0.10000D-05 Strict=F.
   324 basis functions,   527 primitive gaussians,   375 cartesian basis functions
    40 alpha electrons       40 beta electrons
       nuclear repulsion energy       631.1577911440 Hartrees.
 IExCor= 4336 DFT=T Ex+Corr=M062X ExCW=0 ScaHFX=  0.540000
 ScaDFX=  1.000000  1.000000  1.000000  1.000000 ScalE2=  1.000000  1.000000
 IRadAn=      5 IRanWt=     -1 IRanGd=            0 ICorTp=0 IEmpDi=  4
 NAtoms=   11 NActive=   11 NUniq=   11 SFac= 1.00D+00 NAtFMM=   60 NAOKFM=F Big=F
 Integral buffers will be    131072 words long.
 Raffenetti 2 integral format.
 Two-electron integral symmetry is turned off.
 Leave Link  301 at Sat May 24 07:10:59 2025, MaxMem=  3758096384 cpu:               0.0 elap:               0.0
 (Enter /apps/easybuild-2022/easybuild/software/Compiler/NVHPC/22.11-CUDA-11.7.0/Gaussian/g16c01-CUDA-11.7.0/g16/l302.exe)
 NPDir=0 NMtPBC=     1 NCelOv=     1 NCel=       1 NClECP=     1 NCelD=      1
         NCelK=      1 NCelE2=     1 NClLst=     1 CellRange=     0.0.
 One-electron integrals computed using PRISM.
   1 Symmetry operations used in ECPInt.
 ECPInt:  NShTT=    6786 NPrTT=   21959 LenC2=    6428 LenP2D=   15862.
 LDataN:  DoStor=T MaxTD1= 6 Len=  172
 NBasis=   324 RedAO= T EigKep=  2.98D-04  NBF=   324
 NBsUse=   324 1.00D-06 EigRej= -1.00D+00 NBFU=   324
 Precomputing XC quadrature grid using
 IXCGrd= 4 IRadAn=           5 IRanWt=          -1 IRanGd=           0 AccXCQ= 0.00D+00.
 Generated NRdTot=       0 NPtTot=           0 NUsed=           0 NTot=          32
 NSgBfM=   374   374   374   374   374 MxSgAt=    11 MxSgA2=    11.
 Leave Link  302 at Sat May 24 07:10:59 2025, MaxMem=  3758096384 cpu:               0.8 elap:               0.2
 (Enter /apps/easybuild-2022/easybuild/software/Compiler/NVHPC/22.11-CUDA-11.7.0/Gaussian/g16c01-CUDA-11.7.0/g16/l303.exe)
 DipDrv:  MaxL=1.
 Leave Link  303 at Sat May 24 07:11:00 2025, MaxMem=  3758096384 cpu:               0.1 elap:               0.0
 (Enter /apps/easybuild-2022/easybuild/software/Compiler/NVHPC/22.11-CUDA-11.7.0/Gaussian/g16c01-CUDA-11.7.0/g16/l401.exe)
 ExpMin= 9.52D-02 ExpMax= 3.55D+04 ExpMxC= 1.21D+03 IAcc=3 IRadAn=         5 AccDes= 0.00D+00
 Harris functional with IExCor= 1009 and IRadAn=       5 diagonalized for initial guess.
 HarFok:  IExCor= 1009 AccDes= 0.00D+00 IRadAn=         5 IDoV= 1 UseB2=F ITyADJ=14
 ICtDFT=  3500011 ScaDFX=  1.000000  1.000000  1.000000  1.000000
 FoFCou: FMM=F IPFlag=           0 FMFlag=      100000 FMFlg1=           0
         NFxFlg=           0 DoJE=T BraDBF=F KetDBF=T FulRan=T
         wScrn=  0.000000 ICntrl=       500 IOpCl=  0 I1Cent=   200000004 NGrid=           0
         NMat0=    1 NMatS0=      1 NMatT0=    0 NMatD0=    1 NMtDS0=    0 NMtDT0=    0
 Symmetry not used in FoFCou.
 Harris En= -764.155965723611    
 JPrj=0 DoOrth=F DoCkMO=F.
 Leave Link  401 at Sat May 24 07:11:00 2025, MaxMem=  3758096384 cpu:               3.4 elap:               0.5
 (Enter /apps/easybuild-2022/easybuild/software/Compiler/NVHPC/22.11-CUDA-11.7.0/Gaussian/g16c01-CUDA-11.7.0/g16/l502.exe)
 Keep R1 ints in memory in canonical form, NReq=1412617130.
 FoFCou: FMM=F IPFlag=           0 FMFlag=           0 FMFlg1=           0
         NFxFlg=           0 DoJE=F BraDBF=F KetDBF=F FulRan=T
         wScrn=  0.000000 ICntrl=       600 IOpCl=  0 I1Cent=           0 NGrid=           0
         NMat0=    1 NMatS0=  52650 NMatT0=    0 NMatD0=    1 NMtDS0=    0 NMtDT0=    0
 Symmetry not used in FoFCou.
 Two-electron integral symmetry not used.
 Closed shell SCF:
 Using DIIS extrapolation, IDIIS=  1040.
 NGot=  3758096384 LenX=  2371771924 LenY=  2371630858
 Requested convergence on RMS density matrix=1.00D-08 within  32 cycles.
 Requested convergence on MAX density matrix=1.00D-06.
 Requested convergence on             energy=1.00D-06.
 No special actions if energy rises.
 Integral accuracy reduced to 1.0D-05 until final iterations.

 Cycle   1  Pass 0  IDiag  1:
 E= -764.397498504396    
 DIIS: error= 1.61D-02 at cycle   1 NSaved=   1.
 NSaved= 1 IEnMin= 1 EnMin= -764.397498504396     IErMin= 1 ErrMin= 1.61D-02
 ErrMax= 1.61D-02  0.00D+00 EMaxC= 1.00D-01 BMatC= 3.77D-01 BMatP= 3.77D-01
 IDIUse=3 WtCom= 8.39D-01 WtEn= 1.61D-01
 Coeff-Com:  0.100D+01
 Coeff-En:   0.100D+01
 Coeff:      0.100D+01
 Gap=     0.355 Goal=   None    Shift=    0.000
 GapD=    0.355 DampG=1.000 DampE=0.500 DampFc=0.5000 IDamp=-1.
 Damping current iteration by 5.00D-01
 RMSDP=2.40D-03 MaxDP=9.26D-02              OVMax= 2.15D-01

 Cycle   2  Pass 0  IDiag  1:
 E= -764.466467834184     Delta-E=       -0.068969329788 Rises=F Damp=T
 DIIS: error= 5.75D-03 at cycle   2 NSaved=   2.
 NSaved= 2 IEnMin= 2 EnMin= -764.466467834184     IErMin= 2 ErrMin= 5.75D-03
 ErrMax= 5.75D-03  0.00D+00 EMaxC= 1.00D-01 BMatC= 4.61D-02 BMatP= 3.77D-01
 IDIUse=3 WtCom= 9.42D-01 WtEn= 5.75D-02
 Coeff-Com:  0.913D-01 0.909D+00
 Coeff-En:   0.257D+00 0.743D+00
 Coeff:      0.101D+00 0.899D+00
 Gap=     0.360 Goal=   None    Shift=    0.000
 RMSDP=6.94D-04 MaxDP=3.45D-02 DE=-6.90D-02 OVMax= 1.24D-01

 Cycle   3  Pass 0  IDiag  1:
 E= -764.583180657354     Delta-E=       -0.116712823170 Rises=F Damp=F
 DIIS: error= 4.76D-03 at cycle   3 NSaved=   3.
 NSaved= 3 IEnMin= 3 EnMin= -764.583180657354     IErMin= 3 ErrMin= 4.76D-03
 ErrMax= 4.76D-03  0.00D+00 EMaxC= 1.00D-01 BMatC= 1.62D-02 BMatP= 4.61D-02
 IDIUse=3 WtCom= 9.52D-01 WtEn= 4.76D-02
 Coeff-Com: -0.671D-01 0.339D+00 0.728D+00
 Coeff-En:   0.000D+00 0.000D+00 0.100D+01
 Coeff:     -0.639D-01 0.323D+00 0.741D+00
 Gap=     0.348 Goal=   None    Shift=    0.000
 RMSDP=3.19D-04 MaxDP=1.17D-02 DE=-1.17D-01 OVMax= 3.79D-02

 Cycle   4  Pass 0  IDiag  1:
 E= -764.591475500031     Delta-E=       -0.008294842677 Rises=F Damp=F
 DIIS: error= 2.42D-03 at cycle   4 NSaved=   4.
 NSaved= 4 IEnMin= 4 EnMin= -764.591475500031     IErMin= 4 ErrMin= 2.42D-03
 ErrMax= 2.42D-03  0.00D+00 EMaxC= 1.00D-01 BMatC= 5.12D-03 BMatP= 1.62D-02
 IDIUse=3 WtCom= 9.76D-01 WtEn= 2.42D-02
 Coeff-Com: -0.453D-01 0.866D-01 0.422D+00 0.537D+00
 Coeff-En:   0.000D+00 0.000D+00 0.211D+00 0.789D+00
 Coeff:     -0.442D-01 0.845D-01 0.417D+00 0.543D+00
 Gap=     0.348 Goal=   None    Shift=    0.000
 RMSDP=1.28D-04 MaxDP=6.20D-03 DE=-8.29D-03 OVMax= 1.19D-02

 Cycle   5  Pass 0  IDiag  1:
 E= -764.594665482709     Delta-E=       -0.003189982678 Rises=F Damp=F
 DIIS: error= 3.08D-04 at cycle   5 NSaved=   5.
 NSaved= 5 IEnMin= 5 EnMin= -764.594665482709     IErMin= 5 ErrMin= 3.08D-04
 ErrMax= 3.08D-04  0.00D+00 EMaxC= 1.00D-01 BMatC= 7.65D-05 BMatP= 5.12D-03
 IDIUse=3 WtCom= 9.97D-01 WtEn= 3.08D-03
 Coeff-Com: -0.138D-01 0.202D-01 0.133D+00 0.207D+00 0.654D+00
 Coeff-En:   0.000D+00 0.000D+00 0.000D+00 0.000D+00 0.100D+01
 Coeff:     -0.138D-01 0.201D-01 0.132D+00 0.206D+00 0.655D+00
 Gap=     0.348 Goal=   None    Shift=    0.000
 RMSDP=2.32D-05 MaxDP=7.24D-04 DE=-3.19D-03 OVMax= 2.69D-03

 Cycle   6  Pass 0  IDiag  1:
 E= -764.594725334176     Delta-E=       -0.000059851467 Rises=F Damp=F
 DIIS: error= 1.08D-04 at cycle   6 NSaved=   6.
 NSaved= 6 IEnMin= 6 EnMin= -764.594725334176     IErMin= 6 ErrMin= 1.08D-04
 ErrMax= 1.08D-04  0.00D+00 EMaxC= 1.00D-01 BMatC= 7.49D-06 BMatP= 7.65D-05
 IDIUse=3 WtCom= 9.99D-01 WtEn= 1.08D-03
 Coeff-Com: -0.400D-03-0.150D-02 0.303D-02 0.111D-01 0.221D+00 0.767D+00
 Coeff-En:   0.000D+00 0.000D+00 0.000D+00 0.000D+00 0.000D+00 0.100D+01
 Coeff:     -0.399D-03-0.149D-02 0.303D-02 0.111D-01 0.221D+00 0.767D+00
 Gap=     0.349 Goal=   None    Shift=    0.000
 RMSDP=1.07D-05 MaxDP=4.90D-04 DE=-5.99D-05 OVMax= 9.13D-04

 Cycle   7  Pass 0  IDiag  1:
 E= -764.594731485230     Delta-E=       -0.000006151055 Rises=F Damp=F
 DIIS: error= 4.05D-05 at cycle   7 NSaved=   7.
 NSaved= 7 IEnMin= 7 EnMin= -764.594731485230     IErMin= 7 ErrMin= 4.05D-05
 ErrMax= 4.05D-05  0.00D+00 EMaxC= 1.00D-01 BMatC= 1.52D-06 BMatP= 7.49D-06
 IDIUse=1 WtCom= 1.00D+00 WtEn= 0.00D+00
 Coeff-Com:  0.178D-02-0.363D-02-0.171D-01-0.257D-01 0.148D-01 0.333D+00
 Coeff-Com:  0.697D+00
 Coeff:      0.178D-02-0.363D-02-0.171D-01-0.257D-01 0.148D-01 0.333D+00
 Coeff:      0.697D+00
 Gap=     0.349 Goal=   None    Shift=    0.000
 RMSDP=3.84D-06 MaxDP=1.63D-04 DE=-6.15D-06 OVMax= 6.01D-04

 Initial convergence to 1.0D-05 achieved.  Increase integral accuracy.
 Cycle   8  Pass 1  IDiag  1:
 E= -764.594690792947     Delta-E=        0.000040692283 Rises=F Damp=F
 DIIS: error= 3.26D-05 at cycle   1 NSaved=   1.
 NSaved= 1 IEnMin= 1 EnMin= -764.594690792947     IErMin= 1 ErrMin= 3.26D-05
 ErrMax= 3.26D-05  0.00D+00 EMaxC= 1.00D-01 BMatC= 8.65D-07 BMatP= 8.65D-07
 IDIUse=1 WtCom= 1.00D+00 WtEn= 0.00D+00
 Coeff-Com:  0.100D+01
 Coeff:      0.100D+01
 Gap=     0.349 Goal=   None    Shift=    0.000
 RMSDP=3.84D-06 MaxDP=1.63D-04 DE= 4.07D-05 OVMax= 3.14D-04

 Cycle   9  Pass 1  IDiag  1:
 E= -764.594691178313     Delta-E=       -0.000000385367 Rises=F Damp=F
 DIIS: error= 2.46D-05 at cycle   2 NSaved=   2.
 NSaved= 2 IEnMin= 2 EnMin= -764.594691178313     IErMin= 2 ErrMin= 2.46D-05
 ErrMax= 2.46D-05  0.00D+00 EMaxC= 1.00D-01 BMatC= 4.75D-07 BMatP= 8.65D-07
 IDIUse=1 WtCom= 1.00D+00 WtEn= 0.00D+00
 Coeff-Com:  0.396D+00 0.604D+00
 Coeff:      0.396D+00 0.604D+00
 Gap=     0.349 Goal=   None    Shift=    0.000
 RMSDP=1.75D-06 MaxDP=9.64D-05 DE=-3.85D-07 OVMax= 3.16D-04

 Cycle  10  Pass 1  IDiag  1:
 E= -764.594691411821     Delta-E=       -0.000000233508 Rises=F Damp=F
 DIIS: error= 1.55D-05 at cycle   3 NSaved=   3.
 NSaved= 3 IEnMin= 3 EnMin= -764.594691411821     IErMin= 3 ErrMin= 1.55D-05
 ErrMax= 1.55D-05  0.00D+00 EMaxC= 1.00D-01 BMatC= 1.49D-07 BMatP= 4.75D-07
 IDIUse=1 WtCom= 1.00D+00 WtEn= 0.00D+00
 Coeff-Com: -0.264D-01 0.353D+00 0.673D+00
 Coeff:     -0.264D-01 0.353D+00 0.673D+00
 Gap=     0.349 Goal=   None    Shift=    0.000
 RMSDP=9.47D-07 MaxDP=3.81D-05 DE=-2.34D-07 OVMax= 9.38D-05

 Cycle  11  Pass 1  IDiag  1:
 E= -764.594691511563     Delta-E=       -0.000000099742 Rises=F Damp=F
 DIIS: error= 2.06D-06 at cycle   4 NSaved=   4.
 NSaved= 4 IEnMin= 4 EnMin= -764.594691511563     IErMin= 4 ErrMin= 2.06D-06
 ErrMax= 2.06D-06  0.00D+00 EMaxC= 1.00D-01 BMatC= 3.19D-09 BMatP= 1.49D-07
 IDIUse=1 WtCom= 1.00D+00 WtEn= 0.00D+00
 Coeff-Com: -0.248D-01 0.114D+00 0.239D+00 0.672D+00
 Coeff:     -0.248D-01 0.114D+00 0.239D+00 0.672D+00
 Gap=     0.349 Goal=   None    Shift=    0.000
 RMSDP=1.52D-07 MaxDP=7.18D-06 DE=-9.97D-08 OVMax= 2.58D-05

 Cycle  12  Pass 1  IDiag  1:
 E= -764.594691514349     Delta-E=       -0.000000002786 Rises=F Damp=F
 DIIS: error= 7.90D-07 at cycle   5 NSaved=   5.
 NSaved= 5 IEnMin= 5 EnMin= -764.594691514349     IErMin= 5 ErrMin= 7.90D-07
 ErrMax= 7.90D-07  0.00D+00 EMaxC= 1.00D-01 BMatC= 5.42D-10 BMatP= 3.19D-09
 IDIUse=1 WtCom= 1.00D+00 WtEn= 0.00D+00
 Coeff-Com: -0.613D-03-0.318D-01-0.708D-01 0.186D+00 0.917D+00
 Coeff:     -0.613D-03-0.318D-01-0.708D-01 0.186D+00 0.917D+00
 Gap=     0.349 Goal=   None    Shift=    0.000
 RMSDP=1.05D-07 MaxDP=3.82D-06 DE=-2.79D-09 OVMax= 1.18D-05

 Cycle  13  Pass 1  IDiag  1:
 E= -764.594691515005     Delta-E=       -0.000000000656 Rises=F Damp=F
 DIIS: error= 4.47D-07 at cycle   6 NSaved=   6.
 NSaved= 6 IEnMin= 6 EnMin= -764.594691515005     IErMin= 6 ErrMin= 4.47D-07
 ErrMax= 4.47D-07  0.00D+00 EMaxC= 1.00D-01 BMatC= 1.42D-10 BMatP= 5.42D-10
 IDIUse=1 WtCom= 1.00D+00 WtEn= 0.00D+00
 Coeff-Com:  0.329D-02-0.316D-01-0.718D-01-0.467D-03 0.477D+00 0.624D+00
 Coeff:      0.329D-02-0.316D-01-0.718D-01-0.467D-03 0.477D+00 0.624D+00
 Gap=     0.349 Goal=   None    Shift=    0.000
 RMSDP=3.40D-08 MaxDP=1.91D-06 DE=-6.56D-10 OVMax= 5.20D-06

 Cycle  14  Pass 1  IDiag  1:
 E= -764.594691515175     Delta-E=       -0.000000000171 Rises=F Damp=F
 DIIS: error= 1.28D-07 at cycle   7 NSaved=   7.
 NSaved= 7 IEnMin= 7 EnMin= -764.594691515175     IErMin= 7 ErrMin= 1.28D-07
 ErrMax= 1.28D-07  0.00D+00 EMaxC= 1.00D-01 BMatC= 1.41D-11 BMatP= 1.42D-10
 IDIUse=1 WtCom= 1.00D+00 WtEn= 0.00D+00
 Coeff-Com:  0.148D-02-0.103D-01-0.242D-01-0.261D-01 0.863D-01 0.264D+00
 Coeff-Com:  0.709D+00
 Coeff:      0.148D-02-0.103D-01-0.242D-01-0.261D-01 0.863D-01 0.264D+00
 Coeff:      0.709D+00
 Gap=     0.349 Goal=   None    Shift=    0.000
 RMSDP=1.30D-08 MaxDP=6.90D-07 DE=-1.71D-10 OVMax= 1.48D-06

 Cycle  15  Pass 1  IDiag  1:
 E= -764.594691515179     Delta-E=       -0.000000000004 Rises=F Damp=F
 DIIS: error= 4.81D-08 at cycle   8 NSaved=   8.
 NSaved= 8 IEnMin= 8 EnMin= -764.594691515179     IErMin= 8 ErrMin= 4.81D-08
 ErrMax= 4.81D-08  0.00D+00 EMaxC= 1.00D-01 BMatC= 2.60D-12 BMatP= 1.41D-11
 IDIUse=1 WtCom= 1.00D+00 WtEn= 0.00D+00
 Coeff-Com:  0.634D-05 0.219D-02 0.395D-02-0.110D-01-0.576D-01-0.174D-02
 Coeff-Com:  0.332D+00 0.732D+00
 Coeff:      0.634D-05 0.219D-02 0.395D-02-0.110D-01-0.576D-01-0.174D-02
 Coeff:      0.332D+00 0.732D+00
 Gap=     0.349 Goal=   None    Shift=    0.000
 RMSDP=5.28D-09 MaxDP=2.61D-07 DE=-3.87D-12 OVMax= 6.47D-07

 SCF Done:  E(RM062X) =  -764.594691515     A.U. after   15 cycles
            NFock= 15  Conv=0.53D-08     -V/T= 2.0039
 KE= 7.616260228996D+02 PE=-3.074687905599D+03 EE= 9.173094000397D+02
 Leave Link  502 at Sat May 24 07:11:29 2025, MaxMem=  3758096384 cpu:             115.0 elap:              29.1
 (Enter /apps/easybuild-2022/easybuild/software/Compiler/NVHPC/22.11-CUDA-11.7.0/Gaussian/g16c01-CUDA-11.7.0/g16/l508.exe)
 QCSCF skips out because SCF is already converged.
 Leave Link  508 at Sat May 24 07:11:29 2025, MaxMem=  3758096384 cpu:               0.0 elap:               0.0
 (Enter /apps/easybuild-2022/easybuild/software/Compiler/NVHPC/22.11-CUDA-11.7.0/Gaussian/g16c01-CUDA-11.7.0/g16/l801.exe)
 DoSCS=F DFT=T ScalE2(SS,OS)=  1.000000  1.000000
 Range of M.O.s used for correlation:     1   324
 NBasis=   324 NAE=    40 NBE=    40 NFC=     0 NFV=     0
 NROrb=    324 NOA=    40 NOB=    40 NVA=   284 NVB=   284

 **** Warning!!: The largest alpha MO coefficient is  0.18847241D+02

 Leave Link  801 at Sat May 24 07:11:29 2025, MaxMem=  3758096384 cpu:               0.1 elap:               0.0
 (Enter /apps/easybuild-2022/easybuild/software/Compiler/NVHPC/22.11-CUDA-11.7.0/Gaussian/g16c01-CUDA-11.7.0/g16/l1101.exe)
 Using compressed storage, NAtomX=    11.
 Will process     12 centers per pass.
   1 Symmetry operations used in ECPInt.
 ECPInt:  NShTT=    6786 NPrTT=   21959 LenC2=    6428 LenP2D=   15862.
 LDataN:  DoStor=T MaxTD1= 7 Len=  274
 Leave Link 1101 at Sat May 24 07:11:30 2025, MaxMem=  3758096384 cpu:               1.7 elap:               0.4
 (Enter /apps/easybuild-2022/easybuild/software/Compiler/NVHPC/22.11-CUDA-11.7.0/Gaussian/g16c01-CUDA-11.7.0/g16/l1102.exe)
 Symmetrizing basis deriv contribution to polar:
 IMax=3 JMax=2 DiffMx= 0.00D+00
 Leave Link 1102 at Sat May 24 07:11:30 2025, MaxMem=  3758096384 cpu:               0.2 elap:               0.1
 (Enter /apps/easybuild-2022/easybuild/software/Compiler/NVHPC/22.11-CUDA-11.7.0/Gaussian/g16c01-CUDA-11.7.0/g16/l1110.exe)
 Forming Gx(P) for the SCF density, NAtomX=    11.
 Integral derivatives from FoFJK, PRISM(SPDF).
 Do as many integral derivatives as possible in FoFJK.
 G2DrvN: MDV=    3758095115.
 G2DrvN: will do    12 centers at a time, making    1 passes.
 Calling FoFCou, ICntrl=  3107 FMM=F I1Cent=   0 AccDes= 0.00D+00.
 FoFJK:  IHMeth= 1 ICntrl=    3107 DoSepK=F KAlg= 0 I1Cent=           0 FoldK=F
 IRaf=         0 NMat=       1 IRICut=       1 DoRegI=T DoRafI=F ISym2E= 0 IDoP0=0 IntGTp=1.
 FoFCou: FMM=F IPFlag=           0 FMFlag=      100000 FMFlg1=           0
         NFxFlg=           0 DoJE=F BraDBF=F KetDBF=F FulRan=T
         wScrn=  0.000000 ICntrl=      3107 IOpCl=  0 I1Cent=           0 NGrid=           0
         NMat0=    1 NMatS0=      1 NMatT0=    0 NMatD0=    1 NMtDS0=    0 NMtDT0=    0
 Symmetry not used in FoFCou.
 End of G2Drv F.D. properties file   721 does not exist.
 End of G2Drv F.D. properties file   722 does not exist.
 End of G2Drv F.D. properties file   788 does not exist.
 Leave Link 1110 at Sat May 24 07:12:09 2025, MaxMem=  3758096384 cpu:             296.1 elap:              39.0
 (Enter /apps/easybuild-2022/easybuild/software/Compiler/NVHPC/22.11-CUDA-11.7.0/Gaussian/g16c01-CUDA-11.7.0/g16/l1002.exe)
 Minotr:  Closed shell wavefunction.
          IDoAtm=11111111111
          Direct CPHF calculation.
          Differentiating once with respect to nuclear coordinates.
          Requested convergence is 1.0D-08 RMS, and 1.0D-07 maximum.
          Secondary convergence is 1.0D-12 RMS, and 1.0D-12 maximum.
          NewPWx=T KeepS1=F KeepF1=F KeepIn=T MapXYZ=F SortEE=F KeepMc=T.
         3307 words used for storage of precomputed grid.
 Keep R1 ints in memory in canonical form, NReq=1412622537.
 FoFCou: FMM=F IPFlag=           0 FMFlag=           0 FMFlg1=           0
         NFxFlg=           0 DoJE=F BraDBF=F KetDBF=F FulRan=T
         wScrn=  0.000000 ICntrl=       600 IOpCl=  0 I1Cent=           0 NGrid=           0
         NMat0=    1 NMatS0=  52650 NMatT0=    0 NMatD0=    1 NMtDS0=    0 NMtDT0=    0
 Symmetry not used in FoFCou.
 Two-electron integral symmetry not used.
          MDV=    3758096384 using IRadAn=       1.
          Solving linear equations simultaneously, MaxMat=       0.
          There are    36 degrees of freedom in the 1st order CPHF.  IDoFFX=6 NUNeed=     0.
     30 vectors produced by pass  0 Test12= 3.16D-14 2.78D-09 XBig12= 1.53D-01 6.95D-02.
 AX will form    30 AO Fock derivatives at one time.
     30 vectors produced by pass  1 Test12= 3.16D-14 2.78D-09 XBig12= 3.11D-02 3.95D-02.
     30 vectors produced by pass  2 Test12= 3.16D-14 2.78D-09 XBig12= 1.45D-03 6.89D-03.
     30 vectors produced by pass  3 Test12= 3.16D-14 2.78D-09 XBig12= 3.01D-05 7.57D-04.
     30 vectors produced by pass  4 Test12= 3.16D-14 2.78D-09 XBig12= 3.93D-07 6.48D-05.
     30 vectors produced by pass  5 Test12= 3.16D-14 2.78D-09 XBig12= 3.19D-09 6.32D-06.
     30 vectors produced by pass  6 Test12= 3.16D-14 2.78D-09 XBig12= 1.85D-11 4.55D-07.
     14 vectors produced by pass  7 Test12= 3.16D-14 2.78D-09 XBig12= 9.91D-14 3.92D-08.
 InvSVY:  IOpt=1 It=  1 EMax= 1.11D-15
 Solved reduced A of dimension   224 with    30 vectors.
 End of Minotr F.D. properties file   721 does not exist.
 End of Minotr F.D. properties file   722 does not exist.
 End of Minotr F.D. properties file   788 does not exist.
 Leave Link 1002 at Sat May 24 07:13:00 2025, MaxMem=  3758096384 cpu:             406.9 elap:              51.8
 (Enter /apps/easybuild-2022/easybuild/software/Compiler/NVHPC/22.11-CUDA-11.7.0/Gaussian/g16c01-CUDA-11.7.0/g16/l701.exe)
 ... and contract with generalized density number  0.
 Compute integral second derivatives.
   1 Symmetry operations used in ECPInt.
 ECPInt:  NShTT=    6786 NPrTT=   21959 LenC2=    6428 LenP2D=   15862.
 LDataN:  DoStor=T MaxTD1= 8 Len=  415
 Leave Link  701 at Sat May 24 07:13:01 2025, MaxMem=  3758096384 cpu:               1.0 elap:               0.2
 (Enter /apps/easybuild-2022/easybuild/software/Compiler/NVHPC/22.11-CUDA-11.7.0/Gaussian/g16c01-CUDA-11.7.0/g16/l702.exe)
 L702 exits ... SP integral derivatives will be done elsewhere.
 Leave Link  702 at Sat May 24 07:13:01 2025, MaxMem=  3758096384 cpu:               0.1 elap:               0.0
 (Enter /apps/easybuild-2022/easybuild/software/Compiler/NVHPC/22.11-CUDA-11.7.0/Gaussian/g16c01-CUDA-11.7.0/g16/l703.exe)
 Integral derivatives from FoFJK, PRISM(SPDF).
 Compute integral second derivatives, UseDBF=F ICtDFT=           0.
 Calling FoFJK, ICntrl=    100127 FMM=F ISym2X=0 I1Cent= 0 IOpClX= 0 NMat=1 NMatS=1 NMatT=0.
 FoFJK:  IHMeth= 1 ICntrl=  100127 DoSepK=F KAlg= 0 I1Cent=           0 FoldK=F
 IRaf=         0 NMat=       1 IRICut=       1 DoRegI=T DoRafI=F ISym2E= 0 IDoP0=0 IntGTp=1.
 FoFCou: FMM=F IPFlag=           0 FMFlag=      100000 FMFlg1=         800
         NFxFlg=           0 DoJE=F BraDBF=F KetDBF=F FulRan=T
         wScrn=  0.000000 ICntrl=    100127 IOpCl=  0 I1Cent=           0 NGrid=           0
         NMat0=    1 NMatS0=      1 NMatT0=    0 NMatD0=    1 NMtDS0=    0 NMtDT0=    0
 Symmetry not used in FoFCou.
 Leave Link  703 at Sat May 24 07:14:27 2025, MaxMem=  3758096384 cpu:             683.1 elap:              86.0
 (Enter /apps/easybuild-2022/easybuild/software/Compiler/NVHPC/22.11-CUDA-11.7.0/Gaussian/g16c01-CUDA-11.7.0/g16/l716.exe)
 Dipole        = 5.91899128D-01 8.20225667D-02-8.79739930D-01
 Polarizability= 0.00000000D+00 0.00000000D+00 0.00000000D+00
                 0.00000000D+00 0.00000000D+00 0.00000000D+00
 -------------------------------------------------------------------
 Center     Atomic                   Forces (Hartrees/Bohr)
 Number     Number              X              Y              Z
 -------------------------------------------------------------------
      1        6           0.010978173    0.000845176    0.002746709
      2        8           0.019646044    0.006431399   -0.000786784
      3        6          -0.019519093    0.022313081    0.013071349
      4        6          -0.001608264    0.004918943    0.001241264
      5        9          -0.000088106    0.013306476   -0.007633102
      6        9          -0.003066963    0.000074012    0.008858687
      7        9          -0.002099076   -0.002582884    0.007547009
      8        9           0.016396742   -0.072587939   -0.038148931
      9        9          -0.025296608    0.026405016    0.010450986
     10        8           0.003424259    0.001283542    0.002755961
     11        1           0.001232890   -0.000406823   -0.000103147
 -------------------------------------------------------------------
 Cartesian Forces:  Max     0.072587939 RMS     0.017827686
 Force constants in Cartesian coordinates: 
                1             2             3             4             5 
      1  0.391148D+00
      2  0.269033D+00  0.635588D+00
      3  0.129896D+00  0.189553D+00  0.943672D+00
      4 -0.154389D+00 -0.138079D+00 -0.185060D+00  0.153769D+00
      5 -0.148263D+00 -0.309534D+00 -0.297468D+00  0.172591D+00  0.296697D+00
      6 -0.192129D+00 -0.303439D+00 -0.567949D+00  0.225776D+00  0.350895D+00
      7 -0.115337D+00 -0.106504D+00  0.227912D-01 -0.156467D-02 -0.132465D-01
      8 -0.905976D-01 -0.153586D+00  0.615209D-01 -0.187943D-01 -0.142267D-01
      9 -0.145475D-01  0.221416D-01 -0.613792D-01 -0.170127D-01 -0.363936D-01
     10  0.125753D-01 -0.232682D-02  0.226056D-01 -0.295030D-02  0.925549D-03
     11 -0.585399D-02 -0.834837D-02  0.133466D-01  0.265429D-02  0.385344D-02
     12  0.193696D-01  0.163036D-01  0.196245D-01 -0.537824D-02 -0.522266D-02
     13 -0.286477D-02 -0.716218D-03 -0.143066D-02  0.936074D-03  0.465537D-03
     14  0.381090D-02  0.307210D-02 -0.104217D-02 -0.138309D-02 -0.133068D-02
     15 -0.223152D-02 -0.226195D-02 -0.211445D-02  0.791625D-03  0.905725D-03
     16 -0.299424D-02 -0.152449D-02 -0.431809D-02  0.666696D-03 -0.145237D-02
     17 -0.206475D-02 -0.185236D-02 -0.584324D-02 -0.146989D-02 -0.373452D-02
     18 -0.530153D-02 -0.514232D-02 -0.506028D-02  0.324824D-02  0.486464D-02
     19  0.418345D-02  0.378236D-02  0.261284D-02 -0.220459D-03 -0.110372D-02
     20  0.510414D-02  0.324585D-02  0.370974D-02 -0.108840D-02 -0.101953D-02
     21 -0.539072D-02 -0.379319D-02 -0.602031D-02  0.126993D-02  0.114340D-02
     22 -0.585482D-01  0.214663D-01  0.503797D-02 -0.165633D-01 -0.803916D-02
     23  0.140503D-01 -0.952688D-02 -0.617190D-02 -0.107625D-01  0.615752D-02
     24  0.185421D-01 -0.101942D-01 -0.144995D-02 -0.297524D-02  0.419478D-02
     25  0.705274D-02 -0.471470D-02 -0.238700D-01 -0.489200D-02 -0.820412D-02
     26  0.142807D-03 -0.768517D-02 -0.417998D-01 -0.855059D-02 -0.124456D-01
     27  0.854666D-02 -0.427989D-02 -0.204201D-01 -0.417160D-02 -0.472511D-02
     28 -0.813482D-01 -0.341354D-01  0.231163D-01  0.294297D-01  0.484871D-02
     29 -0.355219D-01 -0.136455D+00  0.729262D-01  0.304929D-02  0.362112D-01
     30  0.161564D-01  0.478864D-01 -0.291702D+00 -0.135388D-01 -0.109862D-01
     31  0.521973D-03 -0.628134D-02  0.861904D-02 -0.422165D-02  0.147823D-02
     32 -0.984046D-02 -0.149176D-01  0.112685D-01  0.183346D-02 -0.627986D-03
     33  0.270898D-01  0.532260D-01 -0.720133D-02 -0.294917D-02 -0.720873D-02
                6             7             8             9            10 
      6  0.666694D+00
      7 -0.127184D-01  0.338363D+00
      8 -0.216989D-01  0.213035D+00  0.483285D+00
      9 -0.645878D-02  0.428972D-01 -0.596652D-01  0.563491D+00
     10 -0.580748D-02 -0.505475D-01 -0.263157D-01  0.285819D-02  0.563543D+00
     11 -0.343721D-02 -0.115249D-02 -0.109102D+00  0.975961D-01  0.173095D-01
     12 -0.110686D-01 -0.116275D-01  0.740746D-01 -0.130359D+00  0.222818D-01
     13  0.307941D-03 -0.813796D-03  0.116862D-01  0.304249D-02 -0.133040D+00
     14  0.292100D-03  0.200210D-01 -0.274777D-01 -0.120994D-01  0.933254D-01
     15  0.155603D-02 -0.792330D-02  0.117342D-01  0.305539D-02  0.481331D-02
     16  0.389148D-02  0.559295D-02 -0.646712D-03 -0.504471D-02 -0.907781D-01
     17  0.631835D-02  0.239449D-02  0.864474D-02  0.492934D-02 -0.262929D-01
     18  0.304627D-02 -0.100675D-01 -0.278324D-01 -0.394788D-01 -0.609435D-01
     19  0.352314D-03 -0.415632D-01 -0.228301D-01  0.466170D-02 -0.281984D+00
     20 -0.591573D-03 -0.388518D-01 -0.184500D-01  0.382080D-02 -0.795285D-01
     21  0.218552D-02  0.318286D-01  0.174955D-01 -0.174132D-03  0.267826D-01
     22  0.233784D-02 -0.610924D-01 -0.224859D-01 -0.279981D-01 -0.182428D-01
     23  0.434427D-03 -0.311344D-01 -0.662371D-02  0.414471D-01  0.236028D-01
     24  0.523413D-02 -0.114604D-01  0.237253D-01 -0.409589D-01 -0.484844D-02
     25 -0.174346D-02 -0.783171D-01 -0.204531D-01 -0.152349D-01  0.481591D-02
     26 -0.164461D-02 -0.370039D-01 -0.142272D+00 -0.103834D+00  0.431190D-02
     27  0.257105D-02 -0.460698D-01 -0.914402D-01 -0.256050D+00 -0.791677D-02
     28 -0.160875D-01  0.141105D-02 -0.188737D-01  0.255335D-01 -0.311118D-02
     29 -0.196903D-01 -0.641328D-02 -0.208362D-01  0.410376D-01 -0.470081D-02
     30 -0.991584D-01  0.269027D-02  0.881960D-02 -0.239280D-01 -0.109321D-02
     31 -0.417953D-02  0.386866D-02 -0.372437D-02  0.844768D-03 -0.280006D-03
     32 -0.743886D-02 -0.114414D-02  0.645747D-03  0.101951D-02 -0.310376D-03
     33  0.334752D-02 -0.340303D-03  0.326651D-02 -0.775954D-02  0.126794D-02
               11            12            13            14            15 
     11  0.582696D+00
     12  0.117965D-01  0.654613D+00
     13  0.899854D-01  0.538826D-02  0.196482D+00
     14 -0.232826D+00  0.809875D-03 -0.156424D+00  0.299039D+00
     15 -0.414350D-02 -0.849834D-01 -0.222941D-01  0.484916D-01  0.862593D-01
     16 -0.256907D-01 -0.612196D-01  0.140526D-01  0.156299D-01  0.202542D-01
     17 -0.117410D+00 -0.916315D-01  0.962131D-02 -0.472705D-01 -0.591182D-01
     18 -0.808819D-01 -0.313995D+00  0.103627D-01 -0.437873D-01 -0.194108D-01
     19 -0.814643D-01  0.278682D-01 -0.780459D-01  0.259970D-01  0.906912D-02
     20 -0.107821D+00  0.145658D-01  0.448365D-01  0.111982D-01 -0.544254D-02
     21  0.135892D-01 -0.854535D-01  0.721423D-02 -0.270096D-02  0.139185D-01
     22  0.428747D-02  0.968009D-02  0.148512D-02  0.200682D-02 -0.214495D-02
     23 -0.124393D-01 -0.139634D-01  0.687648D-03 -0.640807D-02  0.422097D-02
     24  0.625672D-03 -0.231299D-02 -0.945659D-03  0.342557D-02 -0.334786D-03
     25 -0.185379D-02 -0.522609D-03  0.104337D-02 -0.181889D-02 -0.930650D-03
     26 -0.155847D-02  0.168431D-02 -0.123308D-02  0.376909D-02  0.475279D-02
     27 -0.424097D-01 -0.476721D-01 -0.763689D-03  0.437925D-02  0.191639D-02
     28  0.222134D-02 -0.554957D-02  0.836315D-03 -0.138327D-02  0.593365D-03
     29  0.335096D-02 -0.851819D-02  0.109176D-02 -0.193314D-02  0.926010D-03
     30 -0.659024D-02  0.475240D-03 -0.773177D-03  0.226595D-02  0.203009D-03
     31 -0.442726D-03 -0.290393D-03 -0.714352D-04  0.218520D-03  0.283706D-05
     32 -0.395446D-03  0.101203D-03  0.000000D+00  0.167921D-03 -0.651445D-04
     33  0.508438D-03  0.113167D-02 -0.108383D-03 -0.344578D-04 -0.650716D-04
               16            17            18            19            20 
     16  0.104303D+00
     17  0.432928D-01  0.164404D+00
     18  0.952849D-01  0.159122D+00  0.388582D+00
     19 -0.334416D-01 -0.266712D-01 -0.324640D-01  0.422551D+00
     20 -0.304488D-01 -0.495198D-02 -0.183925D-01  0.101802D+00  0.119586D+00
     21 -0.477487D-01 -0.243206D-01 -0.136884D-02 -0.155948D-01 -0.587420D-02
     22  0.148201D-02  0.700465D-03 -0.201499D-02  0.659758D-02 -0.234780D-02
     23 -0.245955D-03  0.800353D-03  0.574355D-02  0.138863D-02 -0.196942D-02
     24 -0.139770D-02  0.273831D-02  0.167702D-02 -0.188918D-02  0.175239D-02
     25  0.583984D-03  0.680003D-04  0.597243D-03  0.363088D-02  0.235115D-02
     26  0.310513D-03  0.878233D-03  0.470533D-02  0.190794D-02  0.306295D-02
     27 -0.517306D-03  0.616454D-02 -0.148665D-01  0.291825D-02  0.423274D-02
     28  0.470902D-03  0.253956D-03  0.128716D-02 -0.151637D-02 -0.178126D-02
     29  0.646609D-03  0.295273D-03  0.159655D-02 -0.315427D-02 -0.309330D-02
     30  0.104792D-02  0.199905D-02  0.102439D-02  0.221058D-02  0.193806D-02
     31  0.617010D-04  0.167711D-03  0.112586D-04 -0.191111D-03 -0.475157D-04
     32  0.129238D-03  0.196771D-03  0.383151D-05  0.345401D-03  0.212171D-03
     33 -0.232409D-03 -0.358482D-03 -0.149436D-03  0.255029D-03  0.281289D-03
               21            22            23            24            25 
     21  0.741063D-01
     22 -0.538467D-03  0.128517D+00
     23  0.946704D-03  0.186183D-02  0.355956D-01
     24  0.165408D-02 -0.355398D-02 -0.168086D-01  0.387825D-01
     25  0.411287D-03  0.147628D-01  0.564722D-03  0.835561D-02  0.525319D-01
     26  0.672052D-03  0.636995D-02 -0.925222D-02 -0.952921D-02  0.352467D-01
     27  0.214527D-02  0.156494D-01 -0.161733D-01 -0.395718D-02  0.320982D-01
     28  0.166499D-02  0.738659D-03 -0.553669D-03  0.919756D-03 -0.127108D-02
     29  0.294237D-02 -0.378728D-02  0.333183D-02  0.103542D-03 -0.172585D-02
     30 -0.618786D-03  0.416822D-02  0.104033D-02  0.129407D-02  0.172236D-02
     31  0.101073D-03  0.863675D-03  0.540616D-03 -0.746813D-03  0.586599D-04
     32 -0.100303D-03 -0.327340D-04  0.334298D-03 -0.335149D-04  0.539857D-03
     33 -0.374087D-03 -0.623020D-03 -0.715960D-03  0.372037D-03 -0.883071D-03
               26            27            28            29            30 
     26  0.167610D+00
     27  0.142124D+00  0.328267D+00
     28 -0.209606D-02  0.153696D-03  0.157759D+00
     29 -0.331195D-02  0.194449D-02  0.238721D+00  0.538396D+00
     30  0.446361D-02  0.707024D-02 -0.228482D-01 -0.801101D-01  0.448183D+00
     31  0.593845D-03  0.730113D-04 -0.103399D+00 -0.188205D+00  0.102577D-01
     32  0.120534D-02  0.182574D-03 -0.187221D+00 -0.415956D+00  0.292736D-01
     33 -0.159503D-02  0.995385D-03 -0.878347D-02 -0.131582D-01 -0.428423D-01
               31            32            33 
     31  0.102788D+00
     32  0.195702D+00  0.429135D+00
     33 -0.146930D-01 -0.342114D-01  0.525452D-01
 FormGI is forming the generalized inverse of G from B-inverse, IUseBI=4.
 Leave Link  716 at Sat May 24 07:14:27 2025, MaxMem=  3758096384 cpu:               0.1 elap:               0.0
 (Enter /apps/easybuild-2022/easybuild/software/Compiler/NVHPC/22.11-CUDA-11.7.0/Gaussian/g16c01-CUDA-11.7.0/g16/l103.exe)

 GradGradGradGradGradGradGradGradGradGradGradGradGradGradGradGradGradGrad
 Berny optimization.
 Red2BG is reusing G-inverse.
 Internal  Forces:  Max     0.072229536 RMS     0.018564656
 Search for a local minimum.
 Step number   1 out of a maximum of   53
 All quantities printed in internal units (Hartrees-Bohrs-Radians)
 RMS Force = .18565D-01 SwitMx=.10000D-02 MixMth= 1
 Mixed Optimization -- RFO/linear search
 Second derivative matrix not updated -- analytic derivatives used.
 ITU=  0
     Eigenvalues ---   -0.00214   0.00335   0.01560   0.01690   0.04457
     Eigenvalues ---    0.05973   0.09361   0.10268   0.11621   0.14745
     Eigenvalues ---    0.15941   0.19878   0.22140   0.23685   0.24124
     Eigenvalues ---    0.25908   0.27095   0.29248   0.37583   0.39404
     Eigenvalues ---    0.42955   0.44241   0.46143   0.46519   0.52993
     Eigenvalues ---    0.59888   0.99898
 Eigenvalue     1 is  -2.14D-03 should be greater than     0.000000 Eigenvector:
                          D1        R5        D4        D3        D2
   1                    0.48395   0.42878   0.42773   0.28580   0.25268
                          D6        D5        D9        D10       A5
   1                    0.22959   0.19646  -0.16617  -0.16595  -0.15401
 RFO step:  Lambda=-9.22182512D-02 EMin=-2.13863372D-03
 Linear search not attempted -- first point.
 Maximum step size (   0.300) exceeded in Quadratic search.
    -- Step size scaled by   0.301
 Iteration  1 RMS(Cart)=  0.07385181 RMS(Int)=  0.01068931
 Iteration  2 RMS(Cart)=  0.00993253 RMS(Int)=  0.00077059
 Iteration  3 RMS(Cart)=  0.00002860 RMS(Int)=  0.00077017
 Iteration  4 RMS(Cart)=  0.00000010 RMS(Int)=  0.00077017
 ITry= 1 IFail=0 DXMaxC= 2.29D-01 DCOld= 1.00D+10 DXMaxT= 3.00D-01 DXLimC= 3.00D+00 Rises=F
 Variable       Old X    -DE/DX   Delta X   Delta X   Delta X     New X
                                 (Linear)    (Quad)   (Total)
    R1        2.23677   0.00877   0.00000   0.00188   0.00188   2.23865
    R2        2.83210   0.02739   0.00000   0.02505   0.02505   2.85715
    R3        2.51573  -0.00192   0.00000  -0.00078  -0.00078   2.51494
    R4        2.91804  -0.00231   0.00000  -0.00097  -0.00097   2.91707
    R5        3.14203  -0.07223   0.00000  -0.26309  -0.26309   2.87894
    R6        2.52067  -0.02222   0.00000  -0.00433  -0.00433   2.51635
    R7        2.52641  -0.01004   0.00000  -0.00359  -0.00359   2.52283
    R8        2.46958   0.00681   0.00000   0.00614   0.00614   2.47573
    R9        2.50406   0.00289   0.00000   0.00204   0.00204   2.50610
   R10        1.82778   0.00015   0.00000   0.00016   0.00016   1.82793
    A1        2.10787   0.01835   0.00000   0.00792   0.00792   2.11579
    A2        2.24680  -0.01348   0.00000  -0.01311  -0.01312   2.23369
    A3        1.91688  -0.00344   0.00000   0.00421   0.00420   1.92108
    A4        2.23110  -0.02939   0.00000  -0.06372  -0.06370   2.16740
    A5        1.45623   0.04022   0.00000   0.08451   0.08673   1.54295
    A6        1.98321   0.00300   0.00000   0.00055  -0.00024   1.98297
    A7        1.75795  -0.01779   0.00000   0.02056   0.02382   1.78178
    A8        1.82823   0.02139   0.00000   0.02344   0.02269   1.85092
    A9        2.21799  -0.02890   0.00000  -0.07984  -0.08065   2.13734
   A10        1.99848  -0.02413   0.00000  -0.01692  -0.01687   1.98160
   A11        1.92963   0.01023   0.00000   0.00650   0.00648   1.93610
   A12        1.82429   0.01447   0.00000   0.01711   0.01713   1.84142
   A13        1.88923   0.00510   0.00000   0.00285   0.00286   1.89209
   A14        1.86844   0.00364   0.00000   0.00367   0.00376   1.87220
   A15        1.95358  -0.01007   0.00000  -0.01387  -0.01393   1.93965
   A16        1.88378   0.00013   0.00000   0.00057   0.00057   1.88435
    D1       -0.53210   0.00510   0.00000  -0.09934  -0.09805  -0.63015
    D2        1.18701   0.01347   0.00000  -0.00838  -0.00983   1.17718
    D3       -2.86663   0.00069   0.00000  -0.05754  -0.05741  -2.92404
    D4        2.75909  -0.00251   0.00000  -0.09177  -0.09046   2.66863
    D5       -1.80498   0.00587   0.00000  -0.00080  -0.00224  -1.80722
    D6        0.42456  -0.00692   0.00000  -0.04997  -0.04981   0.37474
    D7       -0.06611  -0.00489   0.00000   0.01210   0.01206  -0.05404
    D8        2.91058   0.00713   0.00000   0.00627   0.00631   2.91689
    D9       -1.63256   0.01306   0.00000   0.06096   0.06064  -1.57193
   D10        0.50681   0.01002   0.00000   0.05734   0.05703   0.56384
   D11        2.61192   0.01191   0.00000   0.05432   0.05407   2.66599
   D12        3.08008  -0.01906   0.00000  -0.05115  -0.05088   3.02920
   D13       -1.06373  -0.02210   0.00000  -0.05476  -0.05449  -1.11823
   D14        1.04137  -0.02021   0.00000  -0.05778  -0.05745   0.98392
   D15        0.75546   0.01297   0.00000   0.01784   0.01782   0.77328
   D16        2.89483   0.00993   0.00000   0.01422   0.01421   2.90904
   D17       -1.28325   0.01182   0.00000   0.01120   0.01125  -1.27200
         Item               Value     Threshold  Converged?
 Maximum Force            0.072230     0.000450     NO 
 RMS     Force            0.018565     0.000300     NO 
 Maximum Displacement     0.228640     0.001800     NO 
 RMS     Displacement     0.075430     0.001200     NO 
 Predicted change in Energy=-3.350746D-02
 Lowest energy point so far.  Saving SCF results.
 GradGradGradGradGradGradGradGradGradGradGradGradGradGradGradGradGradGrad

 Leave Link  103 at Sat May 24 07:14:27 2025, MaxMem=  3758096384 cpu:               0.1 elap:               0.0
 (Enter /apps/easybuild-2022/easybuild/software/Compiler/NVHPC/22.11-CUDA-11.7.0/Gaussian/g16c01-CUDA-11.7.0/g16/l202.exe)
                          Input orientation:                          
 ---------------------------------------------------------------------
 Center     Atomic      Atomic             Coordinates (Angstroms)
 Number     Number       Type             X           Y           Z
 ---------------------------------------------------------------------
      1          6           0        0.785062    1.245190   -0.580780
      2          8           0        1.150957    1.843144    0.374178
      3          6           0       -0.180772    0.088376   -0.458694
      4          6           0       -0.183091   -0.919845    0.710209
      5          9           0        0.594218   -1.984237    0.497739
      6          9           0        0.197479   -0.345435    1.824470
      7          9           0       -1.432245   -1.356143    0.799590
      8          9           0       -1.250341    1.082619   -0.024575
      9          9           0       -0.287982   -0.636644   -1.570446
     10          8           0        0.958533    1.562086   -1.861658
     11          1           0        1.408222    2.417685   -1.899069
 ---------------------------------------------------------------------
                    Distance matrix (angstroms):
                    1          2          3          4          5
     1  C    0.000000
     2  O    1.184640   0.000000
     3  C    1.511939   2.355077   0.000000
     4  C    2.700250   3.086537   1.543649   0.000000
     5  F    3.410106   3.869634   2.410622   1.335022   0.000000
     6  F    2.942884   2.793268   2.354592   1.310098   2.145527
     7  F    3.686300   4.133926   2.288252   1.326171   2.142935
     8  F    2.116284   2.550222   1.523468   2.385119   3.616740
     9  F    2.381630   3.464312   1.331593   2.300564   2.621388
    10  O    1.330851   2.261633   2.331983   3.752038   4.275030
    11  H    1.871085   2.358799   3.166269   4.525452   5.077815
                    6          7          8          9         10
     6  F    0.000000
     7  F    2.174375   0.000000
     8  F    2.748542   2.580677   0.000000
     9  F    3.441791   2.728386   2.504340   0.000000
    10  O    4.219642   4.616722   2.912711   2.544212   0.000000
    11  H    4.792230   5.439925   3.516261   3.509134   0.967300
                   11
    11  H    0.000000
 Symmetry turned off by external request.
 Stoichiometry    C3HF5O2
 Rotational constants (GHZ):           2.1006564           1.1170870           1.0179011
 Leave Link  202 at Sat May 24 07:14:27 2025, MaxMem=  3758096384 cpu:               0.1 elap:               0.0
 (Enter /apps/easybuild-2022/easybuild/software/Compiler/NVHPC/22.11-CUDA-11.7.0/Gaussian/g16c01-CUDA-11.7.0/g16/l301.exe)
 Standard basis: def2TZVPP (5D, 7F)
 Ernie: Thresh=  0.10000D-02 Tol=  0.10000D-05 Strict=F.
   324 basis functions,   527 primitive gaussians,   375 cartesian basis functions
    40 alpha electrons       40 beta electrons
       nuclear repulsion energy       634.7413752488 Hartrees.
 IExCor= 4336 DFT=T Ex+Corr=M062X ExCW=0 ScaHFX=  0.540000
 ScaDFX=  1.000000  1.000000  1.000000  1.000000 ScalE2=  1.000000  1.000000
 IRadAn=      5 IRanWt=     -1 IRanGd=            0 ICorTp=0 IEmpDi=  4
 NAtoms=   11 NActive=   11 NUniq=   11 SFac= 1.00D+00 NAtFMM=   60 NAOKFM=F Big=F
 Integral buffers will be    131072 words long.
 Raffenetti 2 integral format.
 Two-electron integral symmetry is turned off.
 Leave Link  301 at Sat May 24 07:14:27 2025, MaxMem=  3758096384 cpu:               0.1 elap:               0.0
 (Enter /apps/easybuild-2022/easybuild/software/Compiler/NVHPC/22.11-CUDA-11.7.0/Gaussian/g16c01-CUDA-11.7.0/g16/l302.exe)
 NPDir=0 NMtPBC=     1 NCelOv=     1 NCel=       1 NClECP=     1 NCelD=      1
         NCelK=      1 NCelE2=     1 NClLst=     1 CellRange=     0.0.
 One-electron integrals computed using PRISM.
   1 Symmetry operations used in ECPInt.
 ECPInt:  NShTT=    6786 NPrTT=   21959 LenC2=    6438 LenP2D=   15885.
 LDataN:  DoStor=T MaxTD1= 6 Len=  172
 NBasis=   324 RedAO= T EigKep=  3.12D-04  NBF=   324
 NBsUse=   324 1.00D-06 EigRej= -1.00D+00 NBFU=   324
 Precomputing XC quadrature grid using
 IXCGrd= 4 IRadAn=           5 IRanWt=          -1 IRanGd=           0 AccXCQ= 0.00D+00.
 Generated NRdTot=       0 NPtTot=           0 NUsed=           0 NTot=          32
 NSgBfM=   374   374   374   374   374 MxSgAt=    11 MxSgA2=    11.
 Leave Link  302 at Sat May 24 07:14:27 2025, MaxMem=  3758096384 cpu:               0.7 elap:               0.2
 (Enter /apps/easybuild-2022/easybuild/software/Compiler/NVHPC/22.11-CUDA-11.7.0/Gaussian/g16c01-CUDA-11.7.0/g16/l303.exe)
 DipDrv:  MaxL=1.
 Leave Link  303 at Sat May 24 07:14:27 2025, MaxMem=  3758096384 cpu:               0.1 elap:               0.0
 (Enter /apps/easybuild-2022/easybuild/software/Compiler/NVHPC/22.11-CUDA-11.7.0/Gaussian/g16c01-CUDA-11.7.0/g16/l401.exe)
 Initial guess from the checkpoint file:  "1642764945472630600001_r13_insertion_ROR_8_3_1_2_IRC_R_prod.chk"
 B after Tr=    -0.011436    0.003014   -0.006249
         Rot=    0.999983   -0.000251   -0.004016   -0.004247 Ang=  -0.67 deg.
 Guess basis will be translated and rotated to current coordinates.
 JPrj=2 DoOrth=T DoCkMO=T.
 Generating alternative initial guess.
 ExpMin= 9.52D-02 ExpMax= 3.55D+04 ExpMxC= 1.21D+03 IAcc=3 IRadAn=         5 AccDes= 0.00D+00
 Harris functional with IExCor= 1009 and IRadAn=       5 diagonalized for initial guess.
 HarFok:  IExCor= 1009 AccDes= 0.00D+00 IRadAn=         5 IDoV= 1 UseB2=F ITyADJ=14
 ICtDFT=  3500011 ScaDFX=  1.000000  1.000000  1.000000  1.000000
 FoFCou: FMM=F IPFlag=           0 FMFlag=      100000 FMFlg1=           0
         NFxFlg=           0 DoJE=T BraDBF=F KetDBF=T FulRan=T
         wScrn=  0.000000 ICntrl=       500 IOpCl=  0 I1Cent=   200000004 NGrid=           0
         NMat0=    1 NMatS0=      1 NMatT0=    0 NMatD0=    1 NMtDS0=    0 NMtDT0=    0
 Symmetry not used in FoFCou.
 Harris En= -764.174115761147    
 Leave Link  401 at Sat May 24 07:14:28 2025, MaxMem=  3758096384 cpu:               3.4 elap:               0.8
 (Enter /apps/easybuild-2022/easybuild/software/Compiler/NVHPC/22.11-CUDA-11.7.0/Gaussian/g16c01-CUDA-11.7.0/g16/l502.exe)
 Keep R1 ints in memory in canonical form, NReq=1412617130.
 FoFCou: FMM=F IPFlag=           0 FMFlag=           0 FMFlg1=           0
         NFxFlg=           0 DoJE=F BraDBF=F KetDBF=F FulRan=T
         wScrn=  0.000000 ICntrl=       600 IOpCl=  0 I1Cent=           0 NGrid=           0
         NMat0=    1 NMatS0=  52650 NMatT0=    0 NMatD0=    1 NMtDS0=    0 NMtDT0=    0
 Symmetry not used in FoFCou.
 Two-electron integral symmetry not used.
 Closed shell SCF:
 Using DIIS extrapolation, IDIIS=  1040.
 NGot=  3758096384 LenX=  2371771924 LenY=  2371630858
 Requested convergence on RMS density matrix=1.00D-08 within  32 cycles.
 Requested convergence on MAX density matrix=1.00D-06.
 Requested convergence on             energy=1.00D-06.
 No special actions if energy rises.
 Integral accuracy reduced to 1.0D-05 until final iterations.

 Cycle   1  Pass 0  IDiag  1:
 E= -764.615091239570    
 DIIS: error= 2.39D-03 at cycle   1 NSaved=   1.
 NSaved= 1 IEnMin= 1 EnMin= -764.615091239570     IErMin= 1 ErrMin= 2.39D-03
 ErrMax= 2.39D-03  0.00D+00 EMaxC= 1.00D-01 BMatC= 9.16D-03 BMatP= 9.16D-03
 IDIUse=3 WtCom= 9.76D-01 WtEn= 2.39D-02
 Coeff-Com:  0.100D+01
 Coeff-En:   0.100D+01
 Coeff:      0.100D+01
 Gap=     1.070 Goal=   None    Shift=    0.000
 GapD=    1.070 DampG=2.000 DampE=1.000 DampFc=2.0000 IDamp=-1.
 RMSDP=3.31D-04 MaxDP=1.15D-02              OVMax= 2.58D-02

 Cycle   2  Pass 0  IDiag  1:
 E= -764.626482222895     Delta-E=       -0.011390983324 Rises=F Damp=F
 DIIS: error= 6.44D-04 at cycle   2 NSaved=   2.
 NSaved= 2 IEnMin= 2 EnMin= -764.626482222895     IErMin= 2 ErrMin= 6.44D-04
 ErrMax= 6.44D-04  0.00D+00 EMaxC= 1.00D-01 BMatC= 5.63D-04 BMatP= 9.16D-03
 IDIUse=3 WtCom= 9.94D-01 WtEn= 6.44D-03
 Coeff-Com: -0.192D-01 0.102D+01
 Coeff-En:   0.000D+00 0.100D+01
 Coeff:     -0.191D-01 0.102D+01
 Gap=     0.384 Goal=   None    Shift=    0.000
 RMSDP=9.14D-05 MaxDP=4.71D-03 DE=-1.14D-02 OVMax= 1.18D-02

 Cycle   3  Pass 0  IDiag  1:
 E= -764.626940286276     Delta-E=       -0.000458063382 Rises=F Damp=F
 DIIS: error= 6.96D-04 at cycle   3 NSaved=   3.
 NSaved= 3 IEnMin= 3 EnMin= -764.626940286276     IErMin= 2 ErrMin= 6.44D-04
 ErrMax= 6.96D-04  0.00D+00 EMaxC= 1.00D-01 BMatC= 5.51D-04 BMatP= 5.63D-04
 IDIUse=3 WtCom= 9.93D-01 WtEn= 6.96D-03
 Coeff-Com: -0.722D-01 0.536D+00 0.536D+00
 Coeff-En:   0.000D+00 0.000D+00 0.100D+01
 Coeff:     -0.717D-01 0.532D+00 0.540D+00
 Gap=     0.384 Goal=   None    Shift=    0.000
 RMSDP=4.74D-05 MaxDP=2.52D-03 DE=-4.58D-04 OVMax= 4.27D-03

 Cycle   4  Pass 0  IDiag  1:
 E= -764.627272135397     Delta-E=       -0.000331849121 Rises=F Damp=F
 DIIS: error= 1.82D-04 at cycle   4 NSaved=   4.
 NSaved= 4 IEnMin= 4 EnMin= -764.627272135397     IErMin= 4 ErrMin= 1.82D-04
 ErrMax= 1.82D-04  0.00D+00 EMaxC= 1.00D-01 BMatC= 3.05D-05 BMatP= 5.51D-04
 IDIUse=3 WtCom= 9.98D-01 WtEn= 1.82D-03
 Coeff-Com: -0.199D-01 0.400D-01 0.194D+00 0.786D+00
 Coeff-En:   0.000D+00 0.000D+00 0.000D+00 0.100D+01
 Coeff:     -0.199D-01 0.399D-01 0.194D+00 0.786D+00
 Gap=     0.383 Goal=   None    Shift=    0.000
 RMSDP=1.64D-05 MaxDP=6.20D-04 DE=-3.32D-04 OVMax= 1.90D-03

 Cycle   5  Pass 0  IDiag  1:
 E= -764.627298622352     Delta-E=       -0.000026486955 Rises=F Damp=F
 DIIS: error= 7.33D-05 at cycle   5 NSaved=   5.
 NSaved= 5 IEnMin= 5 EnMin= -764.627298622352     IErMin= 5 ErrMin= 7.33D-05
 ErrMax= 7.33D-05  0.00D+00 EMaxC= 1.00D-01 BMatC= 4.64D-06 BMatP= 3.05D-05
 IDIUse=1 WtCom= 1.00D+00 WtEn= 0.00D+00
 Coeff-Com:  0.107D-02-0.484D-01 0.151D-01 0.340D+00 0.692D+00
 Coeff:      0.107D-02-0.484D-01 0.151D-01 0.340D+00 0.692D+00
 Gap=     0.384 Goal=   None    Shift=    0.000
 RMSDP=5.98D-06 MaxDP=3.14D-04 DE=-2.65D-05 OVMax= 8.65D-04

 Initial convergence to 1.0D-05 achieved.  Increase integral accuracy.
 Cycle   6  Pass 1  IDiag  1:
 E= -764.627259837291     Delta-E=        0.000038785061 Rises=F Damp=F
 DIIS: error= 3.42D-05 at cycle   1 NSaved=   1.
 NSaved= 1 IEnMin= 1 EnMin= -764.627259837291     IErMin= 1 ErrMin= 3.42D-05
 ErrMax= 3.42D-05  0.00D+00 EMaxC= 1.00D-01 BMatC= 1.51D-06 BMatP= 1.51D-06
 IDIUse=1 WtCom= 1.00D+00 WtEn= 0.00D+00
 Coeff-Com:  0.100D+01
 Coeff:      0.100D+01
 Gap=     0.384 Goal=   None    Shift=    0.000
 RMSDP=5.98D-06 MaxDP=3.14D-04 DE= 3.88D-05 OVMax= 5.35D-04

 Cycle   7  Pass 1  IDiag  1:
 E= -764.627260129380     Delta-E=       -0.000000292089 Rises=F Damp=F
 DIIS: error= 4.30D-05 at cycle   2 NSaved=   2.
 NSaved= 2 IEnMin= 2 EnMin= -764.627260129380     IErMin= 1 ErrMin= 3.42D-05
 ErrMax= 4.30D-05  0.00D+00 EMaxC= 1.00D-01 BMatC= 1.65D-06 BMatP= 1.51D-06
 IDIUse=1 WtCom= 1.00D+00 WtEn= 0.00D+00
 Coeff-Com:  0.514D+00 0.486D+00
 Coeff:      0.514D+00 0.486D+00
 Gap=     0.384 Goal=   None    Shift=    0.000
 RMSDP=2.36D-06 MaxDP=1.53D-04 DE=-2.92D-07 OVMax= 4.09D-04

 Cycle   8  Pass 1  IDiag  1:
 E= -764.627261150159     Delta-E=       -0.000001020779 Rises=F Damp=F
 DIIS: error= 1.24D-05 at cycle   3 NSaved=   3.
 NSaved= 3 IEnMin= 3 EnMin= -764.627261150159     IErMin= 3 ErrMin= 1.24D-05
 ErrMax= 1.24D-05  0.00D+00 EMaxC= 1.00D-01 BMatC= 1.02D-07 BMatP= 1.51D-06
 IDIUse=1 WtCom= 1.00D+00 WtEn= 0.00D+00
 Coeff-Com: -0.424D-01 0.169D+00 0.873D+00
 Coeff:     -0.424D-01 0.169D+00 0.873D+00
 Gap=     0.384 Goal=   None    Shift=    0.000
 RMSDP=1.05D-06 MaxDP=4.79D-05 DE=-1.02D-06 OVMax= 1.55D-04

 Cycle   9  Pass 1  IDiag  1:
 E= -764.627261247390     Delta-E=       -0.000000097230 Rises=F Damp=F
 DIIS: error= 3.42D-06 at cycle   4 NSaved=   4.
 NSaved= 4 IEnMin= 4 EnMin= -764.627261247390     IErMin= 4 ErrMin= 3.42D-06
 ErrMax= 3.42D-06  0.00D+00 EMaxC= 1.00D-01 BMatC= 1.40D-08 BMatP= 1.02D-07
 IDIUse=1 WtCom= 1.00D+00 WtEn= 0.00D+00
 Coeff-Com: -0.447D-01 0.577D-01 0.417D+00 0.570D+00
 Coeff:     -0.447D-01 0.577D-01 0.417D+00 0.570D+00
 Gap=     0.384 Goal=   None    Shift=    0.000
 RMSDP=2.90D-07 MaxDP=1.32D-05 DE=-9.72D-08 OVMax= 4.57D-05

 Cycle  10  Pass 1  IDiag  1:
 E= -764.627261260467     Delta-E=       -0.000000013077 Rises=F Damp=F
 DIIS: error= 1.28D-06 at cycle   5 NSaved=   5.
 NSaved= 5 IEnMin= 5 EnMin= -764.627261260467     IErMin= 5 ErrMin= 1.28D-06
 ErrMax= 1.28D-06  0.00D+00 EMaxC= 1.00D-01 BMatC= 1.83D-09 BMatP= 1.40D-08
 IDIUse=1 WtCom= 1.00D+00 WtEn= 0.00D+00
 Coeff-Com:  0.626D-03-0.395D-01-0.170D+00 0.162D+00 0.105D+01
 Coeff:      0.626D-03-0.395D-01-0.170D+00 0.162D+00 0.105D+01
 Gap=     0.384 Goal=   None    Shift=    0.000
 RMSDP=2.41D-07 MaxDP=9.62D-06 DE=-1.31D-08 OVMax= 5.63D-05

 Cycle  11  Pass 1  IDiag  1:
 E= -764.627261264864     Delta-E=       -0.000000004397 Rises=F Damp=F
 DIIS: error= 4.35D-07 at cycle   6 NSaved=   6.
 NSaved= 6 IEnMin= 6 EnMin= -764.627261264864     IErMin= 6 ErrMin= 4.35D-07
 ErrMax= 4.35D-07  0.00D+00 EMaxC= 1.00D-01 BMatC= 2.44D-10 BMatP= 1.83D-09
 IDIUse=1 WtCom= 1.00D+00 WtEn= 0.00D+00
 Coeff-Com:  0.499D-02-0.222D-01-0.114D+00 0.114D-01 0.409D+00 0.711D+00
 Coeff:      0.499D-02-0.222D-01-0.114D+00 0.114D-01 0.409D+00 0.711D+00
 Gap=     0.384 Goal=   None    Shift=    0.000
 RMSDP=6.09D-08 MaxDP=2.42D-06 DE=-4.40D-09 OVMax= 1.44D-05

 Cycle  12  Pass 1  IDiag  1:
 E= -764.627261265253     Delta-E=       -0.000000000389 Rises=F Damp=F
 DIIS: error= 1.83D-07 at cycle   7 NSaved=   7.
 NSaved= 7 IEnMin= 7 EnMin= -764.627261265253     IErMin= 7 ErrMin= 1.83D-07
 ErrMax= 1.83D-07  0.00D+00 EMaxC= 1.00D-01 BMatC= 4.16D-11 BMatP= 2.44D-10
 IDIUse=1 WtCom= 1.00D+00 WtEn= 0.00D+00
 Coeff-Com:  0.190D-02-0.356D-02-0.227D-01-0.145D-01 0.183D-01 0.310D+00
 Coeff-Com:  0.711D+00
 Coeff:      0.190D-02-0.356D-02-0.227D-01-0.145D-01 0.183D-01 0.310D+00
 Coeff:      0.711D+00
 Gap=     0.384 Goal=   None    Shift=    0.000
 RMSDP=2.29D-08 MaxDP=7.95D-07 DE=-3.89D-10 OVMax= 4.70D-06

 Cycle  13  Pass 1  IDiag  1:
 E= -764.627261265282     Delta-E=       -0.000000000030 Rises=F Damp=F
 DIIS: error= 4.98D-08 at cycle   8 NSaved=   8.
 NSaved= 8 IEnMin= 8 EnMin= -764.627261265282     IErMin= 8 ErrMin= 4.98D-08
 ErrMax= 4.98D-08  0.00D+00 EMaxC= 1.00D-01 BMatC= 2.81D-12 BMatP= 4.16D-11
 IDIUse=1 WtCom= 1.00D+00 WtEn= 0.00D+00
 Coeff-Com: -0.291D-03 0.237D-02 0.116D-01-0.402D-02-0.555D-01-0.439D-01
 Coeff-Com:  0.147D+00 0.943D+00
 Coeff:     -0.291D-03 0.237D-02 0.116D-01-0.402D-02-0.555D-01-0.439D-01
 Coeff:      0.147D+00 0.943D+00
 Gap=     0.384 Goal=   None    Shift=    0.000
 RMSDP=9.17D-09 MaxDP=3.21D-07 DE=-2.98D-11 OVMax= 2.35D-06

 SCF Done:  E(RM062X) =  -764.627261265     A.U. after   13 cycles
            NFock= 13  Conv=0.92D-08     -V/T= 2.0038
 KE= 7.617189755744D+02 PE=-3.081962335043D+03 EE= 9.208747229540D+02
 Leave Link  502 at Sat May 24 07:14:53 2025, MaxMem=  3758096384 cpu:             108.2 elap:              25.2
 (Enter /apps/easybuild-2022/easybuild/software/Compiler/NVHPC/22.11-CUDA-11.7.0/Gaussian/g16c01-CUDA-11.7.0/g16/l508.exe)
 QCSCF skips out because SCF is already converged.
 Leave Link  508 at Sat May 24 07:14:53 2025, MaxMem=  3758096384 cpu:               0.1 elap:               0.0
 (Enter /apps/easybuild-2022/easybuild/software/Compiler/NVHPC/22.11-CUDA-11.7.0/Gaussian/g16c01-CUDA-11.7.0/g16/l701.exe)
 ... and contract with generalized density number  0.
 Compute integral first derivatives.
   1 Symmetry operations used in ECPInt.
 ECPInt:  NShTT=    6786 NPrTT=   21959 LenC2=    6438 LenP2D=   15885.
 LDataN:  DoStor=T MaxTD1= 7 Len=  274
 Leave Link  701 at Sat May 24 07:14:54 2025, MaxMem=  3758096384 cpu:               0.7 elap:               0.3
 (Enter /apps/easybuild-2022/easybuild/software/Compiler/NVHPC/22.11-CUDA-11.7.0/Gaussian/g16c01-CUDA-11.7.0/g16/l702.exe)
 L702 exits ... SP integral derivatives will be done elsewhere.
 Leave Link  702 at Sat May 24 07:14:54 2025, MaxMem=  3758096384 cpu:               0.1 elap:               0.0
 (Enter /apps/easybuild-2022/easybuild/software/Compiler/NVHPC/22.11-CUDA-11.7.0/Gaussian/g16c01-CUDA-11.7.0/g16/l703.exe)
 Integral derivatives from FoFJK, PRISM(SPDF).
 Compute integral first derivatives, UseDBF=F ICtDFT=           0.
 Calling FoFJK, ICntrl=      2127 FMM=F ISym2X=0 I1Cent= 0 IOpClX= 0 NMat=1 NMatS=1 NMatT=0.
 FoFJK:  IHMeth= 1 ICntrl=    2127 DoSepK=F KAlg= 0 I1Cent=           0 FoldK=F
 IRaf=         0 NMat=       1 IRICut=       1 DoRegI=T DoRafI=F ISym2E= 0 IDoP0=0 IntGTp=1.
 FoFCou: FMM=F IPFlag=           0 FMFlag=      100000 FMFlg1=         800
         NFxFlg=           0 DoJE=F BraDBF=F KetDBF=F FulRan=T
         wScrn=  0.000000 ICntrl=      2127 IOpCl=  0 I1Cent=           0 NGrid=           0
         NMat0=    1 NMatS0=      1 NMatT0=    0 NMatD0=    1 NMtDS0=    0 NMtDT0=    0
 Symmetry not used in FoFCou.
 Leave Link  703 at Sat May 24 07:15:02 2025, MaxMem=  3758096384 cpu:              66.0 elap:               8.4
 (Enter /apps/easybuild-2022/easybuild/software/Compiler/NVHPC/22.11-CUDA-11.7.0/Gaussian/g16c01-CUDA-11.7.0/g16/l716.exe)
 Dipole        = 5.17344380D-01 2.42444595D-01-8.14609736D-01
 -------------------------------------------------------------------
 Center     Atomic                   Forces (Hartrees/Bohr)
 Number     Number              X              Y              Z
 -------------------------------------------------------------------
      1        6           0.012806280   -0.002778072   -0.001283855
      2        8           0.014049617    0.004904209   -0.000211853
      3        6          -0.018913953    0.029762026    0.020492685
      4        6           0.000700714    0.000343447   -0.001770722
      5        9           0.000006645    0.010132730   -0.005489542
      6        9          -0.002611682   -0.000039659    0.007101049
      7        9          -0.001246961   -0.001961113    0.006077093
      8        9           0.012951024   -0.060753735   -0.034345238
      9        9          -0.021761086    0.019937605    0.007383301
     10        8           0.002812199    0.000938052    0.002127045
     11        1           0.001207203   -0.000485489   -0.000079964
 -------------------------------------------------------------------
 Cartesian Forces:  Max     0.060753735 RMS     0.015833768
 Leave Link  716 at Sat May 24 07:15:02 2025, MaxMem=  3758096384 cpu:               0.1 elap:               0.0
 (Enter /apps/easybuild-2022/easybuild/software/Compiler/NVHPC/22.11-CUDA-11.7.0/Gaussian/g16c01-CUDA-11.7.0/g16/l103.exe)

 GradGradGradGradGradGradGradGradGradGradGradGradGradGradGradGradGradGrad
 Berny optimization.
 Using GEDIIS/GDIIS optimizer.
 FormGI is forming the generalized inverse of G from B-inverse, IUseBI=4.
 Internal  Forces:  Max     0.058529845 RMS     0.015163675
 Search for a local minimum.
 Step number   2 out of a maximum of   53
 All quantities printed in internal units (Hartrees-Bohrs-Radians)
 RMS Force = .15164D-01 SwitMx=.10000D-02 MixMth= 1
 Mixed Optimization -- RFO/linear search
 Update second derivatives using D2CorX and points    1    2
 DE= -3.26D-02 DEPred=-3.35D-02 R= 9.72D-01
 TightC=F SS=  1.41D+00  RLast= 3.65D-01 DXNew= 5.0454D-01 1.0957D+00
 Trust test= 9.72D-01 RLast= 3.65D-01 DXMaxT set to 5.05D-01
 ITU=  1  0
 Use linear search instead of GDIIS.
     Eigenvalues ---   -0.00429   0.00336   0.01690   0.02117   0.04946
     Eigenvalues ---    0.05827   0.09692   0.11094   0.11612   0.14740
     Eigenvalues ---    0.15018   0.18829   0.21207   0.23193   0.23855
     Eigenvalues ---    0.25773   0.26419   0.28778   0.36187   0.37777
     Eigenvalues ---    0.43042   0.44238   0.46089   0.46537   0.52992
     Eigenvalues ---    0.59889   0.99618
 Eigenvalue     1 is  -4.29D-03 should be greater than     0.000000 Eigenvector:
                          D1        D4        D2        D3        R5
   1                    0.53230   0.45080   0.32561   0.30219   0.26490
                          D5        D6        D10       D9        D11
   1                    0.24410   0.22069  -0.16365  -0.15532  -0.14263
 RFO step:  Lambda=-2.24380599D-02 EMin=-4.29495438D-03
 Quartic linear search produced a step of  1.59215.
 Iteration  1 RMS(Cart)=  0.14101360 RMS(Int)=  0.04428268
 Iteration  2 RMS(Cart)=  0.05300964 RMS(Int)=  0.00280298
 Iteration  3 RMS(Cart)=  0.00208163 RMS(Int)=  0.00214444
 Iteration  4 RMS(Cart)=  0.00000465 RMS(Int)=  0.00214443
 Iteration  5 RMS(Cart)=  0.00000000 RMS(Int)=  0.00214443
 ITry= 1 IFail=0 DXMaxC= 5.30D-01 DCOld= 1.00D+10 DXMaxT= 5.05D-01 DXLimC= 3.00D+00 Rises=F
 Variable       Old X    -DE/DX   Delta X   Delta X   Delta X     New X
                                 (Linear)    (Quad)   (Total)
    R1        2.23865   0.00664   0.00299   0.00848   0.01146   2.25011
    R2        2.85715   0.02165   0.03988   0.01366   0.05355   2.91070
    R3        2.51494  -0.00133  -0.00125  -0.00863  -0.00987   2.50507
    R4        2.91707  -0.00105  -0.00154  -0.00167  -0.00321   2.91386
    R5        2.87894  -0.05853  -0.41888   0.20115  -0.21773   2.66121
    R6        2.51635  -0.01527  -0.00689  -0.07676  -0.08365   2.43270
    R7        2.52283  -0.00720  -0.00572  -0.00664  -0.01236   2.51047
    R8        2.47573   0.00527   0.00978  -0.00077   0.00901   2.48473
    R9        2.50610   0.00223   0.00326  -0.00408  -0.00082   2.50528
   R10        1.82793   0.00013   0.00025   0.00006   0.00031   1.82824
    A1        2.11579   0.01343   0.01260   0.03056   0.04164   2.15743
    A2        2.23369  -0.01030  -0.02088  -0.00181  -0.02436   2.20932
    A3        1.92108  -0.00201   0.00669  -0.01172  -0.00663   1.91445
    A4        2.16740  -0.02457  -0.10142   0.00101  -0.09988   2.06752
    A5        1.54295   0.03483   0.13808  -0.03718   0.10349   1.64645
    A6        1.98297   0.00230  -0.00038   0.05897   0.05701   2.03998
    A7        1.78178  -0.00977   0.03793  -0.08912  -0.04221   1.73957
    A8        1.85092   0.01659   0.03613   0.08226   0.11812   1.96904
    A9        2.13734  -0.02614  -0.12840  -0.07062  -0.19915   1.93819
   A10        1.98160  -0.01822  -0.02687  -0.08892  -0.11423   1.86737
   A11        1.93610   0.00781   0.01031   0.03870   0.04823   1.98433
   A12        1.84142   0.01124   0.02727   0.03819   0.06520   1.90661
   A13        1.89209   0.00382   0.00455   0.01564   0.02105   1.91314
   A14        1.87220   0.00313   0.00599   0.01484   0.02315   1.89535
   A15        1.93965  -0.00822  -0.02218  -0.01989  -0.04436   1.89528
   A16        1.88435   0.00016   0.00090   0.00360   0.00450   1.88885
    D1       -0.63015   0.00195  -0.15611   0.54220   0.39037  -0.23978
    D2        1.17718   0.01084  -0.01566   0.40821   0.38868   1.56586
    D3       -2.92404  -0.00002  -0.09140   0.32571   0.23566  -2.68838
    D4        2.66863  -0.00374  -0.14402   0.43777   0.29686   2.96549
    D5       -1.80722   0.00515  -0.00357   0.30378   0.29517  -1.51205
    D6        0.37474  -0.00571  -0.07931   0.22128   0.14214   0.51689
    D7       -0.05404  -0.00336   0.01921  -0.08401  -0.06320  -0.11724
    D8        2.91689   0.00561   0.01004   0.03297   0.04141   2.95830
    D9       -1.57193   0.01255   0.09654  -0.09953  -0.00340  -1.57532
   D10        0.56384   0.01020   0.09079  -0.11449  -0.02450   0.53933
   D11        2.66599   0.01141   0.08609  -0.09407  -0.00673   2.65926
   D12        3.02920  -0.01668  -0.08101   0.00945  -0.07268   2.95652
   D13       -1.11823  -0.01903  -0.08676  -0.00552  -0.09378  -1.21201
   D14        0.98392  -0.01783  -0.09147   0.01490  -0.07601   0.90792
   D15        0.77328   0.01048   0.02837   0.09794   0.12656   0.89984
   D16        2.90904   0.00813   0.02262   0.08298   0.10546   3.01450
   D17       -1.27200   0.00933   0.01792   0.10340   0.12323  -1.14876
         Item               Value     Threshold  Converged?
 Maximum Force            0.058530     0.000450     NO 
 RMS     Force            0.015164     0.000300     NO 
 Maximum Displacement     0.530364     0.001800     NO 
 RMS     Displacement     0.174741     0.001200     NO 
 Predicted change in Energy=-3.323173D-02
 Lowest energy point so far.  Saving SCF results.
 GradGradGradGradGradGradGradGradGradGradGradGradGradGradGradGradGradGrad

 Leave Link  103 at Sat May 24 07:15:02 2025, MaxMem=  3758096384 cpu:               0.1 elap:               0.0
 (Enter /apps/easybuild-2022/easybuild/software/Compiler/NVHPC/22.11-CUDA-11.7.0/Gaussian/g16c01-CUDA-11.7.0/g16/l202.exe)
                          Input orientation:                          
 ---------------------------------------------------------------------
 Center     Atomic      Atomic             Coordinates (Angstroms)
 Number     Number       Type             X           Y           Z
 ---------------------------------------------------------------------
      1          6           0        0.829820    1.191166   -0.585208
      2          8           0        1.431614    1.592989    0.360395
      3          6           0       -0.185321    0.034512   -0.521287
      4          6           0       -0.211384   -0.851412    0.740485
      5          9           0        0.631350   -1.855954    0.527036
      6          9           0        0.129280   -0.215459    1.839749
      7          9           0       -1.429963   -1.348548    0.900154
      8          9           0       -1.283437    0.871807   -0.245154
      9          9           0       -0.374733   -0.634259   -1.604836
     10          8           0        0.855724    1.695480   -1.810883
     11          1           0        1.367090    2.516475   -1.789485
 ---------------------------------------------------------------------
                    Distance matrix (angstroms):
                    1          2          3          4          5
     1  C    0.000000
     2  O    1.190707   0.000000
     3  C    1.540274   2.412611   0.000000
     4  C    2.648338   2.969681   1.541950   0.000000
     5  F    3.249833   3.544489   2.310799   1.328483   0.000000
     6  F    2.889596   2.674892   2.394984   1.314865   2.160212
     7  F    3.709861   4.139155   2.341471   1.325735   2.155386
     8  F    2.164136   2.873725   1.408251   2.256162   3.421019
     9  F    2.413041   3.476443   1.287327   2.361010   2.655112
    10  O    1.325626   2.248689   2.346412   3.759636   4.257804
    11  H    1.869595   2.340721   3.190368   4.498332   5.002571
                    6          7          8          9         10
     6  F    0.000000
     7  F    2.144287   0.000000
     8  F    2.743125   2.502634   0.000000
     9  F    3.506364   2.810462   2.223221   0.000000
    10  O    4.184080   4.673350   2.775961   2.642757   0.000000
    11  H    4.708182   5.476867   3.480687   3.604881   0.967463
                   11
    11  H    0.000000
 Symmetry turned off by external request.
 Stoichiometry    C3HF5O2
 Rotational constants (GHZ):           2.1084066           1.1625217           1.0212567
 Leave Link  202 at Sat May 24 07:15:02 2025, MaxMem=  3758096384 cpu:               0.1 elap:               0.0
 (Enter /apps/easybuild-2022/easybuild/software/Compiler/NVHPC/22.11-CUDA-11.7.0/Gaussian/g16c01-CUDA-11.7.0/g16/l301.exe)
 Standard basis: def2TZVPP (5D, 7F)
 Ernie: Thresh=  0.10000D-02 Tol=  0.10000D-05 Strict=F.
   324 basis functions,   527 primitive gaussians,   375 cartesian basis functions
    40 alpha electrons       40 beta electrons
       nuclear repulsion energy       639.8932299815 Hartrees.
 IExCor= 4336 DFT=T Ex+Corr=M062X ExCW=0 ScaHFX=  0.540000
 ScaDFX=  1.000000  1.000000  1.000000  1.000000 ScalE2=  1.000000  1.000000
 IRadAn=      5 IRanWt=     -1 IRanGd=            0 ICorTp=0 IEmpDi=  4
 NAtoms=   11 NActive=   11 NUniq=   11 SFac= 1.00D+00 NAtFMM=   60 NAOKFM=F Big=F
 Integral buffers will be    131072 words long.
 Raffenetti 2 integral format.
 Two-electron integral symmetry is turned off.
 Leave Link  301 at Sat May 24 07:15:02 2025, MaxMem=  3758096384 cpu:               0.1 elap:               0.0
[...]
   R10        1.82804   0.00000   0.00000   0.00000   0.00000   1.82804
    A1        2.16155  -0.00000   0.00000   0.00000   0.00000   2.16156
    A2        2.20655  -0.00000   0.00000  -0.00001  -0.00001   2.20654
    A3        1.91508   0.00000   0.00000   0.00001   0.00001   1.91509
    A4        1.97337   0.00001   0.00000   0.00003   0.00003   1.97340
    A5        1.90999  -0.00001   0.00000  -0.00011  -0.00011   1.90988
    A6        1.91050  -0.00001   0.00000   0.00002   0.00002   1.91052
    A7        1.88626   0.00000   0.00000   0.00004   0.00004   1.88630
    A8        1.88640   0.00000   0.00000   0.00001   0.00001   1.88641
    A9        1.89574   0.00000   0.00000   0.00001   0.00001   1.89574
   A10        1.92809   0.00000   0.00000  -0.00005  -0.00005   1.92804
   A11        1.92823   0.00001   0.00000   0.00006   0.00006   1.92829
   A12        1.90122   0.00001   0.00000   0.00002   0.00002   1.90123
   A13        1.91301  -0.00000   0.00000  -0.00000  -0.00000   1.91301
   A14        1.89629  -0.00001   0.00000  -0.00002  -0.00002   1.89628
   A15        1.89638  -0.00001   0.00000  -0.00001  -0.00001   1.89637
   A16        1.89239   0.00000   0.00000  -0.00001  -0.00001   1.89238
    D1       -0.00377  -0.00000   0.00000  -0.00105  -0.00105  -0.00483
    D2        2.09969   0.00000   0.00000  -0.00106  -0.00106   2.09863
    D3       -2.10777  -0.00001   0.00000  -0.00110  -0.00110  -2.10887
    D4        3.13825  -0.00000   0.00000  -0.00092  -0.00092   3.13733
    D5       -1.04147   0.00000   0.00000  -0.00092  -0.00092  -1.04239
    D6        1.03425  -0.00000   0.00000  -0.00096  -0.00096   1.03329
    D7       -0.00068   0.00000   0.00000  -0.00000  -0.00000  -0.00068
    D8        3.14047   0.00000   0.00000  -0.00015  -0.00015   3.14032
    D9       -1.06004  -0.00000   0.00000   0.00025   0.00025  -1.05980
   D10        1.05969  -0.00000   0.00000   0.00026   0.00026   1.05995
   D11        3.14151   0.00000   0.00000   0.00029   0.00029  -3.14139
   D12        3.10622   0.00000   0.00000   0.00034   0.00034   3.10656
   D13       -1.05723   0.00000   0.00000   0.00034   0.00034  -1.05688
   D14        1.02459   0.00000   0.00000   0.00038   0.00038   1.02497
   D15        1.05762  -0.00000   0.00000   0.00030   0.00030   1.05792
   D16       -3.10583  -0.00000   0.00000   0.00031   0.00031  -3.10552
   D17       -1.02401  -0.00000   0.00000   0.00034   0.00034  -1.02367
         Item               Value     Threshold  Converged?
 Maximum Force            0.000010     0.000450     YES
 RMS     Force            0.000004     0.000300     YES
 Maximum Displacement     0.001262     0.001800     YES
 RMS     Displacement     0.000479     0.001200     YES
 Predicted change in Energy=-3.880274D-09
 Optimization completed.
    -- Stationary point found.
                           ----------------------------
                           !   Optimized Parameters   !
                           ! (Angstroms and Degrees)  !
 --------------------------                            --------------------------
 ! Name  Definition              Value          Derivative Info.                !
 --------------------------------------------------------------------------------
 ! R1    R(1,2)                  1.1901         -DE/DX =    0.0                 !
 ! R2    R(1,3)                  1.5405         -DE/DX =    0.0                 !
 ! R3    R(1,10)                 1.3279         -DE/DX =    0.0                 !
 ! R4    R(3,4)                  1.5417         -DE/DX =    0.0                 !
 ! R5    R(3,8)                  1.3411         -DE/DX =    0.0                 !
 ! R6    R(3,9)                  1.341          -DE/DX =    0.0                 !
 ! R7    R(4,5)                  1.3239         -DE/DX =    0.0                 !
 ! R8    R(4,6)                  1.3239         -DE/DX =    0.0                 !
 ! R9    R(4,7)                  1.3276         -DE/DX =    0.0                 !
 ! R10   R(10,11)                0.9674         -DE/DX =    0.0                 !
 ! A1    A(2,1,3)              123.8479         -DE/DX =    0.0                 !
 ! A2    A(2,1,10)             126.4261         -DE/DX =    0.0                 !
 ! A3    A(3,1,10)             109.726          -DE/DX =    0.0                 !
 ! A4    A(1,3,4)              113.066          -DE/DX =    0.0                 !
 ! A5    A(1,3,8)              109.4341         -DE/DX =    0.0                 !
 ! A6    A(1,3,9)              109.4633         -DE/DX =    0.0                 !
 ! A7    A(4,3,8)              108.0745         -DE/DX =    0.0                 !
 ! A8    A(4,3,9)              108.0826         -DE/DX =    0.0                 !
 ! A9    A(8,3,9)              108.6176         -DE/DX =    0.0                 !
 ! A10   A(3,4,5)              110.4715         -DE/DX =    0.0                 !
 ! A11   A(3,4,6)              110.4796         -DE/DX =    0.0                 !
 ! A12   A(3,4,7)              108.9316         -DE/DX =    0.0                 !
 ! A13   A(5,4,6)              109.6072         -DE/DX =    0.0                 !
 ! A14   A(5,4,7)              108.6497         -DE/DX =    0.0                 !
 ! A15   A(6,4,7)              108.6547         -DE/DX =    0.0                 !
 ! A16   A(1,10,11)            108.4258         -DE/DX =    0.0                 !
 ! D1    D(2,1,3,4)             -0.2161         -DE/DX =    0.0                 !
 ! D2    D(2,1,3,8)            120.3033         -DE/DX =    0.0                 !
 ! D3    D(2,1,3,9)           -120.7664         -DE/DX =    0.0                 !
 ! D4    D(10,1,3,4)           179.8086         -DE/DX =    0.0                 !
 ! D5    D(10,1,3,8)           -59.672          -DE/DX =    0.0                 !
 ! D6    D(10,1,3,9)            59.2583         -DE/DX =    0.0                 !
 ! D7    D(2,1,10,11)           -0.0388         -DE/DX =    0.0                 !
 ! D8    D(3,1,10,11)          179.9357         -DE/DX =    0.0                 !
 ! D9    D(1,3,4,5)            -60.736          -DE/DX =    0.0                 !
 ! D10   D(1,3,4,6)             60.7159         -DE/DX =    0.0                 !
 ! D11   D(1,3,4,7)           -180.0046         -DE/DX =    0.0                 !
 ! D12   D(8,3,4,5)            177.9734         -DE/DX =    0.0                 !
 ! D13   D(8,3,4,6)            -60.5747         -DE/DX =    0.0                 !
 ! D14   D(8,3,4,7)             58.7048         -DE/DX =    0.0                 !
 ! D15   D(9,3,4,5)             60.5972         -DE/DX =    0.0                 !
 ! D16   D(9,3,4,6)           -177.9509         -DE/DX =    0.0                 !
 ! D17   D(9,3,4,7)            -58.6714         -DE/DX =    0.0                 !
 --------------------------------------------------------------------------------
 GradGradGradGradGradGradGradGradGradGradGradGradGradGradGradGradGradGrad

 Leave Link  103 at Sat May 24 07:28:57 2025, MaxMem=  3758096384 cpu:               0.1 elap:               0.0
 (Enter /apps/easybuild-2022/easybuild/software/Compiler/NVHPC/22.11-CUDA-11.7.0/Gaussian/g16c01-CUDA-11.7.0/g16/l9999.exe)

 ----------------------------------------------------------------------

 Electric dipole moment (input orientation):
 (Debye = 10**-18 statcoulomb cm , SI units = C m)
                  (au)            (Debye)         (10**-30 SI)
   Tot        0.938397D+00      0.238517D+01      0.795606D+01
   x          0.285379D+00      0.725360D+00      0.241954D+01
   y          0.681389D+00      0.173192D+01      0.577705D+01
   z         -0.578668D+00     -0.147083D+01     -0.490616D+01

 Dipole polarizability, Alpha (input orientation).
 (esu units = cm**3 , SI units = C**2 m**2 J**-1)
 Alpha(0;0):
               (au)            (10**-24 esu)      (10**-40 SI)
   iso        0.437076D+02      0.647679D+01      0.720641D+01
   aniso      0.102009D+02      0.151162D+01      0.168190D+01
   xx         0.443098D+02      0.656604D+01      0.730571D+01
   yx         0.345989D+01      0.512702D+00      0.570458D+00
   yy         0.429252D+02      0.636085D+01      0.707740D+01
   zx         0.206806D+01      0.306454D+00      0.340977D+00
   zy        -0.423494D+01     -0.627553D+00     -0.698247D+00
   zz         0.438877D+02      0.650349D+01      0.723611D+01

 ----------------------------------------------------------------------

 Dipole orientation:
     6          0.89706136         -0.35616301          2.72552157
     8          2.96264641         -1.18986956          2.41536013
     6         -0.90197025          0.36835591          0.55446484
     6          0.24980404         -0.08723527         -2.08256610
     9          2.31796092          1.28800957         -2.38356078
     9          0.79922436         -2.50829558         -2.39135673
     9         -1.42198446          0.58527787         -3.82824217
     9         -3.02903307         -0.99830763          0.73025561
     9         -1.50061767          2.82395010          0.73776407
     8         -0.21313691          0.09217259          4.93077390
     1          0.94420955         -0.37604232          6.26607959

 Electric dipole moment (dipole orientation):
 (Debye = 10**-18 statcoulomb cm , SI units = C m)
                  (au)            (Debye)         (10**-30 SI)
   Tot        0.938397D+00      0.238517D+01      0.795606D+01
   x          0.000000D+00      0.000000D+00      0.000000D+00
   y          0.000000D+00      0.000000D+00      0.000000D+00
   z          0.938397D+00      0.238517D+01      0.795606D+01

 Dipole polarizability, Alpha (dipole orientation).
 (esu units = cm**3 , SI units = C**2 m**2 J**-1)
 Alpha(0;0):
               (au)            (10**-24 esu)      (10**-40 SI)
   iso        0.437076D+02      0.647679D+01      0.720641D+01
   aniso      0.102009D+02      0.151162D+01      0.168190D+01
   xx         0.448916D+02      0.665224D+01      0.740162D+01
   yx        -0.317891D+01     -0.471066D+00     -0.524131D+00
   yy         0.382670D+02      0.567058D+01      0.630937D+01
   zx         0.138405D+00      0.205095D-01      0.228199D-01
   zy        -0.351573D-01     -0.520977D-02     -0.579666D-02
   zz         0.479642D+02      0.710756D+01      0.790822D+01

 ----------------------------------------------------------------------
 Unable to Open any file for archive entry.
 1\1\GINC-SPARTAN-BM171\Freq\RM062X\def2TZVPP\C3H1F5O2\AKHALILOV\24-May
 -2025\0\\#P Geom=AllCheck Guess=TCheck SCRF=Check GenChk RM062X/def2TZ
 VPP Freq\\Gaussian input prepared by ASE\\0,1\C,0.8604212135,1.1094355
 947,-0.608175429\O,1.7807748504,1.1382479789,0.145799117\C,-0.33414170
 74,0.1468934261,-0.4676263781\C,-0.216823922,-0.787166659,0.7533046803
 \F,0.865954237,-1.5427152571,0.6559207693\F,-0.1674070859,-0.082197155
 ,1.872770508\F,-1.2832073692,-1.5769103549,0.7955035277\F,-1.465837057
 3,0.855530679,-0.3421629148\F,-0.4258172939,-0.6150520098,-1.567333403
 2\O,0.6938354316,1.8771685315,-1.6787295378\H,1.4522877033,2.473562225
 6,-1.7483059394\\Version=ES64L-G16RevC.01\HF=-764.6679548\RMSD=2.787e-
 09\RMSF=4.883e-06\ZeroPoint=0.0527361\Thermal=0.0616386\ETot=-764.6063
 162\HTot=-764.605372\GTot=-764.6503675\Dipole=0.2853788,0.6813887,-0.5
 786684\DipoleDeriv=0.9638443,0.183305,0.388185,0.1254007,0.8725427,-0.
 6432222,0.4588022,-0.5943334,1.3618484,-0.811828,-0.0272623,-0.4022529
 ,-0.1777082,-0.4895837,0.0725103,-0.2214557,0.2013406,-0.736551,1.0474
 647,-0.180525,-0.0133666,-0.1739478,0.9705168,0.2723257,-0.021452,0.26
 57408,0.9828074,1.5869287,0.019521,-0.0433619,0.0950748,1.5770074,0.12
 13018,-0.1334027,0.0581762,1.4280907,-0.6560324,0.267466,0.0616637,0.3
 051293,-0.5358719,0.0041612,0.0058796,0.0545633,-0.311903,-0.2659676,-
 0.0166322,-0.0032463,-0.0157448,-0.4625797,-0.1763785,0.006478,-0.2586
 389,-0.7780172,-0.6813192,-0.311781,0.0286786,-0.3589533,-0.5837839,0.
 0679541,0.0842503,0.1060577,-0.3311132,-0.7496419,0.2359467,0.0672199,
 0.2253803,-0.4549694,-0.0279509,0.0095731,0.0192641,-0.2751373,-0.3086
 4,-0.0816164,-0.068135,-0.0594015,-0.4862362,-0.234328,-0.0242349,-0.2
 903193,-0.6874586,-0.391885,-0.0915443,0.055892,0.0403528,-0.7816349,0
 .5831124,-0.1037118,0.4699161,-0.9846745,0.2670763,0.0031224,-0.071276
 5,-0.0055822,0.3745928,-0.0394859,-0.060726,-0.031767,0.3321084\Polar=
 44.3098398,3.4598858,42.925171,2.0680569,-4.2349377,43.8877112\PG=Unkn
 own\NImag=0\\0.80928694,0.13609506,0.45273999,0.32836992,-0.14854389,0
 .69440617,-0.55071203,-0.04945079,-0.34751766,0.58593535,-0.04208431,-
 0.10228322,-0.00301586,0.03428426,0.07033327,-0.35642690,-0.00932636,-
 0.36901713,0.43403106,-0.01865757,0.42501556,-0.13281898,-0.07224267,0
 .03488266,-0.01570046,-0.01285477,-0.01507751,0.57748130,-0.04946331,-
 0.13113216,0.02943888,-0.00022804,0.01814254,0.00226026,0.01356543,0.5
 5529510,0.00757119,0.01007589,-0.07723949,-0.03043018,-0.00860320,0.00
 436795,0.03004909,-0.02648893,0.58143945,0.02060016,-0.01709959,0.0319
 2497,-0.00677168,0.00571809,-0.00759955,-0.05622413,-0.01292213,-0.000
 42322,0.59089079,-0.00725743,-0.01465795,0.02020223,0.00505027,0.00098
 311,-0.00408585,0.00309940,-0.11136199,0.09149866,-0.01103872,0.616396
 06,0.02009396,0.01179921,0.01019189,-0.00681415,-0.00349549,-0.0075307
 4,-0.01964161,0.07784277,-0.14768579,-0.00115830,-0.02016844,0.6308041
 6,-0.00704649,-0.00001645,-0.00569079,0.00393031,-0.00306630,0.0025034
 4,-0.01691025,0.01562723,0.00826417,-0.22704514,0.12298682,-0.00929732
 ,0.33455003,0.00146127,0.00204747,-0.00105323,-0.00253277,-0.00412896,
 0.00106335,0.03137923,-0.01330207,-0.01220715,0.11804583,-0.17508517,0
 .01504919,-0.17277211,0.20186339,-0.00137422,-0.00184948,-0.00082662,0
 .00106231,0.00160571,0.00106448,-0.01756576,0.01061710,0.00796136,-0.0
 0245585,0.00808203,-0.08429705,-0.02084785,0.01911725,0.07596430,-0.00
 412422,0.00083252,-0.00373513,-0.00028193,-0.00169206,0.00425716,0.004
 96363,0.00081838,-0.00303889,-0.07499238,-0.00415401,-0.00949820,-0.00
 470757,0.03220040,0.03764678,0.08449808,-0.00256638,0.00027246,-0.0041
 1982,-0.00103095,-0.00013387,0.00393293,0.00234924,0.00479629,0.001497
 26,-0.00381595,-0.12625580,-0.09386627,0.02657040,-0.03070897,-0.04376
 609,0.01085525,0.18261492,-0.00579858,-0.00166942,-0.00234699,0.004284
 59,0.00236672,0.00116362,0.00202606,-0.03599397,-0.03196887,-0.0107517
 1,-0.08292890,-0.28477945,0.02538387,-0.03309550,-0.01074485,0.0119657
 8,0.17244295,0.34537993,0.00187070,0.00203074,-0.00052891,0.00048724,-
 0.00100516,0.00111008,-0.02269852,-0.01610661,-0.00193572,-0.21005445,
 -0.11654326,0.02585962,-0.08615032,-0.01012340,0.00828835,-0.00988086,
 -0.03246262,-0.02496512,0.31711974,0.00706676,0.00151457,0.00367408,-0
 .00147645,-0.00037648,-0.00004621,-0.04032372,-0.02615689,-0.00022401,
 -0.11091205,-0.17684188,0.02757171,0.00697450,0.02481136,-0.00225064,-
 0.03656743,-0.03445707,-0.03095751,0.17429907,0.20940434,-0.00654553,-
 0.00058710,-0.00525475,0.00166309,0.00033807,0.00162417,0.02718956,0.0
 2044797,0.00088586,0.01903152,0.02265845,-0.08670556,0.00499769,-0.001
 58886,0.01325693,-0.03724596,-0.04259345,-0.00387182,-0.01084474,-0.00
 318922,0.07808353,-0.03751331,0.03864010,0.00006877,-0.00903600,-0.011
 77450,-0.00334995,-0.26667840,0.10158605,-0.00087895,-0.02799119,0.013
 18193,0.00963913,-0.00073085,0.00429446,-0.00459682,0.00261463,-0.0015
 1683,-0.00324636,0.00721953,0.00066809,-0.00156118,0.32767342,-0.00556
 954,0.00872435,0.00188512,-0.00075945,-0.00115702,-0.00190062,0.099838
 40,-0.13021436,0.01144481,0.03503397,-0.01683096,-0.00883508,0.0046196
 9,-0.00775438,0.00658127,-0.00224929,0.00266682,0.00425755,0.00000929,
 0.00194167,0.00036235,-0.16453600,0.16902402,0.00527369,-0.00183373,0.
 00329014,0.00338312,0.00085410,0.00177089,0.00442098,0.00374152,-0.072
 72834,-0.02251247,0.00861315,0.00633065,-0.00400642,0.00705128,-0.0040
 6046,-0.00034849,0.00165268,0.00181444,0.00000506,-0.00020450,0.000509
 32,-0.02447075,0.01801790,0.07307745,0.00663177,-0.01368672,-0.0296751
 1,-0.00736942,-0.00132120,0.00231587,-0.07703276,-0.02867802,-0.033719
 26,-0.00038915,-0.00524011,-0.00217137,0.00208519,-0.00147166,-0.00072
 857,0.00071506,0.00071744,-0.00081126,0.00291075,0.00292377,0.00084627
 ,0.00233681,0.03419094,0.03792590,0.07092481,0.00063793,-0.01433018,-0
 .03668016,-0.01189272,-0.00344396,0.00036085,-0.02799111,-0.14534520,-
 0.10787340,0.00175091,0.00097293,0.00094060,-0.00196419,0.00329989,0.0
 0135141,-0.00010492,0.00114718,0.00429249,0.00223695,0.00402676,0.0014
 9252,0.02609554,-0.02925438,-0.03662874,0.01255712,0.18271361,0.000917
 84,-0.00764884,-0.01791665,-0.00478280,-0.00266389,0.00239986,-0.03785
 617,-0.09942659,-0.24755505,-0.00467015,-0.04095894,-0.03892696,-0.002
 15984,0.00499166,0.00169104,-0.00079780,0.00425709,-0.01435297,0.00089
 891,0.00319968,0.00256525,0.02644840,-0.02997515,-0.01117241,0.0235029
 0,0.16978951,0.31658763,-0.11503503,-0.02321409,-0.01428322,0.00512715
 ,0.03105287,-0.05861367,0.00387494,-0.02380817,0.02646228,-0.00818915,
 0.00016555,-0.00715362,0.00208868,-0.00064805,0.00062295,0.00119028,0.
 00079437,0.00185186,-0.00099936,-0.00291833,0.00261039,0.00125553,-0.0
 0077985,0.00036919,-0.00054083,-0.00147699,-0.00112270,0.43923852,-0.0
 1113502,-0.17799149,0.12621238,0.02600452,0.01981824,0.03436061,0.0030
 9799,-0.02036404,0.03494266,-0.00329635,0.00304546,-0.00644750,0.00061
 376,-0.00101582,0.00055734,-0.00018744,-0.00012230,0.00138850,-0.00245
 688,-0.00379039,0.00250404,-0.00635175,0.00222789,-0.00043656,-0.00099
 286,-0.00092631,-0.00157896,0.23776140,0.37689433,-0.02882173,0.115833
 72,-0.23036048,-0.05257488,0.03865480,-0.06198753,-0.00593158,0.011980
 82,-0.01313555,-0.00301349,-0.00356067,0.00164258,0.00111297,0.0008732
 2,-0.00001765,0.00101738,0.00086048,-0.00001959,0.00207432,0.00213557,
 -0.00074409,0.00296173,-0.00108643,0.00085941,0.00238684,0.00337508,0.
 00576039,0.05591722,-0.20370641,0.33331700,0.00886048,-0.00188813,0.00
 618449,-0.00560852,0.00274309,-0.00315004,0.00174363,-0.00039082,-0.00
 192051,0.00016632,-0.00025046,0.00014185,-0.00006358,0.00016680,-0.000
 05134,0.00000528,0.00010603,0.00006085,0.00017555,0.00026580,-0.000141
 10,0.00084984,0.00020185,-0.00003978,-0.00027223,0.00015150,-0.0003785
 9,-0.32801072,-0.24305737,0.02487121,0.32215395,-0.02718504,-0.0249038
 2,0.01200025,0.00203213,0.00224635,-0.00796139,0.00008259,-0.00035723,
 0.00593739,-0.00146401,-0.00036381,-0.00039070,0.00042665,-0.00002675,
 -0.00004589,0.00024859,0.00018034,-0.00010291,0.00012188,-0.00007600,0
 .00015521,-0.00028708,0.00062635,-0.00082711,0.00100130,0.00113965,0.0
 0001443,-0.21692872,-0.19777556,0.03463980,0.24195171,0.21931047,0.036
 74035,0.03374999,-0.00492609,-0.00230451,-0.00738340,0.00112887,-0.002
 49573,0.00558018,-0.00434153,0.00162825,0.00064827,0.00095628,-0.00025
 993,-0.00020122,0.00000853,-0.00022262,-0.00029777,-0.00027345,0.00003
 814,0.00029103,-0.00034883,-0.00101403,-0.00075174,0.00030892,0.000127
 79,-0.00042016,0.00091987,-0.00666067,0.01220390,-0.03531450,-0.025577
 04,-0.04341908,0.04188195\\0.00000477,0.00000577,0.00000447,0.00000393
 ,0.00000217,0.00000699,0.00000514,0.00000120,-0.00000980,-0.00000151,-
 0.00000515,0.00000218,0.00000375,0.00000499,0.00000482,-0.00000434,0.0
 0000556,-0.00000424,0.00000024,0.00000262,-0.00000351,-0.00001288,-0.0
 0000670,-0.00000229,0.00000270,-0.00000842,0.00000459,-0.00000026,-0.0
 0000226,-0.00000347,-0.00000154,0.00000022,0.00000025\\\@
 The archive entry for this job was punched.


 "THE TIME HAS COME", THE WALRUS SAID,
 "TO TALK OF MANY THINGS,
 OF SHOES AND SHIPS AND SEALING WAX,
 OF CABBAGES AND KINGS,
 AND WHY THE SEA IS BOILING HOT,
 AND WHETHER PIGS HAVE WINGS."
 Job cpu time:       0 days  0 hours 26 minutes 37.8 seconds.
 Elapsed time:       0 days  0 hours  3 minutes 24.4 seconds.
 File lengths (MBytes):  RWF=    116 Int=      0 D2E=      0 Chk=      9 Scr=      1
 Normal termination of Gaussian 16 at Sat May 24 07:28:58 2025.
done
