 Entering Gaussian System, Link 0=g16
 Initial command:
 /apps/easybuild-2022/easybuild/software/Compiler/NVHPC/22.11-CUDA-11.7.0/Gaussian/g16c01-CUDA-11.7.0/g16/l1.exe "/tmp/Gau-95689.inp" -scrdir="/tmp/"
 Entering Link 1 = /apps/easybuild-2022/easybuild/software/Compiler/NVHPC/22.11-CUDA-11.7.0/Gaussian/g16c01-CUDA-11.7.0/g16/l1.exe PID=     95690.
  
 Copyright (c) 1988-2019, Gaussian, Inc.  All Rights Reserved.
  
 This is part of the Gaussian(R) 16 program.  It is based on
 the Gaussian(R) 09 system (copyright 2009, Gaussian, Inc.),
 the Gaussian(R) 03 system (copyright 2003, Gaussian, Inc.),
 the Gaussian(R) 98 system (copyright 1998, Gaussian, Inc.),
 the Gaussian(R) 94 system (copyright 1995, Gaussian, Inc.),
 the Gaussian 92(TM) system (copyright 1992, Gaussian, Inc.),
 the Gaussian 90(TM) system (copyright 1990, Gaussian, Inc.),
 the Gaussian 88(TM) system (copyright 1988, Gaussian, Inc.),
 the Gaussian 86(TM) system (copyright 1986, Carnegie Mellon
 University), and the Gaussian 82(TM) system (copyright 1983,
 Carnegie Mellon University). Gaussian is a federally registered
 trademark of Gaussian, Inc.
  
 This software contains proprietary and confidential information,
 including trade secrets, belonging to Gaussian, Inc.
  
 This software is provided under written license and may be
 used, copied, transmitted, or stored only in accord with that
 written license.
  
 The following legend is applicable only to US Government
 contracts under FAR:
  
                    RESTRICTED RIGHTS LEGEND
  
 Use, reproduction and disclosure by the US Government is
 subject to restrictions as set forth in subparagraphs (a)
 and (c) of the Commercial Computer Software - Restricted
 Rights clause in FAR 52.227-19.
  
 Gaussian, Inc.
 340 Quinnipiac St., Bldg. 40, Wallingford CT 06492
  
  
 ---------------------------------------------------------------
 Warning -- This program may not be used in any manner that
 competes with the business of Gaussian, Inc. or will provide
 assistance to any competitor of Gaussian, Inc.  The licensee
 of this program is prohibited from giving any competitor of
 Gaussian, Inc. access to this program.  By using this program,
 the user acknowledges that Gaussian, Inc. is engaged in the
 business of creating and licensing software in the field of
 computational chemistry and represents and warrants to the
 licensee that it is not a competitor of Gaussian, Inc. and that
 it will not use this program in any manner prohibited above.
 ---------------------------------------------------------------
  

 Cite this work as:
 Gaussian 16, Revision C.01,
 M. J. Frisch, G. W. Trucks, H. B. Schlegel, G. E. Scuseria, 
 M. A. Robb, J. R. Cheeseman, G. Scalmani, V. Barone, 
 G. A. Petersson, H. Nakatsuji, X. Li, M. Caricato, A. V. Marenich, 
 J. Bloino, B. G. Janesko, R. Gomperts, B. Mennucci, H. P. Hratchian, 
 J. V. Ortiz, A. F. Izmaylov, J. L. Sonnenberg, D. Williams-Young, 
 F. Ding, F. Lipparini, F. Egidi, J. Goings, B. Peng, A. Petrone, 
 T. Henderson, D. Ranasinghe, V. G. Zakrzewski, J. Gao, N. Rega, 
 G. Zheng, W. Liang, M. Hada, M. Ehara, K. Toyota, R. Fukuda, 
 J. Hasegawa, M. Ishida, T. Nakajima, Y. Honda, O. Kitao, H. Nakai, 
 T. Vreven, K. Throssell, J. A. Montgomery, Jr., J. E. Peralta, 
 F. Ogliaro, M. J. Bearpark, J. J. Heyd, E. N. Brothers, K. N. Kudin, 
 V. N. Staroverov, T. A. Keith, R. Kobayashi, J. Normand, 
 K. Raghavachari, A. P. Rendell, J. C. Burant, S. S. Iyengar, 
 J. Tomasi, M. Cossi, J. M. Millam, M. Klene, C. Adamo, R. Cammi, 
 J. W. Ochterski, R. L. Martin, K. Morokuma, O. Farkas, 
 J. B. Foresman, and D. J. Fox, Gaussian, Inc., Wallingford CT, 2019.
 
 ******************************************
 Gaussian 16:  ES64L-G16RevC.01  3-Jul-2019
                24-May-2025 
 ******************************************
 %mem=28GB
 %chk=1642764945472630600001_r12_insertion_R_4_3_8_IRC_F_prod
 %nprocshared=8
 Will use up to    8 processors via shared memory.
 -----------------------------------------------------------------
 #P M062X/Def2TZVPP Symm(None) scf(xqc) pop(None) freq opt(CalcFC)
 -----------------------------------------------------------------
 1/10=4,18=20,19=15,26=3,38=1/1,3;
 2/9=110,12=2,15=3,17=6,18=5,40=1/2;
 3/5=44,7=202,11=2,25=1,30=1,71=2,74=-55,140=1/1,2,3;
 4//1;
 5/5=2,8=3,13=1,38=5/2,8;
 8/6=4,10=90,11=11/1;
 11/6=1,8=1,9=11,15=111,16=1,31=1/1,2,10;
 10/6=1,13=1,31=1/2;
 7/10=1,25=1,30=1/1,2,3,16;
 1/10=4,18=20,19=15,26=3/3(2);
 2/9=110,15=3/2;
 99//99;
 2/9=110,15=3/2;
 3/5=44,7=202,11=2,25=1,30=1,71=1,74=-55/1,2,3;
 4/5=5,16=3,69=1/1;
 5/5=2,8=3,13=1,38=5/2,8;
 7/30=1/1,2,3,16;
 1/18=20,19=15,26=3/3(-5);
 2/9=110,15=3/2;
 99/9=1/99;
 Leave Link    1 at Sat May 24 04:07:37 2025, MaxMem=  3758096384 cpu:               0.0 elap:               0.0
 (Enter /apps/easybuild-2022/easybuild/software/Compiler/NVHPC/22.11-CUDA-11.7.0/Gaussian/g16c01-CUDA-11.7.0/g16/l101.exe)
 ------------------------------
 Gaussian input prepared by ASE
 ------------------------------
 Symbolic Z-matrix:
 Charge =  0 Multiplicity = 1
 C                     1.39964  -0.20048  -0.64281 
 O                     2.02911  -1.08927  -1.11537 
 C                    -0.14394  -0.22386  -0.56067 
 C                    -0.69854   0.25582   0.79213 
 F                    -2.01067   0.08169   0.82725 
 F                    -0.13147  -0.48296   1.74322 
 F                    -0.44166   1.5329    1.01812 
 F                    -0.65825   0.54224  -1.53664 
 F                    -0.55896  -1.47976  -0.72673 
 O                     1.88799   0.92777  -0.13589 
 H                     2.85114   0.91024  -0.22519 
 
 ITRead=  0  0  0  0  0  0  0  0  0  0  0
 MicOpt= -1 -1 -1 -1 -1 -1 -1 -1 -1 -1 -1
 NAtoms=     11 NQM=       11 NQMF=       0 NMMI=      0 NMMIF=      0
                NMic=       0 NMicF=      0.
                    Isotopes and Nuclear Properties:
 (Nuclear quadrupole moments (NQMom) in fm**2, nuclear magnetic moments (NMagM)
  in nuclear magnetons)

  Atom         1           2           3           4           5           6           7           8           9          10
 IAtWgt=          12          16          12          12          19          19          19          19          19          16
 AtmWgt=  12.0000000  15.9949146  12.0000000  12.0000000  18.9984032  18.9984032  18.9984032  18.9984032  18.9984032  15.9949146
 NucSpn=           0           0           0           0           1           1           1           1           1           0
 AtZEff=  -0.0000000  -0.0000000  -0.0000000  -0.0000000  -0.0000000  -0.0000000  -0.0000000  -0.0000000  -0.0000000  -0.0000000
 NQMom=    0.0000000   0.0000000   0.0000000   0.0000000   0.0000000   0.0000000   0.0000000   0.0000000   0.0000000   0.0000000
 NMagM=    0.0000000   0.0000000   0.0000000   0.0000000   2.6288670   2.6288670   2.6288670   2.6288670   2.6288670   0.0000000
 AtZNuc=   6.0000000   8.0000000   6.0000000   6.0000000   9.0000000   9.0000000   9.0000000   9.0000000   9.0000000   8.0000000

  Atom        11
 IAtWgt=           1
 AtmWgt=   1.0078250
 NucSpn=           1
 AtZEff=  -0.0000000
 NQMom=    0.0000000
 NMagM=    2.7928460
 AtZNuc=   1.0000000
 Leave Link  101 at Sat May 24 04:07:37 2025, MaxMem=  3758096384 cpu:               0.3 elap:               0.2
 (Enter /apps/easybuild-2022/easybuild/software/Compiler/NVHPC/22.11-CUDA-11.7.0/Gaussian/g16c01-CUDA-11.7.0/g16/l103.exe)

 GradGradGradGradGradGradGradGradGradGradGradGradGradGradGradGradGradGrad
 Berny optimization.
 Initialization pass.
                           ----------------------------
                           !    Initial Parameters    !
                           ! (Angstroms and Degrees)  !
 --------------------------                            --------------------------
 ! Name  Definition              Value          Derivative Info.                !
 --------------------------------------------------------------------------------
 ! R1    R(1,2)                  1.1872         calculate D2E/DX2 analytically  !
 ! R2    R(1,3)                  1.5459         calculate D2E/DX2 analytically  !
 ! R3    R(1,10)                 1.3298         calculate D2E/DX2 analytically  !
 ! R4    R(3,4)                  1.5388         calculate D2E/DX2 analytically  !
 ! R5    R(3,8)                  1.3431         calculate D2E/DX2 analytically  !
 ! R6    R(3,9)                  1.3331         calculate D2E/DX2 analytically  !
 ! R7    R(4,5)                  1.3241         calculate D2E/DX2 analytically  !
 ! R8    R(4,6)                  1.3311         calculate D2E/DX2 analytically  !
 ! R9    R(4,7)                  1.3221         calculate D2E/DX2 analytically  !
 ! R10   R(10,11)                0.9674         calculate D2E/DX2 analytically  !
 ! A1    A(2,1,3)              122.6307         calculate D2E/DX2 analytically  !
 ! A2    A(2,1,10)             126.3121         calculate D2E/DX2 analytically  !
 ! A3    A(3,1,10)             111.0539         calculate D2E/DX2 analytically  !
 ! A4    A(1,3,4)              113.6953         calculate D2E/DX2 analytically  !
 ! A5    A(1,3,8)              109.579          calculate D2E/DX2 analytically  !
 ! A6    A(1,3,9)              108.571          calculate D2E/DX2 analytically  !
 ! A7    A(4,3,8)              108.8448         calculate D2E/DX2 analytically  !
 ! A8    A(4,3,9)              106.9171         calculate D2E/DX2 analytically  !
 ! A9    A(8,3,9)              109.126          calculate D2E/DX2 analytically  !
 ! A10   A(3,4,5)              109.846          calculate D2E/DX2 analytically  !
 ! A11   A(3,4,6)              107.5531         calculate D2E/DX2 analytically  !
 ! A12   A(3,4,7)              112.4179         calculate D2E/DX2 analytically  !
 ! A13   A(5,4,6)              109.2819         calculate D2E/DX2 analytically  !
 ! A14   A(5,4,7)              108.3632         calculate D2E/DX2 analytically  !
 ! A15   A(6,4,7)              109.3411         calculate D2E/DX2 analytically  !
 ! A16   A(1,10,11)            108.3633         calculate D2E/DX2 analytically  !
 ! D1    D(2,1,3,4)            136.3203         calculate D2E/DX2 analytically  !
 ! D2    D(2,1,3,8)           -101.6414         calculate D2E/DX2 analytically  !
 ! D3    D(2,1,3,9)             17.4596         calculate D2E/DX2 analytically  !
 ! D4    D(10,1,3,4)           -44.2975         calculate D2E/DX2 analytically  !
 ! D5    D(10,1,3,8)            77.7407         calculate D2E/DX2 analytically  !
 ! D6    D(10,1,3,9)          -163.1582         calculate D2E/DX2 analytically  !
 ! D7    D(2,1,10,11)            0.6361         calculate D2E/DX2 analytically  !
 ! D8    D(3,1,10,11)         -178.7182         calculate D2E/DX2 analytically  !
 ! D9    D(1,3,4,5)           -173.8861         calculate D2E/DX2 analytically  !
 ! D10   D(1,3,4,6)            -55.0452         calculate D2E/DX2 analytically  !
 ! D11   D(1,3,4,7)             65.3695         calculate D2E/DX2 analytically  !
 ! D12   D(8,3,4,5)             63.6701         calculate D2E/DX2 analytically  !
 ! D13   D(8,3,4,6)           -177.489          calculate D2E/DX2 analytically  !
 ! D14   D(8,3,4,7)            -57.0743         calculate D2E/DX2 analytically  !
 ! D15   D(9,3,4,5)            -54.0835         calculate D2E/DX2 analytically  !
 ! D16   D(9,3,4,6)             64.7575         calculate D2E/DX2 analytically  !
 ! D17   D(9,3,4,7)           -174.8279         calculate D2E/DX2 analytically  !
 --------------------------------------------------------------------------------
 Trust Radius=3.00D-01 FncErr=1.00D-07 GrdErr=1.00D-06 EigMax=2.50D+02 EigMin=1.00D-04
 Number of steps in this run=     53 maximum allowed number of steps=    100.
 GradGradGradGradGradGradGradGradGradGradGradGradGradGradGradGradGradGrad

 Leave Link  103 at Sat May 24 04:07:37 2025, MaxMem=  3758096384 cpu:               0.1 elap:               0.0
 (Enter /apps/easybuild-2022/easybuild/software/Compiler/NVHPC/22.11-CUDA-11.7.0/Gaussian/g16c01-CUDA-11.7.0/g16/l202.exe)
                          Input orientation:                          
 ---------------------------------------------------------------------
 Center     Atomic      Atomic             Coordinates (Angstroms)
 Number     Number       Type             X           Y           Z
 ---------------------------------------------------------------------
      1          6           0        1.399644   -0.200482   -0.642813
      2          8           0        2.029111   -1.089265   -1.115374
      3          6           0       -0.143936   -0.223862   -0.560674
      4          6           0       -0.698544    0.255823    0.792130
      5          9           0       -2.010673    0.081691    0.827254
      6          9           0       -0.131467   -0.482958    1.743216
      7          9           0       -0.441656    1.532899    1.018118
      8          9           0       -0.658246    0.542242   -1.536640
      9          9           0       -0.558957   -1.479764   -0.726725
     10          8           0        1.887991    0.927766   -0.135885
     11          1           0        2.851142    0.910236   -0.225185
 ---------------------------------------------------------------------
                    Distance matrix (angstroms):
                    1          2          3          4          5
     1  C    0.000000
     2  O    1.187214   0.000000
     3  C    1.545941   2.403903   0.000000
     4  C    2.582570   3.589977   1.538755   0.000000
     5  F    3.724377   4.633012   2.346149   1.324099   0.000000
     6  F    2.849075   3.634177   2.318447   1.331142   2.165463
     7  F    3.025506   4.187150   2.380637   1.322114   2.145751
     8  F    2.363361   3.171934   1.343108   2.346663   2.762094
     9  F    2.340881   2.646060   1.333081   2.310556   2.638271
    10  O    1.329813   2.246715   2.373904   2.828937   4.104030
    11  H    1.874821   2.337985   3.220128   3.750128   5.042951
                    6          7          8          9         10
     6  F    0.000000
     7  F    2.164639   0.000000
     8  F    3.476491   2.748654   0.000000
     9  F    2.697588   3.483443   2.180442   0.000000
    10  O    3.098286   2.669300   2.931564   3.483224   0.000000
    11  H    3.835564   3.574357   3.764457   4.194332   0.967441
                   11
    11  H    0.000000
 Symmetry turned off by external request.
 Stoichiometry    C3HF5O2
 Rotational constants (GHZ):           1.9460913           1.2266663           1.0821611
 Leave Link  202 at Sat May 24 04:07:37 2025, MaxMem=  3758096384 cpu:               0.0 elap:               0.0
 (Enter /apps/easybuild-2022/easybuild/software/Compiler/NVHPC/22.11-CUDA-11.7.0/Gaussian/g16c01-CUDA-11.7.0/g16/l301.exe)
 Standard basis: def2TZVPP (5D, 7F)
 Ernie: Thresh=  0.10000D-02 Tol=  0.10000D-05 Strict=F.
   324 basis functions,   527 primitive gaussians,   375 cartesian basis functions
    40 alpha electrons       40 beta electrons
       nuclear repulsion energy       641.5947991579 Hartrees.
 IExCor= 4336 DFT=T Ex+Corr=M062X ExCW=0 ScaHFX=  0.540000
 ScaDFX=  1.000000  1.000000  1.000000  1.000000 ScalE2=  1.000000  1.000000
 IRadAn=      5 IRanWt=     -1 IRanGd=            0 ICorTp=0 IEmpDi=  4
 NAtoms=   11 NActive=   11 NUniq=   11 SFac= 1.00D+00 NAtFMM=   60 NAOKFM=F Big=F
 Integral buffers will be    131072 words long.
 Raffenetti 2 integral format.
 Two-electron integral symmetry is turned off.
 Leave Link  301 at Sat May 24 04:07:37 2025, MaxMem=  3758096384 cpu:               0.1 elap:               0.1
 (Enter /apps/easybuild-2022/easybuild/software/Compiler/NVHPC/22.11-CUDA-11.7.0/Gaussian/g16c01-CUDA-11.7.0/g16/l302.exe)
 NPDir=0 NMtPBC=     1 NCelOv=     1 NCel=       1 NClECP=     1 NCelD=      1
         NCelK=      1 NCelE2=     1 NClLst=     1 CellRange=     0.0.
 One-electron integrals computed using PRISM.
   1 Symmetry operations used in ECPInt.
 ECPInt:  NShTT=    6786 NPrTT=   21959 LenC2=    6488 LenP2D=   16026.
 LDataN:  DoStor=T MaxTD1= 6 Len=  172
 NBasis=   324 RedAO= T EigKep=  2.85D-04  NBF=   324
 NBsUse=   324 1.00D-06 EigRej= -1.00D+00 NBFU=   324
 Precomputing XC quadrature grid using
 IXCGrd= 4 IRadAn=           5 IRanWt=          -1 IRanGd=           0 AccXCQ= 0.00D+00.
 Generated NRdTot=       0 NPtTot=           0 NUsed=           0 NTot=          32
 NSgBfM=   374   374   374   374   374 MxSgAt=    11 MxSgA2=    11.
 Leave Link  302 at Sat May 24 04:07:38 2025, MaxMem=  3758096384 cpu:               0.9 elap:               0.2
 (Enter /apps/easybuild-2022/easybuild/software/Compiler/NVHPC/22.11-CUDA-11.7.0/Gaussian/g16c01-CUDA-11.7.0/g16/l303.exe)
 DipDrv:  MaxL=1.
 Leave Link  303 at Sat May 24 04:07:38 2025, MaxMem=  3758096384 cpu:               0.1 elap:               0.0
 (Enter /apps/easybuild-2022/easybuild/software/Compiler/NVHPC/22.11-CUDA-11.7.0/Gaussian/g16c01-CUDA-11.7.0/g16/l401.exe)
 ExpMin= 9.52D-02 ExpMax= 3.55D+04 ExpMxC= 1.21D+03 IAcc=3 IRadAn=         5 AccDes= 0.00D+00
 Harris functional with IExCor= 1009 and IRadAn=       5 diagonalized for initial guess.
 HarFok:  IExCor= 1009 AccDes= 0.00D+00 IRadAn=         5 IDoV= 1 UseB2=F ITyADJ=14
 ICtDFT=  3500011 ScaDFX=  1.000000  1.000000  1.000000  1.000000
 FoFCou: FMM=F IPFlag=           0 FMFlag=      100000 FMFlg1=           0
         NFxFlg=           0 DoJE=T BraDBF=F KetDBF=T FulRan=T
         wScrn=  0.000000 ICntrl=       500 IOpCl=  0 I1Cent=   200000004 NGrid=           0
         NMat0=    1 NMatS0=      1 NMatT0=    0 NMatD0=    1 NMtDS0=    0 NMtDT0=    0
 Symmetry not used in FoFCou.
 Harris En= -764.197455462993    
 JPrj=0 DoOrth=F DoCkMO=F.
 Leave Link  401 at Sat May 24 04:07:38 2025, MaxMem=  3758096384 cpu:               3.5 elap:               0.5
 (Enter /apps/easybuild-2022/easybuild/software/Compiler/NVHPC/22.11-CUDA-11.7.0/Gaussian/g16c01-CUDA-11.7.0/g16/l502.exe)
 Keep R1 ints in memory in canonical form, NReq=1412617130.
 FoFCou: FMM=F IPFlag=           0 FMFlag=           0 FMFlg1=           0
         NFxFlg=           0 DoJE=F BraDBF=F KetDBF=F FulRan=T
         wScrn=  0.000000 ICntrl=       600 IOpCl=  0 I1Cent=           0 NGrid=           0
         NMat0=    1 NMatS0=  52650 NMatT0=    0 NMatD0=    1 NMtDS0=    0 NMtDT0=    0
 Symmetry not used in FoFCou.
 Two-electron integral symmetry not used.
 Closed shell SCF:
 Using DIIS extrapolation, IDIIS=  1040.
 NGot=  3758096384 LenX=  2371771924 LenY=  2371630858
 Requested convergence on RMS density matrix=1.00D-08 within  32 cycles.
 Requested convergence on MAX density matrix=1.00D-06.
 Requested convergence on             energy=1.00D-06.
 No special actions if energy rises.
 Integral accuracy reduced to 1.0D-05 until final iterations.

 Cycle   1  Pass 0  IDiag  1:
 E= -764.497371833556    
 DIIS: error= 1.81D-02 at cycle   1 NSaved=   1.
 NSaved= 1 IEnMin= 1 EnMin= -764.497371833556     IErMin= 1 ErrMin= 1.81D-02
 ErrMax= 1.81D-02  0.00D+00 EMaxC= 1.00D-01 BMatC= 3.46D-01 BMatP= 3.46D-01
 IDIUse=3 WtCom= 8.19D-01 WtEn= 1.81D-01
 Coeff-Com:  0.100D+01
 Coeff-En:   0.100D+01
 Coeff:      0.100D+01
 Gap=     0.431 Goal=   None    Shift=    0.000
 GapD=    0.431 DampG=2.000 DampE=0.500 DampFc=1.0000 IDamp=-1.
 RMSDP=2.18D-03 MaxDP=9.00D-02              OVMax= 2.06D-01

 Cycle   2  Pass 0  IDiag  1:
 E= -764.405484580787     Delta-E=        0.091887252769 Rises=F Damp=F
 DIIS: error= 2.11D-02 at cycle   2 NSaved=   2.
 NSaved= 2 IEnMin= 1 EnMin= -764.497371833556     IErMin= 1 ErrMin= 1.81D-02
 ErrMax= 2.11D-02  0.00D+00 EMaxC= 1.00D-01 BMatC= 4.18D-01 BMatP= 3.46D-01
 IDIUse=2 WtCom= 0.00D+00 WtEn= 1.00D+00
 Coeff-En:   0.603D+00 0.397D+00
 Coeff:      0.603D+00 0.397D+00
 Gap=     0.405 Goal=   None    Shift=    0.000
 RMSDP=1.11D-03 MaxDP=7.50D-02 DE= 9.19D-02 OVMax= 1.09D-01

 Cycle   3  Pass 0  IDiag  1:
 E= -764.663435291610     Delta-E=       -0.257950710823 Rises=F Damp=F
 DIIS: error= 2.74D-03 at cycle   3 NSaved=   3.
 NSaved= 3 IEnMin= 3 EnMin= -764.663435291610     IErMin= 3 ErrMin= 2.74D-03
 ErrMax= 2.74D-03  0.00D+00 EMaxC= 1.00D-01 BMatC= 5.53D-03 BMatP= 3.46D-01
 IDIUse=3 WtCom= 9.73D-01 WtEn= 2.74D-02
 Coeff-Com:  0.909D-01 0.473D-01 0.862D+00
 Coeff-En:   0.000D+00 0.000D+00 0.100D+01
 Coeff:      0.884D-01 0.460D-01 0.866D+00
 Gap=     0.390 Goal=   None    Shift=    0.000
 RMSDP=2.38D-04 MaxDP=1.32D-02 DE=-2.58D-01 OVMax= 3.80D-02

 Cycle   4  Pass 0  IDiag  1:
 E= -764.663652255380     Delta-E=       -0.000216963770 Rises=F Damp=F
 DIIS: error= 3.15D-03 at cycle   4 NSaved=   4.
 NSaved= 4 IEnMin= 4 EnMin= -764.663652255380     IErMin= 3 ErrMin= 2.74D-03
 ErrMax= 3.15D-03  0.00D+00 EMaxC= 1.00D-01 BMatC= 5.33D-03 BMatP= 5.53D-03
 IDIUse=3 WtCom= 9.68D-01 WtEn= 3.15D-02
 Coeff-Com: -0.885D-03-0.229D-01 0.515D+00 0.509D+00
 Coeff-En:   0.000D+00 0.000D+00 0.485D+00 0.515D+00
 Coeff:     -0.857D-03-0.221D-01 0.514D+00 0.509D+00
 Gap=     0.399 Goal=   None    Shift=    0.000
 RMSDP=1.20D-04 MaxDP=6.51D-03 DE=-2.17D-04 OVMax= 1.87D-02

 Cycle   5  Pass 0  IDiag  1:
 E= -764.667097870260     Delta-E=       -0.003445614880 Rises=F Damp=F
 DIIS: error= 2.33D-04 at cycle   5 NSaved=   5.
 NSaved= 5 IEnMin= 5 EnMin= -764.667097870260     IErMin= 5 ErrMin= 2.33D-04
 ErrMax= 2.33D-04  0.00D+00 EMaxC= 1.00D-01 BMatC= 5.93D-05 BMatP= 5.33D-03
 IDIUse=3 WtCom= 9.98D-01 WtEn= 2.33D-03
 Coeff-Com: -0.337D-02-0.115D-01 0.166D+00 0.184D+00 0.666D+00
 Coeff-En:   0.000D+00 0.000D+00 0.000D+00 0.000D+00 0.100D+01
 Coeff:     -0.336D-02-0.115D-01 0.165D+00 0.183D+00 0.666D+00
 Gap=     0.399 Goal=   None    Shift=    0.000
 RMSDP=2.03D-05 MaxDP=7.59D-04 DE=-3.45D-03 OVMax= 2.40D-03

 Cycle   6  Pass 0  IDiag  1:
 E= -764.667145055674     Delta-E=       -0.000047185414 Rises=F Damp=F
 DIIS: error= 7.33D-05 at cycle   6 NSaved=   6.
 NSaved= 6 IEnMin= 6 EnMin= -764.667145055674     IErMin= 6 ErrMin= 7.33D-05
 ErrMax= 7.33D-05  0.00D+00 EMaxC= 1.00D-01 BMatC= 4.50D-06 BMatP= 5.93D-05
 IDIUse=1 WtCom= 1.00D+00 WtEn= 0.00D+00
 Coeff-Com: -0.830D-03-0.178D-02 0.714D-02 0.270D-02 0.177D+00 0.816D+00
 Coeff:     -0.830D-03-0.178D-02 0.714D-02 0.270D-02 0.177D+00 0.816D+00
 Gap=     0.399 Goal=   None    Shift=    0.000
 RMSDP=7.27D-06 MaxDP=3.54D-04 DE=-4.72D-05 OVMax= 7.15D-04

 Initial convergence to 1.0D-05 achieved.  Increase integral accuracy.
 Cycle   7  Pass 1  IDiag  1:
 E= -764.667157112849     Delta-E=       -0.000012057175 Rises=F Damp=F
 DIIS: error= 2.69D-05 at cycle   1 NSaved=   1.
 NSaved= 1 IEnMin= 1 EnMin= -764.667157112849     IErMin= 1 ErrMin= 2.69D-05
 ErrMax= 2.69D-05  0.00D+00 EMaxC= 1.00D-01 BMatC= 1.02D-06 BMatP= 1.02D-06
 IDIUse=1 WtCom= 1.00D+00 WtEn= 0.00D+00
 Coeff-Com:  0.100D+01
 Coeff:      0.100D+01
 Gap=     0.399 Goal=   None    Shift=    0.000
 RMSDP=7.27D-06 MaxDP=3.54D-04 DE=-1.21D-05 OVMax= 2.66D-04

 Cycle   8  Pass 1  IDiag  1:
 E= -764.667157729599     Delta-E=       -0.000000616750 Rises=F Damp=F
 DIIS: error= 2.93D-05 at cycle   2 NSaved=   2.
 NSaved= 2 IEnMin= 2 EnMin= -764.667157729599     IErMin= 1 ErrMin= 2.69D-05
 ErrMax= 2.93D-05  0.00D+00 EMaxC= 1.00D-01 BMatC= 5.24D-07 BMatP= 1.02D-06
 IDIUse=1 WtCom= 1.00D+00 WtEn= 0.00D+00
 Coeff-Com:  0.393D+00 0.607D+00
 Coeff:      0.393D+00 0.607D+00
 Gap=     0.399 Goal=   None    Shift=    0.000
 RMSDP=1.37D-06 MaxDP=5.58D-05 DE=-6.17D-07 OVMax= 1.68D-04

 Cycle   9  Pass 1  IDiag  1:
 E= -764.667158008191     Delta-E=       -0.000000278592 Rises=F Damp=F
 DIIS: error= 9.32D-06 at cycle   3 NSaved=   3.
 NSaved= 3 IEnMin= 3 EnMin= -764.667158008191     IErMin= 3 ErrMin= 9.32D-06
 ErrMax= 9.32D-06  0.00D+00 EMaxC= 1.00D-01 BMatC= 7.12D-08 BMatP= 5.24D-07
 IDIUse=1 WtCom= 1.00D+00 WtEn= 0.00D+00
 Coeff-Com: -0.400D-01 0.239D+00 0.801D+00
 Coeff:     -0.400D-01 0.239D+00 0.801D+00
 Gap=     0.399 Goal=   None    Shift=    0.000
 RMSDP=9.89D-07 MaxDP=4.29D-05 DE=-2.79D-07 OVMax= 8.21D-05

 Cycle  10  Pass 1  IDiag  1:
 E= -764.667158054632     Delta-E=       -0.000000046441 Rises=F Damp=F
 DIIS: error= 6.61D-06 at cycle   4 NSaved=   4.
 NSaved= 4 IEnMin= 4 EnMin= -764.667158054632     IErMin= 4 ErrMin= 6.61D-06
 ErrMax= 6.61D-06  0.00D+00 EMaxC= 1.00D-01 BMatC= 8.90D-09 BMatP= 7.12D-08
 IDIUse=1 WtCom= 1.00D+00 WtEn= 0.00D+00
 Coeff-Com: -0.349D-01 0.933D-01 0.386D+00 0.555D+00
 Coeff:     -0.349D-01 0.933D-01 0.386D+00 0.555D+00
 Gap=     0.399 Goal=   None    Shift=    0.000
 RMSDP=2.07D-07 MaxDP=1.63D-05 DE=-4.64D-08 OVMax= 5.29D-05

 Cycle  11  Pass 1  IDiag  1:
 E= -764.667158061580     Delta-E=       -0.000000006949 Rises=F Damp=F
 DIIS: error= 1.66D-06 at cycle   5 NSaved=   5.
 NSaved= 5 IEnMin= 5 EnMin= -764.667158061580     IErMin= 5 ErrMin= 1.66D-06
 ErrMax= 1.66D-06  0.00D+00 EMaxC= 1.00D-01 BMatC= 1.60D-09 BMatP= 8.90D-09
 IDIUse=1 WtCom= 1.00D+00 WtEn= 0.00D+00
 Coeff-Com: -0.684D-04-0.371D-01-0.120D+00 0.242D+00 0.914D+00
 Coeff:     -0.684D-04-0.371D-01-0.120D+00 0.242D+00 0.914D+00
 Gap=     0.399 Goal=   None    Shift=    0.000
 RMSDP=1.77D-07 MaxDP=1.02D-05 DE=-6.95D-09 OVMax= 1.93D-05

 Cycle  12  Pass 1  IDiag  1:
 E= -764.667158063122     Delta-E=       -0.000000001542 Rises=F Damp=F
 DIIS: error= 2.52D-07 at cycle   6 NSaved=   6.
 NSaved= 6 IEnMin= 6 EnMin= -764.667158063122     IErMin= 6 ErrMin= 2.52D-07
 ErrMax= 2.52D-07  0.00D+00 EMaxC= 1.00D-01 BMatC= 7.75D-11 BMatP= 1.60D-09
 IDIUse=1 WtCom= 1.00D+00 WtEn= 0.00D+00
 Coeff-Com:  0.260D-02-0.207D-01-0.762D-01 0.641D-01 0.322D+00 0.709D+00
 Coeff:      0.260D-02-0.207D-01-0.762D-01 0.641D-01 0.322D+00 0.709D+00
 Gap=     0.399 Goal=   None    Shift=    0.000
 RMSDP=3.20D-08 MaxDP=1.10D-06 DE=-1.54D-09 OVMax= 4.66D-06

 Cycle  13  Pass 1  IDiag  1:
 E= -764.667158063215     Delta-E=       -0.000000000092 Rises=F Damp=F
 DIIS: error= 1.16D-07 at cycle   7 NSaved=   7.
 NSaved= 7 IEnMin= 7 EnMin= -764.667158063215     IErMin= 7 ErrMin= 1.16D-07
 ErrMax= 1.16D-07  0.00D+00 EMaxC= 1.00D-01 BMatC= 1.21D-11 BMatP= 7.75D-11
 IDIUse=1 WtCom= 1.00D+00 WtEn= 0.00D+00
 Coeff-Com:  0.121D-02-0.521D-02-0.216D-01 0.473D-02 0.348D-01 0.301D+00
 Coeff-Com:  0.685D+00
 Coeff:      0.121D-02-0.521D-02-0.216D-01 0.473D-02 0.348D-01 0.301D+00
 Coeff:      0.685D+00
 Gap=     0.399 Goal=   None    Shift=    0.000
 RMSDP=9.54D-09 MaxDP=3.82D-07 DE=-9.23D-11 OVMax= 1.05D-06

 SCF Done:  E(RM062X) =  -764.667158063     A.U. after   13 cycles
            NFock= 13  Conv=0.95D-08     -V/T= 2.0036
 KE= 7.619077955731D+02 PE=-3.095687131621D+03 EE= 9.275173788264D+02
 Leave Link  502 at Sat May 24 04:08:05 2025, MaxMem=  3758096384 cpu:             110.7 elap:              26.6
 (Enter /apps/easybuild-2022/easybuild/software/Compiler/NVHPC/22.11-CUDA-11.7.0/Gaussian/g16c01-CUDA-11.7.0/g16/l508.exe)
 QCSCF skips out because SCF is already converged.
 Leave Link  508 at Sat May 24 04:08:05 2025, MaxMem=  3758096384 cpu:               0.1 elap:               0.0
 (Enter /apps/easybuild-2022/easybuild/software/Compiler/NVHPC/22.11-CUDA-11.7.0/Gaussian/g16c01-CUDA-11.7.0/g16/l801.exe)
 DoSCS=F DFT=T ScalE2(SS,OS)=  1.000000  1.000000
 Range of M.O.s used for correlation:     1   324
 NBasis=   324 NAE=    40 NBE=    40 NFC=     0 NFV=     0
 NROrb=    324 NOA=    40 NOB=    40 NVA=   284 NVB=   284

 **** Warning!!: The largest alpha MO coefficient is  0.14077963D+02

 Leave Link  801 at Sat May 24 04:08:05 2025, MaxMem=  3758096384 cpu:               0.1 elap:               0.0
 (Enter /apps/easybuild-2022/easybuild/software/Compiler/NVHPC/22.11-CUDA-11.7.0/Gaussian/g16c01-CUDA-11.7.0/g16/l1101.exe)
 Using compressed storage, NAtomX=    11.
 Will process     12 centers per pass.
   1 Symmetry operations used in ECPInt.
 ECPInt:  NShTT=    6786 NPrTT=   21959 LenC2=    6488 LenP2D=   16026.
 LDataN:  DoStor=T MaxTD1= 7 Len=  274
 Leave Link 1101 at Sat May 24 04:08:05 2025, MaxMem=  3758096384 cpu:               1.0 elap:               0.2
 (Enter /apps/easybuild-2022/easybuild/software/Compiler/NVHPC/22.11-CUDA-11.7.0/Gaussian/g16c01-CUDA-11.7.0/g16/l1102.exe)
 Symmetrizing basis deriv contribution to polar:
 IMax=3 JMax=2 DiffMx= 0.00D+00
 Leave Link 1102 at Sat May 24 04:08:05 2025, MaxMem=  3758096384 cpu:               0.1 elap:               0.0
 (Enter /apps/easybuild-2022/easybuild/software/Compiler/NVHPC/22.11-CUDA-11.7.0/Gaussian/g16c01-CUDA-11.7.0/g16/l1110.exe)
 Forming Gx(P) for the SCF density, NAtomX=    11.
 Integral derivatives from FoFJK, PRISM(SPDF).
 Do as many integral derivatives as possible in FoFJK.
 G2DrvN: MDV=    3758095115.
 G2DrvN: will do    12 centers at a time, making    1 passes.
 Calling FoFCou, ICntrl=  3107 FMM=F I1Cent=   0 AccDes= 0.00D+00.
 FoFJK:  IHMeth= 1 ICntrl=    3107 DoSepK=F KAlg= 0 I1Cent=           0 FoldK=F
 IRaf=         0 NMat=       1 IRICut=       1 DoRegI=T DoRafI=F ISym2E= 0 IDoP0=0 IntGTp=1.
 FoFCou: FMM=F IPFlag=           0 FMFlag=      100000 FMFlg1=           0
         NFxFlg=           0 DoJE=F BraDBF=F KetDBF=F FulRan=T
         wScrn=  0.000000 ICntrl=      3107 IOpCl=  0 I1Cent=           0 NGrid=           0
         NMat0=    1 NMatS0=      1 NMatT0=    0 NMatD0=    1 NMtDS0=    0 NMtDT0=    0
 Symmetry not used in FoFCou.
 End of G2Drv F.D. properties file   721 does not exist.
 End of G2Drv F.D. properties file   722 does not exist.
 End of G2Drv F.D. properties file   788 does not exist.
 Leave Link 1110 at Sat May 24 04:08:44 2025, MaxMem=  3758096384 cpu:             308.9 elap:              38.9
 (Enter /apps/easybuild-2022/easybuild/software/Compiler/NVHPC/22.11-CUDA-11.7.0/Gaussian/g16c01-CUDA-11.7.0/g16/l1002.exe)
 Minotr:  Closed shell wavefunction.
          IDoAtm=11111111111
          Direct CPHF calculation.
          Differentiating once with respect to nuclear coordinates.
          Requested convergence is 1.0D-08 RMS, and 1.0D-07 maximum.
          Secondary convergence is 1.0D-12 RMS, and 1.0D-12 maximum.
          NewPWx=T KeepS1=F KeepF1=F KeepIn=T MapXYZ=F SortEE=F KeepMc=T.
         3300 words used for storage of precomputed grid.
 Keep R1 ints in memory in canonical form, NReq=1412622530.
 FoFCou: FMM=F IPFlag=           0 FMFlag=           0 FMFlg1=           0
         NFxFlg=           0 DoJE=F BraDBF=F KetDBF=F FulRan=T
         wScrn=  0.000000 ICntrl=       600 IOpCl=  0 I1Cent=           0 NGrid=           0
         NMat0=    1 NMatS0=  52650 NMatT0=    0 NMatD0=    1 NMtDS0=    0 NMtDT0=    0
 Symmetry not used in FoFCou.
 Two-electron integral symmetry not used.
          MDV=    3758096384 using IRadAn=       1.
          Solving linear equations simultaneously, MaxMat=       0.
          There are    36 degrees of freedom in the 1st order CPHF.  IDoFFX=6 NUNeed=     0.
     30 vectors produced by pass  0 Test12= 3.16D-14 2.78D-09 XBig12= 1.37D-01 7.47D-02.
 AX will form    30 AO Fock derivatives at one time.
     30 vectors produced by pass  1 Test12= 3.16D-14 2.78D-09 XBig12= 3.07D-02 7.82D-02.
     30 vectors produced by pass  2 Test12= 3.16D-14 2.78D-09 XBig12= 1.33D-03 7.87D-03.
     30 vectors produced by pass  3 Test12= 3.16D-14 2.78D-09 XBig12= 3.19D-05 1.08D-03.
     30 vectors produced by pass  4 Test12= 3.16D-14 2.78D-09 XBig12= 4.60D-07 1.16D-04.
     30 vectors produced by pass  5 Test12= 3.16D-14 2.78D-09 XBig12= 3.72D-09 1.37D-05.
     30 vectors produced by pass  6 Test12= 3.16D-14 2.78D-09 XBig12= 2.40D-11 5.26D-07.
     13 vectors produced by pass  7 Test12= 3.16D-14 2.78D-09 XBig12= 1.29D-13 4.21D-08.
      1 vectors produced by pass  8 Test12= 3.16D-14 2.78D-09 XBig12= 8.09D-16 2.91D-09.
 InvSVY:  IOpt=1 It=  1 EMax= 1.44D-15
 Solved reduced A of dimension   224 with    30 vectors.
 End of Minotr F.D. properties file   721 does not exist.
 End of Minotr F.D. properties file   722 does not exist.
 End of Minotr F.D. properties file   788 does not exist.
 Leave Link 1002 at Sat May 24 04:09:46 2025, MaxMem=  3758096384 cpu:             465.3 elap:              62.3
 (Enter /apps/easybuild-2022/easybuild/software/Compiler/NVHPC/22.11-CUDA-11.7.0/Gaussian/g16c01-CUDA-11.7.0/g16/l701.exe)
 ... and contract with generalized density number  0.
 Compute integral second derivatives.
   1 Symmetry operations used in ECPInt.
 ECPInt:  NShTT=    6786 NPrTT=   21959 LenC2=    6488 LenP2D=   16026.
 LDataN:  DoStor=T MaxTD1= 8 Len=  415
 Leave Link  701 at Sat May 24 04:09:47 2025, MaxMem=  3758096384 cpu:               1.0 elap:               0.2
 (Enter /apps/easybuild-2022/easybuild/software/Compiler/NVHPC/22.11-CUDA-11.7.0/Gaussian/g16c01-CUDA-11.7.0/g16/l702.exe)
 L702 exits ... SP integral derivatives will be done elsewhere.
 Leave Link  702 at Sat May 24 04:09:47 2025, MaxMem=  3758096384 cpu:               0.1 elap:               0.1
 (Enter /apps/easybuild-2022/easybuild/software/Compiler/NVHPC/22.11-CUDA-11.7.0/Gaussian/g16c01-CUDA-11.7.0/g16/l703.exe)
 Integral derivatives from FoFJK, PRISM(SPDF).
 Compute integral second derivatives, UseDBF=F ICtDFT=           0.
 Calling FoFJK, ICntrl=    100127 FMM=F ISym2X=0 I1Cent= 0 IOpClX= 0 NMat=1 NMatS=1 NMatT=0.
 FoFJK:  IHMeth= 1 ICntrl=  100127 DoSepK=F KAlg= 0 I1Cent=           0 FoldK=F
 IRaf=         0 NMat=       1 IRICut=       1 DoRegI=T DoRafI=F ISym2E= 0 IDoP0=0 IntGTp=1.
 FoFCou: FMM=F IPFlag=           0 FMFlag=      100000 FMFlg1=         800
         NFxFlg=           0 DoJE=F BraDBF=F KetDBF=F FulRan=T
         wScrn=  0.000000 ICntrl=    100127 IOpCl=  0 I1Cent=           0 NGrid=           0
         NMat0=    1 NMatS0=      1 NMatT0=    0 NMatD0=    1 NMtDS0=    0 NMtDT0=    0
 Symmetry not used in FoFCou.
 Leave Link  703 at Sat May 24 04:11:29 2025, MaxMem=  3758096384 cpu:             731.2 elap:             102.5
 (Enter /apps/easybuild-2022/easybuild/software/Compiler/NVHPC/22.11-CUDA-11.7.0/Gaussian/g16c01-CUDA-11.7.0/g16/l716.exe)
 Dipole        = 6.81659345D-01 6.05867164D-01 1.97778611D-01
 Polarizability= 0.00000000D+00 0.00000000D+00 0.00000000D+00
                 0.00000000D+00 0.00000000D+00 0.00000000D+00
 -------------------------------------------------------------------
 Center     Atomic                   Forces (Hartrees/Bohr)
 Number     Number              X              Y              Z
 -------------------------------------------------------------------
      1        6           0.000160405   -0.000259441   -0.000215042
      2        8          -0.000029811   -0.000513750   -0.000316735
      3        6           0.000242549   -0.000130697    0.000119372
      4        6          -0.000176699   -0.000183509    0.000592944
      5        9          -0.000144949   -0.001231011    0.000620766
      6        9          -0.001110362    0.001518473    0.002806235
      7        9          -0.000593997   -0.000147526   -0.000095770
      8        9           0.001210899    0.000607775    0.000239766
      9        9          -0.000059118    0.000253330   -0.002210246
     10        8           0.000398301    0.000069238   -0.001403274
     11        1           0.000102781    0.000017116   -0.000138017
 -------------------------------------------------------------------
 Cartesian Forces:  Max     0.002806235 RMS     0.000848148
 Force constants in Cartesian coordinates: 
                1             2             3             4             5 
      1  0.748265D+00
      2 -0.172322D+00  0.827712D+00
      3 -0.124364D+00  0.296217D+00  0.380018D+00
      4 -0.341238D+00  0.285966D+00  0.157832D+00  0.331007D+00
      5  0.299282D+00 -0.494978D+00 -0.222919D+00 -0.333332D+00  0.577839D+00
      6  0.163813D+00 -0.220979D+00 -0.193081D+00 -0.182709D+00  0.286587D+00
      7 -0.181812D+00 -0.107866D-01  0.205974D-01 -0.194669D-01  0.136762D-01
      8 -0.133791D-01 -0.542897D-01  0.261006D-02  0.358328D-01 -0.123113D-01
      9 -0.660826D-02  0.210446D-03 -0.899488D-01  0.330527D-01 -0.178124D-01
     10 -0.883733D-02  0.172505D-01  0.336289D-01 -0.488075D-02 -0.121707D-02
     11  0.118191D-01  0.183306D-01  0.557138D-02 -0.479942D-02 -0.396860D-02
     12  0.273091D-01  0.306517D-02  0.119001D-01 -0.141138D-01  0.463303D-02
     13  0.804955D-02  0.101250D-02  0.452699D-02 -0.541554D-02  0.268126D-02
     14 -0.155835D-02 -0.233929D-02 -0.164718D-02  0.946860D-03  0.579062D-03
     15 -0.676799D-02 -0.310530D-02 -0.645474D-02  0.481330D-02 -0.134120D-02
     16 -0.115365D-02 -0.136027D-02 -0.334899D-02  0.134740D-02 -0.468138D-03
     17  0.526746D-03 -0.309529D-02 -0.332373D-04 -0.102743D-02  0.173818D-02
     18 -0.590401D-02 -0.662029D-03 -0.132488D-02  0.335745D-02 -0.106585D-02
     19 -0.125993D-02 -0.468244D-02 -0.372096D-02  0.594343D-03  0.150038D-02
     20 -0.606055D-02 -0.605622D-02 -0.368278D-02  0.218513D-02  0.194457D-02
     21 -0.400423D-02 -0.101075D-03 -0.165534D-02  0.178555D-02 -0.219596D-03
     22 -0.670738D-02  0.279977D-01 -0.404917D-01 -0.622957D-02 -0.835698D-03
     23  0.520022D-02 -0.767365D-02  0.121129D-01  0.258130D-02  0.175552D-02
     24 -0.150642D-02  0.117971D-01 -0.886577D-02 -0.669942D-02  0.126568D-02
     25 -0.138809D-01 -0.436724D-01 -0.796229D-02  0.141326D-02 -0.194968D-02
     26 -0.483145D-02 -0.296922D-01 -0.752870D-02  0.745649D-03  0.848260D-02
     27  0.330820D-02 -0.416344D-02  0.511513D-02 -0.733286D-03  0.325097D-02
     28 -0.174875D+00 -0.877130D-01 -0.336126D-01  0.412643D-01  0.124972D-01
     29 -0.658759D-01 -0.248666D+00 -0.831097D-01  0.372920D-02 -0.818335D-01
     30 -0.220838D-01 -0.812928D-01 -0.101498D+00  0.692647D-03 -0.549293D-01
     31 -0.265497D-01 -0.116900D-01 -0.308480D-02  0.160435D-02  0.816498D-02
     32 -0.528008D-01  0.747485D-03  0.240931D-02  0.717122D-02  0.752752D-03
     33 -0.231913D-01 -0.985873D-03  0.579548D-02  0.272118D-02  0.255039D-02
                6             7             8             9            10 
      6  0.180018D+00
      7  0.560200D-02  0.564527D+00
      8 -0.139651D-01  0.180168D-01  0.578826D+00
      9  0.113264D-01  0.224738D-01  0.281858D-01  0.566128D+00
     10 -0.306865D-02 -0.884116D-01  0.216816D-01  0.697055D-01  0.604017D+00
     11 -0.106968D-02  0.100677D-01 -0.536216D-01 -0.445203D-01 -0.555183D-02
     12 -0.569300D-03  0.384876D-01 -0.502452D-01 -0.169940D+00 -0.216175D-01
     13  0.726607D-03 -0.518318D-01 -0.804613D-02 -0.145659D-02 -0.314986D+00
     14  0.263855D-03  0.656539D-02  0.219251D-02 -0.184514D-02 -0.236685D-01
     15  0.172591D-03  0.384548D-01  0.411940D-02  0.904056D-03  0.307110D-01
     16  0.481354D-03  0.525624D-02  0.221607D-02 -0.726054D-03 -0.104658D+00
     17  0.201232D-03  0.566218D-02 -0.462462D-02  0.477942D-02  0.400733D-01
     18 -0.231130D-03 -0.239744D-01  0.360611D-01 -0.305185D-01 -0.560577D-01
     19  0.846574D-03  0.837733D-02  0.535684D-02 -0.143245D-02 -0.822037D-01
     20  0.964223D-03 -0.807349D-02 -0.323541D-01  0.459261D-02 -0.304927D-01
     21  0.204705D-03 -0.766967D-02 -0.289334D-01  0.521886D-02 -0.359354D-02
     22  0.730445D-02 -0.122669D+00  0.518389D-01 -0.863679D-01  0.888413D-03
     23 -0.223612D-02  0.537206D-01 -0.124069D+00  0.950547D-01  0.210658D-02
     24  0.319260D-02 -0.763533D-01  0.813356D-01 -0.218002D+00 -0.291111D-01
     25 -0.143679D-02 -0.107678D+00 -0.768842D-01 -0.168390D-01  0.448350D-04
     26  0.198603D-02 -0.869013D-01 -0.287591D+00 -0.601784D-01 -0.170894D-01
     27  0.468400D-03 -0.156853D-01 -0.501289D-01 -0.869234D-01 -0.157490D-01
     28  0.506404D-02 -0.771781D-02 -0.341801D-01 -0.114131D-01 -0.166743D-03
     29 -0.543594D-01 -0.149498D-02 -0.856380D-02 -0.431270D-02 -0.230579D-02
     30  0.333192D-02 -0.175178D-02 -0.518615D-02  0.800748D-02 -0.429424D-02
     31  0.337599D-02  0.142670D-02 -0.245355D-02 -0.388718D-03 -0.805664D-03
     32  0.260689D-02 -0.452460D-03 -0.359388D-02 -0.415414D-02 -0.786769D-03
     33 -0.483327D-02 -0.181167D-03 -0.385324D-02  0.374734D-02 -0.553716D-03
               11            12            13            14            15 
     11  0.609415D+00
     12  0.220425D-01  0.622140D+00
     13 -0.199473D-01  0.396522D-01  0.446298D+00
     14 -0.784731D-01  0.149709D-02  0.509017D-01  0.915499D-01
     15 -0.819542D-03 -0.886457D-01 -0.841414D-02 -0.135405D-02  0.729195D-01
     16  0.403518D-01 -0.627866D-01 -0.565148D-01  0.283298D-01 -0.473647D-01
     17 -0.130235D+00  0.916381D-01  0.201222D-01  0.822394D-02  0.664029D-02
     18  0.821950D-01 -0.234057D+00 -0.319186D-01  0.645041D-02  0.268657D-02
     19 -0.343832D-01 -0.559595D-02 -0.360024D-01 -0.641510D-01 -0.122057D-01
     20 -0.303982D+00 -0.722225D-01 -0.472619D-01 -0.286339D-01 -0.515560D-02
     21 -0.617999D-01 -0.104625D+00 -0.633864D-02 -0.218079D-02  0.143719D-01
     22  0.236727D-02  0.222287D-02  0.631083D-02 -0.111715D-02 -0.624841D-03
     23 -0.583130D-02  0.488236D-02 -0.155296D-02  0.151698D-02 -0.335159D-03
     24  0.356815D-01 -0.312738D-01  0.313617D-02 -0.225639D-02  0.224547D-02
     25  0.176834D-02  0.310557D-02  0.514701D-02  0.339011D-02 -0.405048D-05
     26 -0.440097D-01 -0.845620D-03  0.221361D-02  0.421642D-02 -0.267896D-04
     27 -0.334209D-01 -0.146697D-03  0.257441D-03  0.350116D-03  0.425002D-03
     28 -0.193709D-02 -0.692528D-02 -0.151523D-02  0.358623D-03  0.153736D-02
     29 -0.718540D-02 -0.444275D-02 -0.581452D-03  0.112892D-02  0.144918D-02
     30 -0.302224D-02 -0.530473D-02 -0.827936D-04  0.623608D-03  0.140591D-02
     31  0.244620D-03  0.261809D-03  0.460401D-03  0.250098D-05 -0.135110D-03
     32 -0.438196D-03 -0.202512D-05  0.458466D-03  0.384711D-04 -0.712274D-04
     33 -0.837784D-03  0.521418D-03 -0.885762D-04  0.984839D-04 -0.305312D-04
               16            17            18            19            20 
     16  0.140766D+00
     17 -0.808417D-01  0.188341D+00
     18  0.110558D+00 -0.145227D+00  0.267896D+00
     19  0.120485D-01  0.174344D-01 -0.106649D-02  0.104277D+00
     20  0.116740D-01 -0.688636D-01  0.256477D-01  0.730904D-01  0.432805D+00
     21 -0.100461D-02  0.415633D-01  0.112235D-01  0.136916D-01  0.599859D-01
     22  0.151470D-02 -0.118374D-02  0.216946D-02  0.548392D-03 -0.968852D-03
     23 -0.153757D-03  0.166988D-02 -0.449938D-03 -0.527974D-03  0.594370D-02
     24  0.170766D-02  0.541865D-03 -0.159703D-01  0.171119D-02 -0.382784D-02
     25  0.880143D-03 -0.264906D-03  0.324196D-03  0.625611D-03  0.227393D-02
     26  0.208512D-03  0.591667D-02 -0.408528D-02  0.263635D-02 -0.522241D-02
     27  0.868040D-03 -0.901634D-03 -0.145392D-03  0.257770D-02 -0.766768D-02
     28  0.178926D-03 -0.495326D-03  0.263980D-02 -0.717605D-02  0.357152D-02
     29 -0.168586D-03  0.101548D-02  0.102871D-02  0.286137D-02  0.430622D-02
     30  0.183509D-02  0.514642D-03  0.885040D-03  0.448698D-02  0.115080D-02
     31  0.333787D-03 -0.574074D-05 -0.127572D-03  0.171060D-03  0.624691D-04
     32  0.212240D-03 -0.865511D-04  0.107248D-03  0.864878D-03  0.112855D-03
     33 -0.219142D-03  0.283109D-03 -0.443951D-03  0.707496D-03  0.215201D-03
               21            22            23            24            25 
     21  0.821877D-01
     22  0.153333D-03  0.114000D+00
     23  0.285002D-04 -0.760787D-01  0.186206D+00
     24  0.757469D-03  0.105251D+00 -0.150223D+00  0.260075D+00
     25  0.123435D-02  0.161258D-01  0.106486D-01  0.458252D-02  0.109836D+00
     26 -0.865686D-02  0.238412D-02 -0.634880D-01  0.282090D-01  0.108249D+00
     27 -0.765481D-02  0.753348D-02  0.411825D-01  0.717399D-02  0.178064D-01
     28  0.574758D-02 -0.413517D-02  0.357014D-02 -0.267162D-02 -0.124360D-01
     29  0.731612D-03 -0.375015D-02  0.335380D-02 -0.243767D-02 -0.205686D-02
     30  0.176203D-03  0.154697D-02  0.969355D-04  0.763994D-03  0.205706D-03
     31 -0.170412D-05  0.352576D-03  0.485923D-03 -0.463600D-04 -0.769328D-04
     32 -0.417719D-03 -0.653681D-03  0.615241D-03 -0.854981D-04 -0.150149D-02
     33 -0.205382D-03  0.130317D-02 -0.113353D-03 -0.966526D-04 -0.101662D-02
               26            27            28            29            30 
     26  0.410698D+00
     27  0.505034D-01  0.808793D-01
     28 -0.752713D-02 -0.113221D-03  0.662283D+00
     29  0.171497D-02  0.855780D-03  0.703195D-01  0.374188D+00
     30  0.115285D-02  0.890310D-03 -0.202767D-01  0.155673D+00  0.118331D+00
     31 -0.875210D-04 -0.704457D-04 -0.495704D+00 -0.676364D-03  0.397219D-01
     32 -0.102521D-02  0.139806D-03  0.415357D-01 -0.394584D-01 -0.147819D-01
     33 -0.529598D-03 -0.818108D-04  0.600236D-01 -0.110766D-01 -0.269893D-01
               31            32            33 
     31  0.518788D+00
     32  0.595269D-02  0.423354D-01
     33 -0.395049D-01  0.142493D-01  0.226167D-01
 FormGI is forming the generalized inverse of G from B-inverse, IUseBI=4.
 GSVD:  received Info=                   1 from GESDD.
 Leave Link  716 at Sat May 24 04:11:29 2025, MaxMem=  3758096384 cpu:               0.1 elap:               0.1
 (Enter /apps/easybuild-2022/easybuild/software/Compiler/NVHPC/22.11-CUDA-11.7.0/Gaussian/g16c01-CUDA-11.7.0/g16/l103.exe)

 GradGradGradGradGradGradGradGradGradGradGradGradGradGradGradGradGradGrad
 Berny optimization.
 Red2BG is reusing G-inverse.
 Internal  Forces:  Max     0.005840559 RMS     0.001724490
 Search for a local minimum.
 Step number   1 out of a maximum of   53
 All quantities printed in internal units (Hartrees-Bohrs-Radians)
 RMS Force = .17245D-02 SwitMx=.10000D-02 MixMth= 1
 Mixed Optimization -- RFO/linear search
 Second derivative matrix not updated -- analytic derivatives used.
 ITU=  0
     Eigenvalues ---   -0.00011   0.00440   0.01851   0.04533   0.05874
     Eigenvalues ---    0.09868   0.10232   0.10997   0.14646   0.15543
     Eigenvalues ---    0.16444   0.19709   0.22057   0.23905   0.24618
     Eigenvalues ---    0.25934   0.28359   0.35532   0.39594   0.41426
     Eigenvalues ---    0.41715   0.42814   0.45596   0.51482   0.52911
     Eigenvalues ---    0.58603   0.98111
 Eigenvalue     1 is  -1.06D-04 should be greater than     0.000000 Eigenvector:
                          D2        D1        D5        D4        D3
   1                   -0.42161  -0.41757  -0.40829  -0.40425  -0.40328
                          D6        A4        A3        A5        A1
   1                   -0.38996  -0.03141  -0.02060   0.01785   0.01743
 RFO step:  Lambda=-1.44586301D-03 EMin=-1.05771778D-04
 Linear search not attempted -- first point.
 Iteration  1 RMS(Cart)=  0.08929513 RMS(Int)=  0.07928840
 Iteration  2 RMS(Cart)=  0.09735390 RMS(Int)=  0.00743550
 Iteration  3 RMS(Cart)=  0.00939820 RMS(Int)=  0.00006827
 Iteration  4 RMS(Cart)=  0.00007247 RMS(Int)=  0.00004245
 Iteration  5 RMS(Cart)=  0.00000000 RMS(Int)=  0.00004245
 ITry= 1 IFail=0 DXMaxC= 7.45D-01 DCOld= 1.00D+10 DXMaxT= 3.00D-01 DXLimC= 3.00D+00 Rises=F
 Variable       Old X    -DE/DX   Delta X   Delta X   Delta X     New X
                                 (Linear)    (Quad)   (Total)
    R1        2.24351   0.00050   0.00000  -0.00053  -0.00053   2.24298
    R2        2.92140   0.00073   0.00000  -0.00447  -0.00447   2.91693
    R3        2.51298  -0.00033   0.00000   0.00037   0.00037   2.51335
    R4        2.90783   0.00417   0.00000   0.01031   0.01031   2.91814
    R5        2.53811  -0.00029   0.00000   0.00136   0.00136   2.53946
    R6        2.51916   0.00006   0.00000  -0.00484  -0.00484   2.51431
    R7        2.50218   0.00032   0.00000  -0.00132  -0.00132   2.50086
    R8        2.51549   0.00069   0.00000   0.00036   0.00036   2.51585
    R9        2.49843  -0.00027   0.00000   0.00063   0.00063   2.49906
   R10        1.82820   0.00011   0.00000  -0.00015  -0.00015   1.82805
    A1        2.14031  -0.00116   0.00000   0.01619   0.01618   2.15649
    A2        2.20456  -0.00040   0.00000   0.00572   0.00572   2.21028
    A3        1.93826   0.00156   0.00000  -0.02196  -0.02196   1.91630
    A4        1.98436   0.00559   0.00000  -0.01460  -0.01464   1.96972
    A5        1.91251  -0.00229   0.00000   0.00204   0.00189   1.91441
    A6        1.89492  -0.00233   0.00000   0.00610   0.00615   1.90107
    A7        1.89970  -0.00146   0.00000  -0.00750  -0.00757   1.89213
    A8        1.86605   0.00013   0.00000   0.01324   0.01329   1.87935
    A9        1.90461   0.00029   0.00000   0.00149   0.00150   1.90611
   A10        1.91717  -0.00079   0.00000   0.00153   0.00148   1.91865
   A11        1.87716   0.00584   0.00000   0.02126   0.02127   1.89843
   A12        1.96206  -0.00055   0.00000  -0.01663  -0.01659   1.94547
   A13        1.90733  -0.00246   0.00000  -0.00466  -0.00475   1.90258
   A14        1.89130   0.00015   0.00000   0.00750   0.00749   1.89878
   A15        1.90836  -0.00230   0.00000  -0.00904  -0.00895   1.89942
   A16        1.89130  -0.00007   0.00000   0.00289   0.00289   1.89418
    D1        2.37924   0.00050   0.00000  -0.39774  -0.39774   1.98150
    D2       -1.77398   0.00080   0.00000  -0.41607  -0.41607  -2.19005
    D3        0.30473  -0.00156   0.00000  -0.40946  -0.40945  -0.10472
    D4       -0.77314  -0.00038   0.00000  -0.40232  -0.40233  -1.17547
    D5        1.35683  -0.00008   0.00000  -0.42066  -0.42067   0.93617
    D6       -2.84765  -0.00244   0.00000  -0.41404  -0.41404   3.02150
    D7        0.01110  -0.00035   0.00000  -0.00167  -0.00166   0.00944
    D8       -3.11922   0.00057   0.00000   0.00305   0.00304  -3.11618
    D9       -3.03488   0.00008   0.00000   0.06396   0.06399  -2.97090
   D10       -0.96072   0.00012   0.00000   0.07168   0.07178  -0.88894
   D11        1.14091   0.00081   0.00000   0.06444   0.06446   1.20538
   D12        1.11125   0.00028   0.00000   0.07684   0.07678   1.18803
   D13       -3.09777   0.00032   0.00000   0.08456   0.08457  -3.01320
   D14       -0.99613   0.00101   0.00000   0.07733   0.07726  -0.91888
   D15       -0.94393   0.00063   0.00000   0.07178   0.07176  -0.87218
   D16        1.13023   0.00067   0.00000   0.07950   0.07954   1.20978
   D17       -3.05132   0.00136   0.00000   0.07227   0.07223  -2.97909
         Item               Value     Threshold  Converged?
 Maximum Force            0.005841     0.000450     NO 
 RMS     Force            0.001724     0.000300     NO 
 Maximum Displacement     0.744733     0.001800     NO 
 RMS     Displacement     0.184844     0.001200     NO 
 Predicted change in Energy=-1.399918D-03
 Lowest energy point so far.  Saving SCF results.
 GradGradGradGradGradGradGradGradGradGradGradGradGradGradGradGradGradGrad

 Leave Link  103 at Sat May 24 04:11:29 2025, MaxMem=  3758096384 cpu:               0.1 elap:               0.1
 (Enter /apps/easybuild-2022/easybuild/software/Compiler/NVHPC/22.11-CUDA-11.7.0/Gaussian/g16c01-CUDA-11.7.0/g16/l202.exe)
                          Input orientation:                          
 ---------------------------------------------------------------------
 Center     Atomic      Atomic             Coordinates (Angstroms)
 Number     Number       Type             X           Y           Z
 ---------------------------------------------------------------------
      1          6           0        1.408969   -0.221542   -0.572347
      2          8           0        2.039992   -1.215749   -0.721278
      3          6           0       -0.134111   -0.183801   -0.562145
      4          6           0       -0.715580    0.201829    0.815451
      5          9           0       -2.025571    0.013993    0.820789
      6          9           0       -0.162573   -0.573163    1.746050
      7          9           0       -0.465373    1.466657    1.109509
      8          9           0       -0.571265    0.704287   -1.471027
      9          9           0       -0.597343   -1.391868   -0.872418
     10          8           0        1.890670    1.007683   -0.411440
     11          1           0        2.856595    0.966001   -0.443722
 ---------------------------------------------------------------------
                    Distance matrix (angstroms):
                    1          2          3          4          5
     1  C    0.000000
     2  O    1.186936   0.000000
     3  C    1.543575   2.411838   0.000000
     4  C    2.572729   3.458936   1.544211   0.000000
     5  F    3.713808   4.518743   2.351436   1.323400   0.000000
     6  F    2.822826   3.369260   2.340978   1.331331   2.161394
     7  F    3.031801   4.101699   2.372378   1.322447   2.151235
     8  F    2.363495   3.326758   1.343826   2.345479   2.800702
     9  F    2.342006   2.647527   1.330518   2.324382   2.623591
    10  O    1.330008   2.249876   2.354164   2.991187   4.224069
    11  H    1.876813   2.346041   3.206305   3.863924   5.132334
                    6          7          8          9         10
     6  F    0.000000
     7  F    2.158180   0.000000
     8  F    3.485468   2.692877   0.000000
     9  F    2.777711   3.480893   2.180109   0.000000
    10  O    3.371890   2.841634   2.697387   3.487199   0.000000
    11  H    4.034787   3.701170   3.588046   4.203929   0.967363
                   11
    11  H    0.000000
 Symmetry turned off by external request.
 Stoichiometry    C3HF5O2
 Rotational constants (GHZ):           1.9134164           1.1966653           1.1147969
 Leave Link  202 at Sat May 24 04:11:29 2025, MaxMem=  3758096384 cpu:               0.1 elap:               0.0
 (Enter /apps/easybuild-2022/easybuild/software/Compiler/NVHPC/22.11-CUDA-11.7.0/Gaussian/g16c01-CUDA-11.7.0/g16/l301.exe)
 Standard basis: def2TZVPP (5D, 7F)
 Ernie: Thresh=  0.10000D-02 Tol=  0.10000D-05 Strict=F.
   324 basis functions,   527 primitive gaussians,   375 cartesian basis functions
    40 alpha electrons       40 beta electrons
       nuclear repulsion energy       640.6840573067 Hartrees.
 IExCor= 4336 DFT=T Ex+Corr=M062X ExCW=0 ScaHFX=  0.540000
 ScaDFX=  1.000000  1.000000  1.000000  1.000000 ScalE2=  1.000000  1.000000
 IRadAn=      5 IRanWt=     -1 IRanGd=            0 ICorTp=0 IEmpDi=  4
 NAtoms=   11 NActive=   11 NUniq=   11 SFac= 1.00D+00 NAtFMM=   60 NAOKFM=F Big=F
 Integral buffers will be    131072 words long.
 Raffenetti 2 integral format.
 Two-electron integral symmetry is turned off.
 Leave Link  301 at Sat May 24 04:11:29 2025, MaxMem=  3758096384 cpu:               0.1 elap:               0.1
 (Enter /apps/easybuild-2022/easybuild/software/Compiler/NVHPC/22.11-CUDA-11.7.0/Gaussian/g16c01-CUDA-11.7.0/g16/l302.exe)
 NPDir=0 NMtPBC=     1 NCelOv=     1 NCel=       1 NClECP=     1 NCelD=      1
         NCelK=      1 NCelE2=     1 NClLst=     1 CellRange=     0.0.
 One-electron integrals computed using PRISM.
   1 Symmetry operations used in ECPInt.
 ECPInt:  NShTT=    6786 NPrTT=   21959 LenC2=    6490 LenP2D=   16004.
 LDataN:  DoStor=T MaxTD1= 6 Len=  172
 NBasis=   324 RedAO= T EigKep=  3.11D-04  NBF=   324
 NBsUse=   324 1.00D-06 EigRej= -1.00D+00 NBFU=   324
 Precomputing XC quadrature grid using
 IXCGrd= 4 IRadAn=           5 IRanWt=          -1 IRanGd=           0 AccXCQ= 0.00D+00.
 Generated NRdTot=       0 NPtTot=           0 NUsed=           0 NTot=          32
 NSgBfM=   374   374   374   374   374 MxSgAt=    11 MxSgA2=    11.
 Leave Link  302 at Sat May 24 04:11:30 2025, MaxMem=  3758096384 cpu:               1.2 elap:               0.5
 (Enter /apps/easybuild-2022/easybuild/software/Compiler/NVHPC/22.11-CUDA-11.7.0/Gaussian/g16c01-CUDA-11.7.0/g16/l303.exe)
 DipDrv:  MaxL=1.
 Leave Link  303 at Sat May 24 04:11:30 2025, MaxMem=  3758096384 cpu:               0.2 elap:               0.1
 (Enter /apps/easybuild-2022/easybuild/software/Compiler/NVHPC/22.11-CUDA-11.7.0/Gaussian/g16c01-CUDA-11.7.0/g16/l401.exe)
 Initial guess from the checkpoint file:  "1642764945472630600001_r12_insertion_R_4_3_8_IRC_F_prod.chk"
 B after Tr=    -0.001956   -0.006422    0.030150
         Rot=    0.999881   -0.009879    0.010450    0.005593 Ang=  -1.77 deg.
 Guess basis will be translated and rotated to current coordinates.
 JPrj=2 DoOrth=T DoCkMO=T.
 Generating alternative initial guess.
 ExpMin= 9.52D-02 ExpMax= 3.55D+04 ExpMxC= 1.21D+03 IAcc=3 IRadAn=         5 AccDes= 0.00D+00
 Harris functional with IExCor= 1009 and IRadAn=       5 diagonalized for initial guess.
 HarFok:  IExCor= 1009 AccDes= 0.00D+00 IRadAn=         5 IDoV= 1 UseB2=F ITyADJ=14
 ICtDFT=  3500011 ScaDFX=  1.000000  1.000000  1.000000  1.000000
 FoFCou: FMM=F IPFlag=           0 FMFlag=      100000 FMFlg1=           0
         NFxFlg=           0 DoJE=T BraDBF=F KetDBF=T FulRan=T
         wScrn=  0.000000 ICntrl=       500 IOpCl=  0 I1Cent=   200000004 NGrid=           0
         NMat0=    1 NMatS0=      1 NMatT0=    0 NMatD0=    1 NMtDS0=    0 NMtDT0=    0
 Symmetry not used in FoFCou.
 Harris En= -764.199026918480    
 Leave Link  401 at Sat May 24 04:11:31 2025, MaxMem=  3758096384 cpu:               4.0 elap:               0.8
 (Enter /apps/easybuild-2022/easybuild/software/Compiler/NVHPC/22.11-CUDA-11.7.0/Gaussian/g16c01-CUDA-11.7.0/g16/l502.exe)
 Keep R1 ints in memory in canonical form, NReq=1412617130.
 FoFCou: FMM=F IPFlag=           0 FMFlag=           0 FMFlg1=           0
         NFxFlg=           0 DoJE=F BraDBF=F KetDBF=F FulRan=T
         wScrn=  0.000000 ICntrl=       600 IOpCl=  0 I1Cent=           0 NGrid=           0
         NMat0=    1 NMatS0=  52650 NMatT0=    0 NMatD0=    1 NMtDS0=    0 NMtDT0=    0
 Symmetry not used in FoFCou.
 Two-electron integral symmetry not used.
 Closed shell SCF:
 Using DIIS extrapolation, IDIIS=  1040.
 NGot=  3758096384 LenX=  2371771924 LenY=  2371630858
 Requested convergence on RMS density matrix=1.00D-08 within  32 cycles.
 Requested convergence on MAX density matrix=1.00D-06.
 Requested convergence on             energy=1.00D-06.
 No special actions if energy rises.
 Integral accuracy reduced to 1.0D-05 until final iterations.

 Cycle   1  Pass 0  IDiag  1:
 E= -764.550379983270    
 DIIS: error= 1.17D-02 at cycle   1 NSaved=   1.
 NSaved= 1 IEnMin= 1 EnMin= -764.550379983270     IErMin= 1 ErrMin= 1.17D-02
 ErrMax= 1.17D-02  0.00D+00 EMaxC= 1.00D-01 BMatC= 8.48D-02 BMatP= 8.48D-02
 IDIUse=3 WtCom= 8.83D-01 WtEn= 1.17D-01
 Coeff-Com:  0.100D+01
 Coeff-En:   0.100D+01
 Coeff:      0.100D+01
 Recover alternate guess density for next cycle.
 RMSDP=1.82D-03 MaxDP=4.68D-02              OVMax= 0.00D+00

 Cycle   2  Pass 0  IDiag  1:
 E= -764.497705658326     Delta-E=        0.052674324944 Rises=F Damp=F
 Switch densities from cycles 1 and 2 for lowest energy.
 DIIS: error= 2.00D-02 at cycle   2 NSaved=   2.
 NSaved= 2 IEnMin= 1 EnMin= -764.550379983270     IErMin= 1 ErrMin= 1.17D-02
 ErrMax= 2.00D-02  0.00D+00 EMaxC= 1.00D+00 BMatC= 3.47D-01 BMatP= 8.48D-02
 IDIUse=1 WtCom= 1.00D+00 WtEn= 0.00D+00
 Coeff-Com:  0.824D+00 0.176D+00
 Coeff:      0.824D+00 0.176D+00
 Gap=     0.416 Goal=   None    Shift=    0.000
 RMSDP=9.59D-04 MaxDP=3.62D-02 DE= 5.27D-02 OVMax= 1.13D-01

 Cycle   3  Pass 0  IDiag  1:
 E= -764.652635892646     Delta-E=       -0.154930234320 Rises=F Damp=F
 DIIS: error= 5.36D-03 at cycle   3 NSaved=   3.
 NSaved= 3 IEnMin= 3 EnMin= -764.652635892646     IErMin= 3 ErrMin= 5.36D-03
 ErrMax= 5.36D-03  0.00D+00 EMaxC= 1.00D+00 BMatC= 2.01D-02 BMatP= 8.48D-02
 IDIUse=1 WtCom= 1.00D+00 WtEn= 0.00D+00
 Coeff-Com: -0.374D-02 0.168D+00 0.835D+00
 Coeff:     -0.374D-02 0.168D+00 0.835D+00
 Gap=     0.405 Goal=   None    Shift=    0.000
 RMSDP=3.03D-04 MaxDP=1.29D-02 DE=-1.55D-01 OVMax= 2.96D-02

 Cycle   4  Pass 0  IDiag  1:
 E= -764.666008711681     Delta-E=       -0.013372819035 Rises=F Damp=F
 DIIS: error= 2.32D-03 at cycle   4 NSaved=   4.
 NSaved= 4 IEnMin= 4 EnMin= -764.666008711681     IErMin= 4 ErrMin= 2.32D-03
 ErrMax= 2.32D-03  0.00D+00 EMaxC= 1.00D+00 BMatC= 2.76D-03 BMatP= 2.01D-02
 IDIUse=1 WtCom= 1.00D+00 WtEn= 0.00D+00
 Coeff-Com: -0.485D-01 0.170D-01 0.299D+00 0.733D+00
 Coeff:     -0.485D-01 0.170D-01 0.299D+00 0.733D+00
 Gap=     0.396 Goal=   None    Shift=    0.000
 RMSDP=1.08D-04 MaxDP=6.51D-03 DE=-1.34D-02 OVMax= 1.25D-02

 Cycle   5  Pass 0  IDiag  1:
 E= -764.667880780766     Delta-E=       -0.001872069084 Rises=F Damp=F
 DIIS: error= 6.05D-04 at cycle   5 NSaved=   5.
 NSaved= 5 IEnMin= 5 EnMin= -764.667880780766     IErMin= 5 ErrMin= 6.05D-04
 ErrMax= 6.05D-04  0.00D+00 EMaxC= 1.00D+00 BMatC= 3.22D-04 BMatP= 2.76D-03
 IDIUse=1 WtCom= 1.00D+00 WtEn= 0.00D+00
 Coeff-Com: -0.189D-01-0.438D-02 0.796D-01 0.354D+00 0.589D+00
 Coeff:     -0.189D-01-0.438D-02 0.796D-01 0.354D+00 0.589D+00
 Gap=     0.399 Goal=   None    Shift=    0.000
 RMSDP=3.17D-05 MaxDP=1.27D-03 DE=-1.87D-03 OVMax= 3.95D-03

 Cycle   6  Pass 0  IDiag  1:
 E= -764.668102025372     Delta-E=       -0.000221244607 Rises=F Damp=F
 DIIS: error= 1.96D-04 at cycle   6 NSaved=   6.
 NSaved= 6 IEnMin= 6 EnMin= -764.668102025372     IErMin= 6 ErrMin= 1.96D-04
 ErrMax= 1.96D-04  0.00D+00 EMaxC= 1.00D+00 BMatC= 2.51D-05 BMatP= 3.22D-04
 IDIUse=1 WtCom= 1.00D+00 WtEn= 0.00D+00
 Coeff-Com: -0.248D-02-0.301D-02-0.290D-02 0.654D-01 0.232D+00 0.711D+00
 Coeff:     -0.248D-02-0.301D-02-0.290D-02 0.654D-01 0.232D+00 0.711D+00
 Gap=     0.399 Goal=   None    Shift=    0.000
 RMSDP=1.40D-05 MaxDP=7.02D-04 DE=-2.21D-04 OVMax= 1.90D-03

 Cycle   7  Pass 0  IDiag  1:
 E= -764.668124736240     Delta-E=       -0.000022710868 Rises=F Damp=F
 DIIS: error= 7.91D-05 at cycle   7 NSaved=   7.
 NSaved= 7 IEnMin= 7 EnMin= -764.668124736240     IErMin= 7 ErrMin= 7.91D-05
 ErrMax= 7.91D-05  0.00D+00 EMaxC= 1.00D+00 BMatC= 5.62D-06 BMatP= 2.51D-05
 IDIUse=1 WtCom= 1.00D+00 WtEn= 0.00D+00
 Coeff-Com:  0.160D-02 0.107D-04-0.167D-01-0.358D-01-0.719D-02 0.331D+00
 Coeff-Com:  0.727D+00
 Coeff:      0.160D-02 0.107D-04-0.167D-01-0.358D-01-0.719D-02 0.331D+00
 Coeff:      0.727D+00
 Gap=     0.399 Goal=   None    Shift=    0.000
 RMSDP=7.07D-06 MaxDP=2.68D-04 DE=-2.27D-05 OVMax= 1.07D-03

 Initial convergence to 1.0D-05 achieved.  Increase integral accuracy.
 Cycle   8  Pass 1  IDiag  1:
 E= -764.668169781800     Delta-E=       -0.000045045560 Rises=F Damp=F
 DIIS: error= 3.67D-05 at cycle   1 NSaved=   1.
 NSaved= 1 IEnMin= 1 EnMin= -764.668169781800     IErMin= 1 ErrMin= 3.67D-05
 ErrMax= 3.67D-05  0.00D+00 EMaxC= 1.00D+00 BMatC= 1.04D-06 BMatP= 1.04D-06
 IDIUse=1 WtCom= 1.00D+00 WtEn= 0.00D+00
 Coeff-Com:  0.100D+01
 Coeff:      0.100D+01
 Gap=     0.399 Goal=   None    Shift=    0.000
 RMSDP=7.07D-06 MaxDP=2.68D-04 DE=-4.50D-05 OVMax= 4.93D-04

 Cycle   9  Pass 1  IDiag  1:
 E= -764.668170545702     Delta-E=       -0.000000763901 Rises=F Damp=F
 DIIS: error= 2.48D-05 at cycle   2 NSaved=   2.
 NSaved= 2 IEnMin= 2 EnMin= -764.668170545702     IErMin= 2 ErrMin= 2.48D-05
 ErrMax= 2.48D-05  0.00D+00 EMaxC= 1.00D+00 BMatC= 6.09D-07 BMatP= 1.04D-06
 IDIUse=1 WtCom= 1.00D+00 WtEn= 0.00D+00
 Coeff-Com:  0.410D+00 0.590D+00
 Coeff:      0.410D+00 0.590D+00
 Gap=     0.399 Goal=   None    Shift=    0.000
 RMSDP=2.00D-06 MaxDP=8.41D-05 DE=-7.64D-07 OVMax= 2.31D-04

 Cycle  10  Pass 1  IDiag  1:
 E= -764.668170907814     Delta-E=       -0.000000362112 Rises=F Damp=F
 DIIS: error= 1.40D-05 at cycle   3 NSaved=   3.
 NSaved= 3 IEnMin= 3 EnMin= -764.668170907814     IErMin= 3 ErrMin= 1.40D-05
 ErrMax= 1.40D-05  0.00D+00 EMaxC= 1.00D+00 BMatC= 1.12D-07 BMatP= 6.09D-07
 IDIUse=1 WtCom= 1.00D+00 WtEn= 0.00D+00
 Coeff-Com: -0.260D-01 0.275D+00 0.751D+00
 Coeff:     -0.260D-01 0.275D+00 0.751D+00
 Gap=     0.399 Goal=   None    Shift=    0.000
 RMSDP=1.04D-06 MaxDP=4.83D-05 DE=-3.62D-07 OVMax= 1.64D-04

 Cycle  11  Pass 1  IDiag  1:
 E= -764.668171010849     Delta-E=       -0.000000103036 Rises=F Damp=F
 DIIS: error= 5.71D-06 at cycle   4 NSaved=   4.
 NSaved= 4 IEnMin= 4 EnMin= -764.668171010849     IErMin= 4 ErrMin= 5.71D-06
 ErrMax= 5.71D-06  0.00D+00 EMaxC= 1.00D+00 BMatC= 1.86D-08 BMatP= 1.12D-07
 IDIUse=1 WtCom= 1.00D+00 WtEn= 0.00D+00
 Coeff-Com: -0.489D-01 0.874D-01 0.385D+00 0.576D+00
 Coeff:     -0.489D-01 0.874D-01 0.385D+00 0.576D+00
 Gap=     0.399 Goal=   None    Shift=    0.000
 RMSDP=3.41D-07 MaxDP=1.48D-05 DE=-1.03D-07 OVMax= 6.56D-05

 Cycle  12  Pass 1  IDiag  1:
 E= -764.668171030251     Delta-E=       -0.000000019402 Rises=F Damp=F
 DIIS: error= 2.96D-06 at cycle   5 NSaved=   5.
 NSaved= 5 IEnMin= 5 EnMin= -764.668171030251     IErMin= 5 ErrMin= 2.96D-06
 ErrMax= 2.96D-06  0.00D+00 EMaxC= 1.00D+00 BMatC= 1.76D-09 BMatP= 1.86D-08
 IDIUse=1 WtCom= 1.00D+00 WtEn= 0.00D+00
 Coeff-Com: -0.921D-03-0.662D-01-0.146D+00 0.934D-01 0.112D+01
 Coeff:     -0.921D-03-0.662D-01-0.146D+00 0.934D-01 0.112D+01
 Gap=     0.399 Goal=   None    Shift=    0.000
 RMSDP=2.96D-07 MaxDP=1.21D-05 DE=-1.94D-08 OVMax= 7.63D-05

 Cycle  13  Pass 1  IDiag  1:
 E= -764.668171036205     Delta-E=       -0.000000005954 Rises=F Damp=F
 DIIS: error= 6.91D-07 at cycle   6 NSaved=   6.
 NSaved= 6 IEnMin= 6 EnMin= -764.668171036205     IErMin= 6 ErrMin= 6.91D-07
 ErrMax= 6.91D-07  0.00D+00 EMaxC= 1.00D+00 BMatC= 2.88D-10 BMatP= 1.76D-09
 IDIUse=1 WtCom= 1.00D+00 WtEn= 0.00D+00
 Coeff-Com:  0.561D-02-0.373D-01-0.105D+00-0.419D-01 0.440D+00 0.739D+00
 Coeff:      0.561D-02-0.373D-01-0.105D+00-0.419D-01 0.440D+00 0.739D+00
 Gap=     0.399 Goal=   None    Shift=    0.000
 RMSDP=8.34D-08 MaxDP=3.31D-06 DE=-5.95D-09 OVMax= 2.02D-05

 Cycle  14  Pass 1  IDiag  1:
 E= -764.668171036765     Delta-E=       -0.000000000559 Rises=F Damp=F
 DIIS: error= 1.41D-07 at cycle   7 NSaved=   7.
 NSaved= 7 IEnMin= 7 EnMin= -764.668171036765     IErMin= 7 ErrMin= 1.41D-07
 ErrMax= 1.41D-07  0.00D+00 EMaxC= 1.00D+00 BMatC= 1.52D-11 BMatP= 2.88D-10
 IDIUse=1 WtCom= 1.00D+00 WtEn= 0.00D+00
 Coeff-Com:  0.115D-02-0.180D-02-0.867D-02-0.144D-01-0.874D-02 0.145D+00
 Coeff-Com:  0.888D+00
 Coeff:      0.115D-02-0.180D-02-0.867D-02-0.144D-01-0.874D-02 0.145D+00
 Coeff:      0.888D+00
 Gap=     0.399 Goal=   None    Shift=    0.000
 RMSDP=2.09D-08 MaxDP=8.60D-07 DE=-5.59D-10 OVMax= 4.56D-06

 Cycle  15  Pass 1  IDiag  1:
 E= -764.668171036779     Delta-E=       -0.000000000014 Rises=F Damp=F
 DIIS: error= 6.31D-08 at cycle   8 NSaved=   8.
 NSaved= 8 IEnMin= 8 EnMin= -764.668171036779     IErMin= 8 ErrMin= 6.31D-08
 ErrMax= 6.31D-08  0.00D+00 EMaxC= 1.00D+00 BMatC= 4.59D-12 BMatP= 1.52D-11
 IDIUse=1 WtCom= 1.00D+00 WtEn= 0.00D+00
 Coeff-Com: -0.295D-03 0.492D-02 0.119D-01-0.148D-03-0.717D-01-0.418D-01
 Coeff-Com:  0.393D+00 0.704D+00
 Coeff:     -0.295D-03 0.492D-02 0.119D-01-0.148D-03-0.717D-01-0.418D-01
 Coeff:      0.393D+00 0.704D+00
 Gap=     0.399 Goal=   None    Shift=    0.000
 RMSDP=7.22D-09 MaxDP=2.71D-07 DE=-1.39D-11 OVMax= 1.38D-06

 SCF Done:  E(RM062X) =  -764.668171037     A.U. after   15 cycles
            NFock= 15  Conv=0.72D-08     -V/T= 2.0036
 KE= 7.618987181534D+02 PE=-3.093853415579D+03 EE= 9.266024690818D+02
 Leave Link  502 at Sat May 24 04:12:01 2025, MaxMem=  3758096384 cpu:             120.9 elap:              29.7
 (Enter /apps/easybuild-2022/easybuild/software/Compiler/NVHPC/22.11-CUDA-11.7.0/Gaussian/g16c01-CUDA-11.7.0/g16/l508.exe)
 QCSCF skips out because SCF is already converged.
 Leave Link  508 at Sat May 24 04:12:01 2025, MaxMem=  3758096384 cpu:               0.1 elap:               0.0
 (Enter /apps/easybuild-2022/easybuild/software/Compiler/NVHPC/22.11-CUDA-11.7.0/Gaussian/g16c01-CUDA-11.7.0/g16/l701.exe)
 ... and contract with generalized density number  0.
 Compute integral first derivatives.
   1 Symmetry operations used in ECPInt.
 ECPInt:  NShTT=    6786 NPrTT=   21959 LenC2=    6490 LenP2D=   16004.
 LDataN:  DoStor=T MaxTD1= 7 Len=  274
 Leave Link  701 at Sat May 24 04:12:01 2025, MaxMem=  3758096384 cpu:               1.0 elap:               0.2
 (Enter /apps/easybuild-2022/easybuild/software/Compiler/NVHPC/22.11-CUDA-11.7.0/Gaussian/g16c01-CUDA-11.7.0/g16/l702.exe)
 L702 exits ... SP integral derivatives will be done elsewhere.
 Leave Link  702 at Sat May 24 04:12:01 2025, MaxMem=  3758096384 cpu:               0.1 elap:               0.0
 (Enter /apps/easybuild-2022/easybuild/software/Compiler/NVHPC/22.11-CUDA-11.7.0/Gaussian/g16c01-CUDA-11.7.0/g16/l703.exe)
 Integral derivatives from FoFJK, PRISM(SPDF).
 Compute integral first derivatives, UseDBF=F ICtDFT=           0.
 Calling FoFJK, ICntrl=      2127 FMM=F ISym2X=0 I1Cent= 0 IOpClX= 0 NMat=1 NMatS=1 NMatT=0.
 FoFJK:  IHMeth= 1 ICntrl=    2127 DoSepK=F KAlg= 0 I1Cent=           0 FoldK=F
 IRaf=         0 NMat=       1 IRICut=       1 DoRegI=T DoRafI=F ISym2E= 0 IDoP0=0 IntGTp=1.
 FoFCou: FMM=F IPFlag=           0 FMFlag=      100000 FMFlg1=         800
         NFxFlg=           0 DoJE=F BraDBF=F KetDBF=F FulRan=T
         wScrn=  0.000000 ICntrl=      2127 IOpCl=  0 I1Cent=           0 NGrid=           0
         NMat0=    1 NMatS0=      1 NMatT0=    0 NMatD0=    1 NMtDS0=    0 NMtDT0=    0
 Symmetry not used in FoFCou.
 Leave Link  703 at Sat May 24 04:12:10 2025, MaxMem=  3758096384 cpu:              68.8 elap:               9.5
 (Enter /apps/easybuild-2022/easybuild/software/Compiler/NVHPC/22.11-CUDA-11.7.0/Gaussian/g16c01-CUDA-11.7.0/g16/l716.exe)
 Dipole        = 6.65330618D-01 6.14007333D-01 4.44316695D-02
 -------------------------------------------------------------------
 Center     Atomic                   Forces (Hartrees/Bohr)
 Number     Number              X              Y              Z
 -------------------------------------------------------------------
      1        6          -0.000028701    0.002308514   -0.001674408
      2        8          -0.000335386   -0.000738168    0.000559600
      3        6           0.000033122    0.001054562    0.000068195
      4        6          -0.000025511   -0.001303521    0.000749881
      5        9          -0.000043477   -0.000065551    0.000015822
      6        9          -0.000552139    0.000407234    0.000131604
      7        9           0.000392622    0.000544813   -0.000467256
      8        9          -0.000074043   -0.000830054    0.000834027
      9        9          -0.000405958   -0.001073226   -0.000691801
     10        8           0.001017416   -0.000230881    0.000012520
     11        1           0.000022057   -0.000073722    0.000461817
 -------------------------------------------------------------------
 Cartesian Forces:  Max     0.002308514 RMS     0.000741437
 Leave Link  716 at Sat May 24 04:12:11 2025, MaxMem=  3758096384 cpu:               0.1 elap:               0.0
 (Enter /apps/easybuild-2022/easybuild/software/Compiler/NVHPC/22.11-CUDA-11.7.0/Gaussian/g16c01-CUDA-11.7.0/g16/l103.exe)

 GradGradGradGradGradGradGradGradGradGradGradGradGradGradGradGradGradGrad
 Berny optimization.
 Using GEDIIS/GDIIS optimizer.
 FormGI is forming the generalized inverse of G from B-inverse, IUseBI=4.
 Internal  Forces:  Max     0.002245181 RMS     0.000665928
 Search for a local minimum.
 Step number   2 out of a maximum of   53
 All quantities printed in internal units (Hartrees-Bohrs-Radians)
 RMS Force = .66593D-03 SwitMx=.10000D-02 MixMth= 2
 Mixed Optimization -- En-DIIS/RFO-DIIS
 Update second derivatives using D2CorX and points    1    2
 DE= -1.01D-03 DEPred=-1.40D-03 R= 7.24D-01
 TightC=F SS=  1.41D+00  RLast= 1.03D+00 DXNew= 5.0454D-01 3.0896D+00
 Trust test= 7.24D-01 RLast= 1.03D+00 DXMaxT set to 5.05D-01
 ITU=  1  0
 Use linear search instead of GDIIS.
     Eigenvalues ---   -0.00063   0.00373   0.01885   0.04090   0.05332
     Eigenvalues ---    0.08848   0.09869   0.11062   0.14473   0.14690
     Eigenvalues ---    0.15555   0.18525   0.20204   0.23711   0.24308
     Eigenvalues ---    0.25704   0.28163   0.35556   0.38747   0.39782
     Eigenvalues ---    0.41634   0.42281   0.45633   0.51419   0.52895
     Eigenvalues ---    0.58605   0.98089
 Eigenvalue     1 is  -6.34D-04 should be greater than     0.000000 Eigenvector:
                          D1        D2        D4        D5        D3
   1                   -0.42195  -0.40185  -0.38331  -0.36321  -0.36268
                          D6        D17       D14       D16       D15
   1                   -0.32404  -0.14966  -0.13989  -0.13196  -0.12744
 RFO step:  Lambda=-6.90123767D-04 EMin=-6.34157986D-04
 I=     1 Eig=   -6.34D-04 Dot1= -1.03D-04
 I=     1 Stepn= -6.00D-01 RXN=   6.00D-01 EDone=F
 Mixed    1 eigenvectors in step.  Raw Step.Grad=  1.03D-04.
 RFO eigenvector is Hessian eigenvector with negative curvature.
 Taking step of  6.00D-01 in eigenvector direction(s).  Step.Grad=  6.01D-05.
 Quartic linear search produced a step of -0.01159.
 Iteration  1 RMS(Cart)=  0.11210815 RMS(Int)=  0.01549921
 Iteration  2 RMS(Cart)=  0.01827665 RMS(Int)=  0.00033565
 Iteration  3 RMS(Cart)=  0.00029938 RMS(Int)=  0.00015845
 Iteration  4 RMS(Cart)=  0.00000007 RMS(Int)=  0.00015845
 ITry= 1 IFail=0 DXMaxC= 5.28D-01 DCOld= 1.00D+10 DXMaxT= 5.05D-01 DXLimC= 3.00D+00 Rises=F
 Variable       Old X    -DE/DX   Delta X   Delta X   Delta X     New X
                                 (Linear)    (Quad)   (Total)
    R1        2.24298   0.00037   0.00001   0.00109   0.00110   2.24408
    R2        2.91693   0.00065   0.00005   0.00055   0.00060   2.91753
    R3        2.51335   0.00016  -0.00000  -0.00166  -0.00166   2.51169
    R4        2.91814   0.00036  -0.00012   0.00867   0.00855   2.92668
    R5        2.53946  -0.00109  -0.00002   0.00289   0.00287   2.54233
    R6        2.51431   0.00128   0.00006   0.00062   0.00068   2.51499
    R7        2.50086   0.00005   0.00002   0.00245   0.00246   2.50333
    R8        2.51585  -0.00037  -0.00000  -0.00243  -0.00243   2.51342
    R9        2.49906   0.00049  -0.00001   0.00085   0.00084   2.49990
   R10        1.82805   0.00001   0.00000   0.00041   0.00041   1.82846
    A1        2.15649  -0.00182  -0.00019  -0.01356  -0.01384   2.14266
    A2        2.21028  -0.00041  -0.00007   0.00013  -0.00002   2.21026
    A3        1.91630   0.00225   0.00025   0.01308   0.01325   1.92954
    A4        1.96972   0.00033   0.00017   0.03705   0.03709   2.00681
    A5        1.91441   0.00030  -0.00002  -0.02580  -0.02569   1.88872
    A6        1.90107  -0.00029  -0.00007  -0.00525  -0.00600   1.89508
    A7        1.89213  -0.00050   0.00009  -0.01464  -0.01422   1.87792
    A8        1.87935   0.00031  -0.00015   0.01248   0.01205   1.89140
    A9        1.90611  -0.00017  -0.00002  -0.00406  -0.00418   1.90193
   A10        1.91865   0.00001  -0.00002  -0.00798  -0.00807   1.91058
   A11        1.89843   0.00127  -0.00025   0.03224   0.03205   1.93047
   A12        1.94547  -0.00136   0.00019  -0.01655  -0.01639   1.92908
   A13        1.90258  -0.00044   0.00006  -0.00994  -0.00986   1.89272
   A14        1.89878   0.00046  -0.00009   0.00229   0.00204   1.90082
   A15        1.89942   0.00007   0.00010  -0.00007   0.00012   1.89954
   A16        1.89418  -0.00001  -0.00003   0.00041   0.00038   1.89456
    D1        1.98150  -0.00021   0.00461   0.25317   0.25783   2.23933
    D2       -2.19005  -0.00041   0.00482   0.24111   0.24573  -1.94433
    D3       -0.10472  -0.00061   0.00474   0.21761   0.22242   0.11770
    D4       -1.17547   0.00060   0.00466   0.22998   0.23476  -0.94071
    D5        0.93617   0.00040   0.00487   0.21792   0.22265   1.15881
    D6        3.02150   0.00020   0.00480   0.19442   0.19934  -3.06234
    D7        0.00944   0.00001   0.00002  -0.00658  -0.00664   0.00280
    D8       -3.11618  -0.00082  -0.00004   0.01765   0.01769  -3.09849
    D9       -2.97090  -0.00013  -0.00074   0.05182   0.05095  -2.91994
   D10       -0.88894   0.00011  -0.00083   0.05454   0.05354  -0.83540
   D11        1.20538   0.00018  -0.00075   0.06516   0.06417   1.26955
   D12        1.18803  -0.00037  -0.00089   0.07060   0.06975   1.25778
   D13       -3.01320  -0.00013  -0.00098   0.07331   0.07234  -2.94086
   D14       -0.91888  -0.00006  -0.00090   0.08394   0.08297  -0.83591
   D15       -0.87218  -0.00008  -0.00083   0.07646   0.07586  -0.79632
   D16        1.20978   0.00016  -0.00092   0.07917   0.07845   1.28823
   D17       -2.97909   0.00023  -0.00084   0.08980   0.08908  -2.89001
         Item               Value     Threshold  Converged?
 Maximum Force            0.002245     0.000450     NO 
 RMS     Force            0.000666     0.000300     NO 
 Maximum Displacement     0.527890     0.001800     NO 
 RMS     Displacement     0.125729     0.001200     NO 
 Predicted change in Energy=-2.229284D-04
 Lowest energy point so far.  Saving SCF results.
 GradGradGradGradGradGradGradGradGradGradGradGradGradGradGradGradGradGrad

 Leave Link  103 at Sat May 24 04:12:11 2025, MaxMem=  3758096384 cpu:               0.1 elap:               0.1
 (Enter /apps/easybuild-2022/easybuild/software/Compiler/NVHPC/22.11-CUDA-11.7.0/Gaussian/g16c01-CUDA-11.7.0/g16/l202.exe)
                          Input orientation:                          
 ---------------------------------------------------------------------
 Center     Atomic      Atomic             Coordinates (Angstroms)
 Number     Number       Type             X           Y           Z
 ---------------------------------------------------------------------
      1          6           0        1.411771   -0.227473   -0.616809
      2          8           0        2.022891   -1.170560   -1.000625
      3          6           0       -0.130405   -0.202511   -0.548459
      4          6           0       -0.717657    0.227701    0.818520
      5          9           0       -2.013084   -0.047593    0.848857
      6          9           0       -0.124344   -0.429924    1.810751
      7          9           0       -0.550842    1.526422    1.007027
      8          9           0       -0.578429    0.664417   -1.474561
      9          9           0       -0.587412   -1.418648   -0.837228
     10          8           0        1.914623    0.943603   -0.239571
     11          1           0        2.877296    0.908892   -0.330478
 ---------------------------------------------------------------------
                    Distance matrix (angstroms):
                    1          2          3          4          5
     1  C    0.000000
     2  O    1.187517   0.000000
     3  C    1.543891   2.403801   0.000000
     4  C    2.608029   3.574217   1.548735   0.000000
     5  F    3.729633   4.579381   2.349675   1.324703   0.000000
     6  F    2.879876   3.614277   2.370154   1.330043   2.153777
     7  F    3.092707   4.234204   2.363369   1.322890   2.154226
     8  F    2.343523   3.218481   1.345345   2.338445   2.821960
     9  F    2.337566   2.627152   1.330876   2.338574   2.599079
    10  O    1.329130   2.249579   2.364556   2.925914   4.194523
    11  H    1.876453   2.345896   3.213876   3.835089   5.120695
                    6          7          8          9         10
     6  F    0.000000
     7  F    2.157583   0.000000
     8  F    3.492428   2.627183   0.000000
     9  F    2.864228   3.475061   2.178401   0.000000
    10  O    3.201216   2.823509   2.796150   3.492506   0.000000
    11  H    3.922644   3.731273   3.648388   4.204574   0.967579
                   11
    11  H    0.000000
 Symmetry turned off by external request.
 Stoichiometry    C3HF5O2
 Rotational constants (GHZ):           1.9437381           1.1974101           1.0801195
 Leave Link  202 at Sat May 24 04:12:11 2025, MaxMem=  3758096384 cpu:               0.1 elap:               0.0
 (Enter /apps/easybuild-2022/easybuild/software/Compiler/NVHPC/22.11-CUDA-11.7.0/Gaussian/g16c01-CUDA-11.7.0/g16/l301.exe)
 Standard basis: def2TZVPP (5D, 7F)
 Ernie: Thresh=  0.10000D-02 Tol=  0.10000D-05 Strict=F.
   324 basis functions,   527 primitive gaussians,   375 cartesian basis functions
    40 alpha electrons       40 beta electrons
       nuclear repulsion energy       639.6279265524 Hartrees.
 IExCor= 4336 DFT=T Ex+Corr=M062X ExCW=0 ScaHFX=  0.540000
 ScaDFX=  1.000000  1.000000  1.000000  1.000000 ScalE2=  1.000000  1.000000
 IRadAn=      5 IRanWt=     -1 IRanGd=            0 ICorTp=0 IEmpDi=  4
 NAtoms=   11 NActive=   11 NUniq=   11 SFac= 1.00D+00 NAtFMM=   60 NAOKFM=F Big=F
 Integral buffers will be    131072 words long.
 Raffenetti 2 integral format.
 Two-electron integral symmetry is turned off.
 Leave Link  301 at Sat May 24 04:12:11 2025, MaxMem=  3758096384 cpu:               0.1 elap:               0.1
 (Enter /apps/easybuild-2022/easybuild/software/Compiler/NVHPC/22.11-CUDA-11.7.0/Gaussian/g16c01-CUDA-11.7.0/g16/l302.exe)
[...]
    R9        2.50401  -0.00000   0.00000  -0.00001  -0.00001   2.50401
   R10        1.82815   0.00000   0.00000   0.00000   0.00000   1.82815
    A1        2.14379  -0.00000   0.00000   0.00001   0.00001   2.14381
    A2        2.20931   0.00000   0.00000   0.00001   0.00001   2.20933
    A3        1.93004  -0.00000   0.00000  -0.00003  -0.00003   1.93001
    A4        1.96509  -0.00001   0.00000  -0.00001  -0.00001   1.96507
    A5        1.92547   0.00000   0.00000  -0.00003  -0.00003   1.92544
    A6        1.89976   0.00000   0.00000   0.00002   0.00002   1.89978
    A7        1.88597   0.00000   0.00000  -0.00000  -0.00000   1.88597
    A8        1.88164   0.00000   0.00000   0.00002   0.00002   1.88166
    A9        1.90471  -0.00000   0.00000   0.00000   0.00000   1.90471
   A10        1.91818   0.00000   0.00000   0.00001   0.00001   1.91819
   A11        1.91114   0.00000   0.00000  -0.00000  -0.00000   1.91114
   A12        1.93130  -0.00001   0.00000  -0.00001  -0.00001   1.93129
   A13        1.90319  -0.00000   0.00000   0.00000   0.00000   1.90319
   A14        1.90055   0.00000   0.00000   0.00001   0.00001   1.90055
   A15        1.89914  -0.00000   0.00000  -0.00002  -0.00002   1.89912
   A16        1.89128   0.00000   0.00000   0.00001   0.00001   1.89129
    D1        1.82979   0.00000   0.00000   0.00054   0.00054   1.83033
    D2       -2.34496  -0.00000   0.00000   0.00051   0.00051  -2.34444
    D3       -0.25549  -0.00000   0.00000   0.00051   0.00051  -0.25498
    D4       -1.30268   0.00000   0.00000   0.00057   0.00057  -1.30211
    D5        0.80576   0.00000   0.00000   0.00054   0.00054   0.80630
    D6        2.89522   0.00000   0.00000   0.00054   0.00054   2.89576
    D7       -0.00615   0.00000   0.00000  -0.00001  -0.00001  -0.00616
    D8        3.12590  -0.00000   0.00000  -0.00004  -0.00004   3.12586
    D9       -3.03314  -0.00000   0.00000   0.00009   0.00009  -3.03304
   D10       -0.94293   0.00000   0.00000   0.00010   0.00010  -0.94282
   D11        1.15042  -0.00000   0.00000   0.00008   0.00008   1.15050
   D12        1.11913   0.00000   0.00000   0.00014   0.00014   1.11926
   D13       -3.07385   0.00000   0.00000   0.00015   0.00015  -3.07370
   D14       -0.98050  -0.00000   0.00000   0.00012   0.00012  -0.98037
   D15       -0.93736  -0.00000   0.00000   0.00013   0.00013  -0.93724
   D16        1.15285   0.00000   0.00000   0.00014   0.00014   1.15298
   D17       -3.03699  -0.00000   0.00000   0.00011   0.00011  -3.03688
         Item               Value     Threshold  Converged?
 Maximum Force            0.000008     0.000450     YES
 RMS     Force            0.000003     0.000300     YES
 Maximum Displacement     0.001074     0.001800     YES
 RMS     Displacement     0.000288     0.001200     YES
 Predicted change in Energy=-1.523555D-09
 Optimization completed.
    -- Stationary point found.
                           ----------------------------
                           !   Optimized Parameters   !
                           ! (Angstroms and Degrees)  !
 --------------------------                            --------------------------
 ! Name  Definition              Value          Derivative Info.                !
 --------------------------------------------------------------------------------
 ! R1    R(1,2)                  1.1879         -DE/DX =    0.0                 !
 ! R2    R(1,3)                  1.5443         -DE/DX =    0.0                 !
 ! R3    R(1,10)                 1.329          -DE/DX =    0.0                 !
 ! R4    R(3,4)                  1.5443         -DE/DX =    0.0                 !
 ! R5    R(3,8)                  1.3415         -DE/DX =    0.0                 !
 ! R6    R(3,9)                  1.3329         -DE/DX =    0.0                 !
 ! R7    R(4,5)                  1.3232         -DE/DX =    0.0                 !
 ! R8    R(4,6)                  1.3285         -DE/DX =    0.0                 !
 ! R9    R(4,7)                  1.3251         -DE/DX =    0.0                 !
 ! R10   R(10,11)                0.9674         -DE/DX =    0.0                 !
 ! A1    A(2,1,3)              122.8303         -DE/DX =    0.0                 !
 ! A2    A(2,1,10)             126.5843         -DE/DX =    0.0                 !
 ! A3    A(3,1,10)             110.583          -DE/DX =    0.0                 !
 ! A4    A(1,3,4)              112.5911         -DE/DX =    0.0                 !
 ! A5    A(1,3,8)              110.3213         -DE/DX =    0.0                 !
 ! A6    A(1,3,9)              108.8481         -DE/DX =    0.0                 !
 ! A7    A(4,3,8)              108.058          -DE/DX =    0.0                 !
 ! A8    A(4,3,9)              107.8102         -DE/DX =    0.0                 !
 ! A9    A(8,3,9)              109.1321         -DE/DX =    0.0                 !
 ! A10   A(3,4,5)              109.9035         -DE/DX =    0.0                 !
 ! A11   A(3,4,6)              109.5005         -DE/DX =    0.0                 !
 ! A12   A(3,4,7)              110.6553         -DE/DX =    0.0                 !
 ! A13   A(5,4,6)              109.0448         -DE/DX =    0.0                 !
 ! A14   A(5,4,7)              108.8932         -DE/DX =    0.0                 !
 ! A15   A(6,4,7)              108.8125         -DE/DX =    0.0                 !
 ! A16   A(1,10,11)            108.3624         -DE/DX =    0.0                 !
 ! D1    D(2,1,3,4)            104.8393         -DE/DX =    0.0                 !
 ! D2    D(2,1,3,8)           -134.3561         -DE/DX =    0.0                 !
 ! D3    D(2,1,3,9)            -14.6387         -DE/DX =    0.0                 !
 ! D4    D(10,1,3,4)           -74.6381         -DE/DX =    0.0                 !
 ! D5    D(10,1,3,8)            46.1666         -DE/DX =    0.0                 !
 ! D6    D(10,1,3,9)           165.8839         -DE/DX =    0.0                 !
 ! D7    D(2,1,10,11)           -0.3522         -DE/DX =    0.0                 !
 ! D8    D(3,1,10,11)          179.1009         -DE/DX =    0.0                 !
 ! D9    D(1,3,4,5)           -173.7859         -DE/DX =    0.0                 !
 ! D10   D(1,3,4,6)            -54.0257         -DE/DX =    0.0                 !
 ! D11   D(1,3,4,7)             65.9144         -DE/DX =    0.0                 !
 ! D12   D(8,3,4,5)             64.1213         -DE/DX =    0.0                 !
 ! D13   D(8,3,4,6)           -176.1185         -DE/DX =    0.0                 !
 ! D14   D(8,3,4,7)            -56.1784         -DE/DX =    0.0                 !
 ! D15   D(9,3,4,5)            -53.707          -DE/DX =    0.0                 !
 ! D16   D(9,3,4,6)             66.0532         -DE/DX =    0.0                 !
 ! D17   D(9,3,4,7)           -174.0068         -DE/DX =    0.0                 !
 --------------------------------------------------------------------------------
 GradGradGradGradGradGradGradGradGradGradGradGradGradGradGradGradGradGrad

 Leave Link  103 at Sat May 24 04:20:55 2025, MaxMem=  3758096384 cpu:               0.1 elap:               0.1
 (Enter /apps/easybuild-2022/easybuild/software/Compiler/NVHPC/22.11-CUDA-11.7.0/Gaussian/g16c01-CUDA-11.7.0/g16/l9999.exe)

 ----------------------------------------------------------------------

 Electric dipole moment (input orientation):
 (Debye = 10**-18 statcoulomb cm , SI units = C m)
                  (au)            (Debye)         (10**-30 SI)
   Tot        0.907513D+00      0.230667D+01      0.769422D+01
   x          0.667631D+00      0.169695D+01      0.566041D+01
   y          0.614669D+00      0.156233D+01      0.521138D+01
   z         -0.555479D-02     -0.141189D-01     -0.470954D-01

 Dipole polarizability, Alpha (input orientation).
 (esu units = cm**3 , SI units = C**2 m**2 J**-1)
 Alpha(0;0):
               (au)            (10**-24 esu)      (10**-40 SI)
   iso        0.438564D+02      0.649885D+01      0.723094D+01
   aniso      0.105276D+02      0.156003D+01      0.173577D+01
   xx         0.479567D+02      0.710645D+01      0.790699D+01
   yx        -0.747268D+00     -0.110734D+00     -0.123208D+00
   yy         0.465083D+02      0.689182D+01      0.766818D+01
   zx        -0.126457D+01     -0.187391D+00     -0.208500D+00
   zy         0.259931D+00      0.385178D-01      0.428568D-01
   zz         0.371042D+02      0.549828D+01      0.611766D+01

 ----------------------------------------------------------------------

 Dipole orientation:
     6          2.18282938         -0.82750649          1.71281450
     8          3.69864241         -2.42982444          1.29595757
     6          0.83281262          0.66211654         -0.40247332
     6         -1.93191651         -0.19014039         -0.78472663
     9         -2.91140621          0.96492386         -2.77439396
     9         -1.99948863         -2.67111365         -1.16226247
     9         -3.31189281          0.35767801          1.23161703
     9          0.82438961          3.13993466          0.13324637
     9          2.06032227          0.29037373         -2.57027925
     8          1.38805481         -0.07002824          3.97156869
     1          2.24956269         -1.05755028          5.24621631

 Electric dipole moment (dipole orientation):
 (Debye = 10**-18 statcoulomb cm , SI units = C m)
                  (au)            (Debye)         (10**-30 SI)
   Tot        0.907513D+00      0.230667D+01      0.769422D+01
   x          0.000000D+00      0.000000D+00      0.000000D+00
   y          0.000000D+00      0.000000D+00      0.000000D+00
   z          0.907513D+00      0.230667D+01      0.769422D+01

 Dipole polarizability, Alpha (dipole orientation).
 (esu units = cm**3 , SI units = C**2 m**2 J**-1)
 Alpha(0;0):
               (au)            (10**-24 esu)      (10**-40 SI)
   iso        0.438564D+02      0.649885D+01      0.723094D+01
   aniso      0.105276D+02      0.156003D+01      0.173577D+01
   xx         0.430996D+02      0.638670D+01      0.710616D+01
   yx        -0.547866D+01     -0.811853D+00     -0.903308D+00
   yy         0.419133D+02      0.621090D+01      0.691056D+01
   zx         0.104728D+01      0.155190D+00      0.172672D+00
   zy        -0.109328D+00     -0.162008D-01     -0.180258D-01
   zz         0.465564D+02      0.689894D+01      0.767611D+01

 ----------------------------------------------------------------------
 Unable to Open any file for archive entry.
 1\1\GINC-SPARTAN-BM199\Freq\RM062X\def2TZVPP\C3H1F5O2\AKHALILOV\24-May
 -2025\0\\#P Geom=AllCheck Guess=TCheck SCRF=Check GenChk RM062X/def2TZ
 VPP Freq\\Gaussian input prepared by ASE\\0,1\C,1.4124356976,-0.200979
 1817,-0.5587310141\O,2.0405862922,-1.209070644,-0.5731880938\C,-0.1316
 219034,-0.176548578,-0.5602249212\C,-0.7206734935,0.1771051165,0.82278
 71629\F,-2.0377649576,0.0529359161,0.7965518758\F,-0.2257285652,-0.647
 1666065,1.7395407387\F,-0.4136442707,1.4219935337,1.1571335299\F,-0.58
 24648204,0.7236816966,-1.446775076\F,-0.5810755131,-1.3851063846,-0.89
 78340017\O,1.8992556107,1.0352752663,-0.5281348598\H,2.8651049235,0.98
 22058657,-0.5137033407\\Version=ES64L-G16RevC.01\HF=-764.6682628\RMSD=
 1.148e-09\RMSF=2.504e-06\ZeroPoint=0.0527146\Thermal=0.061647\ETot=-76
 4.6066158\HTot=-764.6056716\GTot=-764.6513495\Dipole=0.6676311,0.61466
 9,-0.0055548\DipoleDeriv=1.1539287,0.021513,-0.1333317,0.0715023,1.802
 4099,0.0451493,0.0465824,0.0320066,0.2367816,-0.7701247,0.3620225,0.05
 54804,0.1176172,-0.9723346,-0.0399588,-0.0071615,-0.0127069,-0.3115246
 ,0.7367991,0.0445028,0.1907628,0.1008112,1.1969143,-0.1046345,0.270825
 8,-0.1110125,0.9301201,1.6494419,0.0270124,0.0956366,-0.0184636,1.5668
 577,-0.0523812,-0.1133671,-0.0410384,1.3921315,-0.999435,-0.0397184,0.
 0264581,-0.0284386,-0.2731046,-0.0165552,0.131247,-0.0170349,-0.336430
 8,-0.3784755,0.1239965,-0.0909962,0.1346752,-0.4869354,0.2200833,-0.11
 80191,0.2834808,-0.655163,-0.3265254,-0.0850587,0.00769,-0.1128841,-0.
 7996451,-0.1463211,0.0026131,-0.2201251,-0.3799893,-0.3918951,0.160270
 5,-0.1301236,0.1224986,-0.4980614,0.2231892,-0.1493729,0.2910558,-0.56
 44429,-0.3721001,-0.2115469,-0.0419814,-0.1905772,-0.707894,-0.1203018
 ,-0.0643177,-0.1887348,-0.3303029,-0.629614,-0.4962967,0.024097,-0.283
 9019,-1.129365,-0.0048636,0.0051982,-0.0159707,-0.3274124,0.3280001,0.
 093303,-0.0036921,0.087161,0.3011582,-0.0034056,-0.0042282,0.00008,0.3
 462328\Polar=47.9567189,-0.7472683,46.5082766,-1.2645739,0.2599309,37.
 1042169\PG=Unknown\NImag=0\\0.74799818,-0.20516259,0.97625350,-0.00623
 688,0.01229439,0.22941459,-0.34050029,0.32337553,0.00550390,0.32992115
 ,0.33861526,-0.61049404,-0.00859743,-0.37803680,0.72585180,0.00681022,
 -0.00869705,-0.07508616,-0.00524396,0.01192136,0.03020648,-0.18141307,
 -0.01047833,0.02298573,-0.01665015,0.01534851,-0.00551282,0.55870218,-
 0.00849903,-0.04588211,-0.00649201,0.03872712,-0.01935287,-0.00138235,
 0.01749324,0.58690027,-0.01151795,-0.00633430,-0.09833752,0.01000995,-
 0.00600013,0.02355459,0.03566801,0.00922200,0.54823540,-0.01272712,0.0
 1005157,0.03215052,-0.00230527,0.00007254,-0.00449881,-0.09042404,0.01
 736653,0.07221323,0.60783627,0.00891675,0.02074637,0.00181033,-0.00274
 655,-0.00545035,0.00108587,0.00767002,-0.04537595,-0.03198214,-0.00306
 189,0.59766323,0.03038515,-0.00052370,0.01466183,-0.01324728,0.0066009
 8,-0.00540360,0.03329542,-0.03331523,-0.16513283,-0.01702239,0.0111737
 5,0.62036958,0.00831581,0.00114447,0.00640828,-0.00422787,0.00205698,-
 0.00096259,-0.05372133,-0.00517497,-0.00308854,-0.32056621,-0.01335981
 ,0.02869353,0.45094852,-0.00109270,-0.00229570,-0.00099451,0.00051394,
 0.00066475,0.00011390,0.00526040,0.00222987,-0.00127715,-0.01664917,-0
 .07726598,-0.00002269,0.03592152,0.08612735,-0.00653595,-0.00165072,-0
 .00680318,0.00381069,-0.00147117,0.00154740,0.03773682,0.00171159,0.00
 126165,0.02015054,-0.00134502,-0.08592447,0.01039558,0.00004444,0.0739
 9562,-0.00135739,0.00174342,-0.00266786,0.00106733,-0.00171491,0.00174
 688,0.00678361,-0.00011752,0.00044556,-0.09878014,0.04095042,-0.052039
 65,-0.05242355,0.03465151,-0.04777881,0.12866521,0.00179262,-0.0047602
 6,0.00097294,-0.00137120,0.00268599,-0.00118514,0.00586173,-0.00735932
 ,0.00619626,0.04026222,-0.15088555,0.10452183,0.02446653,0.00529591,0.
 01009670,-0.08186364,0.22234396,-0.00625272,0.00112473,-0.00206474,0.0
 0387555,-0.00212051,0.00075792,-0.01960466,0.03736143,-0.02368131,-0.0
 4630047,0.09573268,-0.22700528,-0.03267415,0.00970490,0.00023617,0.095
 33468,-0.15998183,0.25135597,-0.00063775,-0.00410069,-0.00287957,0.000
 26054,0.00119724,0.00035761,0.00866901,0.00489509,-0.00058441,-0.08479
 156,-0.03809646,-0.01057347,-0.03840225,-0.06077397,-0.01910398,0.0137
 3955,0.01219111,0.00109453,0.10168972,-0.00543157,-0.00674730,-0.00184
 135,0.00160671,0.00225450,0.00007495,-0.00873422,-0.03217554,-0.000189
 21,-0.03477095,-0.28257352,-0.08603063,-0.04431372,-0.02179116,-0.0087
 9850,0.00667468,-0.07630079,0.02017018,0.08077748,0.41012941,-0.004649
 09,-0.00015591,-0.00166670,0.00193146,-0.00044807,0.00057777,-0.008385
 44,-0.03313150,0.00042749,-0.00794846,-0.07559947,-0.11538632,-0.01174
 726,-0.00668534,0.01202359,0.00131426,0.03667805,0.01559212,0.02435695
 ,0.08615016,0.09789518,-0.00376090,0.02996067,-0.03570833,-0.01132791,
 0.00288651,0.00485528,-0.11109252,0.05186853,-0.07130850,0.00207552,0.
 00065437,0.00415960,0.00617328,-0.00125181,-0.00067612,0.00109571,-0.0
 0118572,0.00250332,0.00051732,-0.00064554,0.00010290,0.10513942,0.0024
 2872,-0.01469466,0.01472684,0.00590717,0.00135903,-0.00154681,0.059944
 60,-0.15379187,0.11203235,0.00467526,-0.01203460,0.00756465,-0.0022087
 4,0.00209101,-0.00042450,-0.00039823,0.00150388,0.00174324,-0.00045208
 ,0.00652898,-0.00018590,-0.07769938,0.23503672,-0.00000864,0.01573674,
 -0.00564603,-0.00669146,0.00083414,0.00027386,-0.06416821,0.09508239,-
 0.19835562,-0.02600806,0.03926949,-0.02877429,0.00295099,-0.00244580,0
 .00210485,0.00249889,0.00159001,-0.01534879,0.00144218,-0.00288581,0.0
 0033898,0.08536324,-0.16185081,0.22871643,-0.01508732,-0.04219486,-0.0
 1603186,0.00097664,-0.00220684,0.00173666,-0.11055049,-0.07758575,-0.0
 3443827,0.00047579,0.00128920,0.00420423,0.00578208,0.00292743,0.00004
 097,0.00067402,0.00006221,0.00020184,0.00070823,0.00207414,0.00120249,
 0.01418195,0.00614988,0.00655140,0.11504601,-0.00417549,-0.02815818,-0
 .00673576,0.00057271,0.00873815,0.00224148,-0.08863476,-0.26693200,-0.
 08558723,-0.01586512,-0.03669928,-0.00508809,0.00242702,0.00382531,0.0
 0036701,0.00040441,0.00583358,-0.00407376,0.00221478,-0.00388412,-0.00
 782981,-0.00278766,-0.07146126,0.01818386,0.11307122,0.38750577,0.0001
 0259,-0.00768770,0.00538680,-0.00009991,0.00189069,-0.00021827,-0.0280
 2162,-0.07121193,-0.10382535,-0.01920836,-0.03689509,-0.00442444,0.000
 51967,0.00110688,0.00054360,0.00104424,0.00073632,-0.00000239,0.002938
 28,-0.00784594,-0.00926968,0.00864392,0.03067910,0.01538087,0.03568015
 ,0.08897888,0.09628274,-0.17442971,-0.09261225,-0.00287052,0.04123313,
 0.01295750,0.00053858,-0.01126395,-0.03673554,0.00278326,0.00026751,-0
 .00214909,-0.00806380,-0.00229907,0.00045910,0.00201912,0.00032509,-0.
 00020927,0.00194969,-0.00202333,0.00259771,0.00381351,-0.00401466,0.00
 130279,-0.00216867,-0.01225621,-0.00702230,-0.00176508,0.66332815,-0.0
 6965156,-0.28551714,-0.00448344,0.00386598,-0.10803607,-0.00288101,-0.
 00306309,-0.01256787,0.00361141,-0.00130080,-0.00805832,-0.00480729,-0
 .00117691,0.00111169,0.00144949,-0.00052727,0.00171864,0.00036157,0.00
 183313,0.00441048,0.00136650,-0.00264469,0.00481229,-0.00358717,-0.001
 73993,0.00229224,0.00054933,0.05849932,0.44685430,-0.00133837,-0.00465
 170,-0.06425297,-0.00008398,-0.00273866,0.02959770,-0.00256673,0.00131
 395,0.01008095,-0.00310897,-0.00288507,-0.00320226,-0.00008950,0.00043
 108,0.00088905,0.00030346,0.00027079,0.00053729,0.00267001,0.00117606,
 -0.00021030,0.00140696,-0.00188755,0.00142914,0.00030734,-0.00042259,0
 .00030345,0.01038366,0.00944267,0.04100649,-0.02640044,-0.01172693,-0.
 00065342,0.00155269,0.00882403,0.00017295,0.00096072,-0.00223769,-0.00
 018234,-0.00106075,-0.00006696,0.00020865,0.00042058,0.00003375,-0.000
 05886,0.00021056,-0.00000657,-0.00012761,0.00027050,0.00016527,0.00000
 869,0.00101279,0.00035002,0.00023832,0.00004928,-0.00020481,0.00016610
 ,-0.49886695,0.01590583,-0.00788388,0.52185101,-0.05774040,0.00154952,
 -0.00066000,0.00758541,0.00177909,0.00025478,-0.00066809,-0.00569262,0
 .00030813,-0.00078018,-0.00006605,-0.00007360,0.00021762,0.00000694,0.
 00002069,0.00019713,-0.00007606,-0.00002262,0.00031438,0.00014905,-0.0
 0015871,0.00084471,0.00065049,0.00007297,-0.00184669,-0.00106020,-0.00
 030054,0.06291204,-0.04702026,-0.00004897,-0.01103593,0.04978010,-0.00
 075837,0.00054522,0.00439409,0.00023503,0.00012879,-0.00580769,-0.0014
 2651,0.00084166,0.00577255,-0.00041877,-0.00036533,0.00022207,-0.00040
 603,0.00002428,0.00012574,-0.00020164,0.00010406,-0.00037695,0.0002818
 7,0.00002007,-0.00032213,0.00065772,-0.00085060,-0.00011941,0.00054503
 ,-0.00003397,-0.00015732,-0.00661975,-0.00102205,-0.01617855,0.0081114
 1,0.00060788,0.01244759\\0.00000059,-0.00000057,0.00000357,0.00000387,
 0.00000404,-0.00000075,-0.00000150,-0.00000154,0.00000301,0.00000234,0
 .00000055,-0.00000030,0.00000064,-0.00000365,-0.00000022,-0.00000040,-
 0.00000351,-0.00000214,-0.00000750,-0.00000016,0.00000071,-0.00000244,
 0.00000063,-0.00000286,0.00000439,0.00000025,0.00000062,0.00000158,0.0
 0000033,-0.00000127,-0.00000156,0.00000365,-0.00000037\\\@
 The archive entry for this job was punched.


 MODELS ARE TO BE USED, NOT BELIEVED.

    -- PARAPHRASED BY H. THIEL IN "PRINCIPLES OF ECONOMETRICS"
 Job cpu time:       0 days  0 hours 26 minutes 30.0 seconds.
 Elapsed time:       0 days  0 hours  4 minutes 12.8 seconds.
 File lengths (MBytes):  RWF=    116 Int=      0 D2E=      0 Chk=      9 Scr=      1
 Normal termination of Gaussian 16 at Sat May 24 04:20:55 2025.
done
