 Entering Gaussian System, Link 0=g16
 Initial command:
 /apps/easybuild-2022/easybuild/software/Compiler/NVHPC/22.11-CUDA-11.7.0/Gaussian/g16c01-CUDA-11.7.0/g16/l1.exe "/tmp/Gau-205626.inp" -scrdir="/tmp/"
 Entering Link 1 = /apps/easybuild-2022/easybuild/software/Compiler/NVHPC/22.11-CUDA-11.7.0/Gaussian/g16c01-CUDA-11.7.0/g16/l1.exe PID=    205627.
  
 Copyright (c) 1988-2019, Gaussian, Inc.  All Rights Reserved.
  
 This is part of the Gaussian(R) 16 program.  It is based on
 the Gaussian(R) 09 system (copyright 2009, Gaussian, Inc.),
 the Gaussian(R) 03 system (copyright 2003, Gaussian, Inc.),
 the Gaussian(R) 98 system (copyright 1998, Gaussian, Inc.),
 the Gaussian(R) 94 system (copyright 1995, Gaussian, Inc.),
 the Gaussian 92(TM) system (copyright 1992, Gaussian, Inc.),
 the Gaussian 90(TM) system (copyright 1990, Gaussian, Inc.),
 the Gaussian 88(TM) system (copyright 1988, Gaussian, Inc.),
 the Gaussian 86(TM) system (copyright 1986, Carnegie Mellon
 University), and the Gaussian 82(TM) system (copyright 1983,
 Carnegie Mellon University). Gaussian is a federally registered
 trademark of Gaussian, Inc.
  
 This software contains proprietary and confidential information,
 including trade secrets, belonging to Gaussian, Inc.
  
 This software is provided under written license and may be
 used, copied, transmitted, or stored only in accord with that
 written license.
  
 The following legend is applicable only to US Government
 contracts under FAR:
  
                    RESTRICTED RIGHTS LEGEND
  
 Use, reproduction and disclosure by the US Government is
 subject to restrictions as set forth in subparagraphs (a)
 and (c) of the Commercial Computer Software - Restricted
 Rights clause in FAR 52.227-19.
  
 Gaussian, Inc.
 340 Quinnipiac St., Bldg. 40, Wallingford CT 06492
  
  
 ---------------------------------------------------------------
 Warning -- This program may not be used in any manner that
 competes with the business of Gaussian, Inc. or will provide
 assistance to any competitor of Gaussian, Inc.  The licensee
 of this program is prohibited from giving any competitor of
 Gaussian, Inc. access to this program.  By using this program,
 the user acknowledges that Gaussian, Inc. is engaged in the
 business of creating and licensing software in the field of
 computational chemistry and represents and warrants to the
 licensee that it is not a competitor of Gaussian, Inc. and that
 it will not use this program in any manner prohibited above.
 ---------------------------------------------------------------
  

 Cite this work as:
 Gaussian 16, Revision C.01,
 M. J. Frisch, G. W. Trucks, H. B. Schlegel, G. E. Scuseria, 
 M. A. Robb, J. R. Cheeseman, G. Scalmani, V. Barone, 
 G. A. Petersson, H. Nakatsuji, X. Li, M. Caricato, A. V. Marenich, 
 J. Bloino, B. G. Janesko, R. Gomperts, B. Mennucci, H. P. Hratchian, 
 J. V. Ortiz, A. F. Izmaylov, J. L. Sonnenberg, D. Williams-Young, 
 F. Ding, F. Lipparini, F. Egidi, J. Goings, B. Peng, A. Petrone, 
 T. Henderson, D. Ranasinghe, V. G. Zakrzewski, J. Gao, N. Rega, 
 G. Zheng, W. Liang, M. Hada, M. Ehara, K. Toyota, R. Fukuda, 
 J. Hasegawa, M. Ishida, T. Nakajima, Y. Honda, O. Kitao, H. Nakai, 
 T. Vreven, K. Throssell, J. A. Montgomery, Jr., J. E. Peralta, 
 F. Ogliaro, M. J. Bearpark, J. J. Heyd, E. N. Brothers, K. N. Kudin, 
 V. N. Staroverov, T. A. Keith, R. Kobayashi, J. Normand, 
 K. Raghavachari, A. P. Rendell, J. C. Burant, S. S. Iyengar, 
 J. Tomasi, M. Cossi, J. M. Millam, M. Klene, C. Adamo, R. Cammi, 
 J. W. Ochterski, R. L. Martin, K. Morokuma, O. Farkas, 
 J. B. Foresman, and D. J. Fox, Gaussian, Inc., Wallingford CT, 2019.
 
 ******************************************
 Gaussian 16:  ES64L-G16RevC.01  3-Jul-2019
                24-May-2025 
 ******************************************
 %mem=28GB
 %chk=1642764945472630600001_R_Addition_MultipleBond_1_10_11_IRC_R
 %nprocshared=8
 Will use up to    8 processors via shared memory.
 ----------------------------------------------------------------------
 #P mp2/6-31G Symm(None) scf(xqc) pop(None) guess(Read,Mix) geom(AllChe
 ck,NoKeepConstants) irc(RCFC,reverse,MaxPoints=100,StepSize=2)
 ----------------------------------------------------------------------
 1/10=5,18=10,22=2,29=20007,38=1,39=2,42=100,44=3,172=1/1,23;
 2/12=2,15=3,29=1,40=1/2;
 3/5=1,6=6,11=9,14=-4,25=1,30=1,71=2,116=-2,140=1/1,2,3;
 4/5=1,13=-1/1;
 5/5=2,8=3,13=1,38=6/2,8;
 8/6=3,8=1,10=2,19=11,30=-1/1;
 9/15=3,16=-3/6;
 11/6=1,8=1,15=11,17=12,24=-1,27=1,28=-2,29=300,31=1,32=6,42=3/1,2,10;
 10/6=2,21=1,31=1/2;
 8/6=4,8=1,10=2,19=11,30=-1/11,4;
 10/5=1,20=4,31=1/2;
 11/12=2,14=11,16=1,17=2,28=-2,31=1,42=3,76=2/2,10,12;
 7/10=1,12=2,25=1,30=1,44=2/1,2,3,16;
 1/18=10,22=2,39=2,42=100,44=3/23(2);
 2/15=3,29=1/2;
 99/5=20/99;
 2/15=3,29=1/2;
 3/5=1,6=6,11=9,14=-2,25=1,30=1,71=2,140=1/1,2,3;
 4/5=5,16=3,69=1/1;
 5/5=2,8=3,13=1,38=5/2,8;
 8/6=3,8=1,10=2,19=11,30=-1/1;
 9/15=3,16=-3/6;
 11/6=1,8=1,15=11,17=12,24=-1,27=1,28=-2,29=300,31=1,32=6,42=3/1,2,10;
 10/6=2,21=1,31=1/2;
 8/6=4,8=1,10=2,19=11,30=-1/11,4;
 10/5=1,20=4,31=1/2;
 11/12=2,14=11,16=1,17=2,28=-2,31=1,42=3,76=2/2,10,12;
 7/10=1,12=2,25=1,30=1,44=2/1,2,3,16;
 1/18=10,22=2,39=2,42=100,44=3/23(-12);
 2/15=3,29=1/2;
 99/5=20,9=10/99;
 Leave Link    1 at Sat May 24 03:05:47 2025, MaxMem=  3758096384 cpu:               0.0 elap:               0.1
 (Enter /apps/easybuild-2022/easybuild/software/Compiler/NVHPC/22.11-CUDA-11.7.0/Gaussian/g16c01-CUDA-11.7.0/g16/l101.exe)
 Structure from the checkpoint file:  "1642764945472630600001_R_Addition_MultipleBond_1_10_11_IRC_R.chk"
 ------------------------------
 Gaussian input prepared by ASE
 ------------------------------
 Charge =  0 Multiplicity = 1
 Redundant internal coordinates found in file.  (old form).
 C,0,1.4918596735,0.183449658,0.0055240659
 O,0,2.3431988487,-0.7671757022,-0.2908671791
 C,0,-0.0085823338,0.0248181927,0.0328668493
 C,0,-0.6623751758,0.4151780634,1.3728131173
 F,0,-2.0098457904,0.0813440796,1.3795568876
 F,0,-0.0174600579,-0.2763477516,2.4029242586
 F,0,-0.5337531703,1.7795761121,1.6019032089
 F,0,-0.5751170662,0.8361286557,-0.9787676904
 F,0,-0.3435922208,-1.3168016338,-0.2288497013
 O,0,2.09419537,1.3220521512,0.2593013032
 H,0,3.0901221556,0.3864512072,-0.0432123117
 Recover connectivity data from disk.
 ITRead=  0  0  0  0  0  0  0  0  0  0  0
 MicOpt= -1 -1 -1 -1 -1 -1 -1 -1 -1 -1 -1
 NAtoms=     11 NQM=       11 NQMF=       0 NMMI=      0 NMMIF=      0
                NMic=       0 NMicF=      0.
                    Isotopes and Nuclear Properties:
 (Nuclear quadrupole moments (NQMom) in fm**2, nuclear magnetic moments (NMagM)
  in nuclear magnetons)

  Atom         1           2           3           4           5           6           7           8           9          10
 IAtWgt=          12          16          12          12          19          19          19          19          19          16
 AtmWgt=  12.0000000  15.9949146  12.0000000  12.0000000  18.9984032  18.9984032  18.9984032  18.9984032  18.9984032  15.9949146
 NucSpn=           0           0           0           0           1           1           1           1           1           0
 AtZEff=   3.6000000   5.6000000   3.6000000   3.6000000   6.7500000   6.7500000   6.7500000   6.7500000   6.7500000   5.6000000
 NQMom=    0.0000000   0.0000000   0.0000000   0.0000000   0.0000000   0.0000000   0.0000000   0.0000000   0.0000000   0.0000000
 NMagM=    0.0000000   0.0000000   0.0000000   0.0000000   2.6288670   2.6288670   2.6288670   2.6288670   2.6288670   0.0000000
 AtZNuc=   6.0000000   8.0000000   6.0000000   6.0000000   9.0000000   9.0000000   9.0000000   9.0000000   9.0000000   8.0000000

  Atom        11
 IAtWgt=           1
 AtmWgt=   1.0078250
 NucSpn=           1
 AtZEff=   1.0000000
 NQMom=    0.0000000
 NMagM=    2.7928460
 AtZNuc=   1.0000000
 Leave Link  101 at Sat May 24 03:05:47 2025, MaxMem=  3758096384 cpu:               0.2 elap:               0.2
 (Enter /apps/easybuild-2022/easybuild/software/Compiler/NVHPC/22.11-CUDA-11.7.0/Gaussian/g16c01-CUDA-11.7.0/g16/l123.exe)
 IRC-IRC-IRC-IRC-IRC-IRC-IRC-IRC-IRC-IRC-IRC-IRC-IRC-IRC-IRC-IRC-IRC-IRC
 ------------------------------------------------------------------------
 INPUT DATA FOR L123
 ------------------------------------------------------------------------
 GENERAL PARAMETERS:
 Rxn path following direction = Reverse
 Maximum points per path      = 100
 Step size                    =   0.020 bohr
 Integration scheme           = HPC                                 
    Redo corrector integration= Yes                                 
    DWI Weight Power          =  2
    DWI will use Hessian update vectors when possible.
    Max correction cycles     =  20
 Initial Hessian              = ReadFC from chk
 Hessian evaluation           = All updating
 Hessian updating method      = Bofill                              
 ------------------------------------------------------------------------
          ******** Start new reaction path calculation ********
 RCFC Option Requested - Data Read From Chk File:
 "1642764945472630600001_R_Addition_MultipleBond_1_10_11_IRC_R.chk"
   Energy From Chk =   -761.8779439

 Current Structure is TS -> form Hessian eigenvectors.
                            Recovering Hessian eigenvectors from chk file.
 Supplied step size of   0.0200 bohr.
    Integration on MW PES will use step size of   0.0209 sqrt(amu)*bohr.
 Point Number:   0          Path Number:   1
 Calculating another point on the path.
 Point Number  1 in REVERSE path direction.
 Using LQA Reaction Path Following.
 IRC-IRC-IRC-IRC-IRC-IRC-IRC-IRC-IRC-IRC-IRC-IRC-IRC-IRC-IRC-IRC-IRC-IRC
 Leave Link  123 at Sat May 24 03:05:47 2025, MaxMem=  3758096384 cpu:               0.0 elap:               0.0
 (Enter /apps/easybuild-2022/easybuild/software/Compiler/NVHPC/22.11-CUDA-11.7.0/Gaussian/g16c01-CUDA-11.7.0/g16/l202.exe)
                          Input orientation:                          
 ---------------------------------------------------------------------
 Center     Atomic      Atomic             Coordinates (Angstroms)
 Number     Number       Type             X           Y           Z
 ---------------------------------------------------------------------
      1          6           0        1.383202   -0.047180   -0.578451
      2          8           0        2.234092   -0.997329   -0.874685
      3          6           0       -0.117321   -0.205166   -0.550923
      4          6           0       -0.771115    0.185162    0.789007
      5          9           0       -2.118578   -0.148659    0.795754
      6          9           0       -0.126191   -0.506351    1.819120
      7          9           0       -0.642480    1.549574    1.018097
      8          9           0       -0.683849    0.606129   -1.562574
      9          9           0       -0.452324   -1.546794   -0.812651
     10          8           0        1.985867    1.091995   -0.324542
     11          1           0        2.980204    0.166580   -0.624340
 ---------------------------------------------------------------------
                    Distance matrix (angstroms):
                    1          2          3          4          5
     1  C    0.000000
     2  O    1.309409   0.000000
     3  C    1.509068   2.502297   0.000000
     4  C    2.562227   3.632826   1.541173   0.000000
     5  F    3.763137   4.738813   2.412833   1.388215   0.000000
     6  F    2.870096   3.615049   2.389120   1.398302   2.268222
     7  F    3.033476   4.282991   2.411790   1.389479   2.261040
     8  F    2.380758   3.399801   1.415129   2.390557   2.861794
     9  F    2.381774   2.742734   1.407371   2.380464   2.705208
    10  O    1.313543   2.174753   2.481386   3.108583   4.431790
    11  H    1.611898   1.405006   3.120617   4.008777   5.302229
                    6          7          8          9         10
     6  F    0.000000
     7  F    2.266059   0.000000
     8  F    3.603394   2.748029   0.000000
     9  F    2.848702   3.602124   2.291520   0.000000
    10  O    3.407460   2.986682   2.982645   3.625774   0.000000
    11  H    4.009117   4.211190   3.807726   3.841011   1.391035
                   11
    11  H    0.000000
 Symmetry turned off by external request.
 Stoichiometry    C3HF5O2
 Rotational constants (GHZ):           1.8315389           1.1165810           1.0259187
 Leave Link  202 at Sat May 24 03:05:47 2025, MaxMem=  3758096384 cpu:               0.0 elap:               0.0
 (Enter /apps/easybuild-2022/easybuild/software/Compiler/NVHPC/22.11-CUDA-11.7.0/Gaussian/g16c01-CUDA-11.7.0/g16/l301.exe)
 Standard basis: 6-31G (6D, 7F)
 Ernie: Thresh=  0.10000D-02 Tol=  0.10000D-05 Strict=F.
    92 basis functions,   224 primitive gaussians,    92 cartesian basis functions
    40 alpha electrons       40 beta electrons
       nuclear repulsion energy       619.6147121018 Hartrees.
 IExCor=    0 DFT=F Ex=HF Corr=None ExCW=0 ScaHFX=  1.000000
 ScaDFX=  1.000000  1.000000  1.000000  1.000000 ScalE2=  1.000000  1.000000
 IRadAn=      5 IRanWt=     -1 IRanGd=            0 ICorTp=0 IEmpDi=  4
 NAtoms=   11 NActive=   11 NUniq=   11 SFac= 1.00D+00 NAtFMM=   60 NAOKFM=F Big=F
 Integral buffers will be    131072 words long.
 Raffenetti 1 integral format.
 Two-electron integral symmetry is turned off.
 Leave Link  301 at Sat May 24 03:05:47 2025, MaxMem=  3758096384 cpu:               0.0 elap:               0.0
 (Enter /apps/easybuild-2022/easybuild/software/Compiler/NVHPC/22.11-CUDA-11.7.0/Gaussian/g16c01-CUDA-11.7.0/g16/l302.exe)
 NPDir=0 NMtPBC=     1 NCelOv=     1 NCel=       1 NClECP=     1 NCelD=      1
         NCelK=      1 NCelE2=     1 NClLst=     1 CellRange=     0.0.
 One-electron integrals computed using PRISM.
 NBasis=    92 RedAO= T EigKep=  3.51D-03  NBF=    92
 NBsUse=    92 1.00D-06 EigRej= -1.00D+00 NBFU=    92
 Leave Link  302 at Sat May 24 03:05:47 2025, MaxMem=  3758096384 cpu:               0.2 elap:               0.1
 (Enter /apps/easybuild-2022/easybuild/software/Compiler/NVHPC/22.11-CUDA-11.7.0/Gaussian/g16c01-CUDA-11.7.0/g16/l303.exe)
 DipDrv:  MaxL=1.
 Leave Link  303 at Sat May 24 03:05:47 2025, MaxMem=  3758096384 cpu:               0.0 elap:               0.0
 (Enter /apps/easybuild-2022/easybuild/software/Compiler/NVHPC/22.11-CUDA-11.7.0/Gaussian/g16c01-CUDA-11.7.0/g16/l401.exe)
 Initial guess from the checkpoint file:  "1642764945472630600001_R_Addition_MultipleBond_1_10_11_IRC_R.chk"
 B after Tr=    -0.205444   -0.434543   -1.103204
         Rot=    1.000000   -0.000002    0.000006   -0.000034 Ang=  -0.00 deg.
 Guess basis will be translated and rotated to current coordinates.
 JPrj=2 DoOrth=T DoCkMO=T.
 Mixing orbitals, IMix= 1 IMixAn=  0 NRI=1 NE=   40 Coef=  7.07106781D-01  7.07106781D-01
 Leave Link  401 at Sat May 24 03:05:47 2025, MaxMem=  3758096384 cpu:               0.1 elap:               0.1
 (Enter /apps/easybuild-2022/easybuild/software/Compiler/NVHPC/22.11-CUDA-11.7.0/Gaussian/g16c01-CUDA-11.7.0/g16/l502.exe)
 Keep R1 ints in memory in canonical form, NReq=10820796.
 FoFCou: FMM=F IPFlag=           0 FMFlag=           0 FMFlg1=           0
         NFxFlg=           0 DoJE=F BraDBF=F KetDBF=F FulRan=T
         wScrn=  0.000000 ICntrl=       600 IOpCl=  0 I1Cent=           0 NGrid=           0
         NMat0=    1 NMatS0=   4278 NMatT0=    0 NMatD0=    1 NMtDS0=    0 NMtDT0=    0
 Symmetry not used in FoFCou.
 Two-electron integral symmetry not used.
 Closed shell SCF:
 Using DIIS extrapolation, IDIIS=  1040.
 NGot=  3758096384 LenX=  3748924719 LenY=  3748915814
 Requested convergence on RMS density matrix=1.00D-08 within  32 cycles.
 Requested convergence on MAX density matrix=1.00D-06.
 Requested convergence on             energy=1.00D-06.
 No special actions if energy rises.

 Cycle   1  Pass 1  IDiag  1:
 E= -760.298522007489    
 DIIS: error= 5.78D-02 at cycle   1 NSaved=   1.
 NSaved= 1 IEnMin= 1 EnMin= -760.298522007489     IErMin= 1 ErrMin= 5.78D-02
 ErrMax= 5.78D-02  0.00D+00 EMaxC= 1.00D-01 BMatC= 1.59D-01 BMatP= 1.59D-01
 IDIUse=3 WtCom= 4.22D-01 WtEn= 5.78D-01
 Coeff-Com:  0.100D+01
 Coeff-En:   0.100D+01
 Coeff:      0.100D+01
 Gap=     0.119 Goal=   None    Shift=    0.000
 GapD=    0.119 DampG=1.000 DampE=0.500 DampFc=0.5000 IDamp=-1.
 Damping current iteration by 5.00D-01
 RMSDP=1.08D-02 MaxDP=2.08D-01              OVMax= 4.83D-01

 Cycle   2  Pass 1  IDiag  1:
 E= -760.456797367558     Delta-E=       -0.158275360069 Rises=F Damp=T
 DIIS: error= 2.89D-02 at cycle   2 NSaved=   2.
 NSaved= 2 IEnMin= 2 EnMin= -760.456797367558     IErMin= 2 ErrMin= 2.89D-02
 ErrMax= 2.89D-02  0.00D+00 EMaxC= 1.00D-01 BMatC= 1.74D-02 BMatP= 1.59D-01
 IDIUse=3 WtCom= 7.11D-01 WtEn= 2.89D-01
 Coeff-Com:  0.123D+00 0.877D+00
 Coeff-En:   0.000D+00 0.100D+01
 Coeff:      0.872D-01 0.913D+00
 Gap=     0.468 Goal=   None    Shift=    0.000
 RMSDP=4.61D-03 MaxDP=6.78D-02 DE=-1.58D-01 OVMax= 8.36D-02

 Cycle   3  Pass 1  IDiag  1:
 E= -760.670690884931     Delta-E=       -0.213893517373 Rises=F Damp=F
 DIIS: error= 1.32D-02 at cycle   3 NSaved=   3.
 NSaved= 3 IEnMin= 3 EnMin= -760.670690884931     IErMin= 3 ErrMin= 1.32D-02
 ErrMax= 1.32D-02  0.00D+00 EMaxC= 1.00D-01 BMatC= 8.01D-03 BMatP= 1.74D-02
 IDIUse=3 WtCom= 8.68D-01 WtEn= 1.32D-01
 Coeff-Com:  0.156D+00-0.550D+00 0.139D+01
 Coeff-En:   0.000D+00 0.000D+00 0.100D+01
 Coeff:      0.135D+00-0.477D+00 0.134D+01
 Gap=     0.541 Goal=   None    Shift=    0.000
 RMSDP=2.15D-03 MaxDP=3.22D-02 DE=-2.14D-01 OVMax= 1.04D-01

 Cycle   4  Pass 1  IDiag  1:
 E= -760.692061026356     Delta-E=       -0.021370141425 Rises=F Damp=F
 DIIS: error= 6.75D-03 at cycle   4 NSaved=   4.
 NSaved= 4 IEnMin= 4 EnMin= -760.692061026356     IErMin= 4 ErrMin= 6.75D-03
 ErrMax= 6.75D-03  0.00D+00 EMaxC= 1.00D-01 BMatC= 2.84D-03 BMatP= 8.01D-03
 IDIUse=3 WtCom= 9.32D-01 WtEn= 6.75D-02
 Coeff-Com:  0.947D-01-0.311D+00 0.652D+00 0.565D+00
 Coeff-En:   0.000D+00 0.000D+00 0.000D+00 0.100D+01
 Coeff:      0.883D-01-0.290D+00 0.608D+00 0.594D+00
 Gap=     0.564 Goal=   None    Shift=    0.000
 RMSDP=6.37D-04 MaxDP=1.04D-02 DE=-2.14D-02 OVMax= 2.19D-02

 Cycle   5  Pass 1  IDiag  1:
 E= -760.696375444334     Delta-E=       -0.004314417978 Rises=F Damp=F
 DIIS: error= 5.00D-03 at cycle   5 NSaved=   5.
 NSaved= 5 IEnMin= 5 EnMin= -760.696375444334     IErMin= 5 ErrMin= 5.00D-03
 ErrMax= 5.00D-03  0.00D+00 EMaxC= 1.00D-01 BMatC= 8.45D-04 BMatP= 2.84D-03
 IDIUse=3 WtCom= 9.50D-01 WtEn= 5.00D-02
 Coeff-Com:  0.515D-02 0.358D-01-0.275D+00-0.306D+00 0.154D+01
 Coeff-En:   0.000D+00 0.000D+00 0.000D+00 0.000D+00 0.100D+01
 Coeff:      0.489D-02 0.341D-01-0.261D+00-0.290D+00 0.151D+01
 Gap=     0.550 Goal=   None    Shift=    0.000
 RMSDP=9.52D-04 MaxDP=1.72D-02 DE=-4.31D-03 OVMax= 4.91D-02

 Cycle   6  Pass 1  IDiag  1:
 E= -760.700567398460     Delta-E=       -0.004191954125 Rises=F Damp=F
 DIIS: error= 2.58D-03 at cycle   6 NSaved=   6.
 NSaved= 6 IEnMin= 6 EnMin= -760.700567398460     IErMin= 6 ErrMin= 2.58D-03
 ErrMax= 2.58D-03  0.00D+00 EMaxC= 1.00D-01 BMatC= 2.25D-04 BMatP= 8.45D-04
 IDIUse=3 WtCom= 9.74D-01 WtEn= 2.58D-02
 Coeff-Com: -0.275D-02 0.656D-01-0.127D+00-0.114D+00-0.394D+00 0.157D+01
 Coeff-En:   0.000D+00 0.000D+00 0.000D+00 0.000D+00 0.000D+00 0.100D+01
 Coeff:     -0.268D-02 0.639D-01-0.123D+00-0.111D+00-0.384D+00 0.156D+01
 Gap=     0.550 Goal=   None    Shift=    0.000
 RMSDP=6.89D-04 MaxDP=1.40D-02 DE=-4.19D-03 OVMax= 3.40D-02

 Cycle   7  Pass 1  IDiag  1:
 E= -760.701877633205     Delta-E=       -0.001310234745 Rises=F Damp=F
 DIIS: error= 7.27D-04 at cycle   7 NSaved=   7.
 NSaved= 7 IEnMin= 7 EnMin= -760.701877633205     IErMin= 7 ErrMin= 7.27D-04
 ErrMax= 7.27D-04  0.00D+00 EMaxC= 1.00D-01 BMatC= 2.81D-05 BMatP= 2.25D-04
 IDIUse=3 WtCom= 9.93D-01 WtEn= 7.27D-03
 Coeff-Com:  0.400D-02-0.112D-01 0.318D-01 0.115D+00-0.331D+00 0.980D-01
 Coeff-Com:  0.109D+01
 Coeff-En:   0.000D+00 0.000D+00 0.000D+00 0.000D+00 0.000D+00 0.000D+00
 Coeff-En:   0.100D+01
 Coeff:      0.397D-02-0.111D-01 0.315D-01 0.114D+00-0.328D+00 0.972D-01
 Coeff:      0.109D+01
 Gap=     0.555 Goal=   None    Shift=    0.000
 RMSDP=1.69D-04 MaxDP=3.40D-03 DE=-1.31D-03 OVMax= 8.01D-03

 Cycle   8  Pass 1  IDiag  1:
 E= -760.701970211237     Delta-E=       -0.000092578032 Rises=F Damp=F
 DIIS: error= 3.28D-04 at cycle   8 NSaved=   8.
 NSaved= 8 IEnMin= 8 EnMin= -760.701970211237     IErMin= 8 ErrMin= 3.28D-04
 ErrMax= 3.28D-04  0.00D+00 EMaxC= 1.00D-01 BMatC= 2.60D-06 BMatP= 2.81D-05
 IDIUse=3 WtCom= 9.97D-01 WtEn= 3.28D-03
 Coeff-Com: -0.368D-04-0.483D-02 0.136D-01 0.233D-01 0.225D-02-0.156D+00
 Coeff-Com:  0.147D+00 0.975D+00
 Coeff-En:   0.000D+00 0.000D+00 0.000D+00 0.000D+00 0.000D+00 0.000D+00
 Coeff-En:   0.000D+00 0.100D+01
 Coeff:     -0.367D-04-0.482D-02 0.136D-01 0.232D-01 0.224D-02-0.156D+00
 Coeff:      0.146D+00 0.975D+00
 Gap=     0.555 Goal=   None    Shift=    0.000
 RMSDP=4.42D-05 MaxDP=7.37D-04 DE=-9.26D-05 OVMax= 2.00D-03

 Cycle   9  Pass 1  IDiag  1:
 E= -760.701978589093     Delta-E=       -0.000008377856 Rises=F Damp=F
 DIIS: error= 1.34D-04 at cycle   9 NSaved=   9.
 NSaved= 9 IEnMin= 9 EnMin= -760.701978589093     IErMin= 9 ErrMin= 1.34D-04
 ErrMax= 1.34D-04  0.00D+00 EMaxC= 1.00D-01 BMatC= 5.54D-07 BMatP= 2.60D-06
 IDIUse=3 WtCom= 9.99D-01 WtEn= 1.34D-03
 Coeff-Com: -0.123D-02 0.169D-02-0.189D-02-0.261D-01 0.593D-01-0.818D-02
 Coeff-Com: -0.239D+00-0.145D-01 0.123D+01
 Coeff-En:   0.000D+00 0.000D+00 0.000D+00 0.000D+00 0.000D+00 0.000D+00
 Coeff-En:   0.000D+00 0.000D+00 0.100D+01
 Coeff:     -0.123D-02 0.169D-02-0.189D-02-0.260D-01 0.592D-01-0.817D-02
 Coeff:     -0.239D+00-0.145D-01 0.123D+01
 Gap=     0.555 Goal=   None    Shift=    0.000
 RMSDP=2.48D-05 MaxDP=4.29D-04 DE=-8.38D-06 OVMax= 1.15D-03

 Cycle  10  Pass 1  IDiag  1:
 E= -760.701980465226     Delta-E=       -0.000001876133 Rises=F Damp=F
 DIIS: error= 2.84D-05 at cycle  10 NSaved=  10.
 NSaved=10 IEnMin=10 EnMin= -760.701980465226     IErMin=10 ErrMin= 2.84D-05
 ErrMax= 2.84D-05  0.00D+00 EMaxC= 1.00D-01 BMatC= 3.98D-08 BMatP= 5.54D-07
 IDIUse=1 WtCom= 1.00D+00 WtEn= 0.00D+00
 Coeff-Com:  0.352D-04 0.468D-04-0.417D-03 0.229D-02-0.105D-01 0.176D-01
 Coeff-Com:  0.198D-01-0.120D+00-0.168D+00 0.126D+01
 Coeff:      0.352D-04 0.468D-04-0.417D-03 0.229D-02-0.105D-01 0.176D-01
 Coeff:      0.198D-01-0.120D+00-0.168D+00 0.126D+01
 Gap=     0.555 Goal=   None    Shift=    0.000
 RMSDP=7.62D-06 MaxDP=1.11D-04 DE=-1.88D-06 OVMax= 2.98D-04

 Cycle  11  Pass 1  IDiag  1:
 E= -760.701980596740     Delta-E=       -0.000000131514 Rises=F Damp=F
 DIIS: error= 5.76D-06 at cycle  11 NSaved=  11.
 NSaved=11 IEnMin=11 EnMin= -760.701980596740     IErMin=11 ErrMin= 5.76D-06
 ErrMax= 5.76D-06  0.00D+00 EMaxC= 1.00D-01 BMatC= 2.33D-09 BMatP= 3.98D-08
 IDIUse=1 WtCom= 1.00D+00 WtEn= 0.00D+00
 Coeff-Com:  0.677D-04-0.179D-03 0.292D-03 0.184D-02-0.473D-02 0.198D-02
 Coeff-Com:  0.173D-01-0.147D-01-0.896D-01 0.154D+00 0.934D+00
 Coeff:      0.677D-04-0.179D-03 0.292D-03 0.184D-02-0.473D-02 0.198D-02
 Coeff:      0.173D-01-0.147D-01-0.896D-01 0.154D+00 0.934D+00
 Gap=     0.555 Goal=   None    Shift=    0.000
 RMSDP=1.08D-06 MaxDP=1.55D-05 DE=-1.32D-07 OVMax= 2.43D-05

 Cycle  12  Pass 1  IDiag  1:
 E= -760.701980600840     Delta-E=       -0.000000004100 Rises=F Damp=F
 DIIS: error= 1.69D-06 at cycle  12 NSaved=  12.
 NSaved=12 IEnMin=12 EnMin= -760.701980600840     IErMin=12 ErrMin= 1.69D-06
 ErrMax= 1.69D-06  0.00D+00 EMaxC= 1.00D-01 BMatC= 3.58D-10 BMatP= 2.33D-09
 IDIUse=1 WtCom= 1.00D+00 WtEn= 0.00D+00
 Coeff-Com:  0.950D-06-0.558D-04 0.176D-03-0.285D-03 0.101D-02-0.203D-02
 Coeff-Com: -0.735D-03 0.116D-01 0.117D-01-0.123D+00 0.652D-01 0.104D+01
 Coeff:      0.950D-06-0.558D-04 0.176D-03-0.285D-03 0.101D-02-0.203D-02
 Coeff:     -0.735D-03 0.116D-01 0.117D-01-0.123D+00 0.652D-01 0.104D+01
 Gap=     0.555 Goal=   None    Shift=    0.000
 RMSDP=4.06D-07 MaxDP=5.61D-06 DE=-4.10D-09 OVMax= 9.23D-06

 Cycle  13  Pass 1  IDiag  1:
 E= -760.701980601498     Delta-E=       -0.000000000658 Rises=F Damp=F
 DIIS: error= 7.25D-07 at cycle  13 NSaved=  13.
 NSaved=13 IEnMin=13 EnMin= -760.701980601498     IErMin=13 ErrMin= 7.25D-07
 ErrMax= 7.25D-07  0.00D+00 EMaxC= 1.00D-01 BMatC= 5.34D-11 BMatP= 3.58D-10
 IDIUse=1 WtCom= 1.00D+00 WtEn= 0.00D+00
 Coeff-Com: -0.279D-05-0.171D-04 0.613D-04-0.228D-03 0.455D-03-0.386D-03
 Coeff-Com: -0.129D-02 0.208D-02 0.865D-02-0.195D-01-0.998D-01 0.785D-01
 Coeff-Com:  0.103D+01
 Coeff:     -0.279D-05-0.171D-04 0.613D-04-0.228D-03 0.455D-03-0.386D-03
 Coeff:     -0.129D-02 0.208D-02 0.865D-02-0.195D-01-0.998D-01 0.785D-01
 Coeff:      0.103D+01
 Gap=     0.555 Goal=   None    Shift=    0.000
 RMSDP=1.29D-07 MaxDP=2.13D-06 DE=-6.58D-10 OVMax= 4.22D-06

 Cycle  14  Pass 1  IDiag  1:
 E= -760.701980601601     Delta-E=       -0.000000000103 Rises=F Damp=F
 DIIS: error= 3.28D-07 at cycle  14 NSaved=  14.
 NSaved=14 IEnMin=14 EnMin= -760.701980601601     IErMin=14 ErrMin= 3.28D-07
 ErrMax= 3.28D-07  0.00D+00 EMaxC= 1.00D-01 BMatC= 8.02D-12 BMatP= 5.34D-11
 IDIUse=1 WtCom= 1.00D+00 WtEn= 0.00D+00
 Coeff-Com:  0.139D-05-0.699D-05 0.877D-05 0.799D-04-0.257D-03 0.251D-03
 Coeff-Com:  0.675D-03-0.193D-02-0.402D-02 0.217D-01 0.940D-02-0.176D+00
 Coeff-Com: -0.144D+00 0.129D+01
 Coeff:      0.139D-05-0.699D-05 0.877D-05 0.799D-04-0.257D-03 0.251D-03
 Coeff:      0.675D-03-0.193D-02-0.402D-02 0.217D-01 0.940D-02-0.176D+00
 Coeff:     -0.144D+00 0.129D+01
 Gap=     0.555 Goal=   None    Shift=    0.000
 RMSDP=6.67D-08 MaxDP=1.11D-06 DE=-1.03D-10 OVMax= 2.23D-06

 Cycle  15  Pass 1  IDiag  1:
 E= -760.701980601623     Delta-E=       -0.000000000022 Rises=F Damp=F
 DIIS: error= 1.02D-07 at cycle  15 NSaved=  15.
 NSaved=15 IEnMin=15 EnMin= -760.701980601623     IErMin=15 ErrMin= 1.02D-07
 ErrMax= 1.02D-07  0.00D+00 EMaxC= 1.00D-01 BMatC= 7.60D-13 BMatP= 8.02D-12
 IDIUse=1 WtCom= 1.00D+00 WtEn= 0.00D+00
 Coeff-Com: -0.613D-06 0.683D-06 0.212D-05-0.316D-05 0.232D-04-0.537D-04
 Coeff-Com:  0.152D-04 0.278D-03 0.168D-05-0.350D-02 0.557D-02 0.404D-01
 Coeff-Com: -0.400D-01-0.387D+00 0.138D+01
 Coeff:     -0.613D-06 0.683D-06 0.212D-05-0.316D-05 0.232D-04-0.537D-04
 Coeff:      0.152D-04 0.278D-03 0.168D-05-0.350D-02 0.557D-02 0.404D-01
 Coeff:     -0.400D-01-0.387D+00 0.138D+01
 Gap=     0.555 Goal=   None    Shift=    0.000
 RMSDP=2.35D-08 MaxDP=3.06D-07 DE=-2.23D-11 OVMax= 7.01D-07

 Cycle  16  Pass 1  IDiag  1:
 E= -760.701980601620     Delta-E=        0.000000000003 Rises=F Damp=F
 DIIS: error= 3.60D-08 at cycle  16 NSaved=  16.
 NSaved=16 IEnMin=15 EnMin= -760.701980601623     IErMin=16 ErrMin= 3.60D-08
 ErrMax= 3.60D-08  0.00D+00 EMaxC= 1.00D-01 BMatC= 4.02D-14 BMatP= 7.60D-13
 IDIUse=1 WtCom= 1.00D+00 WtEn= 0.00D+00
 Coeff-Com:  0.500D-07-0.183D-06 0.256D-06-0.728D-05 0.226D-04-0.211D-04
 Coeff-Com: -0.683D-04 0.159D-03 0.421D-03-0.168D-02-0.173D-02 0.113D-01
 Coeff-Com:  0.201D-01-0.647D-01-0.158D+00 0.119D+01
 Coeff:      0.500D-07-0.183D-06 0.256D-06-0.728D-05 0.226D-04-0.211D-04
 Coeff:     -0.683D-04 0.159D-03 0.421D-03-0.168D-02-0.173D-02 0.113D-01
 Coeff:      0.201D-01-0.647D-01-0.158D+00 0.119D+01
 Gap=     0.555 Goal=   None    Shift=    0.000
 RMSDP=5.82D-09 MaxDP=8.60D-08 DE= 2.73D-12 OVMax= 2.35D-07

 SCF Done:  E(RHF) =  -760.701980602     A.U. after   16 cycles
            NFock= 16  Conv=0.58D-08     -V/T= 2.0013
 KE= 7.597237484549D+02 PE=-3.046298810992D+03 EE= 9.062583698339D+02
 Leave Link  502 at Sat May 24 03:05:48 2025, MaxMem=  3758096384 cpu:               0.9 elap:               0.3
 (Enter /apps/easybuild-2022/easybuild/software/Compiler/NVHPC/22.11-CUDA-11.7.0/Gaussian/g16c01-CUDA-11.7.0/g16/l508.exe)
 QCSCF skips out because SCF is already converged.
 Leave Link  508 at Sat May 24 03:05:48 2025, MaxMem=  3758096384 cpu:               0.0 elap:               0.0
 (Enter /apps/easybuild-2022/easybuild/software/Compiler/NVHPC/22.11-CUDA-11.7.0/Gaussian/g16c01-CUDA-11.7.0/g16/l801.exe)
 ExpMin= 1.61D-01 ExpMax= 7.00D+03 ExpMxC= 1.05D+03 IAcc=3 IRadAn=         5 AccDes= 0.00D+00
 HarFok:  IExCor=  205 AccDes= 0.00D+00 IRadAn=         5 IDoV=-2 UseB2=F ITyADJ=14
 ICtDFT= 12500011 ScaDFX=  1.000000  1.000000  1.000000  1.000000
 Largest valence mixing into a core orbital is  1.20D-04
 Largest core mixing into a valence orbital is  5.89D-05
 Range of M.O.s used for correlation:    11    92
 NBasis=    92 NAE=    40 NBE=    40 NFC=    10 NFV=     0
 NROrb=     82 NOA=    30 NOB=    30 NVA=    52 NVB=    52
 Leave Link  801 at Sat May 24 03:05:48 2025, MaxMem=  3758096384 cpu:               0.2 elap:               0.0
 (Enter /apps/easybuild-2022/easybuild/software/Compiler/NVHPC/22.11-CUDA-11.7.0/Gaussian/g16c01-CUDA-11.7.0/g16/l906.exe)
 Frozen-core derivative calculation, NFC=  10 NFV=   0.
 FulOut=F Deriv=T AODrv=T NAtomX=    11
   MMem=        1206  MDisk=          30 MDiskD=          30
  W3Min=      338560 MinDsk=      464230 NBas6D=          92
 NBas2D=        4398    NTT=        4278    LW2=     2000000
    MDV=  3757979244 MDiskM=      425269 NBas2p=        4228
 Fully direct method using O(ONN) memory.
 IMap=   1   2   3   4   5   6   7   8   9  10  11  12  13  14  15  16  17  18  19  20
 IMap=  21  22  23  24  25  26  27  28  29  30  31  32  33  34  35  36  37  38  39  40
 JobTyp=1 Pass  1:  I=  11 to  40 NPSUse=  8 ParTrn=T ParDer=T DoDerP=T.
 Spin components of T(2) and E(2):
     alpha-alpha T2 =       0.5020962493D-01 E2=     -0.1597136269D+00
     alpha-beta  T2 =       0.2675732839D+00 E2=     -0.8565670896D+00
     beta-beta   T2 =       0.5020962493D-01 E2=     -0.1597136269D+00
 The integrals were generated   1 times.
 ANorm=    0.1169612130D+01
 E2 =    -0.1175994343D+01 EUMP2 =    -0.76187797494492D+03
 Leave Link  906 at Sat May 24 03:05:49 2025, MaxMem=  3758096384 cpu:               8.1 elap:               1.1
 (Enter /apps/easybuild-2022/easybuild/software/Compiler/NVHPC/22.11-CUDA-11.7.0/Gaussian/g16c01-CUDA-11.7.0/g16/l1101.exe)
 Leave Link 1101 at Sat May 24 03:05:49 2025, MaxMem=  3758096384 cpu:               0.0 elap:               0.0
 (Enter /apps/easybuild-2022/easybuild/software/Compiler/NVHPC/22.11-CUDA-11.7.0/Gaussian/g16c01-CUDA-11.7.0/g16/l1102.exe)
 Leave Link 1102 at Sat May 24 03:05:49 2025, MaxMem=  3758096384 cpu:               0.0 elap:               0.0
 (Enter /apps/easybuild-2022/easybuild/software/Compiler/NVHPC/22.11-CUDA-11.7.0/Gaussian/g16c01-CUDA-11.7.0/g16/l1110.exe)
 Leave Link 1110 at Sat May 24 03:05:49 2025, MaxMem=  3758096384 cpu:               0.0 elap:               0.0
 (Enter /apps/easybuild-2022/easybuild/software/Compiler/NVHPC/22.11-CUDA-11.7.0/Gaussian/g16c01-CUDA-11.7.0/g16/l1002.exe)
 Minotr:  Closed shell wavefunction.
 Leave Link 1002 at Sat May 24 03:05:49 2025, MaxMem=  3758096384 cpu:               0.0 elap:               0.0
 (Enter /apps/easybuild-2022/easybuild/software/Compiler/NVHPC/22.11-CUDA-11.7.0/Gaussian/g16c01-CUDA-11.7.0/g16/l811.exe)
 Leave Link  811 at Sat May 24 03:05:49 2025, MaxMem=  3758096384 cpu:               0.0 elap:               0.0
 (Enter /apps/easybuild-2022/easybuild/software/Compiler/NVHPC/22.11-CUDA-11.7.0/Gaussian/g16c01-CUDA-11.7.0/g16/l804.exe)
 Leave Link  804 at Sat May 24 03:05:49 2025, MaxMem=  3758096384 cpu:               0.0 elap:               0.0
 (Enter /apps/easybuild-2022/easybuild/software/Compiler/NVHPC/22.11-CUDA-11.7.0/Gaussian/g16c01-CUDA-11.7.0/g16/l1002.exe)
 Minotr:  Closed shell wavefunction.
          Computing MP2/KS-MP2 derivatives.
          Using Z-Vector for PSCF gradient.
          Skipping F1 and S1 gradient terms here.
          IDoAtm=11111111111
          Frozen-core window.
          Direct CPHF calculation.
          Differentiating once with respect to electric field.
                with respect to dipole field.
          Differentiating once with respect to nuclear coordinates.
          Requested convergence is 1.0D-10 RMS, and 1.0D-09 maximum.
          NewPWx=F KeepS1=T KeepF1=T KeepIn=T MapXYZ=F SortEE=F KeepMc=T.
 Keep R1 ints in memory in canonical form, NReq=10824636.
 FoFCou: FMM=F IPFlag=           0 FMFlag=           0 FMFlg1=           0
         NFxFlg=           0 DoJE=F BraDBF=F KetDBF=F FulRan=T
         wScrn=  0.000000 ICntrl=       600 IOpCl=  0 I1Cent=           0 NGrid=           0
         NMat0=    1 NMatS0=   4278 NMatT0=    0 NMatD0=    1 NMtDS0=    0 NMtDT0=    0
 Symmetry not used in FoFCou.
 Two-electron integral symmetry not used.
          MDV=    3758096384 using IRadAn=       5.
          Solving linear equations separately, MaxMat=       0.
          There are     1 degrees of freedom in the 1st order CPHF.  IDoFFX=0 NUNeed=     1.
 LinEq1:  Iter=  0 NonCon=     1 RMS=9.83D-03 Max=2.05D-01 NDo=     1
 AX will form     1 AO Fock derivatives at one time.
 LinEq1:  Iter=  1 NonCon=     1 RMS=3.93D-03 Max=3.15D-02 NDo=     1
 LinEq1:  Iter=  2 NonCon=     1 RMS=1.25D-03 Max=2.34D-02 NDo=     1
 LinEq1:  Iter=  3 NonCon=     1 RMS=4.07D-04 Max=6.55D-03 NDo=     1
 LinEq1:  Iter=  4 NonCon=     1 RMS=1.39D-04 Max=2.16D-03 NDo=     1
 LinEq1:  Iter=  5 NonCon=     1 RMS=7.07D-05 Max=1.10D-03 NDo=     1
 LinEq1:  Iter=  6 NonCon=     1 RMS=2.51D-05 Max=3.49D-04 NDo=     1
 LinEq1:  Iter=  7 NonCon=     1 RMS=1.04D-05 Max=1.42D-04 NDo=     1
 LinEq1:  Iter=  8 NonCon=     1 RMS=2.13D-06 Max=1.84D-05 NDo=     1
 LinEq1:  Iter=  9 NonCon=     1 RMS=6.99D-07 Max=1.00D-05 NDo=     1
 LinEq1:  Iter= 10 NonCon=     1 RMS=2.46D-07 Max=4.35D-06 NDo=     1
 LinEq1:  Iter= 11 NonCon=     1 RMS=1.13D-07 Max=1.37D-06 NDo=     1
 LinEq1:  Iter= 12 NonCon=     1 RMS=2.93D-08 Max=3.01D-07 NDo=     1
 LinEq1:  Iter= 13 NonCon=     1 RMS=4.14D-09 Max=3.65D-08 NDo=     1
 LinEq1:  Iter= 14 NonCon=     1 RMS=1.48D-09 Max=1.53D-08 NDo=     1
 LinEq1:  Iter= 15 NonCon=     1 RMS=5.21D-10 Max=6.21D-09 NDo=     1
 LinEq1:  Iter= 16 NonCon=     1 RMS=1.43D-10 Max=1.19D-09 NDo=     1
 LinEq1:  Iter= 17 NonCon=     0 RMS=4.08D-11 Max=4.70D-10 NDo=     1
 Linear equations converged to 1.000D-10 1.000D-09 after    17 iterations.
 End of Minotr F.D. properties file   721 does not exist.
 End of Minotr F.D. properties file   722 does not exist.
 End of Minotr F.D. properties file   788 does not exist.
 Leave Link 1002 at Sat May 24 03:05:49 2025, MaxMem=  3758096384 cpu:               1.0 elap:               0.3
 (Enter /apps/easybuild-2022/easybuild/software/Compiler/NVHPC/22.11-CUDA-11.7.0/Gaussian/g16c01-CUDA-11.7.0/g16/l1102.exe)
 Use density number 2.
 Symmetrizing basis deriv contribution to polar:
 IMax=3 JMax=2 DiffMx= 0.00D+00
 Leave Link 1102 at Sat May 24 03:05:49 2025, MaxMem=  3758096384 cpu:               0.0 elap:               0.0
 (Enter /apps/easybuild-2022/easybuild/software/Compiler/NVHPC/22.11-CUDA-11.7.0/Gaussian/g16c01-CUDA-11.7.0/g16/l1110.exe)
 Leave Link 1110 at Sat May 24 03:05:49 2025, MaxMem=  3758096384 cpu:               0.0 elap:               0.0
 (Enter /apps/easybuild-2022/easybuild/software/Compiler/NVHPC/22.11-CUDA-11.7.0/Gaussian/g16c01-CUDA-11.7.0/g16/l1112.exe)
 Leave Link 1112 at Sat May 24 03:05:49 2025, MaxMem=  3758096384 cpu:               0.0 elap:               0.0
 (Enter /apps/easybuild-2022/easybuild/software/Compiler/NVHPC/22.11-CUDA-11.7.0/Gaussian/g16c01-CUDA-11.7.0/g16/l701.exe)
 ... and contract with generalized density number  2.
 Compute integral first derivatives.
 Leave Link  701 at Sat May 24 03:05:49 2025, MaxMem=  3758096384 cpu:               0.2 elap:               0.0
 (Enter /apps/easybuild-2022/easybuild/software/Compiler/NVHPC/22.11-CUDA-11.7.0/Gaussian/g16c01-CUDA-11.7.0/g16/l702.exe)
 L702 exits ... SP integral derivatives will be done elsewhere.
 Leave Link  702 at Sat May 24 03:05:50 2025, MaxMem=  3758096384 cpu:               0.0 elap:               0.0
 (Enter /apps/easybuild-2022/easybuild/software/Compiler/NVHPC/22.11-CUDA-11.7.0/Gaussian/g16c01-CUDA-11.7.0/g16/l703.exe)
 Integral derivatives from FoFJK, PRISM(SPDF).
 Compute integral first derivatives, UseDBF=F ICtDFT=           0.
 Calling FoFJK, ICntrl=  10002127 FMM=F ISym2X=0 I1Cent= 0 IOpClX= 0 NMat=1 NMatS=1 NMatT=0.
 FoFJK:  IHMeth= 1 ICntrl=10002127 DoSepK=F KAlg= 0 I1Cent=           0 FoldK=F
 IRaf=         0 NMat=       1 IRICut=       1 DoRegI=T DoRafI=F ISym2E= 0 IDoP0=0 IntGTp=1.
 FoFCou: FMM=F IPFlag=           0 FMFlag=      100000 FMFlg1=         800
         NFxFlg=           0 DoJE=F BraDBF=F KetDBF=F FulRan=T
         wScrn=  0.000000 ICntrl=  10002127 IOpCl=  0 I1Cent=           0 NGrid=           0
         NMat0=    1 NMatS0=      1 NMatT0=    0 NMatD0=    1 NMtDS0=    0 NMtDT0=    0
 Symmetry not used in FoFCou.
 Leave Link  703 at Sat May 24 03:05:50 2025, MaxMem=  3758096384 cpu:               0.6 elap:               0.1
 (Enter /apps/easybuild-2022/easybuild/software/Compiler/NVHPC/22.11-CUDA-11.7.0/Gaussian/g16c01-CUDA-11.7.0/g16/l716.exe)
 Dipole        = 4.65416380D-01 4.96413691D-02-3.01361506D-02
 Polarizability= 0.00000000D+00 0.00000000D+00 0.00000000D+00
                 0.00000000D+00 0.00000000D+00 0.00000000D+00
 -------------------------------------------------------------------
 Center     Atomic                   Forces (Hartrees/Bohr)
 Number     Number              X              Y              Z
 -------------------------------------------------------------------
      1        6           0.000235622   -0.002011372   -0.000550076
      2        8          -0.001600381   -0.000637060   -0.000056740
      3        6          -0.000024195    0.000063768    0.000048169
      4        6          -0.000027278   -0.000038218   -0.000005880
      5        9          -0.000006543    0.000005681    0.000007636
      6        9           0.000002788    0.000006116    0.000000245
      7        9           0.000021293    0.000014550   -0.000009046
      8        9          -0.000002418    0.000023776   -0.000009201
      9        9          -0.000000571    0.000060726    0.000016933
     10        8           0.001740201   -0.000224975   -0.000166328
     11        1          -0.000338516    0.002737007    0.000724288
 -------------------------------------------------------------------
 Cartesian Forces:  Max     0.002737007 RMS     0.000751277
 Leave Link  716 at Sat May 24 03:05:50 2025, MaxMem=  3758096384 cpu:               0.0 elap:               0.0
 (Enter /apps/easybuild-2022/easybuild/software/Compiler/NVHPC/22.11-CUDA-11.7.0/Gaussian/g16c01-CUDA-11.7.0/g16/l123.exe)
 IRC-IRC-IRC-IRC-IRC-IRC-IRC-IRC-IRC-IRC-IRC-IRC-IRC-IRC-IRC-IRC-IRC-IRC
 Pt  1 Step number   1 out of a maximum of  20
 Using modified Bulirsch-Stoer corrector integration.
   Using distance weighted interpolants to fit PES.
 PreDWI: IReCr0= 2 IReCr1= 1 IReCr2= 1 IReCr3= 1
 Modified Bulirsch-Stoer Extrapolation Cycles:
    EPS =    0.000010000000000
    Cycle     1 NS=    48
      PEZero:  N= 2 I= 1 D=  5.45D-05 Err=  1.50D-04
    Cycle     2 NS=    64 Truncation Error =  0.000150092
      PEZero:  N= 3 I= 2 D=  5.45D-05 Err=  1.00D-04
      PEZero:  N= 3 I= 1 D=  1.09D-04 Err=  2.40D-09
    Cycle     3 NS=    96 Truncation Error =  0.000000002
 BS completed in    3 cycles and     208 integration steps.
 Maximum DWI energy   std dev =  0.000000005 at pt     1
 Maximum DWI gradient std dev =  0.003078921 at pt     1
 SUMMARY OF CORRECTOR INTEGRATION:
   Predictor End Point Energy =  -761.877975
   Old End Point Energy       =  -761.877975
   Corrected End Point Energy =  -761.877975
   Predictor End-Start Dist.  =     0.020917
   Old End-Start Dist.        =     0.020917
   New End-Start Dist.        =     0.020917
   New End-Old End Dist.      =     0.000043
 CORRECTOR INTEGRATION CONVERGENCE:
   Recorrection delta-x convergence threshold:    0.010000
   Delta-x Convergence Met
 Point Number:   1          Path Number:   1
                    CURRENT STRUCTURE
                Cartesian Coordinates (Ang):                
 ---------------------------------------------------------------------
 Center     Atomic                     Coordinates (Angstroms)
 Number     Number                        X           Y           Z
 ---------------------------------------------------------------------
      1          6                    1.383201   -0.047180   -0.578451
      2          8                    2.234093   -0.997329   -0.874685
      3          6                   -0.117321   -0.205166   -0.550923
      4          6                   -0.771115    0.185162    0.789007
      5          9                   -2.118578   -0.148659    0.795754
      6          9                   -0.126191   -0.506351    1.819120
      7          9                   -0.642480    1.549575    1.018097
      8          9                   -0.683849    0.606129   -1.562574
      9          9                   -0.452324   -1.546794   -0.812651
     10          8                    1.985868    1.091995   -0.324542
     11          1                    2.980183    0.166577   -0.624339
 ---------------------------------------------------------------------
   CHANGE IN THE REACTION COORDINATE =    0.02092
   NET REACTION COORDINATE UP TO THIS POINT =    0.02092
  # OF POINTS ALONG THE PATH =   1
  # OF STEPS =   1

 Calculating another point on the path.
 Point Number  2 in REVERSE path direction.
 Using LQA Reaction Path Following.
   LQA: T_Est iteration completed in    3 iterations.
 IRC-IRC-IRC-IRC-IRC-IRC-IRC-IRC-IRC-IRC-IRC-IRC-IRC-IRC-IRC-IRC-IRC-IRC
 Leave Link  123 at Sat May 24 03:05:50 2025, MaxMem=  3758096384 cpu:               0.1 elap:               0.1
 (Enter /apps/easybuild-2022/easybuild/software/Compiler/NVHPC/22.11-CUDA-11.7.0/Gaussian/g16c01-CUDA-11.7.0/g16/l202.exe)
                          Input orientation:                          
 ---------------------------------------------------------------------
 Center     Atomic      Atomic             Coordinates (Angstroms)
 Number     Number       Type             X           Y           Z
 ---------------------------------------------------------------------
      1          6           0        1.383274   -0.047804   -0.578622
      2          8           0        2.233720   -0.997478   -0.874698
      3          6           0       -0.117329   -0.205147   -0.550908
      4          6           0       -0.771124    0.185150    0.789005
      5          9           0       -2.118580   -0.148658    0.795755
      6          9           0       -0.126190   -0.506350    1.819120
      7          9           0       -0.642476    1.549577    1.018095
      8          9           0       -0.683849    0.606133   -1.562576
      9          9           0       -0.452324   -1.546782   -0.812648
     10          8           0        1.986273    1.091943   -0.324581
     11          1           0        2.978958    0.176702   -0.621661
 ---------------------------------------------------------------------
                    Distance matrix (angstroms):
                    1          2          3          4          5
     1  C    0.000000
     2  O    1.308739   0.000000
     3  C    1.509083   2.502011   0.000000
     4  C    2.562440   3.632575   1.541151   0.000000
     5  F    3.763251   4.738504   2.412820   1.388204   0.000000
     6  F    2.870176   3.614836   2.389107   1.398301   2.268223
     7  F    3.033941   4.282833   2.411764   1.389494   2.261044
     8  F    2.380924   3.399552   1.415130   2.390560   2.861798
     9  F    2.381411   2.742338   1.407379   2.380444   2.705202
    10  O    1.314218   2.174750   2.481694   3.108952   4.432162
    11  H    1.611975   1.413543   3.120546   4.006640   5.300926
                    6          7          8          9         10
     6  F    0.000000
     7  F    2.266060   0.000000
     8  F    3.603397   2.748028   0.000000
     9  F    2.848695   3.602113   2.291515   0.000000
    10  O    3.407711   2.987061   2.982985   3.625994   0.000000
    11  H    4.008231   4.205755   3.806033   3.844550   1.382515
                   11
    11  H    0.000000
 Symmetry turned off by external request.
 Stoichiometry    C3HF5O2
 Rotational constants (GHZ):           1.8314371           1.1166294           1.0259086
 Leave Link  202 at Sat May 24 03:05:50 2025, MaxMem=  3758096384 cpu:               0.0 elap:               0.0
 (Enter /apps/easybuild-2022/easybuild/software/Compiler/NVHPC/22.11-CUDA-11.7.0/Gaussian/g16c01-CUDA-11.7.0/g16/l301.exe)
 Standard basis: 6-31G (6D, 7F)
 Ernie: Thresh=  0.10000D-02 Tol=  0.10000D-05 Strict=F.
    92 basis functions,   224 primitive gaussians,    92 cartesian basis functions
    40 alpha electrons       40 beta electrons
       nuclear repulsion energy       619.6141473471 Hartrees.
 IExCor=    0 DFT=F Ex=HF Corr=None ExCW=0 ScaHFX=  1.000000
 ScaDFX=  1.000000  1.000000  1.000000  1.000000 ScalE2=  1.000000  1.000000
 IRadAn=      5 IRanWt=     -1 IRanGd=            0 ICorTp=0 IEmpDi=  4
 NAtoms=   11 NActive=   11 NUniq=   11 SFac= 1.00D+00 NAtFMM=   60 NAOKFM=F Big=F
 Integral buffers will be    131072 words long.
 Raffenetti 1 integral format.
 Two-electron integral symmetry is turned off.
 Leave Link  301 at Sat May 24 03:05:50 2025, MaxMem=  3758096384 cpu:               0.0 elap:               0.0
 (Enter /apps/easybuild-2022/easybuild/software/Compiler/NVHPC/22.11-CUDA-11.7.0/Gaussian/g16c01-CUDA-11.7.0/g16/l302.exe)
 NPDir=0 NMtPBC=     1 NCelOv=     1 NCel=       1 NClECP=     1 NCelD=      1
         NCelK=      1 NCelE2=     1 NClLst=     1 CellRange=     0.0.
 One-electron integrals computed using PRISM.
 NBasis=    92 RedAO= T EigKep=  3.51D-03  NBF=    92
 NBsUse=    92 1.00D-06 EigRej= -1.00D+00 NBFU=    92
 Leave Link  302 at Sat May 24 03:05:50 2025, MaxMem=  3758096384 cpu:               0.2 elap:               0.1
 (Enter /apps/easybuild-2022/easybuild/software/Compiler/NVHPC/22.11-CUDA-11.7.0/Gaussian/g16c01-CUDA-11.7.0/g16/l303.exe)
 DipDrv:  MaxL=1.
 Leave Link  303 at Sat May 24 03:05:50 2025, MaxMem=  3758096384 cpu:               0.0 elap:               0.0
 (Enter /apps/easybuild-2022/easybuild/software/Compiler/NVHPC/22.11-CUDA-11.7.0/Gaussian/g16c01-CUDA-11.7.0/g16/l401.exe)
 Initial guess from the checkpoint file:  "1642764945472630600001_R_Addition_MultipleBond_1_10_11_IRC_R.chk"
 B after Tr=    -0.000015    0.000113    0.000030
         Rot=    1.000000   -0.000002    0.000006   -0.000034 Ang=  -0.00 deg.
 Guess basis will be translated and rotated to current coordinates.
 JPrj=2 DoOrth=T DoCkMO=T.
 Generating alternative initial guess.
 ExpMin= 1.61D-01 ExpMax= 7.00D+03 ExpMxC= 1.05D+03 IAcc=3 IRadAn=         5 AccDes= 0.00D+00
 Harris functional with IExCor=  205 and IRadAn=       5 diagonalized for initial guess.
 HarFok:  IExCor=  205 AccDes= 0.00D+00 IRadAn=         5 IDoV= 1 UseB2=F ITyADJ=14
 ICtDFT=  3500011 ScaDFX=  1.000000  1.000000  1.000000  1.000000
 FoFCou: FMM=F IPFlag=           0 FMFlag=      100000 FMFlg1=           0
         NFxFlg=           0 DoJE=T BraDBF=F KetDBF=T FulRan=T
         wScrn=  0.000000 ICntrl=       500 IOpCl=  0 I1Cent=   200000004 NGrid=           0
         NMat0=    1 NMatS0=      1 NMatT0=    0 NMatD0=    1 NMtDS0=    0 NMtDT0=    0
 Symmetry not used in FoFCou.
 Harris En= -760.838731462814    
 Leave Link  401 at Sat May 24 03:05:50 2025, MaxMem=  3758096384 cpu:               0.7 elap:               0.1
 (Enter /apps/easybuild-2022/easybuild/software/Compiler/NVHPC/22.11-CUDA-11.7.0/Gaussian/g16c01-CUDA-11.7.0/g16/l502.exe)
 Keep R1 ints in memory in canonical form, NReq=10820796.
 FoFCou: FMM=F IPFlag=           0 FMFlag=           0 FMFlg1=           0
         NFxFlg=           0 DoJE=F BraDBF=F KetDBF=F FulRan=T
         wScrn=  0.000000 ICntrl=       600 IOpCl=  0 I1Cent=           0 NGrid=           0
         NMat0=    1 NMatS0=   4278 NMatT0=    0 NMatD0=    1 NMtDS0=    0 NMtDT0=    0
 Symmetry not used in FoFCou.
 Two-electron integral symmetry not used.
 Closed shell SCF:
 Using DIIS extrapolation, IDIIS=  1040.
 NGot=  3758096384 LenX=  3748924719 LenY=  3748915814
 Requested convergence on RMS density matrix=1.00D-08 within  32 cycles.
 Requested convergence on MAX density matrix=1.00D-06.
 Requested convergence on             energy=1.00D-06.
 No special actions if energy rises.

 Cycle   1  Pass 1  IDiag  1:
 E= -760.702073678657    
 DIIS: error= 8.49D-04 at cycle   1 NSaved=   1.
 NSaved= 1 IEnMin= 1 EnMin= -760.702073678657     IErMin= 1 ErrMin= 8.49D-04
 ErrMax= 8.49D-04  0.00D+00 EMaxC= 1.00D-01 BMatC= 1.83D-05 BMatP= 1.83D-05
 IDIUse=3 WtCom= 9.92D-01 WtEn= 8.49D-03
 Coeff-Com:  0.100D+01
 Coeff-En:   0.100D+01
 Coeff:      0.100D+01
 Gap=     1.165 Goal=   None    Shift=    0.000
 RMSDP=1.07D-04 MaxDP=1.39D-03              OVMax= 1.47D-03

 Cycle   2  Pass 1  IDiag  1:
 E= -760.702108487289     Delta-E=       -0.000034808632 Rises=F Damp=F
 DIIS: error= 5.18D-04 at cycle   2 NSaved=   2.
 NSaved= 2 IEnMin= 2 EnMin= -760.702108487289     IErMin= 2 ErrMin= 5.18D-04
 ErrMax= 5.18D-04  0.00D+00 EMaxC= 1.00D-01 BMatC= 4.29D-06 BMatP= 1.83D-05
 IDIUse=3 WtCom= 9.95D-01 WtEn= 5.18D-03
 Coeff-Com:  0.719D-01 0.928D+00
 Coeff-En:   0.000D+00 0.100D+01
 Coeff:      0.715D-01 0.928D+00
 Gap=     0.555 Goal=   None    Shift=    0.000
 RMSDP=3.39D-05 MaxDP=6.62D-04 DE=-3.48D-05 OVMax= 1.59D-03

 Cycle   3  Pass 1  IDiag  1:
 E= -760.702116135679     Delta-E=       -0.000007648389 Rises=F Damp=F
 DIIS: error= 2.87D-04 at cycle   3 NSaved=   3.
 NSaved= 3 IEnMin= 3 EnMin= -760.702116135679     IErMin= 3 ErrMin= 2.87D-04
 ErrMax= 2.87D-04  0.00D+00 EMaxC= 1.00D-01 BMatC= 2.37D-06 BMatP= 4.29D-06
 IDIUse=3 WtCom= 9.97D-01 WtEn= 2.87D-03
 Coeff-Com: -0.215D+00 0.429D+00 0.786D+00
 Coeff-En:   0.000D+00 0.000D+00 0.100D+01
 Coeff:     -0.214D+00 0.428D+00 0.786D+00
 Gap=     0.555 Goal=   None    Shift=    0.000
 RMSDP=2.47D-05 MaxDP=5.07D-04 DE=-7.65D-06 OVMax= 1.21D-03

 Cycle   4  Pass 1  IDiag  1:
 E= -760.702120922677     Delta-E=       -0.000004786998 Rises=F Damp=F
 DIIS: error= 1.33D-04 at cycle   4 NSaved=   4.
 NSaved= 4 IEnMin= 4 EnMin= -760.702120922677     IErMin= 4 ErrMin= 1.33D-04
 ErrMax= 1.33D-04  0.00D+00 EMaxC= 1.00D-01 BMatC= 3.10D-07 BMatP= 2.37D-06
 IDIUse=3 WtCom= 9.99D-01 WtEn= 1.33D-03
 Coeff-Com:  0.243D+00-0.704D+00-0.838D+00 0.230D+01
 Coeff-En:   0.000D+00 0.000D+00 0.000D+00 0.100D+01
 Coeff:      0.242D+00-0.703D+00-0.837D+00 0.230D+01
 Gap=     0.555 Goal=   None    Shift=    0.000
 RMSDP=3.24D-05 MaxDP=4.91D-04 DE=-4.79D-06 OVMax= 1.33D-03

 Cycle   5  Pass 1  IDiag  1:
 E= -760.702123250029     Delta-E=       -0.000002327352 Rises=F Damp=F
 DIIS: error= 2.05D-05 at cycle   5 NSaved=   5.
 NSaved= 5 IEnMin= 5 EnMin= -760.702123250029     IErMin= 5 ErrMin= 2.05D-05
 ErrMax= 2.05D-05  0.00D+00 EMaxC= 1.00D-01 BMatC= 1.76D-08 BMatP= 3.10D-07
 IDIUse=1 WtCom= 1.00D+00 WtEn= 0.00D+00
 Coeff-Com: -0.408D-01 0.125D+00 0.175D+00-0.589D+00 0.133D+01
 Coeff:     -0.408D-01 0.125D+00 0.175D+00-0.589D+00 0.133D+01
 Gap=     0.555 Goal=   None    Shift=    0.000
 RMSDP=5.56D-06 MaxDP=1.14D-04 DE=-2.33D-06 OVMax= 2.65D-04

 Cycle   6  Pass 1  IDiag  1:
 E= -760.702123337496     Delta-E=       -0.000000087467 Rises=F Damp=F
 DIIS: error= 8.72D-06 at cycle   6 NSaved=   6.
 NSaved= 6 IEnMin= 6 EnMin= -760.702123337496     IErMin= 6 ErrMin= 8.72D-06
 ErrMax= 8.72D-06  0.00D+00 EMaxC= 1.00D-01 BMatC= 4.72D-09 BMatP= 1.76D-08
 IDIUse=1 WtCom= 1.00D+00 WtEn= 0.00D+00
 Coeff-Com: -0.459D-01 0.131D+00 0.182D+00-0.505D+00 0.396D+00 0.843D+00
 Coeff:     -0.459D-01 0.131D+00 0.182D+00-0.505D+00 0.396D+00 0.843D+00
 Gap=     0.555 Goal=   None    Shift=    0.000
 RMSDP=1.61D-06 MaxDP=3.00D-05 DE=-8.75D-08 OVMax= 6.65D-05

 Cycle   7  Pass 1  IDiag  1:
 E= -760.702123347418     Delta-E=       -0.000000009922 Rises=F Damp=F
 DIIS: error= 4.24D-06 at cycle   7 NSaved=   7.
 NSaved= 7 IEnMin= 7 EnMin= -760.702123347418     IErMin= 7 ErrMin= 4.24D-06
 ErrMax= 4.24D-06  0.00D+00 EMaxC= 1.00D-01 BMatC= 7.67D-10 BMatP= 4.72D-09
 IDIUse=1 WtCom= 1.00D+00 WtEn= 0.00D+00
 Coeff-Com:  0.161D-01-0.518D-01-0.559D-01 0.203D+00-0.380D+00-0.123D+00
 Coeff-Com:  0.139D+01
 Coeff:      0.161D-01-0.518D-01-0.559D-01 0.203D+00-0.380D+00-0.123D+00
 Coeff:      0.139D+01
 Gap=     0.555 Goal=   None    Shift=    0.000
 RMSDP=1.00D-06 MaxDP=1.50D-05 DE=-9.92D-09 OVMax= 3.80D-05

 Cycle   8  Pass 1  IDiag  1:
 E= -760.702123349706     Delta-E=       -0.000000002287 Rises=F Damp=F
 DIIS: error= 7.81D-07 at cycle   8 NSaved=   8.
 NSaved= 8 IEnMin= 8 EnMin= -760.702123349706     IErMin= 8 ErrMin= 7.81D-07
 ErrMax= 7.81D-07  0.00D+00 EMaxC= 1.00D-01 BMatC= 3.06D-11 BMatP= 7.67D-10
 IDIUse=1 WtCom= 1.00D+00 WtEn= 0.00D+00
 Coeff-Com:  0.156D-02-0.457D-02-0.567D-02 0.151D-01-0.164D-02-0.438D-01
 Coeff-Com: -0.810D-01 0.112D+01
 Coeff:      0.156D-02-0.457D-02-0.567D-02 0.151D-01-0.164D-02-0.438D-01
 Coeff:     -0.810D-01 0.112D+01
 Gap=     0.555 Goal=   None    Shift=    0.000
 RMSDP=1.54D-07 MaxDP=2.51D-06 DE=-2.29D-09 OVMax= 5.98D-06

 Cycle   9  Pass 1  IDiag  1:
 E= -760.702123349788     Delta-E=       -0.000000000083 Rises=F Damp=F
 DIIS: error= 2.06D-07 at cycle   9 NSaved=   9.
 NSaved= 9 IEnMin= 9 EnMin= -760.702123349788     IErMin= 9 ErrMin= 2.06D-07
 ErrMax= 2.06D-07  0.00D+00 EMaxC= 1.00D-01 BMatC= 6.10D-12 BMatP= 3.06D-11
 IDIUse=1 WtCom= 1.00D+00 WtEn= 0.00D+00
 Coeff-Com: -0.180D-02 0.583D-02 0.627D-02-0.242D-01 0.531D-01 0.379D-02
 Coeff-Com: -0.222D+00 0.378D+00 0.801D+00
 Coeff:     -0.180D-02 0.583D-02 0.627D-02-0.242D-01 0.531D-01 0.379D-02
 Coeff:     -0.222D+00 0.378D+00 0.801D+00
 Gap=     0.555 Goal=   None    Shift=    0.000
 RMSDP=4.51D-08 MaxDP=6.25D-07 DE=-8.28D-11 OVMax= 1.33D-06

 Cycle  10  Pass 1  IDiag  1:
 E= -760.702123349781     Delta-E=        0.000000000007 Rises=F Damp=F
 DIIS: error= 5.63D-08 at cycle  10 NSaved=  10.
 NSaved=10 IEnMin= 9 EnMin= -760.702123349788     IErMin=10 ErrMin= 5.63D-08
 ErrMax= 5.63D-08  0.00D+00 EMaxC= 1.00D-01 BMatC= 1.70D-13 BMatP= 6.10D-12
 IDIUse=1 WtCom= 1.00D+00 WtEn= 0.00D+00
 Coeff-Com:  0.239D-03-0.823D-03-0.803D-03 0.366D-02-0.107D-01 0.211D-02
 Coeff-Com:  0.511D-01-0.142D+00-0.176D+00 0.127D+01
 Coeff:      0.239D-03-0.823D-03-0.803D-03 0.366D-02-0.107D-01 0.211D-02
 Coeff:      0.511D-01-0.142D+00-0.176D+00 0.127D+01
 Gap=     0.555 Goal=   None    Shift=    0.000
 RMSDP=1.64D-08 MaxDP=2.09D-07 DE= 7.28D-12 OVMax= 2.32D-07

 Cycle  11  Pass 1  IDiag  1:
 E= -760.702123349794     Delta-E=       -0.000000000013 Rises=F Damp=F
 DIIS: error= 1.56D-08 at cycle  11 NSaved=  11.
 NSaved=11 IEnMin=11 EnMin= -760.702123349794     IErMin=11 ErrMin= 1.56D-08
 ErrMax= 1.56D-08  0.00D+00 EMaxC= 1.00D-01 BMatC= 1.53D-14 BMatP= 1.70D-13
 IDIUse=1 WtCom= 1.00D+00 WtEn= 0.00D+00
 Coeff-Com:  0.142D-03-0.467D-03-0.487D-03 0.193D-02-0.432D-02-0.401D-03
 Coeff-Com:  0.185D-01-0.324D-01-0.618D-01 0.155D-01 0.106D+01
 Coeff:      0.142D-03-0.467D-03-0.487D-03 0.193D-02-0.432D-02-0.401D-03
 Coeff:      0.185D-01-0.324D-01-0.618D-01 0.155D-01 0.106D+01
 Gap=     0.555 Goal=   None    Shift=    0.000
 RMSDP=3.06D-09 MaxDP=4.37D-08 DE=-1.27D-11 OVMax= 6.73D-08

 SCF Done:  E(RHF) =  -760.702123350     A.U. after   11 cycles
            NFock= 11  Conv=0.31D-08     -V/T= 2.0013
 KE= 7.597241169895D+02 PE=-3.046297137897D+03 EE= 9.062567502106D+02
 Leave Link  502 at Sat May 24 03:05:50 2025, MaxMem=  3758096384 cpu:               0.7 elap:               0.2
 (Enter /apps/easybuild-2022/easybuild/software/Compiler/NVHPC/22.11-CUDA-11.7.0/Gaussian/g16c01-CUDA-11.7.0/g16/l508.exe)
 QCSCF skips out because SCF is already converged.
 Leave Link  508 at Sat May 24 03:05:50 2025, MaxMem=  3758096384 cpu:               0.0 elap:               0.0
 (Enter /apps/easybuild-2022/easybuild/software/Compiler/NVHPC/22.11-CUDA-11.7.0/Gaussian/g16c01-CUDA-11.7.0/g16/l801.exe)
 ExpMin= 1.61D-01 ExpMax= 7.00D+03 ExpMxC= 1.05D+03 IAcc=3 IRadAn=         5 AccDes= 0.00D+00
 HarFok:  IExCor=  205 AccDes= 0.00D+00 IRadAn=         5 IDoV=-2 UseB2=F ITyADJ=14
 ICtDFT= 12500011 ScaDFX=  1.000000  1.000000  1.000000  1.000000
 Largest valence mixing into a core orbital is  1.20D-04
 Largest core mixing into a valence orbital is  5.89D-05
 Range of M.O.s used for correlation:    11    92
 NBasis=    92 NAE=    40 NBE=    40 NFC=    10 NFV=     0
 NROrb=     82 NOA=    30 NOB=    30 NVA=    52 NVB=    52
 Leave Link  801 at Sat May 24 03:05:50 2025, MaxMem=  3758096384 cpu:               0.2 elap:               0.0
 (Enter /apps/easybuild-2022/easybuild/software/Compiler/NVHPC/22.11-CUDA-11.7.0/Gaussian/g16c01-CUDA-11.7.0/g16/l906.exe)
 Frozen-core derivative calculation, NFC=  10 NFV=   0.
 FulOut=F Deriv=T AODrv=T NAtomX=    11
   MMem=        1206  MDisk=          30 MDiskD=          30
  W3Min=      338560 MinDsk=      464230 NBas6D=          92
 NBas2D=        4398    NTT=        4278    LW2=     2000000
    MDV=  3757979244 MDiskM=      425269 NBas2p=        4228
 Fully direct method using O(ONN) memory.
 IMap=   1   2   3   4   5   6   7   8   9  10  11  12  13  14  15  16  17  18  19  20
 IMap=  21  22  23  24  25  26  27  28  29  30  31  32  33  34  35  36  37  38  39  40
 JobTyp=1 Pass  1:  I=  11 to  40 NPSUse=  8 ParTrn=T ParDer=T DoDerP=T.
 Spin components of T(2) and E(2):
     alpha-alpha T2 =       0.5020086305D-01 E2=     -0.1597013769D+00
     alpha-beta  T2 =       0.2675540425D+00 E2=     -0.8565419072D+00
     beta-beta   T2 =       0.5020086305D-01 E2=     -0.1597013769D+00
 The integrals were generated   1 times.
 ANorm=    0.1169596413D+01
 E2 =    -0.1175944661D+01 EUMP2 =    -0.76187806801074D+03
 Leave Link  906 at Sat May 24 03:05:51 2025, MaxMem=  3758096384 cpu:               8.0 elap:               1.1
 (Enter /apps/easybuild-2022/easybuild/software/Compiler/NVHPC/22.11-CUDA-11.7.0/Gaussian/g16c01-CUDA-11.7.0/g16/l1101.exe)
 Leave Link 1101 at Sat May 24 03:05:52 2025, MaxMem=  3758096384 cpu:               0.0 elap:               0.0
 (Enter /apps/easybuild-2022/easybuild/software/Compiler/NVHPC/22.11-CUDA-11.7.0/Gaussian/g16c01-CUDA-11.7.0/g16/l1102.exe)
 Leave Link 1102 at Sat May 24 03:05:52 2025, MaxMem=  3758096384 cpu:               0.0 elap:               0.0
 (Enter /apps/easybuild-2022/easybuild/software/Compiler/NVHPC/22.11-CUDA-11.7.0/Gaussian/g16c01-CUDA-11.7.0/g16/l1110.exe)
 Leave Link 1110 at Sat May 24 03:05:52 2025, MaxMem=  3758096384 cpu:               0.0 elap:               0.0
 (Enter /apps/easybuild-2022/easybuild/software/Compiler/NVHPC/22.11-CUDA-11.7.0/Gaussian/g16c01-CUDA-11.7.0/g16/l1002.exe)
 Minotr:  Closed shell wavefunction.
 Leave Link 1002 at Sat May 24 03:05:52 2025, MaxMem=  3758096384 cpu:               0.0 elap:               0.0
 (Enter /apps/easybuild-2022/easybuild/software/Compiler/NVHPC/22.11-CUDA-11.7.0/Gaussian/g16c01-CUDA-11.7.0/g16/l811.exe)
 Leave Link  811 at Sat May 24 03:05:52 2025, MaxMem=  3758096384 cpu:               0.0 elap:               0.0
 (Enter /apps/easybuild-2022/easybuild/software/Compiler/NVHPC/22.11-CUDA-11.7.0/Gaussian/g16c01-CUDA-11.7.0/g16/l804.exe)
 Leave Link  804 at Sat May 24 03:05:52 2025, MaxMem=  3758096384 cpu:               0.0 elap:               0.0
 (Enter /apps/easybuild-2022/easybuild/software/Compiler/NVHPC/22.11-CUDA-11.7.0/Gaussian/g16c01-CUDA-11.7.0/g16/l1002.exe)
 Minotr:  Closed shell wavefunction.
          Computing MP2/KS-MP2 derivatives.
          Using Z-Vector for PSCF gradient.
          Skipping F1 and S1 gradient terms here.
          IDoAtm=11111111111
          Frozen-core window.
          Direct CPHF calculation.
          Differentiating once with respect to electric field.
                with respect to dipole field.
          Differentiating once with respect to nuclear coordinates.
          Requested convergence is 1.0D-10 RMS, and 1.0D-09 maximum.
          NewPWx=F KeepS1=T KeepF1=T KeepIn=T MapXYZ=F SortEE=F KeepMc=T.
 Keep R1 ints in memory in canonical form, NReq=10824636.
 FoFCou: FMM=F IPFlag=           0 FMFlag=           0 FMFlg1=           0
         NFxFlg=           0 DoJE=F BraDBF=F KetDBF=F FulRan=T
         wScrn=  0.000000 ICntrl=       600 IOpCl=  0 I1Cent=           0 NGrid=           0
         NMat0=    1 NMatS0=   4278 NMatT0=    0 NMatD0=    1 NMtDS0=    0 NMtDT0=    0
 Symmetry not used in FoFCou.
 Two-electron integral symmetry not used.
          MDV=    3758096384 using IRadAn=       5.
          Solving linear equations separately, MaxMat=       0.
          There are     1 degrees of freedom in the 1st order CPHF.  IDoFFX=0 NUNeed=     1.
 LinEq1:  Iter=  0 NonCon=     1 RMS=9.83D-03 Max=2.05D-01 NDo=     1
 AX will form     1 AO Fock derivatives at one time.
 LinEq1:  Iter=  1 NonCon=     1 RMS=3.93D-03 Max=3.41D-02 NDo=     1
 LinEq1:  Iter=  2 NonCon=     1 RMS=1.25D-03 Max=2.34D-02 NDo=     1
 LinEq1:  Iter=  3 NonCon=     1 RMS=4.15D-04 Max=6.57D-03 NDo=     1
 LinEq1:  Iter=  4 NonCon=     1 RMS=1.53D-04 Max=2.65D-03 NDo=     1
 LinEq1:  Iter=  5 NonCon=     1 RMS=7.72D-05 Max=1.15D-03 NDo=     1
 LinEq1:  Iter=  6 NonCon=     1 RMS=2.64D-05 Max=2.89D-04 NDo=     1
 LinEq1:  Iter=  7 NonCon=     1 RMS=1.04D-05 Max=1.45D-04 NDo=     1
 LinEq1:  Iter=  8 NonCon=     1 RMS=2.09D-06 Max=1.83D-05 NDo=     1
 LinEq1:  Iter=  9 NonCon=     1 RMS=6.69D-07 Max=1.03D-05 NDo=     1
 LinEq1:  Iter= 10 NonCon=     1 RMS=2.28D-07 Max=4.86D-06 NDo=     1
 LinEq1:  Iter= 11 NonCon=     1 RMS=1.08D-07 Max=1.78D-06 NDo=     1
 LinEq1:  Iter= 12 NonCon=     1 RMS=2.86D-08 Max=2.90D-07 NDo=     1
 LinEq1:  Iter= 13 NonCon=     1 RMS=4.09D-09 Max=3.60D-08 NDo=     1
 LinEq1:  Iter= 14 NonCon=     1 RMS=1.47D-09 Max=1.53D-08 NDo=     1
 LinEq1:  Iter= 15 NonCon=     1 RMS=5.15D-10 Max=6.26D-09 NDo=     1
 LinEq1:  Iter= 16 NonCon=     1 RMS=1.42D-10 Max=1.17D-09 NDo=     1
 LinEq1:  Iter= 17 NonCon=     0 RMS=3.94D-11 Max=4.96D-10 NDo=     1
 Linear equations converged to 1.000D-10 1.000D-09 after    17 iterations.
 End of Minotr F.D. properties file   721 does not exist.
 End of Minotr F.D. properties file   722 does not exist.
 End of Minotr F.D. properties file   788 does not exist.
 Leave Link 1002 at Sat May 24 03:05:52 2025, MaxMem=  3758096384 cpu:               1.0 elap:               0.3
 (Enter /apps/easybuild-2022/easybuild/software/Compiler/NVHPC/22.11-CUDA-11.7.0/Gaussian/g16c01-CUDA-11.7.0/g16/l1102.exe)
 Use density number 2.
 Symmetrizing basis deriv contribution to polar:
 IMax=3 JMax=2 DiffMx= 0.00D+00
 Leave Link 1102 at Sat May 24 03:05:52 2025, MaxMem=  3758096384 cpu:               0.1 elap:               0.0
 (Enter /apps/easybuild-2022/easybuild/software/Compiler/NVHPC/22.11-CUDA-11.7.0/Gaussian/g16c01-CUDA-11.7.0/g16/l1110.exe)
 Leave Link 1110 at Sat May 24 03:05:52 2025, MaxMem=  3758096384 cpu:               0.0 elap:               0.0
 (Enter /apps/easybuild-2022/easybuild/software/Compiler/NVHPC/22.11-CUDA-11.7.0/Gaussian/g16c01-CUDA-11.7.0/g16/l1112.exe)
 Leave Link 1112 at Sat May 24 03:05:52 2025, MaxMem=  3758096384 cpu:               0.0 elap:               0.0
 (Enter /apps/easybuild-2022/easybuild/software/Compiler/NVHPC/22.11-CUDA-11.7.0/Gaussian/g16c01-CUDA-11.7.0/g16/l701.exe)
 ... and contract with generalized density number  2.
 Compute integral first derivatives.
 Leave Link  701 at Sat May 24 03:05:52 2025, MaxMem=  3758096384 cpu:               0.2 elap:               0.1
 (Enter /apps/easybuild-2022/easybuild/software/Compiler/NVHPC/22.11-CUDA-11.7.0/Gaussian/g16c01-CUDA-11.7.0/g16/l702.exe)
 L702 exits ... SP integral derivatives will be done elsewhere.
 Leave Link  702 at Sat May 24 03:05:52 2025, MaxMem=  3758096384 cpu:               0.0 elap:               0.0
 (Enter /apps/easybuild-2022/easybuild/software/Compiler/NVHPC/22.11-CUDA-11.7.0/Gaussian/g16c01-CUDA-11.7.0/g16/l703.exe)
 Integral derivatives from FoFJK, PRISM(SPDF).
 Compute integral first derivatives, UseDBF=F ICtDFT=           0.
 Calling FoFJK, ICntrl=  10002127 FMM=F ISym2X=0 I1Cent= 0 IOpClX= 0 NMat=1 NMatS=1 NMatT=0.
 FoFJK:  IHMeth= 1 ICntrl=10002127 DoSepK=F KAlg= 0 I1Cent=           0 FoldK=F
 IRaf=         0 NMat=       1 IRICut=       1 DoRegI=T DoRafI=F ISym2E= 0 IDoP0=0 IntGTp=1.
 FoFCou: FMM=F IPFlag=           0 FMFlag=      100000 FMFlg1=         800
         NFxFlg=           0 DoJE=F BraDBF=F KetDBF=F FulRan=T
         wScrn=  0.000000 ICntrl=  10002127 IOpCl=  0 I1Cent=           0 NGrid=           0
         NMat0=    1 NMatS0=      1 NMatT0=    0 NMatD0=    1 NMtDS0=    0 NMtDT0=    0
 Symmetry not used in FoFCou.
 Leave Link  703 at Sat May 24 03:05:52 2025, MaxMem=  3758096384 cpu:               0.6 elap:               0.1
 (Enter /apps/easybuild-2022/easybuild/software/Compiler/NVHPC/22.11-CUDA-11.7.0/Gaussian/g16c01-CUDA-11.7.0/g16/l716.exe)
 Dipole        = 4.65010102D-01 5.52863569D-02-2.84805480D-02
 Polarizability= 0.00000000D+00 0.00000000D+00 0.00000000D+00
                 0.00000000D+00 0.00000000D+00 0.00000000D+00
 -------------------------------------------------------------------
 Center     Atomic                   Forces (Hartrees/Bohr)
 Number     Number              X              Y              Z
 -------------------------------------------------------------------
      1        6           0.000460817   -0.004019269   -0.001099104
      2        8          -0.003181609   -0.001266957   -0.000112831
      3        6          -0.000049761    0.000126744    0.000097465
      4        6          -0.000054890   -0.000076230   -0.000013022
      5        9          -0.000013455    0.000011340    0.000015650
      6        9           0.000005783    0.000012237    0.000000678
      7        9           0.000042407    0.000029152   -0.000017766
      8        9          -0.000005190    0.000048179   -0.000018749
      9        9          -0.000001019    0.000121308    0.000033878
     10        8           0.003492688   -0.000451973   -0.000333813
     11        1          -0.000695771    0.005465469    0.001447614
 -------------------------------------------------------------------
 Cartesian Forces:  Max     0.005465469 RMS     0.001500913
 Leave Link  716 at Sat May 24 03:05:52 2025, MaxMem=  3758096384 cpu:               0.0 elap:               0.0
 (Enter /apps/easybuild-2022/easybuild/software/Compiler/NVHPC/22.11-CUDA-11.7.0/Gaussian/g16c01-CUDA-11.7.0/g16/l123.exe)
 IRC-IRC-IRC-IRC-IRC-IRC-IRC-IRC-IRC-IRC-IRC-IRC-IRC-IRC-IRC-IRC-IRC-IRC
 Pt  2 Step number   1 out of a maximum of  20
 Using modified Bulirsch-Stoer corrector integration.
   Using distance weighted interpolants to fit PES.
 PreDWI: IReCr0= 2 IReCr1= 1 IReCr2= 1 IReCr3= 1
 Modified Bulirsch-Stoer Extrapolation Cycles:
    EPS =    0.000010000000000
    Cycle     1 NS=    48
      PEZero:  N= 2 I= 1 D=  1.09D-04 Err=  5.51D-07
    Cycle     2 NS=    64 Truncation Error =  0.000000551
 BS completed in    2 cycles and     112 integration steps.
 Maximum DWI energy   std dev =  0.000000007 at pt    47
 Maximum DWI gradient std dev =  0.002144542 at pt    27
 SUMMARY OF CORRECTOR INTEGRATION:
   Predictor End Point Energy =  -761.878068
   Old End Point Energy       =  -761.878068
   Corrected End Point Energy =  -761.878068
   Predictor End-Start Dist.  =     0.020910
   Old End-Start Dist.        =     0.020910
   New End-Start Dist.        =     0.020910
   New End-Old End Dist.      =     0.000046
 CORRECTOR INTEGRATION CONVERGENCE:
   Recorrection delta-x convergence threshold:    0.010000
   Delta-x Convergence Met
 Point Number:   2          Path Number:   1
                    CURRENT STRUCTURE
                Cartesian Coordinates (Ang):                
 ---------------------------------------------------------------------
 Center     Atomic                     Coordinates (Angstroms)
 Number     Number                        X           Y           Z
 ---------------------------------------------------------------------
      1          6                    1.383273   -0.047804   -0.578622
      2          8                    2.233721   -0.997477   -0.874698
      3          6                   -0.117329   -0.205147   -0.550908
      4          6                   -0.771124    0.185150    0.789005
      5          9                   -2.118580   -0.148658    0.795755
      6          9                   -0.126190   -0.506350    1.819120
      7          9                   -0.642476    1.549577    1.018095
      8          9                   -0.683849    0.606134   -1.562576
      9          9                   -0.452324   -1.546782   -0.812648
     10          8                    1.986274    1.091943   -0.324581
     11          1                    2.978934    0.176699   -0.621661
 ---------------------------------------------------------------------
   CHANGE IN THE REACTION COORDINATE =    0.02091
   NET REACTION COORDINATE UP TO THIS POINT =    0.04183
  # OF POINTS ALONG THE PATH =   2
  # OF STEPS =   1

 Calculating another point on the path.
 Point Number  3 in REVERSE path direction.
 Using LQA Reaction Path Following.
   LQA: T_Est iteration completed in    3 iterations.
 IRC-IRC-IRC-IRC-IRC-IRC-IRC-IRC-IRC-IRC-IRC-IRC-IRC-IRC-IRC-IRC-IRC-IRC
 Leave Link  123 at Sat May 24 03:05:52 2025, MaxMem=  3758096384 cpu:               0.1 elap:               0.0
 (Enter /apps/easybuild-2022/easybuild/software/Compiler/NVHPC/22.11-CUDA-11.7.0/Gaussian/g16c01-CUDA-11.7.0/g16/l202.exe)
                          Input orientation:                          
 ---------------------------------------------------------------------
 Center     Atomic      Atomic             Coordinates (Angstroms)
 Number     Number       Type             X           Y           Z
 ---------------------------------------------------------------------
      1          6           0        1.383344   -0.048429   -0.578793
      2          8           0        2.233350   -0.997625   -0.874711
      3          6           0       -0.117337   -0.205127   -0.550893
      4          6           0       -0.771132    0.185138    0.789003
      5          9           0       -2.118581   -0.148657    0.795757
      6          9           0       -0.126190   -0.506349    1.819120
      7          9           0       -0.642472    1.549580    1.018093
      8          9           0       -0.683850    0.606138   -1.562578
      9          9           0       -0.452324   -1.546770   -0.812644
     10          8           0        1.986682    1.091890   -0.324620
     11          1           0        2.977655    0.186817   -0.618981
 ---------------------------------------------------------------------
                    Distance matrix (angstroms):
                    1          2          3          4          5
     1  C    0.000000
     2  O    1.308071   0.000000
     3  C    1.509097   2.501727   0.000000
     4  C    2.562652   3.632325   1.541128   0.000000
     5  F    3.763364   4.738197   2.412806   1.388194   0.000000
     6  F    2.870256   3.614624   2.389094   1.398301   2.268224
     7  F    3.034405   4.282676   2.411738   1.389510   2.261049
     8  F    2.381088   3.399304   1.415131   2.390563   2.861802
     9  F    2.381048   2.741944   1.407387   2.380424   2.705196
    10  O    1.314895   2.174746   2.482004   3.109323   4.432537
    11  H    1.612075   1.422073   3.120454   4.004476   5.299590
                    6          7          8          9         10
     6  F    0.000000
     7  F    2.266061   0.000000
     8  F    3.603400   2.748028   0.000000
     9  F    2.848688   3.602103   2.291510   0.000000
    10  O    3.407963   2.987442   2.983326   3.626216   0.000000
    11  H    4.007327   4.200293   3.804316   3.848063   1.373985
                   11
    11  H    0.000000
 Symmetry turned off by external request.
 Stoichiometry    C3HF5O2
 Rotational constants (GHZ):           1.8313342           1.1166776           1.0258983
 Leave Link  202 at Sat May 24 03:05:52 2025, MaxMem=  3758096384 cpu:               0.0 elap:               0.0
 (Enter /apps/easybuild-2022/easybuild/software/Compiler/NVHPC/22.11-CUDA-11.7.0/Gaussian/g16c01-CUDA-11.7.0/g16/l301.exe)
 Standard basis: 6-31G (6D, 7F)
 Ernie: Thresh=  0.10000D-02 Tol=  0.10000D-05 Strict=F.
    92 basis functions,   224 primitive gaussians,    92 cartesian basis functions
    40 alpha electrons       40 beta electrons
       nuclear repulsion energy       619.6140166769 Hartrees.
 IExCor=    0 DFT=F Ex=HF Corr=None ExCW=0 ScaHFX=  1.000000
 ScaDFX=  1.000000  1.000000  1.000000  1.000000 ScalE2=  1.000000  1.000000
 IRadAn=      5 IRanWt=     -1 IRanGd=            0 ICorTp=0 IEmpDi=  4
 NAtoms=   11 NActive=   11 NUniq=   11 SFac= 1.00D+00 NAtFMM=   60 NAOKFM=F Big=F
 Integral buffers will be    131072 words long.
 Raffenetti 1 integral format.
 Two-electron integral symmetry is turned off.
 Leave Link  301 at Sat May 24 03:05:52 2025, MaxMem=  3758096384 cpu:               0.0 elap:               0.0
 (Enter /apps/easybuild-2022/easybuild/software/Compiler/NVHPC/22.11-CUDA-11.7.0/Gaussian/g16c01-CUDA-11.7.0/g16/l302.exe)
 NPDir=0 NMtPBC=     1 NCelOv=     1 NCel=       1 NClECP=     1 NCelD=      1
         NCelK=      1 NCelE2=     1 NClLst=     1 CellRange=     0.0.
 One-electron integrals computed using PRISM.
 NBasis=    92 RedAO= T EigKep=  3.51D-03  NBF=    92
 NBsUse=    92 1.00D-06 EigRej= -1.00D+00 NBFU=    92
 Leave Link  302 at Sat May 24 03:05:52 2025, MaxMem=  3758096384 cpu:               0.2 elap:               0.1
 (Enter /apps/easybuild-2022/easybuild/software/Compiler/NVHPC/22.11-CUDA-11.7.0/Gaussian/g16c01-CUDA-11.7.0/g16/l303.exe)
 DipDrv:  MaxL=1.
 Leave Link  303 at Sat May 24 03:05:52 2025, MaxMem=  3758096384 cpu:               0.0 elap:               0.0
 (Enter /apps/easybuild-2022/easybuild/software/Compiler/NVHPC/22.11-CUDA-11.7.0/Gaussian/g16c01-CUDA-11.7.0/g16/l401.exe)
 Initial guess from the checkpoint file:  "1642764945472630600001_R_Addition_MultipleBond_1_10_11_IRC_R.chk"
 B after Tr=    -0.000015    0.000113    0.000030
         Rot=    1.000000   -0.000002    0.000006   -0.000034 Ang=  -0.00 deg.
 Guess basis will be translated and rotated to current coordinates.
 JPrj=2 DoOrth=T DoCkMO=T.
 Generating alternative initial guess.
 ExpMin= 1.61D-01 ExpMax= 7.00D+03 ExpMxC= 1.05D+03 IAcc=3 IRadAn=         5 AccDes= 0.00D+00
 Harris functional with IExCor=  205 and IRadAn=       5 diagonalized for initial guess.
 HarFok:  IExCor=  205 AccDes= 0.00D+00 IRadAn=         5 IDoV= 1 UseB2=F ITyADJ=14
 ICtDFT=  3500011 ScaDFX=  1.000000  1.000000  1.000000  1.000000
 FoFCou: FMM=F IPFlag=           0 FMFlag=      100000 FMFlg1=           0
         NFxFlg=           0 DoJE=T BraDBF=F KetDBF=T FulRan=T
         wScrn=  0.000000 ICntrl=       500 IOpCl=  0 I1Cent=   200000004 NGrid=           0
         NMat0=    1 NMatS0=      1 NMatT0=    0 NMatD0=    1 NMtDS0=    0 NMtDT0=    0
 Symmetry not used in FoFCou.
 Harris En= -760.838867024194    
 Leave Link  401 at Sat May 24 03:05:53 2025, MaxMem=  3758096384 cpu:               0.7 elap:               0.1
 (Enter /apps/easybuild-2022/easybuild/software/Compiler/NVHPC/22.11-CUDA-11.7.0/Gaussian/g16c01-CUDA-11.7.0/g16/l502.exe)
 Keep R1 ints in memory in canonical form, NReq=10820796.
 FoFCou: FMM=F IPFlag=           0 FMFlag=           0 FMFlg1=           0
         NFxFlg=           0 DoJE=F BraDBF=F KetDBF=F FulRan=T
         wScrn=  0.000000 ICntrl=       600 IOpCl=  0 I1Cent=           0 NGrid=           0
         NMat0=    1 NMatS0=   4278 NMatT0=    0 NMatD0=    1 NMtDS0=    0 NMtDT0=    0
 Symmetry not used in FoFCou.
 Two-electron integral symmetry not used.
 Closed shell SCF:
 Using DIIS extrapolation, IDIIS=  1040.
 NGot=  3758096384 LenX=  3748924719 LenY=  3748915814
 Requested convergence on RMS density matrix=1.00D-08 within  32 cycles.
 Requested convergence on MAX density matrix=1.00D-06.
 Requested convergence on             energy=1.00D-06.
 No special actions if energy rises.

 Cycle   1  Pass 1  IDiag  1:
 E= -760.702320921483    
 DIIS: error= 8.51D-04 at cycle   1 NSaved=   1.
 NSaved= 1 IEnMin= 1 EnMin= -760.702320921483     IErMin= 1 ErrMin= 8.51D-04
 ErrMax= 8.51D-04  0.00D+00 EMaxC= 1.00D-01 BMatC= 1.83D-05 BMatP= 1.83D-05
 IDIUse=3 WtCom= 9.91D-01 WtEn= 8.51D-03
 Coeff-Com:  0.100D+01
 Coeff-En:   0.100D+01
 Coeff:      0.100D+01
 Gap=     1.164 Goal=   None    Shift=    0.000
 RMSDP=1.07D-04 MaxDP=1.37D-03              OVMax= 1.47D-03

 Cycle   2  Pass 1  IDiag  1:
 E= -760.702355662148     Delta-E=       -0.000034740665 Rises=F Damp=F
 DIIS: error= 5.18D-04 at cycle   2 NSaved=   2.
 NSaved= 2 IEnMin= 2 EnMin= -760.702355662148     IErMin= 2 ErrMin= 5.18D-04
 ErrMax= 5.18D-04  0.00D+00 EMaxC= 1.00D-01 BMatC= 4.28D-06 BMatP= 1.83D-05
 IDIUse=3 WtCom= 9.95D-01 WtEn= 5.18D-03
 Coeff-Com:  0.721D-01 0.928D+00
 Coeff-En:   0.000D+00 0.100D+01
 Coeff:      0.717D-01 0.928D+00
 Gap=     0.555 Goal=   None    Shift=    0.000
 RMSDP=3.38D-05 MaxDP=6.59D-04 DE=-3.47D-05 OVMax= 1.58D-03

 Cycle   3  Pass 1  IDiag  1:
 E= -760.702363268799     Delta-E=       -0.000007606652 Rises=F Damp=F
 DIIS: error= 2.87D-04 at cycle   3 NSaved=   3.
 NSaved= 3 IEnMin= 3 EnMin= -760.702363268799     IErMin= 3 ErrMin= 2.87D-04
 ErrMax= 2.87D-04  0.00D+00 EMaxC= 1.00D-01 BMatC= 2.36D-06 BMatP= 4.28D-06
 IDIUse=3 WtCom= 9.97D-01 WtEn= 2.87D-03
 Coeff-Com: -0.214D+00 0.429D+00 0.785D+00
 Coeff-En:   0.000D+00 0.000D+00 0.100D+01
 Coeff:     -0.213D+00 0.427D+00 0.786D+00
 Gap=     0.555 Goal=   None    Shift=    0.000
 RMSDP=2.46D-05 MaxDP=5.07D-04 DE=-7.61D-06 OVMax= 1.21D-03

 Cycle   4  Pass 1  IDiag  1:
 E= -760.702368021429     Delta-E=       -0.000004752630 Rises=F Damp=F
 DIIS: error= 1.33D-04 at cycle   4 NSaved=   4.
 NSaved= 4 IEnMin= 4 EnMin= -760.702368021429     IErMin= 4 ErrMin= 1.33D-04
 ErrMax= 1.33D-04  0.00D+00 EMaxC= 1.00D-01 BMatC= 3.08D-07 BMatP= 2.36D-06
 IDIUse=3 WtCom= 9.99D-01 WtEn= 1.33D-03
 Coeff-Com:  0.238D+00-0.693D+00-0.825D+00 0.228D+01
 Coeff-En:   0.000D+00 0.000D+00 0.000D+00 0.100D+01
 Coeff:      0.238D+00-0.692D+00-0.823D+00 0.228D+01
 Gap=     0.555 Goal=   None    Shift=    0.000
 RMSDP=3.20D-05 MaxDP=4.83D-04 DE=-4.75D-06 OVMax= 1.31D-03

 Cycle   5  Pass 1  IDiag  1:
 E= -760.702370318049     Delta-E=       -0.000002296620 Rises=F Damp=F
 DIIS: error= 2.11D-05 at cycle   5 NSaved=   5.
 NSaved= 5 IEnMin= 5 EnMin= -760.702370318049     IErMin= 5 ErrMin= 2.11D-05
 ErrMax= 2.11D-05  0.00D+00 EMaxC= 1.00D-01 BMatC= 1.93D-08 BMatP= 3.08D-07
 IDIUse=1 WtCom= 1.00D+00 WtEn= 0.00D+00
 Coeff-Com: -0.748D-02 0.297D-01 0.559D-01-0.273D+00 0.119D+01
 Coeff:     -0.748D-02 0.297D-01 0.559D-01-0.273D+00 0.119D+01
 Gap=     0.555 Goal=   None    Shift=    0.000
 RMSDP=5.28D-06 MaxDP=1.14D-04 DE=-2.30D-06 OVMax= 2.53D-04

 Cycle   6  Pass 1  IDiag  1:
 E= -760.702370406227     Delta-E=       -0.000000088178 Rises=F Damp=F
 DIIS: error= 1.00D-05 at cycle   6 NSaved=   6.
 NSaved= 6 IEnMin= 6 EnMin= -760.702370406227     IErMin= 6 ErrMin= 1.00D-05
 ErrMax= 1.00D-05  0.00D+00 EMaxC= 1.00D-01 BMatC= 6.28D-09 BMatP= 1.93D-08
 IDIUse=1 WtCom= 1.00D+00 WtEn= 0.00D+00
 Coeff-Com: -0.497D-01 0.143D+00 0.197D+00-0.552D+00 0.388D+00 0.875D+00
 Coeff:     -0.497D-01 0.143D+00 0.197D+00-0.552D+00 0.388D+00 0.875D+00
 Gap=     0.555 Goal=   None    Shift=    0.000
 RMSDP=2.03D-06 MaxDP=3.80D-05 DE=-8.82D-08 OVMax= 8.49D-05

 Cycle   7  Pass 1  IDiag  1:
 E= -760.702370420244     Delta-E=       -0.000000014017 Rises=F Damp=F
 DIIS: error= 4.39D-06 at cycle   7 NSaved=   7.
 NSaved= 7 IEnMin= 7 EnMin= -760.702370420244     IErMin= 7 ErrMin= 4.39D-06
 ErrMax= 4.39D-06  0.00D+00 EMaxC= 1.00D-01 BMatC= 7.76D-10 BMatP= 6.28D-09
 IDIUse=1 WtCom= 1.00D+00 WtEn= 0.00D+00
 Coeff-Com:  0.151D-01-0.490D-01-0.523D-01 0.193D+00-0.324D+00-0.257D+00
 Coeff-Com:  0.147D+01
 Coeff:      0.151D-01-0.490D-01-0.523D-01 0.193D+00-0.324D+00-0.257D+00
 Coeff:      0.147D+01
 Gap=     0.555 Goal=   None    Shift=    0.000
 RMSDP=1.04D-06 MaxDP=1.49D-05 DE=-1.40D-08 OVMax= 3.94D-05

 Cycle   8  Pass 1  IDiag  1:
[...]
 Spin components of T(2) and E(2):
     alpha-alpha T2 =       0.4629665496D-01 E2=     -0.1536826025D+00
     alpha-beta  T2 =       0.2539916020D+00 E2=     -0.8377371602D+00
     beta-beta   T2 =       0.4629665496D-01 E2=     -0.1536826025D+00
 The integrals were generated   1 times.
 ANorm=    0.1160424453D+01
 E2 =    -0.1145102365D+01 EUMP2 =    -0.76194653562536D+03
 Leave Link  906 at Sat May 24 03:09:56 2025, MaxMem=  3758096384 cpu:               8.1 elap:               1.1
 (Enter /apps/easybuild-2022/easybuild/software/Compiler/NVHPC/22.11-CUDA-11.7.0/Gaussian/g16c01-CUDA-11.7.0/g16/l1101.exe)
 Leave Link 1101 at Sat May 24 03:09:56 2025, MaxMem=  3758096384 cpu:               0.0 elap:               0.0
 (Enter /apps/easybuild-2022/easybuild/software/Compiler/NVHPC/22.11-CUDA-11.7.0/Gaussian/g16c01-CUDA-11.7.0/g16/l1102.exe)
 Leave Link 1102 at Sat May 24 03:09:56 2025, MaxMem=  3758096384 cpu:               0.0 elap:               0.0
 (Enter /apps/easybuild-2022/easybuild/software/Compiler/NVHPC/22.11-CUDA-11.7.0/Gaussian/g16c01-CUDA-11.7.0/g16/l1110.exe)
 Leave Link 1110 at Sat May 24 03:09:56 2025, MaxMem=  3758096384 cpu:               0.0 elap:               0.0
 (Enter /apps/easybuild-2022/easybuild/software/Compiler/NVHPC/22.11-CUDA-11.7.0/Gaussian/g16c01-CUDA-11.7.0/g16/l1002.exe)
 Minotr:  Closed shell wavefunction.
 Leave Link 1002 at Sat May 24 03:09:56 2025, MaxMem=  3758096384 cpu:               0.1 elap:               0.0
 (Enter /apps/easybuild-2022/easybuild/software/Compiler/NVHPC/22.11-CUDA-11.7.0/Gaussian/g16c01-CUDA-11.7.0/g16/l811.exe)
 Leave Link  811 at Sat May 24 03:09:56 2025, MaxMem=  3758096384 cpu:               0.0 elap:               0.0
 (Enter /apps/easybuild-2022/easybuild/software/Compiler/NVHPC/22.11-CUDA-11.7.0/Gaussian/g16c01-CUDA-11.7.0/g16/l804.exe)
 Leave Link  804 at Sat May 24 03:09:56 2025, MaxMem=  3758096384 cpu:               0.0 elap:               0.0
 (Enter /apps/easybuild-2022/easybuild/software/Compiler/NVHPC/22.11-CUDA-11.7.0/Gaussian/g16c01-CUDA-11.7.0/g16/l1002.exe)
 Minotr:  Closed shell wavefunction.
          Computing MP2/KS-MP2 derivatives.
          Using Z-Vector for PSCF gradient.
          Skipping F1 and S1 gradient terms here.
          IDoAtm=11111111111
          Frozen-core window.
          Direct CPHF calculation.
          Differentiating once with respect to electric field.
                with respect to dipole field.
          Differentiating once with respect to nuclear coordinates.
          Requested convergence is 1.0D-10 RMS, and 1.0D-09 maximum.
          NewPWx=F KeepS1=T KeepF1=T KeepIn=T MapXYZ=F SortEE=F KeepMc=T.
 Keep R1 ints in memory in canonical form, NReq=10824305.
 FoFCou: FMM=F IPFlag=           0 FMFlag=           0 FMFlg1=           0
         NFxFlg=           0 DoJE=F BraDBF=F KetDBF=F FulRan=T
         wScrn=  0.000000 ICntrl=       600 IOpCl=  0 I1Cent=           0 NGrid=           0
         NMat0=    1 NMatS0=   4278 NMatT0=    0 NMatD0=    1 NMtDS0=    0 NMtDT0=    0
 Symmetry not used in FoFCou.
 Two-electron integral symmetry not used.
          MDV=    3758096384 using IRadAn=       5.
          Solving linear equations separately, MaxMat=       0.
          There are     1 degrees of freedom in the 1st order CPHF.  IDoFFX=0 NUNeed=     1.
 LinEq1:  Iter=  0 NonCon=     1 RMS=8.26D-03 Max=1.20D-01 NDo=     1
 AX will form     1 AO Fock derivatives at one time.
 LinEq1:  Iter=  1 NonCon=     1 RMS=3.60D-03 Max=4.79D-02 NDo=     1
 LinEq1:  Iter=  2 NonCon=     1 RMS=1.05D-03 Max=1.10D-02 NDo=     1
 LinEq1:  Iter=  3 NonCon=     1 RMS=4.90D-04 Max=1.29D-02 NDo=     1
 LinEq1:  Iter=  4 NonCon=     1 RMS=1.74D-04 Max=1.96D-03 NDo=     1
 LinEq1:  Iter=  5 NonCon=     1 RMS=5.04D-05 Max=7.93D-04 NDo=     1
 LinEq1:  Iter=  6 NonCon=     1 RMS=9.71D-06 Max=1.01D-04 NDo=     1
 LinEq1:  Iter=  7 NonCon=     1 RMS=4.49D-06 Max=5.17D-05 NDo=     1
 LinEq1:  Iter=  8 NonCon=     1 RMS=1.43D-06 Max=2.52D-05 NDo=     1
 LinEq1:  Iter=  9 NonCon=     1 RMS=4.64D-07 Max=3.91D-06 NDo=     1
 LinEq1:  Iter= 10 NonCon=     1 RMS=1.03D-07 Max=1.20D-06 NDo=     1
 LinEq1:  Iter= 11 NonCon=     1 RMS=3.56D-08 Max=3.82D-07 NDo=     1
 LinEq1:  Iter= 12 NonCon=     1 RMS=1.30D-08 Max=2.80D-07 NDo=     1
 LinEq1:  Iter= 13 NonCon=     1 RMS=3.19D-09 Max=7.64D-08 NDo=     1
 LinEq1:  Iter= 14 NonCon=     1 RMS=1.08D-09 Max=1.41D-08 NDo=     1
 LinEq1:  Iter= 15 NonCon=     1 RMS=3.28D-10 Max=2.37D-09 NDo=     1
 LinEq1:  Iter= 16 NonCon=     1 RMS=1.22D-10 Max=9.04D-10 NDo=     1
 LinEq1:  Iter= 17 NonCon=     0 RMS=2.91D-11 Max=1.93D-10 NDo=     1
 Linear equations converged to 1.000D-10 1.000D-09 after    17 iterations.
 End of Minotr F.D. properties file   721 does not exist.
 End of Minotr F.D. properties file   722 does not exist.
 End of Minotr F.D. properties file   788 does not exist.
 Leave Link 1002 at Sat May 24 03:09:56 2025, MaxMem=  3758096384 cpu:               1.0 elap:               0.3
 (Enter /apps/easybuild-2022/easybuild/software/Compiler/NVHPC/22.11-CUDA-11.7.0/Gaussian/g16c01-CUDA-11.7.0/g16/l1102.exe)
 Use density number 2.
 Symmetrizing basis deriv contribution to polar:
 IMax=3 JMax=2 DiffMx= 0.00D+00
 Leave Link 1102 at Sat May 24 03:09:56 2025, MaxMem=  3758096384 cpu:               0.0 elap:               0.0
 (Enter /apps/easybuild-2022/easybuild/software/Compiler/NVHPC/22.11-CUDA-11.7.0/Gaussian/g16c01-CUDA-11.7.0/g16/l1110.exe)
 Leave Link 1110 at Sat May 24 03:09:56 2025, MaxMem=  3758096384 cpu:               0.0 elap:               0.0
 (Enter /apps/easybuild-2022/easybuild/software/Compiler/NVHPC/22.11-CUDA-11.7.0/Gaussian/g16c01-CUDA-11.7.0/g16/l1112.exe)
 Leave Link 1112 at Sat May 24 03:09:56 2025, MaxMem=  3758096384 cpu:               0.0 elap:               0.0
 (Enter /apps/easybuild-2022/easybuild/software/Compiler/NVHPC/22.11-CUDA-11.7.0/Gaussian/g16c01-CUDA-11.7.0/g16/l701.exe)
 ... and contract with generalized density number  2.
 Compute integral first derivatives.
 Leave Link  701 at Sat May 24 03:09:57 2025, MaxMem=  3758096384 cpu:               0.2 elap:               0.0
 (Enter /apps/easybuild-2022/easybuild/software/Compiler/NVHPC/22.11-CUDA-11.7.0/Gaussian/g16c01-CUDA-11.7.0/g16/l702.exe)
 L702 exits ... SP integral derivatives will be done elsewhere.
 Leave Link  702 at Sat May 24 03:09:57 2025, MaxMem=  3758096384 cpu:               0.0 elap:               0.0
 (Enter /apps/easybuild-2022/easybuild/software/Compiler/NVHPC/22.11-CUDA-11.7.0/Gaussian/g16c01-CUDA-11.7.0/g16/l703.exe)
 Integral derivatives from FoFJK, PRISM(SPDF).
 Compute integral first derivatives, UseDBF=F ICtDFT=           0.
 Calling FoFJK, ICntrl=  10002127 FMM=F ISym2X=0 I1Cent= 0 IOpClX= 0 NMat=1 NMatS=1 NMatT=0.
 FoFJK:  IHMeth= 1 ICntrl=10002127 DoSepK=F KAlg= 0 I1Cent=           0 FoldK=F
 IRaf=         0 NMat=       1 IRICut=       1 DoRegI=T DoRafI=F ISym2E= 0 IDoP0=0 IntGTp=1.
 FoFCou: FMM=F IPFlag=           0 FMFlag=      100000 FMFlg1=         800
         NFxFlg=           0 DoJE=F BraDBF=F KetDBF=F FulRan=T
         wScrn=  0.000000 ICntrl=  10002127 IOpCl=  0 I1Cent=           0 NGrid=           0
         NMat0=    1 NMatS0=      1 NMatT0=    0 NMatD0=    1 NMtDS0=    0 NMtDT0=    0
 Symmetry not used in FoFCou.
 Leave Link  703 at Sat May 24 03:09:57 2025, MaxMem=  3758096384 cpu:               0.6 elap:               0.1
 (Enter /apps/easybuild-2022/easybuild/software/Compiler/NVHPC/22.11-CUDA-11.7.0/Gaussian/g16c01-CUDA-11.7.0/g16/l716.exe)
 Dipole        = 8.34849532D-01 4.60669954D-01 3.98695069D-02
 Polarizability= 0.00000000D+00 0.00000000D+00 0.00000000D+00
                 0.00000000D+00 0.00000000D+00 0.00000000D+00
 -------------------------------------------------------------------
 Center     Atomic                   Forces (Hartrees/Bohr)
 Number     Number              X              Y              Z
 -------------------------------------------------------------------
      1        6           0.009240583   -0.002794495   -0.001527366
      2        8          -0.005738007   -0.017167574   -0.003936695
      3        6           0.004807831    0.001177565   -0.000184414
      4        6           0.001829075    0.000430849   -0.000714404
      5        9           0.001394346    0.000246511   -0.000426021
      6        9           0.000149098    0.000113168    0.000279200
      7        9          -0.000190000    0.000500279    0.000554756
      8        9           0.002729318    0.000887371    0.000738172
      9        9           0.000997801    0.002550946    0.000730457
     10        8          -0.014572844    0.010195162    0.003451015
     11        1          -0.000647202    0.003860219    0.001035300
 -------------------------------------------------------------------
 Cartesian Forces:  Max     0.017167574 RMS     0.005019894
 Leave Link  716 at Sat May 24 03:09:57 2025, MaxMem=  3758096384 cpu:               0.0 elap:               0.0
 (Enter /apps/easybuild-2022/easybuild/software/Compiler/NVHPC/22.11-CUDA-11.7.0/Gaussian/g16c01-CUDA-11.7.0/g16/l123.exe)
 IRC-IRC-IRC-IRC-IRC-IRC-IRC-IRC-IRC-IRC-IRC-IRC-IRC-IRC-IRC-IRC-IRC-IRC
 Pt100 Step number   1 out of a maximum of  20
 Using modified Bulirsch-Stoer corrector integration.
   Using distance weighted interpolants to fit PES.
 PreDWI: IReCr0= 2 IReCr1= 1 IReCr2= 1 IReCr3= 1
 Modified Bulirsch-Stoer Extrapolation Cycles:
    EPS =    0.000010000000000
    Cycle     1 NS=    48
      PEZero:  N= 2 I= 1 D=  1.09D-04 Err=  1.65D-06
    Cycle     2 NS=    64 Truncation Error =  0.000001646
 BS completed in    2 cycles and     112 integration steps.
 Maximum DWI energy   std dev =  0.000000002 at pt    47
 Maximum DWI gradient std dev =  0.000381851 at pt    29
 SUMMARY OF CORRECTOR INTEGRATION:
   Predictor End Point Energy =  -761.946536
   Old End Point Energy       =  -761.946536
   Corrected End Point Energy =  -761.946536
   Predictor End-Start Dist.  =     0.020913
   Old End-Start Dist.        =     0.020913
   New End-Start Dist.        =     0.020913
   New End-Old End Dist.      =     0.000009
 CORRECTOR INTEGRATION CONVERGENCE:
   Recorrection delta-x convergence threshold:    0.010000
   Delta-x Convergence Met
 Point Number: 100          Path Number:   1
                    CURRENT STRUCTURE
                Cartesian Coordinates (Ang):                
 ---------------------------------------------------------------------
 Center     Atomic                     Coordinates (Angstroms)
 Number     Number                        X           Y           Z
 ---------------------------------------------------------------------
      1          6                    1.438440   -0.106249   -0.598540
      2          8                    2.187694   -1.054394   -0.886041
      3          6                   -0.106769   -0.198998   -0.549365
      4          6                   -0.767933    0.185504    0.786745
      5          9                   -2.118166   -0.148346    0.795958
      6          9                   -0.126072   -0.506129    1.819452
      7          9                   -0.642344    1.550269    1.018559
      8          9                   -0.681096    0.607953   -1.561788
      9          9                   -0.451959   -1.542517   -0.811265
     10          8                    1.977411    1.124708   -0.315650
     11          1                    2.958170    1.040699   -0.397385
 ---------------------------------------------------------------------
   CHANGE IN THE REACTION COORDINATE =    0.02091
   NET REACTION COORDINATE UP TO THIS POINT =    2.09125
  # OF POINTS ALONG THE PATH = 100
  # OF STEPS =   1

 Maximum number of steps reached.
 Calculation of REVERSE path complete.
 Reaction path calculation complete.
 
 Energies reported relative to the TS energy of        -761.877944
 --------------------------------------------------------------------------
    Summary of reaction path following
 --------------------------------------------------------------------------
                        Energy    RxCoord
   1                   -0.06859  -2.09125
   2                   -0.06841  -2.07034
   3                   -0.06823  -2.04943
   4                   -0.06804  -2.02851
   5                   -0.06784  -2.00760
   6                   -0.06764  -1.98669
   7                   -0.06743  -1.96578
   8                   -0.06721  -1.94486
   9                   -0.06699  -1.92395
  10                   -0.06675  -1.90304
  11                   -0.06652  -1.88213
  12                   -0.06627  -1.86121
  13                   -0.06601  -1.84030
  14                   -0.06575  -1.81939
  15                   -0.06548  -1.79848
  16                   -0.06520  -1.77756
  17                   -0.06491  -1.75665
  18                   -0.06462  -1.73574
  19                   -0.06431  -1.71483
  20                   -0.06399  -1.69391
  21                   -0.06367  -1.67300
  22                   -0.06333  -1.65209
  23                   -0.06299  -1.63118
  24                   -0.06263  -1.61026
  25                   -0.06226  -1.58935
  26                   -0.06188  -1.56844
  27                   -0.06148  -1.54753
  28                   -0.06107  -1.52662
  29                   -0.06065  -1.50570
  30                   -0.06022  -1.48479
  31                   -0.05977  -1.46388
  32                   -0.05930  -1.44297
  33                   -0.05882  -1.42205
  34                   -0.05832  -1.40114
  35                   -0.05780  -1.38023
  36                   -0.05726  -1.35932
  37                   -0.05671  -1.33841
  38                   -0.05614  -1.31749
  39                   -0.05554  -1.29658
  40                   -0.05493  -1.27567
  41                   -0.05430  -1.25476
  42                   -0.05364  -1.23384
  43                   -0.05296  -1.21293
  44                   -0.05226  -1.19202
  45                   -0.05153  -1.17111
  46                   -0.05078  -1.15019
  47                   -0.05001  -1.12928
  48                   -0.04921  -1.10837
  49                   -0.04838  -1.08746
  50                   -0.04753  -1.06654
  51                   -0.04665  -1.04563
  52                   -0.04574  -1.02472
  53                   -0.04480  -1.00381
  54                   -0.04384  -0.98290
  55                   -0.04284  -0.96198
  56                   -0.04182  -0.94107
  57                   -0.04076  -0.92016
  58                   -0.03968  -0.89925
  59                   -0.03857  -0.87833
  60                   -0.03743  -0.85742
  61                   -0.03627  -0.83651
  62                   -0.03508  -0.81560
  63                   -0.03387  -0.79468
  64                   -0.03264  -0.77377
  65                   -0.03139  -0.75286
  66                   -0.03013  -0.73194
  67                   -0.02886  -0.71103
  68                   -0.02758  -0.69012
  69                   -0.02629  -0.66921
  70                   -0.02500  -0.64829
  71                   -0.02371  -0.62738
  72                   -0.02243  -0.60647
  73                   -0.02116  -0.58555
  74                   -0.01989  -0.56464
  75                   -0.01864  -0.54373
  76                   -0.01741  -0.52282
  77                   -0.01620  -0.50190
  78                   -0.01501  -0.48099
  79                   -0.01385  -0.46008
  80                   -0.01272  -0.43916
  81                   -0.01163  -0.41825
  82                   -0.01057  -0.39734
  83                   -0.00955  -0.37643
  84                   -0.00857  -0.35551
  85                   -0.00763  -0.33460
  86                   -0.00674  -0.31369
  87                   -0.00590  -0.29277
  88                   -0.00511  -0.27186
  89                   -0.00437  -0.25095
  90                   -0.00369  -0.23004
  91                   -0.00306  -0.20912
  92                   -0.00248  -0.18821
  93                   -0.00197  -0.16730
  94                   -0.00151  -0.14639
  95                   -0.00111  -0.12547
  96                   -0.00077  -0.10456
  97                   -0.00050  -0.08365
  98                   -0.00028  -0.06274
  99                   -0.00012  -0.04183
 100                   -0.00003  -0.02092
 101                    0.00000   0.00000
 --------------------------------------------------------------------------
 
 Total number of points:                  100
 Total number of gradient calculations:   100
 Total number of Hessian calculations:      0
 IRC-IRC-IRC-IRC-IRC-IRC-IRC-IRC-IRC-IRC-IRC-IRC-IRC-IRC-IRC-IRC-IRC-IRC
 Leave Link  123 at Sat May 24 03:09:57 2025, MaxMem=  3758096384 cpu:               0.0 elap:               0.0
 (Enter /apps/easybuild-2022/easybuild/software/Compiler/NVHPC/22.11-CUDA-11.7.0/Gaussian/g16c01-CUDA-11.7.0/g16/l202.exe)
                          Input orientation:                          
 ---------------------------------------------------------------------
 Center     Atomic      Atomic             Coordinates (Angstroms)
 Number     Number       Type             X           Y           Z
 ---------------------------------------------------------------------
      1          6           0        1.438440   -0.106249   -0.598540
      2          8           0        2.187694   -1.054394   -0.886041
      3          6           0       -0.106769   -0.198998   -0.549365
      4          6           0       -0.767933    0.185504    0.786745
      5          9           0       -2.118166   -0.148346    0.795958
      6          9           0       -0.126072   -0.506129    1.819452
      7          9           0       -0.642344    1.550269    1.018559
      8          9           0       -0.681096    0.607953   -1.561788
      9          9           0       -0.451959   -1.542517   -0.811265
     10          8           0        1.977411    1.124708   -0.315650
     11          1           0        2.958174    1.040699   -0.397386
 ---------------------------------------------------------------------
                    Distance matrix (angstroms):
                    1          2          3          4          5
     1  C    0.000000
     2  O    1.242183   0.000000
     3  C    1.548771   2.471764   0.000000
     4  C    2.621490   3.615424   1.539535   0.000000
     5  F    3.820450   4.710677   2.420367   1.390924   0.000000
     6  F    2.907625   3.601916   2.388723   1.398866   2.268036
     7  F    3.112671   4.291957   2.409390   1.389998   2.261171
     8  F    2.435233   3.383783   1.416340   2.387804   2.862887
     9  F    2.383637   2.685447   1.411663   2.374770   2.702430
    10  O    1.373234   2.262311   2.480045   3.103915   4.430586
    11  H    1.914561   2.285135   3.309656   4.002174   5.348563
                    6          7          8          9         10
     6  F    0.000000
     7  F    2.266438   0.000000
     8  F    3.603056   2.747299   0.000000
     9  F    2.846221   3.598587   2.289172   0.000000
    10  O    3.412174   2.970578   2.981200   3.641643   0.000000
    11  H    4.101173   3.902345   3.845437   4.298059   0.987743
                   11
    11  H    0.000000
 Symmetry turned off by external request.
 Stoichiometry    C3HF5O2
 Rotational constants (GHZ):           1.8055692           1.1199125           1.0234951
 Leave Link  202 at Sat May 24 03:09:57 2025, MaxMem=  3758096384 cpu:               0.0 elap:               0.0
 (Enter /apps/easybuild-2022/easybuild/software/Compiler/NVHPC/22.11-CUDA-11.7.0/Gaussian/g16c01-CUDA-11.7.0/g16/l9999.exe)

 This type of calculation cannot be archived.


 THE PROMISED LAND ALWAYS LIES ON THE OTHER SIDE OF A WILDERNESS.

                         -- HAVELOCK ELLIS
 Job cpu time:       0 days  0 hours 20 minutes  9.8 seconds.
 Elapsed time:       0 days  0 hours  3 minutes 49.1 seconds.
 File lengths (MBytes):  RWF=     10 Int=      0 D2E=      0 Chk=      3 Scr=      1
 Normal termination of Gaussian 16 at Sat May 24 03:09:57 2025.
done
