 Entering Gaussian System, Link 0=g16
 Initial command:
 /apps/easybuild-2022/easybuild/software/Compiler/NVHPC/22.11-CUDA-11.7.0/Gaussian/g16c01-CUDA-11.7.0/g16/l1.exe "/tmp/Gau-154955.inp" -scrdir="/tmp/"
 Entering Link 1 = /apps/easybuild-2022/easybuild/software/Compiler/NVHPC/22.11-CUDA-11.7.0/Gaussian/g16c01-CUDA-11.7.0/g16/l1.exe PID=    154957.
  
 Copyright (c) 1988-2019, Gaussian, Inc.  All Rights Reserved.
  
 This is part of the Gaussian(R) 16 program.  It is based on
 the Gaussian(R) 09 system (copyright 2009, Gaussian, Inc.),
 the Gaussian(R) 03 system (copyright 2003, Gaussian, Inc.),
 the Gaussian(R) 98 system (copyright 1998, Gaussian, Inc.),
 the Gaussian(R) 94 system (copyright 1995, Gaussian, Inc.),
 the Gaussian 92(TM) system (copyright 1992, Gaussian, Inc.),
 the Gaussian 90(TM) system (copyright 1990, Gaussian, Inc.),
 the Gaussian 88(TM) system (copyright 1988, Gaussian, Inc.),
 the Gaussian 86(TM) system (copyright 1986, Carnegie Mellon
 University), and the Gaussian 82(TM) system (copyright 1983,
 Carnegie Mellon University). Gaussian is a federally registered
 trademark of Gaussian, Inc.
  
 This software contains proprietary and confidential information,
 including trade secrets, belonging to Gaussian, Inc.
  
 This software is provided under written license and may be
 used, copied, transmitted, or stored only in accord with that
 written license.
  
 The following legend is applicable only to US Government
 contracts under FAR:
  
                    RESTRICTED RIGHTS LEGEND
  
 Use, reproduction and disclosure by the US Government is
 subject to restrictions as set forth in subparagraphs (a)
 and (c) of the Commercial Computer Software - Restricted
 Rights clause in FAR 52.227-19.
  
 Gaussian, Inc.
 340 Quinnipiac St., Bldg. 40, Wallingford CT 06492
  
  
 ---------------------------------------------------------------
 Warning -- This program may not be used in any manner that
 competes with the business of Gaussian, Inc. or will provide
 assistance to any competitor of Gaussian, Inc.  The licensee
 of this program is prohibited from giving any competitor of
 Gaussian, Inc. access to this program.  By using this program,
 the user acknowledges that Gaussian, Inc. is engaged in the
 business of creating and licensing software in the field of
 computational chemistry and represents and warrants to the
 licensee that it is not a competitor of Gaussian, Inc. and that
 it will not use this program in any manner prohibited above.
 ---------------------------------------------------------------
  

 Cite this work as:
 Gaussian 16, Revision C.01,
 M. J. Frisch, G. W. Trucks, H. B. Schlegel, G. E. Scuseria, 
 M. A. Robb, J. R. Cheeseman, G. Scalmani, V. Barone, 
 G. A. Petersson, H. Nakatsuji, X. Li, M. Caricato, A. V. Marenich, 
 J. Bloino, B. G. Janesko, R. Gomperts, B. Mennucci, H. P. Hratchian, 
 J. V. Ortiz, A. F. Izmaylov, J. L. Sonnenberg, D. Williams-Young, 
 F. Ding, F. Lipparini, F. Egidi, J. Goings, B. Peng, A. Petrone, 
 T. Henderson, D. Ranasinghe, V. G. Zakrzewski, J. Gao, N. Rega, 
 G. Zheng, W. Liang, M. Hada, M. Ehara, K. Toyota, R. Fukuda, 
 J. Hasegawa, M. Ishida, T. Nakajima, Y. Honda, O. Kitao, H. Nakai, 
 T. Vreven, K. Throssell, J. A. Montgomery, Jr., J. E. Peralta, 
 F. Ogliaro, M. J. Bearpark, J. J. Heyd, E. N. Brothers, K. N. Kudin, 
 V. N. Staroverov, T. A. Keith, R. Kobayashi, J. Normand, 
 K. Raghavachari, A. P. Rendell, J. C. Burant, S. S. Iyengar, 
 J. Tomasi, M. Cossi, J. M. Millam, M. Klene, C. Adamo, R. Cammi, 
 J. W. Ochterski, R. L. Martin, K. Morokuma, O. Farkas, 
 J. B. Foresman, and D. J. Fox, Gaussian, Inc., Wallingford CT, 2019.
 
 ******************************************
 Gaussian 16:  ES64L-G16RevC.01  3-Jul-2019
                24-May-2025 
 ******************************************
 %mem=28GB
 %chk=1642764945472630600001_r12_insertion_R_5_4_7
 %nprocshared=8
 Will use up to    8 processors via shared memory.
 ----------------------------------------------------------------------
 #P M062X/Def2TZVPP Symm(None) scf(xqc) pop(None) opt(NoFreeze,TS,CalcA
 ll,NoEigentest,MaxCycle=999)
 ----------------------------------------------------------------------
 1/5=1,6=999,10=4,11=1,18=20,26=3,29=2000,38=1/1,3;
 2/9=110,12=2,15=3,17=6,18=5,40=1/2;
 3/5=44,7=202,11=2,25=1,30=1,71=2,74=-55,140=1/1,2,3;
 4//1;
 5/5=2,8=3,13=1,38=5/2,8;
 8/6=4,10=90,11=11/1;
 11/6=1,8=1,9=11,15=111,16=1,31=1/1,2,10;
 10/6=1,31=1/2;
 7/10=1,25=1,30=1/1,2,3,16;
 1/5=1,6=999,10=4,11=1,18=20,26=3/3(3);
 2/9=110,15=3/2;
 7/8=1,9=1,25=1,30=1,44=-1/16;
 99//99;
 2/9=110,15=3/2;
 3/5=44,7=202,11=2,25=1,30=1,71=2,74=-55,140=1/1,2,3;
 4/5=5,16=3,69=1/1;
 5/5=2,8=3,13=1,38=5/2,8;
 8/6=4,10=90,11=11/1;
 11/6=1,8=1,9=11,15=111,16=1,31=1/1,2,10;
 10/6=1,31=1/2;
 7/10=1,25=1,30=1/1,2,3,16;
 1/5=1,6=999,10=4,11=1,18=20,26=3/3(-8);
 2/9=110,15=3/2;
 7/8=1,9=1,25=1,30=1,44=-1/16;
 99//99;
 Leave Link    1 at Sat May 24 02:14:37 2025, MaxMem=  3758096384 cpu:               0.0 elap:               0.0
 (Enter /apps/easybuild-2022/easybuild/software/Compiler/NVHPC/22.11-CUDA-11.7.0/Gaussian/g16c01-CUDA-11.7.0/g16/l101.exe)
 ------------------------------
 Gaussian input prepared by ASE
 ------------------------------
 Symbolic Z-matrix:
 Charge =  0 Multiplicity = 1
 C                     1.47121   0.12435   0.13192 
 O                     2.32347  -0.55137   0.60333 
 C                    -0.02476  -0.31851  -0.06376 
 C                    -0.66564  -0.1086    1.14239 
 F                    -1.13808   1.46791   1.4258 
 F                    -1.12282  -0.76728   2.00549 
 F                     0.55829   1.33003   2.27038 
 F                    -0.58501   0.3472   -1.10899 
 F                    -0.06221  -1.59837  -0.50752 
 O                     1.65688   1.35181  -0.33532 
 H                     2.51817   1.69424  -0.05161 
 
 Add virtual bond connecting atoms F5         and C4         Dist= 3.16D+00.
 Add virtual bond connecting atoms F7         and F5         Dist= 3.59D+00.
 ITRead=  0  0  0  0  0  0  0  0  0  0  0
 MicOpt= -1 -1 -1 -1 -1 -1 -1 -1 -1 -1 -1
 NAtoms=     11 NQM=       11 NQMF=       0 NMMI=      0 NMMIF=      0
                NMic=       0 NMicF=      0.
                    Isotopes and Nuclear Properties:
 (Nuclear quadrupole moments (NQMom) in fm**2, nuclear magnetic moments (NMagM)
  in nuclear magnetons)

  Atom         1           2           3           4           5           6           7           8           9          10
 IAtWgt=          12          16          12          12          19          19          19          19          19          16
 AtmWgt=  12.0000000  15.9949146  12.0000000  12.0000000  18.9984032  18.9984032  18.9984032  18.9984032  18.9984032  15.9949146
 NucSpn=           0           0           0           0           1           1           1           1           1           0
 AtZEff=  -0.0000000  -0.0000000  -0.0000000  -0.0000000  -0.0000000  -0.0000000  -0.0000000  -0.0000000  -0.0000000  -0.0000000
 NQMom=    0.0000000   0.0000000   0.0000000   0.0000000   0.0000000   0.0000000   0.0000000   0.0000000   0.0000000   0.0000000
 NMagM=    0.0000000   0.0000000   0.0000000   0.0000000   2.6288670   2.6288670   2.6288670   2.6288670   2.6288670   0.0000000
 AtZNuc=   6.0000000   8.0000000   6.0000000   6.0000000   9.0000000   9.0000000   9.0000000   9.0000000   9.0000000   8.0000000

  Atom        11
 IAtWgt=           1
 AtmWgt=   1.0078250
 NucSpn=           1
 AtZEff=  -0.0000000
 NQMom=    0.0000000
 NMagM=    2.7928460
 AtZNuc=   1.0000000
 Leave Link  101 at Sat May 24 02:14:37 2025, MaxMem=  3758096384 cpu:               0.2 elap:               0.2
 (Enter /apps/easybuild-2022/easybuild/software/Compiler/NVHPC/22.11-CUDA-11.7.0/Gaussian/g16c01-CUDA-11.7.0/g16/l103.exe)

 GradGradGradGradGradGradGradGradGradGradGradGradGradGradGradGradGradGrad
 Berny optimization.
 Initialization pass.
                           ----------------------------
                           !    Initial Parameters    !
                           ! (Angstroms and Degrees)  !
 --------------------------                            --------------------------
 ! Name  Definition              Value          Derivative Info.                !
 --------------------------------------------------------------------------------
 ! R1    R(1,2)                  1.1854         calculate D2E/DX2 analytically  !
 ! R2    R(1,3)                  1.5724         calculate D2E/DX2 analytically  !
 ! R3    R(1,10)                 1.3264         calculate D2E/DX2 analytically  !
 ! R4    R(3,4)                  1.3819         calculate D2E/DX2 analytically  !
 ! R5    R(3,8)                  1.36           calculate D2E/DX2 analytically  !
 ! R6    R(3,9)                  1.3551         calculate D2E/DX2 analytically  !
 ! R7    R(4,5)                  1.67           calculate D2E/DX2 analytically  !
 ! R8    R(4,6)                  1.1781         calculate D2E/DX2 analytically  !
 ! R9    R(5,7)                  1.9            calculate D2E/DX2 analytically  !
 ! R10   R(10,11)                0.9693         calculate D2E/DX2 analytically  !
 ! A1    A(2,1,3)              124.9577         calculate D2E/DX2 analytically  !
 ! A2    A(2,1,10)             124.5375         calculate D2E/DX2 analytically  !
 ! A3    A(3,1,10)             110.4855         calculate D2E/DX2 analytically  !
 ! A4    A(1,3,4)              106.8478         calculate D2E/DX2 analytically  !
 ! A5    A(1,3,8)              110.47           calculate D2E/DX2 analytically  !
 ! A6    A(1,3,9)              109.454          calculate D2E/DX2 analytically  !
 ! A7    A(4,3,8)              113.9175         calculate D2E/DX2 analytically  !
 ! A8    A(4,3,9)              114.612          calculate D2E/DX2 analytically  !
 ! A9    A(8,3,9)              101.4932         calculate D2E/DX2 analytically  !
 ! A10   A(3,4,5)              115.007          calculate D2E/DX2 analytically  !
 ! A11   A(3,4,6)              137.2675         calculate D2E/DX2 analytically  !
 ! A12   A(5,4,6)              107.0793         calculate D2E/DX2 analytically  !
 ! A13   A(4,5,7)               75.7797         calculate D2E/DX2 analytically  !
 ! A14   A(1,10,11)            110.3761         calculate D2E/DX2 analytically  !
 ! D1    D(2,1,3,4)             83.1793         calculate D2E/DX2 analytically  !
 ! D2    D(2,1,3,8)           -152.4048         calculate D2E/DX2 analytically  !
 ! D3    D(2,1,3,9)            -41.4636         calculate D2E/DX2 analytically  !
 ! D4    D(10,1,3,4)           -98.3616         calculate D2E/DX2 analytically  !
 ! D5    D(10,1,3,8)            26.0543         calculate D2E/DX2 analytically  !
 ! D6    D(10,1,3,9)           136.9955         calculate D2E/DX2 analytically  !
 ! D7    D(2,1,10,11)          -13.3759         calculate D2E/DX2 analytically  !
 ! D8    D(3,1,10,11)          168.1572         calculate D2E/DX2 analytically  !
 ! D9    D(1,3,4,5)             80.6869         calculate D2E/DX2 analytically  !
 ! D10   D(1,3,4,6)           -110.0484         calculate D2E/DX2 analytically  !
 ! D11   D(8,3,4,5)            -41.5913         calculate D2E/DX2 analytically  !
 ! D12   D(8,3,4,6)            127.6734         calculate D2E/DX2 analytically  !
 ! D13   D(9,3,4,5)           -157.8813         calculate D2E/DX2 analytically  !
 ! D14   D(9,3,4,6)             11.3834         calculate D2E/DX2 analytically  !
 ! D15   D(3,4,5,7)            -94.3571         calculate D2E/DX2 analytically  !
 ! D16   D(6,4,5,7)             93.2415         calculate D2E/DX2 analytically  !
 --------------------------------------------------------------------------------
 Trust Radius=3.00D-01 FncErr=1.00D-07 GrdErr=1.00D-06 EigMax=2.50D+02 EigMin=1.00D-04
 Number of steps in this run=    100 maximum allowed number of steps=    100.
 Search for a saddle point of order  1.
 GradGradGradGradGradGradGradGradGradGradGradGradGradGradGradGradGradGrad

 Leave Link  103 at Sat May 24 02:14:37 2025, MaxMem=  3758096384 cpu:               0.0 elap:               0.0
 (Enter /apps/easybuild-2022/easybuild/software/Compiler/NVHPC/22.11-CUDA-11.7.0/Gaussian/g16c01-CUDA-11.7.0/g16/l202.exe)
                          Input orientation:                          
 ---------------------------------------------------------------------
 Center     Atomic      Atomic             Coordinates (Angstroms)
 Number     Number       Type             X           Y           Z
 ---------------------------------------------------------------------
      1          6           0        1.471212    0.124352    0.131916
      2          8           0        2.323471   -0.551367    0.603333
      3          6           0       -0.024764   -0.318507   -0.063763
      4          6           0       -0.665636   -0.108598    1.142386
      5          9           0       -1.138084    1.467907    1.425801
      6          9           0       -1.122824   -0.767282    2.005488
      7          9           0        0.558289    1.330027    2.270376
      8          9           0       -0.585012    0.347198   -1.108988
      9          9           0       -0.062210   -1.598365   -0.507516
     10          8           0        1.656881    1.351805   -0.335323
     11          1           0        2.518174    1.694235   -0.051608
 ---------------------------------------------------------------------
                    Distance matrix (angstroms):
                    1          2          3          4          5
     1  C    0.000000
     2  O    1.185401   0.000000
     3  C    1.572374   2.452233   0.000000
     4  C    2.375170   3.069427   1.381873   0.000000
     5  F    3.207445   4.091000   2.578674   1.670000   0.000000
     6  F    3.321793   3.726876   2.385149   1.178062   2.309186
     7  F    2.619178   3.071570   2.916474   2.199999   1.900000
     8  F    2.411962   3.492669   1.359977   2.298464   2.826134
     9  F    2.393326   2.832254   1.355122   2.303412   3.781170
    10  O    1.326434   2.224293   2.385711   3.116165   3.305581
    11  H    1.895875   2.347251   3.243118   3.848698   3.949960
                    6          7          8          9         10
     6  F    0.000000
     7  F    2.700928   0.000000
     8  F    3.351308   3.700431   0.000000
     9  F    2.851454   4.083771   2.102452   0.000000
    10  O    4.206743   2.827905   2.575631   3.418834   0.000000
    11  H    4.852585   3.060295   3.544337   4.208022   0.969318
                   11
    11  H    0.000000
 Symmetry turned off by external request.
 Stoichiometry    C3HF5O2
 Rotational constants (GHZ):           1.5172101           1.2909286           1.0525776
 Leave Link  202 at Sat May 24 02:14:37 2025, MaxMem=  3758096384 cpu:               0.0 elap:               0.0
 (Enter /apps/easybuild-2022/easybuild/software/Compiler/NVHPC/22.11-CUDA-11.7.0/Gaussian/g16c01-CUDA-11.7.0/g16/l301.exe)
 Standard basis: def2TZVPP (5D, 7F)
 Ernie: Thresh=  0.10000D-02 Tol=  0.10000D-05 Strict=F.
   324 basis functions,   527 primitive gaussians,   375 cartesian basis functions
    40 alpha electrons       40 beta electrons
       nuclear repulsion energy       619.4672213506 Hartrees.
 IExCor= 4336 DFT=T Ex+Corr=M062X ExCW=0 ScaHFX=  0.540000
 ScaDFX=  1.000000  1.000000  1.000000  1.000000 ScalE2=  1.000000  1.000000
 IRadAn=      5 IRanWt=     -1 IRanGd=            0 ICorTp=0 IEmpDi=  4
 NAtoms=   11 NActive=   11 NUniq=   11 SFac= 1.00D+00 NAtFMM=   60 NAOKFM=F Big=F
 Integral buffers will be    131072 words long.
 Raffenetti 2 integral format.
 Two-electron integral symmetry is turned off.
 Leave Link  301 at Sat May 24 02:14:37 2025, MaxMem=  3758096384 cpu:               0.0 elap:               0.0
 (Enter /apps/easybuild-2022/easybuild/software/Compiler/NVHPC/22.11-CUDA-11.7.0/Gaussian/g16c01-CUDA-11.7.0/g16/l302.exe)
 NPDir=0 NMtPBC=     1 NCelOv=     1 NCel=       1 NClECP=     1 NCelD=      1
         NCelK=      1 NCelE2=     1 NClLst=     1 CellRange=     0.0.
 One-electron integrals computed using PRISM.
   1 Symmetry operations used in ECPInt.
 ECPInt:  NShTT=    6786 NPrTT=   21959 LenC2=    6472 LenP2D=   15845.
 LDataN:  DoStor=T MaxTD1= 6 Len=  172
 NBasis=   324 RedAO= T EigKep=  1.54D-04  NBF=   324
 NBsUse=   324 1.00D-06 EigRej= -1.00D+00 NBFU=   324
 Precomputing XC quadrature grid using
 IXCGrd= 4 IRadAn=           5 IRanWt=          -1 IRanGd=           0 AccXCQ= 0.00D+00.
 Generated NRdTot=       0 NPtTot=           0 NUsed=           0 NTot=          32
 NSgBfM=   372   372   372   372   372 MxSgAt=    11 MxSgA2=    11.
 Leave Link  302 at Sat May 24 02:14:37 2025, MaxMem=  3758096384 cpu:               0.7 elap:               0.2
 (Enter /apps/easybuild-2022/easybuild/software/Compiler/NVHPC/22.11-CUDA-11.7.0/Gaussian/g16c01-CUDA-11.7.0/g16/l303.exe)
 DipDrv:  MaxL=1.
 Leave Link  303 at Sat May 24 02:14:38 2025, MaxMem=  3758096384 cpu:               0.1 elap:               0.0
 (Enter /apps/easybuild-2022/easybuild/software/Compiler/NVHPC/22.11-CUDA-11.7.0/Gaussian/g16c01-CUDA-11.7.0/g16/l401.exe)
 ExpMin= 9.52D-02 ExpMax= 3.55D+04 ExpMxC= 1.21D+03 IAcc=3 IRadAn=         5 AccDes= 0.00D+00
 Harris functional with IExCor= 1009 and IRadAn=       5 diagonalized for initial guess.
 HarFok:  IExCor= 1009 AccDes= 0.00D+00 IRadAn=         5 IDoV= 1 UseB2=F ITyADJ=14
 ICtDFT=  3500011 ScaDFX=  1.000000  1.000000  1.000000  1.000000
 FoFCou: FMM=F IPFlag=           0 FMFlag=      100000 FMFlg1=           0
         NFxFlg=           0 DoJE=T BraDBF=F KetDBF=T FulRan=T
         wScrn=  0.000000 ICntrl=       500 IOpCl=  0 I1Cent=   200000004 NGrid=           0
         NMat0=    1 NMatS0=      1 NMatT0=    0 NMatD0=    1 NMtDS0=    0 NMtDT0=    0
 Symmetry not used in FoFCou.
 Harris En= -764.057061568034    
 JPrj=0 DoOrth=F DoCkMO=F.
 Leave Link  401 at Sat May 24 02:14:38 2025, MaxMem=  3758096384 cpu:               3.6 elap:               0.5
 (Enter /apps/easybuild-2022/easybuild/software/Compiler/NVHPC/22.11-CUDA-11.7.0/Gaussian/g16c01-CUDA-11.7.0/g16/l502.exe)
 Keep R1 ints in memory in canonical form, NReq=1412617130.
 FoFCou: FMM=F IPFlag=           0 FMFlag=           0 FMFlg1=           0
         NFxFlg=           0 DoJE=F BraDBF=F KetDBF=F FulRan=T
         wScrn=  0.000000 ICntrl=       600 IOpCl=  0 I1Cent=           0 NGrid=           0
         NMat0=    1 NMatS0=  52650 NMatT0=    0 NMatD0=    1 NMtDS0=    0 NMtDT0=    0
 Symmetry not used in FoFCou.
 Two-electron integral symmetry not used.
 Closed shell SCF:
 Using DIIS extrapolation, IDIIS=  1040.
 NGot=  3758096384 LenX=  2371771924 LenY=  2371630858
 Requested convergence on RMS density matrix=1.00D-08 within  32 cycles.
 Requested convergence on MAX density matrix=1.00D-06.
 Requested convergence on             energy=1.00D-06.
 No special actions if energy rises.
 Integral accuracy reduced to 1.0D-05 until final iterations.

 Cycle   1  Pass 0  IDiag  1:
 E= -763.958007321859    
 DIIS: error= 2.63D-02 at cycle   1 NSaved=   1.
 NSaved= 1 IEnMin= 1 EnMin= -763.958007321859     IErMin= 1 ErrMin= 2.63D-02
 ErrMax= 2.63D-02  0.00D+00 EMaxC= 1.00D-01 BMatC= 5.70D-01 BMatP= 5.70D-01
 IDIUse=3 WtCom= 7.37D-01 WtEn= 2.63D-01
 Coeff-Com:  0.100D+01
 Coeff-En:   0.100D+01
 Coeff:      0.100D+01
 Gap=    -0.160 Goal=   None    Shift=    0.000
 GapD=   -0.160 DampG=0.250 DampE=0.500 DampFc=0.2500 IDamp=-1.
 Damping current iteration by 2.50D-01
 RMSDP=1.09D-02 MaxDP=1.16D+00              OVMax= 9.09D-01

 Cycle   2  Pass 0  IDiag  1:
 E= -763.754544732102     Delta-E=        0.203462589757 Rises=F Damp=T
 DIIS: error= 1.01D-02 at cycle   2 NSaved=   2.
 NSaved= 2 IEnMin= 1 EnMin= -763.958007321859     IErMin= 2 ErrMin= 1.01D-02
 ErrMax= 1.01D-02  0.00D+00 EMaxC= 1.00D-01 BMatC= 1.53D-01 BMatP= 5.70D-01
 IDIUse=3 WtCom= 8.99D-01 WtEn= 1.01D-01
 Coeff-Com:  0.119D+00 0.881D+00
 Coeff-En:   0.677D+00 0.323D+00
 Coeff:      0.175D+00 0.825D+00
 Gap=    -0.171 Goal=   None    Shift=    0.000
 RMSDP=2.81D-03 MaxDP=2.75D-01 DE= 2.03D-01 OVMax= 8.51D-01

 Cycle   3  Pass 0  IDiag  1:
 E= -764.071735911325     Delta-E=       -0.317191179223 Rises=F Damp=F
 DIIS: error= 2.70D-02 at cycle   3 NSaved=   3.
 NSaved= 3 IEnMin= 3 EnMin= -764.071735911325     IErMin= 2 ErrMin= 1.01D-02
 ErrMax= 2.70D-02  0.00D+00 EMaxC= 1.00D-01 BMatC= 3.77D-01 BMatP= 1.53D-01
 IDIUse=2 WtCom= 0.00D+00 WtEn= 1.00D+00
 EnCoef did     2 forward-backward iterations
 Coeff-En:   0.140D+00 0.216D+00 0.644D+00
 Coeff:      0.140D+00 0.216D+00 0.644D+00
 Gap=     0.223 Goal=   None    Shift=    0.000
 RMSDP=5.10D-03 MaxDP=2.53D-01 DE=-3.17D-01 OVMax= 7.79D-01

 Cycle   4  Pass 0  IDiag  1:
 E= -762.189736674125     Delta-E=        1.881999237199 Rises=F Damp=F
 DIIS: error= 5.90D-02 at cycle   4 NSaved=   4.
 NSaved= 4 IEnMin= 3 EnMin= -764.071735911325     IErMin= 2 ErrMin= 1.01D-02
 ErrMax= 5.90D-02  0.00D+00 EMaxC= 1.00D-01 BMatC= 2.13D+00 BMatP= 1.53D-01
 IDIUse=2 WtCom= 0.00D+00 WtEn= 1.00D+00
 EnCoef did     3 forward-backward iterations
 Coeff-En:   0.189D+00 0.000D+00 0.641D+00 0.169D+00
 Coeff:      0.189D+00 0.000D+00 0.641D+00 0.169D+00
 Gap=    -0.028 Goal=   None    Shift=    0.000
 RMSDP=4.86D-03 MaxDP=1.87D-01 DE= 1.88D+00 OVMax= 9.65D-01

 Cycle   5  Pass 0  IDiag  1:
 E= -764.325344337480     Delta-E=       -2.135607663354 Rises=F Damp=F
 DIIS: error= 1.05D-02 at cycle   5 NSaved=   5.
 NSaved= 5 IEnMin= 5 EnMin= -764.325344337480     IErMin= 2 ErrMin= 1.01D-02
 ErrMax= 1.05D-02  0.00D+00 EMaxC= 1.00D-01 BMatC= 5.49D-02 BMatP= 1.53D-01
 IDIUse=3 WtCom= 8.95D-01 WtEn= 1.05D-01
 Coeff-Com: -0.391D-01 0.130D+00 0.284D+00-0.365D-02 0.629D+00
 Coeff-En:   0.000D+00 0.000D+00 0.266D-01 0.000D+00 0.973D+00
 Coeff:     -0.350D-01 0.117D+00 0.257D+00-0.327D-02 0.665D+00
 Gap=     0.188 Goal=   None    Shift=    0.000
 RMSDP=7.62D-04 MaxDP=5.47D-02 DE=-2.14D+00 OVMax= 6.87D-02

 Cycle   6  Pass 0  IDiag  1:
 E= -764.349479070157     Delta-E=       -0.024134732678 Rises=F Damp=F
 DIIS: error= 3.61D-03 at cycle   6 NSaved=   6.
 NSaved= 6 IEnMin= 6 EnMin= -764.349479070157     IErMin= 6 ErrMin= 3.61D-03
 ErrMax= 3.61D-03  0.00D+00 EMaxC= 1.00D-01 BMatC= 7.44D-03 BMatP= 5.49D-02
 IDIUse=3 WtCom= 9.64D-01 WtEn= 3.61D-02
 Coeff-Com: -0.394D-01 0.482D-01 0.310D-01-0.863D-03 0.250D+00 0.711D+00
 Coeff-En:   0.000D+00 0.000D+00 0.000D+00 0.000D+00 0.137D+00 0.863D+00
 Coeff:     -0.380D-01 0.464D-01 0.299D-01-0.832D-03 0.246D+00 0.716D+00
 Gap=     0.186 Goal=   None    Shift=    0.000
 RMSDP=2.44D-04 MaxDP=1.23D-02 DE=-2.41D-02 OVMax= 3.65D-02

 Cycle   7  Pass 0  IDiag  1:
 E= -764.356120196886     Delta-E=       -0.006641126728 Rises=F Damp=F
 DIIS: error= 7.32D-04 at cycle   7 NSaved=   7.
 NSaved= 7 IEnMin= 7 EnMin= -764.356120196886     IErMin= 7 ErrMin= 7.32D-04
 ErrMax= 7.32D-04  0.00D+00 EMaxC= 1.00D-01 BMatC= 3.66D-04 BMatP= 7.44D-03
 IDIUse=3 WtCom= 9.93D-01 WtEn= 7.32D-03
 Coeff-Com: -0.170D-01 0.236D-01-0.669D-02-0.827D-04 0.175D-01 0.243D+00
 Coeff-Com:  0.739D+00
 Coeff-En:   0.000D+00 0.000D+00 0.000D+00 0.000D+00 0.000D+00 0.000D+00
 Coeff-En:   0.100D+01
 Coeff:     -0.169D-01 0.235D-01-0.665D-02-0.821D-04 0.174D-01 0.241D+00
 Coeff:      0.741D+00
 Gap=     0.195 Goal=   None    Shift=    0.000
 RMSDP=9.02D-05 MaxDP=5.43D-03 DE=-6.64D-03 OVMax= 1.52D-02

 Cycle   8  Pass 0  IDiag  1:
 E= -764.356731368396     Delta-E=       -0.000611171510 Rises=F Damp=F
 DIIS: error= 3.70D-04 at cycle   8 NSaved=   8.
 NSaved= 8 IEnMin= 8 EnMin= -764.356731368396     IErMin= 8 ErrMin= 3.70D-04
 ErrMax= 3.70D-04  0.00D+00 EMaxC= 1.00D-01 BMatC= 9.24D-05 BMatP= 3.66D-04
 IDIUse=3 WtCom= 9.96D-01 WtEn= 3.70D-03
 Coeff-Com:  0.117D-02 0.226D-02-0.193D-02 0.941D-04-0.493D-01-0.118D+00
 Coeff-Com:  0.256D+00 0.910D+00
 Coeff-En:   0.000D+00 0.000D+00 0.000D+00 0.000D+00 0.000D+00 0.000D+00
 Coeff-En:   0.000D+00 0.100D+01
 Coeff:      0.117D-02 0.225D-02-0.193D-02 0.938D-04-0.491D-01-0.118D+00
 Coeff:      0.255D+00 0.910D+00
 Gap=     0.201 Goal=   None    Shift=    0.000
 RMSDP=8.77D-05 MaxDP=4.48D-03 DE=-6.11D-04 OVMax= 1.86D-02

 Cycle   9  Pass 0  IDiag  1:
 E= -764.357060608326     Delta-E=       -0.000329239930 Rises=F Damp=F
 DIIS: error= 1.88D-04 at cycle   9 NSaved=   9.
 NSaved= 9 IEnMin= 9 EnMin= -764.357060608326     IErMin= 9 ErrMin= 1.88D-04
 ErrMax= 1.88D-04  0.00D+00 EMaxC= 1.00D-01 BMatC= 2.91D-05 BMatP= 9.24D-05
 IDIUse=3 WtCom= 9.98D-01 WtEn= 1.88D-03
 Coeff-Com:  0.333D-02-0.265D-02 0.520D-02-0.427D-03-0.422D-02-0.385D-01
 Coeff-Com: -0.798D-01 0.183D+00 0.934D+00
 Coeff-En:   0.000D+00 0.000D+00 0.000D+00 0.000D+00 0.000D+00 0.000D+00
 Coeff-En:   0.000D+00 0.000D+00 0.100D+01
 Coeff:      0.332D-02-0.264D-02 0.519D-02-0.427D-03-0.421D-02-0.384D-01
 Coeff:     -0.796D-01 0.183D+00 0.934D+00
 Gap=     0.203 Goal=   None    Shift=    0.000
 RMSDP=4.91D-05 MaxDP=2.14D-03 DE=-3.29D-04 OVMax= 1.18D-02

 Failed to achieve initial convergence to 1.0D-08 in 10 cycles.
 Switch to full accuracy anyway.
 Cycle  10  Pass 1  IDiag  1:
 E= -764.357114047386     Delta-E=       -0.000053439060 Rises=F Damp=F
 DIIS: error= 1.94D-04 at cycle   1 NSaved=   1.
 NSaved= 1 IEnMin= 1 EnMin= -764.357114047386     IErMin= 1 ErrMin= 1.94D-04
 ErrMax= 1.94D-04  0.00D+00 EMaxC= 1.00D-01 BMatC= 2.61D-05 BMatP= 2.61D-05
 IDIUse=3 WtCom= 9.98D-01 WtEn= 1.94D-03
 Coeff-Com:  0.100D+01
 Coeff-En:   0.100D+01
 Coeff:      0.100D+01
 Gap=     0.207 Goal=   None    Shift=    0.000
 RMSDP=4.91D-05 MaxDP=2.14D-03 DE=-5.34D-05 OVMax= 7.47D-03

 Cycle  11  Pass 1  IDiag  1:
 E= -764.357104986862     Delta-E=        0.000009060524 Rises=F Damp=F
 DIIS: error= 3.99D-04 at cycle   2 NSaved=   2.
 NSaved= 2 IEnMin= 1 EnMin= -764.357114047386     IErMin= 1 ErrMin= 1.94D-04
 ErrMax= 3.99D-04  0.00D+00 EMaxC= 1.00D-01 BMatC= 9.11D-05 BMatP= 2.61D-05
 IDIUse=3 WtCom= 3.34D-01 WtEn= 6.66D-01
 Coeff-Com:  0.665D+00 0.335D+00
 Coeff-En:   0.559D+00 0.441D+00
 Coeff:      0.594D+00 0.406D+00
 Gap=     0.203 Goal=   None    Shift=    0.000
 RMSDP=3.20D-05 MaxDP=2.04D-03 DE= 9.06D-06 OVMax= 4.87D-03

 Cycle  12  Pass 1  IDiag  1:
 E= -764.357172811241     Delta-E=       -0.000067824378 Rises=F Damp=F
 DIIS: error= 1.24D-04 at cycle   3 NSaved=   3.
 NSaved= 3 IEnMin= 3 EnMin= -764.357172811241     IErMin= 3 ErrMin= 1.24D-04
 ErrMax= 1.24D-04  0.00D+00 EMaxC= 1.00D-01 BMatC= 1.05D-05 BMatP= 2.61D-05
 IDIUse=3 WtCom= 9.99D-01 WtEn= 1.24D-03
 Coeff-Com:  0.135D-02 0.236D+00 0.763D+00
 Coeff-En:   0.000D+00 0.304D-01 0.970D+00
 Coeff:      0.135D-02 0.236D+00 0.763D+00
 Gap=     0.204 Goal=   None    Shift=    0.000
 RMSDP=1.74D-05 MaxDP=6.96D-04 DE=-6.78D-05 OVMax= 3.90D-03

 Cycle  13  Pass 1  IDiag  1:
 E= -764.357194723231     Delta-E=       -0.000021911991 Rises=F Damp=F
 DIIS: error= 5.91D-05 at cycle   4 NSaved=   4.
 NSaved= 4 IEnMin= 4 EnMin= -764.357194723231     IErMin= 4 ErrMin= 5.91D-05
 ErrMax= 5.91D-05  0.00D+00 EMaxC= 1.00D-01 BMatC= 2.20D-06 BMatP= 1.05D-05
 IDIUse=1 WtCom= 1.00D+00 WtEn= 0.00D+00
 Coeff-Com: -0.551D+00-0.441D-01 0.622D+00 0.973D+00
 Coeff:     -0.551D+00-0.441D-01 0.622D+00 0.973D+00
 Gap=     0.204 Goal=   None    Shift=    0.000
 RMSDP=2.58D-05 MaxDP=1.21D-03 DE=-2.19D-05 OVMax= 7.10D-03

 Cycle  14  Pass 1  IDiag  1:
 E= -764.357213370620     Delta-E=       -0.000018647389 Rises=F Damp=F
 DIIS: error= 3.05D-05 at cycle   5 NSaved=   5.
 NSaved= 5 IEnMin= 5 EnMin= -764.357213370620     IErMin= 5 ErrMin= 3.05D-05
 ErrMax= 3.05D-05  0.00D+00 EMaxC= 1.00D-01 BMatC= 4.99D-07 BMatP= 2.20D-06
 IDIUse=1 WtCom= 1.00D+00 WtEn= 0.00D+00
 Coeff-Com: -0.171D+00-0.744D-01-0.161D+00 0.248D+00 0.116D+01
 Coeff:     -0.171D+00-0.744D-01-0.161D+00 0.248D+00 0.116D+01
 Gap=     0.204 Goal=   None    Shift=    0.000
 RMSDP=1.86D-05 MaxDP=8.41D-04 DE=-1.86D-05 OVMax= 4.91D-03

 Cycle  15  Pass 1  IDiag  1:
 E= -764.357218928791     Delta-E=       -0.000005558172 Rises=F Damp=F
 DIIS: error= 9.49D-06 at cycle   6 NSaved=   6.
 NSaved= 6 IEnMin= 6 EnMin= -764.357218928791     IErMin= 6 ErrMin= 9.49D-06
 ErrMax= 9.49D-06  0.00D+00 EMaxC= 1.00D-01 BMatC= 1.20D-07 BMatP= 4.99D-07
 IDIUse=1 WtCom= 1.00D+00 WtEn= 0.00D+00
 Coeff-Com:  0.242D-01-0.334D-01-0.210D+00-0.720D-01 0.596D+00 0.695D+00
 Coeff:      0.242D-01-0.334D-01-0.210D+00-0.720D-01 0.596D+00 0.695D+00
 Gap=     0.204 Goal=   None    Shift=    0.000
 RMSDP=5.13D-06 MaxDP=2.28D-04 DE=-5.56D-06 OVMax= 1.30D-03

 Cycle  16  Pass 1  IDiag  1:
 E= -764.357219379571     Delta-E=       -0.000000450780 Rises=F Damp=F
 DIIS: error= 8.71D-06 at cycle   7 NSaved=   7.
 NSaved= 7 IEnMin= 7 EnMin= -764.357219379571     IErMin= 7 ErrMin= 8.71D-06
 ErrMax= 8.71D-06  0.00D+00 EMaxC= 1.00D-01 BMatC= 4.30D-08 BMatP= 1.20D-07
 IDIUse=1 WtCom= 1.00D+00 WtEn= 0.00D+00
 Coeff-Com:  0.519D-01-0.304D-02-0.204D-01-0.809D-01-0.573D-01 0.220D+00
 Coeff-Com:  0.890D+00
 Coeff:      0.519D-01-0.304D-02-0.204D-01-0.809D-01-0.573D-01 0.220D+00
 Coeff:      0.890D+00
 Gap=     0.204 Goal=   None    Shift=    0.000
 RMSDP=1.46D-06 MaxDP=7.81D-05 DE=-4.51D-07 OVMax= 2.44D-04

 Cycle  17  Pass 1  IDiag  1:
 E= -764.357219443525     Delta-E=       -0.000000063954 Rises=F Damp=F
 DIIS: error= 3.34D-06 at cycle   8 NSaved=   8.
 NSaved= 8 IEnMin= 8 EnMin= -764.357219443525     IErMin= 8 ErrMin= 3.34D-06
 ErrMax= 3.34D-06  0.00D+00 EMaxC= 1.00D-01 BMatC= 9.77D-09 BMatP= 4.30D-08
 IDIUse=1 WtCom= 1.00D+00 WtEn= 0.00D+00
 Coeff-Com:  0.103D-01-0.485D-03 0.340D-01-0.133D-01-0.103D+00-0.804D-01
 Coeff-Com:  0.110D+00 0.104D+01
 Coeff:      0.103D-01-0.485D-03 0.340D-01-0.133D-01-0.103D+00-0.804D-01
 Coeff:      0.110D+00 0.104D+01
 Gap=     0.204 Goal=   None    Shift=    0.000
 RMSDP=8.38D-07 MaxDP=5.04D-05 DE=-6.40D-08 OVMax= 1.32D-04

 Cycle  18  Pass 1  IDiag  1:
 E= -764.357219460779     Delta-E=       -0.000000017254 Rises=F Damp=F
 DIIS: error= 5.96D-07 at cycle   9 NSaved=   9.
 NSaved= 9 IEnMin= 9 EnMin= -764.357219460779     IErMin= 9 ErrMin= 5.96D-07
 ErrMax= 5.96D-07  0.00D+00 EMaxC= 1.00D-01 BMatC= 5.33D-10 BMatP= 9.77D-09
 IDIUse=1 WtCom= 1.00D+00 WtEn= 0.00D+00
 Coeff-Com: -0.144D-02-0.175D-03 0.747D-02 0.248D-02-0.127D-01-0.407D-01
 Coeff-Com: -0.967D-01 0.332D+00 0.810D+00
 Coeff:     -0.144D-02-0.175D-03 0.747D-02 0.248D-02-0.127D-01-0.407D-01
 Coeff:     -0.967D-01 0.332D+00 0.810D+00
 Gap=     0.204 Goal=   None    Shift=    0.000
 RMSDP=2.01D-07 MaxDP=6.50D-06 DE=-1.73D-08 OVMax= 3.62D-05

 Cycle  19  Pass 1  IDiag  1:
 E= -764.357219462572     Delta-E=       -0.000000001793 Rises=F Damp=F
 DIIS: error= 3.84D-07 at cycle  10 NSaved=  10.
 NSaved=10 IEnMin=10 EnMin= -764.357219462572     IErMin=10 ErrMin= 3.84D-07
 ErrMax= 3.84D-07  0.00D+00 EMaxC= 1.00D-01 BMatC= 1.67D-10 BMatP= 5.33D-10
 IDIUse=1 WtCom= 1.00D+00 WtEn= 0.00D+00
 Coeff-Com: -0.173D-02 0.378D-03-0.253D-02 0.212D-02 0.104D-01-0.367D-02
 Coeff-Com: -0.528D-01-0.274D-01 0.305D+00 0.770D+00
 Coeff:     -0.173D-02 0.378D-03-0.253D-02 0.212D-02 0.104D-01-0.367D-02
 Coeff:     -0.528D-01-0.274D-01 0.305D+00 0.770D+00
 Gap=     0.204 Goal=   None    Shift=    0.000
 RMSDP=8.47D-08 MaxDP=3.08D-06 DE=-1.79D-09 OVMax= 1.95D-05

 Cycle  20  Pass 1  IDiag  1:
 E= -764.357219463133     Delta-E=       -0.000000000561 Rises=F Damp=F
 DIIS: error= 2.34D-07 at cycle  11 NSaved=  11.
 NSaved=11 IEnMin=11 EnMin= -764.357219463133     IErMin=11 ErrMin= 2.34D-07
 ErrMax= 2.34D-07  0.00D+00 EMaxC= 1.00D-01 BMatC= 5.55D-11 BMatP= 1.67D-10
 IDIUse=1 WtCom= 1.00D+00 WtEn= 0.00D+00
 Coeff-Com: -0.520D-03 0.540D-03-0.282D-02 0.456D-03 0.741D-02 0.807D-02
 Coeff-Com:  0.648D-02-0.119D+00-0.146D+00 0.325D+00 0.920D+00
 Coeff:     -0.520D-03 0.540D-03-0.282D-02 0.456D-03 0.741D-02 0.807D-02
 Coeff:      0.648D-02-0.119D+00-0.146D+00 0.325D+00 0.920D+00
 Gap=     0.204 Goal=   None    Shift=    0.000
 RMSDP=7.54D-08 MaxDP=2.94D-06 DE=-5.61D-10 OVMax= 1.93D-05

 Cycle  21  Pass 1  IDiag  1:
 E= -764.357219463442     Delta-E=       -0.000000000309 Rises=F Damp=F
 DIIS: error= 1.22D-07 at cycle  12 NSaved=  12.
 NSaved=12 IEnMin=12 EnMin= -764.357219463442     IErMin=12 ErrMin= 1.22D-07
 ErrMax= 1.22D-07  0.00D+00 EMaxC= 1.00D-01 BMatC= 1.64D-11 BMatP= 5.55D-11
 IDIUse=1 WtCom= 1.00D+00 WtEn= 0.00D+00
 Coeff-Com:  0.157D-03 0.161D-03-0.272D-03-0.217D-03-0.430D-03 0.346D-02
 Coeff-Com:  0.209D-01-0.418D-01-0.161D+00-0.100D+00 0.435D+00 0.844D+00
 Coeff:      0.157D-03 0.161D-03-0.272D-03-0.217D-03-0.430D-03 0.346D-02
 Coeff:      0.209D-01-0.418D-01-0.161D+00-0.100D+00 0.435D+00 0.844D+00
 Gap=     0.204 Goal=   None    Shift=    0.000
 RMSDP=4.30D-08 MaxDP=1.77D-06 DE=-3.09D-10 OVMax= 1.09D-05

 Cycle  22  Pass 1  IDiag  1:
 E= -764.357219463465     Delta-E=       -0.000000000024 Rises=F Damp=F
 DIIS: error= 4.91D-08 at cycle  13 NSaved=  13.
 NSaved=13 IEnMin=13 EnMin= -764.357219463465     IErMin=13 ErrMin= 4.91D-08
 ErrMax= 4.91D-08  0.00D+00 EMaxC= 1.00D-01 BMatC= 3.75D-12 BMatP= 1.64D-11
 IDIUse=1 WtCom= 1.00D+00 WtEn= 0.00D+00
 Coeff-Com:  0.842D-04-0.157D-04 0.615D-03-0.402D-04-0.211D-02-0.468D-03
 Coeff-Com:  0.101D-01 0.347D-02-0.493D-01-0.117D+00 0.358D-01 0.429D+00
 Coeff-Com:  0.690D+00
 Coeff:      0.842D-04-0.157D-04 0.615D-03-0.402D-04-0.211D-02-0.468D-03
 Coeff:      0.101D-01 0.347D-02-0.493D-01-0.117D+00 0.358D-01 0.429D+00
 Coeff:      0.690D+00
 Gap=     0.204 Goal=   None    Shift=    0.000
 RMSDP=1.35D-08 MaxDP=6.23D-07 DE=-2.36D-11 OVMax= 3.67D-06

 Cycle  23  Pass 1  IDiag  1:
 E= -764.357219463499     Delta-E=       -0.000000000034 Rises=F Damp=F
 DIIS: error= 2.49D-08 at cycle  14 NSaved=  14.
 NSaved=14 IEnMin=14 EnMin= -764.357219463499     IErMin=14 ErrMin= 2.49D-08
 ErrMax= 2.49D-08  0.00D+00 EMaxC= 1.00D-01 BMatC= 4.83D-13 BMatP= 3.75D-12
 IDIUse=1 WtCom= 1.00D+00 WtEn= 0.00D+00
 Coeff-Com:  0.128D-05-0.203D-04 0.118D-03-0.376D-04-0.242D-03-0.351D-03
 Coeff-Com: -0.397D-03 0.610D-02 0.185D-01-0.287D-02-0.742D-01-0.780D-01
 Coeff-Com:  0.150D+00 0.981D+00
 Coeff:      0.128D-05-0.203D-04 0.118D-03-0.376D-04-0.242D-03-0.351D-03
 Coeff:     -0.397D-03 0.610D-02 0.185D-01-0.287D-02-0.742D-01-0.780D-01
 Coeff:      0.150D+00 0.981D+00
 Gap=     0.204 Goal=   None    Shift=    0.000
 RMSDP=7.57D-09 MaxDP=3.20D-07 DE=-3.41D-11 OVMax= 1.83D-06

 SCF Done:  E(RM062X) =  -764.357219463     A.U. after   23 cycles
            NFock= 23  Conv=0.76D-08     -V/T= 2.0037
 KE= 7.615753584614D+02 PE=-3.050836114667D+03 EE= 9.054363153918D+02
 Leave Link  502 at Sat May 24 02:15:19 2025, MaxMem=  3758096384 cpu:             176.4 elap:              41.4
 (Enter /apps/easybuild-2022/easybuild/software/Compiler/NVHPC/22.11-CUDA-11.7.0/Gaussian/g16c01-CUDA-11.7.0/g16/l508.exe)
 QCSCF skips out because SCF is already converged.
 Leave Link  508 at Sat May 24 02:15:20 2025, MaxMem=  3758096384 cpu:               0.0 elap:               0.0
 (Enter /apps/easybuild-2022/easybuild/software/Compiler/NVHPC/22.11-CUDA-11.7.0/Gaussian/g16c01-CUDA-11.7.0/g16/l801.exe)
 DoSCS=F DFT=T ScalE2(SS,OS)=  1.000000  1.000000
 Range of M.O.s used for correlation:     1   324
 NBasis=   324 NAE=    40 NBE=    40 NFC=     0 NFV=     0
 NROrb=    324 NOA=    40 NOB=    40 NVA=   284 NVB=   284

 **** Warning!!: The largest alpha MO coefficient is  0.20875082D+02

 Leave Link  801 at Sat May 24 02:15:20 2025, MaxMem=  3758096384 cpu:               0.1 elap:               0.0
 (Enter /apps/easybuild-2022/easybuild/software/Compiler/NVHPC/22.11-CUDA-11.7.0/Gaussian/g16c01-CUDA-11.7.0/g16/l1101.exe)
 Using compressed storage, NAtomX=    11.
 Will process     12 centers per pass.
   1 Symmetry operations used in ECPInt.
 ECPInt:  NShTT=    6786 NPrTT=   21959 LenC2=    6472 LenP2D=   15845.
 LDataN:  DoStor=T MaxTD1= 7 Len=  274
 Leave Link 1101 at Sat May 24 02:15:20 2025, MaxMem=  3758096384 cpu:               1.1 elap:               0.2
 (Enter /apps/easybuild-2022/easybuild/software/Compiler/NVHPC/22.11-CUDA-11.7.0/Gaussian/g16c01-CUDA-11.7.0/g16/l1102.exe)
 Symmetrizing basis deriv contribution to polar:
 IMax=3 JMax=2 DiffMx= 0.00D+00
 Leave Link 1102 at Sat May 24 02:15:20 2025, MaxMem=  3758096384 cpu:               0.1 elap:               0.0
 (Enter /apps/easybuild-2022/easybuild/software/Compiler/NVHPC/22.11-CUDA-11.7.0/Gaussian/g16c01-CUDA-11.7.0/g16/l1110.exe)
 Forming Gx(P) for the SCF density, NAtomX=    11.
 Integral derivatives from FoFJK, PRISM(SPDF).
 Do as many integral derivatives as possible in FoFJK.
 G2DrvN: MDV=    3758095115.
 G2DrvN: will do    12 centers at a time, making    1 passes.
 Calling FoFCou, ICntrl=  3107 FMM=F I1Cent=   0 AccDes= 0.00D+00.
 FoFJK:  IHMeth= 1 ICntrl=    3107 DoSepK=F KAlg= 0 I1Cent=           0 FoldK=F
 IRaf=         0 NMat=       1 IRICut=       1 DoRegI=T DoRafI=F ISym2E= 0 IDoP0=0 IntGTp=1.
 FoFCou: FMM=F IPFlag=           0 FMFlag=      100000 FMFlg1=           0
         NFxFlg=           0 DoJE=F BraDBF=F KetDBF=F FulRan=T
         wScrn=  0.000000 ICntrl=      3107 IOpCl=  0 I1Cent=           0 NGrid=           0
         NMat0=    1 NMatS0=      1 NMatT0=    0 NMatD0=    1 NMtDS0=    0 NMtDT0=    0
 Symmetry not used in FoFCou.
 End of G2Drv F.D. properties file   721 does not exist.
 End of G2Drv F.D. properties file   722 does not exist.
 End of G2Drv F.D. properties file   788 does not exist.
 Leave Link 1110 at Sat May 24 02:16:04 2025, MaxMem=  3758096384 cpu:             346.8 elap:              43.9
 (Enter /apps/easybuild-2022/easybuild/software/Compiler/NVHPC/22.11-CUDA-11.7.0/Gaussian/g16c01-CUDA-11.7.0/g16/l1002.exe)
 Minotr:  Closed shell wavefunction.
          IDoAtm=11111111111
          Direct CPHF calculation.
          Differentiating once with respect to electric field.
                with respect to dipole field.
          Differentiating once with respect to nuclear coordinates.
          Requested convergence is 1.0D-08 RMS, and 1.0D-07 maximum.
          Secondary convergence is 1.0D-12 RMS, and 1.0D-12 maximum.
          NewPWx=T KeepS1=F KeepF1=F KeepIn=T MapXYZ=F SortEE=F KeepMc=T.
         3293 words used for storage of precomputed grid.
 Keep R1 ints in memory in canonical form, NReq=1412622523.
 FoFCou: FMM=F IPFlag=           0 FMFlag=           0 FMFlg1=           0
         NFxFlg=           0 DoJE=F BraDBF=F KetDBF=F FulRan=T
         wScrn=  0.000000 ICntrl=       600 IOpCl=  0 I1Cent=           0 NGrid=           0
         NMat0=    1 NMatS0=  52650 NMatT0=    0 NMatD0=    1 NMtDS0=    0 NMtDT0=    0
 Symmetry not used in FoFCou.
 Two-electron integral symmetry not used.
          MDV=    3758096384 using IRadAn=       1.
          Solving linear equations simultaneously, MaxMat=       0.
          There are    36 degrees of freedom in the 1st order CPHF.  IDoFFX=6 NUNeed=     3.
     33 vectors produced by pass  0 Test12= 3.16D-14 2.78D-09 XBig12= 4.16D+01 3.62D+00.
 AX will form    33 AO Fock derivatives at one time.
     33 vectors produced by pass  1 Test12= 3.16D-14 2.78D-09 XBig12= 1.20D+01 6.12D-01.
     33 vectors produced by pass  2 Test12= 3.16D-14 2.78D-09 XBig12= 5.07D-01 1.47D-01.
     33 vectors produced by pass  3 Test12= 3.16D-14 2.78D-09 XBig12= 1.25D-02 2.29D-02.
     33 vectors produced by pass  4 Test12= 3.16D-14 2.78D-09 XBig12= 1.71D-04 2.51D-03.
     33 vectors produced by pass  5 Test12= 3.16D-14 2.78D-09 XBig12= 1.65D-06 1.40D-04.
     33 vectors produced by pass  6 Test12= 3.16D-14 2.78D-09 XBig12= 8.59D-09 1.18D-05.
     18 vectors produced by pass  7 Test12= 3.16D-14 2.78D-09 XBig12= 4.23D-11 8.96D-07.
      4 vectors produced by pass  8 Test12= 3.16D-14 2.78D-09 XBig12= 2.55D-13 5.97D-08.
      2 vectors produced by pass  9 Test12= 3.16D-14 2.78D-09 XBig12= 1.45D-15 4.52D-09.
 InvSVY:  IOpt=1 It=  1 EMax= 2.66D-15
 Solved reduced A of dimension   255 with    36 vectors.
 FullF1:  Do perturbations      1 to       3.
 Isotropic polarizability for W=    0.000000       54.70 Bohr**3.
 End of Minotr F.D. properties file   721 does not exist.
 End of Minotr F.D. properties file   722 does not exist.
 End of Minotr F.D. properties file   788 does not exist.
 Leave Link 1002 at Sat May 24 02:17:11 2025, MaxMem=  3758096384 cpu:             525.2 elap:              67.2
 (Enter /apps/easybuild-2022/easybuild/software/Compiler/NVHPC/22.11-CUDA-11.7.0/Gaussian/g16c01-CUDA-11.7.0/g16/l701.exe)
 ... and contract with generalized density number  0.
 Compute integral second derivatives.
   1 Symmetry operations used in ECPInt.
 ECPInt:  NShTT=    6786 NPrTT=   21959 LenC2=    6472 LenP2D=   15845.
 LDataN:  DoStor=T MaxTD1= 8 Len=  415
 Leave Link  701 at Sat May 24 02:17:11 2025, MaxMem=  3758096384 cpu:               0.8 elap:               0.2
 (Enter /apps/easybuild-2022/easybuild/software/Compiler/NVHPC/22.11-CUDA-11.7.0/Gaussian/g16c01-CUDA-11.7.0/g16/l702.exe)
 L702 exits ... SP integral derivatives will be done elsewhere.
 Leave Link  702 at Sat May 24 02:17:11 2025, MaxMem=  3758096384 cpu:               0.1 elap:               0.0
 (Enter /apps/easybuild-2022/easybuild/software/Compiler/NVHPC/22.11-CUDA-11.7.0/Gaussian/g16c01-CUDA-11.7.0/g16/l703.exe)
 Integral derivatives from FoFJK, PRISM(SPDF).
 Compute integral second derivatives, UseDBF=F ICtDFT=           0.
 Calling FoFJK, ICntrl=    100127 FMM=F ISym2X=0 I1Cent= 0 IOpClX= 0 NMat=1 NMatS=1 NMatT=0.
 FoFJK:  IHMeth= 1 ICntrl=  100127 DoSepK=F KAlg= 0 I1Cent=           0 FoldK=F
 IRaf=         0 NMat=       1 IRICut=       1 DoRegI=T DoRafI=F ISym2E= 0 IDoP0=0 IntGTp=1.
 FoFCou: FMM=F IPFlag=           0 FMFlag=      100000 FMFlg1=         800
         NFxFlg=           0 DoJE=F BraDBF=F KetDBF=F FulRan=T
         wScrn=  0.000000 ICntrl=    100127 IOpCl=  0 I1Cent=           0 NGrid=           0
         NMat0=    1 NMatS0=      1 NMatT0=    0 NMatD0=    1 NMtDS0=    0 NMtDT0=    0
 Symmetry not used in FoFCou.
 Leave Link  703 at Sat May 24 02:19:00 2025, MaxMem=  3758096384 cpu:             858.0 elap:             108.6
 (Enter /apps/easybuild-2022/easybuild/software/Compiler/NVHPC/22.11-CUDA-11.7.0/Gaussian/g16c01-CUDA-11.7.0/g16/l716.exe)
 Dipole        =-4.67641323D-01-1.03458362D+00-9.35643526D-01
 Polarizability= 5.60960226D+01 3.63595523D+00 5.78281178D+01
                 1.98593674D+00 6.64908767D+00 5.01702965D+01
 -------------------------------------------------------------------
 Center     Atomic                   Forces (Hartrees/Bohr)
 Number     Number              X              Y              Z
 -------------------------------------------------------------------
      1        6           0.034779174    0.027176707    0.002015621
      2        8          -0.016261161   -0.015102753   -0.000689305
      3        6           0.043747315   -0.021573583   -0.122343866
      4        6          -0.018250379    0.251942606    0.104022128
      5        9          -0.066964607   -0.112862034   -0.084040746
      6        9          -0.027072431   -0.063792252    0.044140204
      7        9           0.062966151   -0.063525339    0.006803368
      8        9           0.002031061    0.009063251    0.025700489
      9        9           0.003823414   -0.001410246    0.027054370
     10        8          -0.016457608   -0.004448873   -0.004825017
     11        1          -0.002340930   -0.005467484    0.002162754
 -------------------------------------------------------------------
 Cartesian Forces:  Max     0.251942606 RMS     0.064043714
 Force constants in Cartesian coordinates: 
                1             2             3             4             5 
      1  0.757065D+00
      2 -0.184047D+00  0.721717D+00
      3  0.194542D+00 -0.252199D+00  0.354897D+00
      4 -0.484899D+00  0.293656D+00 -0.210261D+00  0.509054D+00
      5  0.284037D+00 -0.328080D+00  0.170399D+00 -0.349912D+00  0.390554D+00
      6 -0.209572D+00  0.172179D+00 -0.190939D+00  0.249760D+00 -0.224557D+00
      7 -0.828194D-01 -0.258746D-01  0.407204D-01 -0.429118D-01  0.134778D-01
      8 -0.279521D-01 -0.549970D-01 -0.213663D-02  0.253470D-01  0.146948D-03
      9 -0.341597D-01 -0.138856D-01 -0.753968D-01 -0.238417D-02 -0.112890D-02
     10 -0.319558D-01  0.133589D-02  0.342210D-01  0.894338D-03 -0.151946D-02
     11  0.134159D-02  0.219081D-01  0.114853D-01 -0.307502D-02 -0.467293D-02
     12  0.592889D-01  0.910269D-02  0.198517D-01 -0.188749D-01  0.456168D-02
     13 -0.844782D-03 -0.106106D-03 -0.211882D-02 -0.261334D-03  0.310646D-03
     14 -0.244461D-03 -0.144906D-02  0.149379D-02  0.127349D-03 -0.535077D-04
     15 -0.208114D-02  0.108718D-02 -0.909522D-03  0.732573D-03 -0.131980D-03
     16 -0.212858D-02 -0.493497D-02 -0.411810D-02  0.401877D-03  0.213470D-02
     17  0.216524D-02 -0.663581D-02 -0.266971D-02 -0.330200D-03  0.294078D-02
     18 -0.118303D-01  0.591206D-03 -0.434400D-02  0.508912D-02 -0.291113D-02
     19 -0.111456D-01 -0.521669D-02 -0.772185D-02  0.295785D-02  0.187660D-02
     20 -0.399777D-02 -0.873994D-02  0.200469D-02  0.917781D-03  0.189172D-02
     21 -0.510946D-02  0.191550D-02 -0.245088D-02  0.285499D-02 -0.167364D-02
     22 -0.144390D-01  0.225800D-01 -0.356386D-01 -0.968624D-02 -0.202118D-02
     23 -0.272009D-02 -0.348706D-02  0.396590D-02  0.152013D-02  0.204385D-02
     24 -0.254165D-02  0.179526D-01 -0.138171D-01 -0.858463D-02 -0.153730D-02
     25 -0.290513D-02 -0.307878D-01 -0.156248D-01  0.412348D-02 -0.163942D-02
     26  0.742344D-02 -0.329227D-01 -0.803204D-02 -0.395802D-02  0.686284D-02
     27  0.252128D-02 -0.111047D-01  0.285187D-02 -0.674216D-03  0.139944D-02
     28 -0.121160D+00 -0.555676D-01  0.280738D-02  0.240574D-01  0.454303D-01
     29 -0.287218D-01 -0.283358D+00  0.852798D-01  0.307266D-01 -0.777955D-01
     30 -0.889216D-02  0.648286D-01 -0.944797D-01 -0.174492D-01  0.567229D-01
     31 -0.476796D-02 -0.110366D-01  0.319283D-02 -0.373011D-02  0.782543D-02
     32 -0.472834D-01 -0.239562D-01 -0.959041D-02  0.498066D-02  0.616156D-02
     33  0.178347D-01  0.953331D-02  0.473653D-02 -0.208029D-03 -0.114297D-02
                6             7             8             9            10 
      6  0.184384D+00
      7 -0.254735D-01  0.391855D+00
      8  0.624989D-02 -0.230713D-01  0.467223D+00
      9  0.154872D-01 -0.802971D-01  0.574180D-01  0.681862D+00
     10 -0.397489D-02 -0.101108D+00  0.384744D-01  0.168347D+00  0.313250D+00
     11 -0.212022D-02  0.205080D-01 -0.279315D-01 -0.475770D-01  0.130593D+00
     12 -0.111565D-01  0.113747D+00 -0.807251D-01 -0.323632D+00 -0.466035D+00
     13  0.183637D-02 -0.323743D-04  0.637678D-02 -0.524026D-02 -0.449073D-01
     14 -0.146691D-02  0.942846D-02 -0.118456D-01  0.966453D-03 -0.400593D-01
     15  0.858470D-03  0.165059D-02 -0.937727D-02  0.168091D-02  0.931028D-02
     16  0.246417D-03  0.714319D-02 -0.151810D-01  0.133106D-01 -0.139807D+00
     17  0.302112D-04 -0.859621D-02  0.231732D-02  0.497252D-02 -0.173158D+00
     18  0.263834D-02  0.315295D-01  0.335256D-01 -0.133828D-01  0.249012D+00
     19  0.481979D-02  0.560354D-02  0.276519D-02  0.440746D-03  0.100785D-02
     20 -0.250205D-02  0.208455D-02 -0.842288D-03 -0.633075D-02  0.430977D-01
     21  0.725134D-03  0.491340D-02  0.961627D-03 -0.536754D-02  0.199930D-01
     22  0.158803D-02 -0.959247D-01  0.330009D-01 -0.675863D-01  0.515550D-02
     23  0.111630D-03  0.462349D-01 -0.102469D+00  0.665306D-01 -0.202231D-02
     24 -0.101465D-02 -0.760676D-01  0.620450D-01 -0.188034D+00 -0.102934D-01
     25  0.349899D-02 -0.616345D-01 -0.905081D-02 -0.831946D-02 -0.170631D-02
     26  0.643209D-03 -0.191892D-01 -0.248558D+00 -0.798806D-01  0.439981D-02
     27  0.470607D-03 -0.581306D-02 -0.741483D-01 -0.999425D-01  0.302455D-02
     28 -0.196299D-01 -0.215617D-01 -0.293798D-01  0.178128D-01  0.582702D-03
     29  0.530206D-01 -0.135214D-01 -0.195482D-01  0.148794D-01 -0.141610D-03
     30  0.244446D-02 -0.545719D-02  0.151117D-02  0.616874D-02 -0.450002D-02
     31 -0.309868D-02  0.139024D-02 -0.132938D-02 -0.192386D-02 -0.140541D-02
     32 -0.158817D-02 -0.148101D-02 -0.349468D-02  0.403580D-02 -0.100028D-02
     33 -0.389795D-02  0.547502D-03  0.467611D-02  0.556909D-03  0.896305D-03
               11            12            13            14            15 
     11  0.299782D+00
     12 -0.323990D+00  0.936070D+00
     13 -0.117186D-01  0.194534D-01  0.196793D+00
     14  0.329774D-01  0.541395D-02  0.774136D-02 -0.177164D-01
     15  0.163180D-01 -0.609446D-01  0.884206D-01 -0.290327D-01  0.774860D-01
     16 -0.173320D+00  0.262429D+00  0.124991D-01  0.577567D-02 -0.590609D-02
     17 -0.286843D+00  0.351117D+00 -0.560323D-02 -0.429833D-01  0.220390D-01
     18  0.336336D+00 -0.493312D+00 -0.544536D-02  0.118000D-01  0.264017D-02
     19  0.248375D-01  0.156357D-01 -0.164000D+00  0.184508D-01 -0.960699D-01
     20  0.120353D-01  0.386170D-01  0.467532D-02  0.368148D-01  0.471630D-02
     21  0.237748D-01 -0.600477D-02 -0.101264D+00  0.115478D-01 -0.183471D-01
     22 -0.274376D-02  0.111519D-01  0.126491D-02 -0.215832D-02  0.131453D-02
     23 -0.537211D-02  0.165946D-01 -0.431219D-03  0.152553D-02 -0.297924D-02
     24  0.262238D-01 -0.482807D-01  0.286533D-02  0.663241D-03  0.351287D-03
     25  0.171167D-01  0.157259D-01 -0.452372D-03  0.649030D-03  0.166027D-02
     26 -0.341140D-01 -0.136582D-01 -0.424793D-03  0.125670D-02 -0.247211D-02
     27 -0.403107D-01 -0.128341D-01  0.853129D-03 -0.343177D-03 -0.281510D-02
     28 -0.301309D-02 -0.131234D-01 -0.283733D-03  0.618568D-03  0.915770D-03
     29 -0.772244D-02 -0.717586D-02 -0.108493D-02  0.151504D-02 -0.604263D-05
     30 -0.148581D-02 -0.223296D-02  0.106446D-02 -0.142998D-02  0.381417D-03
     31 -0.526223D-03  0.601405D-03  0.225218D-03 -0.329097D-03  0.525171D-04
     32 -0.465680D-04  0.141896D-03  0.264747D-03 -0.414478D-04 -0.161194D-03
     33  0.134545D-02  0.247666D-02 -0.425061D-03  0.387538D-03 -0.381980D-03
               16            17            18            19            20 
     16  0.131665D+00
     17  0.194102D+00  0.329808D+00
     18 -0.266779D+00 -0.371757D+00  0.498426D+00
     19 -0.908873D-02 -0.114411D-01  0.436636D-02  0.171049D+00
     20 -0.135655D-01 -0.833145D-02 -0.420686D-02 -0.337358D-01 -0.362818D-01
     21  0.142692D-02 -0.205274D-02  0.624835D-02  0.767588D-01 -0.300148D-01
     22 -0.261415D-02  0.126570D-02 -0.236454D-02  0.323917D-03 -0.757528D-03
     23  0.102806D-02  0.268628D-02 -0.446737D-03 -0.929694D-03 -0.381608D-03
     24  0.325301D-03 -0.382087D-02 -0.261375D-02 -0.824621D-03 -0.118759D-02
     25  0.566490D-03  0.944624D-03 -0.561365D-02  0.608584D-04 -0.590854D-03
     26  0.173219D-02  0.444761D-02 -0.299790D-02 -0.174884D-03 -0.896397D-05
     27 -0.147237D-02  0.155133D-02  0.399148D-02 -0.265339D-03 -0.766332D-03
     28  0.768609D-03 -0.227152D-04  0.272694D-02  0.239731D-02  0.138059D-02
     29  0.226872D-02  0.272744D-02  0.215504D-04  0.339080D-02  0.501815D-02
     30  0.149871D-02  0.132300D-02 -0.598390D-03  0.531093D-02  0.117665D-02
     31  0.594308D-03  0.673890D-03 -0.690948D-03  0.834127D-03  0.491535D-03
     32 -0.396665D-04 -0.134511D-03  0.453016D-04  0.177347D-03 -0.117393D-02
     33 -0.961801D-03 -0.732682D-03  0.306600D-03 -0.245070D-02 -0.150634D-02
               21            22            23            24            25 
     21  0.334569D-01
     22 -0.999550D-03  0.110642D+00
     23 -0.696111D-03 -0.720984D-01  0.187195D+00
     24 -0.437096D-03  0.982992D-01 -0.122373D+00  0.239417D+00
     25 -0.123555D-02  0.600823D-02  0.315800D-01 -0.302466D-02  0.604603D-01
     26 -0.152608D-02  0.237541D-01 -0.847534D-01  0.254088D-01 -0.544056D-02
     27 -0.852048D-03 -0.657917D-02  0.429569D-01  0.106361D-01  0.115125D-01
     28  0.375877D-02 -0.145793D-02 -0.232815D-02 -0.717331D-03 -0.434951D-02
     29 -0.141100D-02 -0.250600D-02  0.209409D-02 -0.362860D-02 -0.266309D-02
     30 -0.716075D-02  0.142649D-02 -0.296078D-02  0.340118D-02 -0.108244D-04
     31 -0.109755D-02  0.727219D-03  0.166756D-03  0.564076D-03 -0.171495D-03
     32 -0.825346D-03  0.168457D-02  0.918665D-03  0.254273D-03 -0.117782D-03
     33  0.189785D-03 -0.611896D-03 -0.703387D-03  0.391333D-03  0.143129D-02
               26            27            28            29            30 
     26  0.390469D+00
     27  0.829668D-01  0.987939D-01
     28 -0.793880D-02 -0.345464D-02  0.521662D+00
     29 -0.217161D-02 -0.173636D-02  0.169026D+00  0.464316D+00
     30 -0.167774D-02 -0.590248D-03  0.155193D+00 -0.904396D-01  0.155610D+00
     31 -0.183211D-03  0.347357D-03 -0.400656D+00 -0.156774D+00 -0.128184D+00
     32 -0.507820D-03 -0.464824D-03 -0.118206D+00 -0.850748D-01 -0.275684D-01
     33  0.122585D-02  0.290057D-03 -0.146289D+00 -0.488040D-01 -0.629437D-01
               31            32            33 
     31  0.406960D+00
     32  0.161020D+00  0.107350D+00
     33  0.130237D+00  0.357211D-01  0.582758D-01
 FormGI is forming the generalized inverse of G from B-inverse, IUseBI=4.
 Force constants in internal coordinates: 
                1             2             3             4             5 
      1  0.950665D+00
      2  0.425555D-01  0.227166D+00
      3  0.928372D-01  0.223878D-01  0.455897D+00
      4 -0.105071D-01  0.355021D-01 -0.801704D-02  0.515848D+00
      5  0.649455D-02  0.143240D-01  0.574478D-02  0.323435D-01  0.388459D+00
      6  0.636365D-02  0.145160D-01  0.413899D-02  0.290670D-01  0.613462D-01
      7 -0.195506D-02 -0.520143D-03  0.500408D-02  0.157183D-01  0.254102D-02
      8  0.603106D-02 -0.460658D-02 -0.170272D-02  0.156883D-01 -0.594080D-03
      9  0.418595D-02 -0.458393D-02  0.250089D-02  0.690778D-02  0.140745D-03
     10 -0.794215D-02 -0.955275D-03  0.828099D-02 -0.132269D-03 -0.831185D-03
     11  0.591891D-02 -0.429080D-02 -0.478321D-01 -0.462590D-02  0.161245D-01
     12  0.482841D-01 -0.339135D-01  0.332995D-01  0.115594D-01 -0.554446D-02
     13 -0.542335D-01  0.382533D-01  0.146236D-01 -0.708122D-02 -0.106341D-01
     14  0.422667D-02  0.287956D-01 -0.793780D-02  0.200648D-01 -0.171328D-01
     15  0.175226D-02  0.887934D-02  0.139481D-02 -0.238348D-01  0.641643D-02
     16 -0.631900D-02  0.115731D-03  0.536726D-02 -0.195123D-01 -0.816589D-02
     17 -0.474484D-03 -0.196719D-01  0.117103D-02  0.175374D-01  0.976840D-02
     18 -0.127313D-03 -0.171054D-01  0.245390D-02  0.417304D-02 -0.140225D-01
     19  0.418689D-03 -0.204149D-02 -0.159647D-02 -0.268849D-02  0.247294D-01
     20  0.427281D-02  0.324302D-02 -0.422111D-02  0.168424D-01 -0.576464D-02
     21 -0.266070D-03 -0.301789D-02  0.411284D-02 -0.307897D-02  0.736941D-02
     22 -0.339533D-02 -0.827158D-03  0.145078D-03 -0.138263D-01 -0.184077D-02
     23 -0.208276D-02 -0.749654D-02  0.136046D-01  0.445173D-01  0.398529D-02
     24  0.282866D-02  0.296648D-02  0.471451D-01 -0.380017D-02 -0.162166D-03
     25 -0.218987D-02 -0.118651D-02  0.715929D-03 -0.306543D-02 -0.121280D-01
     26  0.110459D-02 -0.962957D-03 -0.220686D-02  0.170048D-01 -0.736674D-02
     27 -0.864863D-03  0.130065D-02 -0.505623D-03 -0.904396D-02  0.209822D-01
     28 -0.274572D-02  0.302133D-03  0.503150D-02 -0.877356D-02 -0.144338D-01
     29  0.548736D-03  0.525685D-03  0.210871D-02  0.112967D-01 -0.967252D-02
     30 -0.142072D-02  0.278929D-02  0.380994D-02 -0.147521D-01  0.186764D-01
     31 -0.277706D-02  0.224288D-03  0.416025D-02 -0.567407D-02 -0.761685D-03
     32 -0.144538D-02 -0.180120D-02  0.137496D-02  0.304562D-03  0.112855D-02
     33 -0.139377D-02  0.609839D-02 -0.373552D-03  0.123326D-02  0.151303D-01
     34  0.343013D-02  0.123274D-02 -0.296506D-03 -0.121685D-03  0.126168D-01
     35 -0.633588D-02 -0.132041D-01  0.279463D-02  0.586341D-02  0.130327D-01
     36 -0.151197D-02 -0.180697D-01  0.287167D-02  0.450847D-02  0.105192D-01
     37 -0.644834D-02  0.161745D-01  0.227015D-02 -0.641239D-02 -0.165119D-01
     38 -0.162444D-02  0.113088D-01  0.234719D-02 -0.776733D-02 -0.190255D-01
     39 -0.151025D-02 -0.471103D-02  0.333146D-02 -0.182383D-01 -0.383253D-03
     40 -0.500528D-02 -0.885494D-03  0.268929D-02 -0.174070D-01  0.245743D-03
                6             7             8             9            10 
      6  0.410183D+00
      7 -0.297028D-04  0.137786D-01
      8  0.433610D-02  0.325863D-01  0.931018D+00
      9  0.984947D-03 -0.214477D-01  0.135289D-01  0.210019D+00
     10 -0.101411D-03 -0.879546D-03 -0.681294D-03 -0.434436D-03  0.515936D+00
     11 -0.101320D-01  0.157363D-02 -0.206035D-02  0.115039D-02  0.380845D-02
     12 -0.460031D-02 -0.256284D-02  0.450778D-03 -0.439863D-02 -0.964495D-02
     13  0.146714D-01  0.900658D-03  0.158929D-02  0.326341D-02  0.583005D-02
     14 -0.190392D-01  0.144549D-01  0.481070D-03  0.491545D-02 -0.824713D-05
     15 -0.764055D-02 -0.148767D-02  0.184950D-02 -0.239235D-02 -0.925578D-03
     16  0.792109D-02 -0.654788D-02  0.439574D-02 -0.381336D-03  0.573227D-04
     17 -0.132472D-01 -0.757774D-02  0.139290D-02  0.860230D-03  0.987570D-04
     18  0.115131D-01 -0.112894D-02 -0.789328D-02 -0.330942D-02  0.330353D-03
     19  0.224372D-01  0.100103D-02  0.136369D-03 -0.184859D-03  0.401703D-03
     20  0.106639D-01  0.430188D-02 -0.296608D-01  0.204424D-02 -0.164460D-02
     21 -0.855497D-02 -0.321254D-01  0.117489D-01 -0.520967D-02  0.936618D-03
     22 -0.200977D-02  0.266039D-01  0.183955D-01  0.298256D-02  0.764231D-03
     23  0.267661D-02  0.116397D-01  0.257585D-01 -0.332304D-01 -0.275386D-02
     24  0.212124D-02 -0.191029D-02 -0.256186D-03  0.149240D-02  0.252763D-01
     25  0.157672D-01  0.402287D-02 -0.329739D-02 -0.304992D-02  0.769609D-03
     26 -0.179281D-01  0.327135D-02 -0.106586D-03 -0.232811D-03  0.309732D-03
     27  0.897810D-02  0.183010D-03  0.337017D-02 -0.190288D-02  0.335258D-03
     28  0.133156D-01  0.447439D-03 -0.409109D-02 -0.251277D-02  0.358111D-03
     29 -0.203798D-01 -0.304085D-03 -0.900288D-03  0.304341D-03 -0.101767D-03
     30  0.652646D-02 -0.339243D-02  0.257647D-02 -0.136572D-02 -0.762408D-04
     31 -0.537277D-03 -0.119170D-02 -0.156706D-02  0.186256D-02  0.584427D-03
     32  0.200675D-02  0.228893D-02 -0.730539D-03  0.122558D-02  0.744916D-03
     33 -0.134954D-01  0.487193D-02 -0.139264D-02 -0.597782D-03 -0.655360D-03
     34 -0.123274D-01 -0.140724D-02  0.327560D-02 -0.159029D-02 -0.188294D-03
     35  0.182668D-01  0.124561D-02 -0.496860D-02 -0.163557D-02  0.459795D-03
     36  0.194348D-01 -0.503356D-02 -0.300360D-03 -0.262808D-02  0.926861D-03
     37 -0.987153D-02  0.627506D-02 -0.473970D-03  0.365551D-03 -0.378781D-03
     38 -0.870354D-02 -0.411184D-05  0.419427D-02 -0.626959D-03  0.882852D-04
     39 -0.241090D-02 -0.642692D-02  0.809394D-02 -0.266533D-02  0.184070D-02
     40 -0.207976D-02  0.372074D-02  0.386660D-02 -0.109243D-02  0.140813D-02
               11            12            13            14            15 
     11  0.128533D+00
     12 -0.824834D-01  0.187482D+00
     13 -0.460423D-01 -0.105083D+00  0.151217D+00
     14 -0.865017D-02  0.147139D-01 -0.629497D-02  0.166629D+00
     15  0.973697D-02 -0.115914D-01  0.191649D-02 -0.632272D-01  0.864146D-01
     16 -0.369805D-02 -0.462129D-02  0.835404D-02 -0.675735D-01  0.109233D-01
     17 -0.183216D-02 -0.109413D-03  0.199818D-02 -0.441481D-01 -0.280541D-01
     18  0.597385D-02 -0.402638D-02 -0.182491D-02 -0.480334D-01  0.271638D-01
     19 -0.601605D-03  0.380446D-02 -0.322853D-02  0.394302D-01 -0.234612D-01
     20 -0.403092D-02  0.179236D-02  0.204341D-02  0.214894D-01 -0.789628D-02
     21  0.381968D-02 -0.356469D-02 -0.118397D-03 -0.960302D-02  0.168898D-02
     22  0.295960D-03  0.136020D-02 -0.158429D-02 -0.128371D-01  0.633954D-02
     23  0.575532D-02 -0.118356D-01  0.584575D-02  0.460502D-01 -0.831109D-02
     24  0.340636D-02 -0.230483D-01  0.196717D-01 -0.512321D-02 -0.357268D-02
     25  0.124378D-02 -0.136554D-02 -0.138635D-03 -0.255628D-02  0.102223D-01
     26 -0.664800D-03  0.990444D-03 -0.630068D-03  0.134743D-01 -0.123538D-01
     27  0.171611D-02 -0.300211D-02  0.100196D-02 -0.877779D-02  0.106479D-01
     28 -0.226439D-03 -0.168731D-02  0.224635D-02 -0.115316D-01  0.124879D-01
     29 -0.213502D-02  0.668678D-03  0.175492D-02  0.449899D-02 -0.100882D-01
     30  0.245898D-03 -0.332388D-02  0.338694D-02 -0.177531D-01  0.129136D-01
     31  0.257831D-03 -0.136650D-02  0.144295D-02 -0.127581D-01  0.355515D-02
     32 -0.220372D-02  0.395040D-02 -0.200407D-02 -0.339549D-02  0.905306D-03
     33  0.471093D-02 -0.970472D-03 -0.380768D-02  0.836671D-02  0.205827D-01
     34  0.521232D-02 -0.407338D-02 -0.109863D-02  0.118354D-03  0.220433D-01
     35 -0.259704D-03  0.324757D-02 -0.300424D-02 -0.265343D-02 -0.256971D-01
     36  0.241680D-03  0.144664D-03 -0.295192D-03 -0.109018D-01 -0.242365D-01
     37 -0.243793D-02  0.122687D-02  0.109876D-02  0.123500D-01  0.605424D-02
     38 -0.193655D-02 -0.187603D-02  0.380781D-02  0.410161D-02  0.751486D-02
     39  0.300604D-02 -0.416891D-02  0.142192D-02 -0.381402D-01  0.113903D-01
     40  0.211381D-02 -0.141509D-02 -0.532104D-03 -0.314758D-01  0.103785D-01
               16            17            18            19            20 
     16  0.869364D-01
     17  0.276267D-01  0.747220D-01
     18 -0.241713D-01  0.105171D-03  0.745328D-01
     19 -0.244215D-01 -0.292488D-01 -0.272542D-01  0.615991D-01
     20 -0.884235D-02 -0.117364D-02 -0.451347D-02 -0.147586D-02  0.104856D+00
     21  0.606073D-02  0.453986D-02 -0.296838D-02  0.135602D-02 -0.320200D-01
     22  0.330963D-02 -0.292716D-02  0.753866D-02  0.654713D-05 -0.723888D-01
     23 -0.171942D-01 -0.133786D-01 -0.136404D-01  0.224554D-02  0.204264D-01
     24  0.510258D-02  0.386751D-02  0.318340D-03 -0.237954D-03 -0.242680D-02
     25 -0.653432D-02 -0.218697D-01  0.210025D-01  0.362041D-03 -0.237999D-02
     26 -0.101856D-01  0.238643D-01  0.635043D-02 -0.243740D-01  0.543389D-02
     27  0.129972D-01 -0.107182D-01 -0.247963D-01  0.235060D-01 -0.516287D-02
     28 -0.520031D-02 -0.196054D-01  0.258070D-01 -0.604772D-03 -0.101206D-01
     29 -0.885161D-02  0.261285D-01  0.111549D-01 -0.253408D-01 -0.230674D-02
     30  0.143313D-01 -0.845388D-02 -0.199918D-01  0.225392D-01 -0.129035D-01
     31  0.439541D-02  0.284782D-02  0.464034D-02 -0.146732D-02 -0.578991D-02
     32  0.305224D-02  0.627305D-03 -0.325690D-03 -0.424086D-03  0.201985D-02
     33 -0.242271D-01 -0.117946D-01  0.601641D-02  0.495615D-03 -0.309330D-02
     34 -0.199680D-01 -0.864010D-02  0.721055D-02 -0.519558D-03 -0.284232D-02
     35 -0.732423D-02  0.764436D-02  0.592963D-02  0.206543D-01 -0.772628D-02
     36 -0.306508D-02  0.107988D-01  0.712376D-02  0.196391D-01 -0.747530D-02
     37  0.220523D-01 -0.851434D-02 -0.120397D-01 -0.193563D-01 -0.167439D-02
     38  0.263114D-01 -0.535988D-02 -0.108456D-01 -0.203714D-01 -0.142341D-02
     39  0.111390D-01  0.820406D-02  0.152324D-01 -0.426869D-02 -0.278676D-01
     40  0.740256D-02  0.520892D-02  0.151298D-01 -0.374992D-02 -0.263875D-01
               21            22            23            24            25 
     21  0.964893D-01
     22 -0.635075D-01  0.134783D+00
     23 -0.302278D-01  0.402191D-02 -0.348432D+00
     24  0.159358D-02  0.121428D-02 -0.394966D-02  0.158173D+00
     25 -0.223530D-02  0.416498D-02  0.269430D-02 -0.889821D-03  0.222809D-01
     26 -0.191057D-02 -0.397609D-02  0.113760D-01 -0.171660D-02 -0.665051D-04
     27  0.382177D-02  0.110508D-02  0.516286D-03 -0.113161D-02  0.219489D-02
     28  0.314531D-02  0.704998D-02 -0.685383D-02 -0.484071D-04  0.118697D-01
     29  0.347004D-02 -0.109109D-02  0.182790D-02 -0.875185D-03 -0.104777D-01
     30  0.920238D-02  0.399008D-02 -0.903184D-02 -0.290196D-03 -0.821626D-02
     31  0.418112D-02  0.202159D-02  0.309590D-03  0.166402D-02 -0.461585D-02
     32 -0.130930D-02 -0.829243D-03  0.948353D-02  0.338594D-03  0.569401D-02
     33  0.394141D-02 -0.230512D-02  0.307434D-01 -0.541451D-02  0.221409D-02
     34  0.165866D-02  0.203765D-02 -0.150175D-01 -0.226583D-02 -0.107614D-02
     35  0.577866D-02  0.723396D-03  0.168446D-01  0.309203D-03  0.505672D-02
     36  0.349591D-02  0.506617D-02 -0.289163D-01  0.345789D-02  0.176649D-02
     37  0.282114D-02 -0.258345D-02  0.334925D-01 -0.243078D-02  0.540396D-02
     38  0.538393D-03  0.175932D-02 -0.122684D-01  0.717899D-03  0.211373D-02
     39  0.165032D-01  0.123641D-01 -0.253825D-01  0.423224D-02  0.215061D-02
     40  0.157319D-02  0.240034D-01  0.113464D-01  0.183636D-02  0.495923D-02
               26            27            28            29            30 
     26  0.306238D-01
     27 -0.102121D-01  0.302078D-01
     28 -0.121917D-01 -0.918470D-02  0.251131D-01
     29  0.184986D-01 -0.215917D-01  0.105163D-02  0.300279D-01
     30 -0.223373D-01  0.188282D-01  0.405868D-02 -0.100624D-01  0.311032D-01
     31 -0.730217D-02 -0.484171D-02  0.869643D-02  0.601011D-02  0.847057D-02
     32  0.479218D-02  0.639268D-02 -0.450654D-02 -0.540836D-02 -0.380786D-02
     33  0.597941D-02  0.433454D-02 -0.501638D-03  0.326368D-02  0.161881D-02
     34  0.205360D-02  0.224202D-02  0.450446D-03  0.358018D-02  0.376860D-02
     35 -0.325238D-02  0.397359D-02  0.445110D-02 -0.385799D-02  0.336797D-02
     36 -0.717818D-02  0.188107D-02  0.540319D-02 -0.354149D-02  0.551777D-02
     37  0.680310D-02 -0.123856D-02  0.952959D-03  0.235210D-02 -0.568957D-02
     38  0.287730D-02 -0.333108D-02  0.190504D-02  0.266861D-02 -0.353977D-02
     39 -0.578771D-02  0.103471D-02  0.124107D-01  0.447236D-02  0.112948D-01
     40 -0.291245D-02  0.200050D-02  0.115755D-01  0.370385D-02  0.861680D-02
               31            32            33            34            35 
     31  0.124923D-01
     32 -0.782355D-03  0.948039D-02
     33 -0.240294D-02  0.192977D-03  0.236923D-01
     34  0.917646D-03 -0.773746D-03  0.112436D-01  0.183607D-01
     35  0.409379D-03  0.107660D-02 -0.837230D-03 -0.112449D-01  0.287293D-01
     36  0.372996D-02  0.109875D-03 -0.132860D-01 -0.412776D-02  0.183216D-01
     37 -0.308542D-02  0.141120D-02  0.278374D-02 -0.945264D-02 -0.829010D-02
     38  0.235164D-03  0.444474D-03 -0.966502D-02 -0.233548D-02 -0.186978D-01
     39  0.838590D-02 -0.195511D-02 -0.502420D-02  0.319614D-02  0.261519D-02
     40  0.552851D-02 -0.111981D-02  0.307158D-02 -0.196775D-02  0.913362D-02
               36            37            38            39            40 
     36  0.274799D-01
     37 -0.205265D-01  0.320625D-01
     38 -0.113682D-01  0.198262D-01  0.271557D-01
     39  0.108355D-01 -0.874219D-02 -0.521839D-03  0.541739D-01
     40  0.409428D-02 -0.645480D-03 -0.568482D-02  0.465134D-01  0.508160D-01
 Leave Link  716 at Sat May 24 02:19:00 2025, MaxMem=  3758096384 cpu:               0.1 elap:               0.0
 (Enter /apps/easybuild-2022/easybuild/software/Compiler/NVHPC/22.11-CUDA-11.7.0/Gaussian/g16c01-CUDA-11.7.0/g16/l103.exe)

 GradGradGradGradGradGradGradGradGradGradGradGradGradGradGradGradGradGrad
 Berny optimization.
 Red2BG is reusing G-inverse.
 Internal  Forces:  Max     0.225749702 RMS     0.051440378
 Search for a saddle point.
 Step number   1 out of a maximum of  100
 All quantities printed in internal units (Hartrees-Bohrs-Radians)
 Swapping is turned off.
 Second derivative matrix not updated -- analytic derivatives used.
 ITU=  0
     Eigenvalues ---   -0.37203  -0.00508  -0.00105   0.00816   0.01338
     Eigenvalues ---    0.03368   0.05036   0.05877   0.06478   0.10355
     Eigenvalues ---    0.13540   0.13783   0.14925   0.16199   0.17493
     Eigenvalues ---    0.20178   0.21177   0.22159   0.30645   0.31742
     Eigenvalues ---    0.35206   0.45268   0.46741   0.52079   0.55687
     Eigenvalues ---    0.93512   0.97884
 Eigenvectors required to have negative eigenvalues:
                          A13       D13       D9        A4        D12
   1                   -0.97770   0.07788   0.07052   0.07023  -0.06531
                          R9        A11       R4        D15       D11
   1                   -0.05912  -0.05771   0.04738  -0.04456   0.04311
 Eigenvalue     2 is  -5.08D-03 should be greater than     0.000000 Eigenvector:
                          R7        A11       A12       D13       R9
   1                    0.93175   0.20062  -0.11760  -0.10340   0.09827
                          D8        D7        D9        D16       A10
   1                   -0.09628  -0.08912  -0.07677  -0.07180  -0.06911
 Eigenvalue     3 is  -1.05D-03 should be greater than     0.000000 Eigenvector:
                          D10       D12       D14       D9        D11
   1                   -0.37300  -0.35771  -0.33209  -0.31628  -0.30099
                          D13       D1        D4        D2        D5
   1                   -0.27537   0.25979   0.25002   0.24274   0.23296
 RFO step:  Lambda0=1.042936951D-01 Lambda=-2.01563059D-01.
 Linear search not attempted -- option 19 set.
 Maximum step size (   0.300) exceeded in Quadratic search.
    -- Step size scaled by   0.254
 Iteration  1 RMS(Cart)=  0.05071777 RMS(Int)=  0.01141182
 Iteration  2 RMS(Cart)=  0.01278789 RMS(Int)=  0.00005575
 Iteration  3 RMS(Cart)=  0.00002845 RMS(Int)=  0.00005128
 Iteration  4 RMS(Cart)=  0.00000000 RMS(Int)=  0.00005128
 ITry= 1 IFail=0 DXMaxC= 1.71D-01 DCOld= 1.00D+10 DXMaxT= 3.00D-01 DXLimC= 3.00D+00 Rises=F
 Variable       Old X    -DE/DX   Delta X   Delta X   Delta X     New X
                                 (Linear)    (Quad)   (Total)
    R1        2.24008  -0.00336   0.00000  -0.00187  -0.00187   2.23822
    R2        2.97136   0.00018   0.00000   0.00370   0.00370   2.97506
    R3        2.50660  -0.01087   0.00000  -0.00581  -0.00581   2.50078
    R4        2.61136   0.08657   0.00000   0.02883   0.02883   2.64019
    R5        2.56998  -0.01615   0.00000  -0.00560  -0.00560   2.56439
    R6        2.56081  -0.00764   0.00000  -0.00849  -0.00849   2.55232
    R7        3.15584  -0.17850   0.00000  -0.26656  -0.26656   2.88929
    R8        2.22621   0.07851   0.00000   0.02083   0.02083   2.24704
    R9        3.59048   0.06386   0.00000   0.03654   0.03654   3.62702
   R10        1.83175  -0.00338   0.00000  -0.00048  -0.00048   1.83127
    A1        2.18092  -0.02039   0.00000  -0.01226  -0.01226   2.16866
    A2        2.17359   0.02846   0.00000   0.01815   0.01815   2.19174
    A3        1.92834  -0.00812   0.00000  -0.00592  -0.00592   1.92242
    A4        1.86485   0.01543   0.00000   0.00256   0.00256   1.86740
    A5        1.92807  -0.00132   0.00000   0.00061   0.00058   1.92865
    A6        1.91033  -0.00338   0.00000   0.00364   0.00363   1.91396
    A7        1.98823  -0.01498   0.00000  -0.01388  -0.01389   1.97434
    A8        2.00036  -0.01802   0.00000  -0.00786  -0.00786   1.99250
    A9        1.77139   0.02182   0.00000   0.01565   0.01561   1.78700
   A10        2.00725  -0.00807   0.00000  -0.00835  -0.00836   1.99889
   A11        2.39577  -0.02226   0.00000  -0.02579  -0.02583   2.36994
   A12        1.86889   0.02987   0.00000   0.03611   0.03611   1.90500
   A13        1.32260  -0.22575   0.00000   0.11369   0.11369   1.43629
   A14        1.92643  -0.00972   0.00000  -0.00462  -0.00462   1.92181
    D1        1.45175  -0.00065   0.00000   0.03548   0.03548   1.48723
    D2       -2.65996  -0.00980   0.00000   0.02039   0.02037  -2.63959
    D3       -0.72368   0.01363   0.00000   0.04124   0.04125  -0.68243
    D4       -1.71673  -0.00215   0.00000   0.03469   0.03470  -1.68204
    D5        0.45473  -0.01130   0.00000   0.01960   0.01959   0.47432
    D6        2.39102   0.01213   0.00000   0.04045   0.04047   2.43149
    D7       -0.23345  -0.00181   0.00000  -0.00467  -0.00468  -0.23813
    D8        2.93490   0.00059   0.00000  -0.00332  -0.00331   2.93159
    D9        1.40825   0.00119   0.00000  -0.05359  -0.05353   1.35472
   D10       -1.92071   0.00082   0.00000  -0.03316  -0.03320  -1.95390
   D11       -0.72591   0.00138   0.00000  -0.04733  -0.04728  -0.77318
   D12        2.22832   0.00101   0.00000  -0.02690  -0.02695   2.20137
   D13       -2.75555  -0.00340   0.00000  -0.05211  -0.05207  -2.80762
   D14        0.19868  -0.00377   0.00000  -0.03168  -0.03174   0.16694
   D15       -1.64684   0.00480   0.00000   0.00757   0.00778  -1.63906
   D16        1.62737   0.00950   0.00000  -0.00160  -0.00180   1.62557
         Item               Value     Threshold  Converged?
 Maximum Force            0.225750     0.000450     NO 
 RMS     Force            0.051440     0.000300     NO 
 Maximum Displacement     0.170816     0.001800     NO 
 RMS     Displacement     0.052826     0.001200     NO 
 Predicted change in Energy=-3.438249D-02
 Lowest energy point so far.  Saving SCF results.
 GradGradGradGradGradGradGradGradGradGradGradGradGradGradGradGradGradGrad

 Leave Link  103 at Sat May 24 02:19:00 2025, MaxMem=  3758096384 cpu:               0.0 elap:               0.0
 (Enter /apps/easybuild-2022/easybuild/software/Compiler/NVHPC/22.11-CUDA-11.7.0/Gaussian/g16c01-CUDA-11.7.0/g16/l202.exe)
                          Input orientation:                          
 ---------------------------------------------------------------------
 Center     Atomic      Atomic             Coordinates (Angstroms)
 Number     Number       Type             X           Y           Z
 ---------------------------------------------------------------------
      1          6           0        1.467267    0.132148    0.128141
      2          8           0        2.314732   -0.554166    0.590322
      3          6           0       -0.027777   -0.319019   -0.071405
      4          6           0       -0.689593   -0.085140    1.136597
      5          9           0       -1.059174    1.377515    1.385028
      6          9           0       -1.174026   -0.759790    1.987533
      7          9           0        0.618318    1.373919    2.317691
      8          9           0       -0.586030    0.336272   -1.120423
      9          9           0       -0.063407   -1.605474   -0.481242
     10          8           0        1.635873    1.364156   -0.324631
     11          1           0        2.493313    1.710984   -0.035510
 ---------------------------------------------------------------------
                    Distance matrix (angstroms):
                    1          2          3          4          5
     1  C    0.000000
     2  O    1.184414   0.000000
     3  C    1.574334   2.445512   0.000000
     4  C    2.390866   3.089396   1.397128   0.000000
     5  F    3.084414   3.968147   2.462357   1.528944   0.000000
     6  F    3.351018   3.763763   2.397372   1.189084   2.223573
     7  F    2.656471   3.095017   2.998542   2.287896   1.919337
     8  F    2.411764   3.483382   1.357016   2.298358   2.754149
     9  F    2.394502   2.812302   1.350630   2.306712   3.656875
    10  O    1.323357   2.231131   2.380112   3.105388   3.191613
    11  H    1.890046   2.356790   3.236988   3.838071   3.840481
                    6          7          8          9         10
     6  F    0.000000
     7  F    2.806103   0.000000
     8  F    3.347609   3.787848   0.000000
     9  F    2.836107   4.144340   2.109991   0.000000
    10  O    4.213405   2.831498   2.574234   3.425022   0.000000
    11  H    4.862798   3.027668   3.542488   4.211221   0.969064
                   11
    11  H    0.000000
 Symmetry turned off by external request.
 Stoichiometry    C3HF5O2
 Rotational constants (GHZ):           1.5039981           1.3229977           1.0519324
 Leave Link  202 at Sat May 24 02:19:00 2025, MaxMem=  3758096384 cpu:               0.0 elap:               0.0
 (Enter /apps/easybuild-2022/easybuild/software/Compiler/NVHPC/22.11-CUDA-11.7.0/Gaussian/g16c01-CUDA-11.7.0/g16/l301.exe)
 Standard basis: def2TZVPP (5D, 7F)
 Ernie: Thresh=  0.10000D-02 Tol=  0.10000D-05 Strict=F.
   324 basis functions,   527 primitive gaussians,   375 cartesian basis functions
    40 alpha electrons       40 beta electrons
       nuclear repulsion energy       621.4781185555 Hartrees.
 IExCor= 4336 DFT=T Ex+Corr=M062X ExCW=0 ScaHFX=  0.540000
 ScaDFX=  1.000000  1.000000  1.000000  1.000000 ScalE2=  1.000000  1.000000
 IRadAn=      5 IRanWt=     -1 IRanGd=            0 ICorTp=0 IEmpDi=  4
 NAtoms=   11 NActive=   11 NUniq=   11 SFac= 1.00D+00 NAtFMM=   60 NAOKFM=F Big=F
 Integral buffers will be    131072 words long.
 Raffenetti 2 integral format.
 Two-electron integral symmetry is turned off.
 Leave Link  301 at Sat May 24 02:19:00 2025, MaxMem=  3758096384 cpu:               0.1 elap:               0.0
 (Enter /apps/easybuild-2022/easybuild/software/Compiler/NVHPC/22.11-CUDA-11.7.0/Gaussian/g16c01-CUDA-11.7.0/g16/l302.exe)
 NPDir=0 NMtPBC=     1 NCelOv=     1 NCel=       1 NClECP=     1 NCelD=      1
         NCelK=      1 NCelE2=     1 NClLst=     1 CellRange=     0.0.
 One-electron integrals computed using PRISM.
   1 Symmetry operations used in ECPInt.
 ECPInt:  NShTT=    6786 NPrTT=   21959 LenC2=    6472 LenP2D=   15864.
 LDataN:  DoStor=T MaxTD1= 6 Len=  172
 NBasis=   324 RedAO= T EigKep=  1.66D-04  NBF=   324
 NBsUse=   324 1.00D-06 EigRej= -1.00D+00 NBFU=   324
 Precomputing XC quadrature grid using
 IXCGrd= 4 IRadAn=           5 IRanWt=          -1 IRanGd=           0 AccXCQ= 0.00D+00.
 Generated NRdTot=       0 NPtTot=           0 NUsed=           0 NTot=          32
 NSgBfM=   373   373   373   373   373 MxSgAt=    11 MxSgA2=    11.
 Leave Link  302 at Sat May 24 02:19:00 2025, MaxMem=  3758096384 cpu:               0.6 elap:               0.1
 (Enter /apps/easybuild-2022/easybuild/software/Compiler/NVHPC/22.11-CUDA-11.7.0/Gaussian/g16c01-CUDA-11.7.0/g16/l303.exe)
 DipDrv:  MaxL=1.
 Leave Link  303 at Sat May 24 02:19:00 2025, MaxMem=  3758096384 cpu:               0.1 elap:               0.0
 (Enter /apps/easybuild-2022/easybuild/software/Compiler/NVHPC/22.11-CUDA-11.7.0/Gaussian/g16c01-CUDA-11.7.0/g16/l401.exe)
 Initial guess from the checkpoint file:  "1642764945472630600001_r12_insertion_R_5_4_7.chk"
 B after Tr=     0.006283   -0.005875   -0.001171
         Rot=    0.999999    0.000650   -0.000223    0.001309 Ang=   0.17 deg.
 Guess basis will be translated and rotated to current coordinates.
 JPrj=2 DoOrth=T DoCkMO=T.
 Generating alternative initial guess.
 ExpMin= 9.52D-02 ExpMax= 3.55D+04 ExpMxC= 1.21D+03 IAcc=3 IRadAn=         5 AccDes= 0.00D+00
 Harris functional with IExCor= 1009 and IRadAn=       5 diagonalized for initial guess.
 HarFok:  IExCor= 1009 AccDes= 0.00D+00 IRadAn=         5 IDoV= 1 UseB2=F ITyADJ=14
 ICtDFT=  3500011 ScaDFX=  1.000000  1.000000  1.000000  1.000000
 FoFCou: FMM=F IPFlag=           0 FMFlag=      100000 FMFlg1=           0
         NFxFlg=           0 DoJE=T BraDBF=F KetDBF=T FulRan=T
         wScrn=  0.000000 ICntrl=       500 IOpCl=  0 I1Cent=   200000004 NGrid=           0
         NMat0=    1 NMatS0=      1 NMatT0=    0 NMatD0=    1 NMtDS0=    0 NMtDT0=    0
 Symmetry not used in FoFCou.
 Harris En= -764.084738051640    
 Leave Link  401 at Sat May 24 02:19:01 2025, MaxMem=  3758096384 cpu:               3.7 elap:               0.6
 (Enter /apps/easybuild-2022/easybuild/software/Compiler/NVHPC/22.11-CUDA-11.7.0/Gaussian/g16c01-CUDA-11.7.0/g16/l502.exe)
 Keep R1 ints in memory in canonical form, NReq=1412617130.
 FoFCou: FMM=F IPFlag=           0 FMFlag=           0 FMFlg1=           0
         NFxFlg=           0 DoJE=F BraDBF=F KetDBF=F FulRan=T
         wScrn=  0.000000 ICntrl=       600 IOpCl=  0 I1Cent=           0 NGrid=           0
         NMat0=    1 NMatS0=  52650 NMatT0=    0 NMatD0=    1 NMtDS0=    0 NMtDT0=    0
 Symmetry not used in FoFCou.
 Two-electron integral symmetry not used.
 Closed shell SCF:
 Using DIIS extrapolation, IDIIS=  1040.
 NGot=  3758096384 LenX=  2371771924 LenY=  2371630858
 Requested convergence on RMS density matrix=1.00D-08 within  32 cycles.
 Requested convergence on MAX density matrix=1.00D-06.
 Requested convergence on             energy=1.00D-06.
 No special actions if energy rises.
 Integral accuracy reduced to 1.0D-05 until final iterations.

 Cycle   1  Pass 0  IDiag  1:
 E= -764.381348423655    
 DIIS: error= 2.77D-03 at cycle   1 NSaved=   1.
 NSaved= 1 IEnMin= 1 EnMin= -764.381348423655     IErMin= 1 ErrMin= 2.77D-03
 ErrMax= 2.77D-03  0.00D+00 EMaxC= 1.00D-01 BMatC= 6.74D-03 BMatP= 6.74D-03
[...]
     22 -0.747215D-01 -0.591512D-01  0.133463D+00  0.276987D+00 -0.833960D-01
     23 -0.320240D+00 -0.341566D+00  0.659446D+00  0.163010D+01 -0.481476D+00
     24 -0.289596D+00 -0.264616D+00  0.552619D+00  0.693774D+00 -0.228030D+00
     25  0.227291D-01  0.180248D-01 -0.413499D-01 -0.834885D-01  0.476512D-01
     26 -0.549624D-01 -0.555699D-01  0.109554D+00  0.208333D+00 -0.746620D-01
     27  0.676777D-01  0.594964D-01 -0.127480D+00 -0.251379D+00  0.895110D-01
     28  0.632755D-01  0.605570D-01 -0.123210D+00 -0.222457D+00  0.883942D-01
     29 -0.144160D-01 -0.130377D-01  0.276944D-01  0.693648D-01 -0.339190D-01
     30  0.108224D+00  0.102029D+00 -0.209340D+00 -0.390347D+00  0.130254D+00
     31  0.615154D-02  0.277515D-02 -0.837820D-02 -0.339201D-01  0.224799D-01
     32 -0.483247D-01 -0.368027D-01  0.837794D-01  0.128452D+00 -0.226617D-01
     33 -0.864987D-01 -0.683298D-01  0.154135D+00  0.328735D+00 -0.908508D-01
     34  0.119199D+00  0.103887D+00 -0.222598D+00 -0.448552D+00  0.156261D+00
     35  0.335492D-01  0.312736D-01 -0.647296D-01 -0.100250D+00  0.186520D-01
     36  0.239247D+00  0.203491D+00 -0.441462D+00 -0.877537D+00  0.265763D+00
     37 -0.198556D+00 -0.166823D+00  0.364187D+00  0.728143D+00 -0.221681D+00
     38  0.714172D-02  0.539349D-02 -0.125461D-01 -0.491444D-01  0.254299D-01
     39  0.585701D+00  0.522624D+00 -0.110527D+01 -0.228852D+01  0.733792D+00
     40  0.377073D+00  0.348693D+00 -0.723887D+00 -0.150238D+01  0.484883D+00
               16            17            18            19            20 
     16  0.428554D+00
     17  0.265595D+00  0.249898D+00
     18  0.262546D+00  0.197685D+00  0.377768D+00
     19 -0.105137D+00 -0.929834D-01 -0.115704D+00  0.743257D-01
     20  0.964732D-01  0.705279D-01  0.919891D-01 -0.293182D-01  0.181828D+00
     21  0.381156D-01  0.306755D-01  0.351370D-01 -0.126264D-01 -0.458789D-01
     22 -0.797581D-01 -0.634501D-01 -0.793797D-01  0.267349D-01 -0.115145D+00
     23 -0.494162D+00 -0.380273D+00 -0.426133D+00  0.132000D+00 -0.211004D+00
     24 -0.202286D+00 -0.134761D+00 -0.198354D+00  0.606151D-01 -0.337138D-01
     25  0.452950D-02 -0.179823D-01  0.571367D-01 -0.711991D-02 -0.217183D-02
     26 -0.730523D-01 -0.218859D-01 -0.427574D-01 -0.490860D-02 -0.253677D-01
     27  0.856106D-01  0.380475D-01  0.467837D-01  0.117871D-02  0.109151D-01
     28  0.489574D-01  0.137101D-01  0.929010D-01 -0.190004D-01  0.107811D-01
     29 -0.286244D-01  0.980650D-02 -0.699299D-02 -0.167891D-01 -0.124147D-01
     30  0.130038D+00  0.697400D-01  0.825481D-01 -0.107017D-01  0.238680D-01
     31 -0.257158D-02 -0.980358D-02  0.268165D-01 -0.284858D-02 -0.131346D-01
     32 -0.557208D-01 -0.488663D-01 -0.139667D-01  0.109471D-01 -0.296615D-01
     33 -0.117125D+00 -0.779465D-01 -0.751829D-01  0.273057D-01 -0.424558D-01
     34  0.120973D+00  0.847292D-01  0.130678D+00 -0.380576D-01  0.352459D-01
     35  0.167938D-01  0.215838D-01  0.405852D-01  0.315410D-02 -0.538127D-02
     36  0.254892D+00  0.184259D+00  0.246446D+00 -0.622092D-01  0.723205D-01
     37 -0.204826D+00 -0.161366D+00 -0.199362D+00  0.494447D-01 -0.773868D-01
     38  0.332717D-01  0.130949D-02  0.649920D-02 -0.159186D-01  0.314953D-03
     39  0.678579D+00  0.466156D+00  0.635706D+00 -0.195629D+00  0.185572D+00
     40  0.438569D+00  0.300349D+00  0.426572D+00 -0.128809D+00  0.105481D+00
               21            22            23            24            25 
     21  0.147990D+00
     22 -0.959620D-01  0.194352D+00
     23 -0.305354D-01  0.136065D+00  0.125738D+01
     24 -0.270204D-01  0.379764D-01 -0.190536D-01  0.509276D+00
     25  0.834717D-02 -0.400413D-02  0.137119D-01 -0.222959D-01  0.421716D-01
     26  0.173691D-02  0.128289D-01  0.111443D+00  0.357920D-01  0.697443D-02
     27  0.140398D-01 -0.140204D-01 -0.788727D-01 -0.458518D-01  0.174901D-01
     28  0.112334D-01 -0.135147D-01 -0.405743D-01 -0.604322D-01  0.325101D-01
     29  0.462312D-02  0.331831D-02  0.571566D-01 -0.234428D-02 -0.268708D-02
     30  0.169260D-01 -0.235310D-01 -0.133159D+00 -0.839881D-01  0.782855D-02
     31  0.131691D-01 -0.491462D-03  0.431698D-01 -0.902794D-02  0.245078D-01
     32  0.103469D-01  0.111622D-01  0.107905D+00  0.352258D-01  0.416646D-01
     33  0.190579D-02  0.205221D-01  0.230167D+00  0.301042D-01  0.699361D-02
     34  0.157549D-01 -0.270248D-01 -0.230405D+00 -0.680017D-01  0.162997D-01
     35  0.164935D-01 -0.114481D-01  0.351632D-01 -0.445192D-01  0.176823D-01
     36  0.303426D-01 -0.589950D-01 -0.425408D+00 -0.142625D+00  0.269884D-01
     37 -0.117186D-01  0.506171D-01  0.409445D+00  0.102408D+00  0.436204D-03
     38  0.213052D-02  0.307023D-02 -0.511263D-01  0.430165D-02  0.974233D-02
     39  0.910382D-01 -0.166879D+00 -0.101738D+01 -0.312192D+00  0.676412D-01
     40  0.430131D-01 -0.832266D-01 -0.562122D+00 -0.210896D+00  0.570756D-01
               26            27            28            29            30 
     26  0.436860D-01
     27 -0.120244D-01  0.490331D-01
     28 -0.122207D-01  0.144999D-01  0.457246D-01
     29  0.244909D-01 -0.150146D-01  0.993767D-03  0.281717D-01
     30 -0.312196D-01  0.460429D-01  0.277144D-01 -0.113337D-01  0.659288D-01
     31  0.949986D-02  0.134481D-01  0.341856D-01  0.191776D-01  0.231259D-01
     32  0.371570D-01  0.225303D-01  0.167010D-01  0.121934D-01 -0.243331D-02
     33  0.301913D-01 -0.110605D-01 -0.782321D-02  0.153745D-01 -0.258774D-01
     34 -0.171386D-01  0.367048D-01  0.289180D-01 -0.452035D-02  0.493231D-01
     35  0.295523D-03  0.158100D-01  0.205288D-01  0.314204D-02  0.186565D-01
     36 -0.470343D-01  0.635754D-01  0.572700D-01 -0.167528D-01  0.938570D-01
     37  0.497912D-01 -0.425260D-01 -0.269707D-01  0.223843D-01 -0.699329D-01
     38  0.246129D-02  0.523940D-02  0.977050D-02  0.248947D-02  0.526757D-02
     39 -0.110758D+00  0.160524D+00  0.141494D+00 -0.369050D-01  0.234378D+00
     40 -0.648804D-01  0.111615D+00  0.103470D+00 -0.184857D-01  0.158009D+00
               31            32            33            34            35 
     31  0.578995D-01
     32  0.420963D-01  0.807741D-01
     33  0.183437D-01  0.381235D-01  0.547425D-01
     34  0.161944D-01  0.262659D-02 -0.334983D-01  0.717820D-01
     35  0.205618D-01  0.180789D-01  0.795022D-02  0.472714D-02  0.364838D-01
     36  0.184125D-01 -0.174181D-01 -0.802906D-01  0.110007D+00  0.332608D-01
     37  0.127615D-01  0.464254D-01  0.762080D-01 -0.917144D-01 -0.914559D-02
     38  0.106122D-01  0.109285D-01 -0.120328D-01  0.135659D-01 -0.123687D-01
     39  0.490252D-01 -0.361452D-01 -0.193990D+00  0.281438D+00  0.587786D-01
     40  0.489227D-01 -0.296806D-02 -0.108663D+00  0.176495D+00  0.578235D-01
               36            37            38            39            40 
     36  0.223559D+00
     37 -0.177068D+00  0.170362D+00
     38  0.132300D-01  0.243960D-02  0.280383D-01
     39  0.534207D+00 -0.433369D+00  0.420592D-01  0.145155D+01
     40  0.342981D+00 -0.267167D+00  0.179903D-01  0.969025D+00  0.683497D+00
 Leave Link  716 at Sat May 24 06:25:54 2025, MaxMem=  3758096384 cpu:               0.0 elap:               0.0
 (Enter /apps/easybuild-2022/easybuild/software/Compiler/NVHPC/22.11-CUDA-11.7.0/Gaussian/g16c01-CUDA-11.7.0/g16/l9999.exe)

 ----------------------------------------------------------------------

 Electric dipole moment (input orientation):
 (Debye = 10**-18 statcoulomb cm , SI units = C m)
                  (au)            (Debye)         (10**-30 SI)
   Tot        0.141073D+01      0.358571D+01      0.119606D+02
   x         -0.127282D+01     -0.323518D+01     -0.107914D+02
   y          0.847589D-01      0.215436D+00      0.718616D+00
   z          0.602408D+00      0.153117D+01      0.510743D+01

 Dipole polarizability, Alpha (input orientation).
 (esu units = cm**3 , SI units = C**2 m**2 J**-1)
 Alpha(0;0):
               (au)            (10**-24 esu)      (10**-40 SI)
   iso        0.562389D+02      0.833374D+01      0.927254D+01
   aniso      0.363135D+02      0.538111D+01      0.598729D+01
   xx         0.674916D+02      0.100012D+02      0.111279D+02
   yx        -0.287507D+01     -0.426042D+00     -0.474036D+00
   yy         0.483249D+02      0.716101D+01      0.796769D+01
   zx        -0.156334D+02     -0.231663D+01     -0.257760D+01
   zy         0.931055D+01      0.137968D+01      0.153510D+01
   zz         0.529001D+02      0.783899D+01      0.872205D+01

 ----------------------------------------------------------------------

 Dipole orientation:
     6          1.06101844          0.31827838         -3.38000147
     8          0.02481538         -1.19801071         -4.62721307
     6          0.08181750         -0.63530602         -0.05111686
     6          1.31845776          0.44817958          2.11737488
     9          0.35111239          2.26843381          3.32856531
     9          3.11139334         -0.68253983          3.22120765
     9          3.89855358          2.94435538          0.60585962
     9         -2.38265919         -0.02267568         -0.05078762
     9          0.37719267         -3.14690159         -0.06328972
     8          2.38307212          2.20838649         -3.46947866
     1          3.38805435          2.82676968         -1.25052459

 Electric dipole moment (dipole orientation):
 (Debye = 10**-18 statcoulomb cm , SI units = C m)
                  (au)            (Debye)         (10**-30 SI)
   Tot        0.141073D+01      0.358571D+01      0.119606D+02
   x          0.000000D+00      0.000000D+00      0.000000D+00
   y          0.000000D+00      0.000000D+00      0.000000D+00
   z          0.141073D+01      0.358571D+01      0.119606D+02

 Dipole polarizability, Alpha (dipole orientation).
 (esu units = cm**3 , SI units = C**2 m**2 J**-1)
 Alpha(0;0):
               (au)            (10**-24 esu)      (10**-40 SI)
   iso        0.562389D+02      0.833374D+01      0.927254D+01
   aniso      0.363135D+02      0.538111D+01      0.598729D+01
   xx         0.440125D+02      0.652198D+01      0.725669D+01
   yx         0.705427D+01      0.104533D+01      0.116309D+01
   yy         0.471066D+02      0.698047D+01      0.776682D+01
   zx         0.487327D+01      0.722144D+00      0.803493D+00
   zy         0.463766D+01      0.687231D+00      0.764647D+00
   zz         0.775975D+02      0.114988D+02      0.127941D+02

 ----------------------------------------------------------------------
 Unable to Open any file for archive entry.
 1\1\GINC-SPARTAN-BM194\Freq\RM062X\def2TZVPP\C3H1F5O2\AKHALILOV\24-May
 -2025\0\\#P M062X/Def2TZVPP Symm(None) scf(xqc) pop(None) opt(NoFreeze
 ,TS,CalcAll,NoEigentest,MaxCycle=999)\\Gaussian input prepared by ASE\
 \0,1\C,1.8613472611,0.0818647003,-0.2673150108\O,2.1908074406,-0.77897
 46135,-0.9956695607\C,0.0302324554,-0.3353195524,0.0477115514\C,-0.702
 2294492,0.3303896483,1.0937055693\F,-1.4638030977,1.3102530342,0.84766
 7996\F,-0.8444327204,-0.195311061,2.2351193493\F,0.6560925771,1.651775
 5245,1.904645737\F,-0.5178041754,-0.0614799015,-1.1483489919\F,0.05269
 74608,-1.6554860316,0.2658402767\O,2.2425756751,1.1032677213,0.2835825
 783\H,1.4240135726,1.5204255315,1.2451625055\\Version=ES64L-G16RevC.01
 \HF=-764.5522581\RMSD=5.999e-09\RMSF=2.396e-06\ZeroPoint=0.0464486\The
 rmal=0.0558114\ETot=-764.4964467\HTot=-764.4955025\GTot=-764.5424403\D
 ipole=-1.2728197,0.0847589,0.602408\DipoleDeriv=2.7192745,0.0789418,-0
 .9453495,0.4436306,1.6084127,0.7106198,-0.6026527,0.8375038,1.1723908,
 -1.0939715,0.2092704,0.4901702,0.347605,-0.8373225,-0.5412904,0.553365
 ,-0.4752658,-0.8469812,-1.4968222,0.2469256,1.382779,0.135734,0.967972
 5,-0.2604643,1.2341032,-0.2999864,0.3247075,1.9146491,-0.0968573,-0.19
 23206,-1.0701593,1.67235,0.4308604,-1.2502126,0.0190721,2.2406719,-0.7
 054639,0.3053367,-0.0298341,0.9153391,-0.6004781,-0.1501037,-0.0723355
 ,0.0242214,-0.2342012,-0.1670165,-0.0709334,0.0841789,-0.1508842,-0.33
 97292,0.2275291,0.6962686,0.2719607,-1.0319295,-0.5352297,-0.1073355,-
 0.0101484,0.0091513,-0.6789843,-0.3469418,0.1170297,-0.3249247,-0.7714
 853,-0.0734341,-0.0123511,-0.4595508,0.0772471,-0.2806177,0.0160993,-0
 .3865376,0.1049109,-0.618657,0.0773339,-0.1385281,-0.2051468,-0.094136
 7,-0.833591,0.1150315,-0.0734842,0.076506,-0.2228719,-1.1038922,-0.194
 5045,0.2377243,-0.5696533,-1.0974106,-0.3674451,-0.0530986,-0.5061288,
 -0.6991245,0.4645726,-0.2199647,-0.3525021,-0.0438736,0.4193982,0.1661
 052,-0.1624454,0.2721307,0.6874806\Polar=67.4916475,-2.8750736,48.3248
 618,-15.6333829,9.3105514,52.9001222\PG=Unknown\NImag=1\\0.16121773,-0
 .05136158,0.98519598,-0.02492652,0.57090545,0.60473977,-0.10950292,0.1
 7453927,0.13560263,0.14202502,0.13893893,-0.49088138,-0.34337221,-0.16
 521969,0.55167615,0.10964607,-0.35652350,-0.36898063,-0.15749509,0.424
 17472,0.38994835,0.12986407,0.03519445,-0.03225621,-0.07269308,0.02935
 454,0.04983342,0.12588139,-0.03636989,-0.02389863,0.02009368,0.0266920
 5,-0.01348302,-0.02221795,-0.06504541,0.56732435,-0.10774144,-0.014365
 75,0.00000392,0.05684981,-0.02635200,-0.03379535,0.09382518,0.05254722
 ,0.54211948,-0.02368735,0.01236828,0.02035466,0.00397211,-0.00716505,-
 0.00741212,-0.06208072,0.06031886,0.07412548,0.36828821,0.08782655,0.0
 4250359,-0.00458643,-0.03141623,0.00280584,0.01453364,-0.05116420,-0.1
 1484312,-0.05468275,-0.28194905,0.56866024,0.10583832,0.03714073,-0.01
 308631,-0.03632448,0.00831302,0.01910897,-0.04865362,-0.10014208,-0.13
 981486,-0.11499444,-0.12870759,0.71874928,0.00843657,-0.00053171,-0.00
 416956,-0.00301076,0.00195352,0.00286993,-0.02040800,0.02561189,-0.008
 63102,-0.20038693,0.20969829,-0.01474637,0.23237599,-0.03392326,-0.012
 37669,0.00394387,0.01256810,-0.00293933,-0.00665176,0.06677862,-0.0080
 9867,0.00244783,0.19056400,-0.31434805,0.04346295,-0.24008647,0.361288
 66,-0.00383149,-0.00343116,-0.00194688,0.00167394,0.00039816,0.0001072
 7,0.00320892,-0.01054322,0.01234960,-0.01139927,0.04938687,-0.09566833
 ,0.05151353,-0.08110039,0.10574147,-0.00432599,-0.00463717,-0.00156409
 ,0.00168580,0.00070013,-0.00022035,0.01850460,-0.00675231,0.01615937,-
 0.07426386,0.00256678,0.06257277,0.00980944,0.01930253,-0.03286540,0.0
 6563386,0.00060513,-0.00498735,-0.00318312,0.00007591,0.00201256,0.001
 15338,-0.00813077,0.00558074,0.00356685,0.01194566,-0.12134908,0.13563
 827,0.00990420,-0.03262550,0.05590649,0.00322093,0.16169801,-0.0338790
 9,-0.01032461,0.00553742,0.01290026,-0.00379439,-0.00744837,0.04725732
 ,0.03334603,-0.04042072,0.04924895,0.12664114,-0.41658947,-0.01790751,
 0.03908301,-0.01962511,-0.05415867,-0.18869687,0.47377202,-0.05613865,
 -0.04380431,-0.00527826,0.01404447,0.01087360,0.00069995,0.03735807,-0
 .00547010,-0.02078103,0.02003524,0.05803876,0.04476884,-0.03076945,-0.
 01438172,-0.01775875,-0.01673479,-0.02308603,-0.00229342,0.18327860,-0
 .01900416,-0.00604287,0.00197084,0.00667592,-0.00137337,-0.00299860,0.
 01841204,-0.00586286,-0.01420469,0.02472455,0.01050553,0.01922886,-0.0
 0850029,0.00425409,-0.00326499,-0.01890929,-0.01637199,0.00123128,-0.0
 3704315,0.03953128,0.01398295,0.01928445,0.00606660,-0.00144424,-0.008
 36164,-0.00487569,-0.00104262,-0.00388101,-0.00293081,0.00731305,-0.00
 005702,-0.02307021,-0.01269159,-0.00085132,-0.00015444,0.00506231,0.00
 554893,0.00847164,-0.14288085,0.04002131,0.16864197,-0.02405876,0.0004
 4789,-0.02339641,0.00616520,-0.00324402,0.00009308,-0.06842194,0.01565
 371,-0.12700976,-0.01034535,0.02282913,0.03106957,0.00485859,-0.014592
 04,0.00288106,-0.00125034,0.00271800,-0.00514092,-0.00544808,-0.005378
 58,-0.00152827,0.09604523,-0.00326147,0.00012264,-0.00357552,0.0001723
 9,0.00144443,0.00104293,0.01973767,-0.06632093,0.01941522,-0.00800948,
 0.00494760,-0.00256588,-0.00154271,0.00188180,-0.00295290,0.00326377,0
 .00196793,-0.00226350,-0.00228224,-0.00150538,-0.00027674,-0.03421721,
 0.07857429,0.01947234,0.00293563,-0.02238019,-0.00546320,0.00491644,0.
 01282713,-0.11206505,0.02008559,-0.27683195,-0.02160701,0.01065348,-0.
 06270774,0.00220552,0.00135572,0.00286085,0.00512069,-0.00433926,-0.00
 768326,0.00001724,-0.00257391,-0.00116218,0.12743748,-0.06118329,0.371
 33306,-0.01973813,-0.02167533,0.00868123,0.00529237,-0.00594385,-0.006
 00491,-0.01661512,-0.00667853,-0.01362337,-0.01334875,0.04077263,0.025
 00884,0.00113549,-0.00309526,0.00436280,-0.00244902,0.00139103,-0.0114
 6070,-0.00527476,-0.00376731,-0.00160985,0.00002045,0.02158127,-0.0047
 5842,0.04883297,0.02182899,-0.02407365,-0.00841833,-0.00342875,0.01223
 150,0.00336642,-0.00405025,-0.34047889,0.01695205,0.00177457,-0.053866
 49,0.01387173,0.00551200,-0.00575426,-0.00557038,0.00058955,0.00496708
 ,-0.00409384,-0.00181930,-0.00231722,-0.00356174,0.01749940,-0.0233760
 6,0.03495009,-0.02468707,0.43758445,0.00790036,0.00188582,-0.00106354,
 -0.00155732,0.00406326,0.00269651,-0.00902055,0.01869634,-0.06355413,0
 .00081423,-0.02478719,-0.00156860,0.00435992,0.00003176,-0.00171163,0.
 00152776,-0.00395414,0.00623220,-0.00077223,-0.00035118,0.00011758,-0.
 00614343,0.05100234,-0.01786457,0.00158986,-0.04854105,0.07685317,-0.1
 2002341,-0.14586636,-0.07645840,0.02506619,0.01479920,0.01031666,-0.03
 808952,-0.00920336,0.02092219,0.01013770,-0.01542499,-0.02103847,-0.00
 411201,0.00818872,-0.00004565,-0.00062560,-0.00206513,0.00867863,-0.02
 355171,0.01300083,0.03696547,-0.00123113,0.00251017,-0.00938836,-0.001
 64272,-0.01337466,0.00045816,0.18715372,-0.09678105,-0.43707058,-0.216
 20736,-0.02249061,-0.06712626,-0.05680732,-0.05013823,0.00240945,0.021
 39908,-0.00401984,-0.04209650,-0.04146141,-0.00085700,0.01271165,0.003
 01935,0.00336558,0.00304610,0.01116175,0.05758688,0.01219694,-0.034721
 80,-0.00168877,0.00280828,-0.00843328,0.00305048,-0.00560700,0.0020807
 2,0.15118990,0.52262112,-0.03615440,-0.19286185,-0.19004014,-0.0176010
 7,-0.07395871,-0.01536443,-0.02220182,-0.00404741,0.01963755,-0.009662
 15,-0.02861731,-0.02731129,0.00228752,0.00658805,0.00297551,0.00314012
 ,0.00332466,0.00567064,0.07806103,-0.00802932,-0.04647931,0.00529696,0
 .00310959,0.00054232,0.00067275,-0.00113967,0.00079243,0.02412111,0.27
 899041,0.23379729,0.05795685,0.04532657,0.00341093,-0.01304439,-0.0150
 4730,-0.00232664,-0.03329975,0.00124310,0.01590457,-0.01832031,-0.0417
 7766,-0.03350095,0.00207109,0.00867676,0.00226033,0.00401590,0.0034210
 6,0.00675514,-0.11679894,0.02978942,0.09787363,0.00366613,0.00204782,-
 0.00097123,0.00378722,0.00015552,0.00084325,-0.03308153,-0.03921734,-0
 .02796005,0.14304773,-0.00849821,-0.02849106,-0.01757086,0.00183164,0.
 00563289,0.00092805,0.00905154,-0.00232842,-0.00672307,-0.00055250,0.0
 1708043,0.01522139,-0.00116171,-0.00399370,-0.00184782,-0.00271050,-0.
 00393849,-0.00229001,0.00138761,-0.03301413,-0.01314341,-0.00002752,-0
 .00054459,0.00163281,-0.00094805,0.00069054,-0.00012668,-0.00375433,-0
 .00389319,0.01664158,0.00538204,0.05279971,-0.05030711,-0.05464521,-0.
 01885002,0.01285877,0.01397335,0.00577623,0.03111502,-0.00393720,-0.01
 676272,0.01321862,0.04022317,0.04195855,-0.00509034,-0.00830971,-0.004
 92830,-0.00477452,-0.00496520,-0.00791700,0.06621748,-0.03102960,-0.10
 462515,-0.00355936,-0.00175223,0.00106653,-0.00285823,0.00218472,-0.00
 092942,0.00546865,0.04097988,0.01577942,-0.06228899,0.00727802,0.08943
 188\\0.00000116,0.00000152,0.00000118,0.00000277,0.00000092,0.00000267
 ,0.00000125,-0.00000160,0.00000096,-0.00000039,-0.00000147,-0.00000081
 ,-0.00000238,-0.00000347,-0.00000278,0.00000030,0.00000048,0.00000053,
 -0.00000425,0.00000320,-0.00000192,0.00000141,-0.00000525,0.00000023,0
 .00000429,-0.00000136,0.00000351,-0.00000180,0.00000342,-0.00000136,-0
 .00000237,0.00000362,-0.00000222\\\@
 The archive entry for this job was punched.


 THE FIRST AND LAST THING REQUIRED OF GENIUS IS THE LOVE OF TRUTH.

                          -- GOETHE
 Job cpu time:       1 days  7 hours 18 minutes 25.6 seconds.
 Elapsed time:       0 days  4 hours 11 minutes  2.3 seconds.
 File lengths (MBytes):  RWF=    123 Int=      0 D2E=      0 Chk=      9 Scr=      1
 Normal termination of Gaussian 16 at Sat May 24 06:25:55 2025.
done
