 Entering Gaussian System, Link 0=g16
 Initial command:
 /apps/easybuild-2022/easybuild/software/Compiler/NVHPC/22.11-CUDA-11.7.0/Gaussian/g16c01-CUDA-11.7.0/g16/l1.exe "/tmp/Gau-270014.inp" -scrdir="/tmp/"
 Entering Link 1 = /apps/easybuild-2022/easybuild/software/Compiler/NVHPC/22.11-CUDA-11.7.0/Gaussian/g16c01-CUDA-11.7.0/g16/l1.exe PID=    270020.
  
 Copyright (c) 1988-2019, Gaussian, Inc.  All Rights Reserved.
  
 This is part of the Gaussian(R) 16 program.  It is based on
 the Gaussian(R) 09 system (copyright 2009, Gaussian, Inc.),
 the Gaussian(R) 03 system (copyright 2003, Gaussian, Inc.),
 the Gaussian(R) 98 system (copyright 1998, Gaussian, Inc.),
 the Gaussian(R) 94 system (copyright 1995, Gaussian, Inc.),
 the Gaussian 92(TM) system (copyright 1992, Gaussian, Inc.),
 the Gaussian 90(TM) system (copyright 1990, Gaussian, Inc.),
 the Gaussian 88(TM) system (copyright 1988, Gaussian, Inc.),
 the Gaussian 86(TM) system (copyright 1986, Carnegie Mellon
 University), and the Gaussian 82(TM) system (copyright 1983,
 Carnegie Mellon University). Gaussian is a federally registered
 trademark of Gaussian, Inc.
  
 This software contains proprietary and confidential information,
 including trade secrets, belonging to Gaussian, Inc.
  
 This software is provided under written license and may be
 used, copied, transmitted, or stored only in accord with that
 written license.
  
 The following legend is applicable only to US Government
 contracts under FAR:
  
                    RESTRICTED RIGHTS LEGEND
  
 Use, reproduction and disclosure by the US Government is
 subject to restrictions as set forth in subparagraphs (a)
 and (c) of the Commercial Computer Software - Restricted
 Rights clause in FAR 52.227-19.
  
 Gaussian, Inc.
 340 Quinnipiac St., Bldg. 40, Wallingford CT 06492
  
  
 ---------------------------------------------------------------
 Warning -- This program may not be used in any manner that
 competes with the business of Gaussian, Inc. or will provide
 assistance to any competitor of Gaussian, Inc.  The licensee
 of this program is prohibited from giving any competitor of
 Gaussian, Inc. access to this program.  By using this program,
 the user acknowledges that Gaussian, Inc. is engaged in the
 business of creating and licensing software in the field of
 computational chemistry and represents and warrants to the
 licensee that it is not a competitor of Gaussian, Inc. and that
 it will not use this program in any manner prohibited above.
 ---------------------------------------------------------------
  

 Cite this work as:
 Gaussian 16, Revision C.01,
 M. J. Frisch, G. W. Trucks, H. B. Schlegel, G. E. Scuseria, 
 M. A. Robb, J. R. Cheeseman, G. Scalmani, V. Barone, 
 G. A. Petersson, H. Nakatsuji, X. Li, M. Caricato, A. V. Marenich, 
 J. Bloino, B. G. Janesko, R. Gomperts, B. Mennucci, H. P. Hratchian, 
 J. V. Ortiz, A. F. Izmaylov, J. L. Sonnenberg, D. Williams-Young, 
 F. Ding, F. Lipparini, F. Egidi, J. Goings, B. Peng, A. Petrone, 
 T. Henderson, D. Ranasinghe, V. G. Zakrzewski, J. Gao, N. Rega, 
 G. Zheng, W. Liang, M. Hada, M. Ehara, K. Toyota, R. Fukuda, 
 J. Hasegawa, M. Ishida, T. Nakajima, Y. Honda, O. Kitao, H. Nakai, 
 T. Vreven, K. Throssell, J. A. Montgomery, Jr., J. E. Peralta, 
 F. Ogliaro, M. J. Bearpark, J. J. Heyd, E. N. Brothers, K. N. Kudin, 
 V. N. Staroverov, T. A. Keith, R. Kobayashi, J. Normand, 
 K. Raghavachari, A. P. Rendell, J. C. Burant, S. S. Iyengar, 
 J. Tomasi, M. Cossi, J. M. Millam, M. Klene, C. Adamo, R. Cammi, 
 J. W. Ochterski, R. L. Martin, K. Morokuma, O. Farkas, 
 J. B. Foresman, and D. J. Fox, Gaussian, Inc., Wallingford CT, 2019.
 
 ******************************************
 Gaussian 16:  ES64L-G16RevC.01  3-Jul-2019
                24-May-2025 
 ******************************************
 %mem=28GB
 %chk=1642764945472630600001_ketoenol_2_1_3_8_IRC_F
 %nprocshared=8
 Will use up to    8 processors via shared memory.
 ----------------------------------------------------------------------
 #P M062X/Def2TZVPP Symm(None) scf(xqc) pop(None) geom(AllCheck,NoKeepC
 onstants) guess(Read) irc(RCFC,forward,MaxPoints=100,StepSize=2)
 ----------------------------------------------------------------------
 1/10=5,18=10,22=1,26=3,29=20007,38=1,39=2,42=100,44=3,172=1/1,23;
 2/12=2,15=3,29=1,40=1/2;
 3/5=44,7=202,11=2,14=-4,25=1,30=1,71=2,74=-55,116=-2,140=1/1,2,3;
 4/5=1/1;
 5/5=2,8=3,13=1,38=6/2,8;
 8/6=4,10=90,11=11/1;
 11/6=1,8=1,9=11,15=111,16=1,31=1/1,2,10;
 10/6=1,13=1,31=1/2;
 7/10=1,25=1,30=1/1,2,3,16;
 1/18=10,22=1,26=3,39=2,42=100,44=3/23(2);
 2/15=3,29=1/2;
 99/5=20/99;
 2/15=3,29=1/2;
 3/5=44,7=202,11=2,14=-2,25=1,30=1,71=2,74=-55,140=1/1,2,3;
 4/5=5,16=3,69=1/1;
 5/5=2,8=3,13=1,38=5/2,8;
 8/6=4,10=90,11=11/1;
 11/6=1,8=1,9=11,15=111,16=1,31=1/1,2,10;
 10/6=1,13=1,31=1/2;
 7/10=1,25=1,30=1/1,2,3,16;
 1/18=10,22=1,26=3,39=2,42=100,44=3/23(-8);
 2/15=3,29=1/2;
 99/5=20,9=1/99;
 Leave Link    1 at Sat May 24 05:01:48 2025, MaxMem=  3758096384 cpu:               0.0 elap:               0.0
 (Enter /apps/easybuild-2022/easybuild/software/Compiler/NVHPC/22.11-CUDA-11.7.0/Gaussian/g16c01-CUDA-11.7.0/g16/l101.exe)
 Structure from the checkpoint file:  "1642764945472630600001_ketoenol_2_1_3_8_IRC_F.chk"
 ------------------------------
 Gaussian input prepared by ASE
 ------------------------------
 Charge =  0 Multiplicity = 1
 Redundant internal coordinates found in file.  (old form).
 C,0,0.9383655249,0.2779309632,0.2579128522
 O,0,0.1977079941,-0.3808875828,-0.4725444695
 C,0,1.4800901762,1.4574750067,-0.2782918006
 C,0,1.074550937,2.1665758917,-1.5703069421
 F,0,0.7468855504,3.418415549,-1.2282105942
 F,0,2.119838054,2.2224969025,-2.3772547576
 F,0,0.0581236878,1.6168207091,-2.1800560281
 F,0,1.6797736516,-0.7474880741,-1.6115978903
 F,0,2.4201702484,2.0743694169,0.3421483735
 O,0,1.4410844401,-0.1279548881,1.4270025771
 H,0,1.1607047357,-1.0402678942,1.5748716796
 Recover connectivity data from disk.
 ITRead=  0  0  0  0  0  0  0  0  0  0  0
 MicOpt= -1 -1 -1 -1 -1 -1 -1 -1 -1 -1 -1
 NAtoms=     11 NQM=       11 NQMF=       0 NMMI=      0 NMMIF=      0
                NMic=       0 NMicF=      0.
                    Isotopes and Nuclear Properties:
 (Nuclear quadrupole moments (NQMom) in fm**2, nuclear magnetic moments (NMagM)
  in nuclear magnetons)

  Atom         1           2           3           4           5           6           7           8           9          10
 IAtWgt=          12          16          12          12          19          19          19          19          19          16
 AtmWgt=  12.0000000  15.9949146  12.0000000  12.0000000  18.9984032  18.9984032  18.9984032  18.9984032  18.9984032  15.9949146
 NucSpn=           0           0           0           0           1           1           1           1           1           0
 AtZEff=   3.6000000   5.6000000   3.6000000   3.6000000   6.7500000   6.7500000   6.7500000   6.7500000   6.7500000   5.6000000
 NQMom=    0.0000000   0.0000000   0.0000000   0.0000000   0.0000000   0.0000000   0.0000000   0.0000000   0.0000000   0.0000000
 NMagM=    0.0000000   0.0000000   0.0000000   0.0000000   2.6288670   2.6288670   2.6288670   2.6288670   2.6288670   0.0000000
 AtZNuc=   6.0000000   8.0000000   6.0000000   6.0000000   9.0000000   9.0000000   9.0000000   9.0000000   9.0000000   8.0000000

  Atom        11
 IAtWgt=           1
 AtmWgt=   1.0078250
 NucSpn=           1
 AtZEff=   1.0000000
 NQMom=    0.0000000
 NMagM=    2.7928460
 AtZNuc=   1.0000000
 Leave Link  101 at Sat May 24 05:01:48 2025, MaxMem=  3758096384 cpu:               0.2 elap:               0.2
 (Enter /apps/easybuild-2022/easybuild/software/Compiler/NVHPC/22.11-CUDA-11.7.0/Gaussian/g16c01-CUDA-11.7.0/g16/l123.exe)
 IRC-IRC-IRC-IRC-IRC-IRC-IRC-IRC-IRC-IRC-IRC-IRC-IRC-IRC-IRC-IRC-IRC-IRC
 ------------------------------------------------------------------------
 INPUT DATA FOR L123
 ------------------------------------------------------------------------
 GENERAL PARAMETERS:
 Rxn path following direction = Forward
 Maximum points per path      = 100
 Step size                    =   0.020 bohr
 Integration scheme           = HPC                                 
    Redo corrector integration= Yes                                 
    DWI Weight Power          =  2
    DWI will use Hessian update vectors when possible.
    Max correction cycles     =  20
 Initial Hessian              = ReadFC from chk
 Hessian evaluation           = All updating
 Hessian updating method      = Bofill                              
 ------------------------------------------------------------------------
          ******** Start new reaction path calculation ********
 RCFC Option Requested - Data Read From Chk File:
 "1642764945472630600001_ketoenol_2_1_3_8_IRC_F.chk"
   Energy From Chk =   -764.4549599

 Current Structure is TS -> form Hessian eigenvectors.
                            Recovering Hessian eigenvectors from chk file.
 Supplied step size of   0.0200 bohr.
    Integration on MW PES will use step size of   0.0790 sqrt(amu)*bohr.
 Point Number:   0          Path Number:   1
 Calculating another point on the path.
 Point Number  1 in FORWARD path direction.
 Using LQA Reaction Path Following.
 IRC-IRC-IRC-IRC-IRC-IRC-IRC-IRC-IRC-IRC-IRC-IRC-IRC-IRC-IRC-IRC-IRC-IRC
 Leave Link  123 at Sat May 24 05:01:48 2025, MaxMem=  3758096384 cpu:               0.0 elap:               0.0
 (Enter /apps/easybuild-2022/easybuild/software/Compiler/NVHPC/22.11-CUDA-11.7.0/Gaussian/g16c01-CUDA-11.7.0/g16/l202.exe)
                          Input orientation:                          
 ---------------------------------------------------------------------
 Center     Atomic      Atomic             Coordinates (Angstroms)
 Number     Number       Type             X           Y           Z
 ---------------------------------------------------------------------
      1          6           0       -0.299590   -0.948815    1.088637
      2          8           0       -1.044573   -1.603395    0.362968
      3          6           0        0.245271    0.232073    0.551083
      4          6           0       -0.161815    0.942408   -0.740297
      5          9           0       -0.489443    2.193999   -0.396929
      6          9           0        0.883514    0.998649   -1.546602
      7          9           0       -1.178283    0.392753   -1.349168
      8          9           0        0.448135   -1.969164   -0.781878
      9          9           0        1.183401    0.849324    1.172392
     10          8           0        0.205085   -1.351819    2.257684
     11          1           0       -0.076060   -2.263619    2.407840
 ---------------------------------------------------------------------
                    Distance matrix (angstroms):
                    1          2          3          4          5
     1  C    0.000000
     2  O    1.228849   0.000000
     3  C    1.407244   2.251229   0.000000
     4  C    2.634522   2.911627   1.529038   0.000000
     5  F    3.481413   3.912265   2.299497   1.338552   0.000000
     6  F    3.483797   3.759603   2.322774   1.321365   2.153050
     7  F    2.918013   2.633229   2.379764   1.306159   2.150755
     8  F    2.258103   1.916413   2.581353   2.975066   4.284760
     9  F    2.332292   3.410993   1.283399   2.340225   2.658821
    10  O    1.335582   2.283612   2.328694   3.792885   4.483543
    11  H    1.875892   2.356993   3.127184   4.494078   5.282800
                    6          7          8          9         10
     6  F    0.000000
     7  F    2.158031   0.000000
     8  F    3.095525   2.923304   0.000000
     9  F    2.739555   3.484864   3.507658   0.000000
    10  O    4.523003   4.238704   3.111129   2.641967   0.000000
    11  H    5.215438   4.731419   3.245887   3.578127   0.965904
                   11
    11  H    0.000000
 Symmetry turned off by external request.
 Stoichiometry    C3HF5O2
 Rotational constants (GHZ):           1.8943004           1.1292414           0.9281513
 Leave Link  202 at Sat May 24 05:01:48 2025, MaxMem=  3758096384 cpu:               0.0 elap:               0.0
 (Enter /apps/easybuild-2022/easybuild/software/Compiler/NVHPC/22.11-CUDA-11.7.0/Gaussian/g16c01-CUDA-11.7.0/g16/l301.exe)
 Standard basis: def2TZVPP (5D, 7F)
 Ernie: Thresh=  0.10000D-02 Tol=  0.10000D-05 Strict=F.
   324 basis functions,   527 primitive gaussians,   375 cartesian basis functions
    40 alpha electrons       40 beta electrons
       nuclear repulsion energy       620.8926235220 Hartrees.
 IExCor= 4336 DFT=T Ex+Corr=M062X ExCW=0 ScaHFX=  0.540000
 ScaDFX=  1.000000  1.000000  1.000000  1.000000 ScalE2=  1.000000  1.000000
 IRadAn=      5 IRanWt=     -1 IRanGd=            0 ICorTp=0 IEmpDi=  4
 NAtoms=   11 NActive=   11 NUniq=   11 SFac= 1.00D+00 NAtFMM=   60 NAOKFM=F Big=F
 Integral buffers will be    131072 words long.
 Raffenetti 2 integral format.
 Two-electron integral symmetry is turned off.
 Leave Link  301 at Sat May 24 05:01:48 2025, MaxMem=  3758096384 cpu:               0.0 elap:               0.0
 (Enter /apps/easybuild-2022/easybuild/software/Compiler/NVHPC/22.11-CUDA-11.7.0/Gaussian/g16c01-CUDA-11.7.0/g16/l302.exe)
 NPDir=0 NMtPBC=     1 NCelOv=     1 NCel=       1 NClECP=     1 NCelD=      1
         NCelK=      1 NCelE2=     1 NClLst=     1 CellRange=     0.0.
 One-electron integrals computed using PRISM.
   1 Symmetry operations used in ECPInt.
 ECPInt:  NShTT=    6786 NPrTT=   21959 LenC2=    6408 LenP2D=   15712.
 LDataN:  DoStor=T MaxTD1= 6 Len=  172
 NBasis=   324 RedAO= T EigKep=  1.61D-04  NBF=   324
 NBsUse=   324 1.00D-06 EigRej= -1.00D+00 NBFU=   324
 Precomputing XC quadrature grid using
 IXCGrd= 4 IRadAn=           5 IRanWt=          -1 IRanGd=           0 AccXCQ= 0.00D+00.
 Generated NRdTot=       0 NPtTot=           0 NUsed=           0 NTot=          32
 NSgBfM=   373   373   373   373   373 MxSgAt=    11 MxSgA2=    11.
 Leave Link  302 at Sat May 24 05:01:48 2025, MaxMem=  3758096384 cpu:               0.6 elap:               0.1
 (Enter /apps/easybuild-2022/easybuild/software/Compiler/NVHPC/22.11-CUDA-11.7.0/Gaussian/g16c01-CUDA-11.7.0/g16/l303.exe)
 DipDrv:  MaxL=1.
 Leave Link  303 at Sat May 24 05:01:48 2025, MaxMem=  3758096384 cpu:               0.1 elap:               0.0
 (Enter /apps/easybuild-2022/easybuild/software/Compiler/NVHPC/22.11-CUDA-11.7.0/Gaussian/g16c01-CUDA-11.7.0/g16/l401.exe)
 Initial guess from the checkpoint file:  "1642764945472630600001_ketoenol_2_1_3_8_IRC_F.chk"
 B after Tr=    -2.336581   -2.313002    1.570407
         Rot=    1.000000    0.000011   -0.000007    0.000016 Ang=   0.00 deg.
 Guess basis will be translated and rotated to current coordinates.
 JPrj=2 DoOrth=T DoCkMO=T.
 Leave Link  401 at Sat May 24 05:01:48 2025, MaxMem=  3758096384 cpu:               0.4 elap:               0.3
 (Enter /apps/easybuild-2022/easybuild/software/Compiler/NVHPC/22.11-CUDA-11.7.0/Gaussian/g16c01-CUDA-11.7.0/g16/l502.exe)
 Keep R1 ints in memory in canonical form, NReq=1412617130.
 FoFCou: FMM=F IPFlag=           0 FMFlag=           0 FMFlg1=           0
         NFxFlg=           0 DoJE=F BraDBF=F KetDBF=F FulRan=T
         wScrn=  0.000000 ICntrl=       600 IOpCl=  0 I1Cent=           0 NGrid=           0
         NMat0=    1 NMatS0=  52650 NMatT0=    0 NMatD0=    1 NMtDS0=    0 NMtDT0=    0
 Symmetry not used in FoFCou.
 Two-electron integral symmetry not used.
 Closed shell SCF:
 Using DIIS extrapolation, IDIIS=  1040.
 NGot=  3758096384 LenX=  2371771924 LenY=  2371630858
 Requested convergence on RMS density matrix=1.00D-08 within  32 cycles.
 Requested convergence on MAX density matrix=1.00D-06.
 Requested convergence on             energy=1.00D-06.
 No special actions if energy rises.

 Cycle   1  Pass 1  IDiag  1:
 E= -764.454882119665    
 DIIS: error= 1.99D-04 at cycle   1 NSaved=   1.
 NSaved= 1 IEnMin= 1 EnMin= -764.454882119665     IErMin= 1 ErrMin= 1.99D-04
 ErrMax= 1.99D-04  0.00D+00 EMaxC= 1.00D-01 BMatC= 4.02D-05 BMatP= 4.02D-05
 IDIUse=3 WtCom= 9.98D-01 WtEn= 1.99D-03
 Coeff-Com:  0.100D+01
 Coeff-En:   0.100D+01
 Coeff:      0.100D+01
 Gap=     0.179 Goal=   None    Shift=    0.000
 RMSDP=3.57D-05 MaxDP=1.02D-03              OVMax= 9.45D-03

 Cycle   2  Pass 1  IDiag  1:
 E= -764.454936058634     Delta-E=       -0.000053938969 Rises=F Damp=F
 DIIS: error= 2.42D-04 at cycle   2 NSaved=   2.
 NSaved= 2 IEnMin= 2 EnMin= -764.454936058634     IErMin= 1 ErrMin= 1.99D-04
 ErrMax= 2.42D-04  0.00D+00 EMaxC= 1.00D-01 BMatC= 4.35D-05 BMatP= 4.02D-05
 IDIUse=3 WtCom= 9.98D-01 WtEn= 2.42D-03
 Coeff-Com:  0.520D+00 0.480D+00
 Coeff-En:   0.000D+00 0.100D+01
 Coeff:      0.519D+00 0.481D+00
 Gap=     0.174 Goal=   None    Shift=    0.000
 RMSDP=2.78D-05 MaxDP=1.46D-03 DE=-5.39D-05 OVMax= 4.27D-03

 Cycle   3  Pass 1  IDiag  1:
 E= -764.454958527587     Delta-E=       -0.000022468953 Rises=F Damp=F
 DIIS: error= 1.55D-04 at cycle   3 NSaved=   3.
 NSaved= 3 IEnMin= 3 EnMin= -764.454958527587     IErMin= 3 ErrMin= 1.55D-04
 ErrMax= 1.55D-04  0.00D+00 EMaxC= 1.00D-01 BMatC= 1.53D-05 BMatP= 4.02D-05
 IDIUse=3 WtCom= 9.98D-01 WtEn= 1.55D-03
 Coeff-Com: -0.388D-01 0.368D+00 0.671D+00
 Coeff-En:   0.000D+00 0.294D+00 0.706D+00
 Coeff:     -0.387D-01 0.368D+00 0.671D+00
 Gap=     0.175 Goal=   None    Shift=    0.000
 RMSDP=1.66D-05 MaxDP=8.44D-04 DE=-2.25D-05 OVMax= 5.34D-03

 Cycle   4  Pass 1  IDiag  1:
 E= -764.454978368020     Delta-E=       -0.000019840433 Rises=F Damp=F
 DIIS: error= 1.18D-04 at cycle   4 NSaved=   4.
 NSaved= 4 IEnMin= 4 EnMin= -764.454978368020     IErMin= 4 ErrMin= 1.18D-04
 ErrMax= 1.18D-04  0.00D+00 EMaxC= 1.00D-01 BMatC= 6.34D-06 BMatP= 1.53D-05
 IDIUse=3 WtCom= 9.99D-01 WtEn= 1.18D-03
 Coeff-Com: -0.629D-01 0.113D+00 0.464D+00 0.486D+00
 Coeff-En:   0.000D+00 0.000D+00 0.000D+00 0.100D+01
 Coeff:     -0.629D-01 0.113D+00 0.463D+00 0.487D+00
 Gap=     0.175 Goal=   None    Shift=    0.000
 RMSDP=7.95D-06 MaxDP=5.57D-04 DE=-1.98D-05 OVMax= 1.54D-03

 Cycle   5  Pass 1  IDiag  1:
 E= -764.454984560974     Delta-E=       -0.000006192954 Rises=F Damp=F
 DIIS: error= 3.59D-05 at cycle   5 NSaved=   5.
 NSaved= 5 IEnMin= 5 EnMin= -764.454984560974     IErMin= 5 ErrMin= 3.59D-05
 ErrMax= 3.59D-05  0.00D+00 EMaxC= 1.00D-01 BMatC= 1.89D-06 BMatP= 6.34D-06
 IDIUse=1 WtCom= 1.00D+00 WtEn= 0.00D+00
 Coeff-Com:  0.171D-01-0.281D+00-0.658D-01 0.237D+00 0.109D+01
 Coeff:      0.171D-01-0.281D+00-0.658D-01 0.237D+00 0.109D+01
 Gap=     0.175 Goal=   None    Shift=    0.000
 RMSDP=1.04D-05 MaxDP=3.40D-04 DE=-6.19D-06 OVMax= 1.88D-03

 Cycle   6  Pass 1  IDiag  1:
 E= -764.454989889165     Delta-E=       -0.000005328191 Rises=F Damp=F
 DIIS: error= 2.61D-05 at cycle   6 NSaved=   6.
 NSaved= 6 IEnMin= 6 EnMin= -764.454989889165     IErMin= 6 ErrMin= 2.61D-05
 ErrMax= 2.61D-05  0.00D+00 EMaxC= 1.00D-01 BMatC= 4.37D-07 BMatP= 1.89D-06
 IDIUse=1 WtCom= 1.00D+00 WtEn= 0.00D+00
 Coeff-Com:  0.295D-01-0.167D+00-0.114D+00-0.806D-01 0.275D+00 0.106D+01
 Coeff:      0.295D-01-0.167D+00-0.114D+00-0.806D-01 0.275D+00 0.106D+01
 Gap=     0.175 Goal=   None    Shift=    0.000
 RMSDP=6.97D-06 MaxDP=2.70D-04 DE=-5.33D-06 OVMax= 1.47D-03

 Cycle   7  Pass 1  IDiag  1:
 E= -764.454991747633     Delta-E=       -0.000001858468 Rises=F Damp=F
 DIIS: error= 9.76D-06 at cycle   7 NSaved=   7.
 NSaved= 7 IEnMin= 7 EnMin= -764.454991747633     IErMin= 7 ErrMin= 9.76D-06
 ErrMax= 9.76D-06  0.00D+00 EMaxC= 1.00D-01 BMatC= 7.87D-08 BMatP= 4.37D-07
 IDIUse=1 WtCom= 1.00D+00 WtEn= 0.00D+00
 Coeff-Com:  0.875D-02 0.202D-01-0.218D-01-0.134D+00-0.314D+00 0.567D+00
 Coeff-Com:  0.874D+00
 Coeff:      0.875D-02 0.202D-01-0.218D-01-0.134D+00-0.314D+00 0.567D+00
 Coeff:      0.874D+00
 Gap=     0.175 Goal=   None    Shift=    0.000
 RMSDP=3.94D-06 MaxDP=1.47D-04 DE=-1.86D-06 OVMax= 8.68D-04

 Cycle   8  Pass 1  IDiag  1:
 E= -764.454992170558     Delta-E=       -0.000000422925 Rises=F Damp=F
 DIIS: error= 4.33D-06 at cycle   8 NSaved=   8.
 NSaved= 8 IEnMin= 8 EnMin= -764.454992170558     IErMin= 8 ErrMin= 4.33D-06
 ErrMax= 4.33D-06  0.00D+00 EMaxC= 1.00D-01 BMatC= 1.19D-08 BMatP= 7.87D-08
 IDIUse=1 WtCom= 1.00D+00 WtEn= 0.00D+00
 Coeff-Com: -0.348D-02 0.395D-01 0.922D-02-0.632D-03-0.114D+00-0.828D-01
 Coeff-Com:  0.167D+00 0.985D+00
 Coeff:     -0.348D-02 0.395D-01 0.922D-02-0.632D-03-0.114D+00-0.828D-01
 Coeff:      0.167D+00 0.985D+00
 Gap=     0.175 Goal=   None    Shift=    0.000
 RMSDP=9.56D-07 MaxDP=4.16D-05 DE=-4.23D-07 OVMax= 2.02D-04

 Cycle   9  Pass 1  IDiag  1:
 E= -764.454992207042     Delta-E=       -0.000000036484 Rises=F Damp=F
 DIIS: error= 1.89D-06 at cycle   9 NSaved=   9.
 NSaved= 9 IEnMin= 9 EnMin= -764.454992207042     IErMin= 9 ErrMin= 1.89D-06
 ErrMax= 1.89D-06  0.00D+00 EMaxC= 1.00D-01 BMatC= 2.87D-09 BMatP= 1.19D-08
 IDIUse=1 WtCom= 1.00D+00 WtEn= 0.00D+00
 Coeff-Com: -0.267D-02 0.161D-01 0.360D-02 0.203D-01-0.933D-02-0.111D+00
 Coeff-Com: -0.495D-01 0.396D+00 0.736D+00
 Coeff:     -0.267D-02 0.161D-01 0.360D-02 0.203D-01-0.933D-02-0.111D+00
 Coeff:     -0.495D-01 0.396D+00 0.736D+00
 Gap=     0.175 Goal=   None    Shift=    0.000
 RMSDP=2.85D-07 MaxDP=1.14D-05 DE=-3.65D-08 OVMax= 5.84D-05

 Cycle  10  Pass 1  IDiag  1:
 E= -764.454992211846     Delta-E=       -0.000000004804 Rises=F Damp=F
 DIIS: error= 7.15D-07 at cycle  10 NSaved=  10.
 NSaved=10 IEnMin=10 EnMin= -764.454992211846     IErMin=10 ErrMin= 7.15D-07
 ErrMax= 7.15D-07  0.00D+00 EMaxC= 1.00D-01 BMatC= 3.99D-10 BMatP= 2.87D-09
 IDIUse=1 WtCom= 1.00D+00 WtEn= 0.00D+00
 Coeff-Com:  0.114D-03-0.438D-02-0.275D-02 0.571D-02 0.245D-01-0.557D-02
 Coeff-Com: -0.503D-01-0.139D+00 0.173D+00 0.999D+00
 Coeff:      0.114D-03-0.438D-02-0.275D-02 0.571D-02 0.245D-01-0.557D-02
 Coeff:     -0.503D-01-0.139D+00 0.173D+00 0.999D+00
 Gap=     0.175 Goal=   None    Shift=    0.000
 RMSDP=1.53D-07 MaxDP=4.81D-06 DE=-4.80D-09 OVMax= 3.57D-05

 Cycle  11  Pass 1  IDiag  1:
 E= -764.454992212919     Delta-E=       -0.000000001073 Rises=F Damp=F
 DIIS: error= 3.33D-07 at cycle  11 NSaved=  11.
 NSaved=11 IEnMin=11 EnMin= -764.454992212919     IErMin=11 ErrMin= 3.33D-07
 ErrMax= 3.33D-07  0.00D+00 EMaxC= 1.00D-01 BMatC= 3.85D-11 BMatP= 3.99D-10
 IDIUse=1 WtCom= 1.00D+00 WtEn= 0.00D+00
 Coeff-Com:  0.294D-03-0.250D-02-0.969D-03-0.212D-02 0.517D-02 0.119D-01
 Coeff-Com: -0.351D-02-0.719D-01-0.321D-01 0.198D+00 0.897D+00
 Coeff:      0.294D-03-0.250D-02-0.969D-03-0.212D-02 0.517D-02 0.119D-01
 Coeff:     -0.351D-02-0.719D-01-0.321D-01 0.198D+00 0.897D+00
 Gap=     0.175 Goal=   None    Shift=    0.000
 RMSDP=6.25D-08 MaxDP=3.05D-06 DE=-1.07D-09 OVMax= 1.73D-05

 Cycle  12  Pass 1  IDiag  1:
 E= -764.454992213119     Delta-E=       -0.000000000200 Rises=F Damp=F
 DIIS: error= 1.90D-07 at cycle  12 NSaved=  12.
 NSaved=12 IEnMin=12 EnMin= -764.454992213119     IErMin=12 ErrMin= 1.90D-07
 ErrMax= 1.90D-07  0.00D+00 EMaxC= 1.00D-01 BMatC= 1.35D-11 BMatP= 3.85D-11
 IDIUse=1 WtCom= 1.00D+00 WtEn= 0.00D+00
 Coeff-Com:  0.550D-04 0.596D-03 0.588D-03-0.215D-02-0.545D-02 0.508D-02
 Coeff-Com:  0.127D-01 0.204D-01-0.580D-01-0.238D+00 0.183D+00 0.108D+01
 Coeff:      0.550D-04 0.596D-03 0.588D-03-0.215D-02-0.545D-02 0.508D-02
 Coeff:      0.127D-01 0.204D-01-0.580D-01-0.238D+00 0.183D+00 0.108D+01
 Gap=     0.175 Goal=   None    Shift=    0.000
 RMSDP=5.06D-08 MaxDP=2.41D-06 DE=-2.00D-10 OVMax= 1.32D-05

 Cycle  13  Pass 1  IDiag  1:
 E= -764.454992213235     Delta-E=       -0.000000000116 Rises=F Damp=F
 DIIS: error= 1.00D-07 at cycle  13 NSaved=  13.
 NSaved=13 IEnMin=13 EnMin= -764.454992213235     IErMin=13 ErrMin= 1.00D-07
 ErrMax= 1.00D-07  0.00D+00 EMaxC= 1.00D-01 BMatC= 4.87D-12 BMatP= 1.35D-11
 IDIUse=1 WtCom= 1.00D+00 WtEn= 0.00D+00
 Coeff-Com: -0.984D-04 0.127D-02 0.704D-03 0.197D-03-0.428D-02-0.309D-02
 Coeff-Com:  0.619D-02 0.391D-01-0.102D-01-0.178D+00-0.358D+00 0.439D+00
 Coeff-Com:  0.107D+01
 Coeff:     -0.984D-04 0.127D-02 0.704D-03 0.197D-03-0.428D-02-0.309D-02
 Coeff:      0.619D-02 0.391D-01-0.102D-01-0.178D+00-0.358D+00 0.439D+00
 Coeff:      0.107D+01
 Gap=     0.175 Goal=   None    Shift=    0.000
 RMSDP=4.10D-08 MaxDP=2.08D-06 DE=-1.16D-10 OVMax= 1.01D-05

 Cycle  14  Pass 1  IDiag  1:
 E= -764.454992213280     Delta-E=       -0.000000000045 Rises=F Damp=F
 DIIS: error= 3.91D-08 at cycle  14 NSaved=  14.
 NSaved=14 IEnMin=14 EnMin= -764.454992213280     IErMin=14 ErrMin= 3.91D-08
 ErrMax= 3.91D-08  0.00D+00 EMaxC= 1.00D-01 BMatC= 1.20D-12 BMatP= 4.87D-12
 IDIUse=1 WtCom= 1.00D+00 WtEn= 0.00D+00
 Coeff-Com: -0.214D-04 0.179D-04 0.717D-04 0.390D-03 0.437D-03-0.158D-02
 Coeff-Com: -0.135D-02 0.224D-02 0.101D-01 0.207D-01-0.104D+00-0.123D+00
 Coeff-Com:  0.206D+00 0.990D+00
 Coeff:     -0.214D-04 0.179D-04 0.717D-04 0.390D-03 0.437D-03-0.158D-02
 Coeff:     -0.135D-02 0.224D-02 0.101D-01 0.207D-01-0.104D+00-0.123D+00
 Coeff:      0.206D+00 0.990D+00
 Gap=     0.175 Goal=   None    Shift=    0.000
 RMSDP=1.13D-08 MaxDP=7.36D-07 DE=-4.46D-11 OVMax= 2.62D-06

 Cycle  15  Pass 1  IDiag  1:
 E= -764.454992213316     Delta-E=       -0.000000000036 Rises=F Damp=F
 DIIS: error= 1.18D-08 at cycle  15 NSaved=  15.
 NSaved=15 IEnMin=15 EnMin= -764.454992213316     IErMin=15 ErrMin= 1.18D-08
 ErrMax= 1.18D-08  0.00D+00 EMaxC= 1.00D-01 BMatC= 9.48D-14 BMatP= 1.20D-12
 IDIUse=1 WtCom= 1.00D+00 WtEn= 0.00D+00
 Coeff-Com:  0.556D-05-0.144D-03-0.386D-04 0.665D-04 0.592D-03-0.109D-03
 Coeff-Com: -0.104D-02-0.348D-02 0.332D-02 0.249D-01 0.665D-02-0.729D-01
 Coeff-Com: -0.517D-01 0.218D+00 0.876D+00
 Coeff:      0.556D-05-0.144D-03-0.386D-04 0.665D-04 0.592D-03-0.109D-03
 Coeff:     -0.104D-02-0.348D-02 0.332D-02 0.249D-01 0.665D-02-0.729D-01
 Coeff:     -0.517D-01 0.218D+00 0.876D+00
 Gap=     0.175 Goal=   None    Shift=    0.000
 RMSDP=2.39D-09 MaxDP=1.89D-07 DE=-3.59D-11 OVMax= 4.52D-07

 SCF Done:  E(RM062X) =  -764.454992213     A.U. after   15 cycles
            NFock= 15  Conv=0.24D-08     -V/T= 2.0036
 KE= 7.616993579129D+02 PE=-3.054010064236D+03 EE= 9.069630905879D+02
 Leave Link  502 at Sat May 24 05:02:20 2025, MaxMem=  3758096384 cpu:             149.2 elap:              31.0
 (Enter /apps/easybuild-2022/easybuild/software/Compiler/NVHPC/22.11-CUDA-11.7.0/Gaussian/g16c01-CUDA-11.7.0/g16/l508.exe)
 QCSCF skips out because SCF is already converged.
 Leave Link  508 at Sat May 24 05:02:20 2025, MaxMem=  3758096384 cpu:               0.0 elap:               0.0
 (Enter /apps/easybuild-2022/easybuild/software/Compiler/NVHPC/22.11-CUDA-11.7.0/Gaussian/g16c01-CUDA-11.7.0/g16/l801.exe)
 DoSCS=F DFT=T ScalE2(SS,OS)=  1.000000  1.000000
 Range of M.O.s used for correlation:     1   324
 NBasis=   324 NAE=    40 NBE=    40 NFC=     0 NFV=     0
 NROrb=    324 NOA=    40 NOB=    40 NVA=   284 NVB=   284

 **** Warning!!: The largest alpha MO coefficient is  0.22975940D+02

 Leave Link  801 at Sat May 24 05:02:20 2025, MaxMem=  3758096384 cpu:               0.0 elap:               0.0
 (Enter /apps/easybuild-2022/easybuild/software/Compiler/NVHPC/22.11-CUDA-11.7.0/Gaussian/g16c01-CUDA-11.7.0/g16/l1101.exe)
 Leave Link 1101 at Sat May 24 05:02:20 2025, MaxMem=  3758096384 cpu:               0.0 elap:               0.0
 (Enter /apps/easybuild-2022/easybuild/software/Compiler/NVHPC/22.11-CUDA-11.7.0/Gaussian/g16c01-CUDA-11.7.0/g16/l1102.exe)
 Symmetrizing basis deriv contribution to polar:
 IMax=3 JMax=2 DiffMx= 0.00D+00
 Leave Link 1102 at Sat May 24 05:02:20 2025, MaxMem=  3758096384 cpu:               0.0 elap:               0.0
 (Enter /apps/easybuild-2022/easybuild/software/Compiler/NVHPC/22.11-CUDA-11.7.0/Gaussian/g16c01-CUDA-11.7.0/g16/l1110.exe)
 Leave Link 1110 at Sat May 24 05:02:20 2025, MaxMem=  3758096384 cpu:               0.0 elap:               0.0
 (Enter /apps/easybuild-2022/easybuild/software/Compiler/NVHPC/22.11-CUDA-11.7.0/Gaussian/g16c01-CUDA-11.7.0/g16/l1002.exe)
 Minotr:  Closed shell wavefunction.
 Leave Link 1002 at Sat May 24 05:02:20 2025, MaxMem=  3758096384 cpu:               0.0 elap:               0.0
 (Enter /apps/easybuild-2022/easybuild/software/Compiler/NVHPC/22.11-CUDA-11.7.0/Gaussian/g16c01-CUDA-11.7.0/g16/l701.exe)
 ... and contract with generalized density number  0.
 Compute integral first derivatives.
   1 Symmetry operations used in ECPInt.
 ECPInt:  NShTT=    6786 NPrTT=   21959 LenC2=    6408 LenP2D=   15712.
 LDataN:  DoStor=T MaxTD1= 7 Len=  274
 Leave Link  701 at Sat May 24 05:02:20 2025, MaxMem=  3758096384 cpu:               0.4 elap:               0.1
 (Enter /apps/easybuild-2022/easybuild/software/Compiler/NVHPC/22.11-CUDA-11.7.0/Gaussian/g16c01-CUDA-11.7.0/g16/l702.exe)
 L702 exits ... SP integral derivatives will be done elsewhere.
 Leave Link  702 at Sat May 24 05:02:20 2025, MaxMem=  3758096384 cpu:               0.0 elap:               0.0
 (Enter /apps/easybuild-2022/easybuild/software/Compiler/NVHPC/22.11-CUDA-11.7.0/Gaussian/g16c01-CUDA-11.7.0/g16/l703.exe)
 Integral derivatives from FoFJK, PRISM(SPDF).
 Compute integral first derivatives, UseDBF=F ICtDFT=           0.
 Calling FoFJK, ICntrl=      2127 FMM=F ISym2X=0 I1Cent= 0 IOpClX= 0 NMat=1 NMatS=1 NMatT=0.
 FoFJK:  IHMeth= 1 ICntrl=    2127 DoSepK=F KAlg= 0 I1Cent=           0 FoldK=F
 IRaf=         0 NMat=       1 IRICut=       1 DoRegI=T DoRafI=F ISym2E= 0 IDoP0=0 IntGTp=1.
 FoFCou: FMM=F IPFlag=           0 FMFlag=      100000 FMFlg1=         800
         NFxFlg=           0 DoJE=F BraDBF=F KetDBF=F FulRan=T
         wScrn=  0.000000 ICntrl=      2127 IOpCl=  0 I1Cent=           0 NGrid=           0
         NMat0=    1 NMatS0=      1 NMatT0=    0 NMatD0=    1 NMtDS0=    0 NMtDT0=    0
 Symmetry not used in FoFCou.
 Leave Link  703 at Sat May 24 05:02:30 2025, MaxMem=  3758096384 cpu:              76.5 elap:               9.7
 (Enter /apps/easybuild-2022/easybuild/software/Compiler/NVHPC/22.11-CUDA-11.7.0/Gaussian/g16c01-CUDA-11.7.0/g16/l716.exe)
 Dipole        =-2.43201516D-01 6.87638614D-01 1.45345218D+00
 Polarizability= 0.00000000D+00 0.00000000D+00 0.00000000D+00
                 0.00000000D+00 0.00000000D+00 0.00000000D+00
 -------------------------------------------------------------------
 Center     Atomic                   Forces (Hartrees/Bohr)
 Number     Number              X              Y              Z
 -------------------------------------------------------------------
      1        6          -0.000366653   -0.000655376   -0.000069347
      2        8          -0.001846232    0.000464323    0.001427610
      3        6           0.000394508   -0.000331853   -0.000392423
      4        6           0.000016034   -0.000023237   -0.000211112
      5        9           0.000033064   -0.000131997    0.000124001
      6        9           0.000036964    0.000076141   -0.000115372
      7        9           0.000002311   -0.000000188   -0.000030160
      8        9           0.001757303    0.000914525   -0.000428952
      9        9          -0.000133380   -0.000374364   -0.000249589
     10        8           0.000120086    0.000050126   -0.000089200
     11        1          -0.000014005    0.000011900    0.000034544
 -------------------------------------------------------------------
 Cartesian Forces:  Max     0.001846232 RMS     0.000580139
 Leave Link  716 at Sat May 24 05:02:30 2025, MaxMem=  3758096384 cpu:               0.0 elap:               0.0
 (Enter /apps/easybuild-2022/easybuild/software/Compiler/NVHPC/22.11-CUDA-11.7.0/Gaussian/g16c01-CUDA-11.7.0/g16/l123.exe)
 IRC-IRC-IRC-IRC-IRC-IRC-IRC-IRC-IRC-IRC-IRC-IRC-IRC-IRC-IRC-IRC-IRC-IRC
 Pt  1 Step number   1 out of a maximum of  20
 Using modified Bulirsch-Stoer corrector integration.
   Using distance weighted interpolants to fit PES.
 PreDWI: IReCr0= 2 IReCr1= 1 IReCr2= 1 IReCr3= 1
 Modified Bulirsch-Stoer Extrapolation Cycles:
    EPS =    0.000010000000000
    Cycle     1 NS=    48
      PEZero:  N= 2 I= 1 D=  2.06D-04 Err=  3.48D-04
    Cycle     2 NS=    64 Truncation Error =  0.000347519
      PEZero:  N= 3 I= 2 D=  2.06D-04 Err=  2.32D-04
      PEZero:  N= 3 I= 1 D=  4.11D-04 Err=  1.22D-08
    Cycle     3 NS=    96 Truncation Error =  0.000000012
 BS completed in    3 cycles and     208 integration steps.
 Maximum DWI energy   std dev =  0.000000030 at pt     1
 Maximum DWI gradient std dev =  0.012217931 at pt     1
 SUMMARY OF CORRECTOR INTEGRATION:
   Predictor End Point Energy =  -764.454992
   Old End Point Energy       =  -764.454992
   Corrected End Point Energy =  -764.454992
   Predictor End-Start Dist.  =     0.078996
   Old End-Start Dist.        =     0.078996
   New End-Start Dist.        =     0.078993
   New End-Old End Dist.      =     0.000660
 CORRECTOR INTEGRATION CONVERGENCE:
   Recorrection delta-x convergence threshold:    0.010000
   Delta-x Convergence Met
 Point Number:   1          Path Number:   1
                    CURRENT STRUCTURE
                Cartesian Coordinates (Ang):                
 ---------------------------------------------------------------------
 Center     Atomic                     Coordinates (Angstroms)
 Number     Number                        X           Y           Z
 ---------------------------------------------------------------------
      1          6                   -0.299586   -0.948833    1.088613
      2          8                   -1.044580   -1.603423    0.362965
      3          6                    0.245298    0.232054    0.551061
      4          6                   -0.161804    0.942418   -0.740291
      5          9                   -0.489438    2.194007   -0.396926
      6          9                    0.883520    0.998655   -1.546609
      7          9                   -1.178277    0.392766   -1.349173
      8          9                    0.448114   -1.969134   -0.781847
      9          9                    1.183401    0.849319    1.172411
     10          8                    0.205070   -1.351833    2.257673
     11          1                   -0.076142   -2.263622    2.407796
 ---------------------------------------------------------------------
   CHANGE IN THE REACTION COORDINATE =    0.07899
   NET REACTION COORDINATE UP TO THIS POINT =    0.07899
  # OF POINTS ALONG THE PATH =   1
  # OF STEPS =   1

 Calculating another point on the path.
 Point Number  2 in FORWARD path direction.
 Using LQA Reaction Path Following.
   LQA: T_Est iteration completed in    3 iterations.
 IRC-IRC-IRC-IRC-IRC-IRC-IRC-IRC-IRC-IRC-IRC-IRC-IRC-IRC-IRC-IRC-IRC-IRC
 Leave Link  123 at Sat May 24 05:02:30 2025, MaxMem=  3758096384 cpu:               0.1 elap:               0.1
 (Enter /apps/easybuild-2022/easybuild/software/Compiler/NVHPC/22.11-CUDA-11.7.0/Gaussian/g16c01-CUDA-11.7.0/g16/l202.exe)
                          Input orientation:                          
 ---------------------------------------------------------------------
 Center     Atomic      Atomic             Coordinates (Angstroms)
 Number     Number       Type             X           Y           Z
 ---------------------------------------------------------------------
      1          6           0       -0.301129   -0.951560    1.088351
      2          8           0       -1.050458   -1.601926    0.367507
      3          6           0        0.246934    0.230651    0.549441
      4          6           0       -0.161746    0.942302   -0.741228
      5          9           0       -0.489348    2.193640   -0.396592
      6          9           0        0.883613    0.998864   -1.546918
      7          9           0       -1.178268    0.392758   -1.349240
      8          9           0        0.452844   -1.966699   -0.783018
      9          9           0        1.183039    0.848311    1.171720
     10          8           0        0.205451   -1.351686    2.257382
     11          1           0       -0.076662   -2.262926    2.409778
 ---------------------------------------------------------------------
                    Distance matrix (angstroms):
                    1          2          3          4          5
     1  C    0.000000
     2  O    1.226412   0.000000
     3  C    1.410113   2.252702   0.000000
     4  C    2.636949   2.914138   1.529475   0.000000
     5  F    3.483212   3.912163   2.300090   1.338635   0.000000
     6  F    3.486031   3.764275   2.321688   1.321027   2.153082
     7  F    2.918632   2.634829   2.379594   1.305753   2.150657
     8  F    2.258540   1.927870   2.578021   2.973509   4.283161
     9  F    2.334361   3.411587   1.282586   2.340225   2.658268
    10  O    1.335424   2.282882   2.328642   3.793267   4.482818
    11  H    1.875163   2.357131   3.127858   4.495505   5.282708
                    6          7          8          9         10
     6  F    0.000000
     7  F    2.158192   0.000000
     8  F    3.092518   2.923725   0.000000
     9  F    2.739218   3.484040   3.504064   0.000000
    10  O    4.523017   4.238571   3.111828   2.640895   0.000000
    11  H    5.216977   4.732484   3.249934   3.577629   0.966008
                   11
    11  H    0.000000
 Symmetry turned off by external request.
 Stoichiometry    C3HF5O2
 Rotational constants (GHZ):           1.8938666           1.1283347           0.9286505
 Leave Link  202 at Sat May 24 05:02:30 2025, MaxMem=  3758096384 cpu:               0.0 elap:               0.0
 (Enter /apps/easybuild-2022/easybuild/software/Compiler/NVHPC/22.11-CUDA-11.7.0/Gaussian/g16c01-CUDA-11.7.0/g16/l301.exe)
 Standard basis: def2TZVPP (5D, 7F)
 Ernie: Thresh=  0.10000D-02 Tol=  0.10000D-05 Strict=F.
   324 basis functions,   527 primitive gaussians,   375 cartesian basis functions
    40 alpha electrons       40 beta electrons
       nuclear repulsion energy       620.8065405838 Hartrees.
 IExCor= 4336 DFT=T Ex+Corr=M062X ExCW=0 ScaHFX=  0.540000
 ScaDFX=  1.000000  1.000000  1.000000  1.000000 ScalE2=  1.000000  1.000000
 IRadAn=      5 IRanWt=     -1 IRanGd=            0 ICorTp=0 IEmpDi=  4
 NAtoms=   11 NActive=   11 NUniq=   11 SFac= 1.00D+00 NAtFMM=   60 NAOKFM=F Big=F
 Integral buffers will be    131072 words long.
 Raffenetti 2 integral format.
 Two-electron integral symmetry is turned off.
 Leave Link  301 at Sat May 24 05:02:30 2025, MaxMem=  3758096384 cpu:               0.0 elap:               0.0
 (Enter /apps/easybuild-2022/easybuild/software/Compiler/NVHPC/22.11-CUDA-11.7.0/Gaussian/g16c01-CUDA-11.7.0/g16/l302.exe)
 NPDir=0 NMtPBC=     1 NCelOv=     1 NCel=       1 NClECP=     1 NCelD=      1
         NCelK=      1 NCelE2=     1 NClLst=     1 CellRange=     0.0.
 One-electron integrals computed using PRISM.
   1 Symmetry operations used in ECPInt.
 ECPInt:  NShTT=    6786 NPrTT=   21959 LenC2=    6406 LenP2D=   15708.
 LDataN:  DoStor=T MaxTD1= 6 Len=  172
 NBasis=   324 RedAO= T EigKep=  1.64D-04  NBF=   324
 NBsUse=   324 1.00D-06 EigRej= -1.00D+00 NBFU=   324
 Precomputing XC quadrature grid using
 IXCGrd= 4 IRadAn=           5 IRanWt=          -1 IRanGd=           0 AccXCQ= 0.00D+00.
 Generated NRdTot=       0 NPtTot=           0 NUsed=           0 NTot=          32
 NSgBfM=   373   373   373   373   373 MxSgAt=    11 MxSgA2=    11.
 Leave Link  302 at Sat May 24 05:02:30 2025, MaxMem=  3758096384 cpu:               0.6 elap:               0.1
 (Enter /apps/easybuild-2022/easybuild/software/Compiler/NVHPC/22.11-CUDA-11.7.0/Gaussian/g16c01-CUDA-11.7.0/g16/l303.exe)
 DipDrv:  MaxL=1.
 Leave Link  303 at Sat May 24 05:02:30 2025, MaxMem=  3758096384 cpu:               0.1 elap:               0.0
 (Enter /apps/easybuild-2022/easybuild/software/Compiler/NVHPC/22.11-CUDA-11.7.0/Gaussian/g16c01-CUDA-11.7.0/g16/l401.exe)
 Initial guess from the checkpoint file:  "1642764945472630600001_ketoenol_2_1_3_8_IRC_F.chk"
 B after Tr=    -0.000059   -0.000009    0.000044
         Rot=    1.000000    0.000007   -0.000003    0.000021 Ang=   0.00 deg.
 Guess basis will be translated and rotated to current coordinates.
 JPrj=2 DoOrth=T DoCkMO=T.
 Generating alternative initial guess.
 ExpMin= 9.52D-02 ExpMax= 3.55D+04 ExpMxC= 1.21D+03 IAcc=3 IRadAn=         5 AccDes= 0.00D+00
 Harris functional with IExCor= 1009 and IRadAn=       5 diagonalized for initial guess.
 HarFok:  IExCor= 1009 AccDes= 0.00D+00 IRadAn=         5 IDoV= 1 UseB2=F ITyADJ=14
 ICtDFT=  3500011 ScaDFX=  1.000000  1.000000  1.000000  1.000000
 FoFCou: FMM=F IPFlag=           0 FMFlag=      100000 FMFlg1=           0
         NFxFlg=           0 DoJE=T BraDBF=F KetDBF=T FulRan=T
         wScrn=  0.000000 ICntrl=       500 IOpCl=  0 I1Cent=   200000004 NGrid=           0
         NMat0=    1 NMatS0=      1 NMatT0=    0 NMatD0=    1 NMtDS0=    0 NMtDT0=    0
 Symmetry not used in FoFCou.
 Harris En= -764.092585580448    
 Leave Link  401 at Sat May 24 05:02:31 2025, MaxMem=  3758096384 cpu:               3.7 elap:               0.6
 (Enter /apps/easybuild-2022/easybuild/software/Compiler/NVHPC/22.11-CUDA-11.7.0/Gaussian/g16c01-CUDA-11.7.0/g16/l502.exe)
 Keep R1 ints in memory in canonical form, NReq=1412617130.
 FoFCou: FMM=F IPFlag=           0 FMFlag=           0 FMFlg1=           0
         NFxFlg=           0 DoJE=F BraDBF=F KetDBF=F FulRan=T
         wScrn=  0.000000 ICntrl=       600 IOpCl=  0 I1Cent=           0 NGrid=           0
         NMat0=    1 NMatS0=  52650 NMatT0=    0 NMatD0=    1 NMtDS0=    0 NMtDT0=    0
 Symmetry not used in FoFCou.
 Two-electron integral symmetry not used.
 Closed shell SCF:
 Using DIIS extrapolation, IDIIS=  1040.
 NGot=  3758096384 LenX=  2371771924 LenY=  2371630858
 Requested convergence on RMS density matrix=1.00D-08 within  32 cycles.
 Requested convergence on MAX density matrix=1.00D-06.
 Requested convergence on             energy=1.00D-06.
 No special actions if energy rises.
 Integral accuracy reduced to 1.0D-05 until final iterations.

 Cycle   1  Pass 0  IDiag  1:
 E= -764.454952888007    
 DIIS: error= 2.03D-04 at cycle   1 NSaved=   1.
 NSaved= 1 IEnMin= 1 EnMin= -764.454952888007     IErMin= 1 ErrMin= 2.03D-04
 ErrMax= 2.03D-04  0.00D+00 EMaxC= 1.00D-01 BMatC= 4.06D-05 BMatP= 4.06D-05
 IDIUse=3 WtCom= 9.98D-01 WtEn= 2.03D-03
 Coeff-Com:  0.100D+01
 Coeff-En:   0.100D+01
 Coeff:      0.100D+01
 Gap=     1.002 Goal=   None    Shift=    0.000
 RMSDP=3.78D-05 MaxDP=1.29D-03              OVMax= 9.33D-03

 Cycle   2  Pass 0  IDiag  1:
 E= -764.455006339305     Delta-E=       -0.000053451299 Rises=F Damp=F
 DIIS: error= 2.43D-04 at cycle   2 NSaved=   2.
 NSaved= 2 IEnMin= 2 EnMin= -764.455006339305     IErMin= 1 ErrMin= 2.03D-04
 ErrMax= 2.43D-04  0.00D+00 EMaxC= 1.00D-01 BMatC= 4.33D-05 BMatP= 4.06D-05
 IDIUse=3 WtCom= 9.98D-01 WtEn= 2.43D-03
 Coeff-Com:  0.515D+00 0.485D+00
 Coeff-En:   0.000D+00 0.100D+01
 Coeff:      0.514D+00 0.486D+00
 Gap=     0.174 Goal=   None    Shift=    0.000
 RMSDP=2.80D-05 MaxDP=1.48D-03 DE=-5.35D-05 OVMax= 4.27D-03

 Cycle   3  Pass 0  IDiag  1:
 E= -764.455028108648     Delta-E=       -0.000021769343 Rises=F Damp=F
 DIIS: error= 1.59D-04 at cycle   3 NSaved=   3.
 NSaved= 3 IEnMin= 3 EnMin= -764.455028108648     IErMin= 3 ErrMin= 1.59D-04
 ErrMax= 1.59D-04  0.00D+00 EMaxC= 1.00D-01 BMatC= 1.62D-05 BMatP= 4.06D-05
 IDIUse=3 WtCom= 9.98D-01 WtEn= 1.59D-03
 Coeff-Com: -0.381D-01 0.377D+00 0.661D+00
 Coeff-En:   0.000D+00 0.304D+00 0.696D+00
 Coeff:     -0.380D-01 0.377D+00 0.661D+00
 Gap=     0.174 Goal=   None    Shift=    0.000
 RMSDP=1.68D-05 MaxDP=8.71D-04 DE=-2.18D-05 OVMax= 5.39D-03

 Cycle   4  Pass 0  IDiag  1:
 E= -764.455048776647     Delta-E=       -0.000020667999 Rises=F Damp=F
 DIIS: error= 1.18D-04 at cycle   4 NSaved=   4.
 NSaved= 4 IEnMin= 4 EnMin= -764.455048776647     IErMin= 4 ErrMin= 1.18D-04
 ErrMax= 1.18D-04  0.00D+00 EMaxC= 1.00D-01 BMatC= 6.27D-06 BMatP= 1.62D-05
 IDIUse=3 WtCom= 9.99D-01 WtEn= 1.18D-03
 Coeff-Com: -0.617D-01 0.120D+00 0.457D+00 0.485D+00
 Coeff-En:   0.000D+00 0.000D+00 0.000D+00 0.100D+01
 Coeff:     -0.616D-01 0.119D+00 0.457D+00 0.486D+00
 Gap=     0.174 Goal=   None    Shift=    0.000
 RMSDP=7.92D-06 MaxDP=5.51D-04 DE=-2.07D-05 OVMax= 1.54D-03

 Initial convergence to 1.0D-05 achieved.  Increase integral accuracy.
 Cycle   5  Pass 1  IDiag  1:
 E= -764.455081106056     Delta-E=       -0.000032329409 Rises=F Damp=F
 DIIS: error= 3.62D-05 at cycle   1 NSaved=   1.
 NSaved= 1 IEnMin= 1 EnMin= -764.455081106056     IErMin= 1 ErrMin= 3.62D-05
 ErrMax= 3.62D-05  0.00D+00 EMaxC= 1.00D-01 BMatC= 2.65D-06 BMatP= 2.65D-06
 IDIUse=1 WtCom= 1.00D+00 WtEn= 0.00D+00
 Coeff-Com:  0.100D+01
 Coeff:      0.100D+01
 Gap=     0.174 Goal=   None    Shift=    0.000
 RMSDP=7.92D-06 MaxDP=5.51D-04 DE=-3.23D-05 OVMax= 1.28D-03

 Cycle   6  Pass 1  IDiag  1:
 E= -764.455082465486     Delta-E=       -0.000001359430 Rises=F Damp=F
 DIIS: error= 5.55D-05 at cycle   2 NSaved=   2.
 NSaved= 2 IEnMin= 2 EnMin= -764.455082465486     IErMin= 1 ErrMin= 3.62D-05
 ErrMax= 5.55D-05  0.00D+00 EMaxC= 1.00D-01 BMatC= 4.17D-06 BMatP= 2.65D-06
 IDIUse=1 WtCom= 1.00D+00 WtEn= 0.00D+00
 Coeff-Com:  0.569D+00 0.431D+00
 Coeff:      0.569D+00 0.431D+00
 Gap=     0.174 Goal=   None    Shift=    0.000
 RMSDP=7.23D-06 MaxDP=2.33D-04 DE=-1.36D-06 OVMax= 1.87D-03

 Cycle   7  Pass 1  IDiag  1:
 E= -764.455086254217     Delta-E=       -0.000003788731 Rises=F Damp=F
 DIIS: error= 4.69D-05 at cycle   3 NSaved=   3.
 NSaved= 3 IEnMin= 3 EnMin= -764.455086254217     IErMin= 1 ErrMin= 3.62D-05
 ErrMax= 4.69D-05  0.00D+00 EMaxC= 1.00D-01 BMatC= 1.30D-06 BMatP= 2.65D-06
 IDIUse=1 WtCom= 1.00D+00 WtEn= 0.00D+00
 Coeff-Com:  0.440D-01 0.342D+00 0.614D+00
 Coeff:      0.440D-01 0.342D+00 0.614D+00
 Gap=     0.174 Goal=   None    Shift=    0.000
 RMSDP=4.73D-06 MaxDP=3.15D-04 DE=-3.79D-06 OVMax= 9.01D-04

 Cycle   8  Pass 1  IDiag  1:
 E= -764.455087940103     Delta-E=       -0.000001685886 Rises=F Damp=F
 DIIS: error= 2.08D-05 at cycle   4 NSaved=   4.
 NSaved= 4 IEnMin= 4 EnMin= -764.455087940103     IErMin= 4 ErrMin= 2.08D-05
 ErrMax= 2.08D-05  0.00D+00 EMaxC= 1.00D-01 BMatC= 4.92D-07 BMatP= 1.30D-06
 IDIUse=1 WtCom= 1.00D+00 WtEn= 0.00D+00
 Coeff-Com: -0.201D+00 0.198D+00 0.455D+00 0.548D+00
 Coeff:     -0.201D+00 0.198D+00 0.455D+00 0.548D+00
 Gap=     0.174 Goal=   None    Shift=    0.000
 RMSDP=3.05D-06 MaxDP=1.12D-04 DE=-1.69D-06 OVMax= 7.39D-04

 Cycle   9  Pass 1  IDiag  1:
 E= -764.455088954408     Delta-E=       -0.000001014305 Rises=F Damp=F
 DIIS: error= 1.74D-05 at cycle   5 NSaved=   5.
 NSaved= 5 IEnMin= 5 EnMin= -764.455088954408     IErMin= 5 ErrMin= 1.74D-05
 ErrMax= 1.74D-05  0.00D+00 EMaxC= 1.00D-01 BMatC= 1.57D-07 BMatP= 4.92D-07
 IDIUse=1 WtCom= 1.00D+00 WtEn= 0.00D+00
 Coeff-Com:  0.494D-01-0.156D+00-0.948D+00-0.136D+00 0.219D+01
 Coeff:      0.494D-01-0.156D+00-0.948D+00-0.136D+00 0.219D+01
 Gap=     0.174 Goal=   None    Shift=    0.000
 RMSDP=7.28D-06 MaxDP=2.51D-04 DE=-1.01D-06 OVMax= 1.51D-03

 Cycle  10  Pass 1  IDiag  1:
 E= -764.455089971364     Delta-E=       -0.000001016956 Rises=F Damp=F
 DIIS: error= 2.55D-06 at cycle   6 NSaved=   6.
 NSaved= 6 IEnMin= 6 EnMin= -764.455089971364     IErMin= 6 ErrMin= 2.55D-06
 ErrMax= 2.55D-06  0.00D+00 EMaxC= 1.00D-01 BMatC= 7.10D-09 BMatP= 1.57D-07
 IDIUse=1 WtCom= 1.00D+00 WtEn= 0.00D+00
 Coeff-Com:  0.340D-01-0.836D-01-0.446D+00-0.105D+00 0.979D+00 0.620D+00
 Coeff:      0.340D-01-0.836D-01-0.446D+00-0.105D+00 0.979D+00 0.620D+00
 Gap=     0.174 Goal=   None    Shift=    0.000
 RMSDP=6.44D-07 MaxDP=2.39D-05 DE=-1.02D-06 OVMax= 1.27D-04

 Cycle  11  Pass 1  IDiag  1:
 E= -764.455089988511     Delta-E=       -0.000000017147 Rises=F Damp=F
 DIIS: error= 1.10D-06 at cycle   7 NSaved=   7.
 NSaved= 7 IEnMin= 7 EnMin= -764.455089988511     IErMin= 7 ErrMin= 1.10D-06
 ErrMax= 1.10D-06  0.00D+00 EMaxC= 1.00D-01 BMatC= 1.11D-09 BMatP= 7.10D-09
 IDIUse=1 WtCom= 1.00D+00 WtEn= 0.00D+00
 Coeff-Com: -0.151D-02 0.733D-02 0.105D+00-0.103D-01-0.234D+00 0.158D+00
 Coeff-Com:  0.975D+00
 Coeff:     -0.151D-02 0.733D-02 0.105D+00-0.103D-01-0.234D+00 0.158D+00
 Coeff:      0.975D+00
 Gap=     0.174 Goal=   None    Shift=    0.000
 RMSDP=3.11D-07 MaxDP=1.28D-05 DE=-1.71D-08 OVMax= 6.88D-05

 Cycle  12  Pass 1  IDiag  1:
 E= -764.455089991949     Delta-E=       -0.000000003438 Rises=F Damp=F
 DIIS: error= 4.62D-07 at cycle   8 NSaved=   8.
 NSaved= 8 IEnMin= 8 EnMin= -764.455089991949     IErMin= 8 ErrMin= 4.62D-07
 ErrMax= 4.62D-07  0.00D+00 EMaxC= 1.00D-01 BMatC= 2.11D-10 BMatP= 1.11D-09
 IDIUse=1 WtCom= 1.00D+00 WtEn= 0.00D+00
 Coeff-Com: -0.308D-02 0.774D-02 0.760D-01 0.309D-02-0.159D+00-0.900D-02
 Coeff-Com:  0.307D+00 0.777D+00
 Coeff:     -0.308D-02 0.774D-02 0.760D-01 0.309D-02-0.159D+00-0.900D-02
 Coeff:      0.307D+00 0.777D+00
 Gap=     0.174 Goal=   None    Shift=    0.000
 RMSDP=7.17D-08 MaxDP=2.48D-06 DE=-3.44D-09 OVMax= 1.89D-05

 Cycle  13  Pass 1  IDiag  1:
 E= -764.455089992305     Delta-E=       -0.000000000356 Rises=F Damp=F
 DIIS: error= 2.85D-07 at cycle   9 NSaved=   9.
 NSaved= 9 IEnMin= 9 EnMin= -764.455089992305     IErMin= 9 ErrMin= 2.85D-07
 ErrMax= 2.85D-07  0.00D+00 EMaxC= 1.00D-01 BMatC= 4.88D-11 BMatP= 2.11D-10
 IDIUse=1 WtCom= 1.00D+00 WtEn= 0.00D+00
 Coeff-Com: -0.123D-02 0.855D-03 0.820D-02 0.395D-02-0.100D-01-0.414D-01
 Coeff-Com: -0.123D+00 0.253D+00 0.909D+00
 Coeff:     -0.123D-02 0.855D-03 0.820D-02 0.395D-02-0.100D-01-0.414D-01
 Coeff:     -0.123D+00 0.253D+00 0.909D+00
 Gap=     0.174 Goal=   None    Shift=    0.000
 RMSDP=5.74D-08 MaxDP=2.03D-06 DE=-3.56D-10 OVMax= 1.44D-05

 Cycle  14  Pass 1  IDiag  1:
 E= -764.455089992553     Delta-E=       -0.000000000248 Rises=F Damp=F
 DIIS: error= 1.71D-07 at cycle  10 NSaved=  10.
 NSaved=10 IEnMin=10 EnMin= -764.455089992553     IErMin=10 ErrMin= 1.71D-07
 ErrMax= 1.71D-07  0.00D+00 EMaxC= 1.00D-01 BMatC= 9.39D-12 BMatP= 4.88D-11
 IDIUse=1 WtCom= 1.00D+00 WtEn= 0.00D+00
 Coeff-Com:  0.811D-03-0.253D-02-0.211D-01-0.699D-03 0.466D-01-0.698D-02
 Coeff-Com: -0.119D+00-0.148D+00 0.218D+00 0.103D+01
 Coeff:      0.811D-03-0.253D-02-0.211D-01-0.699D-03 0.466D-01-0.698D-02
 Coeff:     -0.119D+00-0.148D+00 0.218D+00 0.103D+01
 Gap=     0.174 Goal=   None    Shift=    0.000
 RMSDP=4.15D-08 MaxDP=1.60D-06 DE=-2.48D-10 OVMax= 1.09D-05

 Cycle  15  Pass 1  IDiag  1:
 E= -764.455089992641     Delta-E=       -0.000000000088 Rises=F Damp=F
 DIIS: error= 8.35D-08 at cycle  11 NSaved=  11.
 NSaved=11 IEnMin=11 EnMin= -764.455089992641     IErMin=11 ErrMin= 8.35D-08
 ErrMax= 8.35D-08  0.00D+00 EMaxC= 1.00D-01 BMatC= 3.06D-12 BMatP= 9.39D-12
 IDIUse=1 WtCom= 1.00D+00 WtEn= 0.00D+00
 Coeff-Com:  0.543D-03-0.728D-03-0.779D-02-0.122D-02 0.142D-01 0.920D-02
 Coeff-Com:  0.104D-01-0.109D+00-0.235D+00 0.280D+00 0.104D+01
 Coeff:      0.543D-03-0.728D-03-0.779D-02-0.122D-02 0.142D-01 0.920D-02
 Coeff:      0.104D-01-0.109D+00-0.235D+00 0.280D+00 0.104D+01
 Gap=     0.174 Goal=   None    Shift=    0.000
 RMSDP=2.64D-08 MaxDP=1.41D-06 DE=-8.80D-11 OVMax= 6.68D-06

 Cycle  16  Pass 1  IDiag  1:
 E= -764.455089992666     Delta-E=       -0.000000000025 Rises=F Damp=F
 DIIS: error= 3.40D-08 at cycle  12 NSaved=  12.
 NSaved=12 IEnMin=12 EnMin= -764.455089992666     IErMin=12 ErrMin= 3.40D-08
 ErrMax= 3.40D-08  0.00D+00 EMaxC= 1.00D-01 BMatC= 1.03D-12 BMatP= 3.06D-12
 IDIUse=1 WtCom= 1.00D+00 WtEn= 0.00D+00
 Coeff-Com: -0.800D-04 0.717D-03 0.373D-02 0.361D-03-0.990D-02 0.379D-02
 Coeff-Com:  0.362D-01 0.204D-01-0.110D+00-0.272D+00 0.220D+00 0.111D+01
 Coeff:     -0.800D-04 0.717D-03 0.373D-02 0.361D-03-0.990D-02 0.379D-02
 Coeff:      0.362D-01 0.204D-01-0.110D+00-0.272D+00 0.220D+00 0.111D+01
 Gap=     0.174 Goal=   None    Shift=    0.000
 RMSDP=1.54D-08 MaxDP=9.51D-07 DE=-2.46D-11 OVMax= 3.42D-06

 Cycle  17  Pass 1  IDiag  1:
 E= -764.455089992640     Delta-E=        0.000000000026 Rises=F Damp=F
 DIIS: error= 1.45D-08 at cycle  13 NSaved=  13.
 NSaved=13 IEnMin=12 EnMin= -764.455089992666     IErMin=13 ErrMin= 1.45D-08
 ErrMax= 1.45D-08  0.00D+00 EMaxC= 1.00D-01 BMatC= 2.06D-13 BMatP= 1.03D-12
 IDIUse=1 WtCom= 1.00D+00 WtEn= 0.00D+00
 Coeff-Com: -0.116D-03 0.419D-03 0.245D-02 0.464D-03-0.601D-02 0.560D-03
 Coeff-Com:  0.122D-01 0.223D-01-0.217D-02-0.143D+00-0.701D-01 0.399D+00
 Coeff-Com:  0.784D+00
 Coeff:     -0.116D-03 0.419D-03 0.245D-02 0.464D-03-0.601D-02 0.560D-03
 Coeff:      0.122D-01 0.223D-01-0.217D-02-0.143D+00-0.701D-01 0.399D+00
 Coeff:      0.784D+00
 Gap=     0.174 Goal=   None    Shift=    0.000
 RMSDP=3.54D-09 MaxDP=2.34D-07 DE= 2.57D-11 OVMax= 6.88D-07

 SCF Done:  E(RM062X) =  -764.455089993     A.U. after   17 cycles
            NFock= 17  Conv=0.35D-08     -V/T= 2.0036
 KE= 7.617010866255D+02 PE=-3.053820630873D+03 EE= 9.068579136713D+02
 Leave Link  502 at Sat May 24 05:03:03 2025, MaxMem=  3758096384 cpu:             145.7 elap:              32.1
 (Enter /apps/easybuild-2022/easybuild/software/Compiler/NVHPC/22.11-CUDA-11.7.0/Gaussian/g16c01-CUDA-11.7.0/g16/l508.exe)
 QCSCF skips out because SCF is already converged.
 Leave Link  508 at Sat May 24 05:03:03 2025, MaxMem=  3758096384 cpu:               0.1 elap:               0.0
 (Enter /apps/easybuild-2022/easybuild/software/Compiler/NVHPC/22.11-CUDA-11.7.0/Gaussian/g16c01-CUDA-11.7.0/g16/l801.exe)
 DoSCS=F DFT=T ScalE2(SS,OS)=  1.000000  1.000000
 Range of M.O.s used for correlation:     1   324
 NBasis=   324 NAE=    40 NBE=    40 NFC=     0 NFV=     0
 NROrb=    324 NOA=    40 NOB=    40 NVA=   284 NVB=   284

 **** Warning!!: The largest alpha MO coefficient is  0.22976052D+02

 Leave Link  801 at Sat May 24 05:03:03 2025, MaxMem=  3758096384 cpu:               0.0 elap:               0.0
 (Enter /apps/easybuild-2022/easybuild/software/Compiler/NVHPC/22.11-CUDA-11.7.0/Gaussian/g16c01-CUDA-11.7.0/g16/l1101.exe)
 Leave Link 1101 at Sat May 24 05:03:03 2025, MaxMem=  3758096384 cpu:               0.0 elap:               0.0
 (Enter /apps/easybuild-2022/easybuild/software/Compiler/NVHPC/22.11-CUDA-11.7.0/Gaussian/g16c01-CUDA-11.7.0/g16/l1102.exe)
 Symmetrizing basis deriv contribution to polar:
 IMax=3 JMax=2 DiffMx= 0.00D+00
 Leave Link 1102 at Sat May 24 05:03:03 2025, MaxMem=  3758096384 cpu:               0.1 elap:               0.0
 (Enter /apps/easybuild-2022/easybuild/software/Compiler/NVHPC/22.11-CUDA-11.7.0/Gaussian/g16c01-CUDA-11.7.0/g16/l1110.exe)
 Leave Link 1110 at Sat May 24 05:03:03 2025, MaxMem=  3758096384 cpu:               0.0 elap:               0.0
 (Enter /apps/easybuild-2022/easybuild/software/Compiler/NVHPC/22.11-CUDA-11.7.0/Gaussian/g16c01-CUDA-11.7.0/g16/l1002.exe)
 Minotr:  Closed shell wavefunction.
 Leave Link 1002 at Sat May 24 05:03:03 2025, MaxMem=  3758096384 cpu:               0.0 elap:               0.0
 (Enter /apps/easybuild-2022/easybuild/software/Compiler/NVHPC/22.11-CUDA-11.7.0/Gaussian/g16c01-CUDA-11.7.0/g16/l701.exe)
 ... and contract with generalized density number  0.
 Compute integral first derivatives.
   1 Symmetry operations used in ECPInt.
 ECPInt:  NShTT=    6786 NPrTT=   21959 LenC2=    6406 LenP2D=   15708.
 LDataN:  DoStor=T MaxTD1= 7 Len=  274
 Leave Link  701 at Sat May 24 05:03:03 2025, MaxMem=  3758096384 cpu:               0.5 elap:               0.1
 (Enter /apps/easybuild-2022/easybuild/software/Compiler/NVHPC/22.11-CUDA-11.7.0/Gaussian/g16c01-CUDA-11.7.0/g16/l702.exe)
 L702 exits ... SP integral derivatives will be done elsewhere.
 Leave Link  702 at Sat May 24 05:03:03 2025, MaxMem=  3758096384 cpu:               0.0 elap:               0.0
 (Enter /apps/easybuild-2022/easybuild/software/Compiler/NVHPC/22.11-CUDA-11.7.0/Gaussian/g16c01-CUDA-11.7.0/g16/l703.exe)
 Integral derivatives from FoFJK, PRISM(SPDF).
 Compute integral first derivatives, UseDBF=F ICtDFT=           0.
 Calling FoFJK, ICntrl=      2127 FMM=F ISym2X=0 I1Cent= 0 IOpClX= 0 NMat=1 NMatS=1 NMatT=0.
 FoFJK:  IHMeth= 1 ICntrl=    2127 DoSepK=F KAlg= 0 I1Cent=           0 FoldK=F
 IRaf=         0 NMat=       1 IRICut=       1 DoRegI=T DoRafI=F ISym2E= 0 IDoP0=0 IntGTp=1.
 FoFCou: FMM=F IPFlag=           0 FMFlag=      100000 FMFlg1=         800
         NFxFlg=           0 DoJE=F BraDBF=F KetDBF=F FulRan=T
         wScrn=  0.000000 ICntrl=      2127 IOpCl=  0 I1Cent=           0 NGrid=           0
         NMat0=    1 NMatS0=      1 NMatT0=    0 NMatD0=    1 NMtDS0=    0 NMtDT0=    0
 Symmetry not used in FoFCou.
 Leave Link  703 at Sat May 24 05:03:13 2025, MaxMem=  3758096384 cpu:              78.4 elap:               9.9
 (Enter /apps/easybuild-2022/easybuild/software/Compiler/NVHPC/22.11-CUDA-11.7.0/Gaussian/g16c01-CUDA-11.7.0/g16/l716.exe)
 Dipole        =-2.40114916D-01 7.26250760D-01 1.47302850D+00
 Polarizability= 0.00000000D+00 0.00000000D+00 0.00000000D+00
                 0.00000000D+00 0.00000000D+00 0.00000000D+00
 -------------------------------------------------------------------
 Center     Atomic                   Forces (Hartrees/Bohr)
 Number     Number              X              Y              Z
 -------------------------------------------------------------------
      1        6          -0.000748567   -0.001344611   -0.000144505
      2        8          -0.003705087    0.000935810    0.002873598
      3        6           0.000815509   -0.000695047   -0.000820775
      4        6           0.000022618   -0.000051948   -0.000437104
      5        9           0.000066207   -0.000275731    0.000247774
      6        9           0.000069060    0.000155496   -0.000231095
      7        9           0.000004619   -0.000010573   -0.000052290
      8        9           0.003524093    0.001900969   -0.000816757
      9        9          -0.000273060   -0.000743936   -0.000517380
     10        8           0.000236858    0.000089888   -0.000183545
     11        1          -0.000012250    0.000039683    0.000082080
 -------------------------------------------------------------------
 Cartesian Forces:  Max     0.003705087 RMS     0.001170280
 Leave Link  716 at Sat May 24 05:03:13 2025, MaxMem=  3758096384 cpu:               0.0 elap:               0.0
 (Enter /apps/easybuild-2022/easybuild/software/Compiler/NVHPC/22.11-CUDA-11.7.0/Gaussian/g16c01-CUDA-11.7.0/g16/l123.exe)
 IRC-IRC-IRC-IRC-IRC-IRC-IRC-IRC-IRC-IRC-IRC-IRC-IRC-IRC-IRC-IRC-IRC-IRC
 Pt  2 Step number   1 out of a maximum of  20
 Using modified Bulirsch-Stoer corrector integration.
   Using distance weighted interpolants to fit PES.
 PreDWI: IReCr0= 2 IReCr1= 1 IReCr2= 1 IReCr3= 1
 Modified Bulirsch-Stoer Extrapolation Cycles:
    EPS =    0.000010000000000
    Cycle     1 NS=    48
      PEZero:  N= 2 I= 1 D=  4.11D-04 Err=  4.69D-06
    Cycle     2 NS=    64 Truncation Error =  0.000004693
 BS completed in    2 cycles and     112 integration steps.
 Maximum DWI energy   std dev =  0.000000080 at pt    35
 Maximum DWI gradient std dev =  0.008316702 at pt    36
 SUMMARY OF CORRECTOR INTEGRATION:
   Predictor End Point Energy =  -764.455090
   Old End Point Energy       =  -764.455090
   Corrected End Point Energy =  -764.455090
   Predictor End-Start Dist.  =     0.078968
   Old End-Start Dist.        =     0.078968
   New End-Start Dist.        =     0.078967
   New End-Old End Dist.      =     0.000598
 CORRECTOR INTEGRATION CONVERGENCE:
   Recorrection delta-x convergence threshold:    0.010000
   Delta-x Convergence Met
 Point Number:   2          Path Number:   1
                    CURRENT STRUCTURE
                Cartesian Coordinates (Ang):                
 ---------------------------------------------------------------------
 Center     Atomic                     Coordinates (Angstroms)
 Number     Number                        X           Y           Z
 ---------------------------------------------------------------------
      1          6                   -0.301132   -0.951586    1.088336
      2          8                   -1.050453   -1.601941    0.367497
      3          6                    0.246962    0.230624    0.549410
      4          6                   -0.161746    0.942305   -0.741224
      5          9                   -0.489345    2.193642   -0.396591
      6          9                    0.883616    0.998865   -1.546916
      7          9                   -1.178267    0.392761   -1.349241
      8          9                    0.452823   -1.966664   -0.782987
      9          9                    1.183037    0.848314    1.171724
     10          8                    0.205446   -1.351685    2.257379
     11          1                   -0.076627   -2.262918    2.409810
 ---------------------------------------------------------------------
   CHANGE IN THE REACTION COORDINATE =    0.07897
   NET REACTION COORDINATE UP TO THIS POINT =    0.15796
  # OF POINTS ALONG THE PATH =   2
  # OF STEPS =   1

 Calculating another point on the path.
 Point Number  3 in FORWARD path direction.
 Using LQA Reaction Path Following.
   LQA: T_Est iteration completed in    3 iterations.
 IRC-IRC-IRC-IRC-IRC-IRC-IRC-IRC-IRC-IRC-IRC-IRC-IRC-IRC-IRC-IRC-IRC-IRC
 Leave Link  123 at Sat May 24 05:03:13 2025, MaxMem=  3758096384 cpu:               0.1 elap:               0.0
 (Enter /apps/easybuild-2022/easybuild/software/Compiler/NVHPC/22.11-CUDA-11.7.0/Gaussian/g16c01-CUDA-11.7.0/g16/l202.exe)
                          Input orientation:                          
 ---------------------------------------------------------------------
 Center     Atomic      Atomic             Coordinates (Angstroms)
 Number     Number       Type             X           Y           Z
 ---------------------------------------------------------------------
      1          6           0       -0.302669   -0.954360    1.088046
      2          8           0       -1.056317   -1.600485    0.372020
      3          6           0        0.248661    0.229156    0.547723
      4          6           0       -0.161691    0.942187   -0.742159
      5          9           0       -0.489258    2.193270   -0.396260
      6          9           0        0.883706    0.999075   -1.547229
      7          9           0       -1.178262    0.392745   -1.349309
      8          9           0        0.457508   -1.964136   -0.784074
      9          9           0        1.182668    0.847319    1.171025
     10          8           0        0.205829   -1.351524    2.257089
     11          1           0       -0.077059   -2.262206    2.411870
 ---------------------------------------------------------------------
                    Distance matrix (angstroms):
                    1          2          3          4          5
     1  C    0.000000
     2  O    1.223992   0.000000
     3  C    1.413020   2.254203   0.000000
     4  C    2.639398   2.916665   1.529902   0.000000
     5  F    3.485048   3.912083   2.300733   1.338715   0.000000
     6  F    3.488276   3.768942   2.320535   1.320692   2.153106
     7  F    2.919256   2.636439   2.379412   1.305348   2.150562
     8  F    2.258838   1.939191   2.574458   2.971848   4.281448
     9  F    2.336485   3.412215   1.281795   2.340209   2.657688
    10  O    1.335279   2.282209   2.328586   3.793635   4.482072
    11  H    1.874532   2.357501   3.128582   4.497021   5.282686
                    6          7          8          9         10
     6  F    0.000000
     7  F    2.158360   0.000000
     8  F    3.089445   2.924060   0.000000
     9  F    2.738853   3.483204   3.500364   0.000000
    10  O    4.523015   4.238429   3.112444   2.639822   0.000000
    11  H    5.218572   4.733696   3.254023   3.577115   0.966087
                   11
    11  H    0.000000
 Symmetry turned off by external request.
 Stoichiometry    C3HF5O2
 Rotational constants (GHZ):           1.8934871           1.1274390           0.9291619
 Leave Link  202 at Sat May 24 05:03:13 2025, MaxMem=  3758096384 cpu:               0.0 elap:               0.0
 (Enter /apps/easybuild-2022/easybuild/software/Compiler/NVHPC/22.11-CUDA-11.7.0/Gaussian/g16c01-CUDA-11.7.0/g16/l301.exe)
 Standard basis: def2TZVPP (5D, 7F)
 Ernie: Thresh=  0.10000D-02 Tol=  0.10000D-05 Strict=F.
   324 basis functions,   527 primitive gaussians,   375 cartesian basis functions
    40 alpha electrons       40 beta electrons
       nuclear repulsion energy       620.7256864059 Hartrees.
 IExCor= 4336 DFT=T Ex+Corr=M062X ExCW=0 ScaHFX=  0.540000
 ScaDFX=  1.000000  1.000000  1.000000  1.000000 ScalE2=  1.000000  1.000000
 IRadAn=      5 IRanWt=     -1 IRanGd=            0 ICorTp=0 IEmpDi=  4
 NAtoms=   11 NActive=   11 NUniq=   11 SFac= 1.00D+00 NAtFMM=   60 NAOKFM=F Big=F
 Integral buffers will be    131072 words long.
 Raffenetti 2 integral format.
 Two-electron integral symmetry is turned off.
 Leave Link  301 at Sat May 24 05:03:13 2025, MaxMem=  3758096384 cpu:               0.0 elap:               0.0
 (Enter /apps/easybuild-2022/easybuild/software/Compiler/NVHPC/22.11-CUDA-11.7.0/Gaussian/g16c01-CUDA-11.7.0/g16/l302.exe)
 NPDir=0 NMtPBC=     1 NCelOv=     1 NCel=       1 NClECP=     1 NCelD=      1
         NCelK=      1 NCelE2=     1 NClLst=     1 CellRange=     0.0.
 One-electron integrals computed using PRISM.
   1 Symmetry operations used in ECPInt.
 ECPInt:  NShTT=    6786 NPrTT=   21959 LenC2=    6407 LenP2D=   15710.
 LDataN:  DoStor=T MaxTD1= 6 Len=  172
 NBasis=   324 RedAO= T EigKep=  1.68D-04  NBF=   324
 NBsUse=   324 1.00D-06 EigRej= -1.00D+00 NBFU=   324
 Precomputing XC quadrature grid using
 IXCGrd= 4 IRadAn=           5 IRanWt=          -1 IRanGd=           0 AccXCQ= 0.00D+00.
 Generated NRdTot=       0 NPtTot=           0 NUsed=           0 NTot=          32
 NSgBfM=   373   373   373   373   373 MxSgAt=    11 MxSgA2=    11.
 Leave Link  302 at Sat May 24 05:03:13 2025, MaxMem=  3758096384 cpu:               0.6 elap:               0.1
 (Enter /apps/easybuild-2022/easybuild/software/Compiler/NVHPC/22.11-CUDA-11.7.0/Gaussian/g16c01-CUDA-11.7.0/g16/l303.exe)
 DipDrv:  MaxL=1.
 Leave Link  303 at Sat May 24 05:03:13 2025, MaxMem=  3758096384 cpu:               0.1 elap:               0.0
 (Enter /apps/easybuild-2022/easybuild/software/Compiler/NVHPC/22.11-CUDA-11.7.0/Gaussian/g16c01-CUDA-11.7.0/g16/l401.exe)
 Initial guess from the checkpoint file:  "1642764945472630600001_ketoenol_2_1_3_8_IRC_F.chk"
 B after Tr=    -0.000057   -0.000010    0.000045
         Rot=    1.000000    0.000009   -0.000005    0.000018 Ang=   0.00 deg.
 Guess basis will be translated and rotated to current coordinates.
 JPrj=2 DoOrth=T DoCkMO=T.
 Generating alternative initial guess.
 ExpMin= 9.52D-02 ExpMax= 3.55D+04 ExpMxC= 1.21D+03 IAcc=3 IRadAn=         5 AccDes= 0.00D+00
 Harris functional with IExCor= 1009 and IRadAn=       5 diagonalized for initial guess.
 HarFok:  IExCor= 1009 AccDes= 0.00D+00 IRadAn=         5 IDoV= 1 UseB2=F ITyADJ=14
 ICtDFT=  3500011 ScaDFX=  1.000000  1.000000  1.000000  1.000000
 FoFCou: FMM=F IPFlag=           0 FMFlag=      100000 FMFlg1=           0
         NFxFlg=           0 DoJE=T BraDBF=F KetDBF=T FulRan=T
         wScrn=  0.000000 ICntrl=       500 IOpCl=  0 I1Cent=   200000004 NGrid=           0
         NMat0=    1 NMatS0=      1 NMatT0=    0 NMatD0=    1 NMtDS0=    0 NMtDT0=    0
 Symmetry not used in FoFCou.
 Harris En= -764.094816971585    
 Leave Link  401 at Sat May 24 05:03:14 2025, MaxMem=  3758096384 cpu:               3.8 elap:               0.6
 (Enter /apps/easybuild-2022/easybuild/software/Compiler/NVHPC/22.11-CUDA-11.7.0/Gaussian/g16c01-CUDA-11.7.0/g16/l502.exe)
 Keep R1 ints in memory in canonical form, NReq=1412617130.
 FoFCou: FMM=F IPFlag=           0 FMFlag=           0 FMFlg1=           0
         NFxFlg=           0 DoJE=F BraDBF=F KetDBF=F FulRan=T
         wScrn=  0.000000 ICntrl=       600 IOpCl=  0 I1Cent=           0 NGrid=           0
         NMat0=    1 NMatS0=  52650 NMatT0=    0 NMatD0=    1 NMtDS0=    0 NMtDT0=    0
 Symmetry not used in FoFCou.
 Two-electron integral symmetry not used.
 Closed shell SCF:
 Using DIIS extrapolation, IDIIS=  1040.
 NGot=  3758096384 LenX=  2371771924 LenY=  2371630858
 Requested convergence on RMS density matrix=1.00D-08 within  32 cycles.
 Requested convergence on MAX density matrix=1.00D-06.
 Requested convergence on             energy=1.00D-06.
 No special actions if energy rises.
 Integral accuracy reduced to 1.0D-05 until final iterations.

 Cycle   1  Pass 0  IDiag  1:
 E= -764.455117216354    
 DIIS: error= 2.07D-04 at cycle   1 NSaved=   1.
 NSaved= 1 IEnMin= 1 EnMin= -764.455117216354     IErMin= 1 ErrMin= 2.07D-04
 ErrMax= 2.07D-04  0.00D+00 EMaxC= 1.00D-01 BMatC= 4.07D-05 BMatP= 4.07D-05
 IDIUse=3 WtCom= 9.98D-01 WtEn= 2.07D-03
 Coeff-Com:  0.100D+01
 Coeff-En:   0.100D+01
 Coeff:      0.100D+01
 Gap=     1.002 Goal=   None    Shift=    0.000
 RMSDP=3.79D-05 MaxDP=1.32D-03              OVMax= 9.28D-03

 Cycle   2  Pass 0  IDiag  1:
 E= -764.455170628625     Delta-E=       -0.000053412271 Rises=F Damp=F
 DIIS: error= 2.43D-04 at cycle   2 NSaved=   2.
 NSaved= 2 IEnMin= 2 EnMin= -764.455170628625     IErMin= 1 ErrMin= 2.07D-04
 ErrMax= 2.43D-04  0.00D+00 EMaxC= 1.00D-01 BMatC= 4.31D-05 BMatP= 4.07D-05
 IDIUse=3 WtCom= 9.98D-01 WtEn= 2.43D-03
 Coeff-Com:  0.513D+00 0.487D+00
 Coeff-En:   0.000D+00 0.100D+01
 Coeff:      0.512D+00 0.488D+00
 Gap=     0.173 Goal=   None    Shift=    0.000
 RMSDP=2.80D-05 MaxDP=1.52D-03 DE=-5.34D-05 OVMax= 4.23D-03

 Cycle   3  Pass 0  IDiag  1:
 E= -764.455192076022     Delta-E=       -0.000021447397 Rises=F Damp=F
 DIIS: error= 1.62D-04 at cycle   3 NSaved=   3.
 NSaved= 3 IEnMin= 3 EnMin= -764.455192076022     IErMin= 3 ErrMin= 1.62D-04
 ErrMax= 1.62D-04  0.00D+00 EMaxC= 1.00D-01 BMatC= 1.66D-05 BMatP= 4.07D-05
 IDIUse=3 WtCom= 9.98D-01 WtEn= 1.62D-03
 Coeff-Com: -0.380D-01 0.381D+00 0.657D+00
 Coeff-En:   0.000D+00 0.309D+00 0.691D+00
 Coeff:     -0.380D-01 0.381D+00 0.657D+00
 Gap=     0.174 Goal=   None    Shift=    0.000
 RMSDP=1.70D-05 MaxDP=8.97D-04 DE=-2.14D-05 OVMax= 5.44D-03

 Cycle   4  Pass 0  IDiag  1:
 E= -764.455213336833     Delta-E=       -0.000021260811 Rises=F Damp=F
 DIIS: error= 1.19D-04 at cycle   4 NSaved=   4.
 NSaved= 4 IEnMin= 4 EnMin= -764.455213336833     IErMin= 4 ErrMin= 1.19D-04
 ErrMax= 1.19D-04  0.00D+00 EMaxC= 1.00D-01 BMatC= 6.23D-06 BMatP= 1.66D-05
 IDIUse=3 WtCom= 9.99D-01 WtEn= 1.19D-03
 Coeff-Com: -0.613D-01 0.122D+00 0.453D+00 0.487D+00
 Coeff-En:   0.000D+00 0.000D+00 0.000D+00 0.100D+01
 Coeff:     -0.612D-01 0.122D+00 0.453D+00 0.487D+00
 Gap=     0.173 Goal=   None    Shift=    0.000
 RMSDP=7.96D-06 MaxDP=5.52D-04 DE=-2.13D-05 OVMax= 1.53D-03

 Initial convergence to 1.0D-05 achieved.  Increase integral accuracy.
 Cycle   5  Pass 1  IDiag  1:
 E= -764.455245002534     Delta-E=       -0.000031665701 Rises=F Damp=F
 DIIS: error= 4.22D-05 at cycle   1 NSaved=   1.
 NSaved= 1 IEnMin= 1 EnMin= -764.455245002534     IErMin= 1 ErrMin= 4.22D-05
 ErrMax= 4.22D-05  0.00D+00 EMaxC= 1.00D-01 BMatC= 2.68D-06 BMatP= 2.68D-06
 IDIUse=1 WtCom= 1.00D+00 WtEn= 0.00D+00
 Coeff-Com:  0.100D+01
 Coeff:      0.100D+01
 Gap=     0.173 Goal=   None    Shift=    0.000
 RMSDP=7.96D-06 MaxDP=5.52D-04 DE=-3.17D-05 OVMax= 1.26D-03

 Cycle   6  Pass 1  IDiag  1:
 E= -764.455246560011     Delta-E=       -0.000001557476 Rises=F Damp=F
 DIIS: error= 5.56D-05 at cycle   2 NSaved=   2.
 NSaved= 2 IEnMin= 2 EnMin= -764.455246560011     IErMin= 1 ErrMin= 4.22D-05
 ErrMax= 5.56D-05  0.00D+00 EMaxC= 1.00D-01 BMatC= 4.20D-06 BMatP= 2.68D-06
 IDIUse=1 WtCom= 1.00D+00 WtEn= 0.00D+00
 Coeff-Com:  0.568D+00 0.432D+00
 Coeff:      0.568D+00 0.432D+00
 Gap=     0.174 Goal=   None    Shift=    0.000
 RMSDP=7.28D-06 MaxDP=2.34D-04 DE=-1.56D-06 OVMax= 1.89D-03

 Cycle   7  Pass 1  IDiag  1:
 E= -764.455250415132     Delta-E=       -0.000003855122 Rises=F Damp=F
 DIIS: error= 4.76D-05 at cycle   3 NSaved=   3.
 NSaved= 3 IEnMin= 3 EnMin= -764.455250415132     IErMin= 1 ErrMin= 4.22D-05
 ErrMax= 4.76D-05  0.00D+00 EMaxC= 1.00D-01 BMatC= 1.34D-06 BMatP= 2.68D-06
 IDIUse=1 WtCom= 1.00D+00 WtEn= 0.00D+00
 Coeff-Com:  0.434D-01 0.345D+00 0.612D+00
 Coeff:      0.434D-01 0.345D+00 0.612D+00
 Gap=     0.173 Goal=   None    Shift=    0.000
 RMSDP=4.82D-06 MaxDP=3.21D-04 DE=-3.86D-06 OVMax= 8.92D-04

 Cycle   8  Pass 1  IDiag  1:
 E= -764.455252212158     Delta-E=       -0.000001797026 Rises=F Damp=F
 DIIS: error= 2.10D-05 at cycle   4 NSaved=   4.
 NSaved= 4 IEnMin= 4 EnMin= -764.455252212158     IErMin= 4 ErrMin= 2.10D-05
 ErrMax= 2.10D-05  0.00D+00 EMaxC= 1.00D-01 BMatC= 5.12D-07 BMatP= 1.34D-06
 IDIUse=1 WtCom= 1.00D+00 WtEn= 0.00D+00
 Coeff-Com: -0.207D+00 0.200D+00 0.454D+00 0.552D+00
 Coeff:     -0.207D+00 0.200D+00 0.454D+00 0.552D+00
 Gap=     0.174 Goal=   None    Shift=    0.000
 RMSDP=3.22D-06 MaxDP=1.22D-04 DE=-1.80D-06 OVMax= 7.87D-04

 Cycle   9  Pass 1  IDiag  1:
 E= -764.455253320183     Delta-E=       -0.000001108026 Rises=F Damp=F
 DIIS: error= 1.78D-05 at cycle   5 NSaved=   5.
 NSaved= 5 IEnMin= 5 EnMin= -764.455253320183     IErMin= 5 ErrMin= 1.78D-05
 ErrMax= 1.78D-05  0.00D+00 EMaxC= 1.00D-01 BMatC= 1.68D-07 BMatP= 5.12D-07
 IDIUse=1 WtCom= 1.00D+00 WtEn= 0.00D+00
 Coeff-Com:  0.508D-01-0.161D+00-0.977D+00-0.141D+00 0.223D+01
 Coeff:      0.508D-01-0.161D+00-0.977D+00-0.141D+00 0.223D+01
 Gap=     0.174 Goal=   None    Shift=    0.000
 RMSDP=7.83D-06 MaxDP=2.60D-04 DE=-1.11D-06 OVMax= 1.52D-03

 Cycle  10  Pass 1  IDiag  1:
 E= -764.455254469883     Delta-E=       -0.000001149699 Rises=F Damp=F
 DIIS: error= 2.65D-06 at cycle   6 NSaved=   6.
 NSaved= 6 IEnMin= 6 EnMin= -764.455254469883     IErMin= 6 ErrMin= 2.65D-06
 ErrMax= 2.65D-06  0.00D+00 EMaxC= 1.00D-01 BMatC= 7.74D-09 BMatP= 1.68D-07
 IDIUse=1 WtCom= 1.00D+00 WtEn= 0.00D+00
 Coeff-Com:  0.353D-01-0.864D-01-0.461D+00-0.109D+00 0.100D+01 0.617D+00
 Coeff:      0.353D-01-0.864D-01-0.461D+00-0.109D+00 0.100D+01 0.617D+00
 Gap=     0.174 Goal=   None    Shift=    0.000
 RMSDP=6.89D-07 MaxDP=2.43D-05 DE=-1.15D-06 OVMax= 1.29D-04

 Cycle  11  Pass 1  IDiag  1:
 E= -764.455254488824     Delta-E=       -0.000000018942 Rises=F Damp=F
 DIIS: error= 1.10D-06 at cycle   7 NSaved=   7.
 NSaved= 7 IEnMin= 7 EnMin= -764.455254488824     IErMin= 7 ErrMin= 1.10D-06
 ErrMax= 1.10D-06  0.00D+00 EMaxC= 1.00D-01 BMatC= 1.15D-09 BMatP= 7.74D-09
 IDIUse=1 WtCom= 1.00D+00 WtEn= 0.00D+00
 Coeff-Com: -0.140D-02 0.727D-02 0.104D+00-0.101D-01-0.230D+00 0.157D+00
 Coeff-Com:  0.973D+00
 Coeff:     -0.140D-02 0.727D-02 0.104D+00-0.101D-01-0.230D+00 0.157D+00
 Coeff:      0.973D+00
 Gap=     0.174 Goal=   None    Shift=    0.000
 RMSDP=3.30D-07 MaxDP=1.29D-05 DE=-1.89D-08 OVMax= 7.61D-05

 Cycle  12  Pass 1  IDiag  1:
 E= -764.455254492533     Delta-E=       -0.000000003709 Rises=F Damp=F
 DIIS: error= 5.02D-07 at cycle   8 NSaved=   8.
 NSaved= 8 IEnMin= 8 EnMin= -764.455254492533     IErMin= 8 ErrMin= 5.02D-07
 ErrMax= 5.02D-07  0.00D+00 EMaxC= 1.00D-01 BMatC= 2.09D-10 BMatP= 1.15D-09
 IDIUse=1 WtCom= 1.00D+00 WtEn= 0.00D+00
 Coeff-Com: -0.312D-02 0.801D-02 0.771D-01 0.416D-02-0.162D+00-0.843D-02
 Coeff-Com:  0.313D+00 0.771D+00
 Coeff:     -0.312D-02 0.801D-02 0.771D-01 0.416D-02-0.162D+00-0.843D-02
 Coeff:      0.313D+00 0.771D+00
 Gap=     0.174 Goal=   None    Shift=    0.000
 RMSDP=7.41D-08 MaxDP=2.69D-06 DE=-3.71D-09 OVMax= 1.99D-05

 Cycle  13  Pass 1  IDiag  1:
 E= -764.455254493025     Delta-E=       -0.000000000492 Rises=F Damp=F
 DIIS: error= 3.10D-07 at cycle   9 NSaved=   9.
 NSaved= 9 IEnMin= 9 EnMin= -764.455254493025     IErMin= 9 ErrMin= 3.10D-07
 ErrMax= 3.10D-07  0.00D+00 EMaxC= 1.00D-01 BMatC= 5.04D-11 BMatP= 2.09D-10
 IDIUse=1 WtCom= 1.00D+00 WtEn= 0.00D+00
 Coeff-Com: -0.128D-02 0.981D-03 0.875D-02 0.462D-02-0.122D-01-0.406D-01
 Coeff-Com: -0.119D+00 0.249D+00 0.910D+00
 Coeff:     -0.128D-02 0.981D-03 0.875D-02 0.462D-02-0.122D-01-0.406D-01
 Coeff:     -0.119D+00 0.249D+00 0.910D+00
 Gap=     0.174 Goal=   None    Shift=    0.000
 RMSDP=5.90D-08 MaxDP=2.13D-06 DE=-4.92D-10 OVMax= 1.45D-05

 Cycle  14  Pass 1  IDiag  1:
 E= -764.455254493210     Delta-E=       -0.000000000185 Rises=F Damp=F
 DIIS: error= 1.90D-07 at cycle  10 NSaved=  10.
 NSaved=10 IEnMin=10 EnMin= -764.455254493210     IErMin=10 ErrMin= 1.90D-07
 ErrMax= 1.90D-07  0.00D+00 EMaxC= 1.00D-01 BMatC= 1.03D-11 BMatP= 5.04D-11
 IDIUse=1 WtCom= 1.00D+00 WtEn= 0.00D+00
 Coeff-Com:  0.844D-03-0.263D-02-0.217D-01-0.934D-03 0.477D-01-0.674D-02
 Coeff-Com: -0.121D+00-0.153D+00 0.212D+00 0.105D+01
 Coeff:      0.844D-03-0.263D-02-0.217D-01-0.934D-03 0.477D-01-0.674D-02
 Coeff:     -0.121D+00-0.153D+00 0.212D+00 0.105D+01
 Gap=     0.174 Goal=   None    Shift=    0.000
 RMSDP=4.45D-08 MaxDP=1.73D-06 DE=-1.85D-10 OVMax= 1.12D-05

 Cycle  15  Pass 1  IDiag  1:
 E= -764.455254493336     Delta-E=       -0.000000000126 Rises=F Damp=F
 DIIS: error= 9.23D-08 at cycle  11 NSaved=  11.
 NSaved=11 IEnMin=11 EnMin= -764.455254493336     IErMin=11 ErrMin= 9.23D-08
 ErrMax= 9.23D-08  0.00D+00 EMaxC= 1.00D-01 BMatC= 3.30D-12 BMatP= 1.03D-11
 IDIUse=1 WtCom= 1.00D+00 WtEn= 0.00D+00
 Coeff-Com:  0.568D-03-0.776D-03-0.798D-02-0.158D-02 0.149D-01 0.916D-02
 Coeff-Com:  0.101D-01-0.109D+00-0.243D+00 0.281D+00 0.105D+01
 Coeff:      0.568D-03-0.776D-03-0.798D-02-0.158D-02 0.149D-01 0.916D-02
 Coeff:      0.101D-01-0.109D+00-0.243D+00 0.281D+00 0.105D+01
 Gap=     0.174 Goal=   None    Shift=    0.000
 RMSDP=2.85D-08 MaxDP=1.51D-06 DE=-1.26D-10 OVMax= 6.88D-06

 Cycle  16  Pass 1  IDiag  1:
 E= -764.455254493355     Delta-E=       -0.000000000019 Rises=F Damp=F
 DIIS: error= 3.82D-08 at cycle  12 NSaved=  12.
 NSaved=12 IEnMin=12 EnMin= -764.455254493355     IErMin=12 ErrMin= 3.82D-08
 ErrMax= 3.82D-08  0.00D+00 EMaxC= 1.00D-01 BMatC= 1.11D-12 BMatP= 3.30D-12
 IDIUse=1 WtCom= 1.00D+00 WtEn= 0.00D+00
 Coeff-Com: -0.783D-04 0.735D-03 0.379D-02 0.331D-03-0.993D-02 0.380D-02
 Coeff-Com:  0.369D-01 0.202D-01-0.110D+00-0.269D+00 0.225D+00 0.110D+01
 Coeff:     -0.783D-04 0.735D-03 0.379D-02 0.331D-03-0.993D-02 0.380D-02
 Coeff:      0.369D-01 0.202D-01-0.110D+00-0.269D+00 0.225D+00 0.110D+01
 Gap=     0.174 Goal=   None    Shift=    0.000
 RMSDP=1.63D-08 MaxDP=1.01D-06 DE=-1.86D-11 OVMax= 3.39D-06

 Cycle  17  Pass 1  IDiag  1:
 E= -764.455254493305     Delta-E=        0.000000000050 Rises=F Damp=F
 DIIS: error= 1.56D-08 at cycle  13 NSaved=  13.
 NSaved=13 IEnMin=12 EnMin= -764.455254493355     IErMin=13 ErrMin= 1.56D-08
 ErrMax= 1.56D-08  0.00D+00 EMaxC= 1.00D-01 BMatC= 2.26D-13 BMatP= 1.11D-12
 IDIUse=1 WtCom= 1.00D+00 WtEn= 0.00D+00
 Coeff-Com: -0.120D-03 0.433D-03 0.249D-02 0.518D-03-0.610D-02 0.547D-03
 Coeff-Com:  0.122D-01 0.220D-01 0.544D-03-0.141D+00-0.743D-01 0.387D+00
 Coeff-Com:  0.795D+00
 Coeff:     -0.120D-03 0.433D-03 0.249D-02 0.518D-03-0.610D-02 0.547D-03
 Coeff:      0.122D-01 0.220D-01 0.544D-03-0.141D+00-0.743D-01 0.387D+00
 Coeff:      0.795D+00
 Gap=     0.174 Goal=   None    Shift=    0.000
 RMSDP=3.82D-09 MaxDP=2.53D-07 DE= 4.96D-11 OVMax= 7.07D-07

 SCF Done:  E(RM062X) =  -764.455254493     A.U. after   17 cycles
            NFock= 17  Conv=0.38D-08     -V/T= 2.0036
 KE= 7.617028665078D+02 PE=-3.053642011935D+03 EE= 9.067582045282D+02
 Leave Link  502 at Sat May 24 05:03:47 2025, MaxMem=  3758096384 cpu:             148.4 elap:              32.7
 (Enter /apps/easybuild-2022/easybuild/software/Compiler/NVHPC/22.11-CUDA-11.7.0/Gaussian/g16c01-CUDA-11.7.0/g16/l508.exe)
 QCSCF skips out because SCF is already converged.
 Leave Link  508 at Sat May 24 05:03:47 2025, MaxMem=  3758096384 cpu:               0.0 elap:               0.0
 (Enter /apps/easybuild-2022/easybuild/software/Compiler/NVHPC/22.11-CUDA-11.7.0/Gaussian/g16c01-CUDA-11.7.0/g16/l801.exe)
 DoSCS=F DFT=T ScalE2(SS,OS)=  1.000000  1.000000
 Range of M.O.s used for correlation:     1   324
 NBasis=   324 NAE=    40 NBE=    40 NFC=     0 NFV=     0
 NROrb=    324 NOA=    40 NOB=    40 NVA=   284 NVB=   284

 **** Warning!!: The largest alpha MO coefficient is  0.22971416D+02

 Leave Link  801 at Sat May 24 05:03:47 2025, MaxMem=  3758096384 cpu:               0.0 elap:               0.0
 (Enter /apps/easybuild-2022/easybuild/software/Compiler/NVHPC/22.11-CUDA-11.7.0/Gaussian/g16c01-CUDA-11.7.0/g16/l1101.exe)
 Leave Link 1101 at Sat May 24 05:03:47 2025, MaxMem=  3758096384 cpu:               0.0 elap:               0.0
[...]
 IDIUse=1 WtCom= 1.00D+00 WtEn= 0.00D+00
 Coeff-Com: -0.116D-01-0.289D-01 0.104D+01
 Coeff:     -0.116D-01-0.289D-01 0.104D+01
 Gap=     0.348 Goal=   None    Shift=    0.000
 RMSDP=8.42D-07 MaxDP=2.29D-05 DE=-5.37D-06 OVMax= 6.23D-05

 Cycle   6  Pass 1  IDiag  1:
 E= -764.594399083431     Delta-E=       -0.000000017593 Rises=F Damp=F
 DIIS: error= 3.04D-06 at cycle   4 NSaved=   4.
 NSaved= 4 IEnMin= 4 EnMin= -764.594399083431     IErMin= 4 ErrMin= 3.04D-06
 ErrMax= 3.04D-06  0.00D+00 EMaxC= 1.00D-01 BMatC= 1.35D-08 BMatP= 1.77D-08
 IDIUse=1 WtCom= 1.00D+00 WtEn= 0.00D+00
 Coeff-Com: -0.340D-01-0.347D-01 0.541D+00 0.528D+00
 Coeff:     -0.340D-01-0.347D-01 0.541D+00 0.528D+00
 Gap=     0.348 Goal=   None    Shift=    0.000
 RMSDP=2.44D-07 MaxDP=7.58D-06 DE=-1.76D-08 OVMax= 1.97D-05

 Cycle   7  Pass 1  IDiag  1:
 E= -764.594399092907     Delta-E=       -0.000000009476 Rises=F Damp=F
 DIIS: error= 7.49D-07 at cycle   5 NSaved=   5.
 NSaved= 5 IEnMin= 5 EnMin= -764.594399092907     IErMin= 5 ErrMin= 7.49D-07
 ErrMax= 7.49D-07  0.00D+00 EMaxC= 1.00D-01 BMatC= 5.76D-10 BMatP= 1.35D-08
 IDIUse=1 WtCom= 1.00D+00 WtEn= 0.00D+00
 Coeff-Com: -0.377D-02-0.118D-02-0.560D-01 0.804D-01 0.981D+00
 Coeff:     -0.377D-02-0.118D-02-0.560D-01 0.804D-01 0.981D+00
 Gap=     0.348 Goal=   None    Shift=    0.000
 RMSDP=1.23D-07 MaxDP=4.36D-06 DE=-9.48D-09 OVMax= 1.76D-05

 Cycle   8  Pass 1  IDiag  1:
 E= -764.594399094014     Delta-E=       -0.000000001107 Rises=F Damp=F
 DIIS: error= 5.92D-07 at cycle   6 NSaved=   6.
 NSaved= 6 IEnMin= 6 EnMin= -764.594399094014     IErMin= 6 ErrMin= 5.92D-07
 ErrMax= 5.92D-07  0.00D+00 EMaxC= 1.00D-01 BMatC= 3.16D-10 BMatP= 5.76D-10
 IDIUse=1 WtCom= 1.00D+00 WtEn= 0.00D+00
 Coeff-Com:  0.458D-02 0.665D-02-0.137D+00-0.571D-01 0.546D+00 0.637D+00
 Coeff:      0.458D-02 0.665D-02-0.137D+00-0.571D-01 0.546D+00 0.637D+00
 Gap=     0.348 Goal=   None    Shift=    0.000
 RMSDP=5.51D-08 MaxDP=1.77D-06 DE=-1.11D-09 OVMax= 6.91D-06

 Cycle   9  Pass 1  IDiag  1:
 E= -764.594399094309     Delta-E=       -0.000000000295 Rises=F Damp=F
 DIIS: error= 1.70D-07 at cycle   7 NSaved=   7.
 NSaved= 7 IEnMin= 7 EnMin= -764.594399094309     IErMin= 7 ErrMin= 1.70D-07
 ErrMax= 1.70D-07  0.00D+00 EMaxC= 1.00D-01 BMatC= 2.89D-11 BMatP= 3.16D-10
 IDIUse=1 WtCom= 1.00D+00 WtEn= 0.00D+00
 Coeff-Com:  0.245D-02 0.325D-02-0.524D-01-0.347D-01 0.118D+00 0.270D+00
 Coeff-Com:  0.693D+00
 Coeff:      0.245D-02 0.325D-02-0.524D-01-0.347D-01 0.118D+00 0.270D+00
 Coeff:      0.693D+00
 Gap=     0.348 Goal=   None    Shift=    0.000
 RMSDP=1.70D-08 MaxDP=5.92D-07 DE=-2.95D-10 OVMax= 2.78D-06

 Cycle  10  Pass 1  IDiag  1:
 E= -764.594399094323     Delta-E=       -0.000000000014 Rises=F Damp=F
 DIIS: error= 6.23D-08 at cycle   8 NSaved=   8.
 NSaved= 8 IEnMin= 8 EnMin= -764.594399094323     IErMin= 8 ErrMin= 6.23D-08
 ErrMax= 6.23D-08  0.00D+00 EMaxC= 1.00D-01 BMatC= 4.21D-12 BMatP= 2.89D-11
 IDIUse=1 WtCom= 1.00D+00 WtEn= 0.00D+00
 Coeff-Com: -0.242D-03-0.449D-03 0.145D-01 0.249D-03-0.889D-01-0.667D-01
 Coeff-Com:  0.240D+00 0.901D+00
 Coeff:     -0.242D-03-0.449D-03 0.145D-01 0.249D-03-0.889D-01-0.667D-01
 Coeff:      0.240D+00 0.901D+00
 Gap=     0.348 Goal=   None    Shift=    0.000
 RMSDP=9.44D-09 MaxDP=3.55D-07 DE=-1.43D-11 OVMax= 1.44D-06

 SCF Done:  E(RM062X) =  -764.594399094     A.U. after   10 cycles
            NFock= 10  Conv=0.94D-08     -V/T= 2.0039
 KE= 7.616227722402D+02 PE=-3.074223930721D+03 EE= 9.170782941337D+02
 Leave Link  502 at Sat May 24 05:58:18 2025, MaxMem=  3758096384 cpu:              82.4 elap:              18.3
 (Enter /apps/easybuild-2022/easybuild/software/Compiler/NVHPC/22.11-CUDA-11.7.0/Gaussian/g16c01-CUDA-11.7.0/g16/l508.exe)
 QCSCF skips out because SCF is already converged.
 Leave Link  508 at Sat May 24 05:58:18 2025, MaxMem=  3758096384 cpu:               0.0 elap:               0.0
 (Enter /apps/easybuild-2022/easybuild/software/Compiler/NVHPC/22.11-CUDA-11.7.0/Gaussian/g16c01-CUDA-11.7.0/g16/l801.exe)
 DoSCS=F DFT=T ScalE2(SS,OS)=  1.000000  1.000000
 Range of M.O.s used for correlation:     1   324
 NBasis=   324 NAE=    40 NBE=    40 NFC=     0 NFV=     0
 NROrb=    324 NOA=    40 NOB=    40 NVA=   284 NVB=   284

 **** Warning!!: The largest alpha MO coefficient is  0.18778804D+02

 Leave Link  801 at Sat May 24 05:58:18 2025, MaxMem=  3758096384 cpu:               0.0 elap:               0.0
 (Enter /apps/easybuild-2022/easybuild/software/Compiler/NVHPC/22.11-CUDA-11.7.0/Gaussian/g16c01-CUDA-11.7.0/g16/l1101.exe)
 Leave Link 1101 at Sat May 24 05:58:18 2025, MaxMem=  3758096384 cpu:               0.0 elap:               0.0
 (Enter /apps/easybuild-2022/easybuild/software/Compiler/NVHPC/22.11-CUDA-11.7.0/Gaussian/g16c01-CUDA-11.7.0/g16/l1102.exe)
 Symmetrizing basis deriv contribution to polar:
 IMax=3 JMax=2 DiffMx= 0.00D+00
 Leave Link 1102 at Sat May 24 05:58:18 2025, MaxMem=  3758096384 cpu:               0.1 elap:               0.0
 (Enter /apps/easybuild-2022/easybuild/software/Compiler/NVHPC/22.11-CUDA-11.7.0/Gaussian/g16c01-CUDA-11.7.0/g16/l1110.exe)
 Leave Link 1110 at Sat May 24 05:58:18 2025, MaxMem=  3758096384 cpu:               0.0 elap:               0.0
 (Enter /apps/easybuild-2022/easybuild/software/Compiler/NVHPC/22.11-CUDA-11.7.0/Gaussian/g16c01-CUDA-11.7.0/g16/l1002.exe)
 Minotr:  Closed shell wavefunction.
 Leave Link 1002 at Sat May 24 05:58:19 2025, MaxMem=  3758096384 cpu:               0.0 elap:               0.0
 (Enter /apps/easybuild-2022/easybuild/software/Compiler/NVHPC/22.11-CUDA-11.7.0/Gaussian/g16c01-CUDA-11.7.0/g16/l701.exe)
 ... and contract with generalized density number  0.
 Compute integral first derivatives.
   1 Symmetry operations used in ECPInt.
 ECPInt:  NShTT=    6786 NPrTT=   21959 LenC2=    6428 LenP2D=   15858.
 LDataN:  DoStor=T MaxTD1= 7 Len=  274
 Leave Link  701 at Sat May 24 05:58:19 2025, MaxMem=  3758096384 cpu:               0.4 elap:               0.1
 (Enter /apps/easybuild-2022/easybuild/software/Compiler/NVHPC/22.11-CUDA-11.7.0/Gaussian/g16c01-CUDA-11.7.0/g16/l702.exe)
 L702 exits ... SP integral derivatives will be done elsewhere.
 Leave Link  702 at Sat May 24 05:58:19 2025, MaxMem=  3758096384 cpu:               0.0 elap:               0.0
 (Enter /apps/easybuild-2022/easybuild/software/Compiler/NVHPC/22.11-CUDA-11.7.0/Gaussian/g16c01-CUDA-11.7.0/g16/l703.exe)
 Integral derivatives from FoFJK, PRISM(SPDF).
 Compute integral first derivatives, UseDBF=F ICtDFT=           0.
 Calling FoFJK, ICntrl=      2127 FMM=F ISym2X=0 I1Cent= 0 IOpClX= 0 NMat=1 NMatS=1 NMatT=0.
 FoFJK:  IHMeth= 1 ICntrl=    2127 DoSepK=F KAlg= 0 I1Cent=           0 FoldK=F
 IRaf=         0 NMat=       1 IRICut=       1 DoRegI=T DoRafI=F ISym2E= 0 IDoP0=0 IntGTp=1.
 FoFCou: FMM=F IPFlag=           0 FMFlag=      100000 FMFlg1=         800
         NFxFlg=           0 DoJE=F BraDBF=F KetDBF=F FulRan=T
         wScrn=  0.000000 ICntrl=      2127 IOpCl=  0 I1Cent=           0 NGrid=           0
         NMat0=    1 NMatS0=      1 NMatT0=    0 NMatD0=    1 NMtDS0=    0 NMtDT0=    0
 Symmetry not used in FoFCou.
 Leave Link  703 at Sat May 24 05:58:26 2025, MaxMem=  3758096384 cpu:              59.0 elap:               7.5
 (Enter /apps/easybuild-2022/easybuild/software/Compiler/NVHPC/22.11-CUDA-11.7.0/Gaussian/g16c01-CUDA-11.7.0/g16/l716.exe)
 Dipole        = 6.18962186D-02 5.98590141D-02 1.07858166D+00
 Polarizability= 0.00000000D+00 0.00000000D+00 0.00000000D+00
                 0.00000000D+00 0.00000000D+00 0.00000000D+00
 -------------------------------------------------------------------
 Center     Atomic                   Forces (Hartrees/Bohr)
 Number     Number              X              Y              Z
 -------------------------------------------------------------------
      1        6          -0.009699769    0.003751436    0.005322479
      2        8          -0.015286270   -0.002809839    0.012555195
      3        6           0.002210707   -0.028845161   -0.021161858
      4        6          -0.000489784   -0.004456818   -0.000094966
      5        9           0.002782777   -0.012893551    0.007123600
      6        9          -0.002697792    0.001863022   -0.007453711
      7        9          -0.002861151   -0.000879733   -0.008858086
      8        9           0.021147318    0.074005835    0.031096678
      9        9           0.010209953   -0.029471814   -0.018805533
     10        8          -0.005001749   -0.001081128    0.000239520
     11        1          -0.000314242    0.000817750    0.000036682
 -------------------------------------------------------------------
 Cartesian Forces:  Max     0.074005835 RMS     0.017806694
 Leave Link  716 at Sat May 24 05:58:26 2025, MaxMem=  3758096384 cpu:               0.0 elap:               0.0
 (Enter /apps/easybuild-2022/easybuild/software/Compiler/NVHPC/22.11-CUDA-11.7.0/Gaussian/g16c01-CUDA-11.7.0/g16/l123.exe)
 IRC-IRC-IRC-IRC-IRC-IRC-IRC-IRC-IRC-IRC-IRC-IRC-IRC-IRC-IRC-IRC-IRC-IRC
 Pt100 Step number   1 out of a maximum of  20
 Using modified Bulirsch-Stoer corrector integration.
   Using distance weighted interpolants to fit PES.
 PreDWI: IReCr0= 2 IReCr1= 1 IReCr2= 1 IReCr3= 1
 Modified Bulirsch-Stoer Extrapolation Cycles:
    EPS =    0.000010000000000
    Cycle     1 NS=    48
      PEZero:  N= 2 I= 1 D=  4.11D-04 Err=  8.83D-07
    Cycle     2 NS=    64 Truncation Error =  0.000000883
 BS completed in    2 cycles and     112 integration steps.
 Maximum DWI energy   std dev =  0.000000080 at pt    21
 Maximum DWI gradient std dev =  0.017106155 at pt    29
 SUMMARY OF CORRECTOR INTEGRATION:
   Predictor End Point Energy =  -764.594399
   Old End Point Energy       =  -764.594399
   Corrected End Point Energy =  -764.594399
   Predictor End-Start Dist.  =     0.078980
   Old End-Start Dist.        =     0.078980
   New End-Start Dist.        =     0.078980
   New End-Old End Dist.      =     0.000210
 CORRECTOR INTEGRATION CONVERGENCE:
   Recorrection delta-x convergence threshold:    0.010000
   Delta-x Convergence Met
 Point Number: 100          Path Number:   1
                    CURRENT STRUCTURE
                Cartesian Coordinates (Ang):                
 ---------------------------------------------------------------------
 Center     Atomic                     Coordinates (Angstroms)
 Number     Number                        X           Y           Z
 ---------------------------------------------------------------------
      1          6                   -0.437406   -1.070568    1.097919
      2          8                   -1.404573   -1.578490    0.643409
      3          6                    0.360050   -0.075434    0.304954
      4          6                   -0.146647    0.885381   -0.792727
      5          9                   -0.465554    2.105661   -0.347110
      6          9                    0.881678    1.028354   -1.615383
      7          9                   -1.191369    0.384961   -1.396972
      8          9                    0.736689   -1.416080   -0.617166
      9          9                    1.197717    0.650741    1.038332
     10          8                    0.207810   -1.363531    2.225308
     11          1                   -0.226702   -2.127450    2.630569
 ---------------------------------------------------------------------
   CHANGE IN THE REACTION COORDINATE =    0.07898
   NET REACTION COORDINATE UP TO THIS POINT =    7.89785
  # OF POINTS ALONG THE PATH = 100
  # OF STEPS =   1

 Maximum number of steps reached.
 Calculation of FORWARD path complete.
 Reaction path calculation complete.
 
 Energies reported relative to the TS energy of        -764.454960
 --------------------------------------------------------------------------
    Summary of reaction path following
 --------------------------------------------------------------------------
                        Energy    RxCoord
   1                    0.00000   0.00000
   2                   -0.00003   0.07899
   3                   -0.00013   0.15796
   4                   -0.00029   0.23693
   5                   -0.00053   0.31591
   6                   -0.00083   0.39488
   7                   -0.00120   0.47386
   8                   -0.00164   0.55283
   9                   -0.00215   0.63181
  10                   -0.00273   0.71079
  11                   -0.00338   0.78976
  12                   -0.00410   0.86874
  13                   -0.00489   0.94772
  14                   -0.00574   1.02670
  15                   -0.00664   1.10567
  16                   -0.00761   1.18465
  17                   -0.00863   1.26363
  18                   -0.00970   1.34261
  19                   -0.01081   1.42158
  20                   -0.01196   1.50056
  21                   -0.01314   1.57954
  22                   -0.01435   1.65852
  23                   -0.01558   1.73749
  24                   -0.01684   1.81647
  25                   -0.01811   1.89545
  26                   -0.01940   1.97443
  27                   -0.02070   2.05340
  28                   -0.02201   2.13238
  29                   -0.02333   2.21136
  30                   -0.02466   2.29034
  31                   -0.02599   2.36931
  32                   -0.02733   2.44829
  33                   -0.02868   2.52727
  34                   -0.03002   2.60625
  35                   -0.03138   2.68522
  36                   -0.03273   2.76420
  37                   -0.03409   2.84318
  38                   -0.03545   2.92216
  39                   -0.03682   3.00113
  40                   -0.03819   3.08011
  41                   -0.03957   3.15909
  42                   -0.04095   3.23807
  43                   -0.04233   3.31705
  44                   -0.04372   3.39603
  45                   -0.04512   3.47500
  46                   -0.04652   3.55398
  47                   -0.04793   3.63296
  48                   -0.04935   3.71194
  49                   -0.05077   3.79092
  50                   -0.05220   3.86990
  51                   -0.05364   3.94888
  52                   -0.05509   4.02786
  53                   -0.05655   4.10683
  54                   -0.05801   4.18581
  55                   -0.05949   4.26479
  56                   -0.06097   4.34377
  57                   -0.06247   4.42275
  58                   -0.06397   4.50173
  59                   -0.06549   4.58071
  60                   -0.06701   4.65969
  61                   -0.06855   4.73867
  62                   -0.07010   4.81765
  63                   -0.07166   4.89663
  64                   -0.07323   4.97561
  65                   -0.07481   5.05459
  66                   -0.07641   5.13357
  67                   -0.07801   5.21254
  68                   -0.07963   5.29152
  69                   -0.08126   5.37050
  70                   -0.08291   5.44948
  71                   -0.08456   5.52846
  72                   -0.08623   5.60744
  73                   -0.08791   5.68642
  74                   -0.08960   5.76540
  75                   -0.09130   5.84438
  76                   -0.09302   5.92336
  77                   -0.09475   6.00234
  78                   -0.09649   6.08132
  79                   -0.09824   6.16030
  80                   -0.10001   6.23928
  81                   -0.10179   6.31826
  82                   -0.10358   6.39724
  83                   -0.10539   6.47622
  84                   -0.10720   6.55520
  85                   -0.10903   6.63418
  86                   -0.11087   6.71316
  87                   -0.11272   6.79214
  88                   -0.11458   6.87112
  89                   -0.11645   6.95010
  90                   -0.11833   7.02908
  91                   -0.12022   7.10806
  92                   -0.12212   7.18703
  93                   -0.12403   7.26601
  94                   -0.12594   7.34499
  95                   -0.12786   7.42397
  96                   -0.12979   7.50295
  97                   -0.13171   7.58193
  98                   -0.13364   7.66091
  99                   -0.13558   7.73989
 100                   -0.13751   7.81887
 101                   -0.13944   7.89785
 --------------------------------------------------------------------------
 
 Total number of points:                  100
 Total number of gradient calculations:   100
 Total number of Hessian calculations:      0
 IRC-IRC-IRC-IRC-IRC-IRC-IRC-IRC-IRC-IRC-IRC-IRC-IRC-IRC-IRC-IRC-IRC-IRC
 Leave Link  123 at Sat May 24 05:58:26 2025, MaxMem=  3758096384 cpu:               0.1 elap:               0.0
 (Enter /apps/easybuild-2022/easybuild/software/Compiler/NVHPC/22.11-CUDA-11.7.0/Gaussian/g16c01-CUDA-11.7.0/g16/l202.exe)
                          Input orientation:                          
 ---------------------------------------------------------------------
 Center     Atomic      Atomic             Coordinates (Angstroms)
 Number     Number       Type             X           Y           Z
 ---------------------------------------------------------------------
      1          6           0       -0.437410   -1.070581    1.097916
      2          8           0       -1.404576   -1.578488    0.643413
      3          6           0        0.360058   -0.075420    0.304963
      4          6           0       -0.146646    0.885378   -0.792734
      5          9           0       -0.465554    2.105660   -0.347109
      6          9           0        0.881678    1.028354   -1.615384
      7          9           0       -1.191369    0.384961   -1.396972
      8          9           0        0.736690   -1.416079   -0.617166
      9          9           0        1.197714    0.650738    1.038329
     10          8           0        0.207812   -1.363530    2.225307
     11          1           0       -0.226736   -2.127436    2.630618
 ---------------------------------------------------------------------
                    Distance matrix (angstroms):
                    1          2          3          4          5
     1  C    0.000000
     2  O    1.183196   0.000000
     3  C    1.501690   2.342583   0.000000
     4  C    2.735849   3.116977   1.544286   0.000000
     5  F    3.489612   3.928848   2.421558   1.337675   0.000000
     6  F    3.675257   4.138206   2.275552   1.324630   2.141061
     7  F    2.985217   2.839677   2.348502   1.306510   2.142388
     8  F    2.106985   2.490072   1.670191   2.471398   3.731081
     9  F    2.374893   3.449249   1.329210   2.283670   2.608198
    10  O    1.331594   2.269006   2.317354   3.780450   4.371044
    11  H    1.873633   2.374370   3.156543   4.561008   5.181022
                    6          7          8          9         10
     6  F    0.000000
     7  F    2.181555   0.000000
     8  F    2.644374   2.751228   0.000000
     9  F    2.699012   3.421848   2.687924   0.000000
    10  O    4.574507   4.258619   2.891734   2.538917   0.000000
    11  H    5.405194   4.843979   3.461548   3.504666   0.967812
                   11
    11  H    0.000000
 Symmetry turned off by external request.
 Stoichiometry    C3HF5O2
 Rotational constants (GHZ):           2.0928192           1.0987388           1.0013423
 Leave Link  202 at Sat May 24 05:58:26 2025, MaxMem=  3758096384 cpu:               0.0 elap:               0.0
 (Enter /apps/easybuild-2022/easybuild/software/Compiler/NVHPC/22.11-CUDA-11.7.0/Gaussian/g16c01-CUDA-11.7.0/g16/l9999.exe)

 This type of calculation cannot be archived.


 FROM AN ANONYMOUS WRITER, ON PERSPECTIVE:

 MAN, DESPITE HIS ARTISTIC PRETENSIONS, HIS SOPHISTICATION AND MANY 
 ACCOMPLISHMENTS, OWES THE FACT OF HIS EXISTENCE TO A SIX-INCH LAYER OF 
 TOPSOIL AND THE FACT THAT IT RAINS.
 Job cpu time:       0 days  4 hours 56 minutes 20.3 seconds.
 Elapsed time:       0 days  0 hours 56 minutes 19.6 seconds.
 File lengths (MBytes):  RWF=     52 Int=      0 D2E=      0 Chk=     10 Scr=      1
 Normal termination of Gaussian 16 at Sat May 24 05:58:26 2025.
done
