 Entering Gaussian System, Link 0=g16
 Initial command:
 /apps/easybuild-2022/easybuild/software/Compiler/NVHPC/22.11-CUDA-11.7.0/Gaussian/g16c01-CUDA-11.7.0/g16/l1.exe "/tmp/Gau-79862.inp" -scrdir="/tmp/"
 Entering Link 1 = /apps/easybuild-2022/easybuild/software/Compiler/NVHPC/22.11-CUDA-11.7.0/Gaussian/g16c01-CUDA-11.7.0/g16/l1.exe PID=     79865.
  
 Copyright (c) 1988-2019, Gaussian, Inc.  All Rights Reserved.
  
 This is part of the Gaussian(R) 16 program.  It is based on
 the Gaussian(R) 09 system (copyright 2009, Gaussian, Inc.),
 the Gaussian(R) 03 system (copyright 2003, Gaussian, Inc.),
 the Gaussian(R) 98 system (copyright 1998, Gaussian, Inc.),
 the Gaussian(R) 94 system (copyright 1995, Gaussian, Inc.),
 the Gaussian 92(TM) system (copyright 1992, Gaussian, Inc.),
 the Gaussian 90(TM) system (copyright 1990, Gaussian, Inc.),
 the Gaussian 88(TM) system (copyright 1988, Gaussian, Inc.),
 the Gaussian 86(TM) system (copyright 1986, Carnegie Mellon
 University), and the Gaussian 82(TM) system (copyright 1983,
 Carnegie Mellon University). Gaussian is a federally registered
 trademark of Gaussian, Inc.
  
 This software contains proprietary and confidential information,
 including trade secrets, belonging to Gaussian, Inc.
  
 This software is provided under written license and may be
 used, copied, transmitted, or stored only in accord with that
 written license.
  
 The following legend is applicable only to US Government
 contracts under FAR:
  
                    RESTRICTED RIGHTS LEGEND
  
 Use, reproduction and disclosure by the US Government is
 subject to restrictions as set forth in subparagraphs (a)
 and (c) of the Commercial Computer Software - Restricted
 Rights clause in FAR 52.227-19.
  
 Gaussian, Inc.
 340 Quinnipiac St., Bldg. 40, Wallingford CT 06492
  
  
 ---------------------------------------------------------------
 Warning -- This program may not be used in any manner that
 competes with the business of Gaussian, Inc. or will provide
 assistance to any competitor of Gaussian, Inc.  The licensee
 of this program is prohibited from giving any competitor of
 Gaussian, Inc. access to this program.  By using this program,
 the user acknowledges that Gaussian, Inc. is engaged in the
 business of creating and licensing software in the field of
 computational chemistry and represents and warrants to the
 licensee that it is not a competitor of Gaussian, Inc. and that
 it will not use this program in any manner prohibited above.
 ---------------------------------------------------------------
  

 Cite this work as:
 Gaussian 16, Revision C.01,
 M. J. Frisch, G. W. Trucks, H. B. Schlegel, G. E. Scuseria, 
 M. A. Robb, J. R. Cheeseman, G. Scalmani, V. Barone, 
 G. A. Petersson, H. Nakatsuji, X. Li, M. Caricato, A. V. Marenich, 
 J. Bloino, B. G. Janesko, R. Gomperts, B. Mennucci, H. P. Hratchian, 
 J. V. Ortiz, A. F. Izmaylov, J. L. Sonnenberg, D. Williams-Young, 
 F. Ding, F. Lipparini, F. Egidi, J. Goings, B. Peng, A. Petrone, 
 T. Henderson, D. Ranasinghe, V. G. Zakrzewski, J. Gao, N. Rega, 
 G. Zheng, W. Liang, M. Hada, M. Ehara, K. Toyota, R. Fukuda, 
 J. Hasegawa, M. Ishida, T. Nakajima, Y. Honda, O. Kitao, H. Nakai, 
 T. Vreven, K. Throssell, J. A. Montgomery, Jr., J. E. Peralta, 
 F. Ogliaro, M. J. Bearpark, J. J. Heyd, E. N. Brothers, K. N. Kudin, 
 V. N. Staroverov, T. A. Keith, R. Kobayashi, J. Normand, 
 K. Raghavachari, A. P. Rendell, J. C. Burant, S. S. Iyengar, 
 J. Tomasi, M. Cossi, J. M. Millam, M. Klene, C. Adamo, R. Cammi, 
 J. W. Ochterski, R. L. Martin, K. Morokuma, O. Farkas, 
 J. B. Foresman, and D. J. Fox, Gaussian, Inc., Wallingford CT, 2019.
 
 ******************************************
 Gaussian 16:  ES64L-G16RevC.01  3-Jul-2019
                24-May-2025 
 ******************************************
 %mem=28GB
 %chk=1642764945472630600001_r12_insertion_R_1_3_4
 %nprocshared=8
 Will use up to    8 processors via shared memory.
 ----------------------------------------------------------------------
 #P M062X/Def2TZVPP Symm(None) scf(xqc) pop(None) opt(NoFreeze,TS,CalcA
 ll,NoEigentest,MaxCycle=999)
 ----------------------------------------------------------------------
 1/5=1,6=999,10=4,11=1,18=20,26=3,29=2000,38=1/1,3;
 2/9=110,12=2,15=3,17=6,18=5,40=1/2;
 3/5=44,7=202,11=2,25=1,30=1,71=2,74=-55,140=1/1,2,3;
 4//1;
 5/5=2,8=3,13=1,38=5/2,8;
 8/6=4,10=90,11=11/1;
 11/6=1,8=1,9=11,15=111,16=1,31=1/1,2,10;
 10/6=1,31=1/2;
 7/10=1,25=1,30=1/1,2,3,16;
 1/5=1,6=999,10=4,11=1,18=20,26=3/3(3);
 2/9=110,15=3/2;
 7/8=1,9=1,25=1,30=1,44=-1/16;
 99//99;
 2/9=110,15=3/2;
 3/5=44,7=202,11=2,25=1,30=1,71=2,74=-55,140=1/1,2,3;
 4/5=5,16=3,69=1/1;
 5/5=2,8=3,13=1,38=5/2,8;
 8/6=4,10=90,11=11/1;
 11/6=1,8=1,9=11,15=111,16=1,31=1/1,2,10;
 10/6=1,31=1/2;
 7/10=1,25=1,30=1/1,2,3,16;
 1/5=1,6=999,10=4,11=1,18=20,26=3/3(-8);
 2/9=110,15=3/2;
 7/8=1,9=1,25=1,30=1,44=-1/16;
 99//99;
 Leave Link    1 at Sat May 24 02:00:58 2025, MaxMem=  3758096384 cpu:               0.1 elap:               0.0
 (Enter /apps/easybuild-2022/easybuild/software/Compiler/NVHPC/22.11-CUDA-11.7.0/Gaussian/g16c01-CUDA-11.7.0/g16/l101.exe)
 ------------------------------
 Gaussian input prepared by ASE
 ------------------------------
 Symbolic Z-matrix:
 Charge =  0 Multiplicity = 1
 C                     1.31361   0.16666   0.32205 
 O                     2.13185  -0.63308   0.62055 
 C                    -0.02613  -0.34094  -0.53607 
 C                    -0.13557   0.4252    1.52331 
 F                    -0.99465   1.21216   1.10449 
 F                    -0.6747   -0.6439    1.83418 
 F                     0.41581   0.89751   2.47503 
 F                    -0.73777   0.40613  -1.15984 
 F                    -0.47812  -1.45275  -0.42907 
 O                     1.57859   1.40008  -0.10156 
 H                     2.53658   1.53433  -0.14098 
 
 Add virtual bond connecting atoms C4         and C1         Dist= 3.59D+00.
 ITRead=  0  0  0  0  0  0  0  0  0  0  0
 MicOpt= -1 -1 -1 -1 -1 -1 -1 -1 -1 -1 -1
 NAtoms=     11 NQM=       11 NQMF=       0 NMMI=      0 NMMIF=      0
                NMic=       0 NMicF=      0.
                    Isotopes and Nuclear Properties:
 (Nuclear quadrupole moments (NQMom) in fm**2, nuclear magnetic moments (NMagM)
  in nuclear magnetons)

  Atom         1           2           3           4           5           6           7           8           9          10
 IAtWgt=          12          16          12          12          19          19          19          19          19          16
 AtmWgt=  12.0000000  15.9949146  12.0000000  12.0000000  18.9984032  18.9984032  18.9984032  18.9984032  18.9984032  15.9949146
 NucSpn=           0           0           0           0           1           1           1           1           1           0
 AtZEff=  -0.0000000  -0.0000000  -0.0000000  -0.0000000  -0.0000000  -0.0000000  -0.0000000  -0.0000000  -0.0000000  -0.0000000
 NQMom=    0.0000000   0.0000000   0.0000000   0.0000000   0.0000000   0.0000000   0.0000000   0.0000000   0.0000000   0.0000000
 NMagM=    0.0000000   0.0000000   0.0000000   0.0000000   2.6288670   2.6288670   2.6288670   2.6288670   2.6288670   0.0000000
 AtZNuc=   6.0000000   8.0000000   6.0000000   6.0000000   9.0000000   9.0000000   9.0000000   9.0000000   9.0000000   8.0000000

  Atom        11
 IAtWgt=           1
 AtmWgt=   1.0078250
 NucSpn=           1
 AtZEff=  -0.0000000
 NQMom=    0.0000000
 NMagM=    2.7928460
 AtZNuc=   1.0000000
 Leave Link  101 at Sat May 24 02:00:58 2025, MaxMem=  3758096384 cpu:               0.3 elap:               0.2
 (Enter /apps/easybuild-2022/easybuild/software/Compiler/NVHPC/22.11-CUDA-11.7.0/Gaussian/g16c01-CUDA-11.7.0/g16/l103.exe)

 GradGradGradGradGradGradGradGradGradGradGradGradGradGradGradGradGradGrad
 Berny optimization.
 Initialization pass.
                           ----------------------------
                           !    Initial Parameters    !
                           ! (Angstroms and Degrees)  !
 --------------------------                            --------------------------
 ! Name  Definition              Value          Derivative Info.                !
 --------------------------------------------------------------------------------
 ! R1    R(1,2)                  1.1825         calculate D2E/DX2 analytically  !
 ! R2    R(1,3)                  1.67           calculate D2E/DX2 analytically  !
 ! R3    R(1,4)                  1.9            calculate D2E/DX2 analytically  !
 ! R4    R(1,10)                 1.3308         calculate D2E/DX2 analytically  !
 ! R5    R(3,8)                  1.2057         calculate D2E/DX2 analytically  !
 ! R6    R(3,9)                  1.2049         calculate D2E/DX2 analytically  !
 ! R7    R(4,5)                  1.238          calculate D2E/DX2 analytically  !
 ! R8    R(4,6)                  1.237          calculate D2E/DX2 analytically  !
 ! R9    R(4,7)                  1.197          calculate D2E/DX2 analytically  !
 ! R10   R(10,11)                0.9682         calculate D2E/DX2 analytically  !
 ! A1    A(2,1,3)              118.6381         calculate D2E/DX2 analytically  !
 ! A2    A(2,1,4)              117.4016         calculate D2E/DX2 analytically  !
 ! A3    A(2,1,10)             124.71           calculate D2E/DX2 analytically  !
 ! A4    A(3,1,4)               75.7793         calculate D2E/DX2 analytically  !
 ! A5    A(3,1,10)             106.1344         calculate D2E/DX2 analytically  !
 ! A6    A(4,1,10)             103.1208         calculate D2E/DX2 analytically  !
 ! A7    A(1,3,8)              123.4368         calculate D2E/DX2 analytically  !
 ! A8    A(1,3,9)              122.3957         calculate D2E/DX2 analytically  !
 ! A9    A(8,3,9)              113.3458         calculate D2E/DX2 analytically  !
 ! A10   A(1,4,5)              113.6953         calculate D2E/DX2 analytically  !
 ! A11   A(1,4,6)              111.9438         calculate D2E/DX2 analytically  !
 ! A12   A(1,4,7)              101.8312         calculate D2E/DX2 analytically  !
 ! A13   A(5,4,6)              109.3871         calculate D2E/DX2 analytically  !
 ! A14   A(5,4,7)              109.7428         calculate D2E/DX2 analytically  !
 ! A15   A(6,4,7)              109.9956         calculate D2E/DX2 analytically  !
 ! A16   A(1,10,11)            109.7865         calculate D2E/DX2 analytically  !
 ! D1    D(2,1,3,8)           -161.3716         calculate D2E/DX2 analytically  !
 ! D2    D(2,1,3,9)             29.7047         calculate D2E/DX2 analytically  !
 ! D3    D(4,1,3,8)             84.89           calculate D2E/DX2 analytically  !
 ! D4    D(4,1,3,9)            -84.0336         calculate D2E/DX2 analytically  !
 ! D5    D(10,1,3,8)           -14.9253         calculate D2E/DX2 analytically  !
 ! D6    D(10,1,3,9)           176.1511         calculate D2E/DX2 analytically  !
 ! D7    D(2,1,4,5)           -175.5748         calculate D2E/DX2 analytically  !
 ! D8    D(2,1,4,6)            -50.989          calculate D2E/DX2 analytically  !
 ! D9    D(2,1,4,7)             66.4662         calculate D2E/DX2 analytically  !
 ! D10   D(3,1,4,5)            -60.3901         calculate D2E/DX2 analytically  !
 ! D11   D(3,1,4,6)             64.1958         calculate D2E/DX2 analytically  !
 ! D12   D(3,1,4,7)           -178.3491         calculate D2E/DX2 analytically  !
 ! D13   D(10,1,4,5)            43.2187         calculate D2E/DX2 analytically  !
 ! D14   D(10,1,4,6)           167.8045         calculate D2E/DX2 analytically  !
 ! D15   D(10,1,4,7)           -74.7403         calculate D2E/DX2 analytically  !
 ! D16   D(2,1,10,11)            0.9313         calculate D2E/DX2 analytically  !
 ! D17   D(3,1,10,11)         -142.9035         calculate D2E/DX2 analytically  !
 ! D18   D(4,1,10,11)          138.3503         calculate D2E/DX2 analytically  !
 --------------------------------------------------------------------------------
 Trust Radius=3.00D-01 FncErr=1.00D-07 GrdErr=1.00D-06 EigMax=2.50D+02 EigMin=1.00D-04
 Number of steps in this run=    100 maximum allowed number of steps=    100.
 Search for a saddle point of order  1.
 GradGradGradGradGradGradGradGradGradGradGradGradGradGradGradGradGradGrad

 Leave Link  103 at Sat May 24 02:00:58 2025, MaxMem=  3758096384 cpu:               0.1 elap:               0.0
 (Enter /apps/easybuild-2022/easybuild/software/Compiler/NVHPC/22.11-CUDA-11.7.0/Gaussian/g16c01-CUDA-11.7.0/g16/l202.exe)
                          Input orientation:                          
 ---------------------------------------------------------------------
 Center     Atomic      Atomic             Coordinates (Angstroms)
 Number     Number       Type             X           Y           Z
 ---------------------------------------------------------------------
      1          6           0        1.313611    0.166662    0.322051
      2          8           0        2.131854   -0.633076    0.620553
      3          6           0       -0.026132   -0.340944   -0.536066
      4          6           0       -0.135574    0.425203    1.523309
      5          9           0       -0.994652    1.212159    1.104487
      6          9           0       -0.674704   -0.643899    1.834182
      7          9           0        0.415812    0.897507    2.475026
      8          9           0       -0.737772    0.406133   -1.159841
      9          9           0       -0.478116   -1.452752   -0.429071
     10          8           0        1.578592    1.400077   -0.101555
     11          1           0        2.536579    1.534334   -0.140978
 ---------------------------------------------------------------------
                    Distance matrix (angstroms):
                    1          2          3          4          5
     1  C    0.000000
     2  O    1.182458   0.000000
     3  C    1.670012   2.465768   0.000000
     4  C    1.900000   2.660104   2.199996   0.000000
     5  F    2.652046   3.662530   2.457961   1.238033   0.000000
     6  F    2.626204   3.057741   2.475985   1.237046   2.019845
     7  F    2.444479   2.954074   3.285689   1.197022   1.991681
     8  F    2.541952   3.533343   1.205674   2.749964   2.417198
     9  F    2.529224   2.930106   1.204929   2.730538   3.117749
    10  O    1.330778   2.227386   2.407300   2.555177   2.848058
    11  H    1.892240   2.332680   3.200039   3.337727   3.758267
                    6          7          8          9         10
     6  F    0.000000
     7  F    1.993951   0.000000
     8  F    3.173440   3.845057   0.000000
     9  F    2.411473   3.841433   2.014175   0.000000
    10  O    3.605864   2.871133   2.733759   3.532131   0.000000
    11  H    4.354112   3.427343   3.610027   4.253712   0.968152
                   11
    11  H    0.000000
 Symmetry turned off by external request.
 Stoichiometry    C3HF5O2
 Rotational constants (GHZ):           1.6786930           1.4593690           1.2276065
 Leave Link  202 at Sat May 24 02:00:58 2025, MaxMem=  3758096384 cpu:               0.1 elap:               0.0
 (Enter /apps/easybuild-2022/easybuild/software/Compiler/NVHPC/22.11-CUDA-11.7.0/Gaussian/g16c01-CUDA-11.7.0/g16/l301.exe)
 Standard basis: def2TZVPP (5D, 7F)
 Ernie: Thresh=  0.10000D-02 Tol=  0.10000D-05 Strict=F.
   324 basis functions,   527 primitive gaussians,   375 cartesian basis functions
    40 alpha electrons       40 beta electrons
       nuclear repulsion energy       660.3564322929 Hartrees.
 IExCor= 4336 DFT=T Ex+Corr=M062X ExCW=0 ScaHFX=  0.540000
 ScaDFX=  1.000000  1.000000  1.000000  1.000000 ScalE2=  1.000000  1.000000
 IRadAn=      5 IRanWt=     -1 IRanGd=            0 ICorTp=0 IEmpDi=  4
 NAtoms=   11 NActive=   11 NUniq=   11 SFac= 1.00D+00 NAtFMM=   60 NAOKFM=F Big=F
 Integral buffers will be    131072 words long.
 Raffenetti 2 integral format.
 Two-electron integral symmetry is turned off.
 Leave Link  301 at Sat May 24 02:00:59 2025, MaxMem=  3758096384 cpu:               0.1 elap:               0.1
 (Enter /apps/easybuild-2022/easybuild/software/Compiler/NVHPC/22.11-CUDA-11.7.0/Gaussian/g16c01-CUDA-11.7.0/g16/l302.exe)
 NPDir=0 NMtPBC=     1 NCelOv=     1 NCel=       1 NClECP=     1 NCelD=      1
         NCelK=      1 NCelE2=     1 NClLst=     1 CellRange=     0.0.
 One-electron integrals computed using PRISM.
   1 Symmetry operations used in ECPInt.
 ECPInt:  NShTT=    6786 NPrTT=   21959 LenC2=    6535 LenP2D=   16117.
 LDataN:  DoStor=T MaxTD1= 6 Len=  172
 NBasis=   324 RedAO= T EigKep=  3.32D-04  NBF=   324
 NBsUse=   324 1.00D-06 EigRej= -1.00D+00 NBFU=   324
 Precomputing XC quadrature grid using
 IXCGrd= 4 IRadAn=           5 IRanWt=          -1 IRanGd=           0 AccXCQ= 0.00D+00.
 Generated NRdTot=       0 NPtTot=           0 NUsed=           0 NTot=          32
 NSgBfM=   372   372   372   372   372 MxSgAt=    11 MxSgA2=    11.
 Leave Link  302 at Sat May 24 02:00:59 2025, MaxMem=  3758096384 cpu:               0.9 elap:               0.2
 (Enter /apps/easybuild-2022/easybuild/software/Compiler/NVHPC/22.11-CUDA-11.7.0/Gaussian/g16c01-CUDA-11.7.0/g16/l303.exe)
 DipDrv:  MaxL=1.
 Leave Link  303 at Sat May 24 02:00:59 2025, MaxMem=  3758096384 cpu:               0.2 elap:               0.1
 (Enter /apps/easybuild-2022/easybuild/software/Compiler/NVHPC/22.11-CUDA-11.7.0/Gaussian/g16c01-CUDA-11.7.0/g16/l401.exe)
 ExpMin= 9.52D-02 ExpMax= 3.55D+04 ExpMxC= 1.21D+03 IAcc=3 IRadAn=         5 AccDes= 0.00D+00
 Harris functional with IExCor= 1009 and IRadAn=       5 diagonalized for initial guess.
 HarFok:  IExCor= 1009 AccDes= 0.00D+00 IRadAn=         5 IDoV= 1 UseB2=F ITyADJ=14
 ICtDFT=  3500011 ScaDFX=  1.000000  1.000000  1.000000  1.000000
 FoFCou: FMM=F IPFlag=           0 FMFlag=      100000 FMFlg1=           0
         NFxFlg=           0 DoJE=T BraDBF=F KetDBF=T FulRan=T
         wScrn=  0.000000 ICntrl=       500 IOpCl=  0 I1Cent=   200000004 NGrid=           0
         NMat0=    1 NMatS0=      1 NMatT0=    0 NMatD0=    1 NMtDS0=    0 NMtDT0=    0
 Symmetry not used in FoFCou.
 Harris En= -764.030886251583    
 JPrj=0 DoOrth=F DoCkMO=F.
 Leave Link  401 at Sat May 24 02:01:00 2025, MaxMem=  3758096384 cpu:               4.3 elap:               0.9
 (Enter /apps/easybuild-2022/easybuild/software/Compiler/NVHPC/22.11-CUDA-11.7.0/Gaussian/g16c01-CUDA-11.7.0/g16/l502.exe)
 Keep R1 ints in memory in canonical form, NReq=1412617130.
 FoFCou: FMM=F IPFlag=           0 FMFlag=           0 FMFlg1=           0
         NFxFlg=           0 DoJE=F BraDBF=F KetDBF=F FulRan=T
         wScrn=  0.000000 ICntrl=       600 IOpCl=  0 I1Cent=           0 NGrid=           0
         NMat0=    1 NMatS0=  52650 NMatT0=    0 NMatD0=    1 NMtDS0=    0 NMtDT0=    0
 Symmetry not used in FoFCou.
 Two-electron integral symmetry not used.
 Closed shell SCF:
 Using DIIS extrapolation, IDIIS=  1040.
 NGot=  3758096384 LenX=  2371771924 LenY=  2371630858
 Requested convergence on RMS density matrix=1.00D-08 within  32 cycles.
 Requested convergence on MAX density matrix=1.00D-06.
 Requested convergence on             energy=1.00D-06.
 No special actions if energy rises.
 Integral accuracy reduced to 1.0D-05 until final iterations.

 Cycle   1  Pass 0  IDiag  1:
 E= -764.210038327596    
 DIIS: error= 1.91D-02 at cycle   1 NSaved=   1.
 NSaved= 1 IEnMin= 1 EnMin= -764.210038327596     IErMin= 1 ErrMin= 1.91D-02
 ErrMax= 1.91D-02  0.00D+00 EMaxC= 1.00D-01 BMatC= 4.25D-01 BMatP= 4.25D-01
 IDIUse=3 WtCom= 8.09D-01 WtEn= 1.91D-01
 Coeff-Com:  0.100D+01
 Coeff-En:   0.100D+01
 Coeff:      0.100D+01
 Gap=     0.154 Goal=   None    Shift=    0.000
 GapD=    0.154 DampG=1.000 DampE=0.500 DampFc=0.5000 IDamp=-1.
 Damping current iteration by 5.00D-01
 RMSDP=3.25D-03 MaxDP=1.30D-01              OVMax= 4.25D-01

 Cycle   2  Pass 0  IDiag  1:
 E= -764.268785946537     Delta-E=       -0.058747618940 Rises=F Damp=T
 DIIS: error= 8.31D-03 at cycle   2 NSaved=   2.
 NSaved= 2 IEnMin= 2 EnMin= -764.268785946537     IErMin= 2 ErrMin= 8.31D-03
 ErrMax= 8.31D-03  0.00D+00 EMaxC= 1.00D-01 BMatC= 6.02D-02 BMatP= 4.25D-01
 IDIUse=3 WtCom= 9.17D-01 WtEn= 8.31D-02
 Coeff-Com:  0.136D+00 0.864D+00
 Coeff-En:   0.363D+00 0.637D+00
 Coeff:      0.155D+00 0.845D+00
 Gap=     0.326 Goal=   None    Shift=    0.000
 RMSDP=1.04D-03 MaxDP=3.16D-02 DE=-5.87D-02 OVMax= 2.76D-01

 Cycle   3  Pass 0  IDiag  1:
 E= -764.437448292870     Delta-E=       -0.168662346333 Rises=F Damp=F
 DIIS: error= 5.18D-03 at cycle   3 NSaved=   3.
 NSaved= 3 IEnMin= 3 EnMin= -764.437448292870     IErMin= 3 ErrMin= 5.18D-03
 ErrMax= 5.18D-03  0.00D+00 EMaxC= 1.00D-01 BMatC= 2.77D-02 BMatP= 6.02D-02
 IDIUse=3 WtCom= 9.48D-01 WtEn= 5.18D-02
 Coeff-Com: -0.414D-01 0.380D+00 0.661D+00
 Coeff-En:   0.000D+00 0.000D+00 0.100D+01
 Coeff:     -0.392D-01 0.360D+00 0.679D+00
 Gap=     0.240 Goal=   None    Shift=    0.000
 RMSDP=4.78D-04 MaxDP=1.71D-02 DE=-1.69D-01 OVMax= 6.23D-02

 Cycle   4  Pass 0  IDiag  1:
 E= -764.455758502200     Delta-E=       -0.018310209330 Rises=F Damp=F
 DIIS: error= 2.44D-03 at cycle   4 NSaved=   4.
 NSaved= 4 IEnMin= 4 EnMin= -764.455758502200     IErMin= 4 ErrMin= 2.44D-03
 ErrMax= 2.44D-03  0.00D+00 EMaxC= 1.00D-01 BMatC= 4.67D-03 BMatP= 2.77D-02
 IDIUse=3 WtCom= 9.76D-01 WtEn= 2.44D-02
 Coeff-Com: -0.474D-01 0.898D-01 0.327D+00 0.631D+00
 Coeff-En:   0.000D+00 0.000D+00 0.202D-01 0.980D+00
 Coeff:     -0.462D-01 0.876D-01 0.320D+00 0.639D+00
 Gap=     0.246 Goal=   None    Shift=    0.000
 RMSDP=1.46D-04 MaxDP=6.91D-03 DE=-1.83D-02 OVMax= 1.59D-02

 Cycle   5  Pass 0  IDiag  1:
 E= -764.458728435798     Delta-E=       -0.002969933598 Rises=F Damp=F
 DIIS: error= 4.40D-04 at cycle   5 NSaved=   5.
 NSaved= 5 IEnMin= 5 EnMin= -764.458728435798     IErMin= 5 ErrMin= 4.40D-04
 ErrMax= 4.40D-04  0.00D+00 EMaxC= 1.00D-01 BMatC= 1.97D-04 BMatP= 4.67D-03
 IDIUse=3 WtCom= 9.96D-01 WtEn= 4.40D-03
 Coeff-Com: -0.153D-01 0.191D-01 0.712D-01 0.235D+00 0.690D+00
 Coeff-En:   0.000D+00 0.000D+00 0.000D+00 0.000D+00 0.100D+01
 Coeff:     -0.153D-01 0.190D-01 0.709D-01 0.234D+00 0.691D+00
 Gap=     0.247 Goal=   None    Shift=    0.000
 RMSDP=4.69D-05 MaxDP=3.51D-03 DE=-2.97D-03 OVMax= 4.48D-03

 Cycle   6  Pass 0  IDiag  1:
 E= -764.458887679791     Delta-E=       -0.000159243993 Rises=F Damp=F
 DIIS: error= 1.35D-04 at cycle   6 NSaved=   6.
 NSaved= 6 IEnMin= 6 EnMin= -764.458887679791     IErMin= 6 ErrMin= 1.35D-04
 ErrMax= 1.35D-04  0.00D+00 EMaxC= 1.00D-01 BMatC= 1.56D-05 BMatP= 1.97D-04
 IDIUse=3 WtCom= 9.99D-01 WtEn= 1.35D-03
 Coeff-Com:  0.159D-02-0.491D-02-0.261D-01-0.176D-01 0.186D+00 0.861D+00
 Coeff-En:   0.000D+00 0.000D+00 0.000D+00 0.000D+00 0.000D+00 0.100D+01
 Coeff:      0.159D-02-0.490D-02-0.261D-01-0.176D-01 0.186D+00 0.861D+00
 Gap=     0.247 Goal=   None    Shift=    0.000
 RMSDP=1.79D-05 MaxDP=4.66D-04 DE=-1.59D-04 OVMax= 2.41D-03

 Cycle   7  Pass 0  IDiag  1:
 E= -764.458908115087     Delta-E=       -0.000020435296 Rises=F Damp=F
 DIIS: error= 5.79D-05 at cycle   7 NSaved=   7.
 NSaved= 7 IEnMin= 7 EnMin= -764.458908115087     IErMin= 7 ErrMin= 5.79D-05
 ErrMax= 5.79D-05  0.00D+00 EMaxC= 1.00D-01 BMatC= 2.65D-06 BMatP= 1.56D-05
 IDIUse=1 WtCom= 1.00D+00 WtEn= 0.00D+00
 Coeff-Com:  0.220D-02-0.400D-02-0.182D-01-0.306D-01 0.911D-02 0.363D+00
 Coeff-Com:  0.678D+00
 Coeff:      0.220D-02-0.400D-02-0.182D-01-0.306D-01 0.911D-02 0.363D+00
 Coeff:      0.678D+00
 Gap=     0.247 Goal=   None    Shift=    0.000
 RMSDP=7.14D-06 MaxDP=3.11D-04 DE=-2.04D-05 OVMax= 1.04D-03

 Initial convergence to 1.0D-05 achieved.  Increase integral accuracy.
 Cycle   8  Pass 1  IDiag  1:
 E= -764.458999069129     Delta-E=       -0.000090954042 Rises=F Damp=F
 DIIS: error= 2.03D-05 at cycle   1 NSaved=   1.
 NSaved= 1 IEnMin= 1 EnMin= -764.458999069129     IErMin= 1 ErrMin= 2.03D-05
 ErrMax= 2.03D-05  0.00D+00 EMaxC= 1.00D-01 BMatC= 9.05D-07 BMatP= 9.05D-07
 IDIUse=1 WtCom= 1.00D+00 WtEn= 0.00D+00
 Coeff-Com:  0.100D+01
 Coeff:      0.100D+01
 Gap=     0.247 Goal=   None    Shift=    0.000
 RMSDP=7.14D-06 MaxDP=3.11D-04 DE=-9.10D-05 OVMax= 4.22D-04

 Cycle   9  Pass 1  IDiag  1:
 E= -764.458999702797     Delta-E=       -0.000000633668 Rises=F Damp=F
 DIIS: error= 1.87D-05 at cycle   2 NSaved=   2.
 NSaved= 2 IEnMin= 2 EnMin= -764.458999702797     IErMin= 2 ErrMin= 1.87D-05
 ErrMax= 1.87D-05  0.00D+00 EMaxC= 1.00D-01 BMatC= 2.98D-07 BMatP= 9.05D-07
 IDIUse=1 WtCom= 1.00D+00 WtEn= 0.00D+00
 Coeff-Com:  0.305D+00 0.695D+00
 Coeff:      0.305D+00 0.695D+00
 Gap=     0.247 Goal=   None    Shift=    0.000
 RMSDP=2.44D-06 MaxDP=1.15D-04 DE=-6.34D-07 OVMax= 2.98D-04

 Cycle  10  Pass 1  IDiag  1:
 E= -764.458999865316     Delta-E=       -0.000000162519 Rises=F Damp=F
 DIIS: error= 1.04D-05 at cycle   3 NSaved=   3.
 NSaved= 3 IEnMin= 3 EnMin= -764.458999865316     IErMin= 3 ErrMin= 1.04D-05
 ErrMax= 1.04D-05  0.00D+00 EMaxC= 1.00D-01 BMatC= 1.16D-07 BMatP= 2.98D-07
 IDIUse=1 WtCom= 1.00D+00 WtEn= 0.00D+00
 Coeff-Com: -0.346D-01 0.376D+00 0.659D+00
 Coeff:     -0.346D-01 0.376D+00 0.659D+00
 Gap=     0.247 Goal=   None    Shift=    0.000
 RMSDP=9.74D-07 MaxDP=4.43D-05 DE=-1.63D-07 OVMax= 9.64D-05

 Cycle  11  Pass 1  IDiag  1:
 E= -764.458999954987     Delta-E=       -0.000000089671 Rises=F Damp=F
 DIIS: error= 1.73D-06 at cycle   4 NSaved=   4.
 NSaved= 4 IEnMin= 4 EnMin= -764.458999954987     IErMin= 4 ErrMin= 1.73D-06
 ErrMax= 1.73D-06  0.00D+00 EMaxC= 1.00D-01 BMatC= 3.28D-09 BMatP= 1.16D-07
 IDIUse=1 WtCom= 1.00D+00 WtEn= 0.00D+00
 Coeff-Com: -0.246D-01 0.107D+00 0.223D+00 0.695D+00
 Coeff:     -0.246D-01 0.107D+00 0.223D+00 0.695D+00
 Gap=     0.247 Goal=   None    Shift=    0.000
 RMSDP=2.45D-07 MaxDP=1.32D-05 DE=-8.97D-08 OVMax= 3.71D-05

 Cycle  12  Pass 1  IDiag  1:
 E= -764.458999958962     Delta-E=       -0.000000003975 Rises=F Damp=F
 DIIS: error= 9.78D-07 at cycle   5 NSaved=   5.
 NSaved= 5 IEnMin= 5 EnMin= -764.458999958962     IErMin= 5 ErrMin= 9.78D-07
 ErrMax= 9.78D-07  0.00D+00 EMaxC= 1.00D-01 BMatC= 8.44D-10 BMatP= 3.28D-09
 IDIUse=1 WtCom= 1.00D+00 WtEn= 0.00D+00
 Coeff-Com:  0.388D-03-0.547D-01-0.912D-01 0.286D+00 0.860D+00
 Coeff:      0.388D-03-0.547D-01-0.912D-01 0.286D+00 0.860D+00
 Gap=     0.247 Goal=   None    Shift=    0.000
 RMSDP=1.66D-07 MaxDP=5.92D-06 DE=-3.97D-09 OVMax= 3.15D-05

 Cycle  13  Pass 1  IDiag  1:
 E= -764.458999960429     Delta-E=       -0.000000001467 Rises=F Damp=F
 DIIS: error= 3.73D-07 at cycle   6 NSaved=   6.
 NSaved= 6 IEnMin= 6 EnMin= -764.458999960429     IErMin= 6 ErrMin= 3.73D-07
 ErrMax= 3.73D-07  0.00D+00 EMaxC= 1.00D-01 BMatC= 1.57D-10 BMatP= 8.44D-10
 IDIUse=1 WtCom= 1.00D+00 WtEn= 0.00D+00
 Coeff-Com:  0.368D-02-0.425D-01-0.792D-01 0.210D-01 0.406D+00 0.691D+00
 Coeff:      0.368D-02-0.425D-01-0.792D-01 0.210D-01 0.406D+00 0.691D+00
 Gap=     0.247 Goal=   None    Shift=    0.000
 RMSDP=6.25D-08 MaxDP=2.39D-06 DE=-1.47D-09 OVMax= 9.43D-06

 Cycle  14  Pass 1  IDiag  1:
 E= -764.458999960672     Delta-E=       -0.000000000243 Rises=F Damp=F
 DIIS: error= 6.27D-08 at cycle   7 NSaved=   7.
 NSaved= 7 IEnMin= 7 EnMin= -764.458999960672     IErMin= 7 ErrMin= 6.27D-08
 ErrMax= 6.27D-08  0.00D+00 EMaxC= 1.00D-01 BMatC= 5.18D-12 BMatP= 1.57D-10
 IDIUse=1 WtCom= 1.00D+00 WtEn= 0.00D+00
 Coeff-Com:  0.881D-03-0.438D-02-0.103D-01-0.184D-01 0.230D-01 0.140D+00
 Coeff-Com:  0.869D+00
 Coeff:      0.881D-03-0.438D-02-0.103D-01-0.184D-01 0.230D-01 0.140D+00
 Coeff:      0.869D+00
 Gap=     0.247 Goal=   None    Shift=    0.000
 RMSDP=1.89D-08 MaxDP=9.34D-07 DE=-2.43D-10 OVMax= 2.97D-06

 Cycle  15  Pass 1  IDiag  1:
 E= -764.458999960611     Delta-E=        0.000000000061 Rises=F Damp=F
 DIIS: error= 4.57D-08 at cycle   8 NSaved=   8.
 NSaved= 8 IEnMin= 7 EnMin= -764.458999960672     IErMin= 8 ErrMin= 4.57D-08
 ErrMax= 4.57D-08  0.00D+00 EMaxC= 1.00D-01 BMatC= 2.31D-12 BMatP= 5.18D-12
 IDIUse=1 WtCom= 1.00D+00 WtEn= 0.00D+00
 Coeff-Com: -0.178D-03 0.423D-02 0.670D-02-0.124D-01-0.490D-01-0.446D-01
 Coeff-Com:  0.417D+00 0.678D+00
 Coeff:     -0.178D-03 0.423D-02 0.670D-02-0.124D-01-0.490D-01-0.446D-01
 Coeff:      0.417D+00 0.678D+00
 Gap=     0.247 Goal=   None    Shift=    0.000
 RMSDP=8.90D-09 MaxDP=5.75D-07 DE= 6.12D-11 OVMax= 7.52D-07

 SCF Done:  E(RM062X) =  -764.458999961     A.U. after   15 cycles
            NFock= 15  Conv=0.89D-08     -V/T= 2.0015
 KE= 7.633032634910D+02 PE=-3.133649470073D+03 EE= 9.455307743285D+02
 Leave Link  502 at Sat May 24 02:01:32 2025, MaxMem=  3758096384 cpu:             131.1 elap:              32.6
 (Enter /apps/easybuild-2022/easybuild/software/Compiler/NVHPC/22.11-CUDA-11.7.0/Gaussian/g16c01-CUDA-11.7.0/g16/l508.exe)
 QCSCF skips out because SCF is already converged.
 Leave Link  508 at Sat May 24 02:01:32 2025, MaxMem=  3758096384 cpu:               0.1 elap:               0.0
 (Enter /apps/easybuild-2022/easybuild/software/Compiler/NVHPC/22.11-CUDA-11.7.0/Gaussian/g16c01-CUDA-11.7.0/g16/l801.exe)
 DoSCS=F DFT=T ScalE2(SS,OS)=  1.000000  1.000000
 Range of M.O.s used for correlation:     1   324
 NBasis=   324 NAE=    40 NBE=    40 NFC=     0 NFV=     0
 NROrb=    324 NOA=    40 NOB=    40 NVA=   284 NVB=   284

 **** Warning!!: The largest alpha MO coefficient is  0.13241256D+02

 Leave Link  801 at Sat May 24 02:01:32 2025, MaxMem=  3758096384 cpu:               0.1 elap:               0.0
 (Enter /apps/easybuild-2022/easybuild/software/Compiler/NVHPC/22.11-CUDA-11.7.0/Gaussian/g16c01-CUDA-11.7.0/g16/l1101.exe)
 Using compressed storage, NAtomX=    11.
 Will process     12 centers per pass.
   1 Symmetry operations used in ECPInt.
 ECPInt:  NShTT=    6786 NPrTT=   21959 LenC2=    6535 LenP2D=   16117.
 LDataN:  DoStor=T MaxTD1= 7 Len=  274
 Leave Link 1101 at Sat May 24 02:01:33 2025, MaxMem=  3758096384 cpu:               1.3 elap:               0.3
 (Enter /apps/easybuild-2022/easybuild/software/Compiler/NVHPC/22.11-CUDA-11.7.0/Gaussian/g16c01-CUDA-11.7.0/g16/l1102.exe)
 Symmetrizing basis deriv contribution to polar:
 IMax=3 JMax=2 DiffMx= 0.00D+00
 Leave Link 1102 at Sat May 24 02:01:33 2025, MaxMem=  3758096384 cpu:               0.1 elap:               0.0
 (Enter /apps/easybuild-2022/easybuild/software/Compiler/NVHPC/22.11-CUDA-11.7.0/Gaussian/g16c01-CUDA-11.7.0/g16/l1110.exe)
 Forming Gx(P) for the SCF density, NAtomX=    11.
 Integral derivatives from FoFJK, PRISM(SPDF).
 Do as many integral derivatives as possible in FoFJK.
 G2DrvN: MDV=    3758095115.
 G2DrvN: will do    12 centers at a time, making    1 passes.
 Calling FoFCou, ICntrl=  3107 FMM=F I1Cent=   0 AccDes= 0.00D+00.
 FoFJK:  IHMeth= 1 ICntrl=    3107 DoSepK=F KAlg= 0 I1Cent=           0 FoldK=F
 IRaf=         0 NMat=       1 IRICut=       1 DoRegI=T DoRafI=F ISym2E= 0 IDoP0=0 IntGTp=1.
 FoFCou: FMM=F IPFlag=           0 FMFlag=      100000 FMFlg1=           0
         NFxFlg=           0 DoJE=F BraDBF=F KetDBF=F FulRan=T
         wScrn=  0.000000 ICntrl=      3107 IOpCl=  0 I1Cent=           0 NGrid=           0
         NMat0=    1 NMatS0=      1 NMatT0=    0 NMatD0=    1 NMtDS0=    0 NMtDT0=    0
 Symmetry not used in FoFCou.
 End of G2Drv F.D. properties file   721 does not exist.
 End of G2Drv F.D. properties file   722 does not exist.
 End of G2Drv F.D. properties file   788 does not exist.
 Leave Link 1110 at Sat May 24 02:02:18 2025, MaxMem=  3758096384 cpu:             352.1 elap:              44.7
 (Enter /apps/easybuild-2022/easybuild/software/Compiler/NVHPC/22.11-CUDA-11.7.0/Gaussian/g16c01-CUDA-11.7.0/g16/l1002.exe)
 Minotr:  Closed shell wavefunction.
          IDoAtm=11111111111
          Direct CPHF calculation.
          Differentiating once with respect to electric field.
                with respect to dipole field.
          Differentiating once with respect to nuclear coordinates.
          Requested convergence is 1.0D-08 RMS, and 1.0D-07 maximum.
          Secondary convergence is 1.0D-12 RMS, and 1.0D-12 maximum.
          NewPWx=T KeepS1=F KeepF1=F KeepIn=T MapXYZ=F SortEE=F KeepMc=T.
         3293 words used for storage of precomputed grid.
 Keep R1 ints in memory in canonical form, NReq=1412622523.
 FoFCou: FMM=F IPFlag=           0 FMFlag=           0 FMFlg1=           0
         NFxFlg=           0 DoJE=F BraDBF=F KetDBF=F FulRan=T
         wScrn=  0.000000 ICntrl=       600 IOpCl=  0 I1Cent=           0 NGrid=           0
         NMat0=    1 NMatS0=  52650 NMatT0=    0 NMatD0=    1 NMtDS0=    0 NMtDT0=    0
 Symmetry not used in FoFCou.
 Two-electron integral symmetry not used.
          MDV=    3758096384 using IRadAn=       1.
          Solving linear equations simultaneously, MaxMat=       0.
          There are    36 degrees of freedom in the 1st order CPHF.  IDoFFX=6 NUNeed=     3.
     33 vectors produced by pass  0 Test12= 3.16D-14 2.78D-09 XBig12= 3.23D+01 3.55D+00.
 AX will form    33 AO Fock derivatives at one time.
     33 vectors produced by pass  1 Test12= 3.16D-14 2.78D-09 XBig12= 3.88D+00 3.51D-01.
     33 vectors produced by pass  2 Test12= 3.16D-14 2.78D-09 XBig12= 9.63D-02 5.96D-02.
     33 vectors produced by pass  3 Test12= 3.16D-14 2.78D-09 XBig12= 2.55D-03 9.69D-03.
     33 vectors produced by pass  4 Test12= 3.16D-14 2.78D-09 XBig12= 3.33D-05 1.08D-03.
     33 vectors produced by pass  5 Test12= 3.16D-14 2.78D-09 XBig12= 3.19D-07 7.84D-05.
     33 vectors produced by pass  6 Test12= 3.16D-14 2.78D-09 XBig12= 1.84D-09 4.69D-06.
     14 vectors produced by pass  7 Test12= 3.16D-14 2.78D-09 XBig12= 1.08D-11 4.17D-07.
      3 vectors produced by pass  8 Test12= 3.16D-14 2.78D-09 XBig12= 5.25D-14 2.38D-08.
 InvSVY:  IOpt=1 It=  1 EMax= 2.66D-15
 Solved reduced A of dimension   248 with    36 vectors.
 FullF1:  Do perturbations      1 to       3.
 Isotropic polarizability for W=    0.000000       50.43 Bohr**3.
 End of Minotr F.D. properties file   721 does not exist.
 End of Minotr F.D. properties file   722 does not exist.
 End of Minotr F.D. properties file   788 does not exist.
 Leave Link 1002 at Sat May 24 02:03:34 2025, MaxMem=  3758096384 cpu:             570.5 elap:              76.1
 (Enter /apps/easybuild-2022/easybuild/software/Compiler/NVHPC/22.11-CUDA-11.7.0/Gaussian/g16c01-CUDA-11.7.0/g16/l701.exe)
 ... and contract with generalized density number  0.
 Compute integral second derivatives.
   1 Symmetry operations used in ECPInt.
 ECPInt:  NShTT=    6786 NPrTT=   21959 LenC2=    6535 LenP2D=   16117.
 LDataN:  DoStor=T MaxTD1= 8 Len=  415
 Leave Link  701 at Sat May 24 02:03:34 2025, MaxMem=  3758096384 cpu:               1.1 elap:               0.2
 (Enter /apps/easybuild-2022/easybuild/software/Compiler/NVHPC/22.11-CUDA-11.7.0/Gaussian/g16c01-CUDA-11.7.0/g16/l702.exe)
 L702 exits ... SP integral derivatives will be done elsewhere.
 Leave Link  702 at Sat May 24 02:03:34 2025, MaxMem=  3758096384 cpu:               0.1 elap:               0.1
 (Enter /apps/easybuild-2022/easybuild/software/Compiler/NVHPC/22.11-CUDA-11.7.0/Gaussian/g16c01-CUDA-11.7.0/g16/l703.exe)
 Integral derivatives from FoFJK, PRISM(SPDF).
 Compute integral second derivatives, UseDBF=F ICtDFT=           0.
 Calling FoFJK, ICntrl=    100127 FMM=F ISym2X=0 I1Cent= 0 IOpClX= 0 NMat=1 NMatS=1 NMatT=0.
 FoFJK:  IHMeth= 1 ICntrl=  100127 DoSepK=F KAlg= 0 I1Cent=           0 FoldK=F
 IRaf=         0 NMat=       1 IRICut=       1 DoRegI=T DoRafI=F ISym2E= 0 IDoP0=0 IntGTp=1.
 FoFCou: FMM=F IPFlag=           0 FMFlag=      100000 FMFlg1=         800
         NFxFlg=           0 DoJE=F BraDBF=F KetDBF=F FulRan=T
         wScrn=  0.000000 ICntrl=    100127 IOpCl=  0 I1Cent=           0 NGrid=           0
         NMat0=    1 NMatS0=      1 NMatT0=    0 NMatD0=    1 NMtDS0=    0 NMtDT0=    0
 Symmetry not used in FoFCou.
 Leave Link  703 at Sat May 24 02:05:29 2025, MaxMem=  3758096384 cpu:             786.6 elap:             114.8
 (Enter /apps/easybuild-2022/easybuild/software/Compiler/NVHPC/22.11-CUDA-11.7.0/Gaussian/g16c01-CUDA-11.7.0/g16/l716.exe)
 Dipole        =-5.85473588D-01 3.67011948D-01-7.75632673D-01
 Polarizability= 5.31500672D+01 1.56318948D+00 4.48823172D+01
                 2.52973860D+00 4.03216132D+00 5.32615030D+01
 -------------------------------------------------------------------
 Center     Atomic                   Forces (Hartrees/Bohr)
 Number     Number              X              Y              Z
 -------------------------------------------------------------------
      1        6          -0.083002544   -0.015105359   -0.041972619
      2        8           0.036758876   -0.038548894    0.030351175
      3        6           0.151732737    0.032590737    0.017686997
      4        6           0.058120818   -0.033060038   -0.106590715
      5        9          -0.091775602    0.086897766   -0.041907041
      6        9          -0.054429596   -0.113107291    0.036089227
      7        9           0.091228996    0.070213182    0.139134876
      8        9          -0.065921427    0.065391178   -0.045915486
      9        9          -0.038663632   -0.090019093    0.016884869
     10        8           0.001112434    0.040772753   -0.006830786
     11        1          -0.005161060   -0.006024940    0.003069504
 -------------------------------------------------------------------
 Cartesian Forces:  Max     0.151732737 RMS     0.065750597
 Force constants in Cartesian coordinates: 
                1             2             3             4             5 
      1  0.557250D+00
      2 -0.262387D+00  0.826863D+00
      3  0.127808D+00 -0.285200D+00  0.110298D+00
      4 -0.422164D+00  0.358065D+00 -0.143921D+00  0.491631D+00
      5  0.316066D+00 -0.424598D+00  0.143604D+00 -0.414315D+00  0.482651D+00
      6 -0.130456D+00  0.144882D+00 -0.870075D-01  0.177610D+00 -0.177817D+00
      7 -0.106831D+00  0.150700D-01  0.746963D-01 -0.237639D-01 -0.619343D-02
      8 -0.655097D-02 -0.290133D-01  0.647768D-01  0.302011D-01 -0.740670D-03
      9  0.800566D-02  0.450142D-01  0.108417D+00 -0.206164D-01  0.112428D-01
     10  0.755496D-02 -0.424260D-01 -0.121413D+00 -0.267892D-01  0.224419D-01
     11  0.222232D-01 -0.253907D-01 -0.216537D-01  0.854539D-02 -0.626510D-02
     12  0.615878D-01 -0.453316D-02 -0.419609D-01 -0.355487D-01  0.173091D-01
     13  0.116344D-01  0.157101D-01 -0.131234D-01 -0.155270D-01  0.740337D-02
     14 -0.125618D-01 -0.487238D-02  0.205458D-01  0.103538D-01 -0.395012D-02
     15 -0.975230D-02 -0.784816D-03  0.170008D-01  0.917785D-02 -0.535524D-02
     16  0.123329D-01 -0.187987D-01  0.851269D-02 -0.249997D-02  0.635006D-02
     17  0.108160D-01 -0.111036D-01  0.994612D-03 -0.597100D-02  0.832879D-02
     18 -0.210401D-01  0.228804D-01  0.129403D-01  0.936576D-02 -0.988930D-02
     19 -0.576661D-02  0.929718D-02  0.261597D-01  0.649826D-02 -0.470188D-02
     20 -0.121065D-01 -0.607373D-02 -0.239704D-01  0.111138D-02  0.127595D-02
     21 -0.295465D-01 -0.242742D-01 -0.649421D-01  0.107891D-01 -0.157449D-02
     22  0.365446D-01  0.309372D-01 -0.202747D-02 -0.235570D-01  0.723895D-02
     23 -0.237801D-01  0.898742D-02  0.349076D-01  0.598855D-02 -0.534397D-02
     24 -0.155363D-02  0.142698D-01 -0.152700D-01 -0.820545D-02 -0.271346D-02
     25  0.378574D-01 -0.195376D-01  0.237839D-01 -0.729113D-02  0.146578D-01
     26  0.340629D-01 -0.287057D-01 -0.224406D-01 -0.125657D-01  0.170817D-01
     27 -0.173615D-01 -0.507793D-02  0.171518D-01  0.495215D-02 -0.604949D-02
     28 -0.117513D+00 -0.781228D-01  0.173039D-01  0.237097D-01  0.443775D-01
     29 -0.112741D-01 -0.296281D+00  0.847300D-01  0.115155D-01 -0.718340D-01
     30 -0.691951D-02  0.875277D-01 -0.600492D-01 -0.115687D-02  0.336847D-01
     31 -0.108997D-01 -0.780763D-02  0.222005D-02 -0.246365D-03  0.667528D-02
     32 -0.545072D-01 -0.981202D-02  0.370545D-02  0.707075D-02  0.339493D-02
     33  0.192278D-01  0.529556D-02  0.342128D-02 -0.244703D-02 -0.244177D-02
                6             7             8             9            10 
      6  0.977771D-01
      7 -0.413006D-01  0.619954D+00
      8  0.636580D-02  0.868514D-02  0.966738D+00
      9 -0.334105D-01  0.182320D+00 -0.310880D+00  0.223580D+00
     10  0.266543D-01  0.118645D+00  0.391115D-01  0.765035D-01  0.623981D+00
     11 -0.998097D-03  0.550220D-02  0.325153D-01 -0.155755D-01  0.779333D-01
     12  0.246122D-02 -0.173845D-01 -0.280498D-01 -0.334447D-01  0.300889D+00
     13  0.243214D-02 -0.345187D-01  0.948367D-02  0.592840D-02 -0.327780D+00
     14 -0.407774D-02  0.174792D-01 -0.151636D-01 -0.158232D-01  0.257310D+00
     15 -0.199979D-02 -0.173504D-02 -0.822652D-03 -0.181884D-01 -0.949781D-01
     16 -0.595681D-02 -0.260266D-01 -0.904629D-02  0.685089D-02 -0.162018D+00
     17 -0.342579D-02 -0.184934D-01 -0.152558D-01  0.106639D-01 -0.205041D+00
     18  0.171429D-02  0.132434D-01 -0.337918D-02 -0.247229D-01  0.864757D-01
     19 -0.224028D-02 -0.163191D-01 -0.363745D-02 -0.544395D-02 -0.160678D+00
     20  0.646607D-02  0.153470D-01 -0.148608D-03  0.558356D-02 -0.140408D+00
     21  0.165752D-01  0.441475D-01  0.122307D-01  0.119341D-01 -0.301613D+00
     22 -0.985380D-02 -0.333007D+00  0.241181D+00 -0.257215D+00 -0.376014D-01
     23 -0.686604D-02  0.230213D+00 -0.292412D+00  0.199882D+00  0.434948D-01
     24  0.332825D-04 -0.230933D+00  0.215655D+00 -0.189454D+00 -0.159116D-01
     25 -0.923296D-03 -0.187694D+00 -0.281236D+00 -0.158896D-01 -0.242090D-01
     26  0.390671D-02 -0.254560D+00 -0.607111D+00  0.682013D-01 -0.494344D-01
     27 -0.274098D-02 -0.254007D-04  0.602584D-01 -0.310308D-01  0.171431D-01
     28 -0.139272D-01 -0.908577D-02 -0.292000D-01  0.178589D-01 -0.109186D-01
     29  0.342318D-01 -0.109474D-01 -0.337417D-01 -0.351679D-03 -0.444120D-02
     30  0.954077D-02 -0.202890D-01 -0.107756D-01 -0.789531D-02  0.219149D-01
     31 -0.203855D-02 -0.135177D-02  0.100839D-02  0.169717D-02 -0.186626D-03
     32 -0.266804D-02 -0.210149D-02 -0.566744D-02  0.204321D-02  0.145913D-02
     33 -0.294315D-02 -0.273918D-02 -0.537961D-02 -0.578460D-02  0.433524D-02
               11            12            13            14            15 
     11  0.915751D+00
     12  0.190533D-01  0.808726D+00
     13  0.254843D+00 -0.127624D+00  0.375525D+00
     14 -0.275542D+00  0.112088D+00 -0.308882D+00  0.364066D+00
     15  0.929523D-01 -0.960189D-01  0.199028D+00 -0.161919D+00  0.162758D+00
     16 -0.220260D+00  0.691125D-01  0.267089D-01  0.408833D-01 -0.171734D-01
     17 -0.442276D+00  0.123617D+00  0.406059D-02 -0.102759D+00  0.515494D-01
     18  0.149113D+00 -0.983874D-01 -0.114953D-02  0.422940D-01 -0.194995D-02
     19 -0.121708D+00 -0.252468D+00 -0.601140D-01  0.213821D-02 -0.944565D-01
     20 -0.156074D+00 -0.241480D+00  0.250322D-01  0.268897D-01  0.364752D-01
     21 -0.251242D+00 -0.539073D+00 -0.649757D-01  0.107252D-01 -0.509744D-01
     22  0.238340D-02  0.433662D-02  0.165999D-01 -0.597068D-02  0.834027D-02
     23 -0.511523D-02 -0.168871D-02 -0.110896D-01  0.358169D-02 -0.131397D-01
     24  0.241241D-03  0.184908D-04  0.908919D-03 -0.320387D-03 -0.940577D-02
     25 -0.499119D-02  0.625673D-02  0.709672D-02 -0.300089D-02 -0.492416D-03
     26 -0.169202D-01  0.990481D-02  0.939799D-02  0.663920D-03 -0.112645D-03
     27  0.682125D-02 -0.522464D-02 -0.295660D-02  0.101347D-02  0.100002D-02
     28 -0.238555D-01 -0.854966D-02 -0.188222D-03  0.227455D-02  0.225531D-02
     29 -0.197799D-01 -0.666168D-02 -0.634097D-02  0.707489D-02  0.169514D-02
     30  0.148041D-01 -0.337056D-04  0.206833D-02 -0.359178D-02 -0.182243D-02
     31 -0.615380D-03 -0.608420D-03  0.563125D-03 -0.238651D-04 -0.214033D-03
     32 -0.903486D-03  0.440945D-03  0.381413D-03  0.100125D-04 -0.537648D-03
     33  0.648378D-02  0.293810D-02 -0.537184D-03 -0.933588D-03 -0.399711D-03
               16            17            18            19            20 
     16  0.168817D+00
     17  0.270133D+00  0.627457D+00
     18 -0.488008D-01 -0.145571D+00  0.110044D+00
     19 -0.290912D-01 -0.662689D-01 -0.426340D-01  0.253467D+00
     20 -0.672927D-01 -0.727432D-01 -0.616752D-01  0.182526D+00  0.199467D+00
     21 -0.153763D-01 -0.259404D-01  0.175931D-01  0.378250D+00  0.277769D+00
     22  0.808627D-02  0.411279D-02 -0.373731D-02  0.550059D-02 -0.524201D-02
     23 -0.671749D-02 -0.116146D-02  0.150259D-02 -0.520693D-02  0.548843D-02
     24  0.315745D-02  0.521283D-03  0.431850D-03  0.142248D-04 -0.183289D-02
     25  0.104557D-01  0.979374D-02 -0.509377D-03  0.394166D-02 -0.270042D-02
     26  0.993535D-02  0.977896D-02 -0.184039D-03  0.494527D-02 -0.413638D-02
     27 -0.536369D-02 -0.149945D-01 -0.102657D-01 -0.366442D-02  0.139429D-02
     28 -0.730616D-02 -0.338701D-02  0.908592D-02  0.241222D-02  0.357272D-02
     29 -0.513103D-02 -0.453481D-03  0.497617D-02  0.278591D-02  0.613941D-02
     30  0.309471D-02  0.179455D-02 -0.481723D-02 -0.243943D-02  0.231712D-02
     31  0.541130D-03  0.245416D-03 -0.299588D-03  0.149293D-03  0.159841D-03
     32 -0.553179D-04  0.187834D-03 -0.677775D-04 -0.169438D-03 -0.851364D-04
     33  0.194285D-02  0.790054D-03 -0.258038D-02 -0.107788D-02 -0.104745D-02
               21            22            23            24            25 
     21  0.597596D+00
     22 -0.137049D-01  0.290246D+00
     23  0.132508D-01 -0.275370D+00  0.385142D+00
     24 -0.391902D-02  0.255710D+00 -0.271003D+00  0.216498D+00
     25 -0.101545D-01  0.370623D-01  0.414001D-01 -0.767207D-03  0.131758D+00
     26 -0.163797D-01  0.885797D-02 -0.104864D+00  0.488693D-01  0.258318D+00
     27  0.713698D-02  0.110821D-01  0.523911D-01 -0.229419D-02  0.151496D-02
     28  0.214767D-02 -0.674934D-03  0.128642D-02 -0.244163D-02 -0.104507D-01
     29  0.541552D-02 -0.921732D-02  0.583425D-02 -0.382985D-02 -0.113886D-01
     30  0.859629D-02  0.702079D-02 -0.813056D-02  0.281308D-02 -0.599953D-03
     31  0.361560D-04  0.800071D-03 -0.218208D-03  0.218097D-04  0.147382D-02
     32  0.187280D-04  0.108877D-02 -0.137829D-03  0.142640D-03 -0.131429D-02
     33 -0.522466D-03  0.478138D-04 -0.110566D-02  0.548323D-03 -0.221927D-02
               26            27            28            29            30 
     26  0.738466D+00
     27 -0.955059D-01  0.298665D-01
     28 -0.983073D-02 -0.492135D-02  0.626456D+00
     29 -0.383575D-02  0.129998D-02  0.119730D+00  0.450773D+00
     30  0.327367D-02 -0.348659D-02 -0.238770D-01 -0.136341D+00  0.632859D-01
     31  0.874048D-03 -0.399364D-03 -0.496441D+00 -0.752904D-01  0.211830D-01
     32 -0.418559D-03 -0.155061D-02 -0.268449D-01 -0.438955D-01  0.154375D-01
     33  0.467137D-03 -0.112314D-03  0.506509D-02  0.148360D-01 -0.613157D-02
               31            32            33 
     31  0.505598D+00
     32  0.749926D-01  0.573272D-01
     33 -0.215983D-01 -0.169644D-01  0.115665D-01
 FormGI is forming the generalized inverse of G from B-inverse, IUseBI=4.
 Leave Link  716 at Sat May 24 02:05:29 2025, MaxMem=  3758096384 cpu:               0.1 elap:               0.1
 (Enter /apps/easybuild-2022/easybuild/software/Compiler/NVHPC/22.11-CUDA-11.7.0/Gaussian/g16c01-CUDA-11.7.0/g16/l103.exe)

 GradGradGradGradGradGradGradGradGradGradGradGradGradGradGradGradGradGrad
 Berny optimization.
 Red2BG is reusing G-inverse.
 Internal  Forces:  Max     0.180349331 RMS     0.047875880
 Search for a saddle point.
 Step number   1 out of a maximum of  100
 All quantities printed in internal units (Hartrees-Bohrs-Radians)
 Swapping is turned off.
 Second derivative matrix not updated -- analytic derivatives used.
 ITU=  0
     Eigenvalues ---   -0.16468  -0.00190   0.00301   0.01728   0.03455
     Eigenvalues ---    0.04119   0.05417   0.09787   0.10810   0.11970
     Eigenvalues ---    0.13699   0.13955   0.16000   0.18473   0.24173
     Eigenvalues ---    0.29479   0.31981   0.37688   0.49162   0.52319
     Eigenvalues ---    0.70439   0.71938   0.75649   0.80638   0.94157
     Eigenvalues ---    1.00347   1.10007
 Eigenvectors required to have negative eigenvalues:
                          R2        R3        A4        D17       A12
   1                   -0.64085   0.49373  -0.23311  -0.22972  -0.21703
                          D2        D5        D14       D16       A1
   1                   -0.20084   0.18510   0.11903   0.11203   0.10928
 Eigenvalue     2 is  -1.90D-03 should be greater than     0.000000 Eigenvector:
                          D10       D11       D7        D13       D12
   1                    0.36216   0.35712   0.31459   0.31291   0.31071
                          D8        D14       D9        D15       A11
   1                    0.30955   0.30787   0.26314   0.26146  -0.14176
 RFO step:  Lambda0=1.935952930D-03 Lambda=-9.93335114D-02.
 Linear search not attempted -- option 19 set.
 Maximum step size (   0.300) exceeded in Quadratic search.
    -- Step size scaled by   0.734
 Iteration  1 RMS(Cart)=  0.12790655 RMS(Int)=  0.00911082
 Iteration  2 RMS(Cart)=  0.01160257 RMS(Int)=  0.00098801
 Iteration  3 RMS(Cart)=  0.00010304 RMS(Int)=  0.00098487
 Iteration  4 RMS(Cart)=  0.00000013 RMS(Int)=  0.00098487
 ITry= 1 IFail=0 DXMaxC= 3.81D-01 DCOld= 1.00D+10 DXMaxT= 3.00D-01 DXLimC= 3.00D+00 Rises=F
 Variable       Old X    -DE/DX   Delta X   Delta X   Delta X     New X
                                 (Linear)    (Quad)   (Total)
    R1        2.23452   0.05917   0.00000   0.04003   0.04003   2.27455
    R2        3.15587  -0.03442   0.00000  -0.05179  -0.05179   3.10407
    R3        3.59048   0.01599   0.00000  -0.11892  -0.11892   3.47156
    R4        2.51481   0.03260   0.00000   0.04813   0.04813   2.56294
    R5        2.27839   0.10318   0.00000   0.06327   0.06327   2.34167
    R6        2.27699   0.09907   0.00000   0.06202   0.06202   2.33900
    R7        2.33954   0.13310   0.00000   0.09513   0.09513   2.43468
    R8        2.33768   0.13054   0.00000   0.08379   0.08379   2.42147
    R9        2.26204   0.18035   0.00000   0.10718   0.10718   2.36923
   R10        1.82954  -0.00607   0.00000  -0.00538  -0.00538   1.82416
    A1        2.07062  -0.01132   0.00000   0.01130   0.01367   2.08429
    A2        2.04904  -0.02036   0.00000  -0.06169  -0.06324   1.98580
    A3        2.17660   0.01608   0.00000   0.00950   0.00845   2.18505
    A4        1.32260   0.05612   0.00000   0.09907   0.09972   1.42232
    A5        1.85240  -0.01126   0.00000  -0.03637  -0.03778   1.81461
    A6        1.79980  -0.01682   0.00000   0.00963   0.01080   1.81060
    A7        2.15438   0.00202   0.00000  -0.01247  -0.01305   2.14133
    A8        2.13621  -0.00641   0.00000   0.01497   0.01439   2.15060
    A9        1.97826   0.00274   0.00000  -0.01269  -0.01329   1.96497
   A10        1.98436   0.00641   0.00000   0.08287   0.08279   2.06715
   A11        1.95379   0.00208   0.00000  -0.08114  -0.08026   1.87353
   A12        1.77729  -0.01716   0.00000   0.01776   0.01639   1.79368
   A13        1.90917   0.00040   0.00000  -0.00680  -0.00523   1.90394
   A14        1.91537   0.00374   0.00000  -0.01304  -0.01512   1.90025
   A15        1.91979   0.00378   0.00000   0.00105   0.00072   1.92050
   A16        1.91614  -0.01076   0.00000  -0.03200  -0.03200   1.88414
    D1       -2.81647  -0.00346   0.00000   0.01734   0.01816  -2.79831
    D2        0.51845   0.00728   0.00000   0.08671   0.08745   0.60589
    D3        1.48161  -0.00788   0.00000   0.04002   0.03869   1.52030
    D4       -1.46666   0.00285   0.00000   0.10938   0.10798  -1.35869
    D5       -0.26049  -0.00638   0.00000  -0.00248  -0.00185  -0.26234
    D6        3.07442   0.00436   0.00000   0.06689   0.06744  -3.14133
    D7       -3.06436  -0.01286   0.00000   0.15295   0.15507  -2.90929
    D8       -0.88993  -0.00556   0.00000   0.14361   0.14431  -0.74561
    D9        1.16005  -0.00988   0.00000   0.11870   0.11944   1.27949
   D10       -1.05401   0.00058   0.00000   0.21287   0.21259  -0.84141
   D11        1.12043   0.00788   0.00000   0.20354   0.20184   1.32227
   D12       -3.11278   0.00356   0.00000   0.17862   0.17696  -2.93582
   D13        0.75431   0.00224   0.00000   0.19052   0.19147   0.94578
   D14        2.92874   0.00954   0.00000   0.18118   0.18072   3.10946
   D15       -1.30446   0.00522   0.00000   0.15626   0.15584  -1.14862
   D16        0.01626   0.00655   0.00000   0.01673   0.01751   0.03376
   D17       -2.49414   0.02243   0.00000   0.03887   0.03830  -2.45583
   D18        2.41467  -0.03065   0.00000  -0.06164  -0.06186   2.35281
         Item               Value     Threshold  Converged?
 Maximum Force            0.180349     0.000450     NO 
 RMS     Force            0.047876     0.000300     NO 
 Maximum Displacement     0.381414     0.001800     NO 
 RMS     Displacement     0.132696     0.001200     NO 
 Predicted change in Energy=-4.983433D-02
 Lowest energy point so far.  Saving SCF results.
 GradGradGradGradGradGradGradGradGradGradGradGradGradGradGradGradGradGrad

 Leave Link  103 at Sat May 24 02:05:29 2025, MaxMem=  3758096384 cpu:               0.1 elap:               0.0
 (Enter /apps/easybuild-2022/easybuild/software/Compiler/NVHPC/22.11-CUDA-11.7.0/Gaussian/g16c01-CUDA-11.7.0/g16/l202.exe)
                          Input orientation:                          
 ---------------------------------------------------------------------
 Center     Atomic      Atomic             Coordinates (Angstroms)
 Number     Number       Type             X           Y           Z
 ---------------------------------------------------------------------
      1          6           0        1.257304    0.145682    0.336195
      2          8           0        2.058363   -0.677730    0.695433
      3          6           0       -0.003590   -0.314568   -0.610623
      4          6           0       -0.102800    0.429557    1.538014
      5          9           0       -1.139908    1.086401    1.147021
      6          9           0       -0.472868   -0.717140    1.974001
      7          9           0        0.464678    1.073817    2.451669
      8          9           0       -0.649921    0.486650   -1.300414
      9          9           0       -0.565825   -1.412159   -0.504771
     10          8           0        1.561418    1.391154   -0.106209
     11          1           0        2.522648    1.479739   -0.108220
 ---------------------------------------------------------------------
                    Distance matrix (angstroms):
                    1          2          3          4          5
     1  C    0.000000
     2  O    1.203642   0.000000
     3  C    1.642604   2.467655   0.000000
     4  C    1.837073   2.570341   2.276006   0.000000
     5  F    2.699818   3.680357   2.518580   1.288376   0.000000
     6  F    2.533844   2.836093   2.657549   1.281386   2.093227
     7  F    2.442319   2.948239   3.394778   1.253741   2.068081
     8  F    2.536190   3.560055   1.239156   2.891241   2.567047
     9  F    2.541238   2.977623   1.237747   2.789136   3.049720
    10  O    1.356247   2.273733   2.369213   2.529379   2.993430
    11  H    1.891641   2.348635   3.139080   3.271994   3.891614
                    6          7          8          9         10
     6  F    0.000000
     7  F    2.077182   0.000000
     8  F    3.493173   3.957932   0.000000
     9  F    2.576044   3.997818   2.060484   0.000000
    10  O    3.593118   2.801122   2.671006   3.541550   0.000000
    11  H    4.258525   3.309539   3.531678   4.249587   0.965305
                   11
    11  H    0.000000
 Symmetry turned off by external request.
 Stoichiometry    C3HF5O2
 Rotational constants (GHZ):           1.6917781           1.3614455           1.1928169
 Leave Link  202 at Sat May 24 02:05:29 2025, MaxMem=  3758096384 cpu:               0.1 elap:               0.0
 (Enter /apps/easybuild-2022/easybuild/software/Compiler/NVHPC/22.11-CUDA-11.7.0/Gaussian/g16c01-CUDA-11.7.0/g16/l301.exe)
 Standard basis: def2TZVPP (5D, 7F)
 Ernie: Thresh=  0.10000D-02 Tol=  0.10000D-05 Strict=F.
   324 basis functions,   527 primitive gaussians,   375 cartesian basis functions
    40 alpha electrons       40 beta electrons
       nuclear repulsion energy       648.2596876460 Hartrees.
 IExCor= 4336 DFT=T Ex+Corr=M062X ExCW=0 ScaHFX=  0.540000
 ScaDFX=  1.000000  1.000000  1.000000  1.000000 ScalE2=  1.000000  1.000000
 IRadAn=      5 IRanWt=     -1 IRanGd=            0 ICorTp=0 IEmpDi=  4
 NAtoms=   11 NActive=   11 NUniq=   11 SFac= 1.00D+00 NAtFMM=   60 NAOKFM=F Big=F
 Integral buffers will be    131072 words long.
 Raffenetti 2 integral format.
 Two-electron integral symmetry is turned off.
 Leave Link  301 at Sat May 24 02:05:29 2025, MaxMem=  3758096384 cpu:               0.1 elap:               0.1
 (Enter /apps/easybuild-2022/easybuild/software/Compiler/NVHPC/22.11-CUDA-11.7.0/Gaussian/g16c01-CUDA-11.7.0/g16/l302.exe)
 NPDir=0 NMtPBC=     1 NCelOv=     1 NCel=       1 NClECP=     1 NCelD=      1
         NCelK=      1 NCelE2=     1 NClLst=     1 CellRange=     0.0.
 One-electron integrals computed using PRISM.
   1 Symmetry operations used in ECPInt.
 ECPInt:  NShTT=    6786 NPrTT=   21959 LenC2=    6518 LenP2D=   16074.
 LDataN:  DoStor=T MaxTD1= 6 Len=  172
 NBasis=   324 RedAO= T EigKep=  3.13D-04  NBF=   324
 NBsUse=   324 1.00D-06 EigRej= -1.00D+00 NBFU=   324
 Precomputing XC quadrature grid using
 IXCGrd= 4 IRadAn=           5 IRanWt=          -1 IRanGd=           0 AccXCQ= 0.00D+00.
 Generated NRdTot=       0 NPtTot=           0 NUsed=           0 NTot=          32
 NSgBfM=   371   371   371   371   371 MxSgAt=    11 MxSgA2=    11.
 Leave Link  302 at Sat May 24 02:05:29 2025, MaxMem=  3758096384 cpu:               0.9 elap:               0.2
 (Enter /apps/easybuild-2022/easybuild/software/Compiler/NVHPC/22.11-CUDA-11.7.0/Gaussian/g16c01-CUDA-11.7.0/g16/l303.exe)
 DipDrv:  MaxL=1.
 Leave Link  303 at Sat May 24 02:05:29 2025, MaxMem=  3758096384 cpu:               0.1 elap:               0.1
 (Enter /apps/easybuild-2022/easybuild/software/Compiler/NVHPC/22.11-CUDA-11.7.0/Gaussian/g16c01-CUDA-11.7.0/g16/l401.exe)
 Initial guess from the checkpoint file:  "1642764945472630600001_r12_insertion_R_1_3_4.chk"
 B after Tr=     0.002775    0.007575   -0.002918
         Rot=    0.999992    0.000236   -0.001931   -0.003497 Ang=   0.46 deg.
 Guess basis will be translated and rotated to current coordinates.
 JPrj=2 DoOrth=T DoCkMO=T.
 Generating alternative initial guess.
 ExpMin= 9.52D-02 ExpMax= 3.55D+04 ExpMxC= 1.21D+03 IAcc=3 IRadAn=         5 AccDes= 0.00D+00
 Harris functional with IExCor= 1009 and IRadAn=       5 diagonalized for initial guess.
 HarFok:  IExCor= 1009 AccDes= 0.00D+00 IRadAn=         5 IDoV= 1 UseB2=F ITyADJ=14
 ICtDFT=  3500011 ScaDFX=  1.000000  1.000000  1.000000  1.000000
 FoFCou: FMM=F IPFlag=           0 FMFlag=      100000 FMFlg1=           0
         NFxFlg=           0 DoJE=T BraDBF=F KetDBF=T FulRan=T
         wScrn=  0.000000 ICntrl=       500 IOpCl=  0 I1Cent=   200000004 NGrid=           0
         NMat0=    1 NMatS0=      1 NMatT0=    0 NMatD0=    1 NMtDS0=    0 NMtDT0=    0
 Symmetry not used in FoFCou.
 Harris En= -764.093843969121    
 Leave Link  401 at Sat May 24 02:05:30 2025, MaxMem=  3758096384 cpu:               4.4 elap:               0.8
 (Enter /apps/easybuild-2022/easybuild/software/Compiler/NVHPC/22.11-CUDA-11.7.0/Gaussian/g16c01-CUDA-11.7.0/g16/l502.exe)
 Keep R1 ints in memory in canonical form, NReq=1412617130.
 FoFCou: FMM=F IPFlag=           0 FMFlag=           0 FMFlg1=           0
         NFxFlg=           0 DoJE=F BraDBF=F KetDBF=F FulRan=T
         wScrn=  0.000000 ICntrl=       600 IOpCl=  0 I1Cent=           0 NGrid=           0
         NMat0=    1 NMatS0=  52650 NMatT0=    0 NMatD0=    1 NMtDS0=    0 NMtDT0=    0
 Symmetry not used in FoFCou.
 Two-electron integral symmetry not used.
 Closed shell SCF:
 Using DIIS extrapolation, IDIIS=  1040.
 NGot=  3758096384 LenX=  2371771924 LenY=  2371630858
 Requested convergence on RMS density matrix=1.00D-08 within  32 cycles.
 Requested convergence on MAX density matrix=1.00D-06.
 Requested convergence on             energy=1.00D-06.
 No special actions if energy rises.
 Integral accuracy reduced to 1.0D-05 until final iterations.

 Cycle   1  Pass 0  IDiag  1:
 E= -764.454754019947    
 DIIS: error= 8.82D-03 at cycle   1 NSaved=   1.
 NSaved= 1 IEnMin= 1 EnMin= -764.454754019947     IErMin= 1 ErrMin= 8.82D-03
 ErrMax= 8.82D-03  0.00D+00 EMaxC= 1.00D-01 BMatC= 5.29D-02 BMatP= 5.29D-02
 IDIUse=3 WtCom= 9.12D-01 WtEn= 8.82D-02
 Coeff-Com:  0.100D+01
 Coeff-En:   0.100D+01
 Coeff:      0.100D+01
 Gap=     0.976 Goal=   None    Shift=    0.000
 GapD=    0.976 DampG=2.000 DampE=1.000 DampFc=2.0000 IDamp=-1.
 RMSDP=6.90D-04 MaxDP=1.97D-02              OVMax= 5.07D-02

 Cycle   2  Pass 0  IDiag  1:
 E= -764.506901289615     Delta-E=       -0.052147269668 Rises=F Damp=F
 DIIS: error= 2.12D-03 at cycle   2 NSaved=   2.
 NSaved= 2 IEnMin= 2 EnMin= -764.506901289615     IErMin= 2 ErrMin= 2.12D-03
 ErrMax= 2.12D-03  0.00D+00 EMaxC= 1.00D-01 BMatC= 2.90D-03 BMatP= 5.29D-02
 IDIUse=3 WtCom= 9.79D-01 WtEn= 2.12D-02
 Coeff-Com: -0.314D-01 0.103D+01
 Coeff-En:   0.000D+00 0.100D+01
 Coeff:     -0.308D-01 0.103D+01
 Gap=     0.234 Goal=   None    Shift=    0.000
 RMSDP=1.81D-04 MaxDP=6.30D-03 DE=-5.21D-02 OVMax= 1.23D-02

 Cycle   3  Pass 0  IDiag  1:
 E= -764.508568480510     Delta-E=       -0.001667190895 Rises=F Damp=F
 DIIS: error= 1.91D-03 at cycle   3 NSaved=   3.
 NSaved= 3 IEnMin= 3 EnMin= -764.508568480510     IErMin= 3 ErrMin= 1.91D-03
 ErrMax= 1.91D-03  0.00D+00 EMaxC= 1.00D-01 BMatC= 2.26D-03 BMatP= 2.90D-03
 IDIUse=3 WtCom= 9.81D-01 WtEn= 1.91D-02
 Coeff-Com: -0.673D-01 0.506D+00 0.561D+00
 Coeff-En:   0.000D+00 0.342D-01 0.966D+00
 Coeff:     -0.660D-01 0.497D+00 0.569D+00
 Gap=     0.235 Goal=   None    Shift=    0.000
 RMSDP=8.49D-05 MaxDP=3.28D-03 DE=-1.67D-03 OVMax= 9.87D-03

 Cycle   4  Pass 0  IDiag  1:
 E= -764.509829465462     Delta-E=       -0.001260984952 Rises=F Damp=F
 DIIS: error= 3.60D-04 at cycle   4 NSaved=   4.
 NSaved= 4 IEnMin= 4 EnMin= -764.509829465462     IErMin= 4 ErrMin= 3.60D-04
 ErrMax= 3.60D-04  0.00D+00 EMaxC= 1.00D-01 BMatC= 9.61D-05 BMatP= 2.26D-03
 IDIUse=3 WtCom= 9.96D-01 WtEn= 3.60D-03
 Coeff-Com: -0.189D-01 0.823D-01 0.202D+00 0.735D+00
 Coeff-En:   0.000D+00 0.000D+00 0.000D+00 0.100D+01
 Coeff:     -0.188D-01 0.820D-01 0.201D+00 0.736D+00
 Gap=     0.236 Goal=   None    Shift=    0.000
 RMSDP=3.23D-05 MaxDP=1.48D-03 DE=-1.26D-03 OVMax= 3.31D-03

 Cycle   5  Pass 0  IDiag  1:
 E= -764.509900047276     Delta-E=       -0.000070581814 Rises=F Damp=F
 DIIS: error= 1.36D-04 at cycle   5 NSaved=   5.
 NSaved= 5 IEnMin= 5 EnMin= -764.509900047276     IErMin= 5 ErrMin= 1.36D-04
 ErrMax= 1.36D-04  0.00D+00 EMaxC= 1.00D-01 BMatC= 1.52D-05 BMatP= 9.61D-05
 IDIUse=3 WtCom= 9.99D-01 WtEn= 1.36D-03
 Coeff-Com:  0.471D-03-0.311D-01 0.152D-01 0.328D+00 0.687D+00
 Coeff-En:   0.000D+00 0.000D+00 0.000D+00 0.000D+00 0.100D+01
 Coeff:      0.470D-03-0.311D-01 0.152D-01 0.328D+00 0.688D+00
 Gap=     0.235 Goal=   None    Shift=    0.000
 RMSDP=1.35D-05 MaxDP=5.13D-04 DE=-7.06D-05 OVMax= 1.86D-03

 Cycle   6  Pass 0  IDiag  1:
 E= -764.509913672833     Delta-E=       -0.000013625557 Rises=F Damp=F
 DIIS: error= 5.45D-05 at cycle   6 NSaved=   6.
 NSaved= 6 IEnMin= 6 EnMin= -764.509913672833     IErMin= 6 ErrMin= 5.45D-05
 ErrMax= 5.45D-05  0.00D+00 EMaxC= 1.00D-01 BMatC= 2.17D-06 BMatP= 1.52D-05
 IDIUse=1 WtCom= 1.00D+00 WtEn= 0.00D+00
 Coeff-Com:  0.213D-02-0.234D-01-0.126D-01 0.762D-01 0.332D+00 0.625D+00
 Coeff:      0.213D-02-0.234D-01-0.126D-01 0.762D-01 0.332D+00 0.625D+00
 Gap=     0.235 Goal=   None    Shift=    0.000
 RMSDP=5.34D-06 MaxDP=1.86D-04 DE=-1.36D-05 OVMax= 1.03D-03

 Initial convergence to 1.0D-05 achieved.  Increase integral accuracy.
 Cycle   7  Pass 1  IDiag  1:
 E= -764.509867594522     Delta-E=        0.000046078311 Rises=F Damp=F
 DIIS: error= 2.47D-05 at cycle   1 NSaved=   1.
 NSaved= 1 IEnMin= 1 EnMin= -764.509867594522     IErMin= 1 ErrMin= 2.47D-05
 ErrMax= 2.47D-05  0.00D+00 EMaxC= 1.00D-01 BMatC= 8.97D-07 BMatP= 8.97D-07
 IDIUse=1 WtCom= 1.00D+00 WtEn= 0.00D+00
 Coeff-Com:  0.100D+01
 Coeff:      0.100D+01
 Gap=     0.235 Goal=   None    Shift=    0.000
 RMSDP=5.34D-06 MaxDP=1.86D-04 DE= 4.61D-05 OVMax= 4.47D-04

 Cycle   8  Pass 1  IDiag  1:
 E= -764.509868492212     Delta-E=       -0.000000897690 Rises=F Damp=F
 DIIS: error= 1.34D-05 at cycle   2 NSaved=   2.
 NSaved= 2 IEnMin= 2 EnMin= -764.509868492212     IErMin= 2 ErrMin= 1.34D-05
 ErrMax= 1.34D-05  0.00D+00 EMaxC= 1.00D-01 BMatC= 1.76D-07 BMatP= 8.97D-07
 IDIUse=1 WtCom= 1.00D+00 WtEn= 0.00D+00
 Coeff-Com:  0.202D+00 0.798D+00
 Coeff:      0.202D+00 0.798D+00
 Gap=     0.235 Goal=   None    Shift=    0.000
 RMSDP=2.38D-06 MaxDP=1.09D-04 DE=-8.98D-07 OVMax= 4.49D-04

 Cycle   9  Pass 1  IDiag  1:
 E= -764.509868624106     Delta-E=       -0.000000131895 Rises=F Damp=F
 DIIS: error= 1.37D-05 at cycle   3 NSaved=   3.
 NSaved= 3 IEnMin= 3 EnMin= -764.509868624106     IErMin= 2 ErrMin= 1.34D-05
 ErrMax= 1.37D-05  0.00D+00 EMaxC= 1.00D-01 BMatC= 1.52D-07 BMatP= 1.76D-07
 IDIUse=1 WtCom= 1.00D+00 WtEn= 0.00D+00
 Coeff-Com: -0.630D-01 0.485D+00 0.578D+00
 Coeff:     -0.630D-01 0.485D+00 0.578D+00
 Gap=     0.235 Goal=   None    Shift=    0.000
 RMSDP=1.11D-06 MaxDP=4.86D-05 DE=-1.32D-07 OVMax= 9.84D-05

 Cycle  10  Pass 1  IDiag  1:
 E= -764.509868750407     Delta-E=       -0.000000126301 Rises=F Damp=F
 DIIS: error= 2.21D-06 at cycle   4 NSaved=   4.
 NSaved= 4 IEnMin= 4 EnMin= -764.509868750407     IErMin= 4 ErrMin= 2.21D-06
 ErrMax= 2.21D-06  0.00D+00 EMaxC= 1.00D-01 BMatC= 4.75D-09 BMatP= 1.52D-07
 IDIUse=1 WtCom= 1.00D+00 WtEn= 0.00D+00
 Coeff-Com: -0.237D-01 0.337D-01 0.899D-02 0.981D+00
 Coeff:     -0.237D-01 0.337D-01 0.899D-02 0.981D+00
 Gap=     0.235 Goal=   None    Shift=    0.000
 RMSDP=5.70D-07 MaxDP=2.12D-05 DE=-1.26D-07 OVMax= 1.08D-04

 Cycle  11  Pass 1  IDiag  1:
 E= -764.509868763430     Delta-E=       -0.000000013023 Rises=F Damp=F
 DIIS: error= 2.05D-06 at cycle   5 NSaved=   5.
 NSaved= 5 IEnMin= 5 EnMin= -764.509868763430     IErMin= 5 ErrMin= 2.05D-06
 ErrMax= 2.05D-06  0.00D+00 EMaxC= 1.00D-01 BMatC= 3.46D-09 BMatP= 4.75D-09
 IDIUse=1 WtCom= 1.00D+00 WtEn= 0.00D+00
 Coeff-Com:  0.801D-02-0.144D+00-0.232D+00 0.621D+00 0.746D+00
 Coeff:      0.801D-02-0.144D+00-0.232D+00 0.621D+00 0.746D+00
 Gap=     0.235 Goal=   None    Shift=    0.000
 RMSDP=3.87D-07 MaxDP=1.69D-05 DE=-1.30D-08 OVMax= 7.57D-05

 Cycle  12  Pass 1  IDiag  1:
 E= -764.509868769071     Delta-E=       -0.000000005641 Rises=F Damp=F
 DIIS: error= 4.12D-07 at cycle   6 NSaved=   6.
 NSaved= 6 IEnMin= 6 EnMin= -764.509868769071     IErMin= 6 ErrMin= 4.12D-07
 ErrMax= 4.12D-07  0.00D+00 EMaxC= 1.00D-01 BMatC= 2.03D-10 BMatP= 3.46D-09
 IDIUse=1 WtCom= 1.00D+00 WtEn= 0.00D+00
 Coeff-Com:  0.574D-02-0.586D-01-0.995D-01 0.137D+00 0.279D+00 0.737D+00
 Coeff:      0.574D-02-0.586D-01-0.995D-01 0.137D+00 0.279D+00 0.737D+00
 Gap=     0.235 Goal=   None    Shift=    0.000
 RMSDP=9.08D-08 MaxDP=3.82D-06 DE=-5.64D-09 OVMax= 1.54D-05

 Cycle  13  Pass 1  IDiag  1:
 E= -764.509868769335     Delta-E=       -0.000000000264 Rises=F Damp=F
 DIIS: error= 1.04D-07 at cycle   7 NSaved=   7.
 NSaved= 7 IEnMin= 7 EnMin= -764.509868769335     IErMin= 7 ErrMin= 1.04D-07
 ErrMax= 1.04D-07  0.00D+00 EMaxC= 1.00D-01 BMatC= 1.08D-11 BMatP= 2.03D-10
 IDIUse=1 WtCom= 1.00D+00 WtEn= 0.00D+00
 Coeff-Com:  0.217D-03 0.489D-02 0.304D-02-0.393D-01-0.161D-01 0.153D+00
 Coeff-Com:  0.894D+00
 Coeff:      0.217D-03 0.489D-02 0.304D-02-0.393D-01-0.161D-01 0.153D+00
 Coeff:      0.894D+00
 Gap=     0.235 Goal=   None    Shift=    0.000
 RMSDP=2.70D-08 MaxDP=1.53D-06 DE=-2.64D-10 OVMax= 3.93D-06

 Cycle  14  Pass 1  IDiag  1:
 E= -764.509868769363     Delta-E=       -0.000000000028 Rises=F Damp=F
 DIIS: error= 5.35D-08 at cycle   8 NSaved=   8.
 NSaved= 8 IEnMin= 8 EnMin= -764.509868769363     IErMin= 8 ErrMin= 5.35D-08
 ErrMax= 5.35D-08  0.00D+00 EMaxC= 1.00D-01 BMatC= 2.72D-12 BMatP= 1.08D-11
 IDIUse=1 WtCom= 1.00D+00 WtEn= 0.00D+00
 Coeff-Com: -0.402D-03 0.748D-02 0.102D-01-0.320D-01-0.327D-01 0.273D-02
 Coeff-Com:  0.417D+00 0.627D+00
 Coeff:     -0.402D-03 0.748D-02 0.102D-01-0.320D-01-0.327D-01 0.273D-02
 Coeff:      0.417D+00 0.627D+00
 Gap=     0.235 Goal=   None    Shift=    0.000
 RMSDP=7.58D-09 MaxDP=4.90D-07 DE=-2.82D-11 OVMax= 6.75D-07

 SCF Done:  E(RM062X) =  -764.509868769     A.U. after   14 cycles
            NFock= 14  Conv=0.76D-08     -V/T= 2.0028
 KE= 7.623941452416D+02 PE=-3.108925449052D+03 EE= 9.337617473954D+02
 Leave Link  502 at Sat May 24 02:06:01 2025, MaxMem=  3758096384 cpu:             128.0 elap:              30.8
 (Enter /apps/easybuild-2022/easybuild/software/Compiler/NVHPC/22.11-CUDA-11.7.0/Gaussian/g16c01-CUDA-11.7.0/g16/l508.exe)
 QCSCF skips out because SCF is already converged.
 Leave Link  508 at Sat May 24 02:06:01 2025, MaxMem=  3758096384 cpu:               0.1 elap:               0.0
 (Enter /apps/easybuild-2022/easybuild/software/Compiler/NVHPC/22.11-CUDA-11.7.0/Gaussian/g16c01-CUDA-11.7.0/g16/l801.exe)
 DoSCS=F DFT=T ScalE2(SS,OS)=  1.000000  1.000000
 Range of M.O.s used for correlation:     1   324
 NBasis=   324 NAE=    40 NBE=    40 NFC=     0 NFV=     0
 NROrb=    324 NOA=    40 NOB=    40 NVA=   284 NVB=   284

 **** Warning!!: The largest alpha MO coefficient is  0.15169155D+02

 Leave Link  801 at Sat May 24 02:06:01 2025, MaxMem=  3758096384 cpu:               0.1 elap:               0.1
 (Enter /apps/easybuild-2022/easybuild/software/Compiler/NVHPC/22.11-CUDA-11.7.0/Gaussian/g16c01-CUDA-11.7.0/g16/l1101.exe)
 Using compressed storage, NAtomX=    11.
 Will process     12 centers per pass.
   1 Symmetry operations used in ECPInt.
 ECPInt:  NShTT=    6786 NPrTT=   21959 LenC2=    6518 LenP2D=   16074.
 LDataN:  DoStor=T MaxTD1= 7 Len=  274
 Leave Link 1101 at Sat May 24 02:06:02 2025, MaxMem=  3758096384 cpu:               1.4 elap:               0.7
 (Enter /apps/easybuild-2022/easybuild/software/Compiler/NVHPC/22.11-CUDA-11.7.0/Gaussian/g16c01-CUDA-11.7.0/g16/l1102.exe)
 Symmetrizing basis deriv contribution to polar:
 IMax=3 JMax=2 DiffMx= 0.00D+00
 Leave Link 1102 at Sat May 24 02:06:02 2025, MaxMem=  3758096384 cpu:               0.2 elap:               0.1
 (Enter /apps/easybuild-2022/easybuild/software/Compiler/NVHPC/22.11-CUDA-11.7.0/Gaussian/g16c01-CUDA-11.7.0/g16/l1110.exe)
 Forming Gx(P) for the SCF density, NAtomX=    11.
 Integral derivatives from FoFJK, PRISM(SPDF).
 Do as many integral derivatives as possible in FoFJK.
 G2DrvN: MDV=    3758095115.
 G2DrvN: will do    12 centers at a time, making    1 passes.
 Calling FoFCou, ICntrl=  3107 FMM=F I1Cent=   0 AccDes= 0.00D+00.
 FoFJK:  IHMeth= 1 ICntrl=    3107 DoSepK=F KAlg= 0 I1Cent=           0 FoldK=F
 IRaf=         0 NMat=       1 IRICut=       1 DoRegI=T DoRafI=F ISym2E= 0 IDoP0=0 IntGTp=1.
 FoFCou: FMM=F IPFlag=           0 FMFlag=      100000 FMFlg1=           0
         NFxFlg=           0 DoJE=F BraDBF=F KetDBF=F FulRan=T
         wScrn=  0.000000 ICntrl=      3107 IOpCl=  0 I1Cent=           0 NGrid=           0
         NMat0=    1 NMatS0=      1 NMatT0=    0 NMatD0=    1 NMtDS0=    0 NMtDT0=    0
 Symmetry not used in FoFCou.
 End of G2Drv F.D. properties file   721 does not exist.
 End of G2Drv F.D. properties file   722 does not exist.
 End of G2Drv F.D. properties file   788 does not exist.
 Leave Link 1110 at Sat May 24 02:06:54 2025, MaxMem=  3758096384 cpu:             353.3 elap:              52.6
 (Enter /apps/easybuild-2022/easybuild/software/Compiler/NVHPC/22.11-CUDA-11.7.0/Gaussian/g16c01-CUDA-11.7.0/g16/l1002.exe)
 Minotr:  Closed shell wavefunction.
          IDoAtm=11111111111
          Direct CPHF calculation.
          Differentiating once with respect to electric field.
                with respect to dipole field.
          Differentiating once with respect to nuclear coordinates.
          Requested convergence is 1.0D-08 RMS, and 1.0D-07 maximum.
          Secondary convergence is 1.0D-12 RMS, and 1.0D-12 maximum.
          NewPWx=T KeepS1=F KeepF1=F KeepIn=T MapXYZ=F SortEE=F KeepMc=T.
         3293 words used for storage of precomputed grid.
 Keep R1 ints in memory in canonical form, NReq=1412622523.
 FoFCou: FMM=F IPFlag=           0 FMFlag=           0 FMFlg1=           0
         NFxFlg=           0 DoJE=F BraDBF=F KetDBF=F FulRan=T
         wScrn=  0.000000 ICntrl=       600 IOpCl=  0 I1Cent=           0 NGrid=           0
         NMat0=    1 NMatS0=  52650 NMatT0=    0 NMatD0=    1 NMtDS0=    0 NMtDT0=    0
 Symmetry not used in FoFCou.
 Two-electron integral symmetry not used.
          MDV=    3758096384 using IRadAn=       1.
          Solving linear equations simultaneously, MaxMat=       0.
          There are    36 degrees of freedom in the 1st order CPHF.  IDoFFX=6 NUNeed=     3.
     33 vectors produced by pass  0 Test12= 3.16D-14 2.78D-09 XBig12= 3.41D+01 3.79D+00.
 AX will form    33 AO Fock derivatives at one time.
     33 vectors produced by pass  1 Test12= 3.16D-14 2.78D-09 XBig12= 4.04D+00 3.18D-01.
     33 vectors produced by pass  2 Test12= 3.16D-14 2.78D-09 XBig12= 1.20D-01 5.66D-02.
     33 vectors produced by pass  3 Test12= 3.16D-14 2.78D-09 XBig12= 2.32D-03 9.62D-03.
     33 vectors produced by pass  4 Test12= 3.16D-14 2.78D-09 XBig12= 3.42D-05 1.05D-03.
     33 vectors produced by pass  5 Test12= 3.16D-14 2.78D-09 XBig12= 3.11D-07 6.57D-05.
     33 vectors produced by pass  6 Test12= 3.16D-14 2.78D-09 XBig12= 1.82D-09 5.00D-06.
     15 vectors produced by pass  7 Test12= 3.16D-14 2.78D-09 XBig12= 9.91D-12 4.26D-07.
      3 vectors produced by pass  8 Test12= 3.16D-14 2.78D-09 XBig12= 5.39D-14 2.74D-08.
 InvSVY:  IOpt=1 It=  1 EMax= 2.66D-15
 Solved reduced A of dimension   249 with    36 vectors.
 FullF1:  Do perturbations      1 to       3.
 Isotropic polarizability for W=    0.000000       51.06 Bohr**3.
 End of Minotr F.D. properties file   721 does not exist.
 End of Minotr F.D. properties file   722 does not exist.
 End of Minotr F.D. properties file   788 does not exist.
 Leave Link 1002 at Sat May 24 02:08:11 2025, MaxMem=  3758096384 cpu:             578.3 elap:              76.6
 (Enter /apps/easybuild-2022/easybuild/software/Compiler/NVHPC/22.11-CUDA-11.7.0/Gaussian/g16c01-CUDA-11.7.0/g16/l701.exe)
 ... and contract with generalized density number  0.
 Compute integral second derivatives.
   1 Symmetry operations used in ECPInt.
 ECPInt:  NShTT=    6786 NPrTT=   21959 LenC2=    6518 LenP2D=   16074.
 LDataN:  DoStor=T MaxTD1= 8 Len=  415
 Leave Link  701 at Sat May 24 02:08:11 2025, MaxMem=  3758096384 cpu:               1.1 elap:               0.3
 (Enter /apps/easybuild-2022/easybuild/software/Compiler/NVHPC/22.11-CUDA-11.7.0/Gaussian/g16c01-CUDA-11.7.0/g16/l702.exe)
 L702 exits ... SP integral derivatives will be done elsewhere.
 Leave Link  702 at Sat May 24 02:08:11 2025, MaxMem=  3758096384 cpu:               0.1 elap:               0.0
 (Enter /apps/easybuild-2022/easybuild/software/Compiler/NVHPC/22.11-CUDA-11.7.0/Gaussian/g16c01-CUDA-11.7.0/g16/l703.exe)
 Integral derivatives from FoFJK, PRISM(SPDF).
 Compute integral second derivatives, UseDBF=F ICtDFT=           0.
 Calling FoFJK, ICntrl=    100127 FMM=F ISym2X=0 I1Cent= 0 IOpClX= 0 NMat=1 NMatS=1 NMatT=0.
 FoFJK:  IHMeth= 1 ICntrl=  100127 DoSepK=F KAlg= 0 I1Cent=           0 FoldK=F
 IRaf=         0 NMat=       1 IRICut=       1 DoRegI=T DoRafI=F ISym2E= 0 IDoP0=0 IntGTp=1.
 FoFCou: FMM=F IPFlag=           0 FMFlag=      100000 FMFlg1=         800
         NFxFlg=           0 DoJE=F BraDBF=F KetDBF=F FulRan=T
         wScrn=  0.000000 ICntrl=    100127 IOpCl=  0 I1Cent=           0 NGrid=           0
         NMat0=    1 NMatS0=      1 NMatT0=    0 NMatD0=    1 NMtDS0=    0 NMtDT0=    0
 Symmetry not used in FoFCou.
 Leave Link  703 at Sat May 24 02:10:02 2025, MaxMem=  3758096384 cpu:             774.9 elap:             110.6
 (Enter /apps/easybuild-2022/easybuild/software/Compiler/NVHPC/22.11-CUDA-11.7.0/Gaussian/g16c01-CUDA-11.7.0/g16/l716.exe)
 Dipole        =-5.79527473D-01 3.20099964D-01-1.02828260D+00
 Polarizability= 5.19594315D+01 1.26774811D+00 4.59606812D+01
                 3.76696820D+00 3.39997897D+00 5.52574534D+01
 -------------------------------------------------------------------
 Center     Atomic                   Forces (Hartrees/Bohr)
 Number     Number              X              Y              Z
 -------------------------------------------------------------------
      1        6          -0.050666052   -0.010304555   -0.022651372
      2        8           0.014466609   -0.012862875    0.014568138
      3        6           0.073935387    0.011394202    0.007527396
      4        6           0.032186266   -0.018681459   -0.048407445
      5        9          -0.045082028    0.028844828   -0.018053650
      6        9          -0.016973554   -0.048071636    0.020572147
      7        9           0.037913880    0.039485655    0.054757929
      8        9          -0.027001771    0.027349722   -0.017384727
      9        9          -0.020091758   -0.033446536    0.009287916
     10        8           0.003205103    0.019432688   -0.002179700
     11        1          -0.001892082   -0.003140034    0.001963367
 -------------------------------------------------------------------
 Cartesian Forces:  Max     0.073935387 RMS     0.029725969
 Force constants in Cartesian coordinates: 
                1             2             3             4             5 
      1  0.503465D+00
      2 -0.187653D+00  0.722993D+00
      3  0.117999D+00 -0.258016D+00  0.138611D+00
      4 -0.346986D+00  0.283823D+00 -0.130768D+00  0.413763D+00
      5  0.247346D+00 -0.378924D+00  0.134514D+00 -0.341997D+00  0.431130D+00
      6 -0.118096D+00  0.140143D+00 -0.105787D+00  0.165330D+00 -0.173372D+00
      7 -0.114615D+00  0.137625D-01  0.667016D-01 -0.206080D-01 -0.441661D-02
      8  0.327447D-02 -0.292213D-01  0.488471D-01  0.246810D-01  0.223653D-02
      9  0.748354D-02  0.307112D-01  0.855914D-01 -0.239565D-01  0.169287D-01
     10  0.826220D-02 -0.411648D-01 -0.110851D+00 -0.354814D-01  0.277986D-01
     11  0.785730D-02 -0.208788D-01 -0.116708D-01  0.155502D-01 -0.138240D-01
     12  0.520574D-01 -0.169252D-02 -0.307580D-01 -0.284257D-01  0.149599D-01
     13  0.126818D-01  0.104982D-01 -0.170339D-01 -0.150653D-01  0.810361D-02
     14 -0.904667D-02 -0.719314D-03  0.173541D-01  0.760338D-02 -0.301368D-02
     15 -0.104773D-01  0.667043D-03  0.190627D-01  0.957906D-02 -0.612287D-02
     16  0.194075D-02 -0.147554D-01  0.191023D-01  0.179581D-02  0.912449D-03
     17  0.113740D-01 -0.143098D-01  0.964529D-02 -0.349925D-02  0.926119D-02
     18 -0.143502D-01  0.252789D-01 -0.299545D-02  0.559900D-02 -0.788874D-02
     19 -0.506130D-02  0.708414D-02  0.197435D-01  0.591260D-02 -0.347711D-02
     20 -0.125761D-01 -0.105998D-01 -0.258514D-01  0.147493D-02  0.254305D-02
     21 -0.273171D-01 -0.251079D-01 -0.565105D-01  0.949625D-02 -0.971580D-03
     22  0.349612D-01  0.271155D-01 -0.194111D-02 -0.201178D-01  0.729605D-02
     23 -0.247525D-01  0.541394D-02  0.289957D-01  0.691845D-02 -0.499268D-02
     24 -0.236920D-02  0.202977D-01 -0.889313D-02 -0.785251D-02 -0.333658D-02
     25  0.387859D-01 -0.207694D-01  0.198200D-01 -0.779904D-02  0.156118D-01
     26  0.252886D-01 -0.245366D-01 -0.159869D-01 -0.101395D-01  0.141770D-01
     27 -0.162562D-01 -0.458807D-02  0.192931D-01  0.420051D-02 -0.520664D-02
     28 -0.120326D+00 -0.693829D-01  0.148839D-01  0.246487D-01  0.365546D-01
     29 -0.652917D-02 -0.241953D+00  0.707129D-01  0.824668D-02 -0.616629D-01
     30 -0.901843D-02  0.679177D-01 -0.616850D-01 -0.502134D-03  0.327598D-01
     31 -0.131081D-01 -0.855807D-02  0.234338D-02 -0.620441D-04  0.626736D-02
     32 -0.545832D-01 -0.726447D-02  0.145495D-02  0.733776D-02  0.306991D-02
     33  0.203443D-01  0.438889D-02  0.407016D-02 -0.270058D-02 -0.226480D-02
                6             7             8             9            10 
      6  0.123760D+00
      7 -0.440069D-01  0.555919D+00
      8  0.102388D-01  0.582519D-01  0.767042D+00
[...]
      6  0.131095D+00
      7 -0.499492D-01  0.546177D+00
      8  0.117903D-01  0.348001D-01  0.697238D+00
      9 -0.286861D-01  0.185775D+00 -0.122241D+00  0.259066D+00
     10  0.142083D-01  0.818873D-01  0.223813D-01  0.393991D-01  0.469707D+00
     11  0.242247D-02  0.194708D-02  0.203198D-01 -0.232727D-01  0.256565D-01
     12 -0.259801D-02 -0.246623D-01 -0.340170D-01 -0.534612D-01  0.723297D-01
     13  0.205083D-03 -0.271946D-01  0.178602D-02 -0.189061D-02 -0.197735D+00
     14 -0.220336D-02  0.140281D-01 -0.581644D-02 -0.300205D-02  0.111629D+00
     15 -0.536021D-03 -0.143547D-03  0.351358D-02 -0.577948D-02 -0.167099D-01
     16 -0.348236D-02 -0.187191D-01 -0.773840D-02  0.596712D-04 -0.119773D+00
     17 -0.570962D-02 -0.140114D-01 -0.129194D-01  0.342363D-02 -0.841314D-01
     18  0.454833D-02  0.125252D-01  0.268556D-02 -0.567955D-02  0.538095D-01
     19  0.504962D-02 -0.501160D-02 -0.697425D-03 -0.129277D-02 -0.128168D+00
     20  0.113763D-02  0.101243D-01  0.126483D-03  0.470790D-02 -0.551980D-01
     21  0.112208D-01  0.282762D-01  0.859051D-02  0.794891D-02 -0.107951D+00
     22 -0.612709D-02 -0.259720D+00  0.127995D+00 -0.171001D+00 -0.292199D-01
     23 -0.748654D-02  0.127871D+00 -0.194215D+00  0.105303D+00  0.233729D-01
     24 -0.301405D-02 -0.147828D+00  0.104333D+00 -0.149969D+00 -0.891000D-02
     25  0.408699D-02 -0.143541D+00 -0.150045D+00 -0.333541D-01 -0.191449D-01
     26  0.576436D-02 -0.143720D+00 -0.420516D+00  0.356605D-02 -0.300251D-01
     27 -0.414676D-02 -0.150343D-01  0.176082D-01 -0.616187D-01  0.949235D-02
     28 -0.119961D-01 -0.119614D-01 -0.295432D-01  0.160994D-01 -0.158186D-01
     29  0.321254D-01 -0.185921D-01 -0.338456D-01 -0.336985D-02 -0.105589D-01
     30  0.258922D-02 -0.210004D-01 -0.122319D-01  0.391277D-03  0.243016D-01
     31 -0.173003D-02 -0.185505D-02  0.418450D-03  0.253043D-04 -0.179902D-02
     32 -0.173997D-02 -0.259878D-02 -0.658183D-02  0.384080D-02  0.589627D-03
     33 -0.309906D-02 -0.149711D-02 -0.280513D-02 -0.425831D-02  0.431336D-02
               11            12            13            14            15 
     11  0.561168D+00
     12 -0.911857D-03  0.527114D+00
     13  0.106755D+00 -0.278619D-01  0.244339D+00
     14 -0.163307D+00  0.224387D-01 -0.151281D+00  0.218784D+00
     15  0.184371D-01 -0.812134D-01  0.758181D-01 -0.605073D-01  0.999175D-01
     16 -0.825764D-01  0.420379D-01  0.176642D-01  0.277066D-01 -0.124852D-01
     17 -0.221586D+00  0.745284D-01  0.825813D-02 -0.656650D-01  0.361412D-01
     18  0.804313D-01 -0.118845D+00 -0.280775D-02  0.259763D-01 -0.657214D-03
     19 -0.510636D-01 -0.950309D-01 -0.470401D-01  0.212158D-02 -0.558233D-01
     20 -0.120403D+00 -0.833238D-01  0.148292D-01  0.185716D-01  0.178551D-01
     21 -0.895825D-01 -0.234570D+00 -0.385620D-01  0.675954D-02 -0.215195D-01
     22  0.206114D-02  0.648420D-02  0.129273D-01 -0.596273D-02  0.368206D-02
     23 -0.440063D-02 -0.580629D-02 -0.795028D-02  0.354206D-02 -0.516003D-02
     24  0.212276D-02  0.304451D-02  0.174182D-02 -0.811281D-03 -0.255957D-02
     25 -0.445944D-02  0.615882D-02  0.539301D-02 -0.228809D-02 -0.534863D-03
     26 -0.109373D-01  0.158010D-01  0.711414D-02 -0.107921D-02 -0.158256D-02
     27  0.386621D-02 -0.295326D-02 -0.227359D-02  0.112560D-02  0.571508D-03
     28 -0.238223D-01 -0.389764D-03  0.450259D-03  0.397769D-03  0.177505D-02
     29 -0.242252D-01  0.243413D-02 -0.434885D-02  0.671754D-02  0.124936D-02
     30  0.165049D-01 -0.114186D-01  0.479889D-03 -0.206234D-02 -0.570600D-03
     31 -0.130186D-02  0.228443D-03  0.598909D-03 -0.119454D-03 -0.174374D-03
     32 -0.518636D-03  0.467755D-03  0.598928D-03 -0.115425D-03 -0.666131D-03
     33  0.533857D-02  0.277773D-02 -0.671171D-03 -0.183699D-04 -0.469336D-03
               16            17            18            19            20 
     16  0.132262D+00
     17  0.121694D+00  0.339981D+00
     18 -0.395407D-01 -0.100317D+00  0.114025D+00
     19 -0.212578D-01 -0.435478D-01 -0.207803D-01  0.196302D+00
     20 -0.446427D-01 -0.443123D-01 -0.302056D-01  0.865314D-01  0.147050D+00
     21 -0.599193D-02 -0.124650D-01  0.170213D-01  0.157958D+00  0.111130D+00
     22  0.584804D-02  0.299986D-02 -0.340361D-02  0.219336D-02 -0.325859D-02
     23 -0.366075D-02 -0.877638D-03  0.185972D-02 -0.113200D-02  0.261657D-02
     24  0.149714D-02  0.155740D-03 -0.181824D-03  0.465182D-03 -0.119170D-02
     25  0.585976D-02  0.619774D-02 -0.238634D-02  0.149378D-02 -0.184136D-02
     26  0.730325D-02  0.818096D-02 -0.272259D-02  0.124517D-02 -0.204894D-02
     27 -0.287300D-02 -0.606090D-02 -0.240429D-02 -0.607603D-03  0.875489D-03
     28 -0.504503D-02 -0.289793D-02  0.860815D-02  0.251808D-02  0.229019D-02
     29 -0.419873D-02  0.193015D-03  0.466293D-02  0.286055D-02  0.599897D-02
     30  0.208447D-02  0.958818D-03 -0.370774D-02  0.157149D-02  0.443271D-02
     31  0.578394D-03  0.390507D-03 -0.362927D-03  0.450187D-03  0.421094D-03
     32 -0.117163D-03 -0.163789D-03  0.162302D-03 -0.422506D-04 -0.350849D-03
     33  0.991808D-03  0.199214D-03 -0.212575D-02 -0.146748D-02 -0.130115D-02
               21            22            23            24            25 
     21  0.272460D+00
     22 -0.849684D-02  0.232046D+00
     23  0.609867D-02 -0.167431D+00  0.268155D+00
     24 -0.171616D-02  0.170946D+00 -0.154780D+00  0.156540D+00
     25 -0.685814D-02  0.232469D-01  0.396085D-01  0.148520D-03  0.106857D+00
     26 -0.949290D-02  0.150536D-01 -0.833393D-01  0.391931D-01  0.135748D+00
     27  0.368954D-02  0.768795D-02  0.395032D-01  0.304418D-02  0.254513D-01
     28  0.130697D-02 -0.107059D-03  0.765962D-04 -0.198306D-02 -0.781734D-02
     29  0.160547D-02 -0.801356D-02  0.336166D-02 -0.375496D-02 -0.746224D-02
     30  0.651633D-02  0.756381D-02 -0.696378D-02  0.141759D-02  0.506980D-03
     31 -0.314521D-04  0.825320D-03  0.480097D-04  0.346918D-03  0.164301D-02
     32 -0.186237D-03  0.157319D-02  0.118366D-03  0.123258D-03 -0.137206D-02
     33 -0.127925D-02  0.100557D-03 -0.525161D-03  0.318717D-03 -0.129157D-02
               26            27            28            29            30 
     26  0.528997D+00
     27 -0.377686D-01  0.493564D-01
     28 -0.947380D-02 -0.529256D-02  0.614995D+00
     29 -0.211795D-02  0.559696D-03  0.965880D-01  0.307837D+00
     30  0.116362D-02 -0.619148D-02  0.121142D+00 -0.835395D-01  0.108223D+00
     31  0.132824D-02  0.209532D-03 -0.484299D+00 -0.545203D-01 -0.114845D+00
     32 -0.129018D-02 -0.198377D-02 -0.908981D-02 -0.356886D-01  0.124283D-01
     33  0.100311D-03  0.430950D-03 -0.132588D+00 -0.502872D-03 -0.384626D-01
               31            32            33 
     31  0.499429D+00
     32  0.580667D-01  0.500453D-01
     33  0.116352D+00 -0.393951D-02  0.385479D-01
 Red2BG is reusing G-inverse.
 Leave Link  716 at Sat May 24 02:29:12 2025, MaxMem=  3758096384 cpu:               0.1 elap:               0.1
 (Enter /apps/easybuild-2022/easybuild/software/Compiler/NVHPC/22.11-CUDA-11.7.0/Gaussian/g16c01-CUDA-11.7.0/g16/l9999.exe)

 ----------------------------------------------------------------------

 Electric dipole moment (input orientation):
 (Debye = 10**-18 statcoulomb cm , SI units = C m)
                  (au)            (Debye)         (10**-30 SI)
   Tot        0.141354D+01      0.359286D+01      0.119845D+02
   x         -0.766599D+00     -0.194850D+01     -0.649949D+01
   y          0.132858D+00      0.337691D+00      0.112641D+01
   z         -0.118016D+01     -0.299965D+01     -0.100058D+02

 Dipole polarizability, Alpha (input orientation).
 (esu units = cm**3 , SI units = C**2 m**2 J**-1)
 Alpha(0;0):
               (au)            (10**-24 esu)      (10**-40 SI)
   iso        0.511411D+02      0.757833D+01      0.843202D+01
   aniso      0.142375D+02      0.210978D+01      0.234745D+01
   xx         0.500446D+02      0.741585D+01      0.825124D+01
   yx         0.128462D+01      0.190361D+00      0.211805D+00
   yy         0.476989D+02      0.706825D+01      0.786449D+01
   zx         0.605121D+01      0.896697D+00      0.997710D+00
   zy         0.353222D+01      0.523421D+00      0.582384D+00
   zz         0.556797D+02      0.825088D+01      0.918034D+01

 ----------------------------------------------------------------------

 Dipole orientation:
     6          1.49813984         -0.37673851         -1.61918763
     8          2.37272338          1.02999364         -3.26248253
     6          0.72452242          0.78517022          0.96660124
     6         -1.58814737         -1.12580962         -2.27896312
     9         -2.73431728         -2.59968905         -0.58502581
     9         -2.98381272          0.93177293         -2.60490698
     9         -1.43177482         -2.36304348         -4.42686267
     9          0.12674306         -0.46433606          2.91363335
     9         -0.05452503          3.03362826          1.06792036
     8          2.57583160         -2.71673970         -1.04306957
     1          3.82376808         -2.96012165         -2.34843134

 Electric dipole moment (dipole orientation):
 (Debye = 10**-18 statcoulomb cm , SI units = C m)
                  (au)            (Debye)         (10**-30 SI)
   Tot        0.141354D+01      0.359286D+01      0.119845D+02
   x          0.000000D+00      0.000000D+00      0.000000D+00
   y          0.000000D+00      0.000000D+00      0.000000D+00
   z          0.141354D+01      0.359286D+01      0.119845D+02

 Dipole polarizability, Alpha (dipole orientation).
 (esu units = cm**3 , SI units = C**2 m**2 J**-1)
 Alpha(0;0):
               (au)            (10**-24 esu)      (10**-40 SI)
   iso        0.511411D+02      0.757833D+01      0.843202D+01
   aniso      0.142375D+02      0.210978D+01      0.234745D+01
   xx         0.461423D+02      0.683758D+01      0.760783D+01
   yx         0.788330D+00      0.116818D+00      0.129978D+00
   yy         0.485347D+02      0.719209D+01      0.800228D+01
   zx        -0.971348D-01     -0.143939D-01     -0.160154D-01
   zy         0.470400D+01      0.697061D+00      0.775585D+00
   zz         0.587463D+02      0.870530D+01      0.968595D+01

 ----------------------------------------------------------------------
 Unable to Open any file for archive entry.
 1\1\GINC-SPARTAN-BM178\Freq\RM062X\def2TZVPP\C3H1F5O2\AKHALILOV\24-May
 -2025\0\\#P M062X/Def2TZVPP Symm(None) scf(xqc) pop(None) opt(NoFreeze
 ,TS,CalcAll,NoEigentest,MaxCycle=999)\\Gaussian input prepared by ASE\
 \0,1\C,1.1359288506,0.1398912326,0.3041603163\O,1.9754782082,-0.669811
 3757,0.7092190603\C,0.0330010491,-0.3547671008,-0.6740315045\C,-0.0351
 190866,0.4561891678,1.5186333805\F,-1.0088957338,1.2997798888,1.172481
 8184\F,-0.5919953929,-0.6641228843,1.9608367417\F,0.6689719927,1.00322
 15162,2.4842500648\F,-0.7730288558,0.3913118666,-1.3005425187\F,-0.375
 3028687,-1.5452844651,-0.6070505783\O,1.4838671222,1.416701866,-0.1432
 709333\H,2.4165927151,1.4982942879,0.0874111528\\Version=ES64L-G16RevC
 .01\HF=-764.5291067\RMSD=3.600e-09\RMSF=2.229e-06\ZeroPoint=0.0484414\
 Thermal=0.0575467\ETot=-764.47156\HTot=-764.4706158\GTot=-764.5155087\
 Dipole=-0.7665987,0.1328577,-1.1801551\DipoleDeriv=1.8278434,0.0322051
 ,0.4817738,-0.2117734,1.2097584,-0.546826,-0.0970057,-0.6804128,-0.096
 0105,-1.186193,0.2973076,-0.2626524,0.4680723,-0.8621414,0.3062146,-0.
 0588042,0.2365762,-0.3631336,1.0470532,0.2744381,1.2391197,0.0693636,1
 .712436,0.04193,0.2743146,-0.0661436,0.8554224,1.1404312,-0.2728261,-0
 .6237,-0.0322682,1.5410854,-0.0793064,0.0973315,0.1125691,1.8255171,-0
 .6991619,0.4400271,0.1656496,0.3635875,-0.5840355,-0.0430128,0.0264891
 ,0.0186323,-0.3790417,-0.4242243,-0.2008477,0.3122009,-0.2192852,-0.63
 28996,0.289626,0.207742,0.1781218,-0.5420564,-0.4041009,-0.0941456,-0.
 1307212,-0.1480606,-0.4076973,-0.3027608,-0.2769742,-0.3485691,-0.9564
 831,-0.6659845,0.1918587,-0.8778621,0.2704469,-0.3071666,0.5179544,-0.
 3226086,0.220524,-0.3704223,-0.3442423,-0.4504954,-0.3789666,-0.318145
 3,-0.9859197,-0.3951533,-0.0066896,0.0448829,0.1030313,-0.6198105,-0.2
 884525,0.1047745,-0.3252108,-1.005302,0.1872341,0.1851408,0.266986,-0.
 3700124,0.3283895,0.0709308,-0.0296163,0.0832734,0.3218822,0.0241001,-
 0.0289357,0.0168332,0.2931893\Polar=50.044616,1.2846216,47.6989268,6.0
 512113,3.5322205,55.6796773\PG=Unknown\NImag=1\\0.50190832,-0.09953355
 ,0.58660922,0.13014118,-0.16053839,0.18002198,-0.29678733,0.20578878,-
 0.10681530,0.37048402,0.17402707,-0.29187950,0.10182851,-0.27255253,0.
 34325713,-0.09437095,0.10545324,-0.10737298,0.14410575,-0.14155396,0.1
 3109463,-0.13616185,-0.01090209,0.03353804,-0.02390080,0.00105461,-0.0
 4994919,0.54617745,-0.02439689,-0.04033037,0.02277409,0.02503969,-0.00
 345974,0.01179033,0.03480014,0.69723798,0.00022522,0.00617616,0.042045
 77,-0.03404494,0.02486812,-0.02868612,0.18577510,-0.12224119,0.2590662
 9,0.00612543,-0.03855732,-0.08428273,-0.04606269,0.03484093,0.01420825
 ,0.08188734,0.02238126,0.03939906,0.46970749,0.00430914,-0.01856403,-0
 .01535623,0.02249518,-0.01754568,0.00242247,0.00194708,0.02031982,-0.0
 2327271,0.02565653,0.56116757,0.03974336,0.00295195,-0.02787673,-0.019
 03755,0.00543698,-0.00259801,-0.02466235,-0.03401700,-0.05346120,0.072
 32972,-0.00091186,0.52711366,0.00287139,0.01874803,-0.00417782,-0.0122
 7455,0.00549118,0.00020508,-0.02719464,0.00178602,-0.00189061,-0.19773
 460,0.10675450,-0.02786194,0.24433880,-0.00511466,-0.00904115,0.012304
 53,0.00888250,-0.00259101,-0.00220336,0.01402809,-0.00581644,-0.003002
 05,0.11162937,-0.16330675,0.02243872,-0.15128102,0.21878381,-0.0044705
 0,-0.00423213,0.01281618,0.00906647,-0.00504822,-0.00053602,-0.0001435
 5,0.00351358,-0.00577948,-0.01670988,0.01843711,-0.08121342,0.07581806
 ,-0.06050732,0.09991748,0.00061209,-0.01495060,0.01770226,0.00196958,0
 .00118110,-0.00348236,-0.01871907,-0.00773840,0.00005967,-0.11977268,-
 0.08257642,0.04203790,0.01766423,0.02770664,-0.01248523,0.13226244,0.0
 0734845,-0.01052366,0.00914582,-0.00229997,0.00769304,-0.00570962,-0.0
 1401142,-0.01291945,0.00342363,-0.08413136,-0.22158636,0.07452840,0.00
 825813,-0.06566499,0.03614124,0.12169379,0.33998122,-0.01016478,0.0243
 0710,-0.00199279,0.00450353,-0.00683962,0.00454833,0.01252522,0.002685
 56,-0.00567955,0.05380948,0.08043127,-0.11884497,-0.00280775,0.0259763
 3,-0.00065721,-0.03954073,-0.10031736,0.11402453,-0.00754422,0.0051477
 1,0.00995801,0.00606442,-0.00142331,0.00504962,-0.00501160,-0.00069743
 ,-0.00129277,-0.12816787,-0.05106359,-0.09503086,-0.04704013,0.0021215
 8,-0.05582325,-0.02125775,-0.04354779,-0.02078025,0.19630175,-0.008579
 46,-0.01071746,-0.02411668,-0.00067603,0.00346864,0.00113763,0.0101243
 1,0.00012648,0.00470790,-0.05519801,-0.12040278,-0.08332378,0.01482922
 ,0.01857157,0.01785509,-0.04464272,-0.04431235,-0.03020565,0.08653136,
 0.14705014,-0.02461827,-0.02449683,-0.05977194,0.00496872,0.00203914,0
 .01122082,0.02827621,0.00859051,0.00794891,-0.10795123,-0.08958251,-0.
 23456973,-0.03856197,0.00675954,-0.02151953,-0.00599193,-0.01246499,0.
 01702126,0.15795792,0.11113014,0.27245975,0.03147024,0.02793296,-0.007
 43618,-0.01950995,0.00704979,-0.00612709,-0.25971976,0.12799518,-0.171
 00126,-0.02921989,0.00206114,0.00648420,0.01292732,-0.00596273,0.00368
 206,0.00584804,0.00299986,-0.00340361,0.00219336,-0.00325859,-0.008496
 84,0.23204551,-0.01477614,0.00778354,0.02795679,0.00397322,-0.00274462
 ,-0.00748654,0.12787066,-0.19421495,0.10530313,0.02337293,-0.00440063,
 -0.00580629,-0.00795028,0.00354206,-0.00516003,-0.00366075,-0.00087764
 ,0.00185972,-0.00113200,0.00261657,0.00609867,-0.16743080,0.26815499,-
 0.01207850,0.01922510,-0.00692432,-0.00434665,-0.00461530,-0.00301405,
 -0.14782776,0.10433297,-0.14996891,-0.00891000,0.00212276,0.00304451,0
 .00174182,-0.00081128,-0.00255957,0.00149714,0.00015574,-0.00018182,0.
 00046518,-0.00119170,-0.00171616,0.17094640,-0.15477970,0.15653984,0.0
 3102488,-0.02511496,0.00807244,-0.00501527,0.01102916,0.00408699,-0.14
 354065,-0.15004484,-0.03335413,-0.01914489,-0.00445944,0.00615882,0.00
 539301,-0.00228809,-0.00053486,0.00585976,0.00619774,-0.00238634,0.001
 49378,-0.00184136,-0.00685814,0.02324687,0.03960855,0.00014852,0.10685
 684,0.02409519,-0.03222982,-0.01402180,-0.00866778,0.01638030,0.005764
 36,-0.14372047,-0.42051588,0.00356605,-0.03002506,-0.01093731,0.015801
 00,0.00711414,-0.00107921,-0.00158256,0.00730325,0.00818096,-0.0027225
 9,0.00124517,-0.00204894,-0.00949290,0.01505357,-0.08333933,0.03919312
 ,0.13574755,0.52899736,-0.02219169,-0.01144992,0.02022186,0.00543158,-
 0.00627514,-0.00414676,-0.01503425,0.01760816,-0.06161868,0.00949235,0
 .00386621,-0.00295326,-0.00227359,0.00112560,0.00057151,-0.00287300,-0
 .00606090,-0.00240429,-0.00060760,0.00087549,0.00368954,0.00768795,0.0
 3950319,0.00304418,0.02545130,-0.03776862,0.04935644,-0.11893375,-0.05
 719198,0.00331855,0.02601874,0.03266642,-0.01199607,-0.01196138,-0.029
 54318,0.01609936,-0.01581861,-0.02382226,-0.00038976,0.00045026,0.0003
 9777,0.00177505,-0.00504503,-0.00289793,0.00860815,0.00251808,0.002290
 19,0.00130697,-0.00010706,0.00007660,-0.00198306,-0.00781734,-0.009473
 80,-0.00529256,0.61499547,-0.00143888,-0.17151230,0.04853018,0.0096850
 6,-0.05671866,0.03212542,-0.01859212,-0.03384563,-0.00336985,-0.010558
 91,-0.02422520,0.00243413,-0.00434885,0.00671754,0.00124936,-0.0041987
 3,0.00019302,0.00466293,0.00286055,0.00599897,0.00160547,-0.00801356,0
 .00336166,-0.00375496,-0.00746224,-0.00211795,0.00055970,0.09658797,0.
 30783721,-0.02019104,0.03821163,-0.05878595,-0.00161307,0.03109747,0.0
 0258922,-0.02100037,-0.01223188,0.00039128,0.02430162,0.01650491,-0.01
 141859,0.00047989,-0.00206234,-0.00057060,0.00208447,0.00095882,-0.003
 70774,0.00157149,0.00443271,0.00651633,0.00756381,-0.00696378,0.001417
 59,0.00050698,0.00116362,-0.00619148,0.12114157,-0.08353949,0.10822251
 ,-0.01458520,-0.01136698,-0.00001844,-0.00098615,0.00663557,-0.0017300
 3,-0.00185505,0.00041845,0.00002530,-0.00179902,-0.00130186,0.00022844
 ,0.00059891,-0.00011945,-0.00017437,0.00057839,0.00039051,-0.00036293,
 0.00045019,0.00042109,-0.00003145,0.00082532,0.00004801,0.00034692,0.0
 0164301,0.00132824,0.00020953,-0.48429939,-0.05452028,-0.11484534,0.49
 942899,-0.05594027,-0.00959446,-0.00850683,0.00833188,0.00414010,-0.00
 173997,-0.00259878,-0.00658183,0.00384080,0.00058963,-0.00051864,0.000
 46776,0.00059893,-0.00011542,-0.00066613,-0.00011716,-0.00016379,0.000
 16230,-0.00004225,-0.00035085,-0.00018624,0.00157319,0.00011837,0.0001
 2326,-0.00137206,-0.00129018,-0.00198377,-0.00908981,-0.03568863,0.012
 42833,0.05806671,0.05004533,0.01797597,0.00439209,0.00761894,-0.002218
 54,-0.00093799,-0.00309906,-0.00149711,-0.00280513,-0.00425831,0.00431
 336,0.00533857,0.00277773,-0.00067117,-0.00001837,-0.00046934,0.000991
 81,0.00019921,-0.00212575,-0.00146748,-0.00130115,-0.00127925,0.000100
 56,-0.00052516,0.00031872,-0.00129157,0.00010031,0.00043095,-0.1325882
 0,-0.00050287,-0.03846257,0.11635237,-0.00393951,0.03854794\\-0.000003
 26,-0.00000505,-0.00000416,-0.00000230,-0.00000150,0.00000195,0.000003
 36,0.00000153,-0.00000116,-0.00000005,0.00000211,-0.00000166,0.0000010
 0,0.00000346,0.00000229,0.00000037,0.00000190,-0.00000001,0.00000249,0
 .00000028,-0.00000151,-0.00000079,0.00000122,0.00000287,-0.00000359,0.
 00000043,0.00000212,0.00000163,-0.00000073,0.00000010,0.00000115,-0.00
 000365,-0.00000084\\\@
 The archive entry for this job was punched.


 IT PROBABLY IS NOT POSSIBLE FOR A SCIENTIST TO INTERROGATE NATURE 
 FROM A WHOLLY DISINTERESTED VIEWPOINT.
 EVEN IF HE HAS NO PARTICULAR AXE TO GRIND, HE IS LIKELY TO HAVE 
 A DISTINCTIVE WAY OF VIEWING NATURE.

                                                   -- JOHN LOSEE
 Job cpu time:       0 days  3 hours  2 minutes 57.0 seconds.
 Elapsed time:       0 days  0 hours 28 minutes 12.2 seconds.
 File lengths (MBytes):  RWF=    123 Int=      0 D2E=      0 Chk=      9 Scr=      1
 Normal termination of Gaussian 16 at Sat May 24 02:29:12 2025.
done
