 Entering Gaussian System, Link 0=g16
 Initial command:
 /apps/easybuild-2022/easybuild/software/Compiler/NVHPC/22.11-CUDA-11.7.0/Gaussian/g16c01-CUDA-11.7.0/g16/l1.exe "/tmp/Gau-244121.inp" -scrdir="/tmp/"
 Entering Link 1 = /apps/easybuild-2022/easybuild/software/Compiler/NVHPC/22.11-CUDA-11.7.0/Gaussian/g16c01-CUDA-11.7.0/g16/l1.exe PID=    244125.
  
 Copyright (c) 1988-2019, Gaussian, Inc.  All Rights Reserved.
  
 This is part of the Gaussian(R) 16 program.  It is based on
 the Gaussian(R) 09 system (copyright 2009, Gaussian, Inc.),
 the Gaussian(R) 03 system (copyright 2003, Gaussian, Inc.),
 the Gaussian(R) 98 system (copyright 1998, Gaussian, Inc.),
 the Gaussian(R) 94 system (copyright 1995, Gaussian, Inc.),
 the Gaussian 92(TM) system (copyright 1992, Gaussian, Inc.),
 the Gaussian 90(TM) system (copyright 1990, Gaussian, Inc.),
 the Gaussian 88(TM) system (copyright 1988, Gaussian, Inc.),
 the Gaussian 86(TM) system (copyright 1986, Carnegie Mellon
 University), and the Gaussian 82(TM) system (copyright 1983,
 Carnegie Mellon University). Gaussian is a federally registered
 trademark of Gaussian, Inc.
  
 This software contains proprietary and confidential information,
 including trade secrets, belonging to Gaussian, Inc.
  
 This software is provided under written license and may be
 used, copied, transmitted, or stored only in accord with that
 written license.
  
 The following legend is applicable only to US Government
 contracts under FAR:
  
                    RESTRICTED RIGHTS LEGEND
  
 Use, reproduction and disclosure by the US Government is
 subject to restrictions as set forth in subparagraphs (a)
 and (c) of the Commercial Computer Software - Restricted
 Rights clause in FAR 52.227-19.
  
 Gaussian, Inc.
 340 Quinnipiac St., Bldg. 40, Wallingford CT 06492
  
  
 ---------------------------------------------------------------
 Warning -- This program may not be used in any manner that
 competes with the business of Gaussian, Inc. or will provide
 assistance to any competitor of Gaussian, Inc.  The licensee
 of this program is prohibited from giving any competitor of
 Gaussian, Inc. access to this program.  By using this program,
 the user acknowledges that Gaussian, Inc. is engaged in the
 business of creating and licensing software in the field of
 computational chemistry and represents and warrants to the
 licensee that it is not a competitor of Gaussian, Inc. and that
 it will not use this program in any manner prohibited above.
 ---------------------------------------------------------------
  

 Cite this work as:
 Gaussian 16, Revision C.01,
 M. J. Frisch, G. W. Trucks, H. B. Schlegel, G. E. Scuseria, 
 M. A. Robb, J. R. Cheeseman, G. Scalmani, V. Barone, 
 G. A. Petersson, H. Nakatsuji, X. Li, M. Caricato, A. V. Marenich, 
 J. Bloino, B. G. Janesko, R. Gomperts, B. Mennucci, H. P. Hratchian, 
 J. V. Ortiz, A. F. Izmaylov, J. L. Sonnenberg, D. Williams-Young, 
 F. Ding, F. Lipparini, F. Egidi, J. Goings, B. Peng, A. Petrone, 
 T. Henderson, D. Ranasinghe, V. G. Zakrzewski, J. Gao, N. Rega, 
 G. Zheng, W. Liang, M. Hada, M. Ehara, K. Toyota, R. Fukuda, 
 J. Hasegawa, M. Ishida, T. Nakajima, Y. Honda, O. Kitao, H. Nakai, 
 T. Vreven, K. Throssell, J. A. Montgomery, Jr., J. E. Peralta, 
 F. Ogliaro, M. J. Bearpark, J. J. Heyd, E. N. Brothers, K. N. Kudin, 
 V. N. Staroverov, T. A. Keith, R. Kobayashi, J. Normand, 
 K. Raghavachari, A. P. Rendell, J. C. Burant, S. S. Iyengar, 
 J. Tomasi, M. Cossi, J. M. Millam, M. Klene, C. Adamo, R. Cammi, 
 J. W. Ochterski, R. L. Martin, K. Morokuma, O. Farkas, 
 J. B. Foresman, and D. J. Fox, Gaussian, Inc., Wallingford CT, 2019.
 
 ******************************************
 Gaussian 16:  ES64L-G16RevC.01  3-Jul-2019
                24-May-2025 
 ******************************************
 %mem=28GB
 %chk=1642764945472630600001_r12_insertion_R_1_3_4_IRC_F
 %nprocshared=8
 Will use up to    8 processors via shared memory.
 ----------------------------------------------------------------------
 #P M062X/Def2TZVPP Symm(None) scf(xqc) pop(None) geom(AllCheck,NoKeepC
 onstants) guess(Read) irc(RCFC,forward,MaxPoints=100,StepSize=2)
 ----------------------------------------------------------------------
 1/10=5,18=10,22=1,26=3,29=20007,38=1,39=2,42=100,44=3,172=1/1,23;
 2/12=2,15=3,29=1,40=1/2;
 3/5=44,7=202,11=2,14=-4,25=1,30=1,71=2,74=-55,116=-2,140=1/1,2,3;
 4/5=1/1;
 5/5=2,8=3,13=1,38=6/2,8;
 8/6=4,10=90,11=11/1;
 11/6=1,8=1,9=11,15=111,16=1,31=1/1,2,10;
 10/6=1,13=1,31=1/2;
 7/10=1,25=1,30=1/1,2,3,16;
 1/18=10,22=1,26=3,39=2,42=100,44=3/23(2);
 2/15=3,29=1/2;
 99/5=20/99;
 2/15=3,29=1/2;
 3/5=44,7=202,11=2,14=-2,25=1,30=1,71=2,74=-55,140=1/1,2,3;
 4/5=5,16=3,69=1/1;
 5/5=2,8=3,13=1,38=5/2,8;
 8/6=4,10=90,11=11/1;
 11/6=1,8=1,9=11,15=111,16=1,31=1/1,2,10;
 10/6=1,13=1,31=1/2;
 7/10=1,25=1,30=1/1,2,3,16;
 1/18=10,22=1,26=3,39=2,42=100,44=3/23(-8);
 2/15=3,29=1/2;
 99/5=20,9=1/99;
 Leave Link    1 at Sat May 24 02:41:42 2025, MaxMem=  3758096384 cpu:               0.0 elap:               0.0
 (Enter /apps/easybuild-2022/easybuild/software/Compiler/NVHPC/22.11-CUDA-11.7.0/Gaussian/g16c01-CUDA-11.7.0/g16/l101.exe)
 Structure from the checkpoint file:  "1642764945472630600001_r12_insertion_R_1_3_4_IRC_F.chk"
 ------------------------------
 Gaussian input prepared by ASE
 ------------------------------
 Charge =  0 Multiplicity = 1
 Redundant internal coordinates found in file.  (old form).
 C,0,1.1359288506,0.1398912326,0.3041603163
 O,0,1.9754782082,-0.6698113757,0.7092190603
 C,0,0.0330010491,-0.3547671008,-0.6740315045
 C,0,-0.0351190866,0.4561891678,1.5186333805
 F,0,-1.0088957338,1.2997798888,1.1724818184
 F,0,-0.5919953929,-0.6641228843,1.9608367417
 F,0,0.6689719927,1.0032215162,2.4842500648
 F,0,-0.7730288558,0.3913118666,-1.3005425187
 F,0,-0.3753028687,-1.5452844651,-0.6070505783
 O,0,1.4838671222,1.416701866,-0.1432709333
 H,0,2.4165927151,1.4982942879,0.0874111528
 Recover connectivity data from disk.
 ITRead=  0  0  0  0  0  0  0  0  0  0  0
 MicOpt= -1 -1 -1 -1 -1 -1 -1 -1 -1 -1 -1
 NAtoms=     11 NQM=       11 NQMF=       0 NMMI=      0 NMMIF=      0
                NMic=       0 NMicF=      0.
                    Isotopes and Nuclear Properties:
 (Nuclear quadrupole moments (NQMom) in fm**2, nuclear magnetic moments (NMagM)
  in nuclear magnetons)

  Atom         1           2           3           4           5           6           7           8           9          10
 IAtWgt=          12          16          12          12          19          19          19          19          19          16
 AtmWgt=  12.0000000  15.9949146  12.0000000  12.0000000  18.9984032  18.9984032  18.9984032  18.9984032  18.9984032  15.9949146
 NucSpn=           0           0           0           0           1           1           1           1           1           0
 AtZEff=   3.6000000   5.6000000   3.6000000   3.6000000   6.7500000   6.7500000   6.7500000   6.7500000   6.7500000   5.6000000
 NQMom=    0.0000000   0.0000000   0.0000000   0.0000000   0.0000000   0.0000000   0.0000000   0.0000000   0.0000000   0.0000000
 NMagM=    0.0000000   0.0000000   0.0000000   0.0000000   2.6288670   2.6288670   2.6288670   2.6288670   2.6288670   0.0000000
 AtZNuc=   6.0000000   8.0000000   6.0000000   6.0000000   9.0000000   9.0000000   9.0000000   9.0000000   9.0000000   8.0000000

  Atom        11
 IAtWgt=           1
 AtmWgt=   1.0078250
 NucSpn=           1
 AtZEff=   1.0000000
 NQMom=    0.0000000
 NMagM=    2.7928460
 AtZNuc=   1.0000000
 Leave Link  101 at Sat May 24 02:41:42 2025, MaxMem=  3758096384 cpu:               0.2 elap:               0.2
 (Enter /apps/easybuild-2022/easybuild/software/Compiler/NVHPC/22.11-CUDA-11.7.0/Gaussian/g16c01-CUDA-11.7.0/g16/l123.exe)
 IRC-IRC-IRC-IRC-IRC-IRC-IRC-IRC-IRC-IRC-IRC-IRC-IRC-IRC-IRC-IRC-IRC-IRC
 ------------------------------------------------------------------------
 INPUT DATA FOR L123
 ------------------------------------------------------------------------
 GENERAL PARAMETERS:
 Rxn path following direction = Forward
 Maximum points per path      = 100
 Step size                    =   0.020 bohr
 Integration scheme           = HPC                                 
    Redo corrector integration= Yes                                 
    DWI Weight Power          =  2
    DWI will use Hessian update vectors when possible.
    Max correction cycles     =  20
 Initial Hessian              = ReadFC from chk
 Hessian evaluation           = All updating
 Hessian updating method      = Bofill                              
 ------------------------------------------------------------------------
          ******** Start new reaction path calculation ********
 RCFC Option Requested - Data Read From Chk File:
 "1642764945472630600001_r12_insertion_R_1_3_4_IRC_F.chk"
   Energy From Chk =   -764.5291067

 Current Structure is TS -> form Hessian eigenvectors.
                            Recovering Hessian eigenvectors from chk file.
 Supplied step size of   0.0200 bohr.
    Integration on MW PES will use step size of   0.0589 sqrt(amu)*bohr.
 Point Number:   0          Path Number:   1
 Calculating another point on the path.
 Point Number  1 in FORWARD path direction.
 Using LQA Reaction Path Following.
 IRC-IRC-IRC-IRC-IRC-IRC-IRC-IRC-IRC-IRC-IRC-IRC-IRC-IRC-IRC-IRC-IRC-IRC
 Leave Link  123 at Sat May 24 02:41:42 2025, MaxMem=  3758096384 cpu:               0.0 elap:               0.0
 (Enter /apps/easybuild-2022/easybuild/software/Compiler/NVHPC/22.11-CUDA-11.7.0/Gaussian/g16c01-CUDA-11.7.0/g16/l202.exe)
                          Input orientation:                          
 ---------------------------------------------------------------------
 Center     Atomic      Atomic             Coordinates (Angstroms)
 Number     Number       Type             X           Y           Z
 ---------------------------------------------------------------------
      1          6           0        0.943341   -0.017379   -0.270253
      2          8           0        1.781794   -0.825822    0.139173
      3          6           0       -0.159958   -0.509918   -1.241461
      4          6           0       -0.232072    0.299747    0.948468
      5          9           0       -1.204754    1.144215    0.603514
      6          9           0       -0.787379   -0.820316    1.391800
      7          9           0        0.474833    0.846495    1.912324
      8          9           0       -0.966031    0.236530   -1.868497
      9          9           0       -0.568905   -1.700716   -1.174709
     10          8           0        1.290032    1.260732   -0.713360
     11          1           0        2.220889    1.345282   -0.476099
 ---------------------------------------------------------------------
                    Distance matrix (angstroms):
                    1          2          3          4          5
     1  C    0.000000
     2  O    1.234590   0.000000
     3  C    1.550196   2.403403   0.000000
     4  C    1.722628   2.444897   2.335925   0.000000
     5  F    2.593662   3.607787   2.689179   1.333503   0.000000
     6  F    2.530321   2.858279   2.724714   1.326443   2.157540
     7  F    2.393621   2.765657   3.491300   1.314407   2.150031
     8  F    2.502910   3.565091   1.264956   2.911698   2.644185
     9  F    2.436915   2.831521   1.260831   2.936527   3.414676
    10  O    1.396462   2.307022   2.348737   2.449891   2.823417
    11  H    1.879187   2.298924   3.113836   3.023169   3.597363
                    6          7          8          9         10
     6  F    0.000000
     7  F    2.154619   0.000000
     8  F    3.431964   4.091791   0.000000
     9  F    2.722095   4.136115   2.095704   0.000000
    10  O    3.616365   2.780352   2.733707   3.526849   0.000000
    11  H    4.150728   3.000344   3.650283   4.189166   0.964332
                   11
    11  H    0.000000
 Symmetry turned off by external request.
 Stoichiometry    C3HF5O2
 Rotational constants (GHZ):           1.7466195           1.2765724           1.1856076
 Leave Link  202 at Sat May 24 02:41:42 2025, MaxMem=  3758096384 cpu:               0.0 elap:               0.0
 (Enter /apps/easybuild-2022/easybuild/software/Compiler/NVHPC/22.11-CUDA-11.7.0/Gaussian/g16c01-CUDA-11.7.0/g16/l301.exe)
 Standard basis: def2TZVPP (5D, 7F)
 Ernie: Thresh=  0.10000D-02 Tol=  0.10000D-05 Strict=F.
   324 basis functions,   527 primitive gaussians,   375 cartesian basis functions
    40 alpha electrons       40 beta electrons
       nuclear repulsion energy       642.0519460860 Hartrees.
 IExCor= 4336 DFT=T Ex+Corr=M062X ExCW=0 ScaHFX=  0.540000
 ScaDFX=  1.000000  1.000000  1.000000  1.000000 ScalE2=  1.000000  1.000000
 IRadAn=      5 IRanWt=     -1 IRanGd=            0 ICorTp=0 IEmpDi=  4
 NAtoms=   11 NActive=   11 NUniq=   11 SFac= 1.00D+00 NAtFMM=   60 NAOKFM=F Big=F
 Integral buffers will be    131072 words long.
 Raffenetti 2 integral format.
 Two-electron integral symmetry is turned off.
 Leave Link  301 at Sat May 24 02:41:42 2025, MaxMem=  3758096384 cpu:               0.0 elap:               0.0
 (Enter /apps/easybuild-2022/easybuild/software/Compiler/NVHPC/22.11-CUDA-11.7.0/Gaussian/g16c01-CUDA-11.7.0/g16/l302.exe)
 NPDir=0 NMtPBC=     1 NCelOv=     1 NCel=       1 NClECP=     1 NCelD=      1
         NCelK=      1 NCelE2=     1 NClLst=     1 CellRange=     0.0.
 One-electron integrals computed using PRISM.
   1 Symmetry operations used in ECPInt.
 ECPInt:  NShTT=    6786 NPrTT=   21959 LenC2=    6512 LenP2D=   16101.
 LDataN:  DoStor=T MaxTD1= 6 Len=  172
 NBasis=   324 RedAO= T EigKep=  3.18D-04  NBF=   324
 NBsUse=   324 1.00D-06 EigRej= -1.00D+00 NBFU=   324
 Precomputing XC quadrature grid using
 IXCGrd= 4 IRadAn=           5 IRanWt=          -1 IRanGd=           0 AccXCQ= 0.00D+00.
 Generated NRdTot=       0 NPtTot=           0 NUsed=           0 NTot=          32
 NSgBfM=   373   373   373   373   373 MxSgAt=    11 MxSgA2=    11.
 Leave Link  302 at Sat May 24 02:41:42 2025, MaxMem=  3758096384 cpu:               0.6 elap:               0.1
 (Enter /apps/easybuild-2022/easybuild/software/Compiler/NVHPC/22.11-CUDA-11.7.0/Gaussian/g16c01-CUDA-11.7.0/g16/l303.exe)
 DipDrv:  MaxL=1.
 Leave Link  303 at Sat May 24 02:41:42 2025, MaxMem=  3758096384 cpu:               0.1 elap:               0.0
 (Enter /apps/easybuild-2022/easybuild/software/Compiler/NVHPC/22.11-CUDA-11.7.0/Gaussian/g16c01-CUDA-11.7.0/g16/l401.exe)
 Initial guess from the checkpoint file:  "1642764945472630600001_r12_insertion_R_1_3_4_IRC_F.chk"
 B after Tr=    -0.367012   -0.294552   -1.076373
         Rot=    1.000000   -0.000013    0.000014   -0.000012 Ang=  -0.00 deg.
 Guess basis will be translated and rotated to current coordinates.
 JPrj=2 DoOrth=T DoCkMO=T.
 Leave Link  401 at Sat May 24 02:41:42 2025, MaxMem=  3758096384 cpu:               0.3 elap:               0.2
 (Enter /apps/easybuild-2022/easybuild/software/Compiler/NVHPC/22.11-CUDA-11.7.0/Gaussian/g16c01-CUDA-11.7.0/g16/l502.exe)
 Keep R1 ints in memory in canonical form, NReq=1412617130.
 FoFCou: FMM=F IPFlag=           0 FMFlag=           0 FMFlg1=           0
         NFxFlg=           0 DoJE=F BraDBF=F KetDBF=F FulRan=T
         wScrn=  0.000000 ICntrl=       600 IOpCl=  0 I1Cent=           0 NGrid=           0
         NMat0=    1 NMatS0=  52650 NMatT0=    0 NMatD0=    1 NMtDS0=    0 NMtDT0=    0
 Symmetry not used in FoFCou.
 Two-electron integral symmetry not used.
 Closed shell SCF:
 Using DIIS extrapolation, IDIIS=  1040.
 NGot=  3758096384 LenX=  2371771924 LenY=  2371630858
 Requested convergence on RMS density matrix=1.00D-08 within  32 cycles.
 Requested convergence on MAX density matrix=1.00D-06.
 Requested convergence on             energy=1.00D-06.
 No special actions if energy rises.

 Cycle   1  Pass 1  IDiag  1:
 E= -764.529049930177    
 DIIS: error= 1.90D-04 at cycle   1 NSaved=   1.
 NSaved= 1 IEnMin= 1 EnMin= -764.529049930177     IErMin= 1 ErrMin= 1.90D-04
 ErrMax= 1.90D-04  0.00D+00 EMaxC= 1.00D-01 BMatC= 3.60D-05 BMatP= 3.60D-05
 IDIUse=3 WtCom= 9.98D-01 WtEn= 1.90D-03
 Coeff-Com:  0.100D+01
 Coeff-En:   0.100D+01
 Coeff:      0.100D+01
 Gap=     0.215 Goal=   None    Shift=    0.000
 RMSDP=3.01D-05 MaxDP=1.18D-03              OVMax= 4.07D-03

 Cycle   2  Pass 1  IDiag  1:
 E= -764.529104947249     Delta-E=       -0.000055017072 Rises=F Damp=F
 DIIS: error= 7.25D-05 at cycle   2 NSaved=   2.
 NSaved= 2 IEnMin= 2 EnMin= -764.529104947249     IErMin= 2 ErrMin= 7.25D-05
 ErrMax= 7.25D-05  0.00D+00 EMaxC= 1.00D-01 BMatC= 4.23D-06 BMatP= 3.60D-05
 IDIUse=1 WtCom= 1.00D+00 WtEn= 0.00D+00
 Coeff-Com:  0.109D-01 0.989D+00
 Coeff:      0.109D-01 0.989D+00
 Gap=     0.212 Goal=   None    Shift=    0.000
 RMSDP=1.31D-05 MaxDP=6.69D-04 DE=-5.50D-05 OVMax= 1.28D-03

 Cycle   3  Pass 1  IDiag  1:
 E= -764.529108881849     Delta-E=       -0.000003934600 Rises=F Damp=F
 DIIS: error= 8.78D-05 at cycle   3 NSaved=   3.
 NSaved= 3 IEnMin= 3 EnMin= -764.529108881849     IErMin= 2 ErrMin= 7.25D-05
 ErrMax= 8.78D-05  0.00D+00 EMaxC= 1.00D-01 BMatC= 3.31D-06 BMatP= 4.23D-06
 IDIUse=1 WtCom= 1.00D+00 WtEn= 0.00D+00
 Coeff-Com: -0.829D-01 0.510D+00 0.572D+00
 Coeff:     -0.829D-01 0.510D+00 0.572D+00
 Gap=     0.211 Goal=   None    Shift=    0.000
 RMSDP=5.95D-06 MaxDP=2.01D-04 DE=-3.93D-06 OVMax= 1.27D-03

 Cycle   4  Pass 1  IDiag  1:
 E= -764.529112271442     Delta-E=       -0.000003389593 Rises=F Damp=F
 DIIS: error= 1.68D-05 at cycle   4 NSaved=   4.
 NSaved= 4 IEnMin= 4 EnMin= -764.529112271442     IErMin= 4 ErrMin= 1.68D-05
 ErrMax= 1.68D-05  0.00D+00 EMaxC= 1.00D-01 BMatC= 2.00D-07 BMatP= 3.31D-06
 IDIUse=1 WtCom= 1.00D+00 WtEn= 0.00D+00
 Coeff-Com: -0.362D-02-0.954D-01 0.119D+00 0.980D+00
 Coeff:     -0.362D-02-0.954D-01 0.119D+00 0.980D+00
 Gap=     0.211 Goal=   None    Shift=    0.000
 RMSDP=2.83D-06 MaxDP=1.33D-04 DE=-3.39D-06 OVMax= 4.37D-04

 Cycle   5  Pass 1  IDiag  1:
 E= -764.529112605459     Delta-E=       -0.000000334017 Rises=F Damp=F
 DIIS: error= 8.09D-06 at cycle   5 NSaved=   5.
 NSaved= 5 IEnMin= 5 EnMin= -764.529112605459     IErMin= 5 ErrMin= 8.09D-06
 ErrMax= 8.09D-06  0.00D+00 EMaxC= 1.00D-01 BMatC= 5.31D-08 BMatP= 2.00D-07
 IDIUse=1 WtCom= 1.00D+00 WtEn= 0.00D+00
 Coeff-Com:  0.820D-02-0.119D+00 0.200D-01 0.491D+00 0.599D+00
 Coeff:      0.820D-02-0.119D+00 0.200D-01 0.491D+00 0.599D+00
 Gap=     0.211 Goal=   None    Shift=    0.000
 RMSDP=9.64D-07 MaxDP=3.72D-05 DE=-3.34D-07 OVMax= 1.69D-04

 Cycle   6  Pass 1  IDiag  1:
 E= -764.529112667669     Delta-E=       -0.000000062210 Rises=F Damp=F
 DIIS: error= 3.36D-06 at cycle   6 NSaved=   6.
 NSaved= 6 IEnMin= 6 EnMin= -764.529112667669     IErMin= 6 ErrMin= 3.36D-06
 ErrMax= 3.36D-06  0.00D+00 EMaxC= 1.00D-01 BMatC= 8.51D-09 BMatP= 5.31D-08
 IDIUse=1 WtCom= 1.00D+00 WtEn= 0.00D+00
 Coeff-Com:  0.475D-02-0.308D-01-0.547D-02-0.654D-01 0.211D+00 0.886D+00
 Coeff:      0.475D-02-0.308D-01-0.547D-02-0.654D-01 0.211D+00 0.886D+00
 Gap=     0.211 Goal=   None    Shift=    0.000
 RMSDP=7.03D-07 MaxDP=3.30D-05 DE=-6.22D-08 OVMax= 1.15D-04

 Cycle   7  Pass 1  IDiag  1:
 E= -764.529112683963     Delta-E=       -0.000000016294 Rises=F Damp=F
 DIIS: error= 1.14D-06 at cycle   7 NSaved=   7.
 NSaved= 7 IEnMin= 7 EnMin= -764.529112683963     IErMin= 7 ErrMin= 1.14D-06
 ErrMax= 1.14D-06  0.00D+00 EMaxC= 1.00D-01 BMatC= 1.01D-09 BMatP= 8.51D-09
 IDIUse=1 WtCom= 1.00D+00 WtEn= 0.00D+00
 Coeff-Com:  0.465D-03 0.641D-02 0.167D-02-0.919D-01-0.304D-01 0.292D+00
 Coeff-Com:  0.822D+00
 Coeff:      0.465D-03 0.641D-02 0.167D-02-0.919D-01-0.304D-01 0.292D+00
 Coeff:      0.822D+00
 Gap=     0.211 Goal=   None    Shift=    0.000
 RMSDP=2.11D-07 MaxDP=6.60D-06 DE=-1.63D-08 OVMax= 5.05D-05

 Cycle   8  Pass 1  IDiag  1:
 E= -764.529112685907     Delta-E=       -0.000000001944 Rises=F Damp=F
 DIIS: error= 5.83D-07 at cycle   8 NSaved=   8.
 NSaved= 8 IEnMin= 8 EnMin= -764.529112685907     IErMin= 8 ErrMin= 5.83D-07
 ErrMax= 5.83D-07  0.00D+00 EMaxC= 1.00D-01 BMatC= 2.18D-10 BMatP= 1.01D-09
 IDIUse=1 WtCom= 1.00D+00 WtEn= 0.00D+00
 Coeff-Com: -0.508D-03 0.758D-02 0.289D-02-0.329D-01-0.508D-01-0.235D-01
 Coeff-Com:  0.356D+00 0.741D+00
 Coeff:     -0.508D-03 0.758D-02 0.289D-02-0.329D-01-0.508D-01-0.235D-01
 Coeff:      0.356D+00 0.741D+00
 Gap=     0.211 Goal=   None    Shift=    0.000
 RMSDP=8.34D-08 MaxDP=2.64D-06 DE=-1.94D-09 OVMax= 1.65D-05

 Cycle   9  Pass 1  IDiag  1:
 E= -764.529112686218     Delta-E=       -0.000000000311 Rises=F Damp=F
 DIIS: error= 1.48D-07 at cycle   9 NSaved=   9.
 NSaved= 9 IEnMin= 9 EnMin= -764.529112686218     IErMin= 9 ErrMin= 1.48D-07
 ErrMax= 1.48D-07  0.00D+00 EMaxC= 1.00D-01 BMatC= 1.25D-11 BMatP= 2.18D-10
 IDIUse=1 WtCom= 1.00D+00 WtEn= 0.00D+00
 Coeff-Com: -0.191D-03 0.133D-02 0.118D-02 0.940D-03-0.112D-01-0.425D-01
 Coeff-Com:  0.131D-01 0.169D+00 0.868D+00
 Coeff:     -0.191D-03 0.133D-02 0.118D-02 0.940D-03-0.112D-01-0.425D-01
 Coeff:      0.131D-01 0.169D+00 0.868D+00
 Gap=     0.211 Goal=   None    Shift=    0.000
 RMSDP=3.08D-08 MaxDP=1.30D-06 DE=-3.11D-10 OVMax= 5.44D-06

 Cycle  10  Pass 1  IDiag  1:
 E= -764.529112686297     Delta-E=       -0.000000000080 Rises=F Damp=F
 DIIS: error= 4.54D-08 at cycle  10 NSaved=  10.
 NSaved=10 IEnMin=10 EnMin= -764.529112686297     IErMin=10 ErrMin= 4.54D-08
 ErrMax= 4.54D-08  0.00D+00 EMaxC= 1.00D-01 BMatC= 2.11D-12 BMatP= 1.25D-11
 IDIUse=1 WtCom= 1.00D+00 WtEn= 0.00D+00
 Coeff-Com:  0.159D-04-0.716D-03 0.189D-03 0.499D-02 0.373D-02-0.104D-01
 Coeff-Com: -0.421D-01-0.506D-01 0.307D+00 0.788D+00
 Coeff:      0.159D-04-0.716D-03 0.189D-03 0.499D-02 0.373D-02-0.104D-01
 Coeff:     -0.421D-01-0.506D-01 0.307D+00 0.788D+00
 Gap=     0.211 Goal=   None    Shift=    0.000
 RMSDP=1.07D-08 MaxDP=5.88D-07 DE=-7.96D-11 OVMax= 1.63D-06

 Cycle  11  Pass 1  IDiag  1:
 E= -764.529112686290     Delta-E=        0.000000000008 Rises=F Damp=F
 DIIS: error= 1.89D-08 at cycle  11 NSaved=  11.
 NSaved=11 IEnMin=10 EnMin= -764.529112686297     IErMin=11 ErrMin= 1.89D-08
 ErrMax= 1.89D-08  0.00D+00 EMaxC= 1.00D-01 BMatC= 3.07D-13 BMatP= 2.11D-12
 IDIUse=1 WtCom= 1.00D+00 WtEn= 0.00D+00
 Coeff-Com:  0.250D-04-0.423D-03-0.634D-04 0.157D-02 0.266D-02 0.694D-03
 Coeff-Com: -0.179D-01-0.428D-01 0.148D-01 0.309D+00 0.732D+00
 Coeff:      0.250D-04-0.423D-03-0.634D-04 0.157D-02 0.266D-02 0.694D-03
 Coeff:     -0.179D-01-0.428D-01 0.148D-01 0.309D+00 0.732D+00
 Gap=     0.211 Goal=   None    Shift=    0.000
 RMSDP=3.49D-09 MaxDP=1.28D-07 DE= 7.96D-12 OVMax= 5.26D-07

 SCF Done:  E(RM062X) =  -764.529112686     A.U. after   11 cycles
            NFock= 11  Conv=0.35D-08     -V/T= 2.0036
 KE= 7.617561391035D+02 PE=-3.095944181838D+03 EE= 9.276069839627D+02
 Leave Link  502 at Sat May 24 02:42:06 2025, MaxMem=  3758096384 cpu:             113.6 elap:              23.5
 (Enter /apps/easybuild-2022/easybuild/software/Compiler/NVHPC/22.11-CUDA-11.7.0/Gaussian/g16c01-CUDA-11.7.0/g16/l508.exe)
 QCSCF skips out because SCF is already converged.
 Leave Link  508 at Sat May 24 02:42:06 2025, MaxMem=  3758096384 cpu:               0.0 elap:               0.0
 (Enter /apps/easybuild-2022/easybuild/software/Compiler/NVHPC/22.11-CUDA-11.7.0/Gaussian/g16c01-CUDA-11.7.0/g16/l801.exe)
 DoSCS=F DFT=T ScalE2(SS,OS)=  1.000000  1.000000
 Range of M.O.s used for correlation:     1   324
 NBasis=   324 NAE=    40 NBE=    40 NFC=     0 NFV=     0
 NROrb=    324 NOA=    40 NOB=    40 NVA=   284 NVB=   284

 **** Warning!!: The largest alpha MO coefficient is  0.14231610D+02

 Leave Link  801 at Sat May 24 02:42:06 2025, MaxMem=  3758096384 cpu:               0.0 elap:               0.0
 (Enter /apps/easybuild-2022/easybuild/software/Compiler/NVHPC/22.11-CUDA-11.7.0/Gaussian/g16c01-CUDA-11.7.0/g16/l1101.exe)
 Leave Link 1101 at Sat May 24 02:42:06 2025, MaxMem=  3758096384 cpu:               0.0 elap:               0.0
 (Enter /apps/easybuild-2022/easybuild/software/Compiler/NVHPC/22.11-CUDA-11.7.0/Gaussian/g16c01-CUDA-11.7.0/g16/l1102.exe)
 Symmetrizing basis deriv contribution to polar:
 IMax=3 JMax=2 DiffMx= 0.00D+00
 Leave Link 1102 at Sat May 24 02:42:06 2025, MaxMem=  3758096384 cpu:               0.1 elap:               0.0
 (Enter /apps/easybuild-2022/easybuild/software/Compiler/NVHPC/22.11-CUDA-11.7.0/Gaussian/g16c01-CUDA-11.7.0/g16/l1110.exe)
 Leave Link 1110 at Sat May 24 02:42:06 2025, MaxMem=  3758096384 cpu:               0.0 elap:               0.0
 (Enter /apps/easybuild-2022/easybuild/software/Compiler/NVHPC/22.11-CUDA-11.7.0/Gaussian/g16c01-CUDA-11.7.0/g16/l1002.exe)
 Minotr:  Closed shell wavefunction.
 Leave Link 1002 at Sat May 24 02:42:06 2025, MaxMem=  3758096384 cpu:               0.0 elap:               0.0
 (Enter /apps/easybuild-2022/easybuild/software/Compiler/NVHPC/22.11-CUDA-11.7.0/Gaussian/g16c01-CUDA-11.7.0/g16/l701.exe)
 ... and contract with generalized density number  0.
 Compute integral first derivatives.
   1 Symmetry operations used in ECPInt.
 ECPInt:  NShTT=    6786 NPrTT=   21959 LenC2=    6512 LenP2D=   16101.
 LDataN:  DoStor=T MaxTD1= 7 Len=  274
 Leave Link  701 at Sat May 24 02:42:06 2025, MaxMem=  3758096384 cpu:               0.5 elap:               0.1
 (Enter /apps/easybuild-2022/easybuild/software/Compiler/NVHPC/22.11-CUDA-11.7.0/Gaussian/g16c01-CUDA-11.7.0/g16/l702.exe)
 L702 exits ... SP integral derivatives will be done elsewhere.
 Leave Link  702 at Sat May 24 02:42:06 2025, MaxMem=  3758096384 cpu:               0.0 elap:               0.0
 (Enter /apps/easybuild-2022/easybuild/software/Compiler/NVHPC/22.11-CUDA-11.7.0/Gaussian/g16c01-CUDA-11.7.0/g16/l703.exe)
 Integral derivatives from FoFJK, PRISM(SPDF).
 Compute integral first derivatives, UseDBF=F ICtDFT=           0.
 Calling FoFJK, ICntrl=      2127 FMM=F ISym2X=0 I1Cent= 0 IOpClX= 0 NMat=1 NMatS=1 NMatT=0.
 FoFJK:  IHMeth= 1 ICntrl=    2127 DoSepK=F KAlg= 0 I1Cent=           0 FoldK=F
 IRaf=         0 NMat=       1 IRICut=       1 DoRegI=T DoRafI=F ISym2E= 0 IDoP0=0 IntGTp=1.
 FoFCou: FMM=F IPFlag=           0 FMFlag=      100000 FMFlg1=         800
         NFxFlg=           0 DoJE=F BraDBF=F KetDBF=F FulRan=T
         wScrn=  0.000000 ICntrl=      2127 IOpCl=  0 I1Cent=           0 NGrid=           0
         NMat0=    1 NMatS0=      1 NMatT0=    0 NMatD0=    1 NMtDS0=    0 NMtDT0=    0
 Symmetry not used in FoFCou.
 Leave Link  703 at Sat May 24 02:42:15 2025, MaxMem=  3758096384 cpu:              73.7 elap:               9.3
 (Enter /apps/easybuild-2022/easybuild/software/Compiler/NVHPC/22.11-CUDA-11.7.0/Gaussian/g16c01-CUDA-11.7.0/g16/l716.exe)
 Dipole        =-7.61979131D-01 1.40924522D-01-1.16475032D+00
 Polarizability= 0.00000000D+00 0.00000000D+00 0.00000000D+00
                 0.00000000D+00 0.00000000D+00 0.00000000D+00
 -------------------------------------------------------------------
 Center     Atomic                   Forces (Hartrees/Bohr)
 Number     Number              X              Y              Z
 -------------------------------------------------------------------
      1        6           0.000184922   -0.000098789   -0.000365144
      2        8           0.000047296   -0.000001258   -0.000056517
      3        6           0.000071314    0.000057023    0.000186511
      4        6          -0.000226727   -0.000043403   -0.000035552
      5        9          -0.000201413    0.000034954    0.000075847
      6        9          -0.000143725   -0.000038309    0.000069368
      7        9           0.000006580   -0.000106638   -0.000293327
      8        9           0.000153587    0.000139609    0.000193445
      9        9           0.000084162    0.000050713    0.000234931
     10        8           0.000063207   -0.000011244   -0.000044060
     11        1          -0.000039205    0.000017340    0.000034497
 -------------------------------------------------------------------
 Cartesian Forces:  Max     0.000365144 RMS     0.000135598
 Leave Link  716 at Sat May 24 02:42:16 2025, MaxMem=  3758096384 cpu:               0.0 elap:               0.0
 (Enter /apps/easybuild-2022/easybuild/software/Compiler/NVHPC/22.11-CUDA-11.7.0/Gaussian/g16c01-CUDA-11.7.0/g16/l123.exe)
 IRC-IRC-IRC-IRC-IRC-IRC-IRC-IRC-IRC-IRC-IRC-IRC-IRC-IRC-IRC-IRC-IRC-IRC
 Pt  1 Step number   1 out of a maximum of  20
 Using modified Bulirsch-Stoer corrector integration.
   Using distance weighted interpolants to fit PES.
 PreDWI: IReCr0= 2 IReCr1= 1 IReCr2= 1 IReCr3= 1
 Modified Bulirsch-Stoer Extrapolation Cycles:
    EPS =    0.000010000000000
    Cycle     1 NS=    48
      PEZero:  N= 2 I= 1 D=  1.53D-04 Err=  7.14D-03
    Cycle     2 NS=    64 Truncation Error =  0.007143918
      PEZero:  N= 3 I= 2 D=  1.53D-04 Err=  8.30D-04
      PEZero:  N= 3 I= 1 D=  3.07D-04 Err=  5.90D-03
    Cycle     3 NS=    96 Truncation Error =  0.000829674
      PEZero:  N= 4 I= 3 D=  7.67D-05 Err=  1.24D-04
      PEZero:  N= 4 I= 2 D=  2.30D-04 Err=  6.65D-04
    Cycle     4 NS=   128 Truncation Error =  0.000123865
      PEZero:  N= 5 I= 4 D=  7.67D-05 Err=  8.20D-05
      PEZero:  N= 5 I= 3 D=  1.53D-04 Err=  8.37D-07
      PEZero:  N= 5 I= 2 D=  3.07D-04 Err=  4.16D-04
    Cycle     5 NS=   192 Truncation Error =  0.000000837
 BS completed in    5 cycles and     528 integration steps.
 Maximum DWI energy   std dev =  0.000000005 at pt     5
 Maximum DWI gradient std dev =  0.088768265 at pt     2
 SUMMARY OF CORRECTOR INTEGRATION:
   Predictor End Point Energy =  -764.529113
   Old End Point Energy       =  -764.529113
   Corrected End Point Energy =  -764.529113
   Predictor End-Start Dist.  =     0.058870
   Old End-Start Dist.        =     0.058870
   New End-Start Dist.        =     0.058862
   New End-Old End Dist.      =     0.000749
 CORRECTOR INTEGRATION CONVERGENCE:
   Recorrection delta-x convergence threshold:    0.010000
   Delta-x Convergence Met
 Point Number:   1          Path Number:   1
                    CURRENT STRUCTURE
                Cartesian Coordinates (Ang):                
 ---------------------------------------------------------------------
 Center     Atomic                     Coordinates (Angstroms)
 Number     Number                        X           Y           Z
 ---------------------------------------------------------------------
      1          6                    0.943403   -0.017357   -0.270235
      2          8                    1.781825   -0.825811    0.139156
      3          6                   -0.159990   -0.509909   -1.241427
      4          6                   -0.232083    0.299743    0.948481
      5          9                   -1.204760    1.144203    0.603504
      6          9                   -0.787386   -0.820324    1.391805
      7          9                    0.474815    0.846495    1.912338
      8          9                   -0.966038    0.236525   -1.868521
      9          9                   -0.568899   -1.700725   -1.174720
     10          8                    1.290030    1.260737   -0.713363
     11          1                    2.220837    1.345386   -0.476056
 ---------------------------------------------------------------------
   CHANGE IN THE REACTION COORDINATE =    0.05886
   NET REACTION COORDINATE UP TO THIS POINT =    0.05886
  # OF POINTS ALONG THE PATH =   1
  # OF STEPS =   1

 Calculating another point on the path.
 Point Number  2 in FORWARD path direction.
 Using LQA Reaction Path Following.
   LQA: T_Est iteration completed in    3 iterations.
 IRC-IRC-IRC-IRC-IRC-IRC-IRC-IRC-IRC-IRC-IRC-IRC-IRC-IRC-IRC-IRC-IRC-IRC
 Leave Link  123 at Sat May 24 02:42:16 2025, MaxMem=  3758096384 cpu:               0.1 elap:               0.2
 (Enter /apps/easybuild-2022/easybuild/software/Compiler/NVHPC/22.11-CUDA-11.7.0/Gaussian/g16c01-CUDA-11.7.0/g16/l202.exe)
                          Input orientation:                          
 ---------------------------------------------------------------------
 Center     Atomic      Atomic             Coordinates (Angstroms)
 Number     Number       Type             X           Y           Z
 ---------------------------------------------------------------------
      1          6           0        0.945113   -0.018714   -0.275030
      2          8           0        1.782417   -0.825906    0.138695
      3          6           0       -0.158746   -0.509159   -1.239225
      4          6           0       -0.234818    0.299187    0.947934
      5          9           0       -1.206395    1.144514    0.604131
      6          9           0       -0.788545   -0.820637    1.392377
      7          9           0        0.474875    0.845662    1.910041
      8          9           0       -0.964823    0.237622   -1.866901
      9          9           0       -0.568264   -1.700276   -1.172789
     10          8           0        1.290420    1.260670   -0.713848
     11          1           0        2.219288    1.348405   -0.469852
 ---------------------------------------------------------------------
                    Distance matrix (angstroms):
                    1          2          3          4          5
     1  C    0.000000
     2  O    1.234426   0.000000
     3  C    1.545546   2.401480   0.000000
     4  C    1.728855   2.447436   2.332997   0.000000
     5  F    2.599040   3.610012   2.688896   1.332944   0.000000
     6  F    2.535527   2.860349   2.723783   1.325952   2.158182
     7  F    2.396415   2.764321   3.486386   1.314514   2.149740
     8  F    2.499522   3.563823   1.265471   2.908607   2.643257
     9  F    2.433912   2.830232   1.261300   2.933685   3.414306
    10  O    1.395931   2.307096   2.346998   2.452003   2.825711
    11  H    1.878961   2.299743   3.114085   3.022187   3.595875
                    6          7          8          9         10
     6  F    0.000000
     7  F    2.154241   0.000000
     8  F    3.431308   4.087509   0.000000
     9  F    2.720729   4.132042   2.096305   0.000000
    10  O    3.618027   2.778873   2.731717   3.525980   0.000000
    11  H    4.149663   2.993262   3.650225   4.190349   0.964379
                   11
    11  H    0.000000
 Symmetry turned off by external request.
 Stoichiometry    C3HF5O2
 Rotational constants (GHZ):           1.7447781           1.2781662           1.1864389
 Leave Link  202 at Sat May 24 02:42:16 2025, MaxMem=  3758096384 cpu:               0.0 elap:               0.0
 (Enter /apps/easybuild-2022/easybuild/software/Compiler/NVHPC/22.11-CUDA-11.7.0/Gaussian/g16c01-CUDA-11.7.0/g16/l301.exe)
 Standard basis: def2TZVPP (5D, 7F)
 Ernie: Thresh=  0.10000D-02 Tol=  0.10000D-05 Strict=F.
   324 basis functions,   527 primitive gaussians,   375 cartesian basis functions
    40 alpha electrons       40 beta electrons
       nuclear repulsion energy       642.1105674901 Hartrees.
 IExCor= 4336 DFT=T Ex+Corr=M062X ExCW=0 ScaHFX=  0.540000
 ScaDFX=  1.000000  1.000000  1.000000  1.000000 ScalE2=  1.000000  1.000000
 IRadAn=      5 IRanWt=     -1 IRanGd=            0 ICorTp=0 IEmpDi=  4
 NAtoms=   11 NActive=   11 NUniq=   11 SFac= 1.00D+00 NAtFMM=   60 NAOKFM=F Big=F
 Integral buffers will be    131072 words long.
 Raffenetti 2 integral format.
 Two-electron integral symmetry is turned off.
 Leave Link  301 at Sat May 24 02:42:16 2025, MaxMem=  3758096384 cpu:               0.0 elap:               0.0
 (Enter /apps/easybuild-2022/easybuild/software/Compiler/NVHPC/22.11-CUDA-11.7.0/Gaussian/g16c01-CUDA-11.7.0/g16/l302.exe)
 NPDir=0 NMtPBC=     1 NCelOv=     1 NCel=       1 NClECP=     1 NCelD=      1
         NCelK=      1 NCelE2=     1 NClLst=     1 CellRange=     0.0.
 One-electron integrals computed using PRISM.
   1 Symmetry operations used in ECPInt.
 ECPInt:  NShTT=    6786 NPrTT=   21959 LenC2=    6512 LenP2D=   16101.
 LDataN:  DoStor=T MaxTD1= 6 Len=  172
 NBasis=   324 RedAO= T EigKep=  3.16D-04  NBF=   324
 NBsUse=   324 1.00D-06 EigRej= -1.00D+00 NBFU=   324
 Precomputing XC quadrature grid using
 IXCGrd= 4 IRadAn=           5 IRanWt=          -1 IRanGd=           0 AccXCQ= 0.00D+00.
 Generated NRdTot=       0 NPtTot=           0 NUsed=           0 NTot=          32
 NSgBfM=   373   373   373   373   373 MxSgAt=    11 MxSgA2=    11.
 Leave Link  302 at Sat May 24 02:42:16 2025, MaxMem=  3758096384 cpu:               0.6 elap:               0.1
 (Enter /apps/easybuild-2022/easybuild/software/Compiler/NVHPC/22.11-CUDA-11.7.0/Gaussian/g16c01-CUDA-11.7.0/g16/l303.exe)
 DipDrv:  MaxL=1.
 Leave Link  303 at Sat May 24 02:42:16 2025, MaxMem=  3758096384 cpu:               0.1 elap:               0.0
 (Enter /apps/easybuild-2022/easybuild/software/Compiler/NVHPC/22.11-CUDA-11.7.0/Gaussian/g16c01-CUDA-11.7.0/g16/l401.exe)
 Initial guess from the checkpoint file:  "1642764945472630600001_r12_insertion_R_1_3_4_IRC_F.chk"
 B after Tr=    -0.000008    0.000025    0.000042
         Rot=    1.000000   -0.000015    0.000016   -0.000023 Ang=  -0.00 deg.
 Guess basis will be translated and rotated to current coordinates.
 JPrj=2 DoOrth=T DoCkMO=T.
 Generating alternative initial guess.
 ExpMin= 9.52D-02 ExpMax= 3.55D+04 ExpMxC= 1.21D+03 IAcc=3 IRadAn=         5 AccDes= 0.00D+00
 Harris functional with IExCor= 1009 and IRadAn=       5 diagonalized for initial guess.
 HarFok:  IExCor= 1009 AccDes= 0.00D+00 IRadAn=         5 IDoV= 1 UseB2=F ITyADJ=14
 ICtDFT=  3500011 ScaDFX=  1.000000  1.000000  1.000000  1.000000
 FoFCou: FMM=F IPFlag=           0 FMFlag=      100000 FMFlg1=           0
         NFxFlg=           0 DoJE=T BraDBF=F KetDBF=T FulRan=T
         wScrn=  0.000000 ICntrl=       500 IOpCl=  0 I1Cent=   200000004 NGrid=           0
         NMat0=    1 NMatS0=      1 NMatT0=    0 NMatD0=    1 NMtDS0=    0 NMtDT0=    0
 Symmetry not used in FoFCou.
 Harris En= -764.135985422051    
 Leave Link  401 at Sat May 24 02:42:16 2025, MaxMem=  3758096384 cpu:               3.7 elap:               0.5
 (Enter /apps/easybuild-2022/easybuild/software/Compiler/NVHPC/22.11-CUDA-11.7.0/Gaussian/g16c01-CUDA-11.7.0/g16/l502.exe)
 Keep R1 ints in memory in canonical form, NReq=1412617130.
 FoFCou: FMM=F IPFlag=           0 FMFlag=           0 FMFlg1=           0
         NFxFlg=           0 DoJE=F BraDBF=F KetDBF=F FulRan=T
         wScrn=  0.000000 ICntrl=       600 IOpCl=  0 I1Cent=           0 NGrid=           0
         NMat0=    1 NMatS0=  52650 NMatT0=    0 NMatD0=    1 NMtDS0=    0 NMtDT0=    0
 Symmetry not used in FoFCou.
 Two-electron integral symmetry not used.
 Closed shell SCF:
 Using DIIS extrapolation, IDIIS=  1040.
 NGot=  3758096384 LenX=  2371771924 LenY=  2371630858
 Requested convergence on RMS density matrix=1.00D-08 within  32 cycles.
 Requested convergence on MAX density matrix=1.00D-06.
 Requested convergence on             energy=1.00D-06.
 No special actions if energy rises.
 Integral accuracy reduced to 1.0D-05 until final iterations.

 Cycle   1  Pass 0  IDiag  1:
 E= -764.529061371594    
 DIIS: error= 1.88D-04 at cycle   1 NSaved=   1.
 NSaved= 1 IEnMin= 1 EnMin= -764.529061371594     IErMin= 1 ErrMin= 1.88D-04
 ErrMax= 1.88D-04  0.00D+00 EMaxC= 1.00D-01 BMatC= 3.72D-05 BMatP= 3.72D-05
 IDIUse=3 WtCom= 9.98D-01 WtEn= 1.88D-03
 Coeff-Com:  0.100D+01
 Coeff-En:   0.100D+01
 Coeff:      0.100D+01
 Gap=     0.980 Goal=   None    Shift=    0.000
 RMSDP=3.22D-05 MaxDP=1.07D-03              OVMax= 4.07D-03

 Cycle   2  Pass 0  IDiag  1:
 E= -764.529117185547     Delta-E=       -0.000055813953 Rises=F Damp=F
 DIIS: error= 7.24D-05 at cycle   2 NSaved=   2.
 NSaved= 2 IEnMin= 2 EnMin= -764.529117185547     IErMin= 2 ErrMin= 7.24D-05
 ErrMax= 7.24D-05  0.00D+00 EMaxC= 1.00D-01 BMatC= 4.22D-06 BMatP= 3.72D-05
 IDIUse=1 WtCom= 1.00D+00 WtEn= 0.00D+00
 Coeff-Com:  0.761D-02 0.992D+00
 Coeff:      0.761D-02 0.992D+00
 Gap=     0.212 Goal=   None    Shift=    0.000
 RMSDP=1.32D-05 MaxDP=6.71D-04 DE=-5.58D-05 OVMax= 1.29D-03

 Cycle   3  Pass 0  IDiag  1:
 E= -764.529121041969     Delta-E=       -0.000003856423 Rises=F Damp=F
 DIIS: error= 8.90D-05 at cycle   3 NSaved=   3.
 NSaved= 3 IEnMin= 3 EnMin= -764.529121041969     IErMin= 2 ErrMin= 7.24D-05
 ErrMax= 8.90D-05  0.00D+00 EMaxC= 1.00D-01 BMatC= 3.33D-06 BMatP= 4.22D-06
 IDIUse=1 WtCom= 1.00D+00 WtEn= 0.00D+00
 Coeff-Com: -0.802D-01 0.511D+00 0.569D+00
 Coeff:     -0.802D-01 0.511D+00 0.569D+00
 Gap=     0.212 Goal=   None    Shift=    0.000
 RMSDP=6.02D-06 MaxDP=2.03D-04 DE=-3.86D-06 OVMax= 1.28D-03

 Initial convergence to 1.0D-05 achieved.  Increase integral accuracy.
 Cycle   4  Pass 1  IDiag  1:
 E= -764.529130087903     Delta-E=       -0.000009045933 Rises=F Damp=F
 DIIS: error= 2.58D-05 at cycle   1 NSaved=   1.
 NSaved= 1 IEnMin= 1 EnMin= -764.529130087903     IErMin= 1 ErrMin= 2.58D-05
 ErrMax= 2.58D-05  0.00D+00 EMaxC= 1.00D-01 BMatC= 8.25D-07 BMatP= 8.25D-07
 IDIUse=1 WtCom= 1.00D+00 WtEn= 0.00D+00
 Coeff-Com:  0.100D+01
 Coeff:      0.100D+01
 Gap=     0.212 Goal=   None    Shift=    0.000
 RMSDP=6.02D-06 MaxDP=2.03D-04 DE=-9.05D-06 OVMax= 3.12D-04

 Cycle   5  Pass 1  IDiag  1:
 E= -764.529130713175     Delta-E=       -0.000000625272 Rises=F Damp=F
 DIIS: error= 1.75D-05 at cycle   2 NSaved=   2.
 NSaved= 2 IEnMin= 2 EnMin= -764.529130713175     IErMin= 2 ErrMin= 1.75D-05
 ErrMax= 1.75D-05  0.00D+00 EMaxC= 1.00D-01 BMatC= 2.17D-07 BMatP= 8.25D-07
 IDIUse=1 WtCom= 1.00D+00 WtEn= 0.00D+00
 Coeff-Com:  0.260D+00 0.740D+00
 Coeff:      0.260D+00 0.740D+00
 Gap=     0.212 Goal=   None    Shift=    0.000
 RMSDP=2.26D-06 MaxDP=6.56D-05 DE=-6.25D-07 OVMax= 4.27D-04

 Cycle   6  Pass 1  IDiag  1:
 E= -764.529130824320     Delta-E=       -0.000000111145 Rises=F Damp=F
 DIIS: error= 1.26D-05 at cycle   3 NSaved=   3.
 NSaved= 3 IEnMin= 3 EnMin= -764.529130824320     IErMin= 3 ErrMin= 1.26D-05
 ErrMax= 1.26D-05  0.00D+00 EMaxC= 1.00D-01 BMatC= 1.57D-07 BMatP= 2.17D-07
 IDIUse=1 WtCom= 1.00D+00 WtEn= 0.00D+00
 Coeff-Com: -0.501D-01 0.461D+00 0.589D+00
 Coeff:     -0.501D-01 0.461D+00 0.589D+00
 Gap=     0.212 Goal=   None    Shift=    0.000
 RMSDP=1.06D-06 MaxDP=4.99D-05 DE=-1.11D-07 OVMax= 1.01D-04

 Cycle   7  Pass 1  IDiag  1:
 E= -764.529130946707     Delta-E=       -0.000000122387 Rises=F Damp=F
 DIIS: error= 2.11D-06 at cycle   4 NSaved=   4.
 NSaved= 4 IEnMin= 4 EnMin= -764.529130946707     IErMin= 4 ErrMin= 2.11D-06
 ErrMax= 2.11D-06  0.00D+00 EMaxC= 1.00D-01 BMatC= 3.93D-09 BMatP= 1.57D-07
 IDIUse=1 WtCom= 1.00D+00 WtEn= 0.00D+00
 Coeff-Com: -0.254D-01 0.129D+00 0.138D+00 0.759D+00
 Coeff:     -0.254D-01 0.129D+00 0.138D+00 0.759D+00
 Gap=     0.212 Goal=   None    Shift=    0.000
 RMSDP=3.30D-07 MaxDP=1.40D-05 DE=-1.22D-07 OVMax= 5.68D-05

 Cycle   8  Pass 1  IDiag  1:
 E= -764.529130953156     Delta-E=       -0.000000006449 Rises=F Damp=F
 DIIS: error= 1.74D-06 at cycle   5 NSaved=   5.
 NSaved= 5 IEnMin= 5 EnMin= -764.529130953156     IErMin= 5 ErrMin= 1.74D-06
 ErrMax= 1.74D-06  0.00D+00 EMaxC= 1.00D-01 BMatC= 1.81D-09 BMatP= 3.93D-09
 IDIUse=1 WtCom= 1.00D+00 WtEn= 0.00D+00
 Coeff-Com:  0.893D-02-0.128D+00-0.226D+00 0.413D+00 0.931D+00
 Coeff:      0.893D-02-0.128D+00-0.226D+00 0.413D+00 0.931D+00
 Gap=     0.212 Goal=   None    Shift=    0.000
 RMSDP=3.56D-07 MaxDP=1.40D-05 DE=-6.45D-09 OVMax= 7.33D-05

 Cycle   9  Pass 1  IDiag  1:
 E= -764.529130957201     Delta-E=       -0.000000004045 Rises=F Damp=F
 DIIS: error= 4.82D-07 at cycle   6 NSaved=   6.
 NSaved= 6 IEnMin= 6 EnMin= -764.529130957201     IErMin= 6 ErrMin= 4.82D-07
 ErrMax= 4.82D-07  0.00D+00 EMaxC= 1.00D-01 BMatC= 1.02D-10 BMatP= 1.81D-09
 IDIUse=1 WtCom= 1.00D+00 WtEn= 0.00D+00
 Coeff-Com:  0.268D-02-0.200D-01-0.440D-01-0.493D-01 0.135D+00 0.976D+00
 Coeff:      0.268D-02-0.200D-01-0.440D-01-0.493D-01 0.135D+00 0.976D+00
 Gap=     0.212 Goal=   None    Shift=    0.000
 RMSDP=9.02D-08 MaxDP=3.41D-06 DE=-4.04D-09 OVMax= 1.71D-05

 Cycle  10  Pass 1  IDiag  1:
 E= -764.529130957467     Delta-E=       -0.000000000266 Rises=F Damp=F
 DIIS: error= 1.07D-07 at cycle   7 NSaved=   7.
 NSaved= 7 IEnMin= 7 EnMin= -764.529130957467     IErMin= 7 ErrMin= 1.07D-07
 ErrMax= 1.07D-07  0.00D+00 EMaxC= 1.00D-01 BMatC= 1.10D-11 BMatP= 1.02D-10
 IDIUse=1 WtCom= 1.00D+00 WtEn= 0.00D+00
 Coeff-Com: -0.704D-04 0.879D-02 0.864D-02-0.601D-01-0.508D-01 0.316D+00
 Coeff-Com:  0.778D+00
 Coeff:     -0.704D-04 0.879D-02 0.864D-02-0.601D-01-0.508D-01 0.316D+00
 Coeff:      0.778D+00
 Gap=     0.212 Goal=   None    Shift=    0.000
 RMSDP=2.15D-08 MaxDP=7.43D-07 DE=-2.66D-10 OVMax= 4.13D-06

 Cycle  11  Pass 1  IDiag  1:
 E= -764.529130957479     Delta-E=       -0.000000000013 Rises=F Damp=F
 DIIS: error= 4.70D-08 at cycle   8 NSaved=   8.
 NSaved= 8 IEnMin= 8 EnMin= -764.529130957479     IErMin= 8 ErrMin= 4.70D-08
 ErrMax= 4.70D-08  0.00D+00 EMaxC= 1.00D-01 BMatC= 2.16D-12 BMatP= 1.10D-11
 IDIUse=1 WtCom= 1.00D+00 WtEn= 0.00D+00
 Coeff-Com: -0.505D-03 0.759D-02 0.107D-01-0.224D-01-0.457D-01 0.241D-02
 Coeff-Com:  0.329D+00 0.719D+00
 Coeff:     -0.505D-03 0.759D-02 0.107D-01-0.224D-01-0.457D-01 0.241D-02
 Coeff:      0.329D+00 0.719D+00
 Gap=     0.212 Goal=   None    Shift=    0.000
 RMSDP=7.77D-09 MaxDP=3.24D-07 DE=-1.25D-11 OVMax= 1.34D-06

 SCF Done:  E(RM062X) =  -764.529130957     A.U. after   11 cycles
            NFock= 11  Conv=0.78D-08     -V/T= 2.0036
 KE= 7.617544405429D+02 PE=-3.096057295782D+03 EE= 9.276631567919D+02
 Leave Link  502 at Sat May 24 02:42:39 2025, MaxMem=  3758096384 cpu:             102.2 elap:              22.1
 (Enter /apps/easybuild-2022/easybuild/software/Compiler/NVHPC/22.11-CUDA-11.7.0/Gaussian/g16c01-CUDA-11.7.0/g16/l508.exe)
 QCSCF skips out because SCF is already converged.
 Leave Link  508 at Sat May 24 02:42:39 2025, MaxMem=  3758096384 cpu:               0.0 elap:               0.0
 (Enter /apps/easybuild-2022/easybuild/software/Compiler/NVHPC/22.11-CUDA-11.7.0/Gaussian/g16c01-CUDA-11.7.0/g16/l801.exe)
 DoSCS=F DFT=T ScalE2(SS,OS)=  1.000000  1.000000
 Range of M.O.s used for correlation:     1   324
 NBasis=   324 NAE=    40 NBE=    40 NFC=     0 NFV=     0
 NROrb=    324 NOA=    40 NOB=    40 NVA=   284 NVB=   284

 **** Warning!!: The largest alpha MO coefficient is  0.14461850D+02

 Leave Link  801 at Sat May 24 02:42:39 2025, MaxMem=  3758096384 cpu:               0.0 elap:               0.0
 (Enter /apps/easybuild-2022/easybuild/software/Compiler/NVHPC/22.11-CUDA-11.7.0/Gaussian/g16c01-CUDA-11.7.0/g16/l1101.exe)
 Leave Link 1101 at Sat May 24 02:42:39 2025, MaxMem=  3758096384 cpu:               0.0 elap:               0.0
 (Enter /apps/easybuild-2022/easybuild/software/Compiler/NVHPC/22.11-CUDA-11.7.0/Gaussian/g16c01-CUDA-11.7.0/g16/l1102.exe)
 Symmetrizing basis deriv contribution to polar:
 IMax=3 JMax=2 DiffMx= 0.00D+00
 Leave Link 1102 at Sat May 24 02:42:39 2025, MaxMem=  3758096384 cpu:               0.0 elap:               0.0
 (Enter /apps/easybuild-2022/easybuild/software/Compiler/NVHPC/22.11-CUDA-11.7.0/Gaussian/g16c01-CUDA-11.7.0/g16/l1110.exe)
 Leave Link 1110 at Sat May 24 02:42:39 2025, MaxMem=  3758096384 cpu:               0.0 elap:               0.0
 (Enter /apps/easybuild-2022/easybuild/software/Compiler/NVHPC/22.11-CUDA-11.7.0/Gaussian/g16c01-CUDA-11.7.0/g16/l1002.exe)
 Minotr:  Closed shell wavefunction.
 Leave Link 1002 at Sat May 24 02:42:39 2025, MaxMem=  3758096384 cpu:               0.0 elap:               0.0
 (Enter /apps/easybuild-2022/easybuild/software/Compiler/NVHPC/22.11-CUDA-11.7.0/Gaussian/g16c01-CUDA-11.7.0/g16/l701.exe)
 ... and contract with generalized density number  0.
 Compute integral first derivatives.
   1 Symmetry operations used in ECPInt.
 ECPInt:  NShTT=    6786 NPrTT=   21959 LenC2=    6512 LenP2D=   16101.
 LDataN:  DoStor=T MaxTD1= 7 Len=  274
 Leave Link  701 at Sat May 24 02:42:39 2025, MaxMem=  3758096384 cpu:               0.6 elap:               0.1
 (Enter /apps/easybuild-2022/easybuild/software/Compiler/NVHPC/22.11-CUDA-11.7.0/Gaussian/g16c01-CUDA-11.7.0/g16/l702.exe)
 L702 exits ... SP integral derivatives will be done elsewhere.
 Leave Link  702 at Sat May 24 02:42:39 2025, MaxMem=  3758096384 cpu:               0.0 elap:               0.0
 (Enter /apps/easybuild-2022/easybuild/software/Compiler/NVHPC/22.11-CUDA-11.7.0/Gaussian/g16c01-CUDA-11.7.0/g16/l703.exe)
 Integral derivatives from FoFJK, PRISM(SPDF).
 Compute integral first derivatives, UseDBF=F ICtDFT=           0.
 Calling FoFJK, ICntrl=      2127 FMM=F ISym2X=0 I1Cent= 0 IOpClX= 0 NMat=1 NMatS=1 NMatT=0.
 FoFJK:  IHMeth= 1 ICntrl=    2127 DoSepK=F KAlg= 0 I1Cent=           0 FoldK=F
 IRaf=         0 NMat=       1 IRICut=       1 DoRegI=T DoRafI=F ISym2E= 0 IDoP0=0 IntGTp=1.
 FoFCou: FMM=F IPFlag=           0 FMFlag=      100000 FMFlg1=         800
         NFxFlg=           0 DoJE=F BraDBF=F KetDBF=F FulRan=T
         wScrn=  0.000000 ICntrl=      2127 IOpCl=  0 I1Cent=           0 NGrid=           0
         NMat0=    1 NMatS0=      1 NMatT0=    0 NMatD0=    1 NMtDS0=    0 NMtDT0=    0
 Symmetry not used in FoFCou.
 Leave Link  703 at Sat May 24 02:42:48 2025, MaxMem=  3758096384 cpu:              73.3 elap:               9.3
 (Enter /apps/easybuild-2022/easybuild/software/Compiler/NVHPC/22.11-CUDA-11.7.0/Gaussian/g16c01-CUDA-11.7.0/g16/l716.exe)
 Dipole        =-7.57023044D-01 1.49253609D-01-1.14887847D+00
 Polarizability= 0.00000000D+00 0.00000000D+00 0.00000000D+00
                 0.00000000D+00 0.00000000D+00 0.00000000D+00
 -------------------------------------------------------------------
 Center     Atomic                   Forces (Hartrees/Bohr)
 Number     Number              X              Y              Z
 -------------------------------------------------------------------
      1        6           0.000385012   -0.000210097   -0.000755619
      2        8           0.000093970    0.000002265   -0.000106673
      3        6           0.000148437    0.000124480    0.000379973
      4        6          -0.000464109   -0.000086235   -0.000072061
      5        9          -0.000404701    0.000077284    0.000158023
      6        9          -0.000286584   -0.000075005    0.000142509
      7        9           0.000013158   -0.000213739   -0.000588236
      8        9           0.000301722    0.000279834    0.000386087
      9        9           0.000160774    0.000095496    0.000471517
     10        8           0.000131759   -0.000020226   -0.000082757
     11        1          -0.000079438    0.000025945    0.000067238
 -------------------------------------------------------------------
 Cartesian Forces:  Max     0.000755619 RMS     0.000275240
 Leave Link  716 at Sat May 24 02:42:48 2025, MaxMem=  3758096384 cpu:               0.0 elap:               0.0
 (Enter /apps/easybuild-2022/easybuild/software/Compiler/NVHPC/22.11-CUDA-11.7.0/Gaussian/g16c01-CUDA-11.7.0/g16/l123.exe)
 IRC-IRC-IRC-IRC-IRC-IRC-IRC-IRC-IRC-IRC-IRC-IRC-IRC-IRC-IRC-IRC-IRC-IRC
 Pt  2 Step number   1 out of a maximum of  20
 Using modified Bulirsch-Stoer corrector integration.
   Using distance weighted interpolants to fit PES.
 PreDWI: IReCr0= 2 IReCr1= 1 IReCr2= 1 IReCr3= 1
 Modified Bulirsch-Stoer Extrapolation Cycles:
    EPS =    0.000010000000000
    Cycle     1 NS=    48
      PEZero:  N= 2 I= 1 D=  3.07D-04 Err=  3.72D-03
    Cycle     2 NS=    64 Truncation Error =  0.003724011
      PEZero:  N= 3 I= 2 D=  3.07D-04 Err=  1.69D-06
      PEZero:  N= 3 I= 1 D=  6.13D-04 Err=  3.72D-03
    Cycle     3 NS=    96 Truncation Error =  0.000001692
 BS completed in    3 cycles and     208 integration steps.
 Maximum DWI energy   std dev =  0.000000027 at pt    35
 Maximum DWI gradient std dev =  0.063471960 at pt    55
 SUMMARY OF CORRECTOR INTEGRATION:
   Predictor End Point Energy =  -764.529131
   Old End Point Energy       =  -764.529131
   Corrected End Point Energy =  -764.529131
   Predictor End-Start Dist.  =     0.058850
   Old End-Start Dist.        =     0.058850
   New End-Start Dist.        =     0.058846
   New End-Old End Dist.      =     0.000867
 CORRECTOR INTEGRATION CONVERGENCE:
   Recorrection delta-x convergence threshold:    0.010000
   Delta-x Convergence Met
 Point Number:   2          Path Number:   1
                    CURRENT STRUCTURE
                Cartesian Coordinates (Ang):                
 ---------------------------------------------------------------------
 Center     Atomic                     Coordinates (Angstroms)
 Number     Number                        X           Y           Z
 ---------------------------------------------------------------------
      1          6                    0.945201   -0.018697   -0.275033
      2          8                    1.782426   -0.825897    0.138696
      3          6                   -0.158792   -0.509149   -1.239183
      4          6                   -0.234843    0.299191    0.947948
      5          9                   -1.206397    1.144516    0.604131
      6          9                   -0.788541   -0.820640    1.392380
      7          9                    0.474866    0.845663    1.910046
      8          9                   -0.964840    0.237619   -1.866929
      9          9                   -0.568267   -1.700294   -1.172809
     10          8                    1.290430    1.260666   -0.713834
     11          1                    2.219266    1.348375   -0.469944
 ---------------------------------------------------------------------
   CHANGE IN THE REACTION COORDINATE =    0.05885
   NET REACTION COORDINATE UP TO THIS POINT =    0.11771
  # OF POINTS ALONG THE PATH =   2
  # OF STEPS =   1

 Calculating another point on the path.
 Point Number  3 in FORWARD path direction.
 Using LQA Reaction Path Following.
   LQA: T_Est iteration completed in    3 iterations.
 IRC-IRC-IRC-IRC-IRC-IRC-IRC-IRC-IRC-IRC-IRC-IRC-IRC-IRC-IRC-IRC-IRC-IRC
 Leave Link  123 at Sat May 24 02:42:48 2025, MaxMem=  3758096384 cpu:               0.1 elap:               0.0
 (Enter /apps/easybuild-2022/easybuild/software/Compiler/NVHPC/22.11-CUDA-11.7.0/Gaussian/g16c01-CUDA-11.7.0/g16/l202.exe)
                          Input orientation:                          
 ---------------------------------------------------------------------
 Center     Atomic      Atomic             Coordinates (Angstroms)
 Number     Number       Type             X           Y           Z
 ---------------------------------------------------------------------
      1          6           0        0.947035   -0.020043   -0.279847
      2          8           0        1.783044   -0.825991    0.138237
      3          6           0       -0.157617   -0.508384   -1.236919
      4          6           0       -0.237613    0.298647    0.947423
      5          9           0       -1.208034    1.144848    0.604765
      6          9           0       -0.789698   -0.820951    1.392963
      7          9           0        0.474915    0.844832    1.907757
      8          9           0       -0.963660    0.238707   -1.865353
      9          9           0       -0.567657   -1.699869   -1.170911
     10          8           0        1.290862    1.260586   -0.714296
     11          1           0        2.217755    1.351318   -0.463921
 ---------------------------------------------------------------------
                    Distance matrix (angstroms):
                    1          2          3          4          5
     1  C    0.000000
     2  O    1.234204   0.000000
     3  C    1.541012   2.399604   0.000000
     4  C    1.735265   2.450030   2.330032   0.000000
     5  F    2.604579   3.612258   2.688559   1.332362   0.000000
     6  F    2.540864   2.862405   2.722775   1.325445   2.158849
     7  F    2.399274   2.762979   3.481419   1.314631   2.149446
     8  F    2.496304   3.562631   1.266009   2.905588   2.642403
     9  F    2.431070   2.829016   1.261795   2.930927   3.414018
    10  O    1.395340   2.307133   2.345311   2.454154   2.828038
    11  H    1.878628   2.300487   3.114227   3.021396   3.594545
                    6          7          8          9         10
     6  F    0.000000
     7  F    2.153855   0.000000
     8  F    3.430708   4.083289   0.000000
     9  F    2.719421   4.128033   2.096936   0.000000
    10  O    3.619678   2.777370   2.729843   3.525179   0.000000
    11  H    4.148680   2.986449   3.650112   4.191431   0.964391
                   11
    11  H    0.000000
 Symmetry turned off by external request.
 Stoichiometry    C3HF5O2
 Rotational constants (GHZ):           1.7428956           1.2797303           1.1872261
 Leave Link  202 at Sat May 24 02:42:48 2025, MaxMem=  3758096384 cpu:               0.0 elap:               0.0
 (Enter /apps/easybuild-2022/easybuild/software/Compiler/NVHPC/22.11-CUDA-11.7.0/Gaussian/g16c01-CUDA-11.7.0/g16/l301.exe)
 Standard basis: def2TZVPP (5D, 7F)
 Ernie: Thresh=  0.10000D-02 Tol=  0.10000D-05 Strict=F.
   324 basis functions,   527 primitive gaussians,   375 cartesian basis functions
    40 alpha electrons       40 beta electrons
       nuclear repulsion energy       642.1628349667 Hartrees.
 IExCor= 4336 DFT=T Ex+Corr=M062X ExCW=0 ScaHFX=  0.540000
 ScaDFX=  1.000000  1.000000  1.000000  1.000000 ScalE2=  1.000000  1.000000
 IRadAn=      5 IRanWt=     -1 IRanGd=            0 ICorTp=0 IEmpDi=  4
 NAtoms=   11 NActive=   11 NUniq=   11 SFac= 1.00D+00 NAtFMM=   60 NAOKFM=F Big=F
 Integral buffers will be    131072 words long.
 Raffenetti 2 integral format.
 Two-electron integral symmetry is turned off.
 Leave Link  301 at Sat May 24 02:42:48 2025, MaxMem=  3758096384 cpu:               0.0 elap:               0.0
 (Enter /apps/easybuild-2022/easybuild/software/Compiler/NVHPC/22.11-CUDA-11.7.0/Gaussian/g16c01-CUDA-11.7.0/g16/l302.exe)
 NPDir=0 NMtPBC=     1 NCelOv=     1 NCel=       1 NClECP=     1 NCelD=      1
         NCelK=      1 NCelE2=     1 NClLst=     1 CellRange=     0.0.
 One-electron integrals computed using PRISM.
   1 Symmetry operations used in ECPInt.
 ECPInt:  NShTT=    6786 NPrTT=   21959 LenC2=    6512 LenP2D=   16106.
 LDataN:  DoStor=T MaxTD1= 6 Len=  172
 NBasis=   324 RedAO= T EigKep=  3.13D-04  NBF=   324
 NBsUse=   324 1.00D-06 EigRej= -1.00D+00 NBFU=   324
 Precomputing XC quadrature grid using
 IXCGrd= 4 IRadAn=           5 IRanWt=          -1 IRanGd=           0 AccXCQ= 0.00D+00.
 Generated NRdTot=       0 NPtTot=           0 NUsed=           0 NTot=          32
 NSgBfM=   373   373   373   373   373 MxSgAt=    11 MxSgA2=    11.
 Leave Link  302 at Sat May 24 02:42:48 2025, MaxMem=  3758096384 cpu:               0.6 elap:               0.1
 (Enter /apps/easybuild-2022/easybuild/software/Compiler/NVHPC/22.11-CUDA-11.7.0/Gaussian/g16c01-CUDA-11.7.0/g16/l303.exe)
 DipDrv:  MaxL=1.
 Leave Link  303 at Sat May 24 02:42:48 2025, MaxMem=  3758096384 cpu:               0.1 elap:               0.0
 (Enter /apps/easybuild-2022/easybuild/software/Compiler/NVHPC/22.11-CUDA-11.7.0/Gaussian/g16c01-CUDA-11.7.0/g16/l401.exe)
 Initial guess from the checkpoint file:  "1642764945472630600001_r12_insertion_R_1_3_4_IRC_F.chk"
 B after Tr=    -0.000006    0.000024    0.000040
         Rot=    1.000000   -0.000013    0.000014   -0.000017 Ang=  -0.00 deg.
 Guess basis will be translated and rotated to current coordinates.
 JPrj=2 DoOrth=T DoCkMO=T.
 Generating alternative initial guess.
 ExpMin= 9.52D-02 ExpMax= 3.55D+04 ExpMxC= 1.21D+03 IAcc=3 IRadAn=         5 AccDes= 0.00D+00
 Harris functional with IExCor= 1009 and IRadAn=       5 diagonalized for initial guess.
 HarFok:  IExCor= 1009 AccDes= 0.00D+00 IRadAn=         5 IDoV= 1 UseB2=F ITyADJ=14
 ICtDFT=  3500011 ScaDFX=  1.000000  1.000000  1.000000  1.000000
 FoFCou: FMM=F IPFlag=           0 FMFlag=      100000 FMFlg1=           0
         NFxFlg=           0 DoJE=T BraDBF=F KetDBF=T FulRan=T
         wScrn=  0.000000 ICntrl=       500 IOpCl=  0 I1Cent=   200000004 NGrid=           0
         NMat0=    1 NMatS0=      1 NMatT0=    0 NMatD0=    1 NMtDS0=    0 NMtDT0=    0
 Symmetry not used in FoFCou.
 Harris En= -764.135652901917    
 Leave Link  401 at Sat May 24 02:42:49 2025, MaxMem=  3758096384 cpu:               3.6 elap:               0.5
 (Enter /apps/easybuild-2022/easybuild/software/Compiler/NVHPC/22.11-CUDA-11.7.0/Gaussian/g16c01-CUDA-11.7.0/g16/l502.exe)
 Keep R1 ints in memory in canonical form, NReq=1412617130.
 FoFCou: FMM=F IPFlag=           0 FMFlag=           0 FMFlg1=           0
         NFxFlg=           0 DoJE=F BraDBF=F KetDBF=F FulRan=T
         wScrn=  0.000000 ICntrl=       600 IOpCl=  0 I1Cent=           0 NGrid=           0
         NMat0=    1 NMatS0=  52650 NMatT0=    0 NMatD0=    1 NMtDS0=    0 NMtDT0=    0
 Symmetry not used in FoFCou.
 Two-electron integral symmetry not used.
 Closed shell SCF:
 Using DIIS extrapolation, IDIIS=  1040.
 NGot=  3758096384 LenX=  2371771924 LenY=  2371630858
 Requested convergence on RMS density matrix=1.00D-08 within  32 cycles.
 Requested convergence on MAX density matrix=1.00D-06.
 Requested convergence on             energy=1.00D-06.
 No special actions if energy rises.
 Integral accuracy reduced to 1.0D-05 until final iterations.

 Cycle   1  Pass 0  IDiag  1:
 E= -764.529092790733    
 DIIS: error= 1.91D-04 at cycle   1 NSaved=   1.
 NSaved= 1 IEnMin= 1 EnMin= -764.529092790733     IErMin= 1 ErrMin= 1.91D-04
 ErrMax= 1.91D-04  0.00D+00 EMaxC= 1.00D-01 BMatC= 3.75D-05 BMatP= 3.75D-05
 IDIUse=3 WtCom= 9.98D-01 WtEn= 1.91D-03
 Coeff-Com:  0.100D+01
 Coeff-En:   0.100D+01
 Coeff:      0.100D+01
 Gap=     0.979 Goal=   None    Shift=    0.000
 RMSDP=3.25D-05 MaxDP=1.05D-03              OVMax= 4.15D-03

 Cycle   2  Pass 0  IDiag  1:
 E= -764.529149428960     Delta-E=       -0.000056638227 Rises=F Damp=F
 DIIS: error= 7.39D-05 at cycle   2 NSaved=   2.
 NSaved= 2 IEnMin= 2 EnMin= -764.529149428960     IErMin= 2 ErrMin= 7.39D-05
 ErrMax= 7.39D-05  0.00D+00 EMaxC= 1.00D-01 BMatC= 4.39D-06 BMatP= 3.75D-05
 IDIUse=1 WtCom= 1.00D+00 WtEn= 0.00D+00
 Coeff-Com:  0.115D-01 0.988D+00
 Coeff:      0.115D-01 0.988D+00
 Gap=     0.213 Goal=   None    Shift=    0.000
 RMSDP=1.35D-05 MaxDP=6.78D-04 DE=-5.66D-05 OVMax= 1.33D-03

 Cycle   3  Pass 0  IDiag  1:
 E= -764.529153299537     Delta-E=       -0.000003870576 Rises=F Damp=F
 DIIS: error= 9.13D-05 at cycle   3 NSaved=   3.
 NSaved= 3 IEnMin= 3 EnMin= -764.529153299537     IErMin= 2 ErrMin= 7.39D-05
 ErrMax= 9.13D-05  0.00D+00 EMaxC= 1.00D-01 BMatC= 3.47D-06 BMatP= 4.39D-06
 IDIUse=1 WtCom= 1.00D+00 WtEn= 0.00D+00
 Coeff-Com: -0.807D-01 0.511D+00 0.569D+00
 Coeff:     -0.807D-01 0.511D+00 0.569D+00
 Gap=     0.213 Goal=   None    Shift=    0.000
 RMSDP=6.16D-06 MaxDP=2.05D-04 DE=-3.87D-06 OVMax= 1.30D-03

 Initial convergence to 1.0D-05 achieved.  Increase integral accuracy.
 Cycle   4  Pass 1  IDiag  1:
 E= -764.529161049435     Delta-E=       -0.000007749899 Rises=F Damp=F
 DIIS: error= 2.49D-05 at cycle   1 NSaved=   1.
 NSaved= 1 IEnMin= 1 EnMin= -764.529161049435     IErMin= 1 ErrMin= 2.49D-05
 ErrMax= 2.49D-05  0.00D+00 EMaxC= 1.00D-01 BMatC= 8.16D-07 BMatP= 8.16D-07
 IDIUse=1 WtCom= 1.00D+00 WtEn= 0.00D+00
 Coeff-Com:  0.100D+01
 Coeff:      0.100D+01
 Gap=     0.213 Goal=   None    Shift=    0.000
 RMSDP=6.16D-06 MaxDP=2.05D-04 DE=-7.75D-06 OVMax= 3.08D-04

 Cycle   5  Pass 1  IDiag  1:
 E= -764.529161666605     Delta-E=       -0.000000617169 Rises=F Damp=F
 DIIS: error= 1.78D-05 at cycle   2 NSaved=   2.
 NSaved= 2 IEnMin= 2 EnMin= -764.529161666605     IErMin= 2 ErrMin= 1.78D-05
 ErrMax= 1.78D-05  0.00D+00 EMaxC= 1.00D-01 BMatC= 2.10D-07 BMatP= 8.16D-07
 IDIUse=1 WtCom= 1.00D+00 WtEn= 0.00D+00
 Coeff-Com:  0.257D+00 0.743D+00
 Coeff:      0.257D+00 0.743D+00
 Gap=     0.213 Goal=   None    Shift=    0.000
 RMSDP=2.24D-06 MaxDP=6.17D-05 DE=-6.17D-07 OVMax= 4.30D-04

 Cycle   6  Pass 1  IDiag  1:
 E= -764.529161775453     Delta-E=       -0.000000108848 Rises=F Damp=F
 DIIS: error= 1.28D-05 at cycle   3 NSaved=   3.
 NSaved= 3 IEnMin= 3 EnMin= -764.529161775453     IErMin= 3 ErrMin= 1.28D-05
 ErrMax= 1.28D-05  0.00D+00 EMaxC= 1.00D-01 BMatC= 1.54D-07 BMatP= 2.10D-07
 IDIUse=1 WtCom= 1.00D+00 WtEn= 0.00D+00
 Coeff-Com: -0.502D-01 0.462D+00 0.589D+00
 Coeff:     -0.502D-01 0.462D+00 0.589D+00
 Gap=     0.213 Goal=   None    Shift=    0.000
 RMSDP=1.07D-06 MaxDP=5.19D-05 DE=-1.09D-07 OVMax= 9.74D-05

 Cycle   7  Pass 1  IDiag  1:
 E= -764.529161895468     Delta-E=       -0.000000120015 Rises=F Damp=F
 DIIS: error= 2.07D-06 at cycle   4 NSaved=   4.
 NSaved= 4 IEnMin= 4 EnMin= -764.529161895468     IErMin= 4 ErrMin= 2.07D-06
 ErrMax= 2.07D-06  0.00D+00 EMaxC= 1.00D-01 BMatC= 3.79D-09 BMatP= 1.54D-07
 IDIUse=1 WtCom= 1.00D+00 WtEn= 0.00D+00
 Coeff-Com: -0.245D-01 0.125D+00 0.129D+00 0.770D+00
 Coeff:     -0.245D-01 0.125D+00 0.129D+00 0.770D+00
 Gap=     0.213 Goal=   None    Shift=    0.000
 RMSDP=3.31D-07 MaxDP=1.43D-05 DE=-1.20D-07 OVMax= 5.69D-05

 Cycle   8  Pass 1  IDiag  1:
 E= -764.529161901631     Delta-E=       -0.000000006163 Rises=F Damp=F
 DIIS: error= 1.80D-06 at cycle   5 NSaved=   5.
 NSaved= 5 IEnMin= 5 EnMin= -764.529161901631     IErMin= 5 ErrMin= 1.80D-06
 ErrMax= 1.80D-06  0.00D+00 EMaxC= 1.00D-01 BMatC= 1.89D-09 BMatP= 3.79D-09
 IDIUse=1 WtCom= 1.00D+00 WtEn= 0.00D+00
 Coeff-Com:  0.892D-02-0.128D+00-0.229D+00 0.440D+00 0.907D+00
 Coeff:      0.892D-02-0.128D+00-0.229D+00 0.440D+00 0.907D+00
 Gap=     0.213 Goal=   None    Shift=    0.000
 RMSDP=3.47D-07 MaxDP=1.37D-05 DE=-6.16D-09 OVMax= 6.97D-05

 Cycle   9  Pass 1  IDiag  1:
 E= -764.529161905590     Delta-E=       -0.000000003959 Rises=F Damp=F
 DIIS: error= 4.78D-07 at cycle   6 NSaved=   6.
 NSaved= 6 IEnMin= 6 EnMin= -764.529161905590     IErMin= 6 ErrMin= 4.78D-07
 ErrMax= 4.78D-07  0.00D+00 EMaxC= 1.00D-01 BMatC= 9.91D-11 BMatP= 1.89D-09
 IDIUse=1 WtCom= 1.00D+00 WtEn= 0.00D+00
 Coeff-Com:  0.262D-02-0.194D-01-0.440D-01-0.436D-01 0.126D+00 0.978D+00
 Coeff:      0.262D-02-0.194D-01-0.440D-01-0.436D-01 0.126D+00 0.978D+00
 Gap=     0.213 Goal=   None    Shift=    0.000
 RMSDP=8.73D-08 MaxDP=3.40D-06 DE=-3.96D-09 OVMax= 1.63D-05

 Cycle  10  Pass 1  IDiag  1:
 E= -764.529161905813     Delta-E=       -0.000000000223 Rises=F Damp=F
 DIIS: error= 1.03D-07 at cycle   7 NSaved=   7.
 NSaved= 7 IEnMin= 7 EnMin= -764.529161905813     IErMin= 7 ErrMin= 1.03D-07
 ErrMax= 1.03D-07  0.00D+00 EMaxC= 1.00D-01 BMatC= 1.08D-11 BMatP= 9.91D-11
 IDIUse=1 WtCom= 1.00D+00 WtEn= 0.00D+00
 Coeff-Com: -0.638D-04 0.865D-02 0.833D-02-0.605D-01-0.496D-01 0.325D+00
 Coeff-Com:  0.769D+00
 Coeff:     -0.638D-04 0.865D-02 0.833D-02-0.605D-01-0.496D-01 0.325D+00
 Coeff:      0.769D+00
 Gap=     0.213 Goal=   None    Shift=    0.000
 RMSDP=2.06D-08 MaxDP=7.01D-07 DE=-2.23D-10 OVMax= 3.90D-06

 Cycle  11  Pass 1  IDiag  1:
 E= -764.529161905803     Delta-E=        0.000000000010 Rises=F Damp=F
 DIIS: error= 4.58D-08 at cycle   8 NSaved=   8.
 NSaved= 8 IEnMin= 7 EnMin= -764.529161905813     IErMin= 8 ErrMin= 4.58D-08
 ErrMax= 4.58D-08  0.00D+00 EMaxC= 1.00D-01 BMatC= 2.05D-12 BMatP= 1.08D-11
 IDIUse=1 WtCom= 1.00D+00 WtEn= 0.00D+00
 Coeff-Com: -0.493D-03 0.740D-02 0.105D-01-0.227D-01-0.436D-01 0.919D-03
 Coeff-Com:  0.323D+00 0.725D+00
 Coeff:     -0.493D-03 0.740D-02 0.105D-01-0.227D-01-0.436D-01 0.919D-03
 Coeff:      0.323D+00 0.725D+00
 Gap=     0.213 Goal=   None    Shift=    0.000
 RMSDP=7.53D-09 MaxDP=3.15D-07 DE= 9.78D-12 OVMax= 1.29D-06

 SCF Done:  E(RM062X) =  -764.529161906     A.U. after   11 cycles
            NFock= 11  Conv=0.75D-08     -V/T= 2.0036
 KE= 7.617529839256D+02 PE=-3.096158334054D+03 EE= 9.277133532556D+02
 Leave Link  502 at Sat May 24 02:43:11 2025, MaxMem=  3758096384 cpu:             102.4 elap:              22.1
 (Enter /apps/easybuild-2022/easybuild/software/Compiler/NVHPC/22.11-CUDA-11.7.0/Gaussian/g16c01-CUDA-11.7.0/g16/l508.exe)
 QCSCF skips out because SCF is already converged.
 Leave Link  508 at Sat May 24 02:43:11 2025, MaxMem=  3758096384 cpu:               0.0 elap:               0.0
 (Enter /apps/easybuild-2022/easybuild/software/Compiler/NVHPC/22.11-CUDA-11.7.0/Gaussian/g16c01-CUDA-11.7.0/g16/l801.exe)
 DoSCS=F DFT=T ScalE2(SS,OS)=  1.000000  1.000000
 Range of M.O.s used for correlation:     1   324
 NBasis=   324 NAE=    40 NBE=    40 NFC=     0 NFV=     0
 NROrb=    324 NOA=    40 NOB=    40 NVA=   284 NVB=   284

 **** Warning!!: The largest alpha MO coefficient is  0.14690805D+02

 Leave Link  801 at Sat May 24 02:43:11 2025, MaxMem=  3758096384 cpu:               0.0 elap:               0.0
 (Enter /apps/easybuild-2022/easybuild/software/Compiler/NVHPC/22.11-CUDA-11.7.0/Gaussian/g16c01-CUDA-11.7.0/g16/l1101.exe)
 Leave Link 1101 at Sat May 24 02:43:11 2025, MaxMem=  3758096384 cpu:               0.0 elap:               0.0
 (Enter /apps/easybuild-2022/easybuild/software/Compiler/NVHPC/22.11-CUDA-11.7.0/Gaussian/g16c01-CUDA-11.7.0/g16/l1102.exe)
 Symmetrizing basis deriv contribution to polar:
 IMax=3 JMax=2 DiffMx= 0.00D+00
 Leave Link 1102 at Sat May 24 02:43:11 2025, MaxMem=  3758096384 cpu:               0.1 elap:               0.0
 (Enter /apps/easybuild-2022/easybuild/software/Compiler/NVHPC/22.11-CUDA-11.7.0/Gaussian/g16c01-CUDA-11.7.0/g16/l1110.exe)
 Leave Link 1110 at Sat May 24 02:43:11 2025, MaxMem=  3758096384 cpu:               0.0 elap:               0.0
 (Enter /apps/easybuild-2022/easybuild/software/Compiler/NVHPC/22.11-CUDA-11.7.0/Gaussian/g16c01-CUDA-11.7.0/g16/l1002.exe)
 Minotr:  Closed shell wavefunction.
 Leave Link 1002 at Sat May 24 02:43:11 2025, MaxMem=  3758096384 cpu:               0.0 elap:               0.0
 (Enter /apps/easybuild-2022/easybuild/software/Compiler/NVHPC/22.11-CUDA-11.7.0/Gaussian/g16c01-CUDA-11.7.0/g16/l701.exe)
 ... and contract with generalized density number  0.
 Compute integral first derivatives.
   1 Symmetry operations used in ECPInt.
 ECPInt:  NShTT=    6786 NPrTT=   21959 LenC2=    6512 LenP2D=   16106.
 LDataN:  DoStor=T MaxTD1= 7 Len=  274
 Leave Link  701 at Sat May 24 02:43:11 2025, MaxMem=  3758096384 cpu:               0.5 elap:               0.1
 (Enter /apps/easybuild-2022/easybuild/software/Compiler/NVHPC/22.11-CUDA-11.7.0/Gaussian/g16c01-CUDA-11.7.0/g16/l702.exe)
 L702 exits ... SP integral derivatives will be done elsewhere.
 Leave Link  702 at Sat May 24 02:43:11 2025, MaxMem=  3758096384 cpu:               0.0 elap:               0.0
 (Enter /apps/easybuild-2022/easybuild/software/Compiler/NVHPC/22.11-CUDA-11.7.0/Gaussian/g16c01-CUDA-11.7.0/g16/l703.exe)
 Integral derivatives from FoFJK, PRISM(SPDF).
 Compute integral first derivatives, UseDBF=F ICtDFT=           0.
 Calling FoFJK, ICntrl=      2127 FMM=F ISym2X=0 I1Cent= 0 IOpClX= 0 NMat=1 NMatS=1 NMatT=0.
 FoFJK:  IHMeth= 1 ICntrl=    2127 DoSepK=F KAlg= 0 I1Cent=           0 FoldK=F
 IRaf=         0 NMat=       1 IRICut=       1 DoRegI=T DoRafI=F ISym2E= 0 IDoP0=0 IntGTp=1.
 FoFCou: FMM=F IPFlag=           0 FMFlag=      100000 FMFlg1=         800
         NFxFlg=           0 DoJE=F BraDBF=F KetDBF=F FulRan=T
         wScrn=  0.000000 ICntrl=      2127 IOpCl=  0 I1Cent=           0 NGrid=           0
         NMat0=    1 NMatS0=      1 NMatT0=    0 NMatD0=    1 NMtDS0=    0 NMtDT0=    0
 Symmetry not used in FoFCou.
 Leave Link  703 at Sat May 24 02:43:21 2025, MaxMem=  3758096384 cpu:              73.5 elap:               9.3
 (Enter /apps/easybuild-2022/easybuild/software/Compiler/NVHPC/22.11-CUDA-11.7.0/Gaussian/g16c01-CUDA-11.7.0/g16/l716.exe)
 Dipole        =-7.51499769D-01 1.57729014D-01-1.13271250D+00
 Polarizability= 0.00000000D+00 0.00000000D+00 0.00000000D+00
                 0.00000000D+00 0.00000000D+00 0.00000000D+00
 -------------------------------------------------------------------
 Center     Atomic                   Forces (Hartrees/Bohr)
 Number     Number              X              Y              Z
 -------------------------------------------------------------------
      1        6           0.000561545   -0.000322239   -0.001160629
      2        8           0.000167826   -0.000006384   -0.000159508
      3        6           0.000234694    0.000191285    0.000580712
      4        6          -0.000701505   -0.000130813   -0.000113181
      5        9          -0.000622213    0.000126443    0.000244087
      6        9          -0.000440263   -0.000115841    0.000223358
      7        9           0.000015908   -0.000323364   -0.000888502
      8        9           0.000449171    0.000420768    0.000582784
      9        9           0.000235356    0.000145718    0.000714122
     10        8           0.000183058   -0.000033799   -0.000131546
     11        1          -0.000083576    0.000048226    0.000108304
 -------------------------------------------------------------------
 Cartesian Forces:  Max     0.001160629 RMS     0.000417893
 Leave Link  716 at Sat May 24 02:43:21 2025, MaxMem=  3758096384 cpu:               0.0 elap:               0.0
 (Enter /apps/easybuild-2022/easybuild/software/Compiler/NVHPC/22.11-CUDA-11.7.0/Gaussian/g16c01-CUDA-11.7.0/g16/l123.exe)
 IRC-IRC-IRC-IRC-IRC-IRC-IRC-IRC-IRC-IRC-IRC-IRC-IRC-IRC-IRC-IRC-IRC-IRC
 Pt  3 Step number   1 out of a maximum of  20
 Using modified Bulirsch-Stoer corrector integration.
   Using distance weighted interpolants to fit PES.
 PreDWI: IReCr0= 2 IReCr1= 1 IReCr2= 1 IReCr3= 1
 Modified Bulirsch-Stoer Extrapolation Cycles:
    EPS =    0.000010000000000
    Cycle     1 NS=    48
      PEZero:  N= 2 I= 1 D=  3.07D-04 Err=  1.94D-06
    Cycle     2 NS=    64 Truncation Error =  0.000001936
 BS completed in    2 cycles and     112 integration steps.
 Maximum DWI energy   std dev =  0.000000030 at pt    34
 Maximum DWI gradient std dev =  0.035784940 at pt    28
 SUMMARY OF CORRECTOR INTEGRATION:
   Predictor End Point Energy =  -764.529162
   Old End Point Energy       =  -764.529162
   Corrected End Point Energy =  -764.529162
   Predictor End-Start Dist.  =     0.058853
   Old End-Start Dist.        =     0.058853
   New End-Start Dist.        =     0.058851
   New End-Old End Dist.      =     0.000707
 CORRECTOR INTEGRATION CONVERGENCE:
   Recorrection delta-x convergence threshold:    0.010000
   Delta-x Convergence Met
 Point Number:   3          Path Number:   1
                    CURRENT STRUCTURE
                Cartesian Coordinates (Ang):                
 ---------------------------------------------------------------------
 Center     Atomic                     Coordinates (Angstroms)
 Number     Number                        X           Y           Z
 ---------------------------------------------------------------------
      1          6                    0.947111   -0.020030   -0.279845
      2          8                    1.783044   -0.825985    0.138239
      3          6                   -0.157657   -0.508376   -1.236886
      4          6                   -0.237630    0.298650    0.947434
      5          9                   -1.208031    1.144850    0.604764
      6          9                   -0.789695   -0.820952    1.392965
      7          9                    0.474911    0.844832    1.907760
      8          9                   -0.963672    0.238705   -1.865375
      9          9                   -0.567662   -1.699883   -1.170927
     10          8                    1.290867    1.260580   -0.714288
     11          1                    2.217723    1.351309   -0.463980
 ---------------------------------------------------------------------
   CHANGE IN THE REACTION COORDINATE =    0.05885
   NET REACTION COORDINATE UP TO THIS POINT =    0.17656
  # OF POINTS ALONG THE PATH =   3
  # OF STEPS =   1

 Calculating another point on the path.
 Point Number  4 in FORWARD path direction.
 Using LQA Reaction Path Following.
   LQA: T_Est iteration completed in    3 iterations.
 IRC-IRC-IRC-IRC-IRC-IRC-IRC-IRC-IRC-IRC-IRC-IRC-IRC-IRC-IRC-IRC-IRC-IRC
 Leave Link  123 at Sat May 24 02:43:21 2025, MaxMem=  3758096384 cpu:               0.1 elap:               0.0
 (Enter /apps/easybuild-2022/easybuild/software/Compiler/NVHPC/22.11-CUDA-11.7.0/Gaussian/g16c01-CUDA-11.7.0/g16/l202.exe)
                          Input orientation:                          
 ---------------------------------------------------------------------
 Center     Atomic      Atomic             Coordinates (Angstroms)
 Number     Number       Type             X           Y           Z
 ---------------------------------------------------------------------
      1          6           0        0.949065   -0.021360   -0.284667
      2          8           0        1.783686   -0.826076    0.137779
      3          6           0       -0.156549   -0.507596   -1.234563
      4          6           0       -0.240429    0.298114    0.946928
      5          9           0       -1.209667    1.145195    0.605402
      6          9           0       -0.790850   -0.821263    1.393558
      7          9           0        0.474948    0.844003    1.905485
      8          9           0       -0.962525    0.239783   -1.863844
      9          9           0       -0.567071   -1.699482   -1.169063
     10          8           0        1.291327    1.260489   -0.714734
     11          1           0        2.216211    1.354254   -0.458055
 ---------------------------------------------------------------------
                    Distance matrix (angstroms):
                    1          2          3          4          5
     1  C    0.000000
     2  O    1.233945   0.000000
     3  C    1.536591   2.397763   0.000000
     4  C    1.741777   2.452665   2.327038   0.000000
     5  F    2.610210   3.614518   2.688168   1.331769   0.000000
     6  F    2.546289   2.864478   2.721717   1.324932   2.159527
     7  F    2.402167   2.761656   3.476422   1.314759   2.149153
     8  F    2.493226   3.561493   1.266557   2.902631   2.641596
     9  F    2.428357   2.827849   1.262304   2.928225   3.413772
    10  O    1.394718   2.307152   2.343649   2.456331   2.830375
    11  H    1.878306   2.301290   3.114392   3.020677   3.593227
                    6          7          8          9         10
     6  F    0.000000
     7  F    2.153468   0.000000
     8  F    3.430155   4.079124   0.000000
     9  F    2.718155   4.124071   2.097583   0.000000
    10  O    3.621332   2.775875   2.728029   3.524412   0.000000
    11  H    4.147741   2.979710   3.650021   4.192552   0.964410
                   11
    11  H    0.000000
 Symmetry turned off by external request.
 Stoichiometry    C3HF5O2
 Rotational constants (GHZ):           1.7409877           1.2812704           1.1879804
 Leave Link  202 at Sat May 24 02:43:21 2025, MaxMem=  3758096384 cpu:               0.0 elap:               0.0
 (Enter /apps/easybuild-2022/easybuild/software/Compiler/NVHPC/22.11-CUDA-11.7.0/Gaussian/g16c01-CUDA-11.7.0/g16/l301.exe)
 Standard basis: def2TZVPP (5D, 7F)
 Ernie: Thresh=  0.10000D-02 Tol=  0.10000D-05 Strict=F.
   324 basis functions,   527 primitive gaussians,   375 cartesian basis functions
    40 alpha electrons       40 beta electrons
       nuclear repulsion energy       642.2102241288 Hartrees.
 IExCor= 4336 DFT=T Ex+Corr=M062X ExCW=0 ScaHFX=  0.540000
 ScaDFX=  1.000000  1.000000  1.000000  1.000000 ScalE2=  1.000000  1.000000
 IRadAn=      5 IRanWt=     -1 IRanGd=            0 ICorTp=0 IEmpDi=  4
 NAtoms=   11 NActive=   11 NUniq=   11 SFac= 1.00D+00 NAtFMM=   60 NAOKFM=F Big=F
 Integral buffers will be    131072 words long.
 Raffenetti 2 integral format.
 Two-electron integral symmetry is turned off.
 Leave Link  301 at Sat May 24 02:43:21 2025, MaxMem=  3758096384 cpu:               0.0 elap:               0.0
 (Enter /apps/easybuild-2022/easybuild/software/Compiler/NVHPC/22.11-CUDA-11.7.0/Gaussian/g16c01-CUDA-11.7.0/g16/l302.exe)
 NPDir=0 NMtPBC=     1 NCelOv=     1 NCel=       1 NClECP=     1 NCelD=      1
         NCelK=      1 NCelE2=     1 NClLst=     1 CellRange=     0.0.
 One-electron integrals computed using PRISM.
   1 Symmetry operations used in ECPInt.
 ECPInt:  NShTT=    6786 NPrTT=   21959 LenC2=    6512 LenP2D=   16106.
 LDataN:  DoStor=T MaxTD1= 6 Len=  172
 NBasis=   324 RedAO= T EigKep=  3.11D-04  NBF=   324
 NBsUse=   324 1.00D-06 EigRej= -1.00D+00 NBFU=   324
 Precomputing XC quadrature grid using
[...]
 DIIS: error= 6.03D-06 at cycle   3 NSaved=   3.
 NSaved= 3 IEnMin= 3 EnMin= -764.602045221229     IErMin= 3 ErrMin= 6.03D-06
 ErrMax= 6.03D-06  0.00D+00 EMaxC= 1.00D-01 BMatC= 5.24D-08 BMatP= 1.56D-06
 IDIUse=1 WtCom= 1.00D+00 WtEn= 0.00D+00
 Coeff-Com: -0.881D-02 0.136D+00 0.872D+00
 Coeff:     -0.881D-02 0.136D+00 0.872D+00
 Gap=     0.380 Goal=   None    Shift=    0.000
 RMSDP=7.66D-07 MaxDP=3.21D-05 DE=-9.10D-07 OVMax= 7.12D-05

 Cycle   6  Pass 1  IDiag  1:
 E= -764.602045250519     Delta-E=       -0.000000029291 Rises=F Damp=F
 DIIS: error= 3.69D-06 at cycle   4 NSaved=   4.
 NSaved= 4 IEnMin= 4 EnMin= -764.602045250519     IErMin= 4 ErrMin= 3.69D-06
 ErrMax= 3.69D-06  0.00D+00 EMaxC= 1.00D-01 BMatC= 1.37D-08 BMatP= 5.24D-08
 IDIUse=1 WtCom= 1.00D+00 WtEn= 0.00D+00
 Coeff-Com: -0.276D-01 0.532D-01 0.491D+00 0.484D+00
 Coeff:     -0.276D-01 0.532D-01 0.491D+00 0.484D+00
 Gap=     0.380 Goal=   None    Shift=    0.000
 RMSDP=2.37D-07 MaxDP=1.22D-05 DE=-2.93D-08 OVMax= 2.83D-05

 Cycle   7  Pass 1  IDiag  1:
 E= -764.602045260148     Delta-E=       -0.000000009628 Rises=F Damp=F
 DIIS: error= 6.67D-07 at cycle   5 NSaved=   5.
 NSaved= 5 IEnMin= 5 EnMin= -764.602045260148     IErMin= 5 ErrMin= 6.67D-07
 ErrMax= 6.67D-07  0.00D+00 EMaxC= 1.00D-01 BMatC= 5.09D-10 BMatP= 1.37D-08
 IDIUse=1 WtCom= 1.00D+00 WtEn= 0.00D+00
 Coeff-Com: -0.619D-02-0.821D-03 0.421D-01 0.147D+00 0.818D+00
 Coeff:     -0.619D-02-0.821D-03 0.421D-01 0.147D+00 0.818D+00
 Gap=     0.380 Goal=   None    Shift=    0.000
 RMSDP=1.02D-07 MaxDP=4.79D-06 DE=-9.63D-09 OVMax= 1.82D-05

 Cycle   8  Pass 1  IDiag  1:
 E= -764.602045260777     Delta-E=       -0.000000000630 Rises=F Damp=F
 DIIS: error= 3.79D-07 at cycle   6 NSaved=   6.
 NSaved= 6 IEnMin= 6 EnMin= -764.602045260777     IErMin= 6 ErrMin= 3.79D-07
 ErrMax= 3.79D-07  0.00D+00 EMaxC= 1.00D-01 BMatC= 1.25D-10 BMatP= 5.09D-10
 IDIUse=1 WtCom= 1.00D+00 WtEn= 0.00D+00
 Coeff-Com:  0.302D-02-0.124D-01-0.844D-01-0.396D-01 0.353D+00 0.781D+00
 Coeff:      0.302D-02-0.124D-01-0.844D-01-0.396D-01 0.353D+00 0.781D+00
 Gap=     0.380 Goal=   None    Shift=    0.000
 RMSDP=4.76D-08 MaxDP=1.70D-06 DE=-6.30D-10 OVMax= 8.37D-06

 Cycle   9  Pass 1  IDiag  1:
 E= -764.602045261028     Delta-E=       -0.000000000251 Rises=F Damp=F
 DIIS: error= 7.48D-08 at cycle   7 NSaved=   7.
 NSaved= 7 IEnMin= 7 EnMin= -764.602045261028     IErMin= 7 ErrMin= 7.48D-08
 ErrMax= 7.48D-08  0.00D+00 EMaxC= 1.00D-01 BMatC= 6.74D-12 BMatP= 1.25D-10
 IDIUse=1 WtCom= 1.00D+00 WtEn= 0.00D+00
 Coeff-Com:  0.104D-02-0.291D-02-0.217D-01-0.195D-01 0.276D-01 0.142D+00
 Coeff-Com:  0.873D+00
 Coeff:      0.104D-02-0.291D-02-0.217D-01-0.195D-01 0.276D-01 0.142D+00
 Coeff:      0.873D+00
 Gap=     0.380 Goal=   None    Shift=    0.000
 RMSDP=1.34D-08 MaxDP=5.46D-07 DE=-2.51D-10 OVMax= 2.88D-06

 Cycle  10  Pass 1  IDiag  1:
 E= -764.602045261035     Delta-E=       -0.000000000006 Rises=F Damp=F
 DIIS: error= 5.21D-08 at cycle   8 NSaved=   8.
 NSaved= 8 IEnMin= 8 EnMin= -764.602045261035     IErMin= 8 ErrMin= 5.21D-08
 ErrMax= 5.21D-08  0.00D+00 EMaxC= 1.00D-01 BMatC= 2.50D-12 BMatP= 6.74D-12
 IDIUse=1 WtCom= 1.00D+00 WtEn= 0.00D+00
 Coeff-Com: -0.246D-03 0.187D-02 0.118D-01 0.145D-02-0.747D-01-0.141D+00
 Coeff-Com:  0.398D+00 0.803D+00
 Coeff:     -0.246D-03 0.187D-02 0.118D-01 0.145D-02-0.747D-01-0.141D+00
 Coeff:      0.398D+00 0.803D+00
 Gap=     0.380 Goal=   None    Shift=    0.000
 RMSDP=7.84D-09 MaxDP=2.38D-07 DE=-6.37D-12 OVMax= 1.79D-06

 SCF Done:  E(RM062X) =  -764.602045261     A.U. after   10 cycles
            NFock= 10  Conv=0.78D-08     -V/T= 2.0038
 KE= 7.617317045328D+02 PE=-3.099431198775D+03 EE= 9.295483892904D+02
 Leave Link  502 at Sat May 24 03:36:23 2025, MaxMem=  3758096384 cpu:             102.8 elap:              21.6
 (Enter /apps/easybuild-2022/easybuild/software/Compiler/NVHPC/22.11-CUDA-11.7.0/Gaussian/g16c01-CUDA-11.7.0/g16/l508.exe)
 QCSCF skips out because SCF is already converged.
 Leave Link  508 at Sat May 24 03:36:23 2025, MaxMem=  3758096384 cpu:               0.0 elap:               0.0
 (Enter /apps/easybuild-2022/easybuild/software/Compiler/NVHPC/22.11-CUDA-11.7.0/Gaussian/g16c01-CUDA-11.7.0/g16/l801.exe)
 DoSCS=F DFT=T ScalE2(SS,OS)=  1.000000  1.000000
 Range of M.O.s used for correlation:     1   324
 NBasis=   324 NAE=    40 NBE=    40 NFC=     0 NFV=     0
 NROrb=    324 NOA=    40 NOB=    40 NVA=   284 NVB=   284

 **** Warning!!: The largest alpha MO coefficient is  0.18921329D+02

 Leave Link  801 at Sat May 24 03:36:23 2025, MaxMem=  3758096384 cpu:               0.0 elap:               0.0
 (Enter /apps/easybuild-2022/easybuild/software/Compiler/NVHPC/22.11-CUDA-11.7.0/Gaussian/g16c01-CUDA-11.7.0/g16/l1101.exe)
 Leave Link 1101 at Sat May 24 03:36:23 2025, MaxMem=  3758096384 cpu:               0.0 elap:               0.0
 (Enter /apps/easybuild-2022/easybuild/software/Compiler/NVHPC/22.11-CUDA-11.7.0/Gaussian/g16c01-CUDA-11.7.0/g16/l1102.exe)
 Symmetrizing basis deriv contribution to polar:
 IMax=3 JMax=2 DiffMx= 0.00D+00
 Leave Link 1102 at Sat May 24 03:36:23 2025, MaxMem=  3758096384 cpu:               0.1 elap:               0.0
 (Enter /apps/easybuild-2022/easybuild/software/Compiler/NVHPC/22.11-CUDA-11.7.0/Gaussian/g16c01-CUDA-11.7.0/g16/l1110.exe)
 Leave Link 1110 at Sat May 24 03:36:23 2025, MaxMem=  3758096384 cpu:               0.0 elap:               0.0
 (Enter /apps/easybuild-2022/easybuild/software/Compiler/NVHPC/22.11-CUDA-11.7.0/Gaussian/g16c01-CUDA-11.7.0/g16/l1002.exe)
 Minotr:  Closed shell wavefunction.
 Leave Link 1002 at Sat May 24 03:36:24 2025, MaxMem=  3758096384 cpu:               0.0 elap:               0.0
 (Enter /apps/easybuild-2022/easybuild/software/Compiler/NVHPC/22.11-CUDA-11.7.0/Gaussian/g16c01-CUDA-11.7.0/g16/l701.exe)
 ... and contract with generalized density number  0.
 Compute integral first derivatives.
   1 Symmetry operations used in ECPInt.
 ECPInt:  NShTT=    6786 NPrTT=   21959 LenC2=    6510 LenP2D=   16085.
 LDataN:  DoStor=T MaxTD1= 7 Len=  274
 Leave Link  701 at Sat May 24 03:36:24 2025, MaxMem=  3758096384 cpu:               0.5 elap:               0.1
 (Enter /apps/easybuild-2022/easybuild/software/Compiler/NVHPC/22.11-CUDA-11.7.0/Gaussian/g16c01-CUDA-11.7.0/g16/l702.exe)
 L702 exits ... SP integral derivatives will be done elsewhere.
 Leave Link  702 at Sat May 24 03:36:24 2025, MaxMem=  3758096384 cpu:               0.0 elap:               0.0
 (Enter /apps/easybuild-2022/easybuild/software/Compiler/NVHPC/22.11-CUDA-11.7.0/Gaussian/g16c01-CUDA-11.7.0/g16/l703.exe)
 Integral derivatives from FoFJK, PRISM(SPDF).
 Compute integral first derivatives, UseDBF=F ICtDFT=           0.
 Calling FoFJK, ICntrl=      2127 FMM=F ISym2X=0 I1Cent= 0 IOpClX= 0 NMat=1 NMatS=1 NMatT=0.
 FoFJK:  IHMeth= 1 ICntrl=    2127 DoSepK=F KAlg= 0 I1Cent=           0 FoldK=F
 IRaf=         0 NMat=       1 IRICut=       1 DoRegI=T DoRafI=F ISym2E= 0 IDoP0=0 IntGTp=1.
 FoFCou: FMM=F IPFlag=           0 FMFlag=      100000 FMFlg1=         800
         NFxFlg=           0 DoJE=F BraDBF=F KetDBF=F FulRan=T
         wScrn=  0.000000 ICntrl=      2127 IOpCl=  0 I1Cent=           0 NGrid=           0
         NMat0=    1 NMatS0=      1 NMatT0=    0 NMatD0=    1 NMtDS0=    0 NMtDT0=    0
 Symmetry not used in FoFCou.
 Leave Link  703 at Sat May 24 03:36:33 2025, MaxMem=  3758096384 cpu:              76.9 elap:               9.7
 (Enter /apps/easybuild-2022/easybuild/software/Compiler/NVHPC/22.11-CUDA-11.7.0/Gaussian/g16c01-CUDA-11.7.0/g16/l716.exe)
 Dipole        = 3.05283526D-01 6.47077086D-01-2.26556713D-01
 Polarizability= 0.00000000D+00 0.00000000D+00 0.00000000D+00
                 0.00000000D+00 0.00000000D+00 0.00000000D+00
 -------------------------------------------------------------------
 Center     Atomic                   Forces (Hartrees/Bohr)
 Number     Number              X              Y              Z
 -------------------------------------------------------------------
      1        6           0.009814305    0.000656475   -0.005112823
      2        8           0.014483752   -0.000880516   -0.012040705
      3        6          -0.001700283    0.008288089    0.022834074
      4        6          -0.013380195   -0.006645790   -0.010059324
      5        9          -0.017605033   -0.001322676    0.004610067
      6        9          -0.016976132   -0.002325679    0.004377136
      7        9          -0.004216415   -0.013073306   -0.032439152
      8        9           0.008665060    0.006773779    0.017174301
      9        9           0.006115350    0.009424140    0.019062938
     10        8           0.013797418   -0.000980626   -0.007672542
     11        1           0.001002172    0.000086109   -0.000733972
 -------------------------------------------------------------------
 Cartesian Forces:  Max     0.032439152 RMS     0.011599053
 Leave Link  716 at Sat May 24 03:36:33 2025, MaxMem=  3758096384 cpu:               0.0 elap:               0.0
 (Enter /apps/easybuild-2022/easybuild/software/Compiler/NVHPC/22.11-CUDA-11.7.0/Gaussian/g16c01-CUDA-11.7.0/g16/l123.exe)
 IRC-IRC-IRC-IRC-IRC-IRC-IRC-IRC-IRC-IRC-IRC-IRC-IRC-IRC-IRC-IRC-IRC-IRC
 Pt100 Step number   1 out of a maximum of  20
 Using modified Bulirsch-Stoer corrector integration.
   Using distance weighted interpolants to fit PES.
 PreDWI: IReCr0= 2 IReCr1= 1 IReCr2= 1 IReCr3= 1
 Modified Bulirsch-Stoer Extrapolation Cycles:
    EPS =    0.000010000000000
    Cycle     1 NS=    48
      PEZero:  N= 2 I= 1 D=  3.07D-04 Err=  2.56D-06
    Cycle     2 NS=    64 Truncation Error =  0.000002556
 BS completed in    2 cycles and     112 integration steps.
 Maximum DWI energy   std dev =  0.000000024 at pt    47
 Maximum DWI gradient std dev =  0.000512511 at pt    29
 SUMMARY OF CORRECTOR INTEGRATION:
   Predictor End Point Energy =  -764.602045
   Old End Point Energy       =  -764.602045
   Corrected End Point Energy =  -764.602045
   Predictor End-Start Dist.  =     0.058858
   Old End-Start Dist.        =     0.058858
   New End-Start Dist.        =     0.058858
   New End-Old End Dist.      =     0.000029
 CORRECTOR INTEGRATION CONVERGENCE:
   Recorrection delta-x convergence threshold:    0.010000
   Delta-x Convergence Met
 Point Number: 100          Path Number:   1
                    CURRENT STRUCTURE
                Cartesian Coordinates (Ang):                
 ---------------------------------------------------------------------
 Center     Atomic                     Coordinates (Angstroms)
 Number     Number                        X           Y           Z
 ---------------------------------------------------------------------
      1          6                    1.224788   -0.076322   -0.591169
      2          8                    1.888412   -0.821935    0.059805
      3          6                   -0.199645   -0.382819   -0.851200
      4          6                   -0.486101    0.215948    0.831613
      5          9                   -1.359592    1.179083    0.666056
      6          9                   -0.910189   -0.850849    1.461610
      7          9                    0.448758    0.752076    1.673420
      8          9                   -0.882126    0.303682   -1.767737
      9          9                   -0.514089   -1.659873   -1.045086
     10          8                    1.391606    1.236798   -0.759001
     11          1                    2.172972    1.512705   -0.259621
 ---------------------------------------------------------------------
   CHANGE IN THE REACTION COORDINATE =    0.05886
   NET REACTION COORDINATE UP TO THIS POINT =    5.88572
  # OF POINTS ALONG THE PATH = 100
  # OF STEPS =   1

 Maximum number of steps reached.
 Calculation of FORWARD path complete.
 Reaction path calculation complete.
 
 Energies reported relative to the TS energy of        -764.529107
 --------------------------------------------------------------------------
    Summary of reaction path following
 --------------------------------------------------------------------------
                        Energy    RxCoord
   1                    0.00000   0.00000
   2                   -0.00001   0.05886
   3                   -0.00002   0.11771
   4                   -0.00006   0.17656
   5                   -0.00010   0.23541
   6                   -0.00016   0.29427
   7                   -0.00023   0.35312
   8                   -0.00031   0.41198
   9                   -0.00041   0.47083
  10                   -0.00053   0.52969
  11                   -0.00066   0.58854
  12                   -0.00080   0.64740
  13                   -0.00096   0.70626
  14                   -0.00114   0.76511
  15                   -0.00133   0.82397
  16                   -0.00154   0.88283
  17                   -0.00177   0.94168
  18                   -0.00201   1.00054
  19                   -0.00228   1.05940
  20                   -0.00256   1.11825
  21                   -0.00286   1.17711
  22                   -0.00318   1.23597
  23                   -0.00351   1.29482
  24                   -0.00387   1.35368
  25                   -0.00425   1.41254
  26                   -0.00464   1.47140
  27                   -0.00506   1.53025
  28                   -0.00550   1.58911
  29                   -0.00596   1.64797
  30                   -0.00643   1.70683
  31                   -0.00693   1.76568
  32                   -0.00745   1.82454
  33                   -0.00800   1.88340
  34                   -0.00856   1.94226
  35                   -0.00914   2.00111
  36                   -0.00975   2.05997
  37                   -0.01037   2.11883
  38                   -0.01102   2.17769
  39                   -0.01169   2.23654
  40                   -0.01237   2.29540
  41                   -0.01308   2.35426
  42                   -0.01381   2.41312
  43                   -0.01455   2.47197
  44                   -0.01532   2.53083
  45                   -0.01610   2.58969
  46                   -0.01691   2.64855
  47                   -0.01773   2.70740
  48                   -0.01856   2.76626
  49                   -0.01942   2.82512
  50                   -0.02029   2.88398
  51                   -0.02118   2.94284
  52                   -0.02208   3.00169
  53                   -0.02300   3.06055
  54                   -0.02393   3.11941
  55                   -0.02488   3.17827
  56                   -0.02584   3.23713
  57                   -0.02681   3.29598
  58                   -0.02780   3.35484
  59                   -0.02879   3.41370
  60                   -0.02980   3.47256
  61                   -0.03082   3.53141
  62                   -0.03185   3.59027
  63                   -0.03288   3.64913
  64                   -0.03393   3.70799
  65                   -0.03498   3.76685
  66                   -0.03604   3.82570
  67                   -0.03710   3.88456
  68                   -0.03817   3.94342
  69                   -0.03924   4.00228
  70                   -0.04032   4.06114
  71                   -0.04140   4.11999
  72                   -0.04249   4.17885
  73                   -0.04358   4.23771
  74                   -0.04466   4.29657
  75                   -0.04575   4.35542
  76                   -0.04684   4.41428
  77                   -0.04793   4.47314
  78                   -0.04902   4.53200
  79                   -0.05011   4.59085
  80                   -0.05119   4.64971
  81                   -0.05227   4.70857
  82                   -0.05335   4.76743
  83                   -0.05443   4.82629
  84                   -0.05550   4.88514
  85                   -0.05657   4.94400
  86                   -0.05764   5.00286
  87                   -0.05870   5.06172
  88                   -0.05975   5.12057
  89                   -0.06080   5.17943
  90                   -0.06185   5.23829
  91                   -0.06289   5.29715
  92                   -0.06392   5.35600
  93                   -0.06495   5.41486
  94                   -0.06597   5.47372
  95                   -0.06698   5.53258
  96                   -0.06799   5.59143
  97                   -0.06899   5.65029
  98                   -0.06999   5.70915
  99                   -0.07098   5.76801
 100                   -0.07196   5.82686
 101                   -0.07294   5.88572
 --------------------------------------------------------------------------
 
 Total number of points:                  100
 Total number of gradient calculations:   100
 Total number of Hessian calculations:      0
 IRC-IRC-IRC-IRC-IRC-IRC-IRC-IRC-IRC-IRC-IRC-IRC-IRC-IRC-IRC-IRC-IRC-IRC
 Leave Link  123 at Sat May 24 03:36:33 2025, MaxMem=  3758096384 cpu:               0.1 elap:               0.0
 (Enter /apps/easybuild-2022/easybuild/software/Compiler/NVHPC/22.11-CUDA-11.7.0/Gaussian/g16c01-CUDA-11.7.0/g16/l202.exe)
                          Input orientation:                          
 ---------------------------------------------------------------------
 Center     Atomic      Atomic             Coordinates (Angstroms)
 Number     Number       Type             X           Y           Z
 ---------------------------------------------------------------------
      1          6           0        1.224789   -0.076323   -0.591170
      2          8           0        1.888411   -0.821934    0.059805
      3          6           0       -0.199645   -0.382819   -0.851199
      4          6           0       -0.486101    0.215948    0.831611
      5          9           0       -1.359592    1.179083    0.666056
      6          9           0       -0.910189   -0.850849    1.461610
      7          9           0        0.448758    0.752076    1.673420
      8          9           0       -0.882126    0.303682   -1.767737
      9          9           0       -0.514089   -1.659873   -1.045086
     10          8           0        1.391606    1.236798   -0.759001
     11          1           0        2.172960    1.512703   -0.259622
 ---------------------------------------------------------------------
                    Distance matrix (angstroms):
                    1          2          3          4          5
     1  C    0.000000
     2  O    1.191679   0.000000
     3  C    1.480056   2.320071   0.000000
     4  C    2.244298   2.703921   1.808986   0.000000
     5  F    3.136190   3.862789   2.467201   1.310735   0.000000
     6  F    3.061360   3.130185   2.464348   1.309505   2.226094
     7  F    2.533147   2.674671   2.842906   1.367493   2.113587
     8  F    2.442909   3.504682   1.333081   2.630807   2.630143
     9  F    2.395281   2.773974   1.329411   2.653579   3.420900
    10  O    1.334271   2.270602   2.272386   2.664201   3.098905
    11  H    1.879882   2.373506   3.093901   3.153248   3.667030
                    6          7          8          9         10
     6  F    0.000000
     7  F    2.112101   0.000000
     8  F    3.429637   3.716702   0.000000
     9  F    2.663633   3.759634   2.124435   0.000000
    10  O    3.819377   2.653411   2.656711   3.479112   0.000000
    11  H    4.249097   2.699644   3.615203   4.231126   0.967480
                   11
    11  H    0.000000
 Symmetry turned off by external request.
 Stoichiometry    C3HF5O2
 Rotational constants (GHZ):           1.5836999           1.4051851           1.2205455
 Leave Link  202 at Sat May 24 03:36:33 2025, MaxMem=  3758096384 cpu:               0.0 elap:               0.0
 (Enter /apps/easybuild-2022/easybuild/software/Compiler/NVHPC/22.11-CUDA-11.7.0/Gaussian/g16c01-CUDA-11.7.0/g16/l9999.exe)

 This type of calculation cannot be archived.


 Sacred cows make the best hamburger.
                               -- Mark Twain
 Job cpu time:       0 days  5 hours 11 minutes  1.4 seconds.
 Elapsed time:       0 days  0 hours 54 minutes 39.2 seconds.
 File lengths (MBytes):  RWF=     52 Int=      0 D2E=      0 Chk=     10 Scr=      1
 Normal termination of Gaussian 16 at Sat May 24 03:36:34 2025.
done
