 Entering Gaussian System, Link 0=g16
 Initial command:
 /apps/easybuild-2022/easybuild/software/Compiler/NVHPC/22.11-CUDA-11.7.0/Gaussian/g16c01-CUDA-11.7.0/g16/l1.exe "/tmp/Gau-178620.inp" -scrdir="/tmp/"
 Entering Link 1 = /apps/easybuild-2022/easybuild/software/Compiler/NVHPC/22.11-CUDA-11.7.0/Gaussian/g16c01-CUDA-11.7.0/g16/l1.exe PID=    178621.
  
 Copyright (c) 1988-2019, Gaussian, Inc.  All Rights Reserved.
  
 This is part of the Gaussian(R) 16 program.  It is based on
 the Gaussian(R) 09 system (copyright 2009, Gaussian, Inc.),
 the Gaussian(R) 03 system (copyright 2003, Gaussian, Inc.),
 the Gaussian(R) 98 system (copyright 1998, Gaussian, Inc.),
 the Gaussian(R) 94 system (copyright 1995, Gaussian, Inc.),
 the Gaussian 92(TM) system (copyright 1992, Gaussian, Inc.),
 the Gaussian 90(TM) system (copyright 1990, Gaussian, Inc.),
 the Gaussian 88(TM) system (copyright 1988, Gaussian, Inc.),
 the Gaussian 86(TM) system (copyright 1986, Carnegie Mellon
 University), and the Gaussian 82(TM) system (copyright 1983,
 Carnegie Mellon University). Gaussian is a federally registered
 trademark of Gaussian, Inc.
  
 This software contains proprietary and confidential information,
 including trade secrets, belonging to Gaussian, Inc.
  
 This software is provided under written license and may be
 used, copied, transmitted, or stored only in accord with that
 written license.
  
 The following legend is applicable only to US Government
 contracts under FAR:
  
                    RESTRICTED RIGHTS LEGEND
  
 Use, reproduction and disclosure by the US Government is
 subject to restrictions as set forth in subparagraphs (a)
 and (c) of the Commercial Computer Software - Restricted
 Rights clause in FAR 52.227-19.
  
 Gaussian, Inc.
 340 Quinnipiac St., Bldg. 40, Wallingford CT 06492
  
  
 ---------------------------------------------------------------
 Warning -- This program may not be used in any manner that
 competes with the business of Gaussian, Inc. or will provide
 assistance to any competitor of Gaussian, Inc.  The licensee
 of this program is prohibited from giving any competitor of
 Gaussian, Inc. access to this program.  By using this program,
 the user acknowledges that Gaussian, Inc. is engaged in the
 business of creating and licensing software in the field of
 computational chemistry and represents and warrants to the
 licensee that it is not a competitor of Gaussian, Inc. and that
 it will not use this program in any manner prohibited above.
 ---------------------------------------------------------------
  

 Cite this work as:
 Gaussian 16, Revision C.01,
 M. J. Frisch, G. W. Trucks, H. B. Schlegel, G. E. Scuseria, 
 M. A. Robb, J. R. Cheeseman, G. Scalmani, V. Barone, 
 G. A. Petersson, H. Nakatsuji, X. Li, M. Caricato, A. V. Marenich, 
 J. Bloino, B. G. Janesko, R. Gomperts, B. Mennucci, H. P. Hratchian, 
 J. V. Ortiz, A. F. Izmaylov, J. L. Sonnenberg, D. Williams-Young, 
 F. Ding, F. Lipparini, F. Egidi, J. Goings, B. Peng, A. Petrone, 
 T. Henderson, D. Ranasinghe, V. G. Zakrzewski, J. Gao, N. Rega, 
 G. Zheng, W. Liang, M. Hada, M. Ehara, K. Toyota, R. Fukuda, 
 J. Hasegawa, M. Ishida, T. Nakajima, Y. Honda, O. Kitao, H. Nakai, 
 T. Vreven, K. Throssell, J. A. Montgomery, Jr., J. E. Peralta, 
 F. Ogliaro, M. J. Bearpark, J. J. Heyd, E. N. Brothers, K. N. Kudin, 
 V. N. Staroverov, T. A. Keith, R. Kobayashi, J. Normand, 
 K. Raghavachari, A. P. Rendell, J. C. Burant, S. S. Iyengar, 
 J. Tomasi, M. Cossi, J. M. Millam, M. Klene, C. Adamo, R. Cammi, 
 J. W. Ochterski, R. L. Martin, K. Morokuma, O. Farkas, 
 J. B. Foresman, and D. J. Fox, Gaussian, Inc., Wallingford CT, 2019.
 
 ******************************************
 Gaussian 16:  ES64L-G16RevC.01  3-Jul-2019
                24-May-2025 
 ******************************************
 %mem=28GB
 %chk=1642764945472630600001_r12_insertion_R_10_1_3_IRC_F
 %nprocshared=8
 Will use up to    8 processors via shared memory.
 ----------------------------------------------------------------------
 #P M062X/Def2TZVPP Symm(None) scf(xqc) pop(None) geom(AllCheck,NoKeepC
 onstants) guess(Read) irc(RCFC,forward,MaxPoints=100,StepSize=2)
 ----------------------------------------------------------------------
 1/10=5,18=10,22=1,26=3,29=20007,38=1,39=2,42=100,44=3,172=1/1,23;
 2/12=2,15=3,29=1,40=1/2;
 3/5=44,7=202,11=2,14=-4,25=1,30=1,71=2,74=-55,116=-2,140=1/1,2,3;
 4/5=1/1;
 5/5=2,8=3,13=1,38=6/2,8;
 8/6=4,10=90,11=11/1;
 11/6=1,8=1,9=11,15=111,16=1,31=1/1,2,10;
 10/6=1,13=1,31=1/2;
 7/10=1,25=1,30=1/1,2,3,16;
 1/18=10,22=1,26=3,39=2,42=100,44=3/23(2);
 2/15=3,29=1/2;
 99/5=20/99;
 2/15=3,29=1/2;
 3/5=44,7=202,11=2,14=-2,25=1,30=1,71=2,74=-55,140=1/1,2,3;
 4/5=5,16=3,69=1/1;
 5/5=2,8=3,13=1,38=5/2,8;
 8/6=4,10=90,11=11/1;
 11/6=1,8=1,9=11,15=111,16=1,31=1/1,2,10;
 10/6=1,13=1,31=1/2;
 7/10=1,25=1,30=1/1,2,3,16;
 1/18=10,22=1,26=3,39=2,42=100,44=3/23(-8);
 2/15=3,29=1/2;
 99/5=20,9=1/99;
 Leave Link    1 at Sat May 24 03:32:50 2025, MaxMem=  3758096384 cpu:               0.0 elap:               0.0
 (Enter /apps/easybuild-2022/easybuild/software/Compiler/NVHPC/22.11-CUDA-11.7.0/Gaussian/g16c01-CUDA-11.7.0/g16/l101.exe)
 Structure from the checkpoint file:  "1642764945472630600001_r12_insertion_R_10_1_3_IRC_F.chk"
 ------------------------------
 Gaussian input prepared by ASE
 ------------------------------
 Charge =  0 Multiplicity = 1
 Redundant internal coordinates found in file.  (old form).
 C,0,1.6088262244,-0.841019424,0.1558303221
 O,0,2.5502856061,-1.4472461539,-0.0135199301
 C,0,0.168924162,0.2327101072,-0.0117751989
 C,0,-0.4534841195,0.4539990298,1.3969384233
 F,0,-1.7294166916,0.0982259966,1.3698553222
 F,0,0.1666492356,-0.269966117,2.3196165616
 F,0,-0.3851193838,1.7282392592,1.731534819
 F,0,-0.1765758424,1.2572822871,-0.832712026
 F,0,-0.5472970761,-0.777130963,-0.6367977974
 O,0,1.7080780367,0.9459687256,0.3429304435
 H,0,2.0186278487,1.5903442525,-0.3098049392
 Recover connectivity data from disk.
 ITRead=  0  0  0  0  0  0  0  0  0  0  0
 MicOpt= -1 -1 -1 -1 -1 -1 -1 -1 -1 -1 -1
 NAtoms=     11 NQM=       11 NQMF=       0 NMMI=      0 NMMIF=      0
                NMic=       0 NMicF=      0.
                    Isotopes and Nuclear Properties:
 (Nuclear quadrupole moments (NQMom) in fm**2, nuclear magnetic moments (NMagM)
  in nuclear magnetons)

  Atom         1           2           3           4           5           6           7           8           9          10
 IAtWgt=          12          16          12          12          19          19          19          19          19          16
 AtmWgt=  12.0000000  15.9949146  12.0000000  12.0000000  18.9984032  18.9984032  18.9984032  18.9984032  18.9984032  15.9949146
 NucSpn=           0           0           0           0           1           1           1           1           1           0
 AtZEff=   3.6000000   5.6000000   3.6000000   3.6000000   6.7500000   6.7500000   6.7500000   6.7500000   6.7500000   5.6000000
 NQMom=    0.0000000   0.0000000   0.0000000   0.0000000   0.0000000   0.0000000   0.0000000   0.0000000   0.0000000   0.0000000
 NMagM=    0.0000000   0.0000000   0.0000000   0.0000000   2.6288670   2.6288670   2.6288670   2.6288670   2.6288670   0.0000000
 AtZNuc=   6.0000000   8.0000000   6.0000000   6.0000000   9.0000000   9.0000000   9.0000000   9.0000000   9.0000000   8.0000000

  Atom        11
 IAtWgt=           1
 AtmWgt=   1.0078250
 NucSpn=           1
 AtZEff=   1.0000000
 NQMom=    0.0000000
 NMagM=    2.7928460
 AtZNuc=   1.0000000
 Leave Link  101 at Sat May 24 03:32:50 2025, MaxMem=  3758096384 cpu:               0.2 elap:               0.2
 (Enter /apps/easybuild-2022/easybuild/software/Compiler/NVHPC/22.11-CUDA-11.7.0/Gaussian/g16c01-CUDA-11.7.0/g16/l123.exe)
 IRC-IRC-IRC-IRC-IRC-IRC-IRC-IRC-IRC-IRC-IRC-IRC-IRC-IRC-IRC-IRC-IRC-IRC
 ------------------------------------------------------------------------
 INPUT DATA FOR L123
 ------------------------------------------------------------------------
 GENERAL PARAMETERS:
 Rxn path following direction = Forward
 Maximum points per path      = 100
 Step size                    =   0.020 bohr
 Integration scheme           = HPC                                 
    Redo corrector integration= Yes                                 
    DWI Weight Power          =  2
    DWI will use Hessian update vectors when possible.
    Max correction cycles     =  20
 Initial Hessian              = ReadFC from chk
 Hessian evaluation           = All updating
 Hessian updating method      = Bofill                              
 ------------------------------------------------------------------------
          ******** Start new reaction path calculation ********
 RCFC Option Requested - Data Read From Chk File:
 "1642764945472630600001_r12_insertion_R_10_1_3_IRC_F.chk"
   Energy From Chk =   -764.4950985

 Current Structure is TS -> form Hessian eigenvectors.
                            Recovering Hessian eigenvectors from chk file.
 Supplied step size of   0.0200 bohr.
    Integration on MW PES will use step size of   0.0535 sqrt(amu)*bohr.
 Point Number:   0          Path Number:   1
 Calculating another point on the path.
 Point Number  1 in FORWARD path direction.
 Using LQA Reaction Path Following.
 IRC-IRC-IRC-IRC-IRC-IRC-IRC-IRC-IRC-IRC-IRC-IRC-IRC-IRC-IRC-IRC-IRC-IRC
 Leave Link  123 at Sat May 24 03:32:50 2025, MaxMem=  3758096384 cpu:               0.0 elap:               0.0
 (Enter /apps/easybuild-2022/easybuild/software/Compiler/NVHPC/22.11-CUDA-11.7.0/Gaussian/g16c01-CUDA-11.7.0/g16/l202.exe)
                          Input orientation:                          
 ---------------------------------------------------------------------
 Center     Atomic      Atomic             Coordinates (Angstroms)
 Number     Number       Type             X           Y           Z
 ---------------------------------------------------------------------
      1          6           0        1.393776   -1.032140   -0.443664
      2          8           0        2.336954   -1.633564   -0.614693
      3          6           0       -0.045435    0.050110   -0.612239
      4          6           0       -0.668653    0.268626    0.796255
      5          9           0       -1.944515   -0.087309    0.769032
      6          9           0       -0.048532   -0.455438    1.718799
      7          9           0       -0.600354    1.542865    1.130977
      8          9           0       -0.392502    1.072555   -1.433727
      9          9           0       -0.761139   -0.961977   -1.237351
     10          8           0        1.490564    0.760830   -0.258787
     11          1           0        1.796661    1.407683   -0.911225
 ---------------------------------------------------------------------
                    Distance matrix (angstroms):
                    1          2          3          4          5
     1  C    0.000000
     2  O    1.131612   0.000000
     3  C    1.808593   2.917283   0.000000
     4  C    2.735508   3.826588   1.555636   0.000000
     5  F    3.675258   4.757791   2.352296   1.324860   0.000000
     6  F    2.662534   3.538886   2.385231   1.326615   2.152284
     7  F    3.617554   4.665281   2.361156   1.319238   2.143652
     8  F    2.932704   3.929864   1.356721   2.386499   2.933628
     9  F    2.297503   3.230621   1.388278   2.378758   2.488171
    10  O    1.805073   2.564404   1.728972   2.453078   3.684497
    11  H    2.516677   3.103069   2.307751   3.207913   4.365164
                    6          7          8          9         10
     6  F    0.000000
     7  F    2.154822   0.000000
     8  F    3.520156   2.615741   0.000000
     9  F    3.082728   3.450951   2.076963   0.000000
    10  O    2.785493   2.629631   2.241337   2.999302   0.000000
    11  H    3.713890   3.151910   2.275468   3.501997   0.968395
                   11
    11  H    0.000000
 Symmetry turned off by external request.
 Stoichiometry    C3HF5O2
 Rotational constants (GHZ):           1.8706708           1.1589098           1.0846228
 Leave Link  202 at Sat May 24 03:32:50 2025, MaxMem=  3758096384 cpu:               0.0 elap:               0.0
 (Enter /apps/easybuild-2022/easybuild/software/Compiler/NVHPC/22.11-CUDA-11.7.0/Gaussian/g16c01-CUDA-11.7.0/g16/l301.exe)
 Standard basis: def2TZVPP (5D, 7F)
 Ernie: Thresh=  0.10000D-02 Tol=  0.10000D-05 Strict=F.
   324 basis functions,   527 primitive gaussians,   375 cartesian basis functions
    40 alpha electrons       40 beta electrons
       nuclear repulsion energy       635.5865901195 Hartrees.
 IExCor= 4336 DFT=T Ex+Corr=M062X ExCW=0 ScaHFX=  0.540000
 ScaDFX=  1.000000  1.000000  1.000000  1.000000 ScalE2=  1.000000  1.000000
 IRadAn=      5 IRanWt=     -1 IRanGd=            0 ICorTp=0 IEmpDi=  4
 NAtoms=   11 NActive=   11 NUniq=   11 SFac= 1.00D+00 NAtFMM=   60 NAOKFM=F Big=F
 Integral buffers will be    131072 words long.
 Raffenetti 2 integral format.
 Two-electron integral symmetry is turned off.
 Leave Link  301 at Sat May 24 03:32:50 2025, MaxMem=  3758096384 cpu:               0.0 elap:               0.0
 (Enter /apps/easybuild-2022/easybuild/software/Compiler/NVHPC/22.11-CUDA-11.7.0/Gaussian/g16c01-CUDA-11.7.0/g16/l302.exe)
 NPDir=0 NMtPBC=     1 NCelOv=     1 NCel=       1 NClECP=     1 NCelD=      1
         NCelK=      1 NCelE2=     1 NClLst=     1 CellRange=     0.0.
 One-electron integrals computed using PRISM.
   1 Symmetry operations used in ECPInt.
 ECPInt:  NShTT=    6786 NPrTT=   21959 LenC2=    6483 LenP2D=   15978.
 LDataN:  DoStor=T MaxTD1= 6 Len=  172
 NBasis=   324 RedAO= T EigKep=  2.37D-04  NBF=   324
 NBsUse=   324 1.00D-06 EigRej= -1.00D+00 NBFU=   324
 Precomputing XC quadrature grid using
 IXCGrd= 4 IRadAn=           5 IRanWt=          -1 IRanGd=           0 AccXCQ= 0.00D+00.
 Generated NRdTot=       0 NPtTot=           0 NUsed=           0 NTot=          32
 NSgBfM=   373   373   373   373   373 MxSgAt=    11 MxSgA2=    11.
 Leave Link  302 at Sat May 24 03:32:50 2025, MaxMem=  3758096384 cpu:               0.7 elap:               0.2
 (Enter /apps/easybuild-2022/easybuild/software/Compiler/NVHPC/22.11-CUDA-11.7.0/Gaussian/g16c01-CUDA-11.7.0/g16/l303.exe)
 DipDrv:  MaxL=1.
 Leave Link  303 at Sat May 24 03:32:50 2025, MaxMem=  3758096384 cpu:               0.1 elap:               0.0
 (Enter /apps/easybuild-2022/easybuild/software/Compiler/NVHPC/22.11-CUDA-11.7.0/Gaussian/g16c01-CUDA-11.7.0/g16/l401.exe)
 Initial guess from the checkpoint file:  "1642764945472630600001_r12_insertion_R_10_1_3_IRC_F.chk"
 B after Tr=    -0.406628   -0.350632   -1.135293
         Rot=    1.000000    0.000005   -0.000011   -0.000018 Ang=   0.00 deg.
 Guess basis will be translated and rotated to current coordinates.
 JPrj=2 DoOrth=T DoCkMO=T.
 Leave Link  401 at Sat May 24 03:32:51 2025, MaxMem=  3758096384 cpu:               0.4 elap:               0.2
 (Enter /apps/easybuild-2022/easybuild/software/Compiler/NVHPC/22.11-CUDA-11.7.0/Gaussian/g16c01-CUDA-11.7.0/g16/l502.exe)
 Keep R1 ints in memory in canonical form, NReq=1412617130.
 FoFCou: FMM=F IPFlag=           0 FMFlag=           0 FMFlg1=           0
         NFxFlg=           0 DoJE=F BraDBF=F KetDBF=F FulRan=T
         wScrn=  0.000000 ICntrl=       600 IOpCl=  0 I1Cent=           0 NGrid=           0
         NMat0=    1 NMatS0=  52650 NMatT0=    0 NMatD0=    1 NMtDS0=    0 NMtDT0=    0
 Symmetry not used in FoFCou.
 Two-electron integral symmetry not used.
 Closed shell SCF:
 Using DIIS extrapolation, IDIIS=  1040.
 NGot=  3758096384 LenX=  2371771924 LenY=  2371630858
 Requested convergence on RMS density matrix=1.00D-08 within  32 cycles.
 Requested convergence on MAX density matrix=1.00D-06.
 Requested convergence on             energy=1.00D-06.
 No special actions if energy rises.

 Cycle   1  Pass 1  IDiag  1:
 E= -764.495055900779    
 DIIS: error= 1.85D-04 at cycle   1 NSaved=   1.
 NSaved= 1 IEnMin= 1 EnMin= -764.495055900779     IErMin= 1 ErrMin= 1.85D-04
 ErrMax= 1.85D-04  0.00D+00 EMaxC= 1.00D-01 BMatC= 3.57D-05 BMatP= 3.57D-05
 IDIUse=3 WtCom= 9.98D-01 WtEn= 1.85D-03
 Coeff-Com:  0.100D+01
 Coeff-En:   0.100D+01
 Coeff:      0.100D+01
 Gap=     0.333 Goal=   None    Shift=    0.000
 RMSDP=2.80D-05 MaxDP=7.80D-04              OVMax= 4.65D-03

 Cycle   2  Pass 1  IDiag  1:
 E= -764.495116905491     Delta-E=       -0.000061004712 Rises=F Damp=F
 DIIS: error= 6.78D-05 at cycle   2 NSaved=   2.
 NSaved= 2 IEnMin= 2 EnMin= -764.495116905491     IErMin= 2 ErrMin= 6.78D-05
 ErrMax= 6.78D-05  0.00D+00 EMaxC= 1.00D-01 BMatC= 3.21D-06 BMatP= 3.57D-05
 IDIUse=1 WtCom= 1.00D+00 WtEn= 0.00D+00
 Coeff-Com: -0.449D-01 0.104D+01
 Coeff:     -0.449D-01 0.104D+01
 Gap=     0.331 Goal=   None    Shift=    0.000
 RMSDP=1.04D-05 MaxDP=3.98D-04 DE=-6.10D-05 OVMax= 1.89D-03

 Cycle   3  Pass 1  IDiag  1:
 E= -764.495123452581     Delta-E=       -0.000006547090 Rises=F Damp=F
 DIIS: error= 5.97D-05 at cycle   3 NSaved=   3.
 NSaved= 3 IEnMin= 3 EnMin= -764.495123452581     IErMin= 3 ErrMin= 5.97D-05
 ErrMax= 5.97D-05  0.00D+00 EMaxC= 1.00D-01 BMatC= 2.66D-06 BMatP= 3.21D-06
 IDIUse=1 WtCom= 1.00D+00 WtEn= 0.00D+00
 Coeff-Com: -0.941D-01 0.531D+00 0.563D+00
 Coeff:     -0.941D-01 0.531D+00 0.563D+00
 Gap=     0.331 Goal=   None    Shift=    0.000
 RMSDP=4.42D-06 MaxDP=1.86D-04 DE=-6.55D-06 OVMax= 7.68D-04

 Cycle   4  Pass 1  IDiag  1:
 E= -764.495125829314     Delta-E=       -0.000002376733 Rises=F Damp=F
 DIIS: error= 2.43D-05 at cycle   4 NSaved=   4.
 NSaved= 4 IEnMin= 4 EnMin= -764.495125829314     IErMin= 4 ErrMin= 2.43D-05
 ErrMax= 2.43D-05  0.00D+00 EMaxC= 1.00D-01 BMatC= 3.12D-07 BMatP= 2.66D-06
 IDIUse=1 WtCom= 1.00D+00 WtEn= 0.00D+00
 Coeff-Com: -0.164D-01-0.420D-01 0.212D+00 0.847D+00
 Coeff:     -0.164D-01-0.420D-01 0.212D+00 0.847D+00
 Gap=     0.331 Goal=   None    Shift=    0.000
 RMSDP=2.92D-06 MaxDP=9.16D-05 DE=-2.38D-06 OVMax= 5.96D-04

 Cycle   5  Pass 1  IDiag  1:
 E= -764.495126338707     Delta-E=       -0.000000509394 Rises=F Damp=F
 DIIS: error= 1.32D-05 at cycle   5 NSaved=   5.
 NSaved= 5 IEnMin= 5 EnMin= -764.495126338707     IErMin= 5 ErrMin= 1.32D-05
 ErrMax= 1.32D-05  0.00D+00 EMaxC= 1.00D-01 BMatC= 1.20D-07 BMatP= 3.12D-07
 IDIUse=1 WtCom= 1.00D+00 WtEn= 0.00D+00
 Coeff-Com:  0.111D-01-0.155D+00 0.261D-02 0.513D+00 0.629D+00
 Coeff:      0.111D-01-0.155D+00 0.261D-02 0.513D+00 0.629D+00
 Gap=     0.331 Goal=   None    Shift=    0.000
 RMSDP=1.38D-06 MaxDP=6.25D-05 DE=-5.09D-07 OVMax= 2.46D-04

 Cycle   6  Pass 1  IDiag  1:
 E= -764.495126483521     Delta-E=       -0.000000144813 Rises=F Damp=F
 DIIS: error= 3.65D-06 at cycle   6 NSaved=   6.
 NSaved= 6 IEnMin= 6 EnMin= -764.495126483521     IErMin= 6 ErrMin= 3.65D-06
 ErrMax= 3.65D-06  0.00D+00 EMaxC= 1.00D-01 BMatC= 7.31D-09 BMatP= 1.20D-07
 IDIUse=1 WtCom= 1.00D+00 WtEn= 0.00D+00
 Coeff-Com:  0.687D-02-0.510D-01-0.347D-01 0.513D-01 0.218D+00 0.809D+00
 Coeff:      0.687D-02-0.510D-01-0.347D-01 0.513D-01 0.218D+00 0.809D+00
 Gap=     0.331 Goal=   None    Shift=    0.000
 RMSDP=5.32D-07 MaxDP=2.22D-05 DE=-1.45D-07 OVMax= 9.90D-05

 Cycle   7  Pass 1  IDiag  1:
 E= -764.495126495029     Delta-E=       -0.000000011508 Rises=F Damp=F
 DIIS: error= 1.15D-06 at cycle   7 NSaved=   7.
 NSaved= 7 IEnMin= 7 EnMin= -764.495126495029     IErMin= 7 ErrMin= 1.15D-06
 ErrMax= 1.15D-06  0.00D+00 EMaxC= 1.00D-01 BMatC= 1.47D-09 BMatP= 7.31D-09
 IDIUse=1 WtCom= 1.00D+00 WtEn= 0.00D+00
 Coeff-Com:  0.148D-02 0.748D-03-0.131D-01-0.437D-01 0.131D-01 0.354D+00
 Coeff-Com:  0.688D+00
 Coeff:      0.148D-02 0.748D-03-0.131D-01-0.437D-01 0.131D-01 0.354D+00
 Coeff:      0.688D+00
 Gap=     0.331 Goal=   None    Shift=    0.000
 RMSDP=1.45D-07 MaxDP=5.09D-06 DE=-1.15D-08 OVMax= 2.76D-05

 Cycle   8  Pass 1  IDiag  1:
 E= -764.495126496591     Delta-E=       -0.000000001563 Rises=F Damp=F
 DIIS: error= 5.79D-07 at cycle   8 NSaved=   8.
 NSaved= 8 IEnMin= 8 EnMin= -764.495126496591     IErMin= 8 ErrMin= 5.79D-07
 ErrMax= 5.79D-07  0.00D+00 EMaxC= 1.00D-01 BMatC= 2.65D-10 BMatP= 1.47D-09
 IDIUse=1 WtCom= 1.00D+00 WtEn= 0.00D+00
 Coeff-Com: -0.281D-03 0.776D-02-0.160D-02-0.318D-01-0.259D-01 0.494D-01
 Coeff-Com:  0.328D+00 0.675D+00
 Coeff:     -0.281D-03 0.776D-02-0.160D-02-0.318D-01-0.259D-01 0.494D-01
 Coeff:      0.328D+00 0.675D+00
 Gap=     0.331 Goal=   None    Shift=    0.000
 RMSDP=5.63D-08 MaxDP=2.15D-06 DE=-1.56D-09 OVMax= 8.65D-06

 Cycle   9  Pass 1  IDiag  1:
 E= -764.495126496821     Delta-E=       -0.000000000230 Rises=F Damp=F
 DIIS: error= 1.89D-07 at cycle   9 NSaved=   9.
 NSaved= 9 IEnMin= 9 EnMin= -764.495126496821     IErMin= 9 ErrMin= 1.89D-07
 ErrMax= 1.89D-07  0.00D+00 EMaxC= 1.00D-01 BMatC= 4.45D-11 BMatP= 2.65D-10
 IDIUse=1 WtCom= 1.00D+00 WtEn= 0.00D+00
 Coeff-Com: -0.358D-03 0.368D-02 0.164D-02-0.878D-02-0.149D-01-0.341D-01
 Coeff-Com:  0.573D-01 0.338D+00 0.658D+00
 Coeff:     -0.358D-03 0.368D-02 0.164D-02-0.878D-02-0.149D-01-0.341D-01
 Coeff:      0.573D-01 0.338D+00 0.658D+00
 Gap=     0.331 Goal=   None    Shift=    0.000
 RMSDP=2.06D-08 MaxDP=8.13D-07 DE=-2.30D-10 OVMax= 3.32D-06

 Cycle  10  Pass 1  IDiag  1:
 E= -764.495126496924     Delta-E=       -0.000000000103 Rises=F Damp=F
 DIIS: error= 4.74D-08 at cycle  10 NSaved=  10.
 NSaved=10 IEnMin=10 EnMin= -764.495126496924     IErMin=10 ErrMin= 4.74D-08
 ErrMax= 4.74D-08  0.00D+00 EMaxC= 1.00D-01 BMatC= 2.72D-12 BMatP= 4.45D-11
 IDIUse=1 WtCom= 1.00D+00 WtEn= 0.00D+00
 Coeff-Com: -0.211D-04-0.652D-03 0.736D-03 0.351D-02 0.152D-02-0.159D-01
 Coeff-Com: -0.442D-01-0.435D-01 0.135D+00 0.964D+00
 Coeff:     -0.211D-04-0.652D-03 0.736D-03 0.351D-02 0.152D-02-0.159D-01
 Coeff:     -0.442D-01-0.435D-01 0.135D+00 0.964D+00
 Gap=     0.331 Goal=   None    Shift=    0.000
 RMSDP=9.64D-09 MaxDP=3.19D-07 DE=-1.03D-10 OVMax= 1.69D-06

 SCF Done:  E(RM062X) =  -764.495126497     A.U. after   10 cycles
            NFock= 10  Conv=0.96D-08     -V/T= 2.0036
 KE= 7.617258235041D+02 PE=-3.083843937659D+03 EE= 9.220363975388D+02
 Leave Link  502 at Sat May 24 03:33:13 2025, MaxMem=  3758096384 cpu:             112.0 elap:              22.6
 (Enter /apps/easybuild-2022/easybuild/software/Compiler/NVHPC/22.11-CUDA-11.7.0/Gaussian/g16c01-CUDA-11.7.0/g16/l508.exe)
 QCSCF skips out because SCF is already converged.
 Leave Link  508 at Sat May 24 03:33:13 2025, MaxMem=  3758096384 cpu:               0.0 elap:               0.0
 (Enter /apps/easybuild-2022/easybuild/software/Compiler/NVHPC/22.11-CUDA-11.7.0/Gaussian/g16c01-CUDA-11.7.0/g16/l801.exe)
 DoSCS=F DFT=T ScalE2(SS,OS)=  1.000000  1.000000
 Range of M.O.s used for correlation:     1   324
 NBasis=   324 NAE=    40 NBE=    40 NFC=     0 NFV=     0
 NROrb=    324 NOA=    40 NOB=    40 NVA=   284 NVB=   284

 **** Warning!!: The largest alpha MO coefficient is  0.15897673D+02

 Leave Link  801 at Sat May 24 03:33:13 2025, MaxMem=  3758096384 cpu:               0.0 elap:               0.0
 (Enter /apps/easybuild-2022/easybuild/software/Compiler/NVHPC/22.11-CUDA-11.7.0/Gaussian/g16c01-CUDA-11.7.0/g16/l1101.exe)
 Leave Link 1101 at Sat May 24 03:33:13 2025, MaxMem=  3758096384 cpu:               0.0 elap:               0.0
 (Enter /apps/easybuild-2022/easybuild/software/Compiler/NVHPC/22.11-CUDA-11.7.0/Gaussian/g16c01-CUDA-11.7.0/g16/l1102.exe)
 Symmetrizing basis deriv contribution to polar:
 IMax=3 JMax=2 DiffMx= 0.00D+00
 Leave Link 1102 at Sat May 24 03:33:13 2025, MaxMem=  3758096384 cpu:               0.0 elap:               0.0
 (Enter /apps/easybuild-2022/easybuild/software/Compiler/NVHPC/22.11-CUDA-11.7.0/Gaussian/g16c01-CUDA-11.7.0/g16/l1110.exe)
 Leave Link 1110 at Sat May 24 03:33:13 2025, MaxMem=  3758096384 cpu:               0.0 elap:               0.0
 (Enter /apps/easybuild-2022/easybuild/software/Compiler/NVHPC/22.11-CUDA-11.7.0/Gaussian/g16c01-CUDA-11.7.0/g16/l1002.exe)
 Minotr:  Closed shell wavefunction.
 Leave Link 1002 at Sat May 24 03:33:13 2025, MaxMem=  3758096384 cpu:               0.0 elap:               0.0
 (Enter /apps/easybuild-2022/easybuild/software/Compiler/NVHPC/22.11-CUDA-11.7.0/Gaussian/g16c01-CUDA-11.7.0/g16/l701.exe)
 ... and contract with generalized density number  0.
 Compute integral first derivatives.
   1 Symmetry operations used in ECPInt.
 ECPInt:  NShTT=    6786 NPrTT=   21959 LenC2=    6483 LenP2D=   15978.
 LDataN:  DoStor=T MaxTD1= 7 Len=  274
 Leave Link  701 at Sat May 24 03:33:13 2025, MaxMem=  3758096384 cpu:               0.4 elap:               0.1
 (Enter /apps/easybuild-2022/easybuild/software/Compiler/NVHPC/22.11-CUDA-11.7.0/Gaussian/g16c01-CUDA-11.7.0/g16/l702.exe)
 L702 exits ... SP integral derivatives will be done elsewhere.
 Leave Link  702 at Sat May 24 03:33:14 2025, MaxMem=  3758096384 cpu:               0.0 elap:               0.0
 (Enter /apps/easybuild-2022/easybuild/software/Compiler/NVHPC/22.11-CUDA-11.7.0/Gaussian/g16c01-CUDA-11.7.0/g16/l703.exe)
 Integral derivatives from FoFJK, PRISM(SPDF).
 Compute integral first derivatives, UseDBF=F ICtDFT=           0.
 Calling FoFJK, ICntrl=      2127 FMM=F ISym2X=0 I1Cent= 0 IOpClX= 0 NMat=1 NMatS=1 NMatT=0.
 FoFJK:  IHMeth= 1 ICntrl=    2127 DoSepK=F KAlg= 0 I1Cent=           0 FoldK=F
 IRaf=         0 NMat=       1 IRICut=       1 DoRegI=T DoRafI=F ISym2E= 0 IDoP0=0 IntGTp=1.
 FoFCou: FMM=F IPFlag=           0 FMFlag=      100000 FMFlg1=         800
         NFxFlg=           0 DoJE=F BraDBF=F KetDBF=F FulRan=T
         wScrn=  0.000000 ICntrl=      2127 IOpCl=  0 I1Cent=           0 NGrid=           0
         NMat0=    1 NMatS0=      1 NMatT0=    0 NMatD0=    1 NMtDS0=    0 NMtDT0=    0
 Symmetry not used in FoFCou.
 Leave Link  703 at Sat May 24 03:33:23 2025, MaxMem=  3758096384 cpu:              73.3 elap:               9.3
 (Enter /apps/easybuild-2022/easybuild/software/Compiler/NVHPC/22.11-CUDA-11.7.0/Gaussian/g16c01-CUDA-11.7.0/g16/l716.exe)
 Dipole        = 4.90955116D-01 1.74502433D-01-3.51400279D-01
 Polarizability= 0.00000000D+00 0.00000000D+00 0.00000000D+00
                 0.00000000D+00 0.00000000D+00 0.00000000D+00
 -------------------------------------------------------------------
 Center     Atomic                   Forces (Hartrees/Bohr)
 Number     Number              X              Y              Z
 -------------------------------------------------------------------
      1        6           0.000052002   -0.002463958    0.000573715
      2        8           0.001052736   -0.000459958   -0.000235628
      3        6           0.000330918    0.001301750    0.000132332
      4        6          -0.000020025    0.000073647    0.000036955
      5        9           0.000019215    0.000002133   -0.000035575
      6        9          -0.000039434    0.000047602   -0.000030433
      7        9          -0.000076272    0.000118139    0.000152855
      8        9          -0.000560963    0.000571522   -0.000168039
      9        9           0.000908212    0.000487667    0.000158185
     10        8          -0.001408521    0.000228052   -0.000571023
     11        1          -0.000257867    0.000093404   -0.000013345
 -------------------------------------------------------------------
 Cartesian Forces:  Max     0.002463958 RMS     0.000647869
 Leave Link  716 at Sat May 24 03:33:23 2025, MaxMem=  3758096384 cpu:               0.0 elap:               0.0
 (Enter /apps/easybuild-2022/easybuild/software/Compiler/NVHPC/22.11-CUDA-11.7.0/Gaussian/g16c01-CUDA-11.7.0/g16/l123.exe)
 IRC-IRC-IRC-IRC-IRC-IRC-IRC-IRC-IRC-IRC-IRC-IRC-IRC-IRC-IRC-IRC-IRC-IRC
 Pt  1 Step number   1 out of a maximum of  20
 Using modified Bulirsch-Stoer corrector integration.
   Using distance weighted interpolants to fit PES.
 PreDWI: IReCr0= 2 IReCr1= 1 IReCr2= 1 IReCr3= 1
 Modified Bulirsch-Stoer Extrapolation Cycles:
    EPS =    0.000010000000000
    Cycle     1 NS=    48
      PEZero:  N= 2 I= 1 D=  1.39D-04 Err=  2.85D-04
    Cycle     2 NS=    64 Truncation Error =  0.000284826
      PEZero:  N= 3 I= 2 D=  1.39D-04 Err=  1.90D-04
      PEZero:  N= 3 I= 1 D=  2.79D-04 Err=  2.75D-09
    Cycle     3 NS=    96 Truncation Error =  0.000000003
 BS completed in    3 cycles and     208 integration steps.
 Maximum DWI energy   std dev =  0.000000030 at pt    50
 Maximum DWI gradient std dev =  0.009244276 at pt     1
 SUMMARY OF CORRECTOR INTEGRATION:
   Predictor End Point Energy =  -764.495126
   Old End Point Energy       =  -764.495126
   Corrected End Point Energy =  -764.495126
   Predictor End-Start Dist.  =     0.053537
   Old End-Start Dist.        =     0.053537
   New End-Start Dist.        =     0.053536
   New End-Old End Dist.      =     0.000166
 CORRECTOR INTEGRATION CONVERGENCE:
   Recorrection delta-x convergence threshold:    0.010000
   Delta-x Convergence Met
 Point Number:   1          Path Number:   1
                    CURRENT STRUCTURE
                Cartesian Coordinates (Ang):                
 ---------------------------------------------------------------------
 Center     Atomic                     Coordinates (Angstroms)
 Number     Number                        X           Y           Z
 ---------------------------------------------------------------------
      1          6                    1.393786   -1.032134   -0.443655
      2          8                    2.336955   -1.633566   -0.614694
      3          6                   -0.045442    0.050112   -0.612242
      4          6                   -0.668654    0.268627    0.796253
      5          9                   -1.944516   -0.087309    0.769031
      6          9                   -0.048533   -0.455437    1.718799
      7          9                   -0.600354    1.542867    1.130978
      8          9                   -0.392504    1.072558   -1.433727
      9          9                   -0.761134   -0.961975   -1.237349
     10          8                    1.490560    0.760819   -0.258791
     11          1                    1.796673    1.407649   -0.911220
 ---------------------------------------------------------------------
   CHANGE IN THE REACTION COORDINATE =    0.05354
   NET REACTION COORDINATE UP TO THIS POINT =    0.05354
  # OF POINTS ALONG THE PATH =   1
  # OF STEPS =   1

 Calculating another point on the path.
 Point Number  2 in FORWARD path direction.
 Using LQA Reaction Path Following.
   LQA: T_Est iteration completed in    3 iterations.
 IRC-IRC-IRC-IRC-IRC-IRC-IRC-IRC-IRC-IRC-IRC-IRC-IRC-IRC-IRC-IRC-IRC-IRC
 Leave Link  123 at Sat May 24 03:33:23 2025, MaxMem=  3758096384 cpu:               0.1 elap:               0.1
 (Enter /apps/easybuild-2022/easybuild/software/Compiler/NVHPC/22.11-CUDA-11.7.0/Gaussian/g16c01-CUDA-11.7.0/g16/l202.exe)
                          Input orientation:                          
 ---------------------------------------------------------------------
 Center     Atomic      Atomic             Coordinates (Angstroms)
 Number     Number       Type             X           Y           Z
 ---------------------------------------------------------------------
      1          6           0        1.393882   -1.037704   -0.442357
      2          8           0        2.338754   -1.634350   -0.615096
      3          6           0       -0.044688    0.053051   -0.611937
      4          6           0       -0.668699    0.268795    0.796341
      5          9           0       -1.944489   -0.087306    0.768981
      6          9           0       -0.048589   -0.455368    1.718754
      7          9           0       -0.600463    1.543034    1.131196
      8          9           0       -0.393306    1.073375   -1.433967
      9          9           0       -0.759840   -0.961280   -1.237126
     10          8           0        1.488167    0.761194   -0.259741
     11          1           0        1.789870    1.410464   -0.911867
 ---------------------------------------------------------------------
                    Distance matrix (angstroms):
                    1          2          3          4          5
     1  C    0.000000
     2  O    1.130756   0.000000
     3  C    1.813280   2.920296   0.000000
     4  C    2.737800   3.828693   1.555372   0.000000
     5  F    3.676318   4.759747   2.352845   1.324838   0.000000
     6  F    2.662750   3.540659   2.385503   1.326572   2.152202
     7  F    3.621283   4.667366   2.359544   1.319269   2.143738
     8  F    2.938364   3.932745   1.355850   2.386936   2.933655
     9  F    2.296958   3.231290   1.389666   2.378314   2.488311
    10  O    1.810600   2.566789   1.724863   2.451497   3.682574
    11  H    2.524039   3.108093   2.301766   3.204051   4.360504
                    6          7          8          9         10
     6  F    0.000000
     7  F    2.154855   0.000000
     8  F    3.520729   2.616019   0.000000
     9  F    3.082053   3.450498   2.076756   0.000000
    10  O    2.784975   2.628376   2.239689   2.995953   0.000000
    11  H    3.712334   3.147280   2.269907   3.497426   0.968423
                   11
    11  H    0.000000
 Symmetry turned off by external request.
 Stoichiometry    C3HF5O2
 Rotational constants (GHZ):           1.8707463           1.1585205           1.0840087
 Leave Link  202 at Sat May 24 03:33:23 2025, MaxMem=  3758096384 cpu:               0.0 elap:               0.0
 (Enter /apps/easybuild-2022/easybuild/software/Compiler/NVHPC/22.11-CUDA-11.7.0/Gaussian/g16c01-CUDA-11.7.0/g16/l301.exe)
 Standard basis: def2TZVPP (5D, 7F)
 Ernie: Thresh=  0.10000D-02 Tol=  0.10000D-05 Strict=F.
   324 basis functions,   527 primitive gaussians,   375 cartesian basis functions
    40 alpha electrons       40 beta electrons
       nuclear repulsion energy       635.5478454185 Hartrees.
 IExCor= 4336 DFT=T Ex+Corr=M062X ExCW=0 ScaHFX=  0.540000
 ScaDFX=  1.000000  1.000000  1.000000  1.000000 ScalE2=  1.000000  1.000000
 IRadAn=      5 IRanWt=     -1 IRanGd=            0 ICorTp=0 IEmpDi=  4
 NAtoms=   11 NActive=   11 NUniq=   11 SFac= 1.00D+00 NAtFMM=   60 NAOKFM=F Big=F
 Integral buffers will be    131072 words long.
 Raffenetti 2 integral format.
 Two-electron integral symmetry is turned off.
 Leave Link  301 at Sat May 24 03:33:23 2025, MaxMem=  3758096384 cpu:               0.1 elap:               0.0
 (Enter /apps/easybuild-2022/easybuild/software/Compiler/NVHPC/22.11-CUDA-11.7.0/Gaussian/g16c01-CUDA-11.7.0/g16/l302.exe)
 NPDir=0 NMtPBC=     1 NCelOv=     1 NCel=       1 NClECP=     1 NCelD=      1
         NCelK=      1 NCelE2=     1 NClLst=     1 CellRange=     0.0.
 One-electron integrals computed using PRISM.
   1 Symmetry operations used in ECPInt.
 ECPInt:  NShTT=    6786 NPrTT=   21959 LenC2=    6482 LenP2D=   15977.
 LDataN:  DoStor=T MaxTD1= 6 Len=  172
 NBasis=   324 RedAO= T EigKep=  2.37D-04  NBF=   324
 NBsUse=   324 1.00D-06 EigRej= -1.00D+00 NBFU=   324
 Precomputing XC quadrature grid using
 IXCGrd= 4 IRadAn=           5 IRanWt=          -1 IRanGd=           0 AccXCQ= 0.00D+00.
 Generated NRdTot=       0 NPtTot=           0 NUsed=           0 NTot=          32
 NSgBfM=   373   373   373   373   373 MxSgAt=    11 MxSgA2=    11.
 Leave Link  302 at Sat May 24 03:33:23 2025, MaxMem=  3758096384 cpu:               0.6 elap:               0.1
 (Enter /apps/easybuild-2022/easybuild/software/Compiler/NVHPC/22.11-CUDA-11.7.0/Gaussian/g16c01-CUDA-11.7.0/g16/l303.exe)
 DipDrv:  MaxL=1.
 Leave Link  303 at Sat May 24 03:33:23 2025, MaxMem=  3758096384 cpu:               0.1 elap:               0.0
 (Enter /apps/easybuild-2022/easybuild/software/Compiler/NVHPC/22.11-CUDA-11.7.0/Gaussian/g16c01-CUDA-11.7.0/g16/l401.exe)
 Initial guess from the checkpoint file:  "1642764945472630600001_r12_insertion_R_10_1_3_IRC_F.chk"
 B after Tr=    -0.000083    0.000010   -0.000007
         Rot=    1.000000    0.000006   -0.000011   -0.000018 Ang=   0.00 deg.
 Guess basis will be translated and rotated to current coordinates.
 JPrj=2 DoOrth=T DoCkMO=T.
 Generating alternative initial guess.
 ExpMin= 9.52D-02 ExpMax= 3.55D+04 ExpMxC= 1.21D+03 IAcc=3 IRadAn=         5 AccDes= 0.00D+00
 Harris functional with IExCor= 1009 and IRadAn=       5 diagonalized for initial guess.
 HarFok:  IExCor= 1009 AccDes= 0.00D+00 IRadAn=         5 IDoV= 1 UseB2=F ITyADJ=14
 ICtDFT=  3500011 ScaDFX=  1.000000  1.000000  1.000000  1.000000
 FoFCou: FMM=F IPFlag=           0 FMFlag=      100000 FMFlg1=           0
         NFxFlg=           0 DoJE=T BraDBF=F KetDBF=T FulRan=T
         wScrn=  0.000000 ICntrl=       500 IOpCl=  0 I1Cent=   200000004 NGrid=           0
         NMat0=    1 NMatS0=      1 NMatT0=    0 NMatD0=    1 NMtDS0=    0 NMtDT0=    0
 Symmetry not used in FoFCou.
 Harris En= -764.046387696084    
 Leave Link  401 at Sat May 24 03:33:24 2025, MaxMem=  3758096384 cpu:               3.8 elap:               0.6
 (Enter /apps/easybuild-2022/easybuild/software/Compiler/NVHPC/22.11-CUDA-11.7.0/Gaussian/g16c01-CUDA-11.7.0/g16/l502.exe)
 Keep R1 ints in memory in canonical form, NReq=1412617130.
 FoFCou: FMM=F IPFlag=           0 FMFlag=           0 FMFlg1=           0
         NFxFlg=           0 DoJE=F BraDBF=F KetDBF=F FulRan=T
         wScrn=  0.000000 ICntrl=       600 IOpCl=  0 I1Cent=           0 NGrid=           0
         NMat0=    1 NMatS0=  52650 NMatT0=    0 NMatD0=    1 NMtDS0=    0 NMtDT0=    0
 Symmetry not used in FoFCou.
 Two-electron integral symmetry not used.
 Closed shell SCF:
 Using DIIS extrapolation, IDIIS=  1040.
 NGot=  3758096384 LenX=  2371771924 LenY=  2371630858
 Requested convergence on RMS density matrix=1.00D-08 within  32 cycles.
 Requested convergence on MAX density matrix=1.00D-06.
 Requested convergence on             energy=1.00D-06.
 No special actions if energy rises.
 Integral accuracy reduced to 1.0D-05 until final iterations.

 Cycle   1  Pass 0  IDiag  1:
 E= -764.495177023644    
 DIIS: error= 1.83D-04 at cycle   1 NSaved=   1.
 NSaved= 1 IEnMin= 1 EnMin= -764.495177023644     IErMin= 1 ErrMin= 1.83D-04
 ErrMax= 1.83D-04  0.00D+00 EMaxC= 1.00D-01 BMatC= 3.61D-05 BMatP= 3.61D-05
 IDIUse=3 WtCom= 9.98D-01 WtEn= 1.83D-03
 Coeff-Com:  0.100D+01
 Coeff-En:   0.100D+01
 Coeff:      0.100D+01
 Gap=     1.117 Goal=   None    Shift=    0.000
 RMSDP=2.94D-05 MaxDP=8.50D-04              OVMax= 4.60D-03

 Cycle   2  Pass 0  IDiag  1:
 E= -764.495237906861     Delta-E=       -0.000060883217 Rises=F Damp=F
 DIIS: error= 6.69D-05 at cycle   2 NSaved=   2.
 NSaved= 2 IEnMin= 2 EnMin= -764.495237906861     IErMin= 2 ErrMin= 6.69D-05
 ErrMax= 6.69D-05  0.00D+00 EMaxC= 1.00D-01 BMatC= 3.26D-06 BMatP= 3.61D-05
 IDIUse=1 WtCom= 1.00D+00 WtEn= 0.00D+00
 Coeff-Com: -0.429D-01 0.104D+01
 Coeff:     -0.429D-01 0.104D+01
 Gap=     0.332 Goal=   None    Shift=    0.000
 RMSDP=1.04D-05 MaxDP=4.07D-04 DE=-6.09D-05 OVMax= 1.85D-03

 Cycle   3  Pass 0  IDiag  1:
 E= -764.495244369623     Delta-E=       -0.000006462762 Rises=F Damp=F
 DIIS: error= 5.80D-05 at cycle   3 NSaved=   3.
 NSaved= 3 IEnMin= 3 EnMin= -764.495244369623     IErMin= 3 ErrMin= 5.80D-05
 ErrMax= 5.80D-05  0.00D+00 EMaxC= 1.00D-01 BMatC= 2.69D-06 BMatP= 3.26D-06
 IDIUse=1 WtCom= 1.00D+00 WtEn= 0.00D+00
 Coeff-Com: -0.931D-01 0.530D+00 0.563D+00
 Coeff:     -0.931D-01 0.530D+00 0.563D+00
 Gap=     0.332 Goal=   None    Shift=    0.000
 RMSDP=4.36D-06 MaxDP=1.82D-04 DE=-6.46D-06 OVMax= 7.54D-04

 Initial convergence to 1.0D-05 achieved.  Increase integral accuracy.
 Cycle   4  Pass 1  IDiag  1:
 E= -764.495208528191     Delta-E=        0.000035841432 Rises=F Damp=F
 DIIS: error= 4.00D-05 at cycle   1 NSaved=   1.
 NSaved= 1 IEnMin= 1 EnMin= -764.495208528191     IErMin= 1 ErrMin= 4.00D-05
 ErrMax= 4.00D-05  0.00D+00 EMaxC= 1.00D-01 BMatC= 1.18D-06 BMatP= 1.18D-06
 IDIUse=1 WtCom= 1.00D+00 WtEn= 0.00D+00
 Coeff-Com:  0.100D+01
 Coeff:      0.100D+01
 Gap=     0.332 Goal=   None    Shift=    0.000
 RMSDP=4.36D-06 MaxDP=1.82D-04 DE= 3.58D-05 OVMax= 5.74D-04

 Cycle   5  Pass 1  IDiag  1:
 E= -764.495209360668     Delta-E=       -0.000000832477 Rises=F Damp=F
 DIIS: error= 3.94D-05 at cycle   2 NSaved=   2.
 NSaved= 2 IEnMin= 2 EnMin= -764.495209360668     IErMin= 2 ErrMin= 3.94D-05
 ErrMax= 3.94D-05  0.00D+00 EMaxC= 1.00D-01 BMatC= 6.59D-07 BMatP= 1.18D-06
 IDIUse=1 WtCom= 1.00D+00 WtEn= 0.00D+00
 Coeff-Com:  0.391D+00 0.609D+00
 Coeff:      0.391D+00 0.609D+00
 Gap=     0.332 Goal=   None    Shift=    0.000
 RMSDP=2.24D-06 MaxDP=1.28D-04 DE=-8.32D-07 OVMax= 2.60D-04

 Cycle   6  Pass 1  IDiag  1:
 E= -764.495209675259     Delta-E=       -0.000000314591 Rises=F Damp=F
 DIIS: error= 2.25D-05 at cycle   3 NSaved=   3.
 NSaved= 3 IEnMin= 3 EnMin= -764.495209675259     IErMin= 3 ErrMin= 2.25D-05
 ErrMax= 2.25D-05  0.00D+00 EMaxC= 1.00D-01 BMatC= 2.72D-07 BMatP= 6.59D-07
 IDIUse=1 WtCom= 1.00D+00 WtEn= 0.00D+00
 Coeff-Com: -0.542D-01 0.390D+00 0.664D+00
 Coeff:     -0.542D-01 0.390D+00 0.664D+00
 Gap=     0.332 Goal=   None    Shift=    0.000
 RMSDP=1.19D-06 MaxDP=5.54D-05 DE=-3.15D-07 OVMax= 1.79D-04

 Cycle   7  Pass 1  IDiag  1:
 E= -764.495209887915     Delta-E=       -0.000000212656 Rises=F Damp=F
 DIIS: error= 2.53D-06 at cycle   4 NSaved=   4.
 NSaved= 4 IEnMin= 4 EnMin= -764.495209887915     IErMin= 4 ErrMin= 2.53D-06
 ErrMax= 2.53D-06  0.00D+00 EMaxC= 1.00D-01 BMatC= 8.18D-09 BMatP= 2.72D-07
 IDIUse=1 WtCom= 1.00D+00 WtEn= 0.00D+00
 Coeff-Com: -0.310D-01 0.128D+00 0.246D+00 0.657D+00
 Coeff:     -0.310D-01 0.128D+00 0.246D+00 0.657D+00
 Gap=     0.332 Goal=   None    Shift=    0.000
 RMSDP=3.34D-07 MaxDP=1.19D-05 DE=-2.13D-07 OVMax= 6.09D-05

 Cycle   8  Pass 1  IDiag  1:
 E= -764.495209898560     Delta-E=       -0.000000010645 Rises=F Damp=F
 DIIS: error= 2.09D-06 at cycle   5 NSaved=   5.
 NSaved= 5 IEnMin= 5 EnMin= -764.495209898560     IErMin= 5 ErrMin= 2.09D-06
 ErrMax= 2.09D-06  0.00D+00 EMaxC= 1.00D-01 BMatC= 2.56D-09 BMatP= 8.18D-09
 IDIUse=1 WtCom= 1.00D+00 WtEn= 0.00D+00
 Coeff-Com:  0.833D-02-0.119D+00-0.190D+00 0.316D+00 0.984D+00
 Coeff:      0.833D-02-0.119D+00-0.190D+00 0.316D+00 0.984D+00
 Gap=     0.332 Goal=   None    Shift=    0.000
 RMSDP=3.86D-07 MaxDP=1.54D-05 DE=-1.06D-08 OVMax= 7.76D-05

 Cycle   9  Pass 1  IDiag  1:
 E= -764.495209904270     Delta-E=       -0.000000005710 Rises=F Damp=F
 DIIS: error= 4.58D-07 at cycle   6 NSaved=   6.
 NSaved= 6 IEnMin= 6 EnMin= -764.495209904270     IErMin= 6 ErrMin= 4.58D-07
 ErrMax= 4.58D-07  0.00D+00 EMaxC= 1.00D-01 BMatC= 2.57D-10 BMatP= 2.56D-09
 IDIUse=1 WtCom= 1.00D+00 WtEn= 0.00D+00
 Coeff-Com:  0.571D-02-0.610D-01-0.995D-01 0.109D+00 0.428D+00 0.618D+00
 Coeff:      0.571D-02-0.610D-01-0.995D-01 0.109D+00 0.428D+00 0.618D+00
 Gap=     0.332 Goal=   None    Shift=    0.000
 RMSDP=6.34D-08 MaxDP=2.22D-06 DE=-5.71D-09 OVMax= 1.22D-05

 Cycle  10  Pass 1  IDiag  1:
 E= -764.495209904562     Delta-E=       -0.000000000291 Rises=F Damp=F
 DIIS: error= 2.74D-07 at cycle   7 NSaved=   7.
 NSaved= 7 IEnMin= 7 EnMin= -764.495209904562     IErMin= 7 ErrMin= 2.74D-07
 ErrMax= 2.74D-07  0.00D+00 EMaxC= 1.00D-01 BMatC= 6.16D-11 BMatP= 2.57D-10
 IDIUse=1 WtCom= 1.00D+00 WtEn= 0.00D+00
 Coeff-Com:  0.978D-03-0.312D-02-0.561D-02-0.239D-01-0.416D-01 0.315D+00
 Coeff-Com:  0.758D+00
 Coeff:      0.978D-03-0.312D-02-0.561D-02-0.239D-01-0.416D-01 0.315D+00
 Coeff:      0.758D+00
 Gap=     0.332 Goal=   None    Shift=    0.000
 RMSDP=3.68D-08 MaxDP=1.31D-06 DE=-2.91D-10 OVMax= 6.58D-06

 Cycle  11  Pass 1  IDiag  1:
 E= -764.495209904642     Delta-E=       -0.000000000081 Rises=F Damp=F
 DIIS: error= 5.41D-08 at cycle   8 NSaved=   8.
 NSaved= 8 IEnMin= 8 EnMin= -764.495209904642     IErMin= 8 ErrMin= 5.41D-08
 ErrMax= 5.41D-08  0.00D+00 EMaxC= 1.00D-01 BMatC= 2.97D-12 BMatP= 6.16D-11
 IDIUse=1 WtCom= 1.00D+00 WtEn= 0.00D+00
 Coeff-Com: -0.214D-03 0.511D-02 0.790D-02-0.158D-01-0.513D-01 0.353D-01
 Coeff-Com:  0.237D+00 0.782D+00
 Coeff:     -0.214D-03 0.511D-02 0.790D-02-0.158D-01-0.513D-01 0.353D-01
 Coeff:      0.237D+00 0.782D+00
 Gap=     0.332 Goal=   None    Shift=    0.000
 RMSDP=8.18D-09 MaxDP=3.25D-07 DE=-8.07D-11 OVMax= 1.22D-06

 SCF Done:  E(RM062X) =  -764.495209905     A.U. after   11 cycles
            NFock= 11  Conv=0.82D-08     -V/T= 2.0036
 KE= 7.617328441590D+02 PE=-3.083777678686D+03 EE= 9.220017792043D+02
 Leave Link  502 at Sat May 24 03:33:47 2025, MaxMem=  3758096384 cpu:             108.5 elap:              23.0
 (Enter /apps/easybuild-2022/easybuild/software/Compiler/NVHPC/22.11-CUDA-11.7.0/Gaussian/g16c01-CUDA-11.7.0/g16/l508.exe)
 QCSCF skips out because SCF is already converged.
 Leave Link  508 at Sat May 24 03:33:47 2025, MaxMem=  3758096384 cpu:               0.0 elap:               0.0
 (Enter /apps/easybuild-2022/easybuild/software/Compiler/NVHPC/22.11-CUDA-11.7.0/Gaussian/g16c01-CUDA-11.7.0/g16/l801.exe)
 DoSCS=F DFT=T ScalE2(SS,OS)=  1.000000  1.000000
 Range of M.O.s used for correlation:     1   324
 NBasis=   324 NAE=    40 NBE=    40 NFC=     0 NFV=     0
 NROrb=    324 NOA=    40 NOB=    40 NVA=   284 NVB=   284

 **** Warning!!: The largest alpha MO coefficient is  0.15863401D+02

 Leave Link  801 at Sat May 24 03:33:47 2025, MaxMem=  3758096384 cpu:               0.0 elap:               0.0
 (Enter /apps/easybuild-2022/easybuild/software/Compiler/NVHPC/22.11-CUDA-11.7.0/Gaussian/g16c01-CUDA-11.7.0/g16/l1101.exe)
 Leave Link 1101 at Sat May 24 03:33:47 2025, MaxMem=  3758096384 cpu:               0.0 elap:               0.0
 (Enter /apps/easybuild-2022/easybuild/software/Compiler/NVHPC/22.11-CUDA-11.7.0/Gaussian/g16c01-CUDA-11.7.0/g16/l1102.exe)
 Symmetrizing basis deriv contribution to polar:
 IMax=3 JMax=2 DiffMx= 0.00D+00
 Leave Link 1102 at Sat May 24 03:33:47 2025, MaxMem=  3758096384 cpu:               0.1 elap:               0.0
 (Enter /apps/easybuild-2022/easybuild/software/Compiler/NVHPC/22.11-CUDA-11.7.0/Gaussian/g16c01-CUDA-11.7.0/g16/l1110.exe)
 Leave Link 1110 at Sat May 24 03:33:47 2025, MaxMem=  3758096384 cpu:               0.0 elap:               0.0
 (Enter /apps/easybuild-2022/easybuild/software/Compiler/NVHPC/22.11-CUDA-11.7.0/Gaussian/g16c01-CUDA-11.7.0/g16/l1002.exe)
 Minotr:  Closed shell wavefunction.
 Leave Link 1002 at Sat May 24 03:33:47 2025, MaxMem=  3758096384 cpu:               0.0 elap:               0.0
 (Enter /apps/easybuild-2022/easybuild/software/Compiler/NVHPC/22.11-CUDA-11.7.0/Gaussian/g16c01-CUDA-11.7.0/g16/l701.exe)
 ... and contract with generalized density number  0.
 Compute integral first derivatives.
   1 Symmetry operations used in ECPInt.
 ECPInt:  NShTT=    6786 NPrTT=   21959 LenC2=    6482 LenP2D=   15977.
 LDataN:  DoStor=T MaxTD1= 7 Len=  274
 Leave Link  701 at Sat May 24 03:33:47 2025, MaxMem=  3758096384 cpu:               0.6 elap:               0.1
 (Enter /apps/easybuild-2022/easybuild/software/Compiler/NVHPC/22.11-CUDA-11.7.0/Gaussian/g16c01-CUDA-11.7.0/g16/l702.exe)
 L702 exits ... SP integral derivatives will be done elsewhere.
 Leave Link  702 at Sat May 24 03:33:47 2025, MaxMem=  3758096384 cpu:               0.0 elap:               0.0
 (Enter /apps/easybuild-2022/easybuild/software/Compiler/NVHPC/22.11-CUDA-11.7.0/Gaussian/g16c01-CUDA-11.7.0/g16/l703.exe)
 Integral derivatives from FoFJK, PRISM(SPDF).
 Compute integral first derivatives, UseDBF=F ICtDFT=           0.
 Calling FoFJK, ICntrl=      2127 FMM=F ISym2X=0 I1Cent= 0 IOpClX= 0 NMat=1 NMatS=1 NMatT=0.
 FoFJK:  IHMeth= 1 ICntrl=    2127 DoSepK=F KAlg= 0 I1Cent=           0 FoldK=F
 IRaf=         0 NMat=       1 IRICut=       1 DoRegI=T DoRafI=F ISym2E= 0 IDoP0=0 IntGTp=1.
 FoFCou: FMM=F IPFlag=           0 FMFlag=      100000 FMFlg1=         800
         NFxFlg=           0 DoJE=F BraDBF=F KetDBF=F FulRan=T
         wScrn=  0.000000 ICntrl=      2127 IOpCl=  0 I1Cent=           0 NGrid=           0
         NMat0=    1 NMatS0=      1 NMatT0=    0 NMatD0=    1 NMtDS0=    0 NMtDT0=    0
 Symmetry not used in FoFCou.
 Leave Link  703 at Sat May 24 03:33:56 2025, MaxMem=  3758096384 cpu:              72.8 elap:               9.2
 (Enter /apps/easybuild-2022/easybuild/software/Compiler/NVHPC/22.11-CUDA-11.7.0/Gaussian/g16c01-CUDA-11.7.0/g16/l716.exe)
 Dipole        = 4.91124407D-01 1.77219074D-01-3.51481392D-01
 Polarizability= 0.00000000D+00 0.00000000D+00 0.00000000D+00
                 0.00000000D+00 0.00000000D+00 0.00000000D+00
 -------------------------------------------------------------------
 Center     Atomic                   Forces (Hartrees/Bohr)
 Number     Number              X              Y              Z
 -------------------------------------------------------------------
      1        6           0.000120287   -0.004877834    0.001149615
      2        8           0.002089436   -0.000909927   -0.000474335
      3        6           0.000642107    0.002585754    0.000255683
      4        6          -0.000043539    0.000146047    0.000074081
      5        9           0.000037226    0.000003941   -0.000068462
      6        9          -0.000077070    0.000096106   -0.000063628
      7        9          -0.000153012    0.000235985    0.000307136
      8        9          -0.001119210    0.001141289   -0.000330916
      9        9           0.001813537    0.000971357    0.000317944
     10        8          -0.002797981    0.000423018   -0.001136912
     11        1          -0.000511781    0.000184263   -0.000030205
 -------------------------------------------------------------------
 Cartesian Forces:  Max     0.004877834 RMS     0.001285520
 Leave Link  716 at Sat May 24 03:33:56 2025, MaxMem=  3758096384 cpu:               0.0 elap:               0.0
 (Enter /apps/easybuild-2022/easybuild/software/Compiler/NVHPC/22.11-CUDA-11.7.0/Gaussian/g16c01-CUDA-11.7.0/g16/l123.exe)
 IRC-IRC-IRC-IRC-IRC-IRC-IRC-IRC-IRC-IRC-IRC-IRC-IRC-IRC-IRC-IRC-IRC-IRC
 Pt  2 Step number   1 out of a maximum of  20
 Using modified Bulirsch-Stoer corrector integration.
   Using distance weighted interpolants to fit PES.
 PreDWI: IReCr0= 2 IReCr1= 1 IReCr2= 1 IReCr3= 1
 Modified Bulirsch-Stoer Extrapolation Cycles:
    EPS =    0.000010000000000
    Cycle     1 NS=    48
      PEZero:  N= 2 I= 1 D=  2.79D-04 Err=  1.31D-06
    Cycle     2 NS=    64 Truncation Error =  0.000001306
 BS completed in    2 cycles and     112 integration steps.
 Maximum DWI energy   std dev =  0.000000051 at pt    47
 Maximum DWI gradient std dev =  0.005883910 at pt    27
 SUMMARY OF CORRECTOR INTEGRATION:
   Predictor End Point Energy =  -764.495210
   Old End Point Energy       =  -764.495210
   Corrected End Point Energy =  -764.495210
   Predictor End-Start Dist.  =     0.053518
   Old End-Start Dist.        =     0.053518
   New End-Start Dist.        =     0.053518
   New End-Old End Dist.      =     0.000165
 CORRECTOR INTEGRATION CONVERGENCE:
   Recorrection delta-x convergence threshold:    0.010000
   Delta-x Convergence Met
 Point Number:   2          Path Number:   1
                    CURRENT STRUCTURE
                Cartesian Coordinates (Ang):                
 ---------------------------------------------------------------------
 Center     Atomic                     Coordinates (Angstroms)
 Number     Number                        X           Y           Z
 ---------------------------------------------------------------------
      1          6                    1.393893   -1.037698   -0.442351
      2          8                    2.338754   -1.634350   -0.615097
      3          6                   -0.044696    0.053054   -0.611941
      4          6                   -0.668701    0.268795    0.796340
      5          9                   -1.944489   -0.087306    0.768981
      6          9                   -0.048590   -0.455368    1.718753
      7          9                   -0.600464    1.543035    1.131197
      8          9                   -0.393307    1.073377   -1.433967
      9          9                   -0.759835   -0.961279   -1.237124
     10          8                    1.488164    0.761184   -0.259745
     11          1                    1.789859    1.410427   -0.911860
 ---------------------------------------------------------------------
   CHANGE IN THE REACTION COORDINATE =    0.05352
   NET REACTION COORDINATE UP TO THIS POINT =    0.10705
  # OF POINTS ALONG THE PATH =   2
  # OF STEPS =   1

 Calculating another point on the path.
 Point Number  3 in FORWARD path direction.
 Using LQA Reaction Path Following.
   LQA: T_Est iteration completed in    3 iterations.
 IRC-IRC-IRC-IRC-IRC-IRC-IRC-IRC-IRC-IRC-IRC-IRC-IRC-IRC-IRC-IRC-IRC-IRC
 Leave Link  123 at Sat May 24 03:33:56 2025, MaxMem=  3758096384 cpu:               0.1 elap:               0.0
 (Enter /apps/easybuild-2022/easybuild/software/Compiler/NVHPC/22.11-CUDA-11.7.0/Gaussian/g16c01-CUDA-11.7.0/g16/l202.exe)
                          Input orientation:                          
 ---------------------------------------------------------------------
 Center     Atomic      Atomic             Coordinates (Angstroms)
 Number     Number       Type             X           Y           Z
 ---------------------------------------------------------------------
      1          6           0        1.394011   -1.043253   -0.441036
      2          8           0        2.340555   -1.635135   -0.615506
      3          6           0       -0.043962    0.055998   -0.611644
      4          6           0       -0.668749    0.268963    0.796426
      5          9           0       -1.944464   -0.087303    0.768932
      6          9           0       -0.048646   -0.455298    1.718706
      7          9           0       -0.600574    1.543205    1.131418
      8          9           0       -0.394115    1.074201   -1.434206
      9          9           0       -0.758530   -0.960579   -1.236896
     10          8           0        1.485765    0.761530   -0.260704
     11          1           0        1.783048    1.413174   -0.912513
 ---------------------------------------------------------------------
                    Distance matrix (angstroms):
                    1          2          3          4          5
     1  C    0.000000
     2  O    1.129916   0.000000
     3  C    1.818028   2.923332   0.000000
     4  C    2.740110   3.830804   1.555112   0.000000
     5  F    3.677401   4.761706   2.353388   1.324813   0.000000
     6  F    2.662975   3.542435   2.385786   1.326530   2.152119
     7  F    3.625017   4.669458   2.357937   1.319303   2.143826
     8  F    2.944044   3.935631   1.354973   2.387373   2.933683
     9  F    2.296446   3.231947   1.391035   2.377863   2.488453
    10  O    1.816089   2.569155   1.720755   2.449914   3.680643
    11  H    2.531338   3.113072   2.295738   3.200157   4.355805
                    6          7          8          9         10
     6  F    0.000000
     7  F    2.154889   0.000000
     8  F    3.521303   2.616298   0.000000
     9  F    3.081369   3.450043   2.076551   0.000000
    10  O    2.784448   2.627133   2.238039   2.992570   0.000000
    11  H    3.710742   3.142645   2.264312   3.492786   0.968438
                   11
    11  H    0.000000
 Symmetry turned off by external request.
 Stoichiometry    C3HF5O2
 Rotational constants (GHZ):           1.8708312           1.1581338           1.0833864
 Leave Link  202 at Sat May 24 03:33:56 2025, MaxMem=  3758096384 cpu:               0.0 elap:               0.0
 (Enter /apps/easybuild-2022/easybuild/software/Compiler/NVHPC/22.11-CUDA-11.7.0/Gaussian/g16c01-CUDA-11.7.0/g16/l301.exe)
 Standard basis: def2TZVPP (5D, 7F)
 Ernie: Thresh=  0.10000D-02 Tol=  0.10000D-05 Strict=F.
   324 basis functions,   527 primitive gaussians,   375 cartesian basis functions
    40 alpha electrons       40 beta electrons
       nuclear repulsion energy       635.5100393623 Hartrees.
 IExCor= 4336 DFT=T Ex+Corr=M062X ExCW=0 ScaHFX=  0.540000
 ScaDFX=  1.000000  1.000000  1.000000  1.000000 ScalE2=  1.000000  1.000000
 IRadAn=      5 IRanWt=     -1 IRanGd=            0 ICorTp=0 IEmpDi=  4
 NAtoms=   11 NActive=   11 NUniq=   11 SFac= 1.00D+00 NAtFMM=   60 NAOKFM=F Big=F
 Integral buffers will be    131072 words long.
 Raffenetti 2 integral format.
 Two-electron integral symmetry is turned off.
 Leave Link  301 at Sat May 24 03:33:57 2025, MaxMem=  3758096384 cpu:               0.0 elap:               0.0
 (Enter /apps/easybuild-2022/easybuild/software/Compiler/NVHPC/22.11-CUDA-11.7.0/Gaussian/g16c01-CUDA-11.7.0/g16/l302.exe)
 NPDir=0 NMtPBC=     1 NCelOv=     1 NCel=       1 NClECP=     1 NCelD=      1
         NCelK=      1 NCelE2=     1 NClLst=     1 CellRange=     0.0.
 One-electron integrals computed using PRISM.
   1 Symmetry operations used in ECPInt.
 ECPInt:  NShTT=    6786 NPrTT=   21959 LenC2=    6482 LenP2D=   15980.
 LDataN:  DoStor=T MaxTD1= 6 Len=  172
 NBasis=   324 RedAO= T EigKep=  2.36D-04  NBF=   324
 NBsUse=   324 1.00D-06 EigRej= -1.00D+00 NBFU=   324
 Precomputing XC quadrature grid using
 IXCGrd= 4 IRadAn=           5 IRanWt=          -1 IRanGd=           0 AccXCQ= 0.00D+00.
 Generated NRdTot=       0 NPtTot=           0 NUsed=           0 NTot=          32
 NSgBfM=   373   373   373   373   373 MxSgAt=    11 MxSgA2=    11.
 Leave Link  302 at Sat May 24 03:33:57 2025, MaxMem=  3758096384 cpu:               0.6 elap:               0.1
 (Enter /apps/easybuild-2022/easybuild/software/Compiler/NVHPC/22.11-CUDA-11.7.0/Gaussian/g16c01-CUDA-11.7.0/g16/l303.exe)
 DipDrv:  MaxL=1.
 Leave Link  303 at Sat May 24 03:33:57 2025, MaxMem=  3758096384 cpu:               0.1 elap:               0.0
 (Enter /apps/easybuild-2022/easybuild/software/Compiler/NVHPC/22.11-CUDA-11.7.0/Gaussian/g16c01-CUDA-11.7.0/g16/l401.exe)
 Initial guess from the checkpoint file:  "1642764945472630600001_r12_insertion_R_10_1_3_IRC_F.chk"
 B after Tr=    -0.000084    0.000009   -0.000008
         Rot=    1.000000    0.000006   -0.000011   -0.000018 Ang=   0.00 deg.
 Guess basis will be translated and rotated to current coordinates.
 JPrj=2 DoOrth=T DoCkMO=T.
 Generating alternative initial guess.
 ExpMin= 9.52D-02 ExpMax= 3.55D+04 ExpMxC= 1.21D+03 IAcc=3 IRadAn=         5 AccDes= 0.00D+00
 Harris functional with IExCor= 1009 and IRadAn=       5 diagonalized for initial guess.
 HarFok:  IExCor= 1009 AccDes= 0.00D+00 IRadAn=         5 IDoV= 1 UseB2=F ITyADJ=14
 ICtDFT=  3500011 ScaDFX=  1.000000  1.000000  1.000000  1.000000
 FoFCou: FMM=F IPFlag=           0 FMFlag=      100000 FMFlg1=           0
         NFxFlg=           0 DoJE=T BraDBF=F KetDBF=T FulRan=T
         wScrn=  0.000000 ICntrl=       500 IOpCl=  0 I1Cent=   200000004 NGrid=           0
         NMat0=    1 NMatS0=      1 NMatT0=    0 NMatD0=    1 NMtDS0=    0 NMtDT0=    0
 Symmetry not used in FoFCou.
 Harris En= -764.046178064402    
 Leave Link  401 at Sat May 24 03:33:57 2025, MaxMem=  3758096384 cpu:               3.4 elap:               0.5
 (Enter /apps/easybuild-2022/easybuild/software/Compiler/NVHPC/22.11-CUDA-11.7.0/Gaussian/g16c01-CUDA-11.7.0/g16/l502.exe)
 Keep R1 ints in memory in canonical form, NReq=1412617130.
 FoFCou: FMM=F IPFlag=           0 FMFlag=           0 FMFlg1=           0
         NFxFlg=           0 DoJE=F BraDBF=F KetDBF=F FulRan=T
         wScrn=  0.000000 ICntrl=       600 IOpCl=  0 I1Cent=           0 NGrid=           0
         NMat0=    1 NMatS0=  52650 NMatT0=    0 NMatD0=    1 NMtDS0=    0 NMtDT0=    0
 Symmetry not used in FoFCou.
 Two-electron integral symmetry not used.
 Closed shell SCF:
 Using DIIS extrapolation, IDIIS=  1040.
 NGot=  3758096384 LenX=  2371771924 LenY=  2371630858
 Requested convergence on RMS density matrix=1.00D-08 within  32 cycles.
 Requested convergence on MAX density matrix=1.00D-06.
 Requested convergence on             energy=1.00D-06.
 No special actions if energy rises.
 Integral accuracy reduced to 1.0D-05 until final iterations.

 Cycle   1  Pass 0  IDiag  1:
 E= -764.495315967514    
 DIIS: error= 1.83D-04 at cycle   1 NSaved=   1.
 NSaved= 1 IEnMin= 1 EnMin= -764.495315967514     IErMin= 1 ErrMin= 1.83D-04
 ErrMax= 1.83D-04  0.00D+00 EMaxC= 1.00D-01 BMatC= 3.58D-05 BMatP= 3.58D-05
 IDIUse=3 WtCom= 9.98D-01 WtEn= 1.83D-03
 Coeff-Com:  0.100D+01
 Coeff-En:   0.100D+01
 Coeff:      0.100D+01
 Gap=     1.117 Goal=   None    Shift=    0.000
 RMSDP=2.93D-05 MaxDP=8.52D-04              OVMax= 4.56D-03

 Cycle   2  Pass 0  IDiag  1:
 E= -764.495376278511     Delta-E=       -0.000060310997 Rises=F Damp=F
 DIIS: error= 6.56D-05 at cycle   2 NSaved=   2.
 NSaved= 2 IEnMin= 2 EnMin= -764.495376278511     IErMin= 2 ErrMin= 6.56D-05
 ErrMax= 6.56D-05  0.00D+00 EMaxC= 1.00D-01 BMatC= 3.21D-06 BMatP= 3.58D-05
 IDIUse=1 WtCom= 1.00D+00 WtEn= 0.00D+00
 Coeff-Com: -0.443D-01 0.104D+01
 Coeff:     -0.443D-01 0.104D+01
 Gap=     0.333 Goal=   None    Shift=    0.000
 RMSDP=1.04D-05 MaxDP=4.02D-04 DE=-6.03D-05 OVMax= 1.84D-03

 Cycle   3  Pass 0  IDiag  1:
 E= -764.495382666316     Delta-E=       -0.000006387805 Rises=F Damp=F
 DIIS: error= 5.76D-05 at cycle   3 NSaved=   3.
 NSaved= 3 IEnMin= 3 EnMin= -764.495382666316     IErMin= 3 ErrMin= 5.76D-05
 ErrMax= 5.76D-05  0.00D+00 EMaxC= 1.00D-01 BMatC= 2.64D-06 BMatP= 3.21D-06
 IDIUse=1 WtCom= 1.00D+00 WtEn= 0.00D+00
 Coeff-Com: -0.931D-01 0.530D+00 0.563D+00
 Coeff:     -0.931D-01 0.530D+00 0.563D+00
 Gap=     0.333 Goal=   None    Shift=    0.000
 RMSDP=4.30D-06 MaxDP=1.79D-04 DE=-6.39D-06 OVMax= 7.39D-04

 Initial convergence to 1.0D-05 achieved.  Increase integral accuracy.
 Cycle   4  Pass 1  IDiag  1:
 E= -764.495346421582     Delta-E=        0.000036244734 Rises=F Damp=F
 DIIS: error= 4.12D-05 at cycle   1 NSaved=   1.
 NSaved= 1 IEnMin= 1 EnMin= -764.495346421582     IErMin= 1 ErrMin= 4.12D-05
 ErrMax= 4.12D-05  0.00D+00 EMaxC= 1.00D-01 BMatC= 1.17D-06 BMatP= 1.17D-06
 IDIUse=1 WtCom= 1.00D+00 WtEn= 0.00D+00
 Coeff-Com:  0.100D+01
 Coeff:      0.100D+01
 Gap=     0.333 Goal=   None    Shift=    0.000
 RMSDP=4.30D-06 MaxDP=1.79D-04 DE= 3.62D-05 OVMax= 5.67D-04

 Cycle   5  Pass 1  IDiag  1:
 E= -764.495347260068     Delta-E=       -0.000000838486 Rises=F Damp=F
 DIIS: error= 3.88D-05 at cycle   2 NSaved=   2.
 NSaved= 2 IEnMin= 2 EnMin= -764.495347260068     IErMin= 2 ErrMin= 3.88D-05
 ErrMax= 3.88D-05  0.00D+00 EMaxC= 1.00D-01 BMatC= 6.31D-07 BMatP= 1.17D-06
 IDIUse=1 WtCom= 1.00D+00 WtEn= 0.00D+00
 Coeff-Com:  0.384D+00 0.616D+00
 Coeff:      0.384D+00 0.616D+00
 Gap=     0.333 Goal=   None    Shift=    0.000
 RMSDP=2.23D-06 MaxDP=1.27D-04 DE=-8.38D-07 OVMax= 2.60D-04

 Cycle   6  Pass 1  IDiag  1:
 E= -764.495347555867     Delta-E=       -0.000000295800 Rises=F Damp=F
 DIIS: error= 2.28D-05 at cycle   3 NSaved=   3.
 NSaved= 3 IEnMin= 3 EnMin= -764.495347555867     IErMin= 3 ErrMin= 2.28D-05
 ErrMax= 2.28D-05  0.00D+00 EMaxC= 1.00D-01 BMatC= 2.70D-07 BMatP= 6.31D-07
 IDIUse=1 WtCom= 1.00D+00 WtEn= 0.00D+00
 Coeff-Com: -0.539D-01 0.395D+00 0.659D+00
 Coeff:     -0.539D-01 0.395D+00 0.659D+00
 Gap=     0.333 Goal=   None    Shift=    0.000
 RMSDP=1.17D-06 MaxDP=5.56D-05 DE=-2.96D-07 OVMax= 1.75D-04

 Cycle   7  Pass 1  IDiag  1:
 E= -764.495347766309     Delta-E=       -0.000000210442 Rises=F Damp=F
 DIIS: error= 2.49D-06 at cycle   4 NSaved=   4.
 NSaved= 4 IEnMin= 4 EnMin= -764.495347766309     IErMin= 4 ErrMin= 2.49D-06
 ErrMax= 2.49D-06  0.00D+00 EMaxC= 1.00D-01 BMatC= 8.04D-09 BMatP= 2.70D-07
 IDIUse=1 WtCom= 1.00D+00 WtEn= 0.00D+00
 Coeff-Com: -0.306D-01 0.129D+00 0.245D+00 0.657D+00
 Coeff:     -0.306D-01 0.129D+00 0.245D+00 0.657D+00
 Gap=     0.333 Goal=   None    Shift=    0.000
 RMSDP=3.31D-07 MaxDP=1.20D-05 DE=-2.10D-07 OVMax= 6.01D-05

 Cycle   8  Pass 1  IDiag  1:
 E= -764.495347776652     Delta-E=       -0.000000010343 Rises=F Damp=F
 DIIS: error= 2.07D-06 at cycle   5 NSaved=   5.
 NSaved= 5 IEnMin= 5 EnMin= -764.495347776652     IErMin= 5 ErrMin= 2.07D-06
 ErrMax= 2.07D-06  0.00D+00 EMaxC= 1.00D-01 BMatC= 2.53D-09 BMatP= 8.04D-09
 IDIUse=1 WtCom= 1.00D+00 WtEn= 0.00D+00
 Coeff-Com:  0.834D-02-0.120D+00-0.188D+00 0.319D+00 0.981D+00
 Coeff:      0.834D-02-0.120D+00-0.188D+00 0.319D+00 0.981D+00
 Gap=     0.333 Goal=   None    Shift=    0.000
 RMSDP=3.81D-07 MaxDP=1.53D-05 DE=-1.03D-08 OVMax= 7.65D-05

 Cycle   9  Pass 1  IDiag  1:
 E= -764.495347782347     Delta-E=       -0.000000005695 Rises=F Damp=F
 DIIS: error= 4.58D-07 at cycle   6 NSaved=   6.
 NSaved= 6 IEnMin= 6 EnMin= -764.495347782347     IErMin= 6 ErrMin= 4.58D-07
 ErrMax= 4.58D-07  0.00D+00 EMaxC= 1.00D-01 BMatC= 2.56D-10 BMatP= 2.53D-09
 IDIUse=1 WtCom= 1.00D+00 WtEn= 0.00D+00
 Coeff-Com:  0.572D-02-0.622D-01-0.986D-01 0.111D+00 0.429D+00 0.616D+00
 Coeff:      0.572D-02-0.622D-01-0.986D-01 0.111D+00 0.429D+00 0.616D+00
 Gap=     0.333 Goal=   None    Shift=    0.000
 RMSDP=6.30D-08 MaxDP=2.20D-06 DE=-5.70D-09 OVMax= 1.21D-05

 Cycle  10  Pass 1  IDiag  1:
 E= -764.495347782612     Delta-E=       -0.000000000265 Rises=F Damp=F
 DIIS: error= 2.72D-07 at cycle   7 NSaved=   7.
 NSaved= 7 IEnMin= 7 EnMin= -764.495347782612     IErMin= 7 ErrMin= 2.72D-07
 ErrMax= 2.72D-07  0.00D+00 EMaxC= 1.00D-01 BMatC= 6.01D-11 BMatP= 2.56D-10
 IDIUse=1 WtCom= 1.00D+00 WtEn= 0.00D+00
 Coeff-Com:  0.948D-03-0.300D-02-0.516D-02-0.244D-01-0.431D-01 0.311D+00
 Coeff-Com:  0.763D+00
 Coeff:      0.948D-03-0.300D-02-0.516D-02-0.244D-01-0.431D-01 0.311D+00
 Coeff:      0.763D+00
 Gap=     0.333 Goal=   None    Shift=    0.000
 RMSDP=3.67D-08 MaxDP=1.31D-06 DE=-2.65D-10 OVMax= 6.55D-06

 Cycle  11  Pass 1  IDiag  1:
 E= -764.495347782671     Delta-E=       -0.000000000059 Rises=F Damp=F
 DIIS: error= 5.55D-08 at cycle   8 NSaved=   8.
 NSaved= 8 IEnMin= 8 EnMin= -764.495347782671     IErMin= 8 ErrMin= 5.55D-08
 ErrMax= 5.55D-08  0.00D+00 EMaxC= 1.00D-01 BMatC= 2.97D-12 BMatP= 6.01D-11
 IDIUse=1 WtCom= 1.00D+00 WtEn= 0.00D+00
 Coeff-Com: -0.218D-03 0.523D-02 0.789D-02-0.161D-01-0.516D-01 0.356D-01
 Coeff-Com:  0.242D+00 0.778D+00
 Coeff:     -0.218D-03 0.523D-02 0.789D-02-0.161D-01-0.516D-01 0.356D-01
 Coeff:      0.242D+00 0.778D+00
 Gap=     0.333 Goal=   None    Shift=    0.000
 RMSDP=8.14D-09 MaxDP=3.28D-07 DE=-5.87D-11 OVMax= 1.20D-06

 SCF Done:  E(RM062X) =  -764.495347783     A.U. after   11 cycles
            NFock= 11  Conv=0.81D-08     -V/T= 2.0036
 KE= 7.617399530864D+02 PE=-3.083713338032D+03 EE= 9.219679978008D+02
 Leave Link  502 at Sat May 24 03:34:20 2025, MaxMem=  3758096384 cpu:             106.5 elap:              22.6
 (Enter /apps/easybuild-2022/easybuild/software/Compiler/NVHPC/22.11-CUDA-11.7.0/Gaussian/g16c01-CUDA-11.7.0/g16/l508.exe)
 QCSCF skips out because SCF is already converged.
 Leave Link  508 at Sat May 24 03:34:20 2025, MaxMem=  3758096384 cpu:               0.0 elap:               0.0
 (Enter /apps/easybuild-2022/easybuild/software/Compiler/NVHPC/22.11-CUDA-11.7.0/Gaussian/g16c01-CUDA-11.7.0/g16/l801.exe)
 DoSCS=F DFT=T ScalE2(SS,OS)=  1.000000  1.000000
 Range of M.O.s used for correlation:     1   324
 NBasis=   324 NAE=    40 NBE=    40 NFC=     0 NFV=     0
 NROrb=    324 NOA=    40 NOB=    40 NVA=   284 NVB=   284

 **** Warning!!: The largest alpha MO coefficient is  0.15824726D+02

 Leave Link  801 at Sat May 24 03:34:20 2025, MaxMem=  3758096384 cpu:               0.0 elap:               0.0
 (Enter /apps/easybuild-2022/easybuild/software/Compiler/NVHPC/22.11-CUDA-11.7.0/Gaussian/g16c01-CUDA-11.7.0/g16/l1101.exe)
 Leave Link 1101 at Sat May 24 03:34:20 2025, MaxMem=  3758096384 cpu:               0.0 elap:               0.0
 (Enter /apps/easybuild-2022/easybuild/software/Compiler/NVHPC/22.11-CUDA-11.7.0/Gaussian/g16c01-CUDA-11.7.0/g16/l1102.exe)
 Symmetrizing basis deriv contribution to polar:
 IMax=3 JMax=2 DiffMx= 0.00D+00
 Leave Link 1102 at Sat May 24 03:34:20 2025, MaxMem=  3758096384 cpu:               0.1 elap:               0.0
 (Enter /apps/easybuild-2022/easybuild/software/Compiler/NVHPC/22.11-CUDA-11.7.0/Gaussian/g16c01-CUDA-11.7.0/g16/l1110.exe)
 Leave Link 1110 at Sat May 24 03:34:20 2025, MaxMem=  3758096384 cpu:               0.0 elap:               0.0
 (Enter /apps/easybuild-2022/easybuild/software/Compiler/NVHPC/22.11-CUDA-11.7.0/Gaussian/g16c01-CUDA-11.7.0/g16/l1002.exe)
 Minotr:  Closed shell wavefunction.
 Leave Link 1002 at Sat May 24 03:34:20 2025, MaxMem=  3758096384 cpu:               0.0 elap:               0.0
 (Enter /apps/easybuild-2022/easybuild/software/Compiler/NVHPC/22.11-CUDA-11.7.0/Gaussian/g16c01-CUDA-11.7.0/g16/l701.exe)
 ... and contract with generalized density number  0.
 Compute integral first derivatives.
   1 Symmetry operations used in ECPInt.
 ECPInt:  NShTT=    6786 NPrTT=   21959 LenC2=    6482 LenP2D=   15980.
 LDataN:  DoStor=T MaxTD1= 7 Len=  274
 Leave Link  701 at Sat May 24 03:34:20 2025, MaxMem=  3758096384 cpu:               0.5 elap:               0.1
 (Enter /apps/easybuild-2022/easybuild/software/Compiler/NVHPC/22.11-CUDA-11.7.0/Gaussian/g16c01-CUDA-11.7.0/g16/l702.exe)
 L702 exits ... SP integral derivatives will be done elsewhere.
 Leave Link  702 at Sat May 24 03:34:20 2025, MaxMem=  3758096384 cpu:               0.0 elap:               0.0
 (Enter /apps/easybuild-2022/easybuild/software/Compiler/NVHPC/22.11-CUDA-11.7.0/Gaussian/g16c01-CUDA-11.7.0/g16/l703.exe)
 Integral derivatives from FoFJK, PRISM(SPDF).
 Compute integral first derivatives, UseDBF=F ICtDFT=           0.
 Calling FoFJK, ICntrl=      2127 FMM=F ISym2X=0 I1Cent= 0 IOpClX= 0 NMat=1 NMatS=1 NMatT=0.
 FoFJK:  IHMeth= 1 ICntrl=    2127 DoSepK=F KAlg= 0 I1Cent=           0 FoldK=F
 IRaf=         0 NMat=       1 IRICut=       1 DoRegI=T DoRafI=F ISym2E= 0 IDoP0=0 IntGTp=1.
 FoFCou: FMM=F IPFlag=           0 FMFlag=      100000 FMFlg1=         800
         NFxFlg=           0 DoJE=F BraDBF=F KetDBF=F FulRan=T
         wScrn=  0.000000 ICntrl=      2127 IOpCl=  0 I1Cent=           0 NGrid=           0
         NMat0=    1 NMatS0=      1 NMatT0=    0 NMatD0=    1 NMtDS0=    0 NMtDT0=    0
 Symmetry not used in FoFCou.
 Leave Link  703 at Sat May 24 03:34:29 2025, MaxMem=  3758096384 cpu:              72.3 elap:               9.1
 (Enter /apps/easybuild-2022/easybuild/software/Compiler/NVHPC/22.11-CUDA-11.7.0/Gaussian/g16c01-CUDA-11.7.0/g16/l716.exe)
 Dipole        = 4.91164104D-01 1.80218649D-01-3.51596783D-01
 Polarizability= 0.00000000D+00 0.00000000D+00 0.00000000D+00
                 0.00000000D+00 0.00000000D+00 0.00000000D+00
 -------------------------------------------------------------------
 Center     Atomic                   Forces (Hartrees/Bohr)
 Number     Number              X              Y              Z
 -------------------------------------------------------------------
      1        6           0.000192686   -0.007235843    0.001729541
      2        8           0.003121310   -0.001358961   -0.000716490
      3        6           0.000935926    0.003847320    0.000376233
      4        6          -0.000068544    0.000219682    0.000108991
      5        9           0.000051509    0.000005246   -0.000099816
      6        9          -0.000115055    0.000145440   -0.000099432
      7        9          -0.000230241    0.000354252    0.000462520
      8        9          -0.001673461    0.001711648   -0.000491171
      9        9           0.002714967    0.001451931    0.000478558
     10        8          -0.004174632    0.000582900   -0.001695535
     11        1          -0.000754465    0.000276384   -0.000053398
 -------------------------------------------------------------------
 Cartesian Forces:  Max     0.007235843 RMS     0.001913211
 Leave Link  716 at Sat May 24 03:34:29 2025, MaxMem=  3758096384 cpu:               0.0 elap:               0.0
 (Enter /apps/easybuild-2022/easybuild/software/Compiler/NVHPC/22.11-CUDA-11.7.0/Gaussian/g16c01-CUDA-11.7.0/g16/l123.exe)
 IRC-IRC-IRC-IRC-IRC-IRC-IRC-IRC-IRC-IRC-IRC-IRC-IRC-IRC-IRC-IRC-IRC-IRC
 Pt  3 Step number   1 out of a maximum of  20
 Using modified Bulirsch-Stoer corrector integration.
   Using distance weighted interpolants to fit PES.
 PreDWI: IReCr0= 2 IReCr1= 1 IReCr2= 1 IReCr3= 1
 Modified Bulirsch-Stoer Extrapolation Cycles:
    EPS =    0.000010000000000
    Cycle     1 NS=    48
      PEZero:  N= 2 I= 1 D=  2.79D-04 Err=  1.37D-06
    Cycle     2 NS=    64 Truncation Error =  0.000001371
 BS completed in    2 cycles and     112 integration steps.
 Maximum DWI energy   std dev =  0.000000057 at pt    47
 Maximum DWI gradient std dev =  0.003681855 at pt    28
 SUMMARY OF CORRECTOR INTEGRATION:
   Predictor End Point Energy =  -764.495348
   Old End Point Energy       =  -764.495348
   Corrected End Point Energy =  -764.495348
   Predictor End-Start Dist.  =     0.053521
   Old End-Start Dist.        =     0.053521
   New End-Start Dist.        =     0.053521
   New End-Old End Dist.      =     0.000117
 CORRECTOR INTEGRATION CONVERGENCE:
   Recorrection delta-x convergence threshold:    0.010000
   Delta-x Convergence Met
 Point Number:   3          Path Number:   1
                    CURRENT STRUCTURE
                Cartesian Coordinates (Ang):                
 ---------------------------------------------------------------------
 Center     Atomic                     Coordinates (Angstroms)
 Number     Number                        X           Y           Z
 ---------------------------------------------------------------------
      1          6                    1.394019   -1.043250   -0.441032
      2          8                    2.340554   -1.635135   -0.615508
      3          6                   -0.043967    0.056000   -0.611647
      4          6                   -0.668751    0.268963    0.796425
      5          9                   -1.944464   -0.087303    0.768932
      6          9                   -0.048646   -0.455297    1.718706
      7          9                   -0.600575    1.543206    1.131419
      8          9                   -0.394116    1.074203   -1.434206
      9          9                   -0.758527   -0.960578   -1.236895
     10          8                    1.485763    0.761524   -0.260706
     11          1                    1.783043    1.413143   -0.912502
 ---------------------------------------------------------------------
   CHANGE IN THE REACTION COORDINATE =    0.05352
   NET REACTION COORDINATE UP TO THIS POINT =    0.16058
  # OF POINTS ALONG THE PATH =   3
  # OF STEPS =   1

 Calculating another point on the path.
 Point Number  4 in FORWARD path direction.
 Using LQA Reaction Path Following.
   LQA: T_Est iteration completed in    3 iterations.
 IRC-IRC-IRC-IRC-IRC-IRC-IRC-IRC-IRC-IRC-IRC-IRC-IRC-IRC-IRC-IRC-IRC-IRC
 Leave Link  123 at Sat May 24 03:34:29 2025, MaxMem=  3758096384 cpu:               0.1 elap:               0.0
 (Enter /apps/easybuild-2022/easybuild/software/Compiler/NVHPC/22.11-CUDA-11.7.0/Gaussian/g16c01-CUDA-11.7.0/g16/l202.exe)
                          Input orientation:                          
 ---------------------------------------------------------------------
 Center     Atomic      Atomic             Coordinates (Angstroms)
 Number     Number       Type             X           Y           Z
 ---------------------------------------------------------------------
      1          6           0        1.394159   -1.048791   -0.439701
      2          8           0        2.342359   -1.635921   -0.615922
      3          6           0       -0.043251    0.058949   -0.611357
      4          6           0       -0.668803    0.269132    0.796509
      5          9           0       -1.944440   -0.087301    0.768884
      6          9           0       -0.048702   -0.455226    1.718657
      7          9           0       -0.600687    1.543377    1.131643
      8          9           0       -0.394928    1.075034   -1.434444
      9          9           0       -0.757211   -0.959875   -1.236663
     10          8           0        1.483356    0.761845   -0.261673
     11          1           0        1.776245    1.415821   -0.913154
 ---------------------------------------------------------------------
                    Distance matrix (angstroms):
                    1          2          3          4          5
     1  C    0.000000
     2  O    1.129096   0.000000
     3  C    1.822828   2.926387   0.000000
     4  C    2.742435   3.832921   1.554856   0.000000
     5  F    3.678503   4.763671   2.353927   1.324786   0.000000
     6  F    2.663207   3.544216   2.386078   1.326491   2.152036
     7  F    3.628756   4.671556   2.356334   1.319339   2.143917
     8  F    2.949742   3.938527   1.354097   2.387810   2.933712
     9  F    2.295964   3.232598   1.392389   2.377407   2.488598
    10  O    1.821552   2.571509   1.716646   2.448327   3.678707
    11  H    2.538594   3.118006   2.289705   3.196264   4.351106
                    6          7          8          9         10
     6  F    0.000000
     7  F    2.154922   0.000000
     8  F    3.521876   2.616579   0.000000
     9  F    3.080677   3.449586   2.076348   0.000000
    10  O    2.783913   2.625902   2.236388   2.989158   0.000000
    11  H    3.709134   3.138036   2.258732   3.488121   0.968450
                   11
    11  H    0.000000
 Symmetry turned off by external request.
 Stoichiometry    C3HF5O2
 Rotational constants (GHZ):           1.8709220           1.1577484           1.0827556
 Leave Link  202 at Sat May 24 03:34:29 2025, MaxMem=  3758096384 cpu:               0.0 elap:               0.0
 (Enter /apps/easybuild-2022/easybuild/software/Compiler/NVHPC/22.11-CUDA-11.7.0/Gaussian/g16c01-CUDA-11.7.0/g16/l301.exe)
 Standard basis: def2TZVPP (5D, 7F)
 Ernie: Thresh=  0.10000D-02 Tol=  0.10000D-05 Strict=F.
   324 basis functions,   527 primitive gaussians,   375 cartesian basis functions
    40 alpha electrons       40 beta electrons
       nuclear repulsion energy       635.4726424727 Hartrees.
 IExCor= 4336 DFT=T Ex+Corr=M062X ExCW=0 ScaHFX=  0.540000
 ScaDFX=  1.000000  1.000000  1.000000  1.000000 ScalE2=  1.000000  1.000000
 IRadAn=      5 IRanWt=     -1 IRanGd=            0 ICorTp=0 IEmpDi=  4
 NAtoms=   11 NActive=   11 NUniq=   11 SFac= 1.00D+00 NAtFMM=   60 NAOKFM=F Big=F
 Integral buffers will be    131072 words long.
 Raffenetti 2 integral format.
 Two-electron integral symmetry is turned off.
 Leave Link  301 at Sat May 24 03:34:29 2025, MaxMem=  3758096384 cpu:               0.0 elap:               0.0
 (Enter /apps/easybuild-2022/easybuild/software/Compiler/NVHPC/22.11-CUDA-11.7.0/Gaussian/g16c01-CUDA-11.7.0/g16/l302.exe)
 NPDir=0 NMtPBC=     1 NCelOv=     1 NCel=       1 NClECP=     1 NCelD=      1
         NCelK=      1 NCelE2=     1 NClLst=     1 CellRange=     0.0.
 One-electron integrals computed using PRISM.
   1 Symmetry operations used in ECPInt.
 ECPInt:  NShTT=    6786 NPrTT=   21959 LenC2=    6483 LenP2D=   15980.
 LDataN:  DoStor=T MaxTD1= 6 Len=  172
 NBasis=   324 RedAO= T EigKep=  2.36D-04  NBF=   324
 NBsUse=   324 1.00D-06 EigRej= -1.00D+00 NBFU=   324
 Precomputing XC quadrature grid using
 IXCGrd= 4 IRadAn=           5 IRanWt=          -1 IRanGd=           0 AccXCQ= 0.00D+00.
 Generated NRdTot=       0 NPtTot=           0 NUsed=           0 NTot=          32
 NSgBfM=   373   373   373   373   373 MxSgAt=    11 MxSgA2=    11.
 Leave Link  302 at Sat May 24 03:34:30 2025, MaxMem=  3758096384 cpu:               0.6 elap:               0.1
 (Enter /apps/easybuild-2022/easybuild/software/Compiler/NVHPC/22.11-CUDA-11.7.0/Gaussian/g16c01-CUDA-11.7.0/g16/l303.exe)
 DipDrv:  MaxL=1.
 Leave Link  303 at Sat May 24 03:34:30 2025, MaxMem=  3758096384 cpu:               0.1 elap:               0.0
 (Enter /apps/easybuild-2022/easybuild/software/Compiler/NVHPC/22.11-CUDA-11.7.0/Gaussian/g16c01-CUDA-11.7.0/g16/l401.exe)
 Initial guess from the checkpoint file:  "1642764945472630600001_r12_insertion_R_10_1_3_IRC_F.chk"
 B after Tr=    -0.000083    0.000008   -0.000008
         Rot=    1.000000    0.000006   -0.000011   -0.000018 Ang=   0.00 deg.
 Guess basis will be translated and rotated to current coordinates.
 JPrj=2 DoOrth=T DoCkMO=T.
 Generating alternative initial guess.
 ExpMin= 9.52D-02 ExpMax= 3.55D+04 ExpMxC= 1.21D+03 IAcc=3 IRadAn=         5 AccDes= 0.00D+00
 Harris functional with IExCor= 1009 and IRadAn=       5 diagonalized for initial guess.
[...]

 Cycle   4  Pass 1  IDiag  1:
 E= -764.600915974248     Delta-E=       -0.000000228838 Rises=F Damp=F
 DIIS: error= 5.77D-05 at cycle   2 NSaved=   2.
 NSaved= 2 IEnMin= 2 EnMin= -764.600915974248     IErMin= 1 ErrMin= 3.93D-05
 ErrMax= 5.77D-05  0.00D+00 EMaxC= 1.00D-01 BMatC= 9.20D-07 BMatP= 1.07D-06
 IDIUse=1 WtCom= 1.00D+00 WtEn= 0.00D+00
 Coeff-Com:  0.476D+00 0.524D+00
 Coeff:      0.476D+00 0.524D+00
 Gap=     0.438 Goal=   None    Shift=    0.000
 RMSDP=1.67D-06 MaxDP=1.13D-04 DE=-2.29D-07 OVMax= 2.18D-04

 Cycle   5  Pass 1  IDiag  1:
 E= -764.600916507295     Delta-E=       -0.000000533048 Rises=F Damp=F
 DIIS: error= 2.13D-05 at cycle   3 NSaved=   3.
 NSaved= 3 IEnMin= 3 EnMin= -764.600916507295     IErMin= 3 ErrMin= 2.13D-05
 ErrMax= 2.13D-05  0.00D+00 EMaxC= 1.00D-01 BMatC= 1.06D-07 BMatP= 9.20D-07
 IDIUse=1 WtCom= 1.00D+00 WtEn= 0.00D+00
 Coeff-Com: -0.373D-02 0.243D+00 0.761D+00
 Coeff:     -0.373D-02 0.243D+00 0.761D+00
 Gap=     0.438 Goal=   None    Shift=    0.000
 RMSDP=7.14D-07 MaxDP=3.95D-05 DE=-5.33D-07 OVMax= 6.85D-05

 Cycle   6  Pass 1  IDiag  1:
 E= -764.600916575225     Delta-E=       -0.000000067929 Rises=F Damp=F
 DIIS: error= 3.82D-06 at cycle   4 NSaved=   4.
 NSaved= 4 IEnMin= 4 EnMin= -764.600916575225     IErMin= 4 ErrMin= 3.82D-06
 ErrMax= 3.82D-06  0.00D+00 EMaxC= 1.00D-01 BMatC= 1.10D-08 BMatP= 1.06D-07
 IDIUse=1 WtCom= 1.00D+00 WtEn= 0.00D+00
 Coeff-Com: -0.255D-01 0.102D+00 0.403D+00 0.521D+00
 Coeff:     -0.255D-01 0.102D+00 0.403D+00 0.521D+00
 Gap=     0.438 Goal=   None    Shift=    0.000
 RMSDP=1.78D-07 MaxDP=9.34D-06 DE=-6.79D-08 OVMax= 1.64D-05

 Cycle   7  Pass 1  IDiag  1:
 E= -764.600916582240     Delta-E=       -0.000000007015 Rises=F Damp=F
 DIIS: error= 7.10D-07 at cycle   5 NSaved=   5.
 NSaved= 5 IEnMin= 5 EnMin= -764.600916582240     IErMin= 5 ErrMin= 7.10D-07
 ErrMax= 7.10D-07  0.00D+00 EMaxC= 1.00D-01 BMatC= 2.87D-10 BMatP= 1.10D-08
 IDIUse=1 WtCom= 1.00D+00 WtEn= 0.00D+00
 Coeff-Com: -0.460D-02-0.387D-02 0.841D-02 0.111D+00 0.889D+00
 Coeff:     -0.460D-02-0.387D-02 0.841D-02 0.111D+00 0.889D+00
 Gap=     0.438 Goal=   None    Shift=    0.000
 RMSDP=6.82D-08 MaxDP=1.97D-06 DE=-7.01D-09 OVMax= 7.40D-06

 Cycle   8  Pass 1  IDiag  1:
 E= -764.600916582517     Delta-E=       -0.000000000277 Rises=F Damp=F
 DIIS: error= 3.28D-07 at cycle   6 NSaved=   6.
 NSaved= 6 IEnMin= 6 EnMin= -764.600916582517     IErMin= 6 ErrMin= 3.28D-07
 ErrMax= 3.28D-07  0.00D+00 EMaxC= 1.00D-01 BMatC= 5.91D-11 BMatP= 2.87D-10
 IDIUse=1 WtCom= 1.00D+00 WtEn= 0.00D+00
 Coeff-Com:  0.210D-02-0.164D-01-0.554D-01-0.348D-01 0.350D+00 0.755D+00
 Coeff:      0.210D-02-0.164D-01-0.554D-01-0.348D-01 0.350D+00 0.755D+00
 Gap=     0.438 Goal=   None    Shift=    0.000
 RMSDP=2.33D-08 MaxDP=8.41D-07 DE=-2.77D-10 OVMax= 2.82D-06

 Cycle   9  Pass 1  IDiag  1:
 E= -764.600916582579     Delta-E=       -0.000000000062 Rises=F Damp=F
 DIIS: error= 6.56D-08 at cycle   7 NSaved=   7.
 NSaved= 7 IEnMin= 7 EnMin= -764.600916582579     IErMin= 7 ErrMin= 6.56D-08
 ErrMax= 6.56D-08  0.00D+00 EMaxC= 1.00D-01 BMatC= 2.72D-12 BMatP= 5.91D-11
 IDIUse=1 WtCom= 1.00D+00 WtEn= 0.00D+00
 Coeff-Com:  0.821D-03-0.471D-02-0.171D-01-0.172D-01 0.593D-01 0.229D+00
 Coeff-Com:  0.750D+00
 Coeff:      0.821D-03-0.471D-02-0.171D-01-0.172D-01 0.593D-01 0.229D+00
 Coeff:      0.750D+00
 Gap=     0.438 Goal=   None    Shift=    0.000
 RMSDP=4.69D-09 MaxDP=1.43D-07 DE=-6.16D-11 OVMax= 5.14D-07

 SCF Done:  E(RM062X) =  -764.600916583     A.U. after    9 cycles
            NFock=  9  Conv=0.47D-08     -V/T= 2.0033
 KE= 7.620942153541D+02 PE=-3.076866927548D+03 EE= 9.182804138938D+02
 Leave Link  502 at Sat May 24 04:24:56 2025, MaxMem=  3758096384 cpu:              93.9 elap:              19.5
 (Enter /apps/easybuild-2022/easybuild/software/Compiler/NVHPC/22.11-CUDA-11.7.0/Gaussian/g16c01-CUDA-11.7.0/g16/l508.exe)
 QCSCF skips out because SCF is already converged.
 Leave Link  508 at Sat May 24 04:24:56 2025, MaxMem=  3758096384 cpu:               0.0 elap:               0.0
 (Enter /apps/easybuild-2022/easybuild/software/Compiler/NVHPC/22.11-CUDA-11.7.0/Gaussian/g16c01-CUDA-11.7.0/g16/l801.exe)
 DoSCS=F DFT=T ScalE2(SS,OS)=  1.000000  1.000000
 Range of M.O.s used for correlation:     1   324
 NBasis=   324 NAE=    40 NBE=    40 NFC=     0 NFV=     0
 NROrb=    324 NOA=    40 NOB=    40 NVA=   284 NVB=   284

 **** Warning!!: The largest alpha MO coefficient is  0.11899808D+02

 Leave Link  801 at Sat May 24 04:24:56 2025, MaxMem=  3758096384 cpu:               0.0 elap:               0.0
 (Enter /apps/easybuild-2022/easybuild/software/Compiler/NVHPC/22.11-CUDA-11.7.0/Gaussian/g16c01-CUDA-11.7.0/g16/l1101.exe)
 Leave Link 1101 at Sat May 24 04:24:56 2025, MaxMem=  3758096384 cpu:               0.0 elap:               0.0
 (Enter /apps/easybuild-2022/easybuild/software/Compiler/NVHPC/22.11-CUDA-11.7.0/Gaussian/g16c01-CUDA-11.7.0/g16/l1102.exe)
 Symmetrizing basis deriv contribution to polar:
 IMax=3 JMax=2 DiffMx= 0.00D+00
 Leave Link 1102 at Sat May 24 04:24:56 2025, MaxMem=  3758096384 cpu:               0.1 elap:               0.0
 (Enter /apps/easybuild-2022/easybuild/software/Compiler/NVHPC/22.11-CUDA-11.7.0/Gaussian/g16c01-CUDA-11.7.0/g16/l1110.exe)
 Leave Link 1110 at Sat May 24 04:24:56 2025, MaxMem=  3758096384 cpu:               0.0 elap:               0.0
 (Enter /apps/easybuild-2022/easybuild/software/Compiler/NVHPC/22.11-CUDA-11.7.0/Gaussian/g16c01-CUDA-11.7.0/g16/l1002.exe)
 Minotr:  Closed shell wavefunction.
 Leave Link 1002 at Sat May 24 04:24:57 2025, MaxMem=  3758096384 cpu:               0.0 elap:               0.0
 (Enter /apps/easybuild-2022/easybuild/software/Compiler/NVHPC/22.11-CUDA-11.7.0/Gaussian/g16c01-CUDA-11.7.0/g16/l701.exe)
 ... and contract with generalized density number  0.
 Compute integral first derivatives.
   1 Symmetry operations used in ECPInt.
 ECPInt:  NShTT=    6786 NPrTT=   21959 LenC2=    6465 LenP2D=   15935.
 LDataN:  DoStor=T MaxTD1= 7 Len=  274
 Leave Link  701 at Sat May 24 04:24:57 2025, MaxMem=  3758096384 cpu:               0.5 elap:               0.1
 (Enter /apps/easybuild-2022/easybuild/software/Compiler/NVHPC/22.11-CUDA-11.7.0/Gaussian/g16c01-CUDA-11.7.0/g16/l702.exe)
 L702 exits ... SP integral derivatives will be done elsewhere.
 Leave Link  702 at Sat May 24 04:24:57 2025, MaxMem=  3758096384 cpu:               0.0 elap:               0.0
 (Enter /apps/easybuild-2022/easybuild/software/Compiler/NVHPC/22.11-CUDA-11.7.0/Gaussian/g16c01-CUDA-11.7.0/g16/l703.exe)
 Integral derivatives from FoFJK, PRISM(SPDF).
 Compute integral first derivatives, UseDBF=F ICtDFT=           0.
 Calling FoFJK, ICntrl=      2127 FMM=F ISym2X=0 I1Cent= 0 IOpClX= 0 NMat=1 NMatS=1 NMatT=0.
 FoFJK:  IHMeth= 1 ICntrl=    2127 DoSepK=F KAlg= 0 I1Cent=           0 FoldK=F
 IRaf=         0 NMat=       1 IRICut=       1 DoRegI=T DoRafI=F ISym2E= 0 IDoP0=0 IntGTp=1.
 FoFCou: FMM=F IPFlag=           0 FMFlag=      100000 FMFlg1=         800
         NFxFlg=           0 DoJE=F BraDBF=F KetDBF=F FulRan=T
         wScrn=  0.000000 ICntrl=      2127 IOpCl=  0 I1Cent=           0 NGrid=           0
         NMat0=    1 NMatS0=      1 NMatT0=    0 NMatD0=    1 NMtDS0=    0 NMtDT0=    0
 Symmetry not used in FoFCou.
 Leave Link  703 at Sat May 24 04:25:06 2025, MaxMem=  3758096384 cpu:              69.7 elap:               8.8
 (Enter /apps/easybuild-2022/easybuild/software/Compiler/NVHPC/22.11-CUDA-11.7.0/Gaussian/g16c01-CUDA-11.7.0/g16/l716.exe)
 Dipole        = 3.64446254D-01 5.76849668D-01-3.93660857D-01
 Polarizability= 0.00000000D+00 0.00000000D+00 0.00000000D+00
                 0.00000000D+00 0.00000000D+00 0.00000000D+00
 -------------------------------------------------------------------
 Center     Atomic                   Forces (Hartrees/Bohr)
 Number     Number              X              Y              Z
 -------------------------------------------------------------------
      1        6           0.015280223   -0.037965709    0.017812397
      2        8           0.016289223   -0.006269929   -0.008667495
      3        6          -0.007149069    0.011374980   -0.001304277
      4        6          -0.004117074    0.005628411    0.000293853
      5        9          -0.004275959    0.001878792    0.000308626
      6        9          -0.001586941    0.004459748   -0.006081215
      7        9          -0.005990298    0.006256070    0.009842250
      8        9          -0.022329037    0.020673001    0.000819890
      9        9           0.030860071    0.012947395    0.003587318
     10        8          -0.017361660   -0.016838379   -0.014963409
     11        1           0.000380521   -0.002144379   -0.001647937
 -------------------------------------------------------------------
 Cartesian Forces:  Max     0.037965709 RMS     0.013179235
 Leave Link  716 at Sat May 24 04:25:06 2025, MaxMem=  3758096384 cpu:               0.0 elap:               0.0
 (Enter /apps/easybuild-2022/easybuild/software/Compiler/NVHPC/22.11-CUDA-11.7.0/Gaussian/g16c01-CUDA-11.7.0/g16/l123.exe)
 IRC-IRC-IRC-IRC-IRC-IRC-IRC-IRC-IRC-IRC-IRC-IRC-IRC-IRC-IRC-IRC-IRC-IRC
 Pt100 Step number   1 out of a maximum of  20
 Using modified Bulirsch-Stoer corrector integration.
   Using distance weighted interpolants to fit PES.
 PreDWI: IReCr0= 2 IReCr1= 1 IReCr2= 1 IReCr3= 1
 Modified Bulirsch-Stoer Extrapolation Cycles:
    EPS =    0.000010000000000
    Cycle     1 NS=    48
      PEZero:  N= 2 I= 1 D=  2.79D-04 Err=  1.42D-06
    Cycle     2 NS=    64 Truncation Error =  0.000001417
 BS completed in    2 cycles and     112 integration steps.
 Maximum DWI energy   std dev =  0.000000008 at pt    47
 Maximum DWI gradient std dev =  0.000325293 at pt    29
 SUMMARY OF CORRECTOR INTEGRATION:
   Predictor End Point Energy =  -764.600917
   Old End Point Energy       =  -764.600917
   Corrected End Point Energy =  -764.600917
   Predictor End-Start Dist.  =     0.053526
   Old End-Start Dist.        =     0.053526
   New End-Start Dist.        =     0.053526
   New End-Old End Dist.      =     0.000020
 CORRECTOR INTEGRATION CONVERGENCE:
   Recorrection delta-x convergence threshold:    0.010000
   Delta-x Convergence Met
 Point Number: 100          Path Number:   1
                    CURRENT STRUCTURE
                Cartesian Coordinates (Ang):                
 ---------------------------------------------------------------------
 Center     Atomic                     Coordinates (Angstroms)
 Number     Number                        X           Y           Z
 ---------------------------------------------------------------------
      1          6                    1.496312   -1.519059   -0.256208
      2          8                    2.512132   -1.706887   -0.678543
      3          6                   -0.064882    0.275777   -0.606394
      4          6                   -0.694467    0.306034    0.802761
      5          9                   -1.954786   -0.083396    0.766392
      6          9                   -0.057240   -0.437503    1.698159
      7          9                   -0.624576    1.574761    1.176838
      8          9                   -0.511264    1.196808   -1.451181
      9          9                   -0.573630   -0.866852   -1.204263
     10          8                    1.263543    0.679301   -0.383539
     11          1                    1.455926    1.381970   -1.017433
 ---------------------------------------------------------------------
   CHANGE IN THE REACTION COORDINATE =    0.05353
   NET REACTION COORDINATE UP TO THIS POINT =    5.35255
  # OF POINTS ALONG THE PATH = 100
  # OF STEPS =   1

 Maximum number of steps reached.
 Calculation of FORWARD path complete.
 Reaction path calculation complete.
 
 Energies reported relative to the TS energy of        -764.495098
 --------------------------------------------------------------------------
    Summary of reaction path following
 --------------------------------------------------------------------------
                        Energy    RxCoord
   1                    0.00000   0.00000
   2                   -0.00003   0.05354
   3                   -0.00011   0.10705
   4                   -0.00025   0.16058
   5                   -0.00044   0.21410
   6                   -0.00068   0.26762
   7                   -0.00098   0.32115
   8                   -0.00132   0.37467
   9                   -0.00172   0.42819
  10                   -0.00216   0.48172
  11                   -0.00265   0.53524
  12                   -0.00318   0.58877
  13                   -0.00375   0.64229
  14                   -0.00437   0.69582
  15                   -0.00502   0.74934
  16                   -0.00572   0.80287
  17                   -0.00645   0.85639
  18                   -0.00722   0.90992
  19                   -0.00802   0.96344
  20                   -0.00885   1.01697
  21                   -0.00971   1.07049
  22                   -0.01060   1.12402
  23                   -0.01152   1.17755
  24                   -0.01247   1.23107
  25                   -0.01344   1.28460
  26                   -0.01444   1.33812
  27                   -0.01545   1.39165
  28                   -0.01649   1.44517
  29                   -0.01755   1.49870
  30                   -0.01863   1.55222
  31                   -0.01972   1.60575
  32                   -0.02084   1.65927
  33                   -0.02196   1.71280
  34                   -0.02311   1.76632
  35                   -0.02426   1.81985
  36                   -0.02543   1.87338
  37                   -0.02661   1.92690
  38                   -0.02780   1.98043
  39                   -0.02901   2.03395
  40                   -0.03022   2.08748
  41                   -0.03144   2.14100
  42                   -0.03267   2.19453
  43                   -0.03391   2.24805
  44                   -0.03516   2.30158
  45                   -0.03641   2.35511
  46                   -0.03767   2.40863
  47                   -0.03894   2.46216
  48                   -0.04021   2.51568
  49                   -0.04148   2.56921
  50                   -0.04276   2.62273
  51                   -0.04405   2.67626
  52                   -0.04534   2.72978
  53                   -0.04663   2.78331
  54                   -0.04793   2.83684
  55                   -0.04922   2.89036
  56                   -0.05052   2.94389
  57                   -0.05183   2.99741
  58                   -0.05313   3.05094
  59                   -0.05444   3.10446
  60                   -0.05575   3.15799
  61                   -0.05706   3.21152
  62                   -0.05837   3.26504
  63                   -0.05967   3.31857
  64                   -0.06098   3.37209
  65                   -0.06229   3.42562
  66                   -0.06360   3.47914
  67                   -0.06490   3.53267
  68                   -0.06621   3.58619
  69                   -0.06751   3.63972
  70                   -0.06880   3.69325
  71                   -0.07010   3.74677
  72                   -0.07139   3.80030
  73                   -0.07268   3.85382
  74                   -0.07396   3.90735
  75                   -0.07524   3.96088
  76                   -0.07651   4.01440
  77                   -0.07777   4.06793
  78                   -0.07903   4.12145
  79                   -0.08029   4.17498
  80                   -0.08154   4.22850
  81                   -0.08278   4.28203
  82                   -0.08401   4.33556
  83                   -0.08524   4.38908
  84                   -0.08646   4.44261
  85                   -0.08767   4.49613
  86                   -0.08887   4.54966
  87                   -0.09007   4.60319
  88                   -0.09125   4.65671
  89                   -0.09243   4.71024
  90                   -0.09360   4.76376
  91                   -0.09476   4.81729
  92                   -0.09591   4.87081
  93                   -0.09705   4.92434
  94                   -0.09818   4.97787
  95                   -0.09930   5.03139
  96                   -0.10041   5.08492
  97                   -0.10152   5.13844
  98                   -0.10261   5.19197
  99                   -0.10369   5.24550
 100                   -0.10476   5.29902
 101                   -0.10582   5.35255
 --------------------------------------------------------------------------
 
 Total number of points:                  100
 Total number of gradient calculations:   100
 Total number of Hessian calculations:      0
 IRC-IRC-IRC-IRC-IRC-IRC-IRC-IRC-IRC-IRC-IRC-IRC-IRC-IRC-IRC-IRC-IRC-IRC
 Leave Link  123 at Sat May 24 04:25:06 2025, MaxMem=  3758096384 cpu:               0.1 elap:               0.0
 (Enter /apps/easybuild-2022/easybuild/software/Compiler/NVHPC/22.11-CUDA-11.7.0/Gaussian/g16c01-CUDA-11.7.0/g16/l202.exe)
                          Input orientation:                          
 ---------------------------------------------------------------------
 Center     Atomic      Atomic             Coordinates (Angstroms)
 Number     Number       Type             X           Y           Z
 ---------------------------------------------------------------------
      1          6           0        1.496310   -1.519058   -0.256207
      2          8           0        2.512134   -1.706888   -0.678543
      3          6           0       -0.064882    0.275777   -0.606394
      4          6           0       -0.694467    0.306034    0.802761
      5          9           0       -1.954786   -0.083396    0.766392
      6          9           0       -0.057240   -0.437503    1.698159
      7          9           0       -0.624576    1.574761    1.176838
      8          9           0       -0.511264    1.196808   -1.451181
      9          9           0       -0.573630   -0.866852   -1.204263
     10          8           0        1.263543    0.679301   -0.383539
     11          1           0        1.455925    1.381970   -1.017434
 ---------------------------------------------------------------------
                    Distance matrix (angstroms):
                    1          2          3          4          5
     1  C    0.000000
     2  O    1.116040   0.000000
     3  C    2.404450   3.252257   0.000000
     4  C    3.041690   4.065514   1.543700   0.000000
     5  F    3.875164   4.967588   2.363320   1.319614   0.000000
     6  F    2.720813   3.723135   2.412424   1.326893   2.143422
     7  F    4.015407   4.904142   2.276079   1.324570   2.165042
     8  F    3.582491   4.262553   1.327110   2.430493   2.939440
     9  F    2.368297   3.240984   1.386316   2.327747   2.530786
    10  O    2.214312   2.709226   1.406132   2.319577   3.501669
    11  H    2.999510   3.281991   1.924960   3.015781   4.118529
                    6          7          8          9         10
     6  F    0.000000
     7  F    2.154728   0.000000
     8  F    3.577074   2.657475   0.000000
     9  F    2.979102   3.410823   2.079315   0.000000
    10  O    2.706508   2.607991   2.134857   2.537594   0.000000
    11  H    3.602027   3.029932   2.022932   3.034996   0.965700
                   11
    11  H    0.000000
 Symmetry turned off by external request.
 Stoichiometry    C3HF5O2
 Rotational constants (GHZ):           1.9106768           1.1139204           0.9908433
 Leave Link  202 at Sat May 24 04:25:06 2025, MaxMem=  3758096384 cpu:               0.0 elap:               0.0
 (Enter /apps/easybuild-2022/easybuild/software/Compiler/NVHPC/22.11-CUDA-11.7.0/Gaussian/g16c01-CUDA-11.7.0/g16/l9999.exe)

 This type of calculation cannot be archived.


 EDUCATION IS NOT TRAINING BUT RATHER THE PROCESS THAT EQUIPS YOU TO
 ENTERTAIN YOURSELF, A FRIEND, OR AN IDEA.  -- WALLACE STERLING
 Job cpu time:       0 days  4 hours 56 minutes 29.4 seconds.
 Elapsed time:       0 days  0 hours 52 minutes  2.7 seconds.
 File lengths (MBytes):  RWF=     52 Int=      0 D2E=      0 Chk=     10 Scr=      1
 Normal termination of Gaussian 16 at Sat May 24 04:25:06 2025.
done
