 Entering Gaussian System, Link 0=g16
 Initial command:
 /apps/easybuild-2022/easybuild/software/Compiler/NVHPC/22.11-CUDA-11.7.0/Gaussian/g16c01-CUDA-11.7.0/g16/l1.exe "/tmp/Gau-147485.inp" -scrdir="/tmp/"
 Entering Link 1 = /apps/easybuild-2022/easybuild/software/Compiler/NVHPC/22.11-CUDA-11.7.0/Gaussian/g16c01-CUDA-11.7.0/g16/l1.exe PID=    147486.
  
 Copyright (c) 1988-2019, Gaussian, Inc.  All Rights Reserved.
  
 This is part of the Gaussian(R) 16 program.  It is based on
 the Gaussian(R) 09 system (copyright 2009, Gaussian, Inc.),
 the Gaussian(R) 03 system (copyright 2003, Gaussian, Inc.),
 the Gaussian(R) 98 system (copyright 1998, Gaussian, Inc.),
 the Gaussian(R) 94 system (copyright 1995, Gaussian, Inc.),
 the Gaussian 92(TM) system (copyright 1992, Gaussian, Inc.),
 the Gaussian 90(TM) system (copyright 1990, Gaussian, Inc.),
 the Gaussian 88(TM) system (copyright 1988, Gaussian, Inc.),
 the Gaussian 86(TM) system (copyright 1986, Carnegie Mellon
 University), and the Gaussian 82(TM) system (copyright 1983,
 Carnegie Mellon University). Gaussian is a federally registered
 trademark of Gaussian, Inc.
  
 This software contains proprietary and confidential information,
 including trade secrets, belonging to Gaussian, Inc.
  
 This software is provided under written license and may be
 used, copied, transmitted, or stored only in accord with that
 written license.
  
 The following legend is applicable only to US Government
 contracts under FAR:
  
                    RESTRICTED RIGHTS LEGEND
  
 Use, reproduction and disclosure by the US Government is
 subject to restrictions as set forth in subparagraphs (a)
 and (c) of the Commercial Computer Software - Restricted
 Rights clause in FAR 52.227-19.
  
 Gaussian, Inc.
 340 Quinnipiac St., Bldg. 40, Wallingford CT 06492
  
  
 ---------------------------------------------------------------
 Warning -- This program may not be used in any manner that
 competes with the business of Gaussian, Inc. or will provide
 assistance to any competitor of Gaussian, Inc.  The licensee
 of this program is prohibited from giving any competitor of
 Gaussian, Inc. access to this program.  By using this program,
 the user acknowledges that Gaussian, Inc. is engaged in the
 business of creating and licensing software in the field of
 computational chemistry and represents and warrants to the
 licensee that it is not a competitor of Gaussian, Inc. and that
 it will not use this program in any manner prohibited above.
 ---------------------------------------------------------------
  

 Cite this work as:
 Gaussian 16, Revision C.01,
 M. J. Frisch, G. W. Trucks, H. B. Schlegel, G. E. Scuseria, 
 M. A. Robb, J. R. Cheeseman, G. Scalmani, V. Barone, 
 G. A. Petersson, H. Nakatsuji, X. Li, M. Caricato, A. V. Marenich, 
 J. Bloino, B. G. Janesko, R. Gomperts, B. Mennucci, H. P. Hratchian, 
 J. V. Ortiz, A. F. Izmaylov, J. L. Sonnenberg, D. Williams-Young, 
 F. Ding, F. Lipparini, F. Egidi, J. Goings, B. Peng, A. Petrone, 
 T. Henderson, D. Ranasinghe, V. G. Zakrzewski, J. Gao, N. Rega, 
 G. Zheng, W. Liang, M. Hada, M. Ehara, K. Toyota, R. Fukuda, 
 J. Hasegawa, M. Ishida, T. Nakajima, Y. Honda, O. Kitao, H. Nakai, 
 T. Vreven, K. Throssell, J. A. Montgomery, Jr., J. E. Peralta, 
 F. Ogliaro, M. J. Bearpark, J. J. Heyd, E. N. Brothers, K. N. Kudin, 
 V. N. Staroverov, T. A. Keith, R. Kobayashi, J. Normand, 
 K. Raghavachari, A. P. Rendell, J. C. Burant, S. S. Iyengar, 
 J. Tomasi, M. Cossi, J. M. Millam, M. Klene, C. Adamo, R. Cammi, 
 J. W. Ochterski, R. L. Martin, K. Morokuma, O. Farkas, 
 J. B. Foresman, and D. J. Fox, Gaussian, Inc., Wallingford CT, 2019.
 
 ******************************************
 Gaussian 16:  ES64L-G16RevC.01  3-Jul-2019
                24-May-2025 
 ******************************************
 %mem=28GB
 %chk=1642764945472630600001_r12_insertion_R_11_10_1_IRC_F_prod
 %nprocshared=8
 Will use up to    8 processors via shared memory.
 -----------------------------------------------------------------
 #P M062X/Def2TZVPP Symm(None) scf(xqc) pop(None) freq opt(CalcFC)
 -----------------------------------------------------------------
 1/10=4,18=20,19=15,26=3,38=1/1,3;
 2/9=110,12=2,15=3,17=6,18=5,40=1/2;
 3/5=44,7=202,11=2,25=1,30=1,71=2,74=-55,140=1/1,2,3;
 4//1;
 5/5=2,8=3,13=1,38=5/2,8;
 8/6=4,10=90,11=11/1;
 11/6=1,8=1,9=11,15=111,16=1,31=1/1,2,10;
 10/6=1,13=1,31=1/2;
 7/10=1,25=1,30=1/1,2,3,16;
 1/10=4,18=20,19=15,26=3/3(2);
 2/9=110,15=3/2;
 99//99;
 2/9=110,15=3/2;
 3/5=44,7=202,11=2,25=1,30=1,71=1,74=-55/1,2,3;
 4/5=5,16=3,69=1/1;
 5/5=2,8=3,13=1,38=5/2,8;
 7/30=1/1,2,3,16;
 1/18=20,19=15,26=3/3(-5);
 2/9=110,15=3/2;
 99/9=1/99;
 Leave Link    1 at Sat May 24 04:26:44 2025, MaxMem=  3758096384 cpu:               0.0 elap:               0.0
 (Enter /apps/easybuild-2022/easybuild/software/Compiler/NVHPC/22.11-CUDA-11.7.0/Gaussian/g16c01-CUDA-11.7.0/g16/l101.exe)
 ------------------------------
 Gaussian input prepared by ASE
 ------------------------------
 Symbolic Z-matrix:
 Charge =  0 Multiplicity = 1
 C                     1.39709   0.15221  -0.64289 
 O                     2.18475  -0.79297  -0.14951 
 C                    -0.13555  -0.14713  -0.59026 
 C                    -0.7335    0.05783   0.82106 
 F                    -2.05155  -0.0574    0.78079 
 F                    -0.24782  -0.84612   1.6599 
 F                    -0.41785   1.26892   1.26306 
 F                    -0.75021   0.704    -1.41568 
 F                    -0.41097  -1.40052  -0.97865 
 O                     1.83135   1.16739  -1.08132 
 H                     3.0856   -0.44943  -0.24314 
 
 ITRead=  0  0  0  0  0  0  0  0  0  0  0
 MicOpt= -1 -1 -1 -1 -1 -1 -1 -1 -1 -1 -1
 NAtoms=     11 NQM=       11 NQMF=       0 NMMI=      0 NMMIF=      0
                NMic=       0 NMicF=      0.
                    Isotopes and Nuclear Properties:
 (Nuclear quadrupole moments (NQMom) in fm**2, nuclear magnetic moments (NMagM)
  in nuclear magnetons)

  Atom         1           2           3           4           5           6           7           8           9          10
 IAtWgt=          12          16          12          12          19          19          19          19          19          16
 AtmWgt=  12.0000000  15.9949146  12.0000000  12.0000000  18.9984032  18.9984032  18.9984032  18.9984032  18.9984032  15.9949146
 NucSpn=           0           0           0           0           1           1           1           1           1           0
 AtZEff=  -0.0000000  -0.0000000  -0.0000000  -0.0000000  -0.0000000  -0.0000000  -0.0000000  -0.0000000  -0.0000000  -0.0000000
 NQMom=    0.0000000   0.0000000   0.0000000   0.0000000   0.0000000   0.0000000   0.0000000   0.0000000   0.0000000   0.0000000
 NMagM=    0.0000000   0.0000000   0.0000000   0.0000000   2.6288670   2.6288670   2.6288670   2.6288670   2.6288670   0.0000000
 AtZNuc=   6.0000000   8.0000000   6.0000000   6.0000000   9.0000000   9.0000000   9.0000000   9.0000000   9.0000000   8.0000000

  Atom        11
 IAtWgt=           1
 AtmWgt=   1.0078250
 NucSpn=           1
 AtZEff=  -0.0000000
 NQMom=    0.0000000
 NMagM=    2.7928460
 AtZNuc=   1.0000000
 Leave Link  101 at Sat May 24 04:26:44 2025, MaxMem=  3758096384 cpu:               0.2 elap:               0.2
 (Enter /apps/easybuild-2022/easybuild/software/Compiler/NVHPC/22.11-CUDA-11.7.0/Gaussian/g16c01-CUDA-11.7.0/g16/l103.exe)

 GradGradGradGradGradGradGradGradGradGradGradGradGradGradGradGradGradGrad
 Berny optimization.
 Initialization pass.
                           ----------------------------
                           !    Initial Parameters    !
                           ! (Angstroms and Degrees)  !
 --------------------------                            --------------------------
 ! Name  Definition              Value          Derivative Info.                !
 --------------------------------------------------------------------------------
 ! R1    R(1,2)                  1.3256         calculate D2E/DX2 analytically  !
 ! R2    R(1,3)                  1.5625         calculate D2E/DX2 analytically  !
 ! R3    R(1,10)                 1.188          calculate D2E/DX2 analytically  !
 ! R4    R(2,11)                 0.9687         calculate D2E/DX2 analytically  !
 ! R5    R(3,4)                  1.5464         calculate D2E/DX2 analytically  !
 ! R6    R(3,8)                  1.3355         calculate D2E/DX2 analytically  !
 ! R7    R(3,9)                  1.3408         calculate D2E/DX2 analytically  !
 ! R8    R(4,5)                  1.3237         calculate D2E/DX2 analytically  !
 ! R9    R(4,6)                  1.3254         calculate D2E/DX2 analytically  !
 ! R10   R(4,7)                  1.3273         calculate D2E/DX2 analytically  !
 ! A1    A(2,1,3)              115.7029         calculate D2E/DX2 analytically  !
 ! A2    A(2,1,10)             121.9685         calculate D2E/DX2 analytically  !
 ! A3    A(3,1,10)             122.3226         calculate D2E/DX2 analytically  !
 ! A4    A(1,2,11)             105.2919         calculate D2E/DX2 analytically  !
 ! A5    A(1,3,4)              112.6211         calculate D2E/DX2 analytically  !
 ! A6    A(1,3,8)              107.9718         calculate D2E/DX2 analytically  !
 ! A7    A(1,3,9)              111.7669         calculate D2E/DX2 analytically  !
 ! A8    A(4,3,8)              107.5557         calculate D2E/DX2 analytically  !
 ! A9    A(4,3,9)              107.9893         calculate D2E/DX2 analytically  !
 ! A10   A(8,3,9)              108.7955         calculate D2E/DX2 analytically  !
 ! A11   A(3,4,5)              110.2259         calculate D2E/DX2 analytically  !
 ! A12   A(3,4,6)              110.2137         calculate D2E/DX2 analytically  !
 ! A13   A(3,4,7)              109.4442         calculate D2E/DX2 analytically  !
 ! A14   A(5,4,6)              108.9512         calculate D2E/DX2 analytically  !
 ! A15   A(5,4,7)              109.0484         calculate D2E/DX2 analytically  !
 ! A16   A(6,4,7)              108.9296         calculate D2E/DX2 analytically  !
 ! D1    D(3,1,2,11)          -179.0777         calculate D2E/DX2 analytically  !
 ! D2    D(10,1,2,11)            0.0475         calculate D2E/DX2 analytically  !
 ! D3    D(2,1,3,4)             77.3432         calculate D2E/DX2 analytically  !
 ! D4    D(2,1,3,8)           -164.0564         calculate D2E/DX2 analytically  !
 ! D5    D(2,1,3,9)            -44.4363         calculate D2E/DX2 analytically  !
 ! D6    D(10,1,3,4)          -101.7785         calculate D2E/DX2 analytically  !
 ! D7    D(10,1,3,8)            16.8219         calculate D2E/DX2 analytically  !
 ! D8    D(10,1,3,9)           136.4419         calculate D2E/DX2 analytically  !
 ! D9    D(1,3,4,5)            172.8402         calculate D2E/DX2 analytically  !
 ! D10   D(1,3,4,6)            -66.863          calculate D2E/DX2 analytically  !
 ! D11   D(1,3,4,7)             52.9117         calculate D2E/DX2 analytically  !
 ! D12   D(8,3,4,5)             53.9965         calculate D2E/DX2 analytically  !
 ! D13   D(8,3,4,6)            174.2933         calculate D2E/DX2 analytically  !
 ! D14   D(8,3,4,7)            -65.932          calculate D2E/DX2 analytically  !
 ! D15   D(9,3,4,5)            -63.2635         calculate D2E/DX2 analytically  !
 ! D16   D(9,3,4,6)             57.0333         calculate D2E/DX2 analytically  !
 ! D17   D(9,3,4,7)            176.808          calculate D2E/DX2 analytically  !
 --------------------------------------------------------------------------------
 Trust Radius=3.00D-01 FncErr=1.00D-07 GrdErr=1.00D-06 EigMax=2.50D+02 EigMin=1.00D-04
 Number of steps in this run=     53 maximum allowed number of steps=    100.
 GradGradGradGradGradGradGradGradGradGradGradGradGradGradGradGradGradGrad

 Leave Link  103 at Sat May 24 04:26:44 2025, MaxMem=  3758096384 cpu:               0.0 elap:               0.0
 (Enter /apps/easybuild-2022/easybuild/software/Compiler/NVHPC/22.11-CUDA-11.7.0/Gaussian/g16c01-CUDA-11.7.0/g16/l202.exe)
                          Input orientation:                          
 ---------------------------------------------------------------------
 Center     Atomic      Atomic             Coordinates (Angstroms)
 Number     Number       Type             X           Y           Z
 ---------------------------------------------------------------------
      1          6           0        1.397094    0.152213   -0.642890
      2          8           0        2.184750   -0.792967   -0.149506
      3          6           0       -0.135547   -0.147127   -0.590262
      4          6           0       -0.733503    0.057832    0.821063
      5          9           0       -2.051550   -0.057401    0.780793
      6          9           0       -0.247821   -0.846123    1.659904
      7          9           0       -0.417848    1.268917    1.263058
      8          9           0       -0.750211    0.703997   -1.415676
      9          9           0       -0.410969   -1.400515   -0.978653
     10          8           0        1.831347    1.167385   -1.081315
     11          1           0        3.085595   -0.449426   -0.243139
 ---------------------------------------------------------------------
                    Distance matrix (angstroms):
                    1          2          3          4          5
     1  C    0.000000
     2  O    1.325592   0.000000
     3  C    1.562486   2.448500   0.000000
     4  C    2.586795   3.190935   1.546415   0.000000
     5  F    3.736838   4.399176   2.357734   1.323687   0.000000
     6  F    3.000880   3.032193   2.358908   1.325396   2.156005
     7  F    2.858965   3.608354   2.349398   1.327300   2.158861
     8  F    2.347889   3.529601   1.335489   2.328263   2.664148
     9  F    2.406822   2.791837   1.340778   2.338756   2.755197
    10  O    1.188009   2.199123   2.416143   3.380622   4.477101
    11  H    1.836520   0.968664   3.253865   3.996917   5.252845
                    6          7          8          9         10
     6  F    0.000000
     7  F    2.158655   0.000000
     8  F    3.480583   2.757756   0.000000
     9  F    2.701102   3.485855   2.176016   0.000000
    10  O    3.986406   3.250426   2.644044   3.410664   0.000000
    11  H    3.858834   4.182756   4.173564   3.697501   2.211279
                   11
    11  H    0.000000
 Symmetry turned off by external request.
 Stoichiometry    C3HF5O2
 Rotational constants (GHZ):           1.9050516           1.1605541           1.1078678
 Leave Link  202 at Sat May 24 04:26:44 2025, MaxMem=  3758096384 cpu:               0.0 elap:               0.0
 (Enter /apps/easybuild-2022/easybuild/software/Compiler/NVHPC/22.11-CUDA-11.7.0/Gaussian/g16c01-CUDA-11.7.0/g16/l301.exe)
 Standard basis: def2TZVPP (5D, 7F)
 Ernie: Thresh=  0.10000D-02 Tol=  0.10000D-05 Strict=F.
   324 basis functions,   527 primitive gaussians,   375 cartesian basis functions
    40 alpha electrons       40 beta electrons
       nuclear repulsion energy       637.7119769455 Hartrees.
 IExCor= 4336 DFT=T Ex+Corr=M062X ExCW=0 ScaHFX=  0.540000
 ScaDFX=  1.000000  1.000000  1.000000  1.000000 ScalE2=  1.000000  1.000000
 IRadAn=      5 IRanWt=     -1 IRanGd=            0 ICorTp=0 IEmpDi=  4
 NAtoms=   11 NActive=   11 NUniq=   11 SFac= 1.00D+00 NAtFMM=   60 NAOKFM=F Big=F
 Integral buffers will be    131072 words long.
 Raffenetti 2 integral format.
 Two-electron integral symmetry is turned off.
 Leave Link  301 at Sat May 24 04:26:44 2025, MaxMem=  3758096384 cpu:               0.1 elap:               0.0
 (Enter /apps/easybuild-2022/easybuild/software/Compiler/NVHPC/22.11-CUDA-11.7.0/Gaussian/g16c01-CUDA-11.7.0/g16/l302.exe)
 NPDir=0 NMtPBC=     1 NCelOv=     1 NCel=       1 NClECP=     1 NCelD=      1
         NCelK=      1 NCelE2=     1 NClLst=     1 CellRange=     0.0.
 One-electron integrals computed using PRISM.
   1 Symmetry operations used in ECPInt.
 ECPInt:  NShTT=    6786 NPrTT=   21959 LenC2=    6477 LenP2D=   15942.
 LDataN:  DoStor=T MaxTD1= 6 Len=  172
 NBasis=   324 RedAO= T EigKep=  3.36D-04  NBF=   324
 NBsUse=   324 1.00D-06 EigRej= -1.00D+00 NBFU=   324
 Precomputing XC quadrature grid using
 IXCGrd= 4 IRadAn=           5 IRanWt=          -1 IRanGd=           0 AccXCQ= 0.00D+00.
 Generated NRdTot=       0 NPtTot=           0 NUsed=           0 NTot=          32
 NSgBfM=   373   373   373   373   373 MxSgAt=    11 MxSgA2=    11.
 Leave Link  302 at Sat May 24 04:26:44 2025, MaxMem=  3758096384 cpu:               0.6 elap:               0.1
 (Enter /apps/easybuild-2022/easybuild/software/Compiler/NVHPC/22.11-CUDA-11.7.0/Gaussian/g16c01-CUDA-11.7.0/g16/l303.exe)
 DipDrv:  MaxL=1.
 Leave Link  303 at Sat May 24 04:26:44 2025, MaxMem=  3758096384 cpu:               0.1 elap:               0.0
 (Enter /apps/easybuild-2022/easybuild/software/Compiler/NVHPC/22.11-CUDA-11.7.0/Gaussian/g16c01-CUDA-11.7.0/g16/l401.exe)
 ExpMin= 9.52D-02 ExpMax= 3.55D+04 ExpMxC= 1.21D+03 IAcc=3 IRadAn=         5 AccDes= 0.00D+00
 Harris functional with IExCor= 1009 and IRadAn=       5 diagonalized for initial guess.
 HarFok:  IExCor= 1009 AccDes= 0.00D+00 IRadAn=         5 IDoV= 1 UseB2=F ITyADJ=14
 ICtDFT=  3500011 ScaDFX=  1.000000  1.000000  1.000000  1.000000
 FoFCou: FMM=F IPFlag=           0 FMFlag=      100000 FMFlg1=           0
         NFxFlg=           0 DoJE=T BraDBF=F KetDBF=T FulRan=T
         wScrn=  0.000000 ICntrl=       500 IOpCl=  0 I1Cent=   200000004 NGrid=           0
         NMat0=    1 NMatS0=      1 NMatT0=    0 NMatD0=    1 NMtDS0=    0 NMtDT0=    0
 Symmetry not used in FoFCou.
 Harris En= -764.199473388323    
 JPrj=0 DoOrth=F DoCkMO=F.
 Leave Link  401 at Sat May 24 04:26:45 2025, MaxMem=  3758096384 cpu:               3.5 elap:               0.5
 (Enter /apps/easybuild-2022/easybuild/software/Compiler/NVHPC/22.11-CUDA-11.7.0/Gaussian/g16c01-CUDA-11.7.0/g16/l502.exe)
 Keep R1 ints in memory in canonical form, NReq=1412617130.
 FoFCou: FMM=F IPFlag=           0 FMFlag=           0 FMFlg1=           0
         NFxFlg=           0 DoJE=F BraDBF=F KetDBF=F FulRan=T
         wScrn=  0.000000 ICntrl=       600 IOpCl=  0 I1Cent=           0 NGrid=           0
         NMat0=    1 NMatS0=  52650 NMatT0=    0 NMatD0=    1 NMtDS0=    0 NMtDT0=    0
 Symmetry not used in FoFCou.
 Two-electron integral symmetry not used.
 Closed shell SCF:
 Using DIIS extrapolation, IDIIS=  1040.
 NGot=  3758096384 LenX=  2371771924 LenY=  2371630858
 Requested convergence on RMS density matrix=1.00D-08 within  32 cycles.
 Requested convergence on MAX density matrix=1.00D-06.
 Requested convergence on             energy=1.00D-06.
 No special actions if energy rises.
 Integral accuracy reduced to 1.0D-05 until final iterations.

 Cycle   1  Pass 0  IDiag  1:
 E= -764.490673357736    
 DIIS: error= 2.19D-02 at cycle   1 NSaved=   1.
 NSaved= 1 IEnMin= 1 EnMin= -764.490673357736     IErMin= 1 ErrMin= 2.19D-02
 ErrMax= 2.19D-02  0.00D+00 EMaxC= 1.00D-01 BMatC= 3.54D-01 BMatP= 3.54D-01
 IDIUse=3 WtCom= 7.81D-01 WtEn= 2.19D-01
 Coeff-Com:  0.100D+01
 Coeff-En:   0.100D+01
 Coeff:      0.100D+01
 Gap=     0.432 Goal=   None    Shift=    0.000
 GapD=    0.432 DampG=2.000 DampE=0.500 DampFc=1.0000 IDamp=-1.
 RMSDP=2.01D-03 MaxDP=9.23D-02              OVMax= 2.07D-01

 Cycle   2  Pass 0  IDiag  1:
 E= -764.392307111759     Delta-E=        0.098366245977 Rises=F Damp=F
 DIIS: error= 2.34D-02 at cycle   2 NSaved=   2.
 NSaved= 2 IEnMin= 1 EnMin= -764.490673357736     IErMin= 1 ErrMin= 2.19D-02
 ErrMax= 2.34D-02  0.00D+00 EMaxC= 1.00D-01 BMatC= 4.35D-01 BMatP= 3.54D-01
 IDIUse=2 WtCom= 0.00D+00 WtEn= 1.00D+00
 Coeff-En:   0.606D+00 0.394D+00
 Coeff:      0.606D+00 0.394D+00
 Gap=     0.398 Goal=   None    Shift=    0.000
 RMSDP=9.87D-04 MaxDP=4.90D-02 DE= 9.84D-02 OVMax= 1.11D-01

 Cycle   3  Pass 0  IDiag  1:
 E= -764.662180918083     Delta-E=       -0.269873806324 Rises=F Damp=F
 DIIS: error= 2.88D-03 at cycle   3 NSaved=   3.
 NSaved= 3 IEnMin= 3 EnMin= -764.662180918083     IErMin= 3 ErrMin= 2.88D-03
 ErrMax= 2.88D-03  0.00D+00 EMaxC= 1.00D-01 BMatC= 5.54D-03 BMatP= 3.54D-01
 IDIUse=3 WtCom= 9.71D-01 WtEn= 2.88D-02
 Coeff-Com:  0.889D-01 0.392D-01 0.872D+00
 Coeff-En:   0.000D+00 0.000D+00 0.100D+01
 Coeff:      0.863D-01 0.381D-01 0.876D+00
 Gap=     0.386 Goal=   None    Shift=    0.000
 RMSDP=2.31D-04 MaxDP=1.32D-02 DE=-2.70D-01 OVMax= 3.74D-02

 Cycle   4  Pass 0  IDiag  1:
 E= -764.662357688499     Delta-E=       -0.000176770416 Rises=F Damp=F
 DIIS: error= 3.56D-03 at cycle   4 NSaved=   4.
 NSaved= 4 IEnMin= 4 EnMin= -764.662357688499     IErMin= 3 ErrMin= 2.88D-03
 ErrMax= 3.56D-03  0.00D+00 EMaxC= 1.00D-01 BMatC= 5.35D-03 BMatP= 5.54D-03
 IDIUse=3 WtCom= 9.64D-01 WtEn= 3.56D-02
 Coeff-Com: -0.582D-03-0.259D-01 0.522D+00 0.504D+00
 Coeff-En:   0.000D+00 0.000D+00 0.488D+00 0.512D+00
 Coeff:     -0.561D-03-0.250D-01 0.521D+00 0.504D+00
 Gap=     0.394 Goal=   None    Shift=    0.000
 RMSDP=1.13D-04 MaxDP=6.50D-03 DE=-1.77D-04 OVMax= 1.90D-02

 Cycle   5  Pass 0  IDiag  1:
 E= -764.665821862032     Delta-E=       -0.003464173533 Rises=F Damp=F
 DIIS: error= 2.55D-04 at cycle   5 NSaved=   5.
 NSaved= 5 IEnMin= 5 EnMin= -764.665821862032     IErMin= 5 ErrMin= 2.55D-04
 ErrMax= 2.55D-04  0.00D+00 EMaxC= 1.00D-01 BMatC= 6.22D-05 BMatP= 5.35D-03
 IDIUse=3 WtCom= 9.97D-01 WtEn= 2.55D-03
 Coeff-Com: -0.337D-02-0.125D-01 0.169D+00 0.184D+00 0.663D+00
 Coeff-En:   0.000D+00 0.000D+00 0.000D+00 0.000D+00 0.100D+01
 Coeff:     -0.336D-02-0.125D-01 0.169D+00 0.184D+00 0.664D+00
 Gap=     0.394 Goal=   None    Shift=    0.000
 RMSDP=2.03D-05 MaxDP=7.65D-04 DE=-3.46D-03 OVMax= 2.52D-03

 Cycle   6  Pass 0  IDiag  1:
 E= -764.665870999994     Delta-E=       -0.000049137962 Rises=F Damp=F
 DIIS: error= 7.50D-05 at cycle   6 NSaved=   6.
 NSaved= 6 IEnMin= 6 EnMin= -764.665870999994     IErMin= 6 ErrMin= 7.50D-05
 ErrMax= 7.50D-05  0.00D+00 EMaxC= 1.00D-01 BMatC= 4.87D-06 BMatP= 6.22D-05
 IDIUse=1 WtCom= 1.00D+00 WtEn= 0.00D+00
 Coeff-Com: -0.853D-03-0.197D-02 0.930D-02 0.446D-02 0.181D+00 0.808D+00
 Coeff:     -0.853D-03-0.197D-02 0.930D-02 0.446D-02 0.181D+00 0.808D+00
 Gap=     0.395 Goal=   None    Shift=    0.000
 RMSDP=6.75D-06 MaxDP=2.62D-04 DE=-4.91D-05 OVMax= 7.22D-04

 Initial convergence to 1.0D-05 achieved.  Increase integral accuracy.
 Cycle   7  Pass 1  IDiag  1:
 E= -764.665909651943     Delta-E=       -0.000038651949 Rises=F Damp=F
 DIIS: error= 2.71D-05 at cycle   1 NSaved=   1.
 NSaved= 1 IEnMin= 1 EnMin= -764.665909651943     IErMin= 1 ErrMin= 2.71D-05
 ErrMax= 2.71D-05  0.00D+00 EMaxC= 1.00D-01 BMatC= 1.01D-06 BMatP= 1.01D-06
 IDIUse=1 WtCom= 1.00D+00 WtEn= 0.00D+00
 Coeff-Com:  0.100D+01
 Coeff:      0.100D+01
 Gap=     0.395 Goal=   None    Shift=    0.000
 RMSDP=6.75D-06 MaxDP=2.62D-04 DE=-3.87D-05 OVMax= 2.78D-04

 Cycle   8  Pass 1  IDiag  1:
 E= -764.665910218386     Delta-E=       -0.000000566442 Rises=F Damp=F
 DIIS: error= 3.32D-05 at cycle   2 NSaved=   2.
 NSaved= 2 IEnMin= 2 EnMin= -764.665910218386     IErMin= 1 ErrMin= 2.71D-05
 ErrMax= 3.32D-05  0.00D+00 EMaxC= 1.00D-01 BMatC= 6.06D-07 BMatP= 1.01D-06
 IDIUse=1 WtCom= 1.00D+00 WtEn= 0.00D+00
 Coeff-Com:  0.420D+00 0.580D+00
 Coeff:      0.420D+00 0.580D+00
 Gap=     0.395 Goal=   None    Shift=    0.000
 RMSDP=1.47D-06 MaxDP=5.40D-05 DE=-5.66D-07 OVMax= 2.06D-04

 Cycle   9  Pass 1  IDiag  1:
 E= -764.665910555438     Delta-E=       -0.000000337052 Rises=F Damp=F
 DIIS: error= 8.00D-06 at cycle   3 NSaved=   3.
 NSaved= 3 IEnMin= 3 EnMin= -764.665910555438     IErMin= 3 ErrMin= 8.00D-06
 ErrMax= 8.00D-06  0.00D+00 EMaxC= 1.00D-01 BMatC= 6.79D-08 BMatP= 6.06D-07
 IDIUse=1 WtCom= 1.00D+00 WtEn= 0.00D+00
 Coeff-Com: -0.375D-01 0.214D+00 0.823D+00
 Coeff:     -0.375D-01 0.214D+00 0.823D+00
 Gap=     0.395 Goal=   None    Shift=    0.000
 RMSDP=8.66D-07 MaxDP=3.90D-05 DE=-3.37D-07 OVMax= 9.06D-05

 Cycle  10  Pass 1  IDiag  1:
 E= -764.665910600906     Delta-E=       -0.000000045468 Rises=F Damp=F
 DIIS: error= 7.73D-06 at cycle   4 NSaved=   4.
 NSaved= 4 IEnMin= 4 EnMin= -764.665910600906     IErMin= 4 ErrMin= 7.73D-06
 ErrMax= 7.73D-06  0.00D+00 EMaxC= 1.00D-01 BMatC= 1.20D-08 BMatP= 6.79D-08
 IDIUse=1 WtCom= 1.00D+00 WtEn= 0.00D+00
 Coeff-Com: -0.413D-01 0.806D-01 0.414D+00 0.546D+00
 Coeff:     -0.413D-01 0.806D-01 0.414D+00 0.546D+00
 Gap=     0.395 Goal=   None    Shift=    0.000
 RMSDP=2.29D-07 MaxDP=1.87D-05 DE=-4.55D-08 OVMax= 6.04D-05

 Cycle  11  Pass 1  IDiag  1:
 E= -764.665910610458     Delta-E=       -0.000000009552 Rises=F Damp=F
 DIIS: error= 1.59D-06 at cycle   5 NSaved=   5.
 NSaved= 5 IEnMin= 5 EnMin= -764.665910610458     IErMin= 5 ErrMin= 1.59D-06
 ErrMax= 1.59D-06  0.00D+00 EMaxC= 1.00D-01 BMatC= 1.64D-09 BMatP= 1.20D-08
 IDIUse=1 WtCom= 1.00D+00 WtEn= 0.00D+00
 Coeff-Com: -0.236D-02-0.286D-01-0.110D+00 0.204D+00 0.937D+00
 Coeff:     -0.236D-02-0.286D-01-0.110D+00 0.204D+00 0.937D+00
 Gap=     0.395 Goal=   None    Shift=    0.000
 RMSDP=1.53D-07 MaxDP=7.97D-06 DE=-9.55D-09 OVMax= 1.99D-05

 Cycle  12  Pass 1  IDiag  1:
 E= -764.665910612142     Delta-E=       -0.000000001684 Rises=F Damp=F
 DIIS: error= 2.69D-07 at cycle   6 NSaved=   6.
 NSaved= 6 IEnMin= 6 EnMin= -764.665910612142     IErMin= 6 ErrMin= 2.69D-07
 ErrMax= 2.69D-07  0.00D+00 EMaxC= 1.00D-01 BMatC= 1.05D-10 BMatP= 1.64D-09
 IDIUse=1 WtCom= 1.00D+00 WtEn= 0.00D+00
 Coeff-Com:  0.318D-02-0.188D-01-0.866D-01 0.423D-01 0.349D+00 0.711D+00
 Coeff:      0.318D-02-0.188D-01-0.866D-01 0.423D-01 0.349D+00 0.711D+00
 Gap=     0.395 Goal=   None    Shift=    0.000
 RMSDP=3.54D-08 MaxDP=1.21D-06 DE=-1.68D-09 OVMax= 5.52D-06

 Cycle  13  Pass 1  IDiag  1:
 E= -764.665910612213     Delta-E=       -0.000000000071 Rises=F Damp=F
 DIIS: error= 7.99D-08 at cycle   7 NSaved=   7.
 NSaved= 7 IEnMin= 7 EnMin= -764.665910612213     IErMin= 7 ErrMin= 7.99D-08
 ErrMax= 7.99D-08  0.00D+00 EMaxC= 1.00D-01 BMatC= 9.79D-12 BMatP= 1.05D-10
 IDIUse=1 WtCom= 1.00D+00 WtEn= 0.00D+00
 Coeff-Com:  0.135D-02-0.541D-02-0.266D-01 0.530D-02 0.643D-01 0.276D+00
 Coeff-Com:  0.685D+00
 Coeff:      0.135D-02-0.541D-02-0.266D-01 0.530D-02 0.643D-01 0.276D+00
 Coeff:      0.685D+00
 Gap=     0.395 Goal=   None    Shift=    0.000
 RMSDP=8.33D-09 MaxDP=2.89D-07 DE=-7.09D-11 OVMax= 9.02D-07

 SCF Done:  E(RM062X) =  -764.665910612     A.U. after   13 cycles
            NFock= 13  Conv=0.83D-08     -V/T= 2.0037
 KE= 7.618659552597D+02 PE=-3.087813496466D+03 EE= 9.235696536490D+02
 Leave Link  502 at Sat May 24 04:27:09 2025, MaxMem=  3758096384 cpu:             105.1 elap:              24.5
 (Enter /apps/easybuild-2022/easybuild/software/Compiler/NVHPC/22.11-CUDA-11.7.0/Gaussian/g16c01-CUDA-11.7.0/g16/l508.exe)
 QCSCF skips out because SCF is already converged.
 Leave Link  508 at Sat May 24 04:27:09 2025, MaxMem=  3758096384 cpu:               0.0 elap:               0.0
 (Enter /apps/easybuild-2022/easybuild/software/Compiler/NVHPC/22.11-CUDA-11.7.0/Gaussian/g16c01-CUDA-11.7.0/g16/l801.exe)
 DoSCS=F DFT=T ScalE2(SS,OS)=  1.000000  1.000000
 Range of M.O.s used for correlation:     1   324
 NBasis=   324 NAE=    40 NBE=    40 NFC=     0 NFV=     0
 NROrb=    324 NOA=    40 NOB=    40 NVA=   284 NVB=   284

 **** Warning!!: The largest alpha MO coefficient is  0.14898741D+02

 Leave Link  801 at Sat May 24 04:27:09 2025, MaxMem=  3758096384 cpu:               0.0 elap:               0.0
 (Enter /apps/easybuild-2022/easybuild/software/Compiler/NVHPC/22.11-CUDA-11.7.0/Gaussian/g16c01-CUDA-11.7.0/g16/l1101.exe)
 Using compressed storage, NAtomX=    11.
 Will process     12 centers per pass.
   1 Symmetry operations used in ECPInt.
 ECPInt:  NShTT=    6786 NPrTT=   21959 LenC2=    6477 LenP2D=   15942.
 LDataN:  DoStor=T MaxTD1= 7 Len=  274
 Leave Link 1101 at Sat May 24 04:27:10 2025, MaxMem=  3758096384 cpu:               0.9 elap:               0.2
 (Enter /apps/easybuild-2022/easybuild/software/Compiler/NVHPC/22.11-CUDA-11.7.0/Gaussian/g16c01-CUDA-11.7.0/g16/l1102.exe)
 Symmetrizing basis deriv contribution to polar:
 IMax=3 JMax=2 DiffMx= 0.00D+00
 Leave Link 1102 at Sat May 24 04:27:10 2025, MaxMem=  3758096384 cpu:               0.1 elap:               0.0
 (Enter /apps/easybuild-2022/easybuild/software/Compiler/NVHPC/22.11-CUDA-11.7.0/Gaussian/g16c01-CUDA-11.7.0/g16/l1110.exe)
 Forming Gx(P) for the SCF density, NAtomX=    11.
 Integral derivatives from FoFJK, PRISM(SPDF).
 Do as many integral derivatives as possible in FoFJK.
 G2DrvN: MDV=    3758095115.
 G2DrvN: will do    12 centers at a time, making    1 passes.
 Calling FoFCou, ICntrl=  3107 FMM=F I1Cent=   0 AccDes= 0.00D+00.
 FoFJK:  IHMeth= 1 ICntrl=    3107 DoSepK=F KAlg= 0 I1Cent=           0 FoldK=F
 IRaf=         0 NMat=       1 IRICut=       1 DoRegI=T DoRafI=F ISym2E= 0 IDoP0=0 IntGTp=1.
 FoFCou: FMM=F IPFlag=           0 FMFlag=      100000 FMFlg1=           0
         NFxFlg=           0 DoJE=F BraDBF=F KetDBF=F FulRan=T
         wScrn=  0.000000 ICntrl=      3107 IOpCl=  0 I1Cent=           0 NGrid=           0
         NMat0=    1 NMatS0=      1 NMatT0=    0 NMatD0=    1 NMtDS0=    0 NMtDT0=    0
 Symmetry not used in FoFCou.
 End of G2Drv F.D. properties file   721 does not exist.
 End of G2Drv F.D. properties file   722 does not exist.
 End of G2Drv F.D. properties file   788 does not exist.
 Leave Link 1110 at Sat May 24 04:27:51 2025, MaxMem=  3758096384 cpu:             328.0 elap:              41.3
 (Enter /apps/easybuild-2022/easybuild/software/Compiler/NVHPC/22.11-CUDA-11.7.0/Gaussian/g16c01-CUDA-11.7.0/g16/l1002.exe)
 Minotr:  Closed shell wavefunction.
          IDoAtm=11111111111
          Direct CPHF calculation.
          Differentiating once with respect to nuclear coordinates.
          Requested convergence is 1.0D-08 RMS, and 1.0D-07 maximum.
          Secondary convergence is 1.0D-12 RMS, and 1.0D-12 maximum.
          NewPWx=T KeepS1=F KeepF1=F KeepIn=T MapXYZ=F SortEE=F KeepMc=T.
         3307 words used for storage of precomputed grid.
 Keep R1 ints in memory in canonical form, NReq=1412622537.
 FoFCou: FMM=F IPFlag=           0 FMFlag=           0 FMFlg1=           0
         NFxFlg=           0 DoJE=F BraDBF=F KetDBF=F FulRan=T
         wScrn=  0.000000 ICntrl=       600 IOpCl=  0 I1Cent=           0 NGrid=           0
         NMat0=    1 NMatS0=  52650 NMatT0=    0 NMatD0=    1 NMtDS0=    0 NMtDT0=    0
 Symmetry not used in FoFCou.
 Two-electron integral symmetry not used.
          MDV=    3758096384 using IRadAn=       1.
          Solving linear equations simultaneously, MaxMat=       0.
          There are    36 degrees of freedom in the 1st order CPHF.  IDoFFX=6 NUNeed=     0.
     30 vectors produced by pass  0 Test12= 3.16D-14 2.78D-09 XBig12= 1.47D-01 8.28D-02.
 AX will form    30 AO Fock derivatives at one time.
     30 vectors produced by pass  1 Test12= 3.16D-14 2.78D-09 XBig12= 4.84D-02 1.19D-01.
     30 vectors produced by pass  2 Test12= 3.16D-14 2.78D-09 XBig12= 1.78D-03 7.89D-03.
     30 vectors produced by pass  3 Test12= 3.16D-14 2.78D-09 XBig12= 2.63D-05 9.36D-04.
     30 vectors produced by pass  4 Test12= 3.16D-14 2.78D-09 XBig12= 3.55D-07 1.34D-04.
     30 vectors produced by pass  5 Test12= 3.16D-14 2.78D-09 XBig12= 3.02D-09 7.78D-06.
     30 vectors produced by pass  6 Test12= 3.16D-14 2.78D-09 XBig12= 2.35D-11 6.22D-07.
     15 vectors produced by pass  7 Test12= 3.16D-14 2.78D-09 XBig12= 1.20D-13 3.79D-08.
 InvSVY:  IOpt=1 It=  1 EMax= 1.33D-15
 Solved reduced A of dimension   225 with    30 vectors.
 End of Minotr F.D. properties file   721 does not exist.
 End of Minotr F.D. properties file   722 does not exist.
 End of Minotr F.D. properties file   788 does not exist.
 Leave Link 1002 at Sat May 24 04:28:44 2025, MaxMem=  3758096384 cpu:             418.8 elap:              53.2
 (Enter /apps/easybuild-2022/easybuild/software/Compiler/NVHPC/22.11-CUDA-11.7.0/Gaussian/g16c01-CUDA-11.7.0/g16/l701.exe)
 ... and contract with generalized density number  0.
 Compute integral second derivatives.
   1 Symmetry operations used in ECPInt.
 ECPInt:  NShTT=    6786 NPrTT=   21959 LenC2=    6477 LenP2D=   15942.
 LDataN:  DoStor=T MaxTD1= 8 Len=  415
 Leave Link  701 at Sat May 24 04:28:44 2025, MaxMem=  3758096384 cpu:               0.7 elap:               0.1
 (Enter /apps/easybuild-2022/easybuild/software/Compiler/NVHPC/22.11-CUDA-11.7.0/Gaussian/g16c01-CUDA-11.7.0/g16/l702.exe)
 L702 exits ... SP integral derivatives will be done elsewhere.
 Leave Link  702 at Sat May 24 04:28:44 2025, MaxMem=  3758096384 cpu:               0.0 elap:               0.0
 (Enter /apps/easybuild-2022/easybuild/software/Compiler/NVHPC/22.11-CUDA-11.7.0/Gaussian/g16c01-CUDA-11.7.0/g16/l703.exe)
 Integral derivatives from FoFJK, PRISM(SPDF).
 Compute integral second derivatives, UseDBF=F ICtDFT=           0.
 Calling FoFJK, ICntrl=    100127 FMM=F ISym2X=0 I1Cent= 0 IOpClX= 0 NMat=1 NMatS=1 NMatT=0.
 FoFJK:  IHMeth= 1 ICntrl=  100127 DoSepK=F KAlg= 0 I1Cent=           0 FoldK=F
 IRaf=         0 NMat=       1 IRICut=       1 DoRegI=T DoRafI=F ISym2E= 0 IDoP0=0 IntGTp=1.
 FoFCou: FMM=F IPFlag=           0 FMFlag=      100000 FMFlg1=         800
         NFxFlg=           0 DoJE=F BraDBF=F KetDBF=F FulRan=T
         wScrn=  0.000000 ICntrl=    100127 IOpCl=  0 I1Cent=           0 NGrid=           0
         NMat0=    1 NMatS0=      1 NMatT0=    0 NMatD0=    1 NMtDS0=    0 NMtDT0=    0
 Symmetry not used in FoFCou.
 Leave Link  703 at Sat May 24 04:30:18 2025, MaxMem=  3758096384 cpu:             744.5 elap:              93.6
 (Enter /apps/easybuild-2022/easybuild/software/Compiler/NVHPC/22.11-CUDA-11.7.0/Gaussian/g16c01-CUDA-11.7.0/g16/l716.exe)
 Dipole        = 6.94492134D-01-3.81053549D-01 1.97156563D-01
 Polarizability= 0.00000000D+00 0.00000000D+00 0.00000000D+00
                 0.00000000D+00 0.00000000D+00 0.00000000D+00
 -------------------------------------------------------------------
 Center     Atomic                   Forces (Hartrees/Bohr)
 Number     Number              X              Y              Z
 -------------------------------------------------------------------
      1        6           0.005091047    0.003383233   -0.001302551
      2        8          -0.009449008   -0.009939971    0.003817432
      3        6           0.004090774    0.000440962    0.000148056
      4        6           0.001348607   -0.000092214   -0.000621768
      5        9           0.001444826   -0.000163359   -0.000645346
      6        9           0.000290623   -0.000093902    0.000229687
      7        9          -0.000112421    0.000115673    0.000386608
      8        9           0.001942570   -0.001243187    0.001238328
      9        9           0.003616926    0.000624583    0.000709535
     10        8          -0.008502173    0.009584425   -0.005225262
     11        1           0.000238229   -0.002616243    0.001265280
 -------------------------------------------------------------------
 Cartesian Forces:  Max     0.009939971 RMS     0.003831766
 Force constants in Cartesian coordinates: 
                1             2             3             4             5 
      1  0.680875D+00
      2  0.131399D+00  0.897017D+00
      3 -0.378235D-01 -0.301736D+00  0.363801D+00
      4 -0.221111D+00  0.102845D+00 -0.578864D-01  0.636022D+00
      5  0.768018D-01 -0.209885D+00  0.718812D-01  0.323265D-01  0.398852D+00
      6 -0.450709D-01  0.739042D-01 -0.102486D+00  0.275673D-01 -0.163738D+00
      7 -0.161868D+00 -0.879882D-03  0.208192D-01 -0.101760D-01 -0.215898D-02
      8 -0.148299D-01 -0.534280D-01 -0.115738D-01  0.289996D-01 -0.853679D-03
      9 -0.840228D-02 -0.182295D-01 -0.936095D-01 -0.914284D-02  0.202126D-02
     10 -0.121095D-01  0.912269D-03  0.324587D-01 -0.365496D-04  0.525102D-03
     11  0.944761D-04  0.195574D-01  0.183255D-02 -0.621634D-03 -0.417755D-02
     12  0.300874D-01  0.530583D-02  0.142136D-01 -0.950125D-02  0.247272D-02
     13  0.769578D-02  0.365684D-02  0.572798D-02 -0.255601D-02  0.260979D-03
     14 -0.232400D-03 -0.187968D-02 -0.286562D-03  0.276178D-05  0.488184D-03
     15 -0.615854D-02 -0.225593D-02 -0.656211D-02  0.240770D-02 -0.500949D-03
     16 -0.162258D-02  0.244325D-02 -0.461826D-02 -0.576831D-03 -0.113552D-02
     17  0.308976D-02 -0.359239D-02  0.227720D-02 -0.161664D-02  0.179432D-02
     18 -0.636137D-02  0.130181D-03 -0.270995D-02  0.443847D-02 -0.127280D-02
     19 -0.458713D-03 -0.218921D-02 -0.160643D-02  0.963378D-04  0.440654D-03
     20 -0.348242D-02 -0.621837D-02  0.169909D-03  0.734775D-03  0.154935D-02
     21 -0.467275D-02 -0.550598D-03 -0.163803D-02  0.178278D-02 -0.259998D-03
     22 -0.233988D-01  0.297710D-01 -0.344551D-01 -0.119587D-01 -0.239378D-02
     23  0.391207D-02 -0.105943D-01  0.112688D-01  0.271678D-02  0.302551D-02
     24 -0.534391D-02  0.165447D-01 -0.541932D-02 -0.365778D-02 -0.255134D-02
     25  0.501543D-02 -0.364213D-01 -0.167109D-01 -0.235844D-02  0.220474D-02
     26  0.288640D-02 -0.280453D-01 -0.771045D-02 -0.471466D-02  0.522389D-02
     27  0.264272D-02 -0.461065D-02  0.505632D-02 -0.899321D-03  0.107738D-02
     28 -0.226373D+00 -0.232301D+00  0.981331D-01  0.382198D-01  0.304184D-01
     29 -0.241512D+00 -0.619748D+00  0.236138D+00  0.203152D-01 -0.918092D-01
     30  0.103495D+00  0.236846D+00 -0.177573D+00 -0.906035D-02  0.604098D-01
     31 -0.466445D-01  0.765088D-03 -0.403847D-02 -0.425564D+00 -0.137290D+00
     32  0.418735D-01  0.168168D-01 -0.226101D-02 -0.180987D+00 -0.104208D+00
     33 -0.223920D-01 -0.534847D-02  0.692704D-02  0.539516D-01  0.304612D-01
                6             7             8             9            10 
      6  0.117596D+00
      7 -0.215295D-02  0.528127D+00
      8  0.442080D-02  0.505183D-03  0.569419D+00
      9  0.824603D-02  0.381858D-01 -0.768940D-02  0.557252D+00
     10 -0.350296D-02 -0.894096D-01  0.780305D-02  0.735104D-01  0.606541D+00
     11  0.227818D-02 -0.322042D-03 -0.400356D-01 -0.167388D-01 -0.183287D-02
     12 -0.549451D-02  0.356555D-01 -0.222589D-01 -0.168231D+00 -0.140763D-01
     13 -0.375747D-03 -0.525334D-01 -0.601336D-02 -0.387626D-02 -0.319557D+00
     14 -0.213811D-03  0.273665D-02  0.267158D-02  0.320699D-04 -0.159131D-01
     15  0.127436D-02  0.365420D-01  0.403828D-02  0.917239D-03  0.175325D-01
     16  0.250690D-02  0.765191D-02 -0.112361D-03 -0.181867D-03 -0.991496D-01
     17 -0.143999D-02  0.791371D-02 -0.122048D-01  0.683897D-02  0.454919D-01
     18  0.138655D-02 -0.188835D-01  0.375593D-01 -0.194442D-01 -0.435883D-01
     19  0.112583D-03  0.785567D-02  0.522496D-02  0.684839D-03 -0.848684D-01
     20 -0.549887D-03 -0.826111D-02 -0.295009D-01 -0.387744D-02 -0.336518D-01
     21  0.800123D-03 -0.938562D-02 -0.373524D-01 -0.296152D-02 -0.109063D-01
     22  0.626757D-03 -0.132184D+00  0.616004D-01 -0.830562D-01 -0.155487D-02
     23 -0.682371D-03  0.726432D-01 -0.149094D+00  0.102555D+00  0.812572D-02
     24  0.968741D-03 -0.780540D-01  0.889718D-01 -0.191528D+00 -0.312487D-01
     25  0.727391D-03 -0.913003D-01 -0.564006D-01 -0.263946D-01  0.312082D-02
     26 -0.488250D-03 -0.583649D-01 -0.267003D+00 -0.926561D-01 -0.101943D-01
     27 -0.188618D-03 -0.196185D-01 -0.755867D-01 -0.106897D+00 -0.156196D-01
     28 -0.140447D-01 -0.637048D-02 -0.295451D-01  0.201242D-01 -0.169609D-02
     29  0.593926D-01 -0.143959D-01 -0.169378D-01  0.240905D-01 -0.131676D-02
     30  0.536409D-02 -0.133646D-02  0.164726D-01  0.121070D-01 -0.394867D-02
     31  0.336062D-01  0.207583D-03  0.276816D-02 -0.145126D-02 -0.127987D-02
     32  0.271170D-01  0.584137D-03 -0.303342D-02  0.365297D-02  0.508210D-04
     33 -0.274663D-01 -0.177155D-02  0.299844D-02  0.414968D-02 -0.610675D-03
               11            12            13            14            15 
     11  0.595009D+00
     12  0.341756D-03  0.622763D+00
     13 -0.151749D-01  0.262099D-01  0.449153D+00
     14 -0.773529D-01 -0.379590D-04  0.325570D-01  0.852244D-01
     15 -0.274436D-03 -0.860649D-01  0.154980D-01 -0.141549D-02  0.750202D-01
     16  0.467433D-01 -0.487011D-01 -0.525241D-01  0.392857D-01 -0.449834D-01
     17 -0.173328D+00  0.113603D+00  0.278292D-01  0.317930D-02  0.108793D-01
     18  0.104182D+00 -0.210778D+00 -0.307063D-01  0.107247D-01  0.151997D-02
     19 -0.365304D-01 -0.142168D-01 -0.383444D-01 -0.581557D-01 -0.242737D-01
     20 -0.263154D+00 -0.981192D-01 -0.422138D-01 -0.192075D-01 -0.112703D-01
     21 -0.886009D-01 -0.131093D+00 -0.153863D-01 -0.904866D-02  0.103890D-01
     22  0.384803D-02  0.185756D-02  0.640455D-02 -0.197596D-02  0.133923D-02
     23 -0.122050D-01  0.998464D-02 -0.132213D-02  0.191976D-02 -0.112328D-02
     24  0.370908D-01 -0.267484D-01  0.179974D-02 -0.179375D-02  0.170710D-02
     25  0.584452D-02  0.420182D-02  0.537821D-02  0.134068D-02 -0.113342D-02
     26 -0.355338D-01 -0.406891D-02  0.357505D-02  0.393618D-02 -0.345873D-03
     27 -0.396855D-01 -0.639251D-02  0.130870D-02  0.203543D-02  0.885130D-03
     28 -0.198078D-02 -0.116450D-01 -0.358148D-02  0.328129D-03  0.326607D-02
     29 -0.915688D-02 -0.724298D-02 -0.291608D-02  0.107365D-02  0.221481D-02
     30 -0.650429D-03 -0.211721D-02  0.847534D-04  0.206599D-04  0.789543D-03
     31 -0.677459D-04  0.128330D-03  0.464664D-03  0.263036D-04 -0.364831D-04
     32  0.376799D-03  0.201919D-04 -0.238839D-03 -0.528362D-04  0.538091D-04
     33  0.225156D-03 -0.568018D-04 -0.284448D-03 -0.165836D-04  0.124397D-03
               16            17            18            19            20 
     16  0.129668D+00
     17 -0.910848D-01  0.255136D+00
     18  0.888332D-01 -0.162901D+00  0.224282D+00
     19  0.139093D-01  0.109847D-01  0.241900D-02  0.998770D-01
     20  0.558268D-02 -0.804116D-01  0.115457D-01  0.773393D-01  0.389215D+00
     21  0.197087D-02  0.281309D-01  0.200073D-01  0.313460D-01  0.113020D+00
     22  0.119061D-02 -0.128544D-02  0.114001D-02  0.808365D-03 -0.910440D-03
     23 -0.624753D-03  0.986907D-03  0.284886D-02 -0.715918D-03  0.593222D-02
     24  0.276804D-02  0.325309D-02 -0.148005D-01  0.169259D-02 -0.348822D-02
     25  0.469813D-03 -0.366073D-03  0.299004D-03  0.577305D-03  0.257610D-02
     26 -0.681139D-04  0.670243D-02 -0.291836D-02  0.188007D-02 -0.247902D-02
     27  0.115720D-02 -0.114633D-04  0.206678D-03  0.296719D-02 -0.732492D-02
     28  0.616152D-03 -0.833072D-03  0.238342D-02  0.278115D-03  0.225271D-02
     29 -0.104299D-02  0.174313D-02  0.156076D-03  0.188822D-02  0.450924D-02
     30  0.877054D-03 -0.501742D-03  0.604229D-03  0.939006D-03  0.933359D-04
     31  0.367290D-03 -0.123279D-03  0.263045D-04  0.269404D-03  0.340711D-04
     32  0.136350D-04 -0.529695D-05 -0.546947D-04 -0.166667D-03 -0.234737D-03
     33  0.371318D-03 -0.128534D-03 -0.273633D-03 -0.643141D-04 -0.198844D-03
               21            22            23            24            25 
     21  0.115990D+00
     22  0.612446D-04  0.149149D+00
     23  0.108376D-02 -0.103837D+00  0.226781D+00
     24 -0.216786D-03  0.106967D+00 -0.148392D+00  0.216006D+00
     25  0.259003D-02  0.118518D-01  0.204892D-01  0.412060D-02  0.762103D-01
     26 -0.750373D-02  0.112012D-01 -0.719624D-01  0.140367D-01  0.638770D-01
     27 -0.107915D-01  0.442229D-02  0.268992D-01  0.175022D-01  0.260318D-01
     28  0.272371D-02  0.139947D-03 -0.182844D-02  0.110045D-02 -0.996787D-02
     29  0.117102D-02  0.197785D-02  0.559904D-02 -0.427214D-02 -0.294825D-02
     30 -0.238098D-03  0.146438D-02 -0.467898D-02  0.303426D-02  0.541060D-02
     31 -0.123624D-03 -0.447639D-03  0.441686D-03 -0.144302D-03  0.100292D-02
     32 -0.891653D-04  0.200457D-02 -0.389354D-03  0.600540D-03 -0.195944D-03
     33 -0.248269D-03 -0.367546D-03  0.236107D-03 -0.506031D-03  0.857657D-03
               26            27            28            29            30 
     26  0.389554D+00
     27  0.992005D-01  0.100854D+00
     28 -0.980529D-02 -0.270605D-02  0.203274D+00
     29 -0.784071D-03 -0.170082D-02  0.248653D+00  0.730300D+00
     30  0.189281D-02  0.644733D-04 -0.102677D+00 -0.308740D+00  0.163518D+00
     31 -0.272451D-03  0.313587D-03  0.546049D-02 -0.870259D-02  0.475154D-02
     32  0.391597D-03 -0.292510D-03 -0.535857D-02 -0.478910D-02 -0.116388D-02
     33  0.561662D-03 -0.298463D-03  0.334181D-02 -0.120692D-02 -0.555379D-02
               31            32            33 
     31  0.466164D+00
     32  0.142421D+00  0.951274D-01
     33 -0.330319D-01 -0.275832D-01  0.232022D-01
 FormGI is forming the generalized inverse of G from B-inverse, IUseBI=4.
 Leave Link  716 at Sat May 24 04:30:18 2025, MaxMem=  3758096384 cpu:               0.1 elap:               0.0
 (Enter /apps/easybuild-2022/easybuild/software/Compiler/NVHPC/22.11-CUDA-11.7.0/Gaussian/g16c01-CUDA-11.7.0/g16/l103.exe)

 GradGradGradGradGradGradGradGradGradGradGradGradGradGradGradGradGradGrad
 Berny optimization.
 Red2BG is reusing G-inverse.
 Internal  Forces:  Max     0.023544122 RMS     0.005453440
 Search for a local minimum.
 Step number   1 out of a maximum of   53
 All quantities printed in internal units (Hartrees-Bohrs-Radians)
 RMS Force = .54534D-02 SwitMx=.10000D-02 MixMth= 1
 Mixed Optimization -- RFO/linear search
 Second derivative matrix not updated -- analytic derivatives used.
 ITU=  0
     Eigenvalues ---    0.00010   0.00314   0.01865   0.04366   0.06053
     Eigenvalues ---    0.09626   0.10396   0.10629   0.14578   0.15327
     Eigenvalues ---    0.15984   0.18830   0.19724   0.22858   0.23784
     Eigenvalues ---    0.24387   0.26252   0.32347   0.38992   0.39581
     Eigenvalues ---    0.41676   0.42034   0.46782   0.50869   0.52565
     Eigenvalues ---    0.58575   0.99170
 RFO step:  Lambda=-4.66827138D-03 EMin= 1.02493735D-04
 Linear search not attempted -- first point.
 Iteration  1 RMS(Cart)=  0.06155020 RMS(Int)=  0.00243785
 Iteration  2 RMS(Cart)=  0.00302526 RMS(Int)=  0.00005036
 Iteration  3 RMS(Cart)=  0.00000272 RMS(Int)=  0.00005034
 Iteration  4 RMS(Cart)=  0.00000000 RMS(Int)=  0.00005034
 ITry= 1 IFail=0 DXMaxC= 2.03D-01 DCOld= 1.00D+10 DXMaxT= 3.00D-01 DXLimC= 3.00D+00 Rises=F
 Variable       Old X    -DE/DX   Delta X   Delta X   Delta X     New X
                                 (Linear)    (Quad)   (Total)
    R1        2.50501   0.00537   0.00000   0.00407   0.00407   2.50908
    R2        2.95267  -0.01225   0.00000  -0.04001  -0.04001   2.91266
    R3        2.24501   0.00701   0.00000  -0.00086  -0.00086   2.24415
    R4        1.83051  -0.00083   0.00000  -0.00218  -0.00218   1.82833
    R5        2.92230  -0.00177   0.00000  -0.00413  -0.00413   2.91817
    R6        2.52371  -0.00245   0.00000  -0.00404  -0.00404   2.51967
    R7        2.53370  -0.00153   0.00000   0.00080   0.00080   2.53450
    R8        2.50141  -0.00141   0.00000  -0.00117  -0.00117   2.50024
    R9        2.50464   0.00032   0.00000   0.00007   0.00007   2.50471
   R10        2.50823   0.00021   0.00000   0.00148   0.00148   2.50972
    A1        2.01940  -0.02031   0.00000  -0.09228  -0.09228   1.92711
    A2        2.12875   0.02354   0.00000   0.07677   0.07677   2.20552
    A3        2.13493  -0.00324   0.00000   0.01558   0.01557   2.15051
    A4        1.83769   0.00511   0.00000   0.04951   0.04951   1.88719
    A5        1.96561  -0.00133   0.00000  -0.00176  -0.00188   1.96373
    A6        1.88446   0.00050   0.00000   0.01655   0.01657   1.90103
    A7        1.95070  -0.00266   0.00000  -0.02593  -0.02595   1.92475
    A8        1.87720   0.00112   0.00000   0.00447   0.00440   1.88160
    A9        1.88477   0.00188   0.00000   0.00134   0.00116   1.88593
   A10        1.89884   0.00067   0.00000   0.00674   0.00683   1.90567
   A11        1.92380  -0.00141   0.00000  -0.00523  -0.00523   1.91858
   A12        1.92359   0.00004   0.00000   0.00548   0.00548   1.92907
   A13        1.91016   0.00090   0.00000   0.00214   0.00213   1.91229
   A14        1.90156   0.00051   0.00000  -0.00056  -0.00055   1.90100
   A15        1.90325   0.00029   0.00000   0.00014   0.00014   1.90339
   A16        1.90118  -0.00031   0.00000  -0.00199  -0.00201   1.89917
    D1       -3.12550   0.00004   0.00000   0.00082   0.00077  -3.12473
    D2        0.00083   0.00003   0.00000   0.00543   0.00549   0.00632
    D3        1.34989  -0.00033   0.00000  -0.00985  -0.00982   1.34007
    D4       -2.86332   0.00059   0.00000   0.00540   0.00544  -2.85788
    D5       -0.77556   0.00015   0.00000   0.00880   0.00867  -0.76689
    D6       -1.77637  -0.00058   0.00000  -0.01507  -0.01500  -1.79137
    D7        0.29360   0.00034   0.00000   0.00018   0.00027   0.29387
    D8        2.38136  -0.00010   0.00000   0.00359   0.00349   2.38485
    D9        3.01663   0.00136   0.00000   0.02291   0.02292   3.03955
   D10       -1.16698   0.00111   0.00000   0.02237   0.02238  -1.14460
   D11        0.92348   0.00131   0.00000   0.02464   0.02465   0.94814
   D12        0.94242   0.00079   0.00000   0.00063   0.00063   0.94305
   D13        3.04199   0.00055   0.00000   0.00009   0.00009   3.04209
   D14       -1.15073   0.00075   0.00000   0.00236   0.00237  -1.14836
   D15       -1.10416  -0.00157   0.00000  -0.01035  -0.01037  -1.11452
   D16        0.99542  -0.00182   0.00000  -0.01089  -0.01091   0.98451
   D17        3.08588  -0.00162   0.00000  -0.00862  -0.00863   3.07725
         Item               Value     Threshold  Converged?
 Maximum Force            0.023544     0.000450     NO 
 RMS     Force            0.005453     0.000300     NO 
 Maximum Displacement     0.203342     0.001800     NO 
 RMS     Displacement     0.062955     0.001200     NO 
 Predicted change in Energy=-2.386090D-03
 Lowest energy point so far.  Saving SCF results.
 GradGradGradGradGradGradGradGradGradGradGradGradGradGradGradGradGradGrad

 Leave Link  103 at Sat May 24 04:30:18 2025, MaxMem=  3758096384 cpu:               0.0 elap:               0.0
 (Enter /apps/easybuild-2022/easybuild/software/Compiler/NVHPC/22.11-CUDA-11.7.0/Gaussian/g16c01-CUDA-11.7.0/g16/l202.exe)
                          Input orientation:                          
 ---------------------------------------------------------------------
 Center     Atomic      Atomic             Coordinates (Angstroms)
 Number     Number       Type             X           Y           Z
 ---------------------------------------------------------------------
      1          6           0        1.386224    0.198962   -0.659633
      2          8           0        2.094007   -0.799364   -0.144562
      3          6           0       -0.119931   -0.122786   -0.599521
      4          6           0       -0.707374    0.059242    0.816964
      5          9           0       -2.019614   -0.106770    0.785674
      6          9           0       -0.182378   -0.823455    1.654819
      7          9           0       -0.435410    1.282272    1.257468
      8          9           0       -0.771301    0.701873   -1.420177
      9          9           0       -0.340302   -1.389471   -0.981316
     10          8           0        1.817602    1.213312   -1.101551
     11          1           0        3.029815   -0.557030   -0.184788
 ---------------------------------------------------------------------
                    Distance matrix (angstroms):
                    1          2          3          4          5
     1  C    0.000000
     2  O    1.327746   0.000000
     3  C    1.541311   2.359293   0.000000
     4  C    2.565738   3.083742   1.544232   0.000000
     5  F    3.712428   4.273980   2.351131   1.323070   0.000000
     6  F    2.977001   2.901772   2.361542   1.325434   2.155107
     7  F    2.857829   3.563263   2.349919   1.328085   2.159104
     8  F    2.342277   3.477196   1.333350   2.328489   2.660445
     9  F    2.368014   2.640879   1.341202   2.338231   2.754573
    10  O    1.187554   2.245683   2.406498   3.374623   4.475318
    11  H    1.870399   0.967513   3.206473   3.917891   5.161518
                    6          7          8          9         10
     6  F    0.000000
     7  F    2.157776   0.000000
     8  F    3.482679   2.760338   0.000000
     9  F    2.700837   3.487034   2.179926   0.000000
    10  O    3.968113   3.262789   2.658103   3.383118   0.000000
    11  H    3.711242   4.179822   4.190406   3.561615   2.333244
                   11
    11  H    0.000000
 Symmetry turned off by external request.
 Stoichiometry    C3HF5O2
 Rotational constants (GHZ):           1.9027257           1.1835098           1.1319233
 Leave Link  202 at Sat May 24 04:30:18 2025, MaxMem=  3758096384 cpu:               0.0 elap:               0.0
 (Enter /apps/easybuild-2022/easybuild/software/Compiler/NVHPC/22.11-CUDA-11.7.0/Gaussian/g16c01-CUDA-11.7.0/g16/l301.exe)
 Standard basis: def2TZVPP (5D, 7F)
 Ernie: Thresh=  0.10000D-02 Tol=  0.10000D-05 Strict=F.
   324 basis functions,   527 primitive gaussians,   375 cartesian basis functions
    40 alpha electrons       40 beta electrons
       nuclear repulsion energy       640.6452151387 Hartrees.
 IExCor= 4336 DFT=T Ex+Corr=M062X ExCW=0 ScaHFX=  0.540000
 ScaDFX=  1.000000  1.000000  1.000000  1.000000 ScalE2=  1.000000  1.000000
 IRadAn=      5 IRanWt=     -1 IRanGd=            0 ICorTp=0 IEmpDi=  4
 NAtoms=   11 NActive=   11 NUniq=   11 SFac= 1.00D+00 NAtFMM=   60 NAOKFM=F Big=F
 Integral buffers will be    131072 words long.
 Raffenetti 2 integral format.
 Two-electron integral symmetry is turned off.
 Leave Link  301 at Sat May 24 04:30:18 2025, MaxMem=  3758096384 cpu:               0.0 elap:               0.0
 (Enter /apps/easybuild-2022/easybuild/software/Compiler/NVHPC/22.11-CUDA-11.7.0/Gaussian/g16c01-CUDA-11.7.0/g16/l302.exe)
 NPDir=0 NMtPBC=     1 NCelOv=     1 NCel=       1 NClECP=     1 NCelD=      1
         NCelK=      1 NCelE2=     1 NClLst=     1 CellRange=     0.0.
 One-electron integrals computed using PRISM.
   1 Symmetry operations used in ECPInt.
 ECPInt:  NShTT=    6786 NPrTT=   21959 LenC2=    6486 LenP2D=   15995.
 LDataN:  DoStor=T MaxTD1= 6 Len=  172
 NBasis=   324 RedAO= T EigKep=  3.26D-04  NBF=   324
 NBsUse=   324 1.00D-06 EigRej= -1.00D+00 NBFU=   324
 Precomputing XC quadrature grid using
 IXCGrd= 4 IRadAn=           5 IRanWt=          -1 IRanGd=           0 AccXCQ= 0.00D+00.
 Generated NRdTot=       0 NPtTot=           0 NUsed=           0 NTot=          32
 NSgBfM=   373   373   373   373   373 MxSgAt=    11 MxSgA2=    11.
 Leave Link  302 at Sat May 24 04:30:18 2025, MaxMem=  3758096384 cpu:               0.6 elap:               0.1
 (Enter /apps/easybuild-2022/easybuild/software/Compiler/NVHPC/22.11-CUDA-11.7.0/Gaussian/g16c01-CUDA-11.7.0/g16/l303.exe)
 DipDrv:  MaxL=1.
 Leave Link  303 at Sat May 24 04:30:18 2025, MaxMem=  3758096384 cpu:               0.1 elap:               0.0
 (Enter /apps/easybuild-2022/easybuild/software/Compiler/NVHPC/22.11-CUDA-11.7.0/Gaussian/g16c01-CUDA-11.7.0/g16/l401.exe)
 Initial guess from the checkpoint file:  "1642764945472630600001_r12_insertion_R_11_10_1_IRC_F_prod.chk"
 B after Tr=     0.010901    0.013156   -0.008132
         Rot=    0.999973    0.000794   -0.002450   -0.006923 Ang=   0.85 deg.
 Guess basis will be translated and rotated to current coordinates.
 JPrj=2 DoOrth=T DoCkMO=T.
 Generating alternative initial guess.
 ExpMin= 9.52D-02 ExpMax= 3.55D+04 ExpMxC= 1.21D+03 IAcc=3 IRadAn=         5 AccDes= 0.00D+00
 Harris functional with IExCor= 1009 and IRadAn=       5 diagonalized for initial guess.
 HarFok:  IExCor= 1009 AccDes= 0.00D+00 IRadAn=         5 IDoV= 1 UseB2=F ITyADJ=14
 ICtDFT=  3500011 ScaDFX=  1.000000  1.000000  1.000000  1.000000
 FoFCou: FMM=F IPFlag=           0 FMFlag=      100000 FMFlg1=           0
         NFxFlg=           0 DoJE=T BraDBF=F KetDBF=T FulRan=T
         wScrn=  0.000000 ICntrl=       500 IOpCl=  0 I1Cent=   200000004 NGrid=           0
         NMat0=    1 NMatS0=      1 NMatT0=    0 NMatD0=    1 NMtDS0=    0 NMtDT0=    0
 Symmetry not used in FoFCou.
 Harris En= -764.199504954850    
 Leave Link  401 at Sat May 24 04:30:19 2025, MaxMem=  3758096384 cpu:               3.2 elap:               0.5
 (Enter /apps/easybuild-2022/easybuild/software/Compiler/NVHPC/22.11-CUDA-11.7.0/Gaussian/g16c01-CUDA-11.7.0/g16/l502.exe)
 Keep R1 ints in memory in canonical form, NReq=1412617130.
 FoFCou: FMM=F IPFlag=           0 FMFlag=           0 FMFlg1=           0
         NFxFlg=           0 DoJE=F BraDBF=F KetDBF=F FulRan=T
         wScrn=  0.000000 ICntrl=       600 IOpCl=  0 I1Cent=           0 NGrid=           0
         NMat0=    1 NMatS0=  52650 NMatT0=    0 NMatD0=    1 NMtDS0=    0 NMtDT0=    0
 Symmetry not used in FoFCou.
 Two-electron integral symmetry not used.
 Closed shell SCF:
 Using DIIS extrapolation, IDIIS=  1040.
 NGot=  3758096384 LenX=  2371771924 LenY=  2371630858
 Requested convergence on RMS density matrix=1.00D-08 within  32 cycles.
 Requested convergence on MAX density matrix=1.00D-06.
 Requested convergence on             energy=1.00D-06.
 No special actions if energy rises.
 Integral accuracy reduced to 1.0D-05 until final iterations.

 Cycle   1  Pass 0  IDiag  1:
 E= -764.662051232301    
 DIIS: error= 3.09D-03 at cycle   1 NSaved=   1.
 NSaved= 1 IEnMin= 1 EnMin= -764.662051232301     IErMin= 1 ErrMin= 3.09D-03
 ErrMax= 3.09D-03  0.00D+00 EMaxC= 1.00D-01 BMatC= 5.58D-03 BMatP= 5.58D-03
 IDIUse=3 WtCom= 9.69D-01 WtEn= 3.09D-02
 Coeff-Com:  0.100D+01
 Coeff-En:   0.100D+01
 Coeff:      0.100D+01
 Gap=     1.046 Goal=   None    Shift=    0.000
 GapD=    1.046 DampG=2.000 DampE=1.000 DampFc=2.0000 IDamp=-1.
 RMSDP=2.23D-04 MaxDP=9.90D-03              OVMax= 1.61D-02

 Cycle   2  Pass 0  IDiag  1:
 E= -764.667892444990     Delta-E=       -0.005841212689 Rises=F Damp=F
 DIIS: error= 5.16D-04 at cycle   2 NSaved=   2.
 NSaved= 2 IEnMin= 2 EnMin= -764.667892444990     IErMin= 2 ErrMin= 5.16D-04
 ErrMax= 5.16D-04  0.00D+00 EMaxC= 1.00D-01 BMatC= 1.95D-04 BMatP= 5.58D-03
 IDIUse=3 WtCom= 9.95D-01 WtEn= 5.16D-03
 Coeff-Com: -0.985D-01 0.110D+01
 Coeff-En:   0.000D+00 0.100D+01
 Coeff:     -0.979D-01 0.110D+01
 Gap=     0.396 Goal=   None    Shift=    0.000
 RMSDP=5.91D-05 MaxDP=2.55D-03 DE=-5.84D-03 OVMax= 5.54D-03

 Cycle   3  Pass 0  IDiag  1:
 E= -764.668043394363     Delta-E=       -0.000150949373 Rises=F Damp=F
 DIIS: error= 5.35D-04 at cycle   3 NSaved=   3.
 NSaved= 3 IEnMin= 3 EnMin= -764.668043394363     IErMin= 2 ErrMin= 5.16D-04
 ErrMax= 5.35D-04  0.00D+00 EMaxC= 1.00D-01 BMatC= 1.78D-04 BMatP= 1.95D-04
 IDIUse=3 WtCom= 9.95D-01 WtEn= 5.35D-03
 Coeff-Com: -0.767D-01 0.590D+00 0.487D+00
 Coeff-En:   0.000D+00 0.000D+00 0.100D+01
 Coeff:     -0.763D-01 0.587D+00 0.490D+00
 Gap=     0.397 Goal=   None    Shift=    0.000
 RMSDP=2.43D-05 MaxDP=1.36D-03 DE=-1.51D-04 OVMax= 3.87D-03

 Cycle   4  Pass 0  IDiag  1:
 E= -764.668158913136     Delta-E=       -0.000115518773 Rises=F Damp=F
 DIIS: error= 1.42D-04 at cycle   4 NSaved=   4.
 NSaved= 4 IEnMin= 4 EnMin= -764.668158913136     IErMin= 4 ErrMin= 1.42D-04
 ErrMax= 1.42D-04  0.00D+00 EMaxC= 1.00D-01 BMatC= 6.60D-06 BMatP= 1.78D-04
 IDIUse=3 WtCom= 9.99D-01 WtEn= 1.42D-03
 Coeff-Com: -0.118D-01 0.370D-01 0.155D+00 0.820D+00
 Coeff-En:   0.000D+00 0.000D+00 0.000D+00 0.100D+01
 Coeff:     -0.118D-01 0.369D-01 0.154D+00 0.820D+00
 Gap=     0.397 Goal=   None    Shift=    0.000
 RMSDP=7.28D-06 MaxDP=3.31D-04 DE=-1.16D-04 OVMax= 1.06D-03

 Initial convergence to 1.0D-05 achieved.  Increase integral accuracy.
 Cycle   5  Pass 1  IDiag  1:
 E= -764.668239018127     Delta-E=       -0.000080104991 Rises=F Damp=F
 DIIS: error= 6.58D-05 at cycle   1 NSaved=   1.
 NSaved= 1 IEnMin= 1 EnMin= -764.668239018127     IErMin= 1 ErrMin= 6.58D-05
 ErrMax= 6.58D-05  0.00D+00 EMaxC= 1.00D-01 BMatC= 2.78D-06 BMatP= 2.78D-06
 IDIUse=1 WtCom= 1.00D+00 WtEn= 0.00D+00
 Coeff-Com:  0.100D+01
 Coeff:      0.100D+01
 Gap=     0.397 Goal=   None    Shift=    0.000
 RMSDP=7.28D-06 MaxDP=3.31D-04 DE=-8.01D-05 OVMax= 7.35D-04

 Cycle   6  Pass 1  IDiag  1:
 E= -764.668237766904     Delta-E=        0.000001251223 Rises=F Damp=F
 DIIS: error= 1.11D-04 at cycle   2 NSaved=   2.
 NSaved= 2 IEnMin= 1 EnMin= -764.668239018127     IErMin= 1 ErrMin= 6.58D-05
 ErrMax= 1.11D-04  0.00D+00 EMaxC= 1.00D-01 BMatC= 4.73D-06 BMatP= 2.78D-06
 IDIUse=3 WtCom= 4.87D-01 WtEn= 5.13D-01
 Coeff-Com:  0.571D+00 0.429D+00
 Coeff-En:   0.618D+00 0.382D+00
 Coeff:      0.595D+00 0.405D+00
 Gap=     0.397 Goal=   None    Shift=    0.000
 RMSDP=3.34D-06 MaxDP=2.19D-04 DE= 1.25D-06 OVMax= 5.40D-04

 Cycle   7  Pass 1  IDiag  1:
 E= -764.668240962053     Delta-E=       -0.000003195149 Rises=F Damp=F
 DIIS: error= 7.88D-06 at cycle   3 NSaved=   3.
 NSaved= 3 IEnMin= 3 EnMin= -764.668240962053     IErMin= 3 ErrMin= 7.88D-06
 ErrMax= 7.88D-06  0.00D+00 EMaxC= 1.00D-01 BMatC= 3.86D-08 BMatP= 2.78D-06
 IDIUse=1 WtCom= 1.00D+00 WtEn= 0.00D+00
 Coeff-Com:  0.825D-01 0.842D-01 0.833D+00
 Coeff:      0.825D-01 0.842D-01 0.833D+00
 Gap=     0.397 Goal=   None    Shift=    0.000
 RMSDP=8.34D-07 MaxDP=2.56D-05 DE=-3.20D-06 OVMax= 6.88D-05

 Cycle   8  Pass 1  IDiag  1:
 E= -764.668240977576     Delta-E=       -0.000000015523 Rises=F Damp=F
 DIIS: error= 5.87D-06 at cycle   4 NSaved=   4.
 NSaved= 4 IEnMin= 4 EnMin= -764.668240977576     IErMin= 4 ErrMin= 5.87D-06
 ErrMax= 5.87D-06  0.00D+00 EMaxC= 1.00D-01 BMatC= 2.24D-08 BMatP= 3.86D-08
 IDIUse=1 WtCom= 1.00D+00 WtEn= 0.00D+00
 Coeff-Com: -0.224D-01-0.236D-02 0.440D+00 0.585D+00
 Coeff:     -0.224D-01-0.236D-02 0.440D+00 0.585D+00
 Gap=     0.397 Goal=   None    Shift=    0.000
 RMSDP=3.22D-07 MaxDP=1.61D-05 DE=-1.55D-08 OVMax= 3.95D-05

 Cycle   9  Pass 1  IDiag  1:
 E= -764.668240993054     Delta-E=       -0.000000015478 Rises=F Damp=F
 DIIS: error= 1.04D-06 at cycle   5 NSaved=   5.
 NSaved= 5 IEnMin= 5 EnMin= -764.668240993054     IErMin= 5 ErrMin= 1.04D-06
 ErrMax= 1.04D-06  0.00D+00 EMaxC= 1.00D-01 BMatC= 8.05D-10 BMatP= 2.24D-08
 IDIUse=1 WtCom= 1.00D+00 WtEn= 0.00D+00
 Coeff-Com: -0.137D-01-0.487D-02 0.119D+00 0.227D+00 0.673D+00
 Coeff:     -0.137D-01-0.487D-02 0.119D+00 0.227D+00 0.673D+00
 Gap=     0.397 Goal=   None    Shift=    0.000
 RMSDP=6.50D-08 MaxDP=2.82D-06 DE=-1.55D-08 OVMax= 4.98D-06

 Cycle  10  Pass 1  IDiag  1:
 E= -764.668240993662     Delta-E=       -0.000000000608 Rises=F Damp=F
 DIIS: error= 1.86D-07 at cycle   6 NSaved=   6.
 NSaved= 6 IEnMin= 6 EnMin= -764.668240993662     IErMin= 6 ErrMin= 1.86D-07
 ErrMax= 1.86D-07  0.00D+00 EMaxC= 1.00D-01 BMatC= 3.92D-11 BMatP= 8.05D-10
 IDIUse=1 WtCom= 1.00D+00 WtEn= 0.00D+00
 Coeff-Com:  0.148D-02-0.624D-04-0.522D-01-0.502D-01 0.857D-01 0.102D+01
 Coeff:      0.148D-02-0.624D-04-0.522D-01-0.502D-01 0.857D-01 0.102D+01
 Gap=     0.397 Goal=   None    Shift=    0.000
 RMSDP=3.21D-08 MaxDP=1.24D-06 DE=-6.08D-10 OVMax= 2.33D-06

 Cycle  11  Pass 1  IDiag  1:
 E= -764.668240993728     Delta-E=       -0.000000000066 Rises=F Damp=F
 DIIS: error= 6.34D-08 at cycle   7 NSaved=   7.
 NSaved= 7 IEnMin= 7 EnMin= -764.668240993728     IErMin= 7 ErrMin= 6.34D-08
 ErrMax= 6.34D-08  0.00D+00 EMaxC= 1.00D-01 BMatC= 3.05D-12 BMatP= 3.92D-11
 IDIUse=1 WtCom= 1.00D+00 WtEn= 0.00D+00
 Coeff-Com:  0.801D-03 0.208D-03-0.193D-01-0.204D-01 0.238D-02 0.310D+00
 Coeff-Com:  0.726D+00
 Coeff:      0.801D-03 0.208D-03-0.193D-01-0.204D-01 0.238D-02 0.310D+00
 Coeff:      0.726D+00
 Gap=     0.397 Goal=   None    Shift=    0.000
 RMSDP=4.93D-09 MaxDP=1.64D-07 DE=-6.59D-11 OVMax= 4.43D-07

 SCF Done:  E(RM062X) =  -764.668240994     A.U. after   11 cycles
            NFock= 11  Conv=0.49D-08     -V/T= 2.0036
 KE= 7.619053212660D+02 PE=-3.093779002220D+03 EE= 9.265602248220D+02
 Leave Link  502 at Sat May 24 04:30:40 2025, MaxMem=  3758096384 cpu:              94.5 elap:              20.7
 (Enter /apps/easybuild-2022/easybuild/software/Compiler/NVHPC/22.11-CUDA-11.7.0/Gaussian/g16c01-CUDA-11.7.0/g16/l508.exe)
 QCSCF skips out because SCF is already converged.
 Leave Link  508 at Sat May 24 04:30:40 2025, MaxMem=  3758096384 cpu:               0.0 elap:               0.0
 (Enter /apps/easybuild-2022/easybuild/software/Compiler/NVHPC/22.11-CUDA-11.7.0/Gaussian/g16c01-CUDA-11.7.0/g16/l701.exe)
 ... and contract with generalized density number  0.
 Compute integral first derivatives.
   1 Symmetry operations used in ECPInt.
 ECPInt:  NShTT=    6786 NPrTT=   21959 LenC2=    6486 LenP2D=   15995.
 LDataN:  DoStor=T MaxTD1= 7 Len=  274
 Leave Link  701 at Sat May 24 04:30:40 2025, MaxMem=  3758096384 cpu:               0.5 elap:               0.1
 (Enter /apps/easybuild-2022/easybuild/software/Compiler/NVHPC/22.11-CUDA-11.7.0/Gaussian/g16c01-CUDA-11.7.0/g16/l702.exe)
 L702 exits ... SP integral derivatives will be done elsewhere.
 Leave Link  702 at Sat May 24 04:30:40 2025, MaxMem=  3758096384 cpu:               0.0 elap:               0.0
 (Enter /apps/easybuild-2022/easybuild/software/Compiler/NVHPC/22.11-CUDA-11.7.0/Gaussian/g16c01-CUDA-11.7.0/g16/l703.exe)
 Integral derivatives from FoFJK, PRISM(SPDF).
 Compute integral first derivatives, UseDBF=F ICtDFT=           0.
 Calling FoFJK, ICntrl=      2127 FMM=F ISym2X=0 I1Cent= 0 IOpClX= 0 NMat=1 NMatS=1 NMatT=0.
 FoFJK:  IHMeth= 1 ICntrl=    2127 DoSepK=F KAlg= 0 I1Cent=           0 FoldK=F
 IRaf=         0 NMat=       1 IRICut=       1 DoRegI=T DoRafI=F ISym2E= 0 IDoP0=0 IntGTp=1.
 FoFCou: FMM=F IPFlag=           0 FMFlag=      100000 FMFlg1=         800
         NFxFlg=           0 DoJE=F BraDBF=F KetDBF=F FulRan=T
         wScrn=  0.000000 ICntrl=      2127 IOpCl=  0 I1Cent=           0 NGrid=           0
         NMat0=    1 NMatS0=      1 NMatT0=    0 NMatD0=    1 NMtDS0=    0 NMtDT0=    0
 Symmetry not used in FoFCou.
 Leave Link  703 at Sat May 24 04:30:48 2025, MaxMem=  3758096384 cpu:              68.7 elap:               8.7
 (Enter /apps/easybuild-2022/easybuild/software/Compiler/NVHPC/22.11-CUDA-11.7.0/Gaussian/g16c01-CUDA-11.7.0/g16/l716.exe)
 Dipole        = 7.62561254D-01-4.20706194D-01 2.22976659D-01
 -------------------------------------------------------------------
 Center     Atomic                   Forces (Hartrees/Bohr)
 Number     Number              X              Y              Z
 -------------------------------------------------------------------
      1        6           0.001030369   -0.000377853    0.000232167
      2        8           0.001146107   -0.000842443    0.000543037
      3        6          -0.001121555    0.000331282   -0.000321292
      4        6           0.000096509   -0.000115244    0.000078093
      5        9           0.000024281   -0.000035210   -0.000018880
      6        9          -0.000085646    0.000065371    0.000066279
      7        9          -0.000035795    0.000028502   -0.000006709
      8        9          -0.000081436   -0.000030897   -0.000020642
      9        9          -0.000394208    0.000076707   -0.000120838
     10        8          -0.000647473    0.001204086   -0.000626983
     11        1           0.000068847   -0.000304301    0.000195768
 -------------------------------------------------------------------
 Cartesian Forces:  Max     0.001204086 RMS     0.000482358
 Leave Link  716 at Sat May 24 04:30:49 2025, MaxMem=  3758096384 cpu:               0.0 elap:               0.0
 (Enter /apps/easybuild-2022/easybuild/software/Compiler/NVHPC/22.11-CUDA-11.7.0/Gaussian/g16c01-CUDA-11.7.0/g16/l103.exe)

 GradGradGradGradGradGradGradGradGradGradGradGradGradGradGradGradGradGrad
 Berny optimization.
 Using GEDIIS/GDIIS optimizer.
 FormGI is forming the generalized inverse of G from B-inverse, IUseBI=4.
 Internal  Forces:  Max     0.001789455 RMS     0.000519901
 Search for a local minimum.
 Step number   2 out of a maximum of   53
 All quantities printed in internal units (Hartrees-Bohrs-Radians)
 RMS Force = .51990D-03 SwitMx=.10000D-02 MixMth= 2
 Mixed Optimization -- En-DIIS/RFO-DIIS
 Update second derivatives using D2CorX and points    1    2
 DE= -2.33D-03 DEPred=-2.39D-03 R= 9.77D-01
 TightC=F SS=  1.41D+00  RLast= 1.49D-01 DXNew= 5.0454D-01 4.4758D-01
 Trust test= 9.77D-01 RLast= 1.49D-01 DXMaxT set to 4.48D-01
 ITU=  1  0
 Use linear search instead of GDIIS.
     Eigenvalues ---    0.00010   0.00314   0.01865   0.04369   0.06105
     Eigenvalues ---    0.09627   0.10397   0.10633   0.14639   0.15465
     Eigenvalues ---    0.16243   0.19047   0.19717   0.22934   0.23767
     Eigenvalues ---    0.24387   0.26290   0.32426   0.38995   0.39582
     Eigenvalues ---    0.41665   0.42031   0.46278   0.50933   0.52615
     Eigenvalues ---    0.58573   0.98502
 RFO step:  Lambda=-6.80507636D-05 EMin= 1.02497424D-04
 Quartic linear search produced a step of -0.01822.
 Iteration  1 RMS(Cart)=  0.07862695 RMS(Int)=  0.00378342
 Iteration  2 RMS(Cart)=  0.00441843 RMS(Int)=  0.00001016
 Iteration  3 RMS(Cart)=  0.00001232 RMS(Int)=  0.00000412
 Iteration  4 RMS(Cart)=  0.00000000 RMS(Int)=  0.00000412
 ITry= 1 IFail=0 DXMaxC= 2.85D-01 DCOld= 1.00D+10 DXMaxT= 4.48D-01 DXLimC= 3.00D+00 Rises=F
 Variable       Old X    -DE/DX   Delta X   Delta X   Delta X     New X
                                 (Linear)    (Quad)   (Total)
    R1        2.50908   0.00179  -0.00007   0.00285   0.00277   2.51185
    R2        2.91266   0.00148   0.00073   0.00661   0.00734   2.91999
    R3        2.24415   0.00103   0.00002   0.00004   0.00006   2.24421
    R4        1.82833  -0.00002   0.00004  -0.00023  -0.00019   1.82814
    R5        2.91817   0.00010   0.00008   0.00003   0.00011   2.91828
    R6        2.51967   0.00003   0.00007  -0.00270  -0.00263   2.51704
    R7        2.53450   0.00003  -0.00001   0.00151   0.00149   2.53600
    R8        2.50024  -0.00002   0.00002   0.00014   0.00016   2.50040
    R9        2.50471  -0.00003  -0.00000  -0.00249  -0.00249   2.50222
   R10        2.50972   0.00002  -0.00003   0.00317   0.00314   2.51286
    A1        1.92711   0.00092   0.00168  -0.00071   0.00097   1.92808
    A2        2.20552   0.00078  -0.00140   0.00503   0.00362   2.20914
    A3        2.15051  -0.00170  -0.00028  -0.00428  -0.00456   2.14594
    A4        1.88719   0.00066  -0.00090   0.00539   0.00449   1.89168
    A5        1.96373  -0.00010   0.00003   0.00407   0.00411   1.96784
    A6        1.90103   0.00002  -0.00030  -0.00214  -0.00244   1.89859
    A7        1.92475   0.00033   0.00047  -0.00265  -0.00218   1.92257
    A8        1.88160   0.00001  -0.00008   0.00020   0.00012   1.88173
    A9        1.88593  -0.00012  -0.00002   0.00148   0.00146   1.88739
   A10        1.90567  -0.00015  -0.00012  -0.00099  -0.00112   1.90454
   A11        1.91858  -0.00009   0.00010   0.00038   0.00046   1.91904
   A12        1.92907   0.00023  -0.00010   0.00600   0.00590   1.93498
   A13        1.91229  -0.00001  -0.00004  -0.00505  -0.00509   1.90721
   A14        1.90100  -0.00007   0.00001  -0.00081  -0.00081   1.90019
   A15        1.90339   0.00001  -0.00000  -0.00063  -0.00064   1.90275
   A16        1.89917  -0.00007   0.00004   0.00006   0.00011   1.89928
    D1       -3.12473   0.00008  -0.00001  -0.00572  -0.00574  -3.13047
    D2        0.00632  -0.00000  -0.00010  -0.00214  -0.00224   0.00408
    D3        1.34007  -0.00007   0.00018  -0.15168  -0.15150   1.18857
    D4       -2.85788  -0.00010  -0.00010  -0.15030  -0.15040  -3.00828
    D5       -0.76689  -0.00008  -0.00016  -0.15445  -0.15461  -0.92150
    D6       -1.79137  -0.00000   0.00027  -0.15519  -0.15491  -1.94628
    D7        0.29387  -0.00004  -0.00000  -0.15381  -0.15382   0.14005
    D8        2.38485  -0.00001  -0.00006  -0.15797  -0.15802   2.22683
    D9        3.03955  -0.00009  -0.00042  -0.04052  -0.04094   2.99861
   D10       -1.14460  -0.00010  -0.00041  -0.03746  -0.03787  -1.18247
   D11        0.94814  -0.00005  -0.00045  -0.03685  -0.03730   0.91084
   D12        0.94305  -0.00006  -0.00001  -0.04049  -0.04051   0.90255
   D13        3.04209  -0.00007  -0.00000  -0.03743  -0.03743   3.00465
   D14       -1.14836  -0.00001  -0.00004  -0.03681  -0.03686  -1.18523
   D15       -1.11452   0.00017   0.00019  -0.04022  -0.04003  -1.15455
   D16        0.98451   0.00017   0.00020  -0.03716  -0.03696   0.94756
   D17        3.07725   0.00022   0.00016  -0.03654  -0.03639   3.04086
         Item               Value     Threshold  Converged?
 Maximum Force            0.001789     0.000450     NO 
 RMS     Force            0.000520     0.000300     NO 
 Maximum Displacement     0.284775     0.001800     NO 
 RMS     Displacement     0.078837     0.001200     NO 
 Predicted change in Energy=-4.022127D-05
 Lowest energy point so far.  Saving SCF results.
 GradGradGradGradGradGradGradGradGradGradGradGradGradGradGradGradGradGrad

 Leave Link  103 at Sat May 24 04:30:49 2025, MaxMem=  3758096384 cpu:               0.1 elap:               0.0
 (Enter /apps/easybuild-2022/easybuild/software/Compiler/NVHPC/22.11-CUDA-11.7.0/Gaussian/g16c01-CUDA-11.7.0/g16/l202.exe)
                          Input orientation:                          
 ---------------------------------------------------------------------
 Center     Atomic      Atomic             Coordinates (Angstroms)
 Number     Number       Type             X           Y           Z
 ---------------------------------------------------------------------
      1          6           0        1.382878    0.196024   -0.688309
      2          8           0        2.084038   -0.730043   -0.042102
      3          6           0       -0.128211   -0.116843   -0.608656
      4          6           0       -0.695207    0.035990    0.819626
      5          9           0       -2.013851   -0.070509    0.795749
      6          9           0       -0.204828   -0.894655    1.623812
      7          9           0       -0.365648    1.232534    1.297020
      8          9           0       -0.783853    0.730345   -1.400186
      9          9           0       -0.362622   -1.372857   -1.019046
     10          8           0        1.816870    1.146805   -1.252248
     11          1           0        3.021771   -0.500004   -0.102282
 ---------------------------------------------------------------------
                    Distance matrix (angstroms):
                    1          2          3          4          5
     1  C    0.000000
     2  O    1.329214   0.000000
     3  C    1.545193   2.364539   0.000000
     4  C    2.572530   3.008917   1.544289   0.000000
     5  F    3.716347   4.234345   2.351624   1.323153   0.000000
     6  F    3.009368   2.835714   2.365327   1.324117   2.153478
     7  F    2.841342   3.412612   2.347082   1.329749   2.160038
     8  F    2.342433   3.493126   1.331960   2.327564   2.641287
     9  F    2.370136   2.711785   1.341991   2.340123   2.777796
    10  O    1.187586   2.249087   2.407148   3.440509   4.511160
    11  H    1.874528   0.967411   3.213350   3.866928   5.133071
                    6          7          8          9         10
     6  F    0.000000
     7  F    2.158145   0.000000
     8  F    3.481446   2.775249   0.000000
     9  F    2.690405   3.486005   2.178569   0.000000
    10  O    4.065285   3.357008   2.638008   3.339651   0.000000
    11  H    3.680502   4.053930   4.204889   3.613371   2.342261
                   11
    11  H    0.000000
 Symmetry turned off by external request.
 Stoichiometry    C3HF5O2
 Rotational constants (GHZ):           1.9078053           1.1965596           1.1169020
 Leave Link  202 at Sat May 24 04:30:49 2025, MaxMem=  3758096384 cpu:               0.0 elap:               0.0
 (Enter /apps/easybuild-2022/easybuild/software/Compiler/NVHPC/22.11-CUDA-11.7.0/Gaussian/g16c01-CUDA-11.7.0/g16/l301.exe)
 Standard basis: def2TZVPP (5D, 7F)
 Ernie: Thresh=  0.10000D-02 Tol=  0.10000D-05 Strict=F.
   324 basis functions,   527 primitive gaussians,   375 cartesian basis functions
    40 alpha electrons       40 beta electrons
       nuclear repulsion energy       640.5890044501 Hartrees.
 IExCor= 4336 DFT=T Ex+Corr=M062X ExCW=0 ScaHFX=  0.540000
 ScaDFX=  1.000000  1.000000  1.000000  1.000000 ScalE2=  1.000000  1.000000
 IRadAn=      5 IRanWt=     -1 IRanGd=            0 ICorTp=0 IEmpDi=  4
 NAtoms=   11 NActive=   11 NUniq=   11 SFac= 1.00D+00 NAtFMM=   60 NAOKFM=F Big=F
 Integral buffers will be    131072 words long.
 Raffenetti 2 integral format.
 Two-electron integral symmetry is turned off.
 Leave Link  301 at Sat May 24 04:30:49 2025, MaxMem=  3758096384 cpu:               0.0 elap:               0.0
 (Enter /apps/easybuild-2022/easybuild/software/Compiler/NVHPC/22.11-CUDA-11.7.0/Gaussian/g16c01-CUDA-11.7.0/g16/l302.exe)
 NPDir=0 NMtPBC=     1 NCelOv=     1 NCel=       1 NClECP=     1 NCelD=      1
         NCelK=      1 NCelE2=     1 NClLst=     1 CellRange=     0.0.
 One-electron integrals computed using PRISM.
   1 Symmetry operations used in ECPInt.
 ECPInt:  NShTT=    6786 NPrTT=   21959 LenC2=    6492 LenP2D=   16008.
 LDataN:  DoStor=T MaxTD1= 6 Len=  172
 NBasis=   324 RedAO= T EigKep=  3.16D-04  NBF=   324
 NBsUse=   324 1.00D-06 EigRej= -1.00D+00 NBFU=   324
 Precomputing XC quadrature grid using
 IXCGrd= 4 IRadAn=           5 IRanWt=          -1 IRanGd=           0 AccXCQ= 0.00D+00.
 Generated NRdTot=       0 NPtTot=           0 NUsed=           0 NTot=          32
 NSgBfM=   373   373   373   373   373 MxSgAt=    11 MxSgA2=    11.
 Leave Link  302 at Sat May 24 04:30:49 2025, MaxMem=  3758096384 cpu:               0.6 elap:               0.1
 (Enter /apps/easybuild-2022/easybuild/software/Compiler/NVHPC/22.11-CUDA-11.7.0/Gaussian/g16c01-CUDA-11.7.0/g16/l303.exe)
 DipDrv:  MaxL=1.
 Leave Link  303 at Sat May 24 04:30:49 2025, MaxMem=  3758096384 cpu:               0.1 elap:               0.0
 (Enter /apps/easybuild-2022/easybuild/software/Compiler/NVHPC/22.11-CUDA-11.7.0/Gaussian/g16c01-CUDA-11.7.0/g16/l401.exe)
 Initial guess from the checkpoint file:  "1642764945472630600001_r12_insertion_R_11_10_1_IRC_F_prod.chk"
 B after Tr=     0.001846   -0.008766   -0.011284
         Rot=    0.999977   -0.003106   -0.004064    0.004363 Ang=  -0.77 deg.
 Guess basis will be translated and rotated to current coordinates.
 JPrj=2 DoOrth=T DoCkMO=T.
 Generating alternative initial guess.
 ExpMin= 9.52D-02 ExpMax= 3.55D+04 ExpMxC= 1.21D+03 IAcc=3 IRadAn=         5 AccDes= 0.00D+00
 Harris functional with IExCor= 1009 and IRadAn=       5 diagonalized for initial guess.
 HarFok:  IExCor= 1009 AccDes= 0.00D+00 IRadAn=         5 IDoV= 1 UseB2=F ITyADJ=14
 ICtDFT=  3500011 ScaDFX=  1.000000  1.000000  1.000000  1.000000
 FoFCou: FMM=F IPFlag=           0 FMFlag=      100000 FMFlg1=           0
         NFxFlg=           0 DoJE=T BraDBF=F KetDBF=T FulRan=T
         wScrn=  0.000000 ICntrl=       500 IOpCl=  0 I1Cent=   200000004 NGrid=           0
         NMat0=    1 NMatS0=      1 NMatT0=    0 NMatD0=    1 NMtDS0=    0 NMtDT0=    0
 Symmetry not used in FoFCou.
 Harris En= -764.199260365289    
 Leave Link  401 at Sat May 24 04:30:49 2025, MaxMem=  3758096384 cpu:               3.6 elap:               0.5
 (Enter /apps/easybuild-2022/easybuild/software/Compiler/NVHPC/22.11-CUDA-11.7.0/Gaussian/g16c01-CUDA-11.7.0/g16/l502.exe)
 Keep R1 ints in memory in canonical form, NReq=1412617130.
 FoFCou: FMM=F IPFlag=           0 FMFlag=           0 FMFlg1=           0
         NFxFlg=           0 DoJE=F BraDBF=F KetDBF=F FulRan=T
         wScrn=  0.000000 ICntrl=       600 IOpCl=  0 I1Cent=           0 NGrid=           0
         NMat0=    1 NMatS0=  52650 NMatT0=    0 NMatD0=    1 NMtDS0=    0 NMtDT0=    0
 Symmetry not used in FoFCou.
 Two-electron integral symmetry not used.
 Closed shell SCF:
 Using DIIS extrapolation, IDIIS=  1040.
 NGot=  3758096384 LenX=  2371771924 LenY=  2371630858
 Requested convergence on RMS density matrix=1.00D-08 within  32 cycles.
 Requested convergence on MAX density matrix=1.00D-06.
 Requested convergence on             energy=1.00D-06.
 No special actions if energy rises.
 Integral accuracy reduced to 1.0D-05 until final iterations.

 Cycle   1  Pass 0  IDiag  1:
 E= -764.648066468306    
 DIIS: error= 4.50D-03 at cycle   1 NSaved=   1.
[...]
    R9        2.50346  -0.00000   0.00000  -0.00002  -0.00002   2.50344
   R10        2.51104   0.00000   0.00000   0.00002   0.00002   2.51105
    A1        1.92946   0.00000   0.00000  -0.00002  -0.00002   1.92944
    A2        2.20930  -0.00000   0.00000  -0.00001  -0.00001   2.20930
    A3        2.14439   0.00000   0.00000   0.00003   0.00003   2.14442
    A4        1.89150  -0.00000   0.00000   0.00000   0.00000   1.89150
    A5        1.96634   0.00000   0.00000   0.00004   0.00004   1.96637
    A6        1.89950  -0.00000   0.00000  -0.00001  -0.00001   1.89949
    A7        1.92431   0.00000   0.00000  -0.00003  -0.00003   1.92428
    A8        1.88137  -0.00000   0.00000  -0.00000  -0.00000   1.88136
    A9        1.88643  -0.00000   0.00000   0.00001   0.00001   1.88644
   A10        1.90469   0.00000   0.00000  -0.00000  -0.00000   1.90469
   A11        1.91800  -0.00000   0.00000  -0.00000  -0.00000   1.91800
   A12        1.93265   0.00000   0.00000   0.00003   0.00003   1.93268
   A13        1.91022  -0.00000   0.00000  -0.00003  -0.00003   1.91020
   A14        1.90030   0.00000   0.00000  -0.00000  -0.00000   1.90029
   A15        1.90300   0.00000   0.00000  -0.00000  -0.00000   1.90300
   A16        1.89931  -0.00000   0.00000   0.00000   0.00000   1.89931
    D1       -3.12755  -0.00000   0.00000  -0.00006  -0.00006  -3.12761
    D2        0.00588   0.00000   0.00000  -0.00002  -0.00002   0.00586
    D3        1.27847   0.00000   0.00000  -0.00070  -0.00070   1.27777
    D4       -2.91916  -0.00000   0.00000  -0.00069  -0.00069  -2.91985
    D5       -0.83059  -0.00000   0.00000  -0.00071  -0.00071  -0.83131
    D6       -1.85531   0.00000   0.00000  -0.00074  -0.00074  -1.85605
    D7        0.23024  -0.00000   0.00000  -0.00073  -0.00073   0.22951
    D8        2.31881  -0.00000   0.00000  -0.00075  -0.00075   2.31806
    D9        3.01950  -0.00000   0.00000  -0.00039  -0.00039   3.01911
   D10       -1.16363  -0.00000   0.00000  -0.00037  -0.00037  -1.16400
   D11        0.93019  -0.00000   0.00000  -0.00036  -0.00036   0.92983
   D12        0.92347  -0.00000   0.00000  -0.00039  -0.00039   0.92307
   D13        3.02353  -0.00000   0.00000  -0.00038  -0.00038   3.02315
   D14       -1.16584  -0.00000   0.00000  -0.00037  -0.00037  -1.16621
   D15       -1.13310   0.00000   0.00000  -0.00040  -0.00040  -1.13349
   D16        0.96697   0.00000   0.00000  -0.00038  -0.00038   0.96659
   D17        3.06079   0.00000   0.00000  -0.00037  -0.00037   3.06041
         Item               Value     Threshold  Converged?
 Maximum Force            0.000002     0.000450     YES
 RMS     Force            0.000001     0.000300     YES
 Maximum Displacement     0.001419     0.001800     YES
 RMS     Displacement     0.000421     0.001200     YES
 Predicted change in Energy=-8.347570D-10
 Optimization completed.
    -- Stationary point found.
                           ----------------------------
                           !   Optimized Parameters   !
                           ! (Angstroms and Degrees)  !
 --------------------------                            --------------------------
 ! Name  Definition              Value          Derivative Info.                !
 --------------------------------------------------------------------------------
 ! R1    R(1,2)                  1.3291         -DE/DX =    0.0                 !
 ! R2    R(1,3)                  1.5442         -DE/DX =    0.0                 !
 ! R3    R(1,10)                 1.1878         -DE/DX =    0.0                 !
 ! R4    R(2,11)                 0.9674         -DE/DX =    0.0                 !
 ! R5    R(3,4)                  1.5444         -DE/DX =    0.0                 !
 ! R6    R(3,8)                  1.3327         -DE/DX =    0.0                 !
 ! R7    R(3,9)                  1.3417         -DE/DX =    0.0                 !
 ! R8    R(4,5)                  1.3232         -DE/DX =    0.0                 !
 ! R9    R(4,6)                  1.3248         -DE/DX =    0.0                 !
 ! R10   R(4,7)                  1.3288         -DE/DX =    0.0                 !
 ! A1    A(2,1,3)              110.5499         -DE/DX =    0.0                 !
 ! A2    A(2,1,10)             126.5838         -DE/DX =    0.0                 !
 ! A3    A(3,1,10)             122.8647         -DE/DX =    0.0                 !
 ! A4    A(1,2,11)             108.3747         -DE/DX =    0.0                 !
 ! A5    A(1,3,4)              112.663          -DE/DX =    0.0                 !
 ! A6    A(1,3,8)              108.8331         -DE/DX =    0.0                 !
 ! A7    A(1,3,9)              110.2551         -DE/DX =    0.0                 !
 ! A8    A(4,3,8)              107.7944         -DE/DX =    0.0                 !
 ! A9    A(4,3,9)              108.0844         -DE/DX =    0.0                 !
 ! A10   A(8,3,9)              109.1307         -DE/DX =    0.0                 !
 ! A11   A(3,4,5)              109.8932         -DE/DX =    0.0                 !
 ! A12   A(3,4,6)              110.7327         -DE/DX =    0.0                 !
 ! A13   A(3,4,7)              109.4478         -DE/DX =    0.0                 !
 ! A14   A(5,4,6)              108.8789         -DE/DX =    0.0                 !
 ! A15   A(5,4,7)              109.0341         -DE/DX =    0.0                 !
 ! A16   A(6,4,7)              108.8223         -DE/DX =    0.0                 !
 ! D1    D(3,1,2,11)          -179.1954         -DE/DX =    0.0                 !
 ! D2    D(10,1,2,11)            0.3367         -DE/DX =    0.0                 !
 ! D3    D(2,1,3,4)             73.2511         -DE/DX =    0.0                 !
 ! D4    D(2,1,3,8)           -167.2558         -DE/DX =    0.0                 !
 ! D5    D(2,1,3,9)            -47.5894         -DE/DX =    0.0                 !
 ! D6    D(10,1,3,4)          -106.3016         -DE/DX =    0.0                 !
 ! D7    D(10,1,3,8)            13.1915         -DE/DX =    0.0                 !
 ! D8    D(10,1,3,9)           132.8579         -DE/DX =    0.0                 !
 ! D9    D(1,3,4,5)            173.0044         -DE/DX =    0.0                 !
 ! D10   D(1,3,4,6)            -66.6708         -DE/DX =    0.0                 !
 ! D11   D(1,3,4,7)             53.2961         -DE/DX =    0.0                 !
 ! D12   D(8,3,4,5)             52.9107         -DE/DX =    0.0                 !
 ! D13   D(8,3,4,6)            173.2356         -DE/DX =    0.0                 !
 ! D14   D(8,3,4,7)            -66.7975         -DE/DX =    0.0                 !
 ! D15   D(9,3,4,5)            -64.9216         -DE/DX =    0.0                 !
 ! D16   D(9,3,4,6)             55.4032         -DE/DX =    0.0                 !
 ! D17   D(9,3,4,7)            175.3702         -DE/DX =    0.0                 !
 --------------------------------------------------------------------------------
 GradGradGradGradGradGradGradGradGradGradGradGradGradGradGradGradGradGrad

 Leave Link  103 at Sat May 24 04:37:43 2025, MaxMem=  3758096384 cpu:               0.0 elap:               0.0
 (Enter /apps/easybuild-2022/easybuild/software/Compiler/NVHPC/22.11-CUDA-11.7.0/Gaussian/g16c01-CUDA-11.7.0/g16/l9999.exe)

 ----------------------------------------------------------------------

 Electric dipole moment (input orientation):
 (Debye = 10**-18 statcoulomb cm , SI units = C m)
                  (au)            (Debye)         (10**-30 SI)
   Tot        0.908023D+00      0.230796D+01      0.769854D+01
   x          0.771150D+00      0.196007D+01      0.653808D+01
   y         -0.410061D+00     -0.104227D+01     -0.347664D+01
   z          0.248361D+00      0.631269D+00      0.210569D+01

 Dipole polarizability, Alpha (input orientation).
 (esu units = cm**3 , SI units = C**2 m**2 J**-1)
 Alpha(0;0):
               (au)            (10**-24 esu)      (10**-40 SI)
   iso        0.438632D+02      0.649985D+01      0.723206D+01
   aniso      0.105347D+02      0.156109D+01      0.173694D+01
   xx         0.477175D+02      0.707100D+01      0.786755D+01
   yx         0.635357D+00      0.941502D-01      0.104756D+00
   yy         0.444790D+02      0.659111D+01      0.733360D+01
   zx        -0.101115D+01     -0.149837D+00     -0.166716D+00
   zy        -0.423776D+01     -0.627972D+00     -0.698713D+00
   zz         0.393930D+02      0.583744D+01      0.649503D+01

 ----------------------------------------------------------------------

 Dipole orientation:
     6          2.32631181          0.52992682          1.70847945
     8          1.44065533         -0.12019754          3.96703169
     6          0.79728878         -0.77623653         -0.40619769
     6         -1.86184076          0.37714123         -0.74774417
     9         -2.96921508         -0.61784838         -2.75680231
     9         -3.28482393         -0.06527490          1.26389771
     9         -1.66153810          2.85956278         -1.06831735
     9          2.03490720         -0.51540802         -2.58409447
     9          0.52484459         -3.24476280          0.10422779
     8          4.03554585          1.92404972          1.29237427
     1          2.42214618          0.74712267          5.24242577

 Electric dipole moment (dipole orientation):
 (Debye = 10**-18 statcoulomb cm , SI units = C m)
                  (au)            (Debye)         (10**-30 SI)
   Tot        0.908023D+00      0.230796D+01      0.769854D+01
   x          0.000000D+00      0.000000D+00      0.000000D+00
   y          0.000000D+00      0.000000D+00      0.000000D+00
   z          0.908023D+00      0.230796D+01      0.769854D+01

 Dipole polarizability, Alpha (dipole orientation).
 (esu units = cm**3 , SI units = C**2 m**2 J**-1)
 Alpha(0;0):
               (au)            (10**-24 esu)      (10**-40 SI)
   iso        0.438632D+02      0.649985D+01      0.723206D+01
   aniso      0.105347D+02      0.156109D+01      0.173694D+01
   xx         0.444982D+02      0.659395D+01      0.733676D+01
   yx         0.516947D+01      0.766037D+00      0.852331D+00
   yy         0.405673D+02      0.601145D+01      0.668864D+01
   zx         0.104719D+01      0.155178D+00      0.172659D+00
   zy        -0.135135D-01     -0.200249D-02     -0.222807D-02
   zz         0.465241D+02      0.689415D+01      0.767078D+01

 ----------------------------------------------------------------------
 Unable to Open any file for archive entry.
 1\1\GINC-SPARTAN-BM154\Freq\RM062X\def2TZVPP\C3H1F5O2\AKHALILOV\24-May
 -2025\0\\#P Geom=AllCheck Guess=TCheck SCRF=Check GenChk RM062X/def2TZ
 VPP Freq\\Gaussian input prepared by ASE\\0,1\C,1.3861057829,0.1979638
 703,-0.6715452173\O,2.0942746773,-0.7718539398,-0.1019838216\C,-0.1232
 904511,-0.1208564539,-0.6026041447\C,-0.703199724,0.0495969057,0.81863
 0178\F,-2.0187791568,-0.0889716459,0.7877279367\F,-0.196200375,-0.8545
 33104,1.6435713002\F,-0.4056945013,1.2614020669,1.2754497746\F,-0.7764
 828297,0.7127600169,-1.4116989926\F,-0.3498148062,-1.3833528231,-0.996
 2028272\O,1.8135144745,1.1893899753,-1.166758979\H,3.0309039094,-0.534
 7598683,-0.1512082071\\Version=ES64L-G16RevC.01\HF=-764.6682653\RMSD=3
 .736e-09\RMSF=1.998e-06\ZeroPoint=0.0527284\Thermal=0.0616563\ETot=-76
 4.6066091\HTot=-764.6056649\GTot=-764.6512908\Dipole=0.7711499,-0.4100
 61,0.2483605\DipoleDeriv=1.196479,-0.1506797,-0.0021563,-0.1176881,1.4
 057974,-0.6747322,0.1751738,-0.6246545,0.5948377,-0.7924362,0.4971547,
 -0.2555144,0.2998534,-0.8058821,0.2715407,-0.177719,0.2894605,-0.48920
 85,0.7601104,-0.0517255,0.1984821,-0.0681901,1.2269302,-0.0006296,0.29
 44964,0.0232474,0.8769457,1.6480483,0.0302783,0.0921917,-0.0175944,1.5
 708556,-0.0153938,-0.1079168,-0.0674576,1.3884106,-0.9927874,-0.086666
 8,0.0326806,-0.0514703,-0.2727969,-0.0112576,0.1298122,0.0086387,-0.34
 22115,-0.372204,0.1285043,-0.0807237,0.1489739,-0.5367108,0.2272447,-0
 .1117433,0.29737,-0.5960343,-0.3326948,-0.090724,0.0043841,-0.1098266,
 -0.7629948,-0.1883172,-0.0040559,-0.2547139,-0.42705,-0.4505267,0.1970
 798,-0.1714232,0.165127,-0.4490505,0.1739066,-0.1960869,0.2377305,-0.5
 105896,-0.3352802,-0.1352974,-0.0162901,-0.1068537,-0.7729894,-0.15268
 42,-0.0369742,-0.2239237,-0.3474203,-0.6897776,-0.2637696,0.1643913,-0
 .0730538,-0.8848843,0.3390886,0.0035264,0.2869296,-0.4802047,0.3610693
 ,-0.0741542,0.0339779,-0.0692772,0.2817256,0.0312341,0.0314872,0.02737
 29,0.3325249\Polar=47.7175014,0.6353571,44.4790147,-1.0111516,-4.23776
 19,39.3929844\PG=Unknown\NImag=0\\0.67966922,0.14224001,0.87309417,-0.
 04971464,-0.33211430,0.40193212,-0.20775799,0.09044527,-0.05854676,0.6
 7418785,0.07070288,-0.20611963,0.07996544,0.00775485,0.34680707,-0.046
 82801,0.08162348,-0.11084386,0.04655111,-0.16217241,0.13067078,-0.1804
 2009,-0.00667627,0.02211798,-0.01853231,0.00016484,-0.00429997,0.56328
 252,-0.02324212,-0.05201960,-0.01277175,0.03259296,-0.00313508,0.00679
 091,-0.00332050,0.57051458,-0.00731684,-0.01916684,-0.09312642,-0.0144
 2340,0.00366513,0.00799323,0.04281049,-0.01338849,0.56089124,-0.010819
 78,-0.00122380,0.03463797,-0.00004490,0.00081830,-0.00428345,-0.089042
 72,0.00557931,0.07349182,0.60776165,-0.00101604,0.01954371,0.00247779,
 -0.00064697,-0.00418872,0.00257506,-0.00258180,-0.03999878,-0.01344171
 ,-0.00201228,0.59176566,0.03200883,0.00440112,0.01383511,-0.00926545,0
 .00347125,-0.00678446,0.03488234,-0.01979319,-0.17223142,-0.01584702,-
 0.00197937,0.62651570,0.00795562,0.00370053,0.00574369,-0.00235813,0.0
 0041051,-0.00040807,-0.05335085,-0.00706567,-0.00309460,-0.31977700,-0
 .01994456,0.02872248,0.45012552,-0.00000270,-0.00175500,-0.00012850,-0
 .00005780,0.00049490,-0.00025440,0.00136272,0.00279457,0.00008132,-0.0
 2063850,-0.07763265,0.00071373,0.03888799,0.08585175,-0.00669939,-0.00
 195826,-0.00695778,0.00232346,-0.00077329,0.00163658,0.03791740,0.0050
 2568,0.00032899,0.01954124,0.00037282,-0.08620294,0.01217800,-0.001676
 58,0.07517790,-0.00226681,0.00304310,-0.00509900,-0.00147055,-0.001394
 85,0.00377539,0.00732383,0.00056591,-0.00060832,-0.10177516,0.05004013
 ,-0.05157790,-0.05455234,0.03908987,-0.04449067,0.13636630,0.00359614,
 -0.00375501,0.00253307,-0.00159349,0.00212804,-0.00178258,0.00833080,-
 0.01237589,0.00647896,0.04850488,-0.17476995,0.11319164,0.02744857,0.0
 0416075,0.00999406,-0.09633350,0.25620586,-0.00680346,0.00031425,-0.00
 302798,0.00509926,-0.00165263,0.00143531,-0.01915894,0.03682922,-0.018
 05511,-0.04598953,0.10343138,-0.20763159,-0.03057051,0.01000693,0.0022
 2845,0.09125409,-0.15980112,0.21862354,-0.00043525,-0.00170890,-0.0017
 9670,0.00014668,0.00034809,0.00025221,0.00772734,0.00550236,0.00080941
 ,-0.08359627,-0.03322141,-0.01304530,-0.03665444,-0.05809441,-0.024439
 45,0.01364830,0.01281182,0.00244794,0.09709295,-0.00334374,-0.00608530
 ,0.00033363,0.00081246,0.00146447,-0.00059193,-0.00745172,-0.02875351,
 -0.00387973,-0.03042765,-0.25860352,-0.09889458,-0.04246613,-0.0207538
 7,-0.01173192,0.00715513,-0.08089546,0.01038476,0.07194318,0.38581866,
 -0.00489575,-0.00050541,-0.00150370,0.00183108,-0.00038172,0.00097053,
 -0.00886170,-0.03796452,-0.00318189,-0.00982538,-0.08930748,-0.1332517
 8,-0.01547244,-0.00915181,0.01042728,0.00161263,0.02679892,0.02037874,
 0.03035470,0.11552011,0.11817783,-0.02340023,0.03037824,-0.03493686,-0
 .01336653,-0.00133042,0.00009058,-0.14264595,0.06547262,-0.08874150,-0
 .00252684,0.00456995,0.00145073,0.00660207,-0.00201488,0.00154792,0.00
 123320,-0.00124955,0.00083533,0.00089852,-0.00108439,-0.00002710,0.162
 17965,0.00312664,-0.00925639,0.01056780,0.00257806,0.00268331,-0.00055
 458,0.07873306,-0.14815137,0.10192434,0.00868460,-0.01215439,0.0101108
 4,-0.00118789,0.00187474,-0.00110084,-0.00063721,0.00084066,0.00306705
 ,-0.00081796,0.00584873,0.00126167,-0.11298566,0.22319885,-0.00450190,
 0.01636487,-0.00544088,-0.00379537,-0.00213430,0.00097000,-0.08537036,
 0.08865376,-0.19057742,-0.03264967,0.03605709,-0.02595561,0.00160396,-
 0.00166212,0.00164968,0.00252946,0.00344357,-0.01450850,0.00178029,-0.
 00350995,-0.00038921,0.11500665,-0.14650566,0.21391808,0.00338438,-0.0
 3731853,-0.01754901,-0.00381910,0.00111997,0.00035813,-0.08759502,-0.0
 4981827,-0.02406466,0.00322419,0.00697627,0.00446079,0.00527917,0.0011
 9937,-0.00131995,0.00041428,-0.00049448,0.00038293,0.00054180,0.002572
 87,0.00276525,0.01057617,0.02388536,0.00423912,0.07582971,0.00300909,-
 0.03266050,-0.00895400,-0.00420814,0.00602698,-0.00040565,-0.05439014,
 -0.26924786,-0.09390719,-0.00856811,-0.03506947,-0.00389206,0.00375898
 ,0.00403923,-0.00054759,-0.00021290,0.00671114,-0.00280064,0.00180217,
 -0.00221612,-0.00736199,0.01451212,-0.07007743,0.01344802,0.05462181,0
 .39240448,0.00229134,-0.00451809,0.00513326,-0.00134999,0.00085851,-0.
 00003449,-0.01750673,-0.07549026,-0.10666816,-0.01433450,-0.04040534,-
 0.00669043,0.00126346,0.00214688,0.00092915,0.00115021,-0.00004853,0.0
 0021370,0.00296270,-0.00717321,-0.01104942,0.00377166,0.02573479,0.017
 65392,0.02411582,0.10132712,0.10067643,-0.22783146,-0.22518907,0.10968
 416,0.03907997,0.02142753,-0.01100302,-0.00705028,-0.02916686,0.023057
 56,-0.00225464,-0.00206234,-0.01198397,-0.00374965,0.00023574,0.003504
 07,0.00075016,-0.00091574,0.00244165,0.00037575,0.00226091,0.00263529,
 0.00085252,-0.00170628,0.00121715,-0.00898375,-0.01017501,-0.00277287,
 0.20428256,-0.23827505,-0.59365468,0.25923145,0.01363495,-0.07489953,0
 .05662326,-0.01512941,-0.01644141,0.02737133,-0.00097386,-0.00912802,-
 0.00745560,-0.00325106,0.00097814,0.00235498,-0.00118434,0.00169170,0.
 00023787,0.00162792,0.00439710,0.00119575,0.00175266,0.00551059,-0.004
 66123,-0.00237707,-0.00060503,-0.00198698,0.25118605,0.68480860,0.1177
 1201,0.26033096,-0.20502784,-0.00638720,0.05734715,-0.00134387,-0.0004
 0678,0.01852246,0.01070067,-0.00399441,-0.00008203,-0.00163386,0.00029
 688,-0.00005000,0.00065869,0.00101961,-0.00064566,0.00063908,0.0007597
 5,-0.00021938,-0.00029412,0.00146958,-0.00476177,0.00312764,0.00577499
 ,0.00253636,0.00016826,-0.12067671,-0.33081657,0.19740467,-0.03807762,
 0.00230942,-0.00454085,-0.46606498,-0.10002169,0.01579509,0.00030353,0
 .00290025,-0.00191996,-0.00114853,-0.00010095,0.00019448,0.00048004,0.
 00003261,-0.00006263,0.00032879,-0.00010546,0.00006124,0.00025462,0.00
 002908,-0.00011657,-0.00040259,0.00032727,-0.00005932,0.00114819,-0.00
 014986,0.00040891,0.00452883,-0.00701080,0.00443228,0.49864972,0.04320
 490,0.01266823,-0.00114063,-0.14131215,-0.07126181,0.01814884,0.000958
 44,-0.00318566,0.00426288,0.00025710,0.00023615,0.00012623,-0.00029127
 ,-0.00005257,0.00004096,-0.00013134,0.00005817,-0.00001707,-0.00019286
 ,-0.00022119,-0.00010352,0.00197930,-0.00031730,0.00050595,-0.00036730
 ,0.00069459,-0.00044489,-0.00589495,-0.00265746,-0.00216151,0.10179012
 ,0.06403884,-0.02525218,-0.00477178,0.00502797,0.03796327,0.02180686,-
 0.02466975,-0.00212374,0.00358618,0.00392630,-0.00074707,0.00030180,0.
 00003129,-0.00026286,-0.00002544,0.00012401,0.00043451,-0.00016233,-0.
 00029563,-0.00008555,-0.00023778,-0.00028427,-0.00046700,0.00025634,-0
 .00044770,0.00083661,0.00055763,-0.00033222,0.00389668,-0.00209425,-0.
 00439930,-0.01419266,-0.01921723,0.02131929\\0.00000114,0.00000110,0.0
 0000017,0.00000178,0.00000265,-0.00000057,-0.00000183,-0.00000034,-0.0
 0000039,0.00000126,-0.00000093,0.00000062,0.00000065,-0.00000454,0.000
 00138,0.00000280,-0.00000113,0.00000062,-0.00000249,-0.00000130,0.0000
 0017,-0.00000234,-0.00000234,-0.00000044,0.00000230,-0.00000128,0.0000
 0048,-0.00000412,0.00000338,-0.00000103,0.00000084,0.00000473,-0.00000
 100\\\@
 The archive entry for this job was punched.


 The lyf so short, the craft so long to lerne.
                             -- Chaucer
 Job cpu time:       0 days  0 hours 25 minutes 14.1 seconds.
 Elapsed time:       0 days  0 hours  3 minutes 12.5 seconds.
 File lengths (MBytes):  RWF=    116 Int=      0 D2E=      0 Chk=      9 Scr=      1
 Normal termination of Gaussian 16 at Sat May 24 04:37:43 2025.
done
