 Entering Gaussian System, Link 0=g16
 Initial command:
 /apps/easybuild-2022/easybuild/software/Compiler/NVHPC/22.11-CUDA-11.7.0/Gaussian/g16c01-CUDA-11.7.0/g16/l1.exe "/tmp/Gau-296116.inp" -scrdir="/tmp/"
 Entering Link 1 = /apps/easybuild-2022/easybuild/software/Compiler/NVHPC/22.11-CUDA-11.7.0/Gaussian/g16c01-CUDA-11.7.0/g16/l1.exe PID=    296117.
  
 Copyright (c) 1988-2019, Gaussian, Inc.  All Rights Reserved.
  
 This is part of the Gaussian(R) 16 program.  It is based on
 the Gaussian(R) 09 system (copyright 2009, Gaussian, Inc.),
 the Gaussian(R) 03 system (copyright 2003, Gaussian, Inc.),
 the Gaussian(R) 98 system (copyright 1998, Gaussian, Inc.),
 the Gaussian(R) 94 system (copyright 1995, Gaussian, Inc.),
 the Gaussian 92(TM) system (copyright 1992, Gaussian, Inc.),
 the Gaussian 90(TM) system (copyright 1990, Gaussian, Inc.),
 the Gaussian 88(TM) system (copyright 1988, Gaussian, Inc.),
 the Gaussian 86(TM) system (copyright 1986, Carnegie Mellon
 University), and the Gaussian 82(TM) system (copyright 1983,
 Carnegie Mellon University). Gaussian is a federally registered
 trademark of Gaussian, Inc.
  
 This software contains proprietary and confidential information,
 including trade secrets, belonging to Gaussian, Inc.
  
 This software is provided under written license and may be
 used, copied, transmitted, or stored only in accord with that
 written license.
  
 The following legend is applicable only to US Government
 contracts under FAR:
  
                    RESTRICTED RIGHTS LEGEND
  
 Use, reproduction and disclosure by the US Government is
 subject to restrictions as set forth in subparagraphs (a)
 and (c) of the Commercial Computer Software - Restricted
 Rights clause in FAR 52.227-19.
  
 Gaussian, Inc.
 340 Quinnipiac St., Bldg. 40, Wallingford CT 06492
  
  
 ---------------------------------------------------------------
 Warning -- This program may not be used in any manner that
 competes with the business of Gaussian, Inc. or will provide
 assistance to any competitor of Gaussian, Inc.  The licensee
 of this program is prohibited from giving any competitor of
 Gaussian, Inc. access to this program.  By using this program,
 the user acknowledges that Gaussian, Inc. is engaged in the
 business of creating and licensing software in the field of
 computational chemistry and represents and warrants to the
 licensee that it is not a competitor of Gaussian, Inc. and that
 it will not use this program in any manner prohibited above.
 ---------------------------------------------------------------
  

 Cite this work as:
 Gaussian 16, Revision C.01,
 M. J. Frisch, G. W. Trucks, H. B. Schlegel, G. E. Scuseria, 
 M. A. Robb, J. R. Cheeseman, G. Scalmani, V. Barone, 
 G. A. Petersson, H. Nakatsuji, X. Li, M. Caricato, A. V. Marenich, 
 J. Bloino, B. G. Janesko, R. Gomperts, B. Mennucci, H. P. Hratchian, 
 J. V. Ortiz, A. F. Izmaylov, J. L. Sonnenberg, D. Williams-Young, 
 F. Ding, F. Lipparini, F. Egidi, J. Goings, B. Peng, A. Petrone, 
 T. Henderson, D. Ranasinghe, V. G. Zakrzewski, J. Gao, N. Rega, 
 G. Zheng, W. Liang, M. Hada, M. Ehara, K. Toyota, R. Fukuda, 
 J. Hasegawa, M. Ishida, T. Nakajima, Y. Honda, O. Kitao, H. Nakai, 
 T. Vreven, K. Throssell, J. A. Montgomery, Jr., J. E. Peralta, 
 F. Ogliaro, M. J. Bearpark, J. J. Heyd, E. N. Brothers, K. N. Kudin, 
 V. N. Staroverov, T. A. Keith, R. Kobayashi, J. Normand, 
 K. Raghavachari, A. P. Rendell, J. C. Burant, S. S. Iyengar, 
 J. Tomasi, M. Cossi, J. M. Millam, M. Klene, C. Adamo, R. Cammi, 
 J. W. Ochterski, R. L. Martin, K. Morokuma, O. Farkas, 
 J. B. Foresman, and D. J. Fox, Gaussian, Inc., Wallingford CT, 2019.
 
 ******************************************
 Gaussian 16:  ES64L-G16RevC.01  3-Jul-2019
                24-May-2025 
 ******************************************
 %mem=28GB
 %chk=1642764945472630600001_r12_insertion_R_10_1_3_IRC_R_prod
 %nprocshared=8
 Will use up to    8 processors via shared memory.
 -----------------------------------------------------------------
 #P M062X/Def2TZVPP Symm(None) scf(xqc) pop(None) freq opt(CalcFC)
 -----------------------------------------------------------------
 1/10=4,18=20,19=15,26=3,38=1/1,3;
 2/9=110,12=2,15=3,17=6,18=5,40=1/2;
 3/5=44,7=202,11=2,25=1,30=1,71=2,74=-55,140=1/1,2,3;
 4//1;
 5/5=2,8=3,13=1,38=5/2,8;
 8/6=4,10=90,11=11/1;
 11/6=1,8=1,9=11,15=111,16=1,31=1/1,2,10;
 10/6=1,13=1,31=1/2;
 7/10=1,25=1,30=1/1,2,3,16;
 1/10=4,18=20,19=15,26=3/3(2);
 2/9=110,15=3/2;
 99//99;
 2/9=110,15=3/2;
 3/5=44,7=202,11=2,25=1,30=1,71=1,74=-55/1,2,3;
 4/5=5,16=3,69=1/1;
 5/5=2,8=3,13=1,38=5/2,8;
 7/30=1/1,2,3,16;
 1/18=20,19=15,26=3/3(-5);
 2/9=110,15=3/2;
 99/9=1/99;
 Leave Link    1 at Sat May 24 04:31:24 2025, MaxMem=  3758096384 cpu:               0.1 elap:               0.0
 (Enter /apps/easybuild-2022/easybuild/software/Compiler/NVHPC/22.11-CUDA-11.7.0/Gaussian/g16c01-CUDA-11.7.0/g16/l101.exe)
 ------------------------------
 Gaussian input prepared by ASE
 ------------------------------
 Symbolic Z-matrix:
 Charge =  0 Multiplicity = 1
 C                     1.40797  -0.54235  -0.51727 
 O                     2.11107  -1.50132  -0.60498 
 C                    -0.13201  -0.1377   -0.65498 
 C                    -0.68478   0.2352    0.77783 
 F                    -1.96475  -0.09004   0.785 
 F                    -0.04635  -0.46313   1.71548 
 F                    -0.58583   1.51882   1.09796 
 F                    -0.3095    0.98597  -1.40111 
 F                    -0.8681   -1.05909  -1.24273 
 O                     1.76413   0.71236  -0.19779 
 H                     2.61287   0.99267  -0.55797 
 
 ITRead=  0  0  0  0  0  0  0  0  0  0  0
 MicOpt= -1 -1 -1 -1 -1 -1 -1 -1 -1 -1 -1
 NAtoms=     11 NQM=       11 NQMF=       0 NMMI=      0 NMMIF=      0
                NMic=       0 NMicF=      0.
                    Isotopes and Nuclear Properties:
 (Nuclear quadrupole moments (NQMom) in fm**2, nuclear magnetic moments (NMagM)
  in nuclear magnetons)

  Atom         1           2           3           4           5           6           7           8           9          10
 IAtWgt=          12          16          12          12          19          19          19          19          19          16
 AtmWgt=  12.0000000  15.9949146  12.0000000  12.0000000  18.9984032  18.9984032  18.9984032  18.9984032  18.9984032  15.9949146
 NucSpn=           0           0           0           0           1           1           1           1           1           0
 AtZEff=  -0.0000000  -0.0000000  -0.0000000  -0.0000000  -0.0000000  -0.0000000  -0.0000000  -0.0000000  -0.0000000  -0.0000000
 NQMom=    0.0000000   0.0000000   0.0000000   0.0000000   0.0000000   0.0000000   0.0000000   0.0000000   0.0000000   0.0000000
 NMagM=    0.0000000   0.0000000   0.0000000   0.0000000   2.6288670   2.6288670   2.6288670   2.6288670   2.6288670   0.0000000
 AtZNuc=   6.0000000   8.0000000   6.0000000   6.0000000   9.0000000   9.0000000   9.0000000   9.0000000   9.0000000   8.0000000

  Atom        11
 IAtWgt=           1
 AtmWgt=   1.0078250
 NucSpn=           1
 AtZEff=  -0.0000000
 NQMom=    0.0000000
 NMagM=    2.7928460
 AtZNuc=   1.0000000
 Leave Link  101 at Sat May 24 04:31:24 2025, MaxMem=  3758096384 cpu:               0.3 elap:               0.2
 (Enter /apps/easybuild-2022/easybuild/software/Compiler/NVHPC/22.11-CUDA-11.7.0/Gaussian/g16c01-CUDA-11.7.0/g16/l103.exe)

 GradGradGradGradGradGradGradGradGradGradGradGradGradGradGradGradGradGrad
 Berny optimization.
 Initialization pass.
                           ----------------------------
                           !    Initial Parameters    !
                           ! (Angstroms and Degrees)  !
 --------------------------                            --------------------------
 ! Name  Definition              Value          Derivative Info.                !
 --------------------------------------------------------------------------------
 ! R1    R(1,2)                  1.1923         calculate D2E/DX2 analytically  !
 ! R2    R(1,3)                  1.5982         calculate D2E/DX2 analytically  !
 ! R3    R(1,10)                 1.3428         calculate D2E/DX2 analytically  !
 ! R4    R(3,4)                  1.5804         calculate D2E/DX2 analytically  !
 ! R5    R(3,8)                  1.3605         calculate D2E/DX2 analytically  !
 ! R6    R(3,9)                  1.3177         calculate D2E/DX2 analytically  !
 ! R7    R(4,5)                  1.3207         calculate D2E/DX2 analytically  !
 ! R8    R(4,6)                  1.3321         calculate D2E/DX2 analytically  !
 ! R9    R(4,7)                  1.3266         calculate D2E/DX2 analytically  !
 ! R10   R(10,11)                0.9637         calculate D2E/DX2 analytically  !
 ! A1    A(2,1,3)              139.9514         calculate D2E/DX2 analytically  !
 ! A2    A(2,1,10)             127.7772         calculate D2E/DX2 analytically  !
 ! A3    A(3,1,10)              92.2635         calculate D2E/DX2 analytically  !
 ! A4    A(1,3,4)              108.5817         calculate D2E/DX2 analytically  !
 ! A5    A(1,3,8)              112.463          calculate D2E/DX2 analytically  !
 ! A6    A(1,3,9)              113.5576         calculate D2E/DX2 analytically  !
 ! A7    A(4,3,8)              104.8748         calculate D2E/DX2 analytically  !
 ! A8    A(4,3,9)              111.9631         calculate D2E/DX2 analytically  !
 ! A9    A(8,3,9)              105.0726         calculate D2E/DX2 analytically  !
 ! A10   A(3,4,5)              106.6071         calculate D2E/DX2 analytically  !
 ! A11   A(3,4,6)              110.2939         calculate D2E/DX2 analytically  !
 ! A12   A(3,4,7)              114.8977         calculate D2E/DX2 analytically  !
 ! A13   A(5,4,6)              109.3646         calculate D2E/DX2 analytically  !
 ! A14   A(5,4,7)              108.0152         calculate D2E/DX2 analytically  !
 ! A15   A(6,4,7)              107.556          calculate D2E/DX2 analytically  !
 ! A16   A(1,10,11)            114.6115         calculate D2E/DX2 analytically  !
 ! D1    D(2,1,3,4)            111.0229         calculate D2E/DX2 analytically  !
 ! D2    D(2,1,3,8)           -133.3789         calculate D2E/DX2 analytically  !
 ! D3    D(2,1,3,9)            -14.219          calculate D2E/DX2 analytically  !
 ! D4    D(10,1,3,4)           -67.9224         calculate D2E/DX2 analytically  !
 ! D5    D(10,1,3,8)            47.6758         calculate D2E/DX2 analytically  !
 ! D6    D(10,1,3,9)           166.8356         calculate D2E/DX2 analytically  !
 ! D7    D(2,1,10,11)           37.7708         calculate D2E/DX2 analytically  !
 ! D8    D(3,1,10,11)         -143.0877         calculate D2E/DX2 analytically  !
 ! D9    D(1,3,4,5)           -149.1709         calculate D2E/DX2 analytically  !
 ! D10   D(1,3,4,6)            -30.5378         calculate D2E/DX2 analytically  !
 ! D11   D(1,3,4,7)             91.2103         calculate D2E/DX2 analytically  !
 ! D12   D(8,3,4,5)             90.4068         calculate D2E/DX2 analytically  !
 ! D13   D(8,3,4,6)           -150.96           calculate D2E/DX2 analytically  !
 ! D14   D(8,3,4,7)            -29.212          calculate D2E/DX2 analytically  !
 ! D15   D(9,3,4,5)            -22.9982         calculate D2E/DX2 analytically  !
 ! D16   D(9,3,4,6)             95.6349         calculate D2E/DX2 analytically  !
 ! D17   D(9,3,4,7)           -142.617          calculate D2E/DX2 analytically  !
 --------------------------------------------------------------------------------
 Trust Radius=3.00D-01 FncErr=1.00D-07 GrdErr=1.00D-06 EigMax=2.50D+02 EigMin=1.00D-04
 Number of steps in this run=     53 maximum allowed number of steps=    100.
 GradGradGradGradGradGradGradGradGradGradGradGradGradGradGradGradGradGrad

 Leave Link  103 at Sat May 24 04:31:24 2025, MaxMem=  3758096384 cpu:               0.1 elap:               0.0
 (Enter /apps/easybuild-2022/easybuild/software/Compiler/NVHPC/22.11-CUDA-11.7.0/Gaussian/g16c01-CUDA-11.7.0/g16/l202.exe)
                          Input orientation:                          
 ---------------------------------------------------------------------
 Center     Atomic      Atomic             Coordinates (Angstroms)
 Number     Number       Type             X           Y           Z
 ---------------------------------------------------------------------
      1          6           0        1.407970   -0.542350   -0.517272
      2          8           0        2.111069   -1.501318   -0.604980
      3          6           0       -0.132012   -0.137701   -0.654980
      4          6           0       -0.684784    0.235204    0.777832
      5          9           0       -1.964747   -0.090036    0.785001
      6          9           0       -0.046349   -0.463134    1.715483
      7          9           0       -0.585828    1.518821    1.097962
      8          9           0       -0.309497    0.985971   -1.401107
      9          9           0       -0.868099   -1.059088   -1.242727
     10          8           0        1.764132    0.712357   -0.197792
     11          1           0        2.612873    0.992668   -0.557974
 ---------------------------------------------------------------------
                    Distance matrix (angstroms):
                    1          2          3          4          5
     1  C    0.000000
     2  O    1.192334   0.000000
     3  C    1.598202   2.625522   0.000000
     4  C    2.580989   3.569940   1.580369   0.000000
     5  F    3.643587   4.531671   2.331252   1.320658   0.000000
     6  F    2.665805   3.334191   2.394230   1.332090   2.164544
     7  F    3.291297   4.392551   2.454143   1.326630   2.141911
     8  F    2.463051   3.560838   1.360458   2.335009   2.945626
     9  F    2.444134   3.078592   1.317659   2.406544   2.500676
    10  O    1.342836   2.277394   2.127670   2.678938   3.938814
    11  H    1.951852   2.544402   2.970107   3.637674   4.891874
                    6          7          8          9         10
     6  F    0.000000
     7  F    2.144881   0.000000
     8  F    3.447069   2.570143   0.000000
     9  F    3.127529   3.493439   2.125885   0.000000
    10  O    2.884483   2.802084   2.413041   3.340441   0.000000
    11  H    3.789384   3.640144   3.041573   4.098262   0.963674
                   11
    11  H    0.000000
 Symmetry turned off by external request.
 Stoichiometry    C3HF5O2
 Rotational constants (GHZ):           1.8649447           1.2077822           1.1187027
 Leave Link  202 at Sat May 24 04:31:24 2025, MaxMem=  3758096384 cpu:               0.1 elap:               0.0
 (Enter /apps/easybuild-2022/easybuild/software/Compiler/NVHPC/22.11-CUDA-11.7.0/Gaussian/g16c01-CUDA-11.7.0/g16/l301.exe)
 Standard basis: def2TZVPP (5D, 7F)
 Ernie: Thresh=  0.10000D-02 Tol=  0.10000D-05 Strict=F.
   324 basis functions,   527 primitive gaussians,   375 cartesian basis functions
    40 alpha electrons       40 beta electrons
       nuclear repulsion energy       640.3521260975 Hartrees.
 IExCor= 4336 DFT=T Ex+Corr=M062X ExCW=0 ScaHFX=  0.540000
 ScaDFX=  1.000000  1.000000  1.000000  1.000000 ScalE2=  1.000000  1.000000
 IRadAn=      5 IRanWt=     -1 IRanGd=            0 ICorTp=0 IEmpDi=  4
 NAtoms=   11 NActive=   11 NUniq=   11 SFac= 1.00D+00 NAtFMM=   60 NAOKFM=F Big=F
 Integral buffers will be    131072 words long.
 Raffenetti 2 integral format.
 Two-electron integral symmetry is turned off.
 Leave Link  301 at Sat May 24 04:31:24 2025, MaxMem=  3758096384 cpu:               0.1 elap:               0.0
 (Enter /apps/easybuild-2022/easybuild/software/Compiler/NVHPC/22.11-CUDA-11.7.0/Gaussian/g16c01-CUDA-11.7.0/g16/l302.exe)
 NPDir=0 NMtPBC=     1 NCelOv=     1 NCel=       1 NClECP=     1 NCelD=      1
         NCelK=      1 NCelE2=     1 NClLst=     1 CellRange=     0.0.
 One-electron integrals computed using PRISM.
   1 Symmetry operations used in ECPInt.
 ECPInt:  NShTT=    6786 NPrTT=   21959 LenC2=    6488 LenP2D=   15972.
 LDataN:  DoStor=T MaxTD1= 6 Len=  172
 NBasis=   324 RedAO= T EigKep=  3.44D-04  NBF=   324
 NBsUse=   324 1.00D-06 EigRej= -1.00D+00 NBFU=   324
 Precomputing XC quadrature grid using
 IXCGrd= 4 IRadAn=           5 IRanWt=          -1 IRanGd=           0 AccXCQ= 0.00D+00.
 Generated NRdTot=       0 NPtTot=           0 NUsed=           0 NTot=          32
 NSgBfM=   373   373   373   373   373 MxSgAt=    11 MxSgA2=    11.
 Leave Link  302 at Sat May 24 04:31:25 2025, MaxMem=  3758096384 cpu:               1.0 elap:               0.3
 (Enter /apps/easybuild-2022/easybuild/software/Compiler/NVHPC/22.11-CUDA-11.7.0/Gaussian/g16c01-CUDA-11.7.0/g16/l303.exe)
 DipDrv:  MaxL=1.
 Leave Link  303 at Sat May 24 04:31:25 2025, MaxMem=  3758096384 cpu:               0.1 elap:               0.1
 (Enter /apps/easybuild-2022/easybuild/software/Compiler/NVHPC/22.11-CUDA-11.7.0/Gaussian/g16c01-CUDA-11.7.0/g16/l401.exe)
 ExpMin= 9.52D-02 ExpMax= 3.55D+04 ExpMxC= 1.21D+03 IAcc=3 IRadAn=         5 AccDes= 0.00D+00
 Harris functional with IExCor= 1009 and IRadAn=       5 diagonalized for initial guess.
 HarFok:  IExCor= 1009 AccDes= 0.00D+00 IRadAn=         5 IDoV= 1 UseB2=F ITyADJ=14
 ICtDFT=  3500011 ScaDFX=  1.000000  1.000000  1.000000  1.000000
 FoFCou: FMM=F IPFlag=           0 FMFlag=      100000 FMFlg1=           0
         NFxFlg=           0 DoJE=T BraDBF=F KetDBF=T FulRan=T
         wScrn=  0.000000 ICntrl=       500 IOpCl=  0 I1Cent=   200000004 NGrid=           0
         NMat0=    1 NMatS0=      1 NMatT0=    0 NMatD0=    1 NMtDS0=    0 NMtDT0=    0
 Symmetry not used in FoFCou.
 Harris En= -764.168022821979    
 JPrj=0 DoOrth=F DoCkMO=F.
 Leave Link  401 at Sat May 24 04:31:25 2025, MaxMem=  3758096384 cpu:               3.5 elap:               0.6
 (Enter /apps/easybuild-2022/easybuild/software/Compiler/NVHPC/22.11-CUDA-11.7.0/Gaussian/g16c01-CUDA-11.7.0/g16/l502.exe)
 Keep R1 ints in memory in canonical form, NReq=1412617130.
 FoFCou: FMM=F IPFlag=           0 FMFlag=           0 FMFlg1=           0
         NFxFlg=           0 DoJE=F BraDBF=F KetDBF=F FulRan=T
         wScrn=  0.000000 ICntrl=       600 IOpCl=  0 I1Cent=           0 NGrid=           0
         NMat0=    1 NMatS0=  52650 NMatT0=    0 NMatD0=    1 NMtDS0=    0 NMtDT0=    0
 Symmetry not used in FoFCou.
 Two-electron integral symmetry not used.
 Closed shell SCF:
 Using DIIS extrapolation, IDIIS=  1040.
 NGot=  3758096384 LenX=  2371771924 LenY=  2371630858
 Requested convergence on RMS density matrix=1.00D-08 within  32 cycles.
 Requested convergence on MAX density matrix=1.00D-06.
 Requested convergence on             energy=1.00D-06.
 No special actions if energy rises.
 Integral accuracy reduced to 1.0D-05 until final iterations.

 Cycle   1  Pass 0  IDiag  1:
 E= -764.459876817689    
 DIIS: error= 1.66D-02 at cycle   1 NSaved=   1.
 NSaved= 1 IEnMin= 1 EnMin= -764.459876817689     IErMin= 1 ErrMin= 1.66D-02
 ErrMax= 1.66D-02  0.00D+00 EMaxC= 1.00D-01 BMatC= 3.54D-01 BMatP= 3.54D-01
 IDIUse=3 WtCom= 8.34D-01 WtEn= 1.66D-01
 Coeff-Com:  0.100D+01
 Coeff-En:   0.100D+01
 Coeff:      0.100D+01
 Gap=     0.410 Goal=   None    Shift=    0.000
 GapD=    0.410 DampG=2.000 DampE=0.500 DampFc=1.0000 IDamp=-1.
 RMSDP=2.04D-03 MaxDP=9.17D-02              OVMax= 1.74D-01

 Cycle   2  Pass 0  IDiag  1:
 E= -764.353178822090     Delta-E=        0.106697995599 Rises=F Damp=F
 DIIS: error= 2.25D-02 at cycle   2 NSaved=   2.
 NSaved= 2 IEnMin= 1 EnMin= -764.459876817689     IErMin= 1 ErrMin= 1.66D-02
 ErrMax= 2.25D-02  0.00D+00 EMaxC= 1.00D-01 BMatC= 4.49D-01 BMatP= 3.54D-01
 IDIUse=2 WtCom= 0.00D+00 WtEn= 1.00D+00
 Coeff-En:   0.612D+00 0.388D+00
 Coeff:      0.612D+00 0.388D+00
 Gap=     0.394 Goal=   None    Shift=    0.000
 RMSDP=9.86D-04 MaxDP=4.94D-02 DE= 1.07D-01 OVMax= 8.84D-02

 Cycle   3  Pass 0  IDiag  1:
 E= -764.629963692329     Delta-E=       -0.276784870239 Rises=F Damp=F
 DIIS: error= 2.57D-03 at cycle   3 NSaved=   3.
 NSaved= 3 IEnMin= 3 EnMin= -764.629963692329     IErMin= 3 ErrMin= 2.57D-03
 ErrMax= 2.57D-03  0.00D+00 EMaxC= 1.00D-01 BMatC= 6.67D-03 BMatP= 3.54D-01
 IDIUse=3 WtCom= 9.74D-01 WtEn= 2.57D-02
 Coeff-Com:  0.101D+00 0.438D-01 0.855D+00
 Coeff-En:   0.000D+00 0.000D+00 0.100D+01
 Coeff:      0.988D-01 0.427D-01 0.859D+00
 Gap=     0.379 Goal=   None    Shift=    0.000
 RMSDP=2.51D-04 MaxDP=1.38D-02 DE=-2.77D-01 OVMax= 3.69D-02

 Cycle   4  Pass 0  IDiag  1:
 E= -764.630274805028     Delta-E=       -0.000311112699 Rises=F Damp=F
 DIIS: error= 2.53D-03 at cycle   4 NSaved=   4.
 NSaved= 4 IEnMin= 4 EnMin= -764.630274805028     IErMin= 4 ErrMin= 2.53D-03
 ErrMax= 2.53D-03  0.00D+00 EMaxC= 1.00D-01 BMatC= 6.14D-03 BMatP= 6.67D-03
 IDIUse=3 WtCom= 9.75D-01 WtEn= 2.53D-02
 Coeff-Com: -0.996D-03-0.298D-01 0.520D+00 0.510D+00
 Coeff-En:   0.000D+00 0.000D+00 0.482D+00 0.518D+00
 Coeff:     -0.970D-03-0.290D-01 0.519D+00 0.511D+00
 Gap=     0.385 Goal=   None    Shift=    0.000
 RMSDP=1.23D-04 MaxDP=6.65D-03 DE=-3.11D-04 OVMax= 1.82D-02

 Cycle   5  Pass 0  IDiag  1:
 E= -764.634284604592     Delta-E=       -0.004009799564 Rises=F Damp=F
 DIIS: error= 2.33D-04 at cycle   5 NSaved=   5.
 NSaved= 5 IEnMin= 5 EnMin= -764.634284604592     IErMin= 5 ErrMin= 2.33D-04
 ErrMax= 2.33D-04  0.00D+00 EMaxC= 1.00D-01 BMatC= 5.86D-05 BMatP= 6.14D-03
 IDIUse=3 WtCom= 9.98D-01 WtEn= 2.33D-03
 Coeff-Com: -0.340D-02-0.136D-01 0.167D+00 0.180D+00 0.669D+00
 Coeff-En:   0.000D+00 0.000D+00 0.000D+00 0.000D+00 0.100D+01
 Coeff:     -0.339D-02-0.136D-01 0.167D+00 0.180D+00 0.670D+00
 Gap=     0.385 Goal=   None    Shift=    0.000
 RMSDP=2.01D-05 MaxDP=8.07D-04 DE=-4.01D-03 OVMax= 2.10D-03

 Cycle   6  Pass 0  IDiag  1:
 E= -764.634331589198     Delta-E=       -0.000046984606 Rises=F Damp=F
 DIIS: error= 7.59D-05 at cycle   6 NSaved=   6.
 NSaved= 6 IEnMin= 6 EnMin= -764.634331589198     IErMin= 6 ErrMin= 7.59D-05
 ErrMax= 7.59D-05  0.00D+00 EMaxC= 1.00D-01 BMatC= 4.37D-06 BMatP= 5.86D-05
 IDIUse=1 WtCom= 1.00D+00 WtEn= 0.00D+00
 Coeff-Com: -0.805D-03-0.179D-02 0.713D-02 0.278D-02 0.174D+00 0.819D+00
 Coeff:     -0.805D-03-0.179D-02 0.713D-02 0.278D-02 0.174D+00 0.819D+00
 Gap=     0.385 Goal=   None    Shift=    0.000
 RMSDP=7.15D-06 MaxDP=2.89D-04 DE=-4.70D-05 OVMax= 7.02D-04

 Initial convergence to 1.0D-05 achieved.  Increase integral accuracy.
 Cycle   7  Pass 1  IDiag  1:
 E= -764.634352720806     Delta-E=       -0.000021131608 Rises=F Damp=F
 DIIS: error= 2.87D-05 at cycle   1 NSaved=   1.
 NSaved= 1 IEnMin= 1 EnMin= -764.634352720806     IErMin= 1 ErrMin= 2.87D-05
 ErrMax= 2.87D-05  0.00D+00 EMaxC= 1.00D-01 BMatC= 1.17D-06 BMatP= 1.17D-06
 IDIUse=1 WtCom= 1.00D+00 WtEn= 0.00D+00
 Coeff-Com:  0.100D+01
 Coeff:      0.100D+01
 Gap=     0.385 Goal=   None    Shift=    0.000
 RMSDP=7.15D-06 MaxDP=2.89D-04 DE=-2.11D-05 OVMax= 2.56D-04

 Cycle   8  Pass 1  IDiag  1:
 E= -764.634353405997     Delta-E=       -0.000000685191 Rises=F Damp=F
 DIIS: error= 2.55D-05 at cycle   2 NSaved=   2.
 NSaved= 2 IEnMin= 2 EnMin= -764.634353405997     IErMin= 2 ErrMin= 2.55D-05
 ErrMax= 2.55D-05  0.00D+00 EMaxC= 1.00D-01 BMatC= 5.85D-07 BMatP= 1.17D-06
 IDIUse=1 WtCom= 1.00D+00 WtEn= 0.00D+00
 Coeff-Com:  0.389D+00 0.611D+00
 Coeff:      0.389D+00 0.611D+00
 Gap=     0.385 Goal=   None    Shift=    0.000
 RMSDP=1.52D-06 MaxDP=6.60D-05 DE=-6.85D-07 OVMax= 1.72D-04

 Cycle   9  Pass 1  IDiag  1:
 E= -764.634353715847     Delta-E=       -0.000000309850 Rises=F Damp=F
 DIIS: error= 8.63D-06 at cycle   3 NSaved=   3.
 NSaved= 3 IEnMin= 3 EnMin= -764.634353715847     IErMin= 3 ErrMin= 8.63D-06
 ErrMax= 8.63D-06  0.00D+00 EMaxC= 1.00D-01 BMatC= 9.14D-08 BMatP= 5.85D-07
 IDIUse=1 WtCom= 1.00D+00 WtEn= 0.00D+00
 Coeff-Com: -0.378D-01 0.256D+00 0.782D+00
 Coeff:     -0.378D-01 0.256D+00 0.782D+00
 Gap=     0.386 Goal=   None    Shift=    0.000
 RMSDP=8.48D-07 MaxDP=3.50D-05 DE=-3.10D-07 OVMax= 8.72D-05

 Cycle  10  Pass 1  IDiag  1:
 E= -764.634353775686     Delta-E=       -0.000000059838 Rises=F Damp=F
 DIIS: error= 5.04D-06 at cycle   4 NSaved=   4.
 NSaved= 4 IEnMin= 4 EnMin= -764.634353775686     IErMin= 4 ErrMin= 5.04D-06
 ErrMax= 5.04D-06  0.00D+00 EMaxC= 1.00D-01 BMatC= 1.14D-08 BMatP= 9.14D-08
 IDIUse=1 WtCom= 1.00D+00 WtEn= 0.00D+00
 Coeff-Com: -0.371D-01 0.995D-01 0.388D+00 0.550D+00
 Coeff:     -0.371D-01 0.995D-01 0.388D+00 0.550D+00
 Gap=     0.386 Goal=   None    Shift=    0.000
 RMSDP=2.37D-07 MaxDP=2.06D-05 DE=-5.98D-08 OVMax= 5.09D-05

 Cycle  11  Pass 1  IDiag  1:
 E= -764.634353784787     Delta-E=       -0.000000009101 Rises=F Damp=F
 DIIS: error= 1.69D-06 at cycle   5 NSaved=   5.
 NSaved= 5 IEnMin= 5 EnMin= -764.634353784787     IErMin= 5 ErrMin= 1.69D-06
 ErrMax= 1.69D-06  0.00D+00 EMaxC= 1.00D-01 BMatC= 1.86D-09 BMatP= 1.14D-08
 IDIUse=1 WtCom= 1.00D+00 WtEn= 0.00D+00
 Coeff-Com: -0.128D-02-0.395D-01-0.106D+00 0.233D+00 0.914D+00
 Coeff:     -0.128D-02-0.395D-01-0.106D+00 0.233D+00 0.914D+00
 Gap=     0.386 Goal=   None    Shift=    0.000
 RMSDP=1.75D-07 MaxDP=7.88D-06 DE=-9.10D-09 OVMax= 2.15D-05

 Cycle  12  Pass 1  IDiag  1:
 E= -764.634353786843     Delta-E=       -0.000000002057 Rises=F Damp=F
 DIIS: error= 3.38D-07 at cycle   6 NSaved=   6.
 NSaved= 6 IEnMin= 6 EnMin= -764.634353786843     IErMin= 6 ErrMin= 3.38D-07
 ErrMax= 3.38D-07  0.00D+00 EMaxC= 1.00D-01 BMatC= 1.37D-10 BMatP= 1.86D-09
 IDIUse=1 WtCom= 1.00D+00 WtEn= 0.00D+00
 Coeff-Com:  0.274D-02-0.253D-01-0.819D-01 0.575D-01 0.366D+00 0.681D+00
 Coeff:      0.274D-02-0.253D-01-0.819D-01 0.575D-01 0.366D+00 0.681D+00
 Gap=     0.386 Goal=   None    Shift=    0.000
 RMSDP=3.88D-08 MaxDP=1.53D-06 DE=-2.06D-09 OVMax= 6.58D-06

 Cycle  13  Pass 1  IDiag  1:
 E= -764.634353786977     Delta-E=       -0.000000000134 Rises=F Damp=F
 DIIS: error= 1.03D-07 at cycle   7 NSaved=   7.
 NSaved= 7 IEnMin= 7 EnMin= -764.634353786977     IErMin= 7 ErrMin= 1.03D-07
 ErrMax= 1.03D-07  0.00D+00 EMaxC= 1.00D-01 BMatC= 1.47D-11 BMatP= 1.37D-10
 IDIUse=1 WtCom= 1.00D+00 WtEn= 0.00D+00
 Coeff-Com:  0.139D-02-0.619D-02-0.238D-01 0.603D-03 0.465D-01 0.254D+00
 Coeff-Com:  0.728D+00
 Coeff:      0.139D-02-0.619D-02-0.238D-01 0.603D-03 0.465D-01 0.254D+00
 Coeff:      0.728D+00
 Gap=     0.386 Goal=   None    Shift=    0.000
 RMSDP=1.27D-08 MaxDP=3.75D-07 DE=-1.34D-10 OVMax= 1.68D-06

 Cycle  14  Pass 1  IDiag  1:
 E= -764.634353786915     Delta-E=        0.000000000062 Rises=F Damp=F
 DIIS: error= 4.45D-08 at cycle   8 NSaved=   8.
 NSaved= 8 IEnMin= 7 EnMin= -764.634353786977     IErMin= 8 ErrMin= 4.45D-08
 ErrMax= 4.45D-08  0.00D+00 EMaxC= 1.00D-01 BMatC= 1.55D-12 BMatP= 1.47D-11
 IDIUse=1 WtCom= 1.00D+00 WtEn= 0.00D+00
 Coeff-Com: -0.265D-04 0.202D-02 0.509D-02-0.747D-02-0.412D-01-0.236D-01
 Coeff-Com:  0.225D+00 0.840D+00
 Coeff:     -0.265D-04 0.202D-02 0.509D-02-0.747D-02-0.412D-01-0.236D-01
 Coeff:      0.225D+00 0.840D+00
 Gap=     0.386 Goal=   None    Shift=    0.000
 RMSDP=5.29D-09 MaxDP=2.30D-07 DE= 6.18D-11 OVMax= 8.28D-07

 SCF Done:  E(RM062X) =  -764.634353787     A.U. after   14 cycles
            NFock= 14  Conv=0.53D-08     -V/T= 2.0037
 KE= 7.617920046750D+02 PE=-3.093263576221D+03 EE= 9.264850916616D+02
 Leave Link  502 at Sat May 24 04:31:53 2025, MaxMem=  3758096384 cpu:             113.3 elap:              27.7
 (Enter /apps/easybuild-2022/easybuild/software/Compiler/NVHPC/22.11-CUDA-11.7.0/Gaussian/g16c01-CUDA-11.7.0/g16/l508.exe)
 QCSCF skips out because SCF is already converged.
 Leave Link  508 at Sat May 24 04:31:53 2025, MaxMem=  3758096384 cpu:               0.1 elap:               0.0
 (Enter /apps/easybuild-2022/easybuild/software/Compiler/NVHPC/22.11-CUDA-11.7.0/Gaussian/g16c01-CUDA-11.7.0/g16/l801.exe)
 DoSCS=F DFT=T ScalE2(SS,OS)=  1.000000  1.000000
 Range of M.O.s used for correlation:     1   324
 NBasis=   324 NAE=    40 NBE=    40 NFC=     0 NFV=     0
 NROrb=    324 NOA=    40 NOB=    40 NVA=   284 NVB=   284

 **** Warning!!: The largest alpha MO coefficient is  0.13165471D+02

 Leave Link  801 at Sat May 24 04:31:53 2025, MaxMem=  3758096384 cpu:               0.1 elap:               0.0
 (Enter /apps/easybuild-2022/easybuild/software/Compiler/NVHPC/22.11-CUDA-11.7.0/Gaussian/g16c01-CUDA-11.7.0/g16/l1101.exe)
 Using compressed storage, NAtomX=    11.
 Will process     12 centers per pass.
   1 Symmetry operations used in ECPInt.
 ECPInt:  NShTT=    6786 NPrTT=   21959 LenC2=    6488 LenP2D=   15972.
 LDataN:  DoStor=T MaxTD1= 7 Len=  274
 Leave Link 1101 at Sat May 24 04:31:53 2025, MaxMem=  3758096384 cpu:               1.2 elap:               0.4
 (Enter /apps/easybuild-2022/easybuild/software/Compiler/NVHPC/22.11-CUDA-11.7.0/Gaussian/g16c01-CUDA-11.7.0/g16/l1102.exe)
 Symmetrizing basis deriv contribution to polar:
 IMax=3 JMax=2 DiffMx= 0.00D+00
 Leave Link 1102 at Sat May 24 04:31:54 2025, MaxMem=  3758096384 cpu:               0.2 elap:               0.1
 (Enter /apps/easybuild-2022/easybuild/software/Compiler/NVHPC/22.11-CUDA-11.7.0/Gaussian/g16c01-CUDA-11.7.0/g16/l1110.exe)
 Forming Gx(P) for the SCF density, NAtomX=    11.
 Integral derivatives from FoFJK, PRISM(SPDF).
 Do as many integral derivatives as possible in FoFJK.
 G2DrvN: MDV=    3758095115.
 G2DrvN: will do    12 centers at a time, making    1 passes.
 Calling FoFCou, ICntrl=  3107 FMM=F I1Cent=   0 AccDes= 0.00D+00.
 FoFJK:  IHMeth= 1 ICntrl=    3107 DoSepK=F KAlg= 0 I1Cent=           0 FoldK=F
 IRaf=         0 NMat=       1 IRICut=       1 DoRegI=T DoRafI=F ISym2E= 0 IDoP0=0 IntGTp=1.
 FoFCou: FMM=F IPFlag=           0 FMFlag=      100000 FMFlg1=           0
         NFxFlg=           0 DoJE=F BraDBF=F KetDBF=F FulRan=T
         wScrn=  0.000000 ICntrl=      3107 IOpCl=  0 I1Cent=           0 NGrid=           0
         NMat0=    1 NMatS0=      1 NMatT0=    0 NMatD0=    1 NMtDS0=    0 NMtDT0=    0
 Symmetry not used in FoFCou.
 End of G2Drv F.D. properties file   721 does not exist.
 End of G2Drv F.D. properties file   722 does not exist.
 End of G2Drv F.D. properties file   788 does not exist.
 Leave Link 1110 at Sat May 24 04:32:32 2025, MaxMem=  3758096384 cpu:             300.0 elap:              38.1
 (Enter /apps/easybuild-2022/easybuild/software/Compiler/NVHPC/22.11-CUDA-11.7.0/Gaussian/g16c01-CUDA-11.7.0/g16/l1002.exe)
 Minotr:  Closed shell wavefunction.
          IDoAtm=11111111111
          Direct CPHF calculation.
          Differentiating once with respect to nuclear coordinates.
          Requested convergence is 1.0D-08 RMS, and 1.0D-07 maximum.
          Secondary convergence is 1.0D-12 RMS, and 1.0D-12 maximum.
          NewPWx=T KeepS1=F KeepF1=F KeepIn=T MapXYZ=F SortEE=F KeepMc=T.
         3300 words used for storage of precomputed grid.
 Keep R1 ints in memory in canonical form, NReq=1412622530.
 FoFCou: FMM=F IPFlag=           0 FMFlag=           0 FMFlg1=           0
         NFxFlg=           0 DoJE=F BraDBF=F KetDBF=F FulRan=T
         wScrn=  0.000000 ICntrl=       600 IOpCl=  0 I1Cent=           0 NGrid=           0
         NMat0=    1 NMatS0=  52650 NMatT0=    0 NMatD0=    1 NMtDS0=    0 NMtDT0=    0
 Symmetry not used in FoFCou.
 Two-electron integral symmetry not used.
          MDV=    3758096384 using IRadAn=       1.
          Solving linear equations simultaneously, MaxMat=       0.
          There are    36 degrees of freedom in the 1st order CPHF.  IDoFFX=6 NUNeed=     0.
     30 vectors produced by pass  0 Test12= 3.16D-14 2.78D-09 XBig12= 1.48D-01 9.04D-02.
 AX will form    30 AO Fock derivatives at one time.
     30 vectors produced by pass  1 Test12= 3.16D-14 2.78D-09 XBig12= 2.56D-02 5.11D-02.
     30 vectors produced by pass  2 Test12= 3.16D-14 2.78D-09 XBig12= 1.49D-03 6.42D-03.
     30 vectors produced by pass  3 Test12= 3.16D-14 2.78D-09 XBig12= 2.96D-05 9.63D-04.
     30 vectors produced by pass  4 Test12= 3.16D-14 2.78D-09 XBig12= 5.88D-07 1.08D-04.
     30 vectors produced by pass  5 Test12= 3.16D-14 2.78D-09 XBig12= 7.32D-09 1.17D-05.
     30 vectors produced by pass  6 Test12= 3.16D-14 2.78D-09 XBig12= 5.06D-11 6.95D-07.
     12 vectors produced by pass  7 Test12= 3.16D-14 2.78D-09 XBig12= 2.49D-13 5.63D-08.
      2 vectors produced by pass  8 Test12= 3.16D-14 2.78D-09 XBig12= 1.22D-15 3.89D-09.
 InvSVY:  IOpt=1 It=  1 EMax= 1.11D-15
 Solved reduced A of dimension   224 with    30 vectors.
 End of Minotr F.D. properties file   721 does not exist.
 End of Minotr F.D. properties file   722 does not exist.
 End of Minotr F.D. properties file   788 does not exist.
 Leave Link 1002 at Sat May 24 04:33:27 2025, MaxMem=  3758096384 cpu:             433.3 elap:              55.1
 (Enter /apps/easybuild-2022/easybuild/software/Compiler/NVHPC/22.11-CUDA-11.7.0/Gaussian/g16c01-CUDA-11.7.0/g16/l701.exe)
 ... and contract with generalized density number  0.
 Compute integral second derivatives.
   1 Symmetry operations used in ECPInt.
 ECPInt:  NShTT=    6786 NPrTT=   21959 LenC2=    6488 LenP2D=   15972.
 LDataN:  DoStor=T MaxTD1= 8 Len=  415
 Leave Link  701 at Sat May 24 04:33:27 2025, MaxMem=  3758096384 cpu:               0.9 elap:               0.2
 (Enter /apps/easybuild-2022/easybuild/software/Compiler/NVHPC/22.11-CUDA-11.7.0/Gaussian/g16c01-CUDA-11.7.0/g16/l702.exe)
 L702 exits ... SP integral derivatives will be done elsewhere.
 Leave Link  702 at Sat May 24 04:33:27 2025, MaxMem=  3758096384 cpu:               0.0 elap:               0.0
 (Enter /apps/easybuild-2022/easybuild/software/Compiler/NVHPC/22.11-CUDA-11.7.0/Gaussian/g16c01-CUDA-11.7.0/g16/l703.exe)
 Integral derivatives from FoFJK, PRISM(SPDF).
 Compute integral second derivatives, UseDBF=F ICtDFT=           0.
 Calling FoFJK, ICntrl=    100127 FMM=F ISym2X=0 I1Cent= 0 IOpClX= 0 NMat=1 NMatS=1 NMatT=0.
 FoFJK:  IHMeth= 1 ICntrl=  100127 DoSepK=F KAlg= 0 I1Cent=           0 FoldK=F
 IRaf=         0 NMat=       1 IRICut=       1 DoRegI=T DoRafI=F ISym2E= 0 IDoP0=0 IntGTp=1.
 FoFCou: FMM=F IPFlag=           0 FMFlag=      100000 FMFlg1=         800
         NFxFlg=           0 DoJE=F BraDBF=F KetDBF=F FulRan=T
         wScrn=  0.000000 ICntrl=    100127 IOpCl=  0 I1Cent=           0 NGrid=           0
         NMat0=    1 NMatS0=      1 NMatT0=    0 NMatD0=    1 NMtDS0=    0 NMtDT0=    0
 Symmetry not used in FoFCou.
 Leave Link  703 at Sat May 24 04:34:53 2025, MaxMem=  3758096384 cpu:             674.8 elap:              85.9
 (Enter /apps/easybuild-2022/easybuild/software/Compiler/NVHPC/22.11-CUDA-11.7.0/Gaussian/g16c01-CUDA-11.7.0/g16/l716.exe)
 Dipole        = 6.34767647D-01 5.61592155D-01-2.07608654D-01
 Polarizability= 0.00000000D+00 0.00000000D+00 0.00000000D+00
                 0.00000000D+00 0.00000000D+00 0.00000000D+00
 -------------------------------------------------------------------
 Center     Atomic                   Forces (Hartrees/Bohr)
 Number     Number              X              Y              Z
 -------------------------------------------------------------------
      1        6          -0.004345250    0.023476338   -0.002016537
      2        8          -0.029211730    0.015737965   -0.005374246
      3        6          -0.002604098   -0.002262911   -0.000579540
      4        6          -0.003320579   -0.004530233   -0.001477753
      5        9          -0.006173841   -0.001447439    0.004790295
      6        9          -0.000977534   -0.002785038   -0.001808804
      7        9           0.003139700   -0.006075918   -0.008916023
      8        9           0.009838310   -0.011242533    0.001847949
      9        9          -0.005354501   -0.015516351    0.005507715
     10        8           0.031702644    0.010055428   -0.000057739
     11        1           0.007306878   -0.005409309    0.008084684
 -------------------------------------------------------------------
 Cartesian Forces:  Max     0.031702644 RMS     0.010634294
 Force constants in Cartesian coordinates: 
                1             2             3             4             5 
      1  0.662261D+00
      2 -0.246604D+00  0.860745D+00
      3 -0.181070D-01  0.908711D-01  0.244992D+00
      4 -0.370192D+00  0.330413D+00  0.233398D-01  0.342383D+00
      5  0.329615D+00 -0.539334D+00 -0.432542D-01 -0.376283D+00  0.635320D+00
      6  0.266890D-01 -0.388596D-01 -0.804464D-01 -0.295083D-01  0.641137D-01
      7 -0.122571D+00  0.106556D-01  0.131160D-01  0.329697D-02  0.629918D-02
      8  0.267441D-01 -0.355685D-01 -0.437183D-03  0.191366D-01 -0.121751D-01
      9 -0.665556D-02  0.185407D-02 -0.986571D-01  0.996130D-02 -0.650431D-02
     10 -0.117668D-01  0.171984D-01  0.302087D-01 -0.251024D-02 -0.210301D-02
     11  0.115720D-01  0.134885D-01 -0.839334D-02 -0.217421D-03 -0.519452D-02
     12  0.265444D-01 -0.138124D-02  0.187327D-01 -0.128716D-01  0.603002D-02
     13  0.618229D-02 -0.583289D-03  0.607852D-02 -0.393440D-02  0.235177D-02
     14  0.162531D-03 -0.180660D-02  0.817990D-03 -0.422849D-03  0.977498D-03
     15 -0.558632D-02 -0.139624D-02 -0.737413D-02  0.368050D-02 -0.137224D-02
     16 -0.200025D-02 -0.636375D-03 -0.298386D-02  0.137162D-02 -0.924681D-03
     17  0.563181D-03 -0.381516D-02  0.157237D-02 -0.140318D-02  0.227884D-02
     18 -0.519274D-02  0.878901D-03 -0.370464D-02  0.348260D-02 -0.159724D-02
     19 -0.639104D-03 -0.290978D-02 -0.972927D-03 -0.824506D-04  0.125154D-02
     20 -0.592332D-02 -0.548344D-02 -0.431097D-02  0.192943D-02  0.154695D-02
     21 -0.477400D-02 -0.100800D-02 -0.509499D-02  0.256222D-02 -0.707280D-03
     22  0.129840D-02  0.157080D-01 -0.206134D-01 -0.609145D-02  0.308788D-02
     23 -0.635924D-02 -0.246921D-01  0.115768D-01  0.875860D-02  0.640984D-03
     24  0.146985D-02  0.641705D-02  0.715204D-03 -0.421659D-02  0.173787D-02
     25 -0.512002D-02 -0.352535D-01 -0.235455D-01 -0.285021D-02  0.588234D-02
     26 -0.943075D-03 -0.437194D-02 -0.447606D-02 -0.551017D-02  0.542167D-02
     27 -0.124734D-02 -0.133864D-01  0.411191D-03 -0.183195D-02  0.387615D-02
     28 -0.144120D+00 -0.760383D-01 -0.378288D-02  0.398723D-01  0.232749D-01
     29 -0.647203D-01 -0.254010D+00 -0.587999D-01  0.168622D-01 -0.917129D-01
     30  0.147197D-02 -0.334522D-01 -0.716750D-01  0.547207D-02 -0.239477D-01
     31 -0.133322D-01 -0.119502D-01 -0.273744D-02 -0.126334D-02  0.754762D-02
     32 -0.441075D-01 -0.515067D-02  0.148335D-01  0.673653D-02  0.223064D-02
     33 -0.146123D-01 -0.105375D-01  0.210170D-02 -0.700738D-04  0.162525D-02
                6             7             8             9            10 
      6  0.483461D-01
      7 -0.410163D-02  0.533334D+00
      8 -0.738774D-03  0.792301D-01  0.531891D+00
      9  0.192331D-01  0.679517D-01  0.323085D-01  0.512326D+00
     10 -0.362045D-02 -0.766283D-01  0.153563D-01  0.569609D-01  0.600220D+00
     11  0.119615D-02  0.131472D-01 -0.515826D-01 -0.273471D-01  0.477152D-03
     12 -0.517978D-02  0.209735D-01 -0.204289D-01 -0.139569D+00 -0.543488D-02
     13 -0.818374D-03 -0.528561D-01 -0.952316D-02  0.420755D-03 -0.315396D+00
     14 -0.793079D-04 -0.460054D-02  0.350287D-02 -0.380815D-02 -0.540244D-01
     15  0.143304D-02  0.384763D-01  0.637271D-03 -0.155132D-02  0.268558D-01
     16  0.142970D-02  0.277449D-02  0.236171D-02  0.968688D-03 -0.112636D+00
     17 -0.104293D-02  0.622926D-02  0.152500D-03  0.252169D-02  0.427336D-01
     18  0.628125D-03 -0.249306D-01  0.297966D-01 -0.191825D-01 -0.627606D-01
     19  0.963671D-04  0.575078D-02  0.711239D-02 -0.166671D-02 -0.790021D-01
     20  0.797312D-03 -0.170186D-02 -0.268569D-01  0.269397D-02 -0.534349D-02
     21  0.108384D-02 -0.166534D-03 -0.262482D-01  0.786438D-03  0.169253D-02
     22  0.230747D-02 -0.762542D-01  0.220609D-01 -0.214047D-01  0.453497D-02
     23 -0.285328D-03  0.267697D-01 -0.182152D+00  0.102594D+00  0.552229D-02
     24 -0.829688D-03 -0.134812D-01  0.857812D-01 -0.152004D+00 -0.120610D-01
     25  0.386762D-02 -0.177260D+00 -0.108074D+00 -0.913282D-01 -0.509676D-02
     26  0.134864D-02 -0.112975D+00 -0.192778D+00 -0.100691D+00 -0.157838D-01
     27  0.111380D-03 -0.812067D-01 -0.925825D-01 -0.143259D+00 -0.260600D-01
     28  0.204555D-02 -0.392601D-01 -0.477498D-01 -0.141931D-01 -0.194239D-02
     29 -0.245884D-01 -0.201869D-01 -0.291797D-01  0.161001D-02 -0.275368D-02
     30  0.179953D-01 -0.159846D-01 -0.327485D-02  0.189773D-01 -0.565832D-02
     31  0.161309D-02 -0.326301D-03 -0.665464D-02 -0.101513D-02  0.224146D-03
     32 -0.186147D-02 -0.286662D-02 -0.525340D-02 -0.523181D-02 -0.127932D-02
     33 -0.237504D-02 -0.646312D-03 -0.481312D-02  0.289930D-02 -0.122761D-03
               11            12            13            14            15 
     11  0.586401D+00
     12  0.615699D-02  0.583635D+00
     13 -0.497264D-01  0.362482D-01  0.439691D+00
     14 -0.864672D-01  0.622248D-02  0.926865D-01  0.107029D+00
     15  0.288079D-02 -0.853104D-01 -0.409310D-02  0.524206D-02  0.793266D-01
     16  0.444435D-01 -0.699134D-01 -0.602780D-01  0.223916D-01 -0.479548D-01
     17 -0.125114D+00  0.832359D-01  0.133150D-01  0.129884D-01  0.195490D-02
     18  0.796616D-01 -0.225028D+00 -0.330170D-01  0.277575D-02  0.172465D-02
     19 -0.738332D-02  0.236121D-02 -0.231939D-01 -0.635275D-01 -0.156144D-01
     20 -0.286428D+00 -0.755886D-01 -0.464668D-01 -0.417054D-01 -0.115960D-01
     21 -0.675520D-01 -0.108377D+00 -0.972514D-02 -0.755869D-02  0.125582D-01
     22 -0.476283D-02  0.565243D-02  0.322813D-02  0.836776D-03 -0.194055D-02
     23 -0.198247D-01  0.931358D-02 -0.329103D-02  0.238115D-02  0.123963D-02
     24  0.433980D-01 -0.251101D-01  0.632518D-02 -0.248816D-02 -0.732440D-03
     25 -0.463107D-02  0.325447D-02  0.705163D-02  0.626489D-02  0.486208D-02
     26 -0.176689D-01 -0.751312D-02  0.161513D-02  0.218562D-02  0.722357D-03
     27 -0.280078D-01 -0.721964D-02 -0.447004D-03 -0.134068D-02 -0.204180D-02
     28 -0.370209D-02 -0.735144D-02 -0.104819D-02  0.228029D-03  0.159976D-02
     29 -0.813853D-02 -0.701814D-02 -0.114343D-02  0.921353D-03  0.199840D-02
     30 -0.239065D-02 -0.685723D-02 -0.937397D-03  0.288212D-03  0.204739D-02
     31  0.783271D-03  0.537002D-03  0.553545D-03  0.491122D-05 -0.285362D-03
     32  0.528950D-03  0.971064D-03  0.765573D-03 -0.698396D-05 -0.310913D-03
     33  0.397316D-03  0.283512D-03 -0.346811D-04 -0.714978D-04 -0.797611D-04
               16            17            18            19            20 
     16  0.159967D+00
     17 -0.888667D-01  0.181602D+00
     18  0.120021D+00 -0.132739D+00  0.251823D+00
     19  0.800123D-02  0.287273D-01 -0.394324D-02  0.904781D-01
     20  0.222626D-01 -0.734334D-01  0.218830D-01  0.326026D-01  0.422210D+00
     21 -0.543047D-02  0.391228D-01  0.128028D-01  0.125165D-01  0.701178D-01
     22  0.126899D-02 -0.122418D-02  0.350068D-02  0.387833D-03 -0.883178D-03
     23 -0.746579D-03  0.117600D-02  0.377326D-02 -0.718672D-03  0.744034D-02
     24  0.385188D-03  0.539892D-03 -0.144627D-01  0.727933D-03  0.217660D-03
     25  0.160259D-02  0.277407D-03 -0.638794D-04  0.115641D-02  0.636686D-03
     26 -0.470831D-04  0.285095D-02 -0.558702D-02  0.214950D-02 -0.226545D-02
     27  0.100641D-02  0.380519D-02 -0.482972D-02  0.315998D-02 -0.610484D-02
     28 -0.511942D-03 -0.343923D-03  0.309594D-02 -0.266834D-02  0.295811D-02
     29 -0.618453D-03  0.153072D-02  0.110493D-02  0.202000D-02  0.532493D-02
     30  0.230216D-02  0.827715D-03  0.503542D-03  0.328610D-02  0.189401D-02
     31  0.440285D-03 -0.782077D-05 -0.192024D-03 -0.188474D-03 -0.708102D-04
     32  0.380512D-03 -0.216294D-03  0.492462D-04  0.675833D-03 -0.350001D-03
     33  0.169549D-03  0.201518D-03 -0.274693D-03  0.491841D-04 -0.338002D-05
               21            22            23            24            25 
     21  0.927201D-01
     22  0.962646D-03  0.800923D-01
     23 -0.288508D-02 -0.927866D-02  0.291497D+00
     24 -0.240342D-03  0.283763D-01 -0.135366D+00  0.173967D+00
     25 -0.117865D-02  0.731974D-02 -0.219291D-01  0.420466D-02  0.192584D+00
     26 -0.481810D-02 -0.333257D-01 -0.864089D-01 -0.473787D-03  0.166423D+00
     27 -0.691196D-02  0.115476D-01  0.133168D-01  0.215932D-01  0.100744D+00
     28  0.351580D-02 -0.168584D-01  0.115395D-02 -0.113935D-01 -0.181286D-01
     29  0.183479D-02  0.719785D-02  0.974511D-02 -0.914763D-03 -0.822072D-02
     30  0.702029D-03 -0.827543D-02 -0.368669D-02 -0.127270D-02  0.172974D-02
     31  0.251352D-04  0.107373D-02  0.118738D-03 -0.336843D-03 -0.125896D-02
     32 -0.298127D-03  0.583069D-03  0.196914D-03  0.115098D-02 -0.137528D-02
     33 -0.289683D-04 -0.113043D-03  0.409248D-03 -0.162385D-02 -0.254600D-02
               26            27            28            29            30 
     26  0.291428D+00
     27  0.122232D+00  0.142126D+00
     28 -0.198309D-02 -0.544583D-02  0.587631D+00
     29  0.150331D-02 -0.201171D-02  0.201618D+00  0.437437D+00
     30 -0.535135D-03  0.100419D-02 -0.156211D+00  0.308910D-01  0.116615D+00
     31  0.380655D-03 -0.218918D-03 -0.402965D+00 -0.130055D+00  0.172805D+00
     32  0.103409D-03  0.204001D-03 -0.994159D-01 -0.734207D-01  0.333863D-01
     33 -0.208939D-03 -0.984144D-03  0.188121D+00  0.558938D-01 -0.780395D-01
               31            32            33 
     31  0.417042D+00
     32  0.139903D+00  0.813382D-01
     33 -0.170194D+00 -0.428928D-01  0.781214D-01
 FormGI is forming the generalized inverse of G from B-inverse, IUseBI=4.
 Leave Link  716 at Sat May 24 04:34:53 2025, MaxMem=  3758096384 cpu:               0.1 elap:               0.0
 (Enter /apps/easybuild-2022/easybuild/software/Compiler/NVHPC/22.11-CUDA-11.7.0/Gaussian/g16c01-CUDA-11.7.0/g16/l103.exe)

 GradGradGradGradGradGradGradGradGradGradGradGradGradGradGradGradGradGrad
 Berny optimization.
 Red2BG is reusing G-inverse.
 Internal  Forces:  Max     0.079082882 RMS     0.017301743
 Search for a local minimum.
 Step number   1 out of a maximum of   53
 All quantities printed in internal units (Hartrees-Bohrs-Radians)
 RMS Force = .17302D-01 SwitMx=.10000D-02 MixMth= 1
 Mixed Optimization -- RFO/linear search
 Second derivative matrix not updated -- analytic derivatives used.
 ITU=  0
     Eigenvalues ---    0.00136   0.00279   0.00657   0.05598   0.06612
     Eigenvalues ---    0.10247   0.10783   0.11552   0.12464   0.13577
     Eigenvalues ---    0.14093   0.17692   0.19503   0.22899   0.24041
     Eigenvalues ---    0.26846   0.27333   0.36319   0.38068   0.38324
     Eigenvalues ---    0.41039   0.43266   0.50558   0.53368   0.58230
     Eigenvalues ---    0.59191   0.91846
 RFO step:  Lambda=-4.28127735D-02 EMin= 1.36480189D-03
 Linear search not attempted -- first point.
 Maximum step size (   0.300) exceeded in Quadratic search.
    -- Step size scaled by   0.763
 Iteration  1 RMS(Cart)=  0.11095893 RMS(Int)=  0.00739938
 Iteration  2 RMS(Cart)=  0.00983877 RMS(Int)=  0.00035464
 Iteration  3 RMS(Cart)=  0.00005198 RMS(Int)=  0.00035288
 Iteration  4 RMS(Cart)=  0.00000001 RMS(Int)=  0.00035288
 ITry= 1 IFail=0 DXMaxC= 3.41D-01 DCOld= 1.00D+10 DXMaxT= 3.00D-01 DXLimC= 3.00D+00 Rises=F
 Variable       Old X    -DE/DX   Delta X   Delta X   Delta X     New X
                                 (Linear)    (Quad)   (Total)
    R1        2.25318  -0.02949   0.00000  -0.01558  -0.01558   2.23761
    R2        3.02016  -0.00580   0.00000  -0.09591  -0.09591   2.92425
    R3        2.53759   0.01660   0.00000  -0.00911  -0.00911   2.52848
    R4        2.98646  -0.00766   0.00000  -0.02683  -0.02683   2.95964
    R5        2.57089  -0.01158   0.00000  -0.02901  -0.02901   2.54188
    R6        2.49001   0.01138   0.00000   0.01745   0.01745   2.50746
    R7        2.49568   0.00637   0.00000   0.00439   0.00439   2.50007
    R8        2.51729  -0.00028   0.00000  -0.00018  -0.00018   2.51711
    R9        2.50697  -0.00780   0.00000  -0.00953  -0.00953   2.49743
   R10        1.82108   0.00184   0.00000   0.00216   0.00216   1.82324
    A1        2.44261  -0.05723   0.00000  -0.18398  -0.18399   2.25862
    A2        2.23013  -0.02192   0.00000   0.01420   0.01417   2.24431
    A3        1.61030   0.07908   0.00000   0.16963   0.16961   1.77991
    A4        1.89511   0.00956   0.00000   0.03893   0.03905   1.93415
    A5        1.96285  -0.00938   0.00000  -0.04190  -0.04285   1.92000
    A6        1.98195  -0.00269   0.00000  -0.03805  -0.03815   1.94380
    A7        1.83041   0.00718   0.00000   0.03411   0.03463   1.86504
    A8        1.95412  -0.01057   0.00000  -0.03214  -0.03175   1.92237
    A9        1.83386   0.00596   0.00000   0.04236   0.04207   1.87593
   A10        1.86065   0.01083   0.00000   0.04071   0.04101   1.90165
   A11        1.92499  -0.00205   0.00000  -0.00759  -0.00794   1.91705
   A12        2.00534  -0.01501   0.00000  -0.04989  -0.04991   1.95544
   A13        1.90877  -0.00347   0.00000  -0.00940  -0.00945   1.89933
   A14        1.88522   0.00218   0.00000   0.01055   0.01114   1.89636
   A15        1.87721   0.00767   0.00000   0.01658   0.01597   1.89318
   A16        2.00035  -0.00392   0.00000  -0.04232  -0.04232   1.95803
    D1        1.93772  -0.00584   0.00000  -0.02129  -0.02083   1.91689
    D2       -2.32790   0.00352   0.00000   0.02064   0.02017  -2.30773
    D3       -0.24817   0.00253   0.00000   0.01807   0.01854  -0.22963
    D4       -1.18547  -0.00148   0.00000  -0.01271  -0.01256  -1.19803
    D5        0.83210   0.00788   0.00000   0.02922   0.02845   0.86055
    D6        2.91183   0.00689   0.00000   0.02666   0.02682   2.93865
    D7        0.65923  -0.00764   0.00000  -0.13429  -0.13382   0.52541
    D8       -2.49735  -0.01195   0.00000  -0.14473  -0.14520  -2.64256
    D9       -2.60352   0.00017   0.00000  -0.00135  -0.00119  -2.60472
   D10       -0.53298   0.00123   0.00000   0.00708   0.00726  -0.52572
   D11        1.59192  -0.00108   0.00000  -0.01298  -0.01234   1.57958
   D12        1.57790   0.00238   0.00000   0.00937   0.00881   1.58671
   D13       -2.63475   0.00344   0.00000   0.01780   0.01726  -2.61749
   D14       -0.50985   0.00113   0.00000  -0.00226  -0.00234  -0.51218
   D15       -0.40139  -0.00370   0.00000  -0.04435  -0.04446  -0.44586
   D16        1.66914  -0.00264   0.00000  -0.03592  -0.03601   1.63314
   D17       -2.48914  -0.00495   0.00000  -0.05598  -0.05561  -2.54474
         Item               Value     Threshold  Converged?
 Maximum Force            0.079083     0.000450     NO 
 RMS     Force            0.017302     0.000300     NO 
 Maximum Displacement     0.340644     0.001800     NO 
 RMS     Displacement     0.110807     0.001200     NO 
 Predicted change in Energy=-2.316836D-02
 Lowest energy point so far.  Saving SCF results.
 GradGradGradGradGradGradGradGradGradGradGradGradGradGradGradGradGradGrad

 Leave Link  103 at Sat May 24 04:34:53 2025, MaxMem=  3758096384 cpu:               0.1 elap:               0.0
 (Enter /apps/easybuild-2022/easybuild/software/Compiler/NVHPC/22.11-CUDA-11.7.0/Gaussian/g16c01-CUDA-11.7.0/g16/l202.exe)
                          Input orientation:                          
 ---------------------------------------------------------------------
 Center     Atomic      Atomic             Coordinates (Angstroms)
 Number     Number       Type             X           Y           Z
 ---------------------------------------------------------------------
      1          6           0        1.379517   -0.421405   -0.533454
      2          8           0        1.946072   -1.451762   -0.672930
      3          6           0       -0.133304   -0.110990   -0.631463
      4          6           0       -0.726450    0.218835    0.780022
      5          9           0       -1.991847   -0.165650    0.814984
      6          9           0       -0.050798   -0.440592    1.719629
      7          9           0       -0.669556    1.510823    1.052268
      8          9           0       -0.331542    0.974150   -1.401195
      9          9           0       -0.798782   -1.117830   -1.182873
     10          8           0        1.888284    0.774215   -0.214191
     11          1           0        2.793134    0.881599   -0.531350
 ---------------------------------------------------------------------
                    Distance matrix (angstroms):
                    1          2          3          4          5
     1  C    0.000000
     2  O    1.184091   0.000000
     3  C    1.547446   2.474508   0.000000
     4  C    2.563245   3.470495   1.566173   0.000000
     5  F    3.640027   4.401725   2.355712   1.322982   0.000000
     6  F    2.668811   3.276323   2.375516   1.331995   2.159086
     7  F    3.232139   4.312161   2.398498   1.321585   2.148330
     8  F    2.372398   3.406309   1.345107   2.341828   2.994529
     9  F    2.377339   2.811721   1.326892   2.375892   2.514256
    10  O    1.338014   2.273490   2.246001   2.851972   4.122859
    11  H    1.922534   2.486389   3.091811   3.813978   5.079901
                    6          7          8          9         10
     6  F    0.000000
     7  F    2.153196   0.000000
     8  F    3.438001   2.534117   0.000000
     9  F    3.072889   3.452878   2.154613   0.000000
    10  O    2.995906   2.947721   2.525189   3.426150   0.000000
    11  H    3.860446   3.859274   3.244811   4.162218   0.964818
                   11
    11  H    0.000000
 Symmetry turned off by external request.
 Stoichiometry    C3HF5O2
 Rotational constants (GHZ):           1.8856640           1.2072708           1.1310756
 Leave Link  202 at Sat May 24 04:34:53 2025, MaxMem=  3758096384 cpu:               0.1 elap:               0.0
 (Enter /apps/easybuild-2022/easybuild/software/Compiler/NVHPC/22.11-CUDA-11.7.0/Gaussian/g16c01-CUDA-11.7.0/g16/l301.exe)
 Standard basis: def2TZVPP (5D, 7F)
 Ernie: Thresh=  0.10000D-02 Tol=  0.10000D-05 Strict=F.
   324 basis functions,   527 primitive gaussians,   375 cartesian basis functions
    40 alpha electrons       40 beta electrons
       nuclear repulsion energy       641.5395418556 Hartrees.
 IExCor= 4336 DFT=T Ex+Corr=M062X ExCW=0 ScaHFX=  0.540000
 ScaDFX=  1.000000  1.000000  1.000000  1.000000 ScalE2=  1.000000  1.000000
 IRadAn=      5 IRanWt=     -1 IRanGd=            0 ICorTp=0 IEmpDi=  4
 NAtoms=   11 NActive=   11 NUniq=   11 SFac= 1.00D+00 NAtFMM=   60 NAOKFM=F Big=F
 Integral buffers will be    131072 words long.
 Raffenetti 2 integral format.
 Two-electron integral symmetry is turned off.
 Leave Link  301 at Sat May 24 04:34:53 2025, MaxMem=  3758096384 cpu:               0.1 elap:               0.0
 (Enter /apps/easybuild-2022/easybuild/software/Compiler/NVHPC/22.11-CUDA-11.7.0/Gaussian/g16c01-CUDA-11.7.0/g16/l302.exe)
 NPDir=0 NMtPBC=     1 NCelOv=     1 NCel=       1 NClECP=     1 NCelD=      1
         NCelK=      1 NCelE2=     1 NClLst=     1 CellRange=     0.0.
 One-electron integrals computed using PRISM.
   1 Symmetry operations used in ECPInt.
 ECPInt:  NShTT=    6786 NPrTT=   21959 LenC2=    6485 LenP2D=   16001.
 LDataN:  DoStor=T MaxTD1= 6 Len=  172
 NBasis=   324 RedAO= T EigKep=  3.53D-04  NBF=   324
 NBsUse=   324 1.00D-06 EigRej= -1.00D+00 NBFU=   324
 Precomputing XC quadrature grid using
 IXCGrd= 4 IRadAn=           5 IRanWt=          -1 IRanGd=           0 AccXCQ= 0.00D+00.
 Generated NRdTot=       0 NPtTot=           0 NUsed=           0 NTot=          32
 NSgBfM=   374   374   374   374   374 MxSgAt=    11 MxSgA2=    11.
 Leave Link  302 at Sat May 24 04:34:53 2025, MaxMem=  3758096384 cpu:               0.8 elap:               0.2
 (Enter /apps/easybuild-2022/easybuild/software/Compiler/NVHPC/22.11-CUDA-11.7.0/Gaussian/g16c01-CUDA-11.7.0/g16/l303.exe)
 DipDrv:  MaxL=1.
 Leave Link  303 at Sat May 24 04:34:53 2025, MaxMem=  3758096384 cpu:               0.1 elap:               0.1
 (Enter /apps/easybuild-2022/easybuild/software/Compiler/NVHPC/22.11-CUDA-11.7.0/Gaussian/g16c01-CUDA-11.7.0/g16/l401.exe)
 Initial guess from the checkpoint file:  "1642764945472630600001_r12_insertion_R_10_1_3_IRC_R_prod.chk"
 B after Tr=    -0.027887    0.007733   -0.003207
         Rot=    0.999946    0.002756   -0.003304   -0.009430 Ang=   1.19 deg.
 Guess basis will be translated and rotated to current coordinates.
 JPrj=2 DoOrth=T DoCkMO=T.
 Generating alternative initial guess.
 ExpMin= 9.52D-02 ExpMax= 3.55D+04 ExpMxC= 1.21D+03 IAcc=3 IRadAn=         5 AccDes= 0.00D+00
 Harris functional with IExCor= 1009 and IRadAn=       5 diagonalized for initial guess.
 HarFok:  IExCor= 1009 AccDes= 0.00D+00 IRadAn=         5 IDoV= 1 UseB2=F ITyADJ=14
 ICtDFT=  3500011 ScaDFX=  1.000000  1.000000  1.000000  1.000000
 FoFCou: FMM=F IPFlag=           0 FMFlag=      100000 FMFlg1=           0
         NFxFlg=           0 DoJE=T BraDBF=F KetDBF=T FulRan=T
         wScrn=  0.000000 ICntrl=       500 IOpCl=  0 I1Cent=   200000004 NGrid=           0
         NMat0=    1 NMatS0=      1 NMatT0=    0 NMatD0=    1 NMtDS0=    0 NMtDT0=    0
 Symmetry not used in FoFCou.
 Harris En= -764.188858509007    
 Leave Link  401 at Sat May 24 04:34:54 2025, MaxMem=  3758096384 cpu:               2.9 elap:               0.6
 (Enter /apps/easybuild-2022/easybuild/software/Compiler/NVHPC/22.11-CUDA-11.7.0/Gaussian/g16c01-CUDA-11.7.0/g16/l502.exe)
 Keep R1 ints in memory in canonical form, NReq=1412617130.
 FoFCou: FMM=F IPFlag=           0 FMFlag=           0 FMFlg1=           0
         NFxFlg=           0 DoJE=F BraDBF=F KetDBF=F FulRan=T
         wScrn=  0.000000 ICntrl=       600 IOpCl=  0 I1Cent=           0 NGrid=           0
         NMat0=    1 NMatS0=  52650 NMatT0=    0 NMatD0=    1 NMtDS0=    0 NMtDT0=    0
 Symmetry not used in FoFCou.
 Two-electron integral symmetry not used.
 Closed shell SCF:
 Using DIIS extrapolation, IDIIS=  1040.
 NGot=  3758096384 LenX=  2371771924 LenY=  2371630858
 Requested convergence on RMS density matrix=1.00D-08 within  32 cycles.
 Requested convergence on MAX density matrix=1.00D-06.
 Requested convergence on             energy=1.00D-06.
 No special actions if energy rises.
 Integral accuracy reduced to 1.0D-05 until final iterations.

 Cycle   1  Pass 0  IDiag  1:
 E= -764.626555969855    
 DIIS: error= 5.95D-03 at cycle   1 NSaved=   1.
 NSaved= 1 IEnMin= 1 EnMin= -764.626555969855     IErMin= 1 ErrMin= 5.95D-03
 ErrMax= 5.95D-03  0.00D+00 EMaxC= 1.00D-01 BMatC= 2.79D-02 BMatP= 2.79D-02
 IDIUse=3 WtCom= 9.40D-01 WtEn= 5.95D-02
 Coeff-Com:  0.100D+01
 Coeff-En:   0.100D+01
 Coeff:      0.100D+01
 Gap=     1.055 Goal=   None    Shift=    0.000
 GapD=    1.055 DampG=2.000 DampE=1.000 DampFc=2.0000 IDamp=-1.
 RMSDP=5.18D-04 MaxDP=1.68D-02              OVMax= 3.67D-02

 Cycle   2  Pass 0  IDiag  1:
 E= -764.655818035375     Delta-E=       -0.029262065520 Rises=F Damp=F
 DIIS: error= 1.31D-03 at cycle   2 NSaved=   2.
 NSaved= 2 IEnMin= 2 EnMin= -764.655818035375     IErMin= 2 ErrMin= 1.31D-03
 ErrMax= 1.31D-03  0.00D+00 EMaxC= 1.00D-01 BMatC= 1.45D-03 BMatP= 2.79D-02
 IDIUse=3 WtCom= 9.87D-01 WtEn= 1.31D-02
 Coeff-Com: -0.549D-01 0.105D+01
 Coeff-En:   0.000D+00 0.100D+01
 Coeff:     -0.542D-01 0.105D+01
 Gap=     0.400 Goal=   None    Shift=    0.000
 RMSDP=1.51D-04 MaxDP=6.96D-03 DE=-2.93D-02 OVMax= 1.66D-02

 Cycle   3  Pass 0  IDiag  1:
 E= -764.656053763794     Delta-E=       -0.000235728419 Rises=F Damp=F
 DIIS: error= 1.76D-03 at cycle   3 NSaved=   3.
 NSaved= 3 IEnMin= 3 EnMin= -764.656053763794     IErMin= 2 ErrMin= 1.31D-03
 ErrMax= 1.76D-03  0.00D+00 EMaxC= 1.00D-01 BMatC= 2.15D-03 BMatP= 1.45D-03
 IDIUse=3 WtCom= 1.93D-01 WtEn= 8.07D-01
 Coeff-Com: -0.792D-01 0.621D+00 0.458D+00
 Coeff-En:   0.000D+00 0.440D+00 0.560D+00
 Coeff:     -0.153D-01 0.475D+00 0.540D+00
 Gap=     0.393 Goal=   None    Shift=    0.000
 RMSDP=9.96D-05 MaxDP=6.43D-03 DE=-2.36D-04 OVMax= 1.37D-02

 Cycle   4  Pass 0  IDiag  1:
 E= -764.657261557138     Delta-E=       -0.001207793344 Rises=F Damp=F
 DIIS: error= 8.46D-04 at cycle   4 NSaved=   4.
 NSaved= 4 IEnMin= 4 EnMin= -764.657261557138     IErMin= 4 ErrMin= 8.46D-04
 ErrMax= 8.46D-04  0.00D+00 EMaxC= 1.00D-01 BMatC= 3.57D-04 BMatP= 1.45D-03
 IDIUse=3 WtCom= 9.92D-01 WtEn= 8.46D-03
 Coeff-Com: -0.164D-01 0.258D-01 0.299D+00 0.692D+00
 Coeff-En:   0.000D+00 0.000D+00 0.142D+00 0.858D+00
 Coeff:     -0.162D-01 0.256D-01 0.297D+00 0.693D+00
 Gap=     0.395 Goal=   None    Shift=    0.000
 RMSDP=3.53D-05 MaxDP=2.15D-03 DE=-1.21D-03 OVMax= 5.46D-03

 Cycle   5  Pass 0  IDiag  1:
 E= -764.657502890416     Delta-E=       -0.000241333278 Rises=F Damp=F
 DIIS: error= 1.04D-04 at cycle   5 NSaved=   5.
 NSaved= 5 IEnMin= 5 EnMin= -764.657502890416     IErMin= 5 ErrMin= 1.04D-04
 ErrMax= 1.04D-04  0.00D+00 EMaxC= 1.00D-01 BMatC= 1.25D-05 BMatP= 3.57D-04
 IDIUse=3 WtCom= 9.99D-01 WtEn= 1.04D-03
 Coeff-Com:  0.117D-04-0.551D-01 0.108D+00 0.370D+00 0.577D+00
 Coeff-En:   0.000D+00 0.000D+00 0.000D+00 0.000D+00 0.100D+01
 Coeff:      0.117D-04-0.551D-01 0.108D+00 0.370D+00 0.578D+00
 Gap=     0.395 Goal=   None    Shift=    0.000
 RMSDP=6.33D-06 MaxDP=3.37D-04 DE=-2.41D-04 OVMax= 7.28D-04

 Initial convergence to 1.0D-05 achieved.  Increase integral accuracy.
 Cycle   6  Pass 1  IDiag  1:
 E= -764.657541100295     Delta-E=       -0.000038209879 Rises=F Damp=F
 DIIS: error= 2.31D-05 at cycle   1 NSaved=   1.
 NSaved= 1 IEnMin= 1 EnMin= -764.657541100295     IErMin= 1 ErrMin= 2.31D-05
 ErrMax= 2.31D-05  0.00D+00 EMaxC= 1.00D-01 BMatC= 7.80D-07 BMatP= 7.80D-07
 IDIUse=1 WtCom= 1.00D+00 WtEn= 0.00D+00
 Coeff-Com:  0.100D+01
 Coeff:      0.100D+01
 Gap=     0.395 Goal=   None    Shift=    0.000
 RMSDP=6.33D-06 MaxDP=3.37D-04 DE=-3.82D-05 OVMax= 2.97D-04

 Cycle   7  Pass 1  IDiag  1:
 E= -764.657541605433     Delta-E=       -0.000000505138 Rises=F Damp=F
 DIIS: error= 2.05D-05 at cycle   2 NSaved=   2.
 NSaved= 2 IEnMin= 2 EnMin= -764.657541605433     IErMin= 2 ErrMin= 2.05D-05
 ErrMax= 2.05D-05  0.00D+00 EMaxC= 1.00D-01 BMatC= 2.62D-07 BMatP= 7.80D-07
 IDIUse=1 WtCom= 1.00D+00 WtEn= 0.00D+00
 Coeff-Com:  0.316D+00 0.684D+00
 Coeff:      0.316D+00 0.684D+00
 Gap=     0.395 Goal=   None    Shift=    0.000
 RMSDP=1.35D-06 MaxDP=7.52D-05 DE=-5.05D-07 OVMax= 1.44D-04

 Cycle   8  Pass 1  IDiag  1:
 E= -764.657541725617     Delta-E=       -0.000000120184 Rises=F Damp=F
 DIIS: error= 1.12D-05 at cycle   3 NSaved=   3.
 NSaved= 3 IEnMin= 3 EnMin= -764.657541725617     IErMin= 3 ErrMin= 1.12D-05
 ErrMax= 1.12D-05  0.00D+00 EMaxC= 1.00D-01 BMatC= 7.90D-08 BMatP= 2.62D-07
 IDIUse=1 WtCom= 1.00D+00 WtEn= 0.00D+00
 Coeff-Com: -0.120D-01 0.343D+00 0.669D+00
 Coeff:     -0.120D-01 0.343D+00 0.669D+00
 Gap=     0.395 Goal=   None    Shift=    0.000
 RMSDP=7.16D-07 MaxDP=3.29D-05 DE=-1.20D-07 OVMax= 1.09D-04

 Cycle   9  Pass 1  IDiag  1:
 E= -764.657541779174     Delta-E=       -0.000000053557 Rises=F Damp=F
 DIIS: error= 3.06D-06 at cycle   4 NSaved=   4.
 NSaved= 4 IEnMin= 4 EnMin= -764.657541779174     IErMin= 4 ErrMin= 3.06D-06
 ErrMax= 3.06D-06  0.00D+00 EMaxC= 1.00D-01 BMatC= 7.72D-09 BMatP= 7.90D-08
 IDIUse=1 WtCom= 1.00D+00 WtEn= 0.00D+00
 Coeff-Com: -0.286D-01 0.115D+00 0.336D+00 0.577D+00
 Coeff:     -0.286D-01 0.115D+00 0.336D+00 0.577D+00
 Gap=     0.395 Goal=   None    Shift=    0.000
 RMSDP=2.02D-07 MaxDP=1.05D-05 DE=-5.36D-08 OVMax= 2.40D-05

 Cycle  10  Pass 1  IDiag  1:
 E= -764.657541784656     Delta-E=       -0.000000005482 Rises=F Damp=F
 DIIS: error= 1.19D-06 at cycle   5 NSaved=   5.
 NSaved= 5 IEnMin= 5 EnMin= -764.657541784656     IErMin= 5 ErrMin= 1.19D-06
 ErrMax= 1.19D-06  0.00D+00 EMaxC= 1.00D-01 BMatC= 7.18D-10 BMatP= 7.72D-09
 IDIUse=1 WtCom= 1.00D+00 WtEn= 0.00D+00
 Coeff-Com: -0.876D-02-0.148D-01 0.303D-01 0.223D+00 0.771D+00
 Coeff:     -0.876D-02-0.148D-01 0.303D-01 0.223D+00 0.771D+00
 Gap=     0.395 Goal=   None    Shift=    0.000
 RMSDP=8.91D-08 MaxDP=2.98D-06 DE=-5.48D-09 OVMax= 1.35D-05

 Cycle  11  Pass 1  IDiag  1:
 E= -764.657541785485     Delta-E=       -0.000000000829 Rises=F Damp=F
 DIIS: error= 5.37D-07 at cycle   6 NSaved=   6.
 NSaved= 6 IEnMin= 6 EnMin= -764.657541785485     IErMin= 6 ErrMin= 5.37D-07
 ErrMax= 5.37D-07  0.00D+00 EMaxC= 1.00D-01 BMatC= 1.22D-10 BMatP= 7.18D-10
 IDIUse=1 WtCom= 1.00D+00 WtEn= 0.00D+00
 Coeff-Com:  0.198D-02-0.274D-01-0.500D-01-0.436D-01 0.298D+00 0.821D+00
 Coeff:      0.198D-02-0.274D-01-0.500D-01-0.436D-01 0.298D+00 0.821D+00
 Gap=     0.395 Goal=   None    Shift=    0.000
 RMSDP=4.34D-08 MaxDP=1.61D-06 DE=-8.29D-10 OVMax= 8.84D-06

 Cycle  12  Pass 1  IDiag  1:
 E= -764.657541785685     Delta-E=       -0.000000000201 Rises=F Damp=F
 DIIS: error= 9.94D-08 at cycle   7 NSaved=   7.
 NSaved= 7 IEnMin= 7 EnMin= -764.657541785685     IErMin= 7 ErrMin= 9.94D-08
 ErrMax= 9.94D-08  0.00D+00 EMaxC= 1.00D-01 BMatC= 5.26D-12 BMatP= 1.22D-10
 IDIUse=1 WtCom= 1.00D+00 WtEn= 0.00D+00
 Coeff-Com:  0.113D-02-0.480D-02-0.126D-01-0.268D-01 0.680D-02 0.159D+00
 Coeff-Com:  0.878D+00
 Coeff:      0.113D-02-0.480D-02-0.126D-01-0.268D-01 0.680D-02 0.159D+00
 Coeff:      0.878D+00
 Gap=     0.395 Goal=   None    Shift=    0.000
 RMSDP=1.28D-08 MaxDP=5.41D-07 DE=-2.01D-10 OVMax= 3.03D-06

 Cycle  13  Pass 1  IDiag  1:
 E= -764.657541785698     Delta-E=       -0.000000000013 Rises=F Damp=F
 DIIS: error= 3.72D-08 at cycle   8 NSaved=   8.
 NSaved= 8 IEnMin= 8 EnMin= -764.657541785698     IErMin= 8 ErrMin= 3.72D-08
 ErrMax= 3.72D-08  0.00D+00 EMaxC= 1.00D-01 BMatC= 9.43D-13 BMatP= 5.26D-12
 IDIUse=1 WtCom= 1.00D+00 WtEn= 0.00D+00
 Coeff-Com:  0.216D-04 0.241D-02 0.347D-02-0.122D-02-0.364D-01-0.687D-01
 Coeff-Com:  0.188D+00 0.913D+00
 Coeff:      0.216D-04 0.241D-02 0.347D-02-0.122D-02-0.364D-01-0.687D-01
 Coeff:      0.188D+00 0.913D+00
 Gap=     0.395 Goal=   None    Shift=    0.000
 RMSDP=5.99D-09 MaxDP=2.52D-07 DE=-1.30D-11 OVMax= 1.42D-06

 SCF Done:  E(RM062X) =  -764.657541786     A.U. after   13 cycles
            NFock= 13  Conv=0.60D-08     -V/T= 2.0036
 KE= 7.618959847580D+02 PE=-3.095670476992D+03 EE= 9.275774085922D+02
 Leave Link  502 at Sat May 24 04:35:18 2025, MaxMem=  3758096384 cpu:             102.1 elap:              24.4
 (Enter /apps/easybuild-2022/easybuild/software/Compiler/NVHPC/22.11-CUDA-11.7.0/Gaussian/g16c01-CUDA-11.7.0/g16/l508.exe)
 QCSCF skips out because SCF is already converged.
 Leave Link  508 at Sat May 24 04:35:18 2025, MaxMem=  3758096384 cpu:               0.1 elap:               0.0
 (Enter /apps/easybuild-2022/easybuild/software/Compiler/NVHPC/22.11-CUDA-11.7.0/Gaussian/g16c01-CUDA-11.7.0/g16/l701.exe)
 ... and contract with generalized density number  0.
 Compute integral first derivatives.
   1 Symmetry operations used in ECPInt.
 ECPInt:  NShTT=    6786 NPrTT=   21959 LenC2=    6485 LenP2D=   16001.
 LDataN:  DoStor=T MaxTD1= 7 Len=  274
 Leave Link  701 at Sat May 24 04:35:19 2025, MaxMem=  3758096384 cpu:               0.8 elap:               0.3
 (Enter /apps/easybuild-2022/easybuild/software/Compiler/NVHPC/22.11-CUDA-11.7.0/Gaussian/g16c01-CUDA-11.7.0/g16/l702.exe)
 L702 exits ... SP integral derivatives will be done elsewhere.
 Leave Link  702 at Sat May 24 04:35:19 2025, MaxMem=  3758096384 cpu:               0.1 elap:               0.0
 (Enter /apps/easybuild-2022/easybuild/software/Compiler/NVHPC/22.11-CUDA-11.7.0/Gaussian/g16c01-CUDA-11.7.0/g16/l703.exe)
 Integral derivatives from FoFJK, PRISM(SPDF).
 Compute integral first derivatives, UseDBF=F ICtDFT=           0.
 Calling FoFJK, ICntrl=      2127 FMM=F ISym2X=0 I1Cent= 0 IOpClX= 0 NMat=1 NMatS=1 NMatT=0.
 FoFJK:  IHMeth= 1 ICntrl=    2127 DoSepK=F KAlg= 0 I1Cent=           0 FoldK=F
 IRaf=         0 NMat=       1 IRICut=       1 DoRegI=T DoRafI=F ISym2E= 0 IDoP0=0 IntGTp=1.
 FoFCou: FMM=F IPFlag=           0 FMFlag=      100000 FMFlg1=         800
         NFxFlg=           0 DoJE=F BraDBF=F KetDBF=F FulRan=T
         wScrn=  0.000000 ICntrl=      2127 IOpCl=  0 I1Cent=           0 NGrid=           0
         NMat0=    1 NMatS0=      1 NMatT0=    0 NMatD0=    1 NMtDS0=    0 NMtDT0=    0
 Symmetry not used in FoFCou.
 Leave Link  703 at Sat May 24 04:35:28 2025, MaxMem=  3758096384 cpu:              61.4 elap:               9.6
 (Enter /apps/easybuild-2022/easybuild/software/Compiler/NVHPC/22.11-CUDA-11.7.0/Gaussian/g16c01-CUDA-11.7.0/g16/l716.exe)
 Dipole        = 7.00517516D-01 5.79549853D-01-1.34351666D-01
 -------------------------------------------------------------------
 Center     Atomic                   Forces (Hartrees/Bohr)
 Number     Number              X              Y              Z
 -------------------------------------------------------------------
      1        6          -0.004257671    0.013547507    0.003685820
      2        8          -0.005770745    0.003480151   -0.004795712
      3        6          -0.005614177   -0.000473821    0.001184018
      4        6          -0.002289113   -0.004159967   -0.001651011
      5        9          -0.001867658    0.000247425    0.001864293
      6        9          -0.000560105   -0.001183095   -0.000464548
      7        9           0.001877152   -0.001317876   -0.002089434
      8        9           0.001797724   -0.002166123   -0.001830320
      9        9           0.000028223   -0.006835179    0.003516773
     10        8           0.012614103    0.003610411   -0.006754356
     11        1           0.004042267   -0.004749433    0.007334478
 -------------------------------------------------------------------
 Cartesian Forces:  Max     0.013547507 RMS     0.004740165
 Leave Link  716 at Sat May 24 04:35:28 2025, MaxMem=  3758096384 cpu:               0.1 elap:               0.0
 (Enter /apps/easybuild-2022/easybuild/software/Compiler/NVHPC/22.11-CUDA-11.7.0/Gaussian/g16c01-CUDA-11.7.0/g16/l103.exe)

 GradGradGradGradGradGradGradGradGradGradGradGradGradGradGradGradGradGrad
 Berny optimization.
 Using GEDIIS/GDIIS optimizer.
 FormGI is forming the generalized inverse of G from B-inverse, IUseBI=4.
 Internal  Forces:  Max     0.033320820 RMS     0.007003971
 Search for a local minimum.
 Step number   2 out of a maximum of   53
 All quantities printed in internal units (Hartrees-Bohrs-Radians)
 RMS Force = .70040D-02 SwitMx=.10000D-02 MixMth= 1
 Mixed Optimization -- RFO/linear search
 Update second derivatives using D2CorX and points    1    2
 DE= -2.32D-02 DEPred=-2.32D-02 R= 1.00D+00
 TightC=F SS=  1.41D+00  RLast= 3.72D-01 DXNew= 5.0454D-01 1.1162D+00
 Trust test= 1.00D+00 RLast= 3.72D-01 DXMaxT set to 5.05D-01
 ITU=  1  0
 Use linear search instead of GDIIS.
     Eigenvalues ---    0.00137   0.00280   0.00658   0.05563   0.06607
     Eigenvalues ---    0.10271   0.10775   0.11529   0.12499   0.13624
     Eigenvalues ---    0.15105   0.18005   0.19632   0.22908   0.24030
     Eigenvalues ---    0.26827   0.27289   0.36533   0.37239   0.38657
     Eigenvalues ---    0.41110   0.43228   0.48638   0.53168   0.54919
     Eigenvalues ---    0.59012   0.92445
 RFO step:  Lambda=-8.83773074D-03 EMin= 1.36831366D-03
 Quartic linear search produced a step of  0.67963.
 Iteration  1 RMS(Cart)=  0.08833882 RMS(Int)=  0.09943687
 Iteration  2 RMS(Cart)=  0.04401060 RMS(Int)=  0.05598745
 Iteration  3 RMS(Cart)=  0.04428707 RMS(Int)=  0.01346147
 Iteration  4 RMS(Cart)=  0.01409884 RMS(Int)=  0.00057979
 Iteration  5 RMS(Cart)=  0.00041625 RMS(Int)=  0.00036428
 Iteration  6 RMS(Cart)=  0.00000028 RMS(Int)=  0.00036428
 ITry= 1 IFail=0 DXMaxC= 5.29D-01 DCOld= 1.00D+10 DXMaxT= 5.05D-01 DXLimC= 3.00D+00 Rises=F
 Variable       Old X    -DE/DX   Delta X   Delta X   Delta X     New X
                                 (Linear)    (Quad)   (Total)
    R1        2.23761  -0.00522  -0.01059   0.01948   0.00889   2.24650
    R2        2.92425   0.00326  -0.06519   0.05212  -0.01307   2.91118
    R3        2.52848   0.00545  -0.00619  -0.03395  -0.04014   2.48834
    R4        2.95964  -0.00238  -0.01823  -0.00456  -0.02279   2.93684
    R5        2.54188  -0.00097  -0.01971   0.00420  -0.01551   2.52637
    R6        2.50746   0.00371   0.01186  -0.00538   0.00648   2.51394
    R7        2.50007   0.00176   0.00298  -0.00465  -0.00166   2.49841
    R8        2.51711  -0.00003  -0.00012   0.00126   0.00113   2.51824
    R9        2.49743  -0.00164  -0.00648   0.00783   0.00136   2.49879
   R10        1.82324   0.00085   0.00147   0.00650   0.00797   1.83121
    A1        2.25862  -0.02165  -0.12504   0.02606  -0.09912   2.15951
    A2        2.24431  -0.01171   0.00963  -0.01458  -0.00509   2.23922
    A3        1.77991   0.03332   0.11527  -0.01059   0.10455   1.88446
    A4        1.93415   0.00373   0.02654  -0.00696   0.01925   1.95341
    A5        1.92000  -0.00249  -0.02912   0.02673  -0.00350   1.91650
    A6        1.94380  -0.00239  -0.02593  -0.02225  -0.04845   1.89536
    A7        1.86504   0.00298   0.02354   0.00042   0.02416   1.88920
    A8        1.92237  -0.00397  -0.02158  -0.00439  -0.02589   1.89648
    A9        1.87593   0.00228   0.02859   0.00814   0.03667   1.91261
   A10        1.90165   0.00449   0.02787   0.00029   0.02846   1.93011
   A11        1.91705  -0.00078  -0.00540  -0.00276  -0.00856   1.90849
   A12        1.95544  -0.00478  -0.03392   0.00677  -0.02721   1.92823
   A13        1.89933  -0.00142  -0.00642   0.00401  -0.00244   1.89688
   A14        1.89636   0.00047   0.00757  -0.00073   0.00744   1.90380
   A15        1.89318   0.00205   0.01086  -0.00756   0.00255   1.89573
   A16        1.95803  -0.00252  -0.02876  -0.05129  -0.08006   1.87797
    D1        1.91689  -0.00239  -0.01416  -0.02190  -0.03592   1.88097
    D2       -2.30773   0.00203   0.01371  -0.00898   0.00409  -2.30364
    D3       -0.22963   0.00174   0.01260   0.00445   0.01701  -0.21262
    D4       -1.19803  -0.00101  -0.00854  -0.05617  -0.06420  -1.26223
    D5        0.86055   0.00340   0.01933  -0.04325  -0.02419   0.83635
    D6        2.93865   0.00312   0.01822  -0.02982  -0.01127   2.92737
    D7        0.52541  -0.00722  -0.09095  -0.57018  -0.66165  -0.13624
    D8       -2.64256  -0.00880  -0.09868  -0.53543  -0.63359   3.00704
    D9       -2.60472   0.00077  -0.00081  -0.06229  -0.06293  -2.66764
   D10       -0.52572   0.00129   0.00494  -0.05887  -0.05379  -0.57951
   D11        1.57958   0.00020  -0.00838  -0.06586  -0.07354   1.50604
   D12        1.58671  -0.00016   0.00599  -0.09097  -0.08560   1.50110
   D13       -2.61749   0.00036   0.01173  -0.08755  -0.07646  -2.69395
   D14       -0.51218  -0.00073  -0.00159  -0.09454  -0.09621  -0.60839
   D15       -0.44586  -0.00247  -0.03022  -0.09858  -0.12886  -0.57472
   D16        1.63314  -0.00195  -0.02447  -0.09516  -0.11972   1.51342
   D17       -2.54474  -0.00304  -0.03779  -0.10215  -0.13947  -2.68422
         Item               Value     Threshold  Converged?
 Maximum Force            0.033321     0.000450     NO 
 RMS     Force            0.007004     0.000300     NO 
 Maximum Displacement     0.529410     0.001800     NO 
 RMS     Displacement     0.138855     0.001200     NO 
 Predicted change in Energy=-1.288691D-02
 Lowest energy point so far.  Saving SCF results.
 GradGradGradGradGradGradGradGradGradGradGradGradGradGradGradGradGradGrad

 Leave Link  103 at Sat May 24 04:35:29 2025, MaxMem=  3758096384 cpu:               0.1 elap:               0.0
 (Enter /apps/easybuild-2022/easybuild/software/Compiler/NVHPC/22.11-CUDA-11.7.0/Gaussian/g16c01-CUDA-11.7.0/g16/l202.exe)
                          Input orientation:                          
 ---------------------------------------------------------------------
 Center     Atomic      Atomic             Coordinates (Angstroms)
 Number     Number       Type             X           Y           Z
 ---------------------------------------------------------------------
      1          6           0        1.365119   -0.306990   -0.600676
      2          8           0        1.883034   -1.367602   -0.742481
      3          6           0       -0.159354   -0.087909   -0.635665
      4          6           0       -0.734745    0.213682    0.776152
      5          9           0       -1.998836   -0.165797    0.853780
      6          9           0       -0.031890   -0.453207    1.691064
      7          9           0       -0.654455    1.506501    1.041969
      8          9           0       -0.450624    0.943114   -1.435321
      9          9           0       -0.735950   -1.191771   -1.103396
     10          8           0        1.938701    0.860273   -0.394780
     11          1           0        2.883729    0.701100   -0.251198
 ---------------------------------------------------------------------
                    Distance matrix (angstroms):
                    1          2          3          4          5
     1  C    0.000000
     2  O    1.188798   0.000000
     3  C    1.540533   2.412545   0.000000
     4  C    2.564407   3.414597   1.554110   0.000000
     5  F    3.667638   4.365924   2.368165   1.322103   0.000000
     6  F    2.687952   3.228807   2.358678   1.332595   2.156971
     7  F    3.172650   4.228898   2.366796   1.322303   2.153916
     8  F    2.357184   3.356396   1.336897   2.345934   2.977688
     9  F    2.334536   2.649576   1.330318   2.346913   2.545199
    10  O    1.316774   2.255531   2.314932   2.989393   4.256279
    11  H    1.855952   2.349952   3.167129   3.792938   5.080544
                    6          7          8          9         10
     6  F    0.000000
     7  F    2.156239   0.000000
     8  F    3.449541   2.548709   0.000000
     9  F    2.974926   3.448174   2.179293   0.000000
    10  O    3.155821   3.034191   2.607386   3.444820   0.000000
    11  H    3.688583   3.852233   3.546636   4.172683   0.969036
                   11
    11  H    0.000000
 Symmetry turned off by external request.
 Stoichiometry    C3HF5O2
 Rotational constants (GHZ):           1.9040079           1.1984729           1.1327258
 Leave Link  202 at Sat May 24 04:35:29 2025, MaxMem=  3758096384 cpu:               0.1 elap:               0.0
 (Enter /apps/easybuild-2022/easybuild/software/Compiler/NVHPC/22.11-CUDA-11.7.0/Gaussian/g16c01-CUDA-11.7.0/g16/l301.exe)
 Standard basis: def2TZVPP (5D, 7F)
 Ernie: Thresh=  0.10000D-02 Tol=  0.10000D-05 Strict=F.
   324 basis functions,   527 primitive gaussians,   375 cartesian basis functions
    40 alpha electrons       40 beta electrons
       nuclear repulsion energy       641.9184177548 Hartrees.
 IExCor= 4336 DFT=T Ex+Corr=M062X ExCW=0 ScaHFX=  0.540000
 ScaDFX=  1.000000  1.000000  1.000000  1.000000 ScalE2=  1.000000  1.000000
 IRadAn=      5 IRanWt=     -1 IRanGd=            0 ICorTp=0 IEmpDi=  4
 NAtoms=   11 NActive=   11 NUniq=   11 SFac= 1.00D+00 NAtFMM=   60 NAOKFM=F Big=F
 Integral buffers will be    131072 words long.
 Raffenetti 2 integral format.
 Two-electron integral symmetry is turned off.
 Leave Link  301 at Sat May 24 04:35:29 2025, MaxMem=  3758096384 cpu:               0.0 elap:               0.0
 (Enter /apps/easybuild-2022/easybuild/software/Compiler/NVHPC/22.11-CUDA-11.7.0/Gaussian/g16c01-CUDA-11.7.0/g16/l302.exe)
 NPDir=0 NMtPBC=     1 NCelOv=     1 NCel=       1 NClECP=     1 NCelD=      1
         NCelK=      1 NCelE2=     1 NClLst=     1 CellRange=     0.0.
 One-electron integrals computed using PRISM.
   1 Symmetry operations used in ECPInt.
 ECPInt:  NShTT=    6786 NPrTT=   21959 LenC2=    6488 LenP2D=   16019.
 LDataN:  DoStor=T MaxTD1= 6 Len=  172
 NBasis=   324 RedAO= T EigKep=  3.22D-04  NBF=   324
 NBsUse=   324 1.00D-06 EigRej= -1.00D+00 NBFU=   324
 Precomputing XC quadrature grid using
 IXCGrd= 4 IRadAn=           5 IRanWt=          -1 IRanGd=           0 AccXCQ= 0.00D+00.
 Generated NRdTot=       0 NPtTot=           0 NUsed=           0 NTot=          32
 NSgBfM=   373   373   373   373   373 MxSgAt=    11 MxSgA2=    11.
 Leave Link  302 at Sat May 24 04:35:29 2025, MaxMem=  3758096384 cpu:               0.9 elap:               0.3
 (Enter /apps/easybuild-2022/easybuild/software/Compiler/NVHPC/22.11-CUDA-11.7.0/Gaussian/g16c01-CUDA-11.7.0/g16/l303.exe)
 DipDrv:  MaxL=1.
 Leave Link  303 at Sat May 24 04:35:29 2025, MaxMem=  3758096384 cpu:               0.1 elap:               0.0
 (Enter /apps/easybuild-2022/easybuild/software/Compiler/NVHPC/22.11-CUDA-11.7.0/Gaussian/g16c01-CUDA-11.7.0/g16/l401.exe)
[...]
    R8        2.51046  -0.00000   0.00000   0.00002   0.00002   2.51048
    R9        2.50404  -0.00000   0.00000  -0.00003  -0.00003   2.50401
   R10        1.82817  -0.00000   0.00000  -0.00000  -0.00000   1.82817
    A1        2.14374   0.00000   0.00000   0.00006   0.00006   2.14380
    A2        2.20930   0.00000   0.00000   0.00001   0.00001   2.20931
    A3        1.93010  -0.00001   0.00000  -0.00007  -0.00007   1.93004
    A4        1.96512   0.00001   0.00000   0.00006   0.00006   1.96518
    A5        1.92545  -0.00000   0.00000  -0.00006  -0.00006   1.92539
    A6        1.89975  -0.00000   0.00000   0.00000   0.00000   1.89976
    A7        1.88613  -0.00000   0.00000  -0.00001  -0.00001   1.88612
    A8        1.88152  -0.00000   0.00000  -0.00002  -0.00002   1.88151
    A9        1.90464   0.00001   0.00000   0.00003   0.00003   1.90468
   A10        1.91821  -0.00001   0.00000  -0.00004  -0.00004   1.91817
   A11        1.91104  -0.00000   0.00000  -0.00004  -0.00004   1.91100
   A12        1.93138   0.00000   0.00000   0.00007   0.00007   1.93146
   A13        1.90309   0.00000   0.00000   0.00000   0.00000   1.90309
   A14        1.90056   0.00000   0.00000   0.00001   0.00001   1.90056
   A15        1.89921  -0.00000   0.00000   0.00000   0.00000   1.89922
   A16        1.89131  -0.00000   0.00000  -0.00001  -0.00001   1.89130
    D1        1.83026   0.00000   0.00000   0.00091   0.00091   1.83117
    D2       -2.34426  -0.00000   0.00000   0.00088   0.00088  -2.34338
    D3       -0.25490   0.00000   0.00000   0.00089   0.00089  -0.25401
    D4       -1.30223   0.00000   0.00000   0.00086   0.00086  -1.30137
    D5        0.80643  -0.00000   0.00000   0.00084   0.00084   0.80727
    D6        2.89580   0.00000   0.00000   0.00085   0.00085   2.89664
    D7       -0.00637  -0.00000   0.00000  -0.00003  -0.00003  -0.00641
    D8        3.12570  -0.00000   0.00000   0.00001   0.00001   3.12571
    D9       -3.03314   0.00000   0.00000   0.00054   0.00054  -3.03260
   D10       -0.94310  -0.00000   0.00000   0.00049   0.00049  -0.94261
   D11        1.15033  -0.00000   0.00000   0.00051   0.00051   1.15085
   D12        1.11901   0.00000   0.00000   0.00059   0.00059   1.11960
   D13       -3.07414   0.00000   0.00000   0.00054   0.00054  -3.07360
   D14       -0.98071   0.00000   0.00000   0.00056   0.00056  -0.98014
   D15       -0.93742   0.00000   0.00000   0.00057   0.00057  -0.93686
   D16        1.15261  -0.00000   0.00000   0.00052   0.00052   1.15313
   D17       -3.03714  -0.00000   0.00000   0.00054   0.00054  -3.03660
         Item               Value     Threshold  Converged?
 Maximum Force            0.000010     0.000450     YES
 RMS     Force            0.000004     0.000300     YES
 Maximum Displacement     0.001913     0.001800     NO 
 RMS     Displacement     0.000538     0.001200     YES
 Predicted change in Energy=-2.734478D-09
                           ----------------------------
                           ! Non-Optimized Parameters !
                           ! (Angstroms and Degrees)  !
 --------------------------                            --------------------------
 ! Name  Definition              Value          Derivative Info.                !
 --------------------------------------------------------------------------------
 ! R1    R(1,2)                  1.1879         -DE/DX =    0.0                 !
 ! R2    R(1,3)                  1.5442         -DE/DX =    0.0                 !
 ! R3    R(1,10)                 1.329          -DE/DX =    0.0                 !
 ! R4    R(3,4)                  1.5443         -DE/DX =    0.0                 !
 ! R5    R(3,8)                  1.3415         -DE/DX =    0.0                 !
 ! R6    R(3,9)                  1.3329         -DE/DX =    0.0                 !
 ! R7    R(4,5)                  1.3232         -DE/DX =    0.0                 !
 ! R8    R(4,6)                  1.3285         -DE/DX =    0.0                 !
 ! R9    R(4,7)                  1.3251         -DE/DX =    0.0                 !
 ! R10   R(10,11)                0.9674         -DE/DX =    0.0                 !
 ! A1    A(2,1,3)              122.8305         -DE/DX =    0.0                 !
 ! A2    A(2,1,10)             126.5843         -DE/DX =    0.0                 !
 ! A3    A(3,1,10)             110.583          -DE/DX =    0.0                 !
 ! A4    A(1,3,4)              112.5965         -DE/DX =    0.0                 !
 ! A5    A(1,3,8)              110.3169         -DE/DX =    0.0                 !
 ! A6    A(1,3,9)              108.8481         -DE/DX =    0.0                 !
 ! A7    A(4,3,8)              108.0666         -DE/DX =    0.0                 !
 ! A8    A(4,3,9)              107.8025         -DE/DX =    0.0                 !
 ! A9    A(8,3,9)              109.13           -DE/DX =    0.0                 !
 ! A10   A(3,4,5)              109.9029         -DE/DX =    0.0                 !
 ! A11   A(3,4,6)              109.4922         -DE/DX =    0.0                 !
 ! A12   A(3,4,7)              110.6643         -DE/DX =    0.0                 !
 ! A13   A(5,4,6)              109.0389         -DE/DX =    0.0                 !
 ! A14   A(5,4,7)              108.8942         -DE/DX =    0.0                 !
 ! A15   A(6,4,7)              108.8171         -DE/DX =    0.0                 !
 ! A16   A(1,10,11)            108.3636         -DE/DX =    0.0                 !
 ! D1    D(2,1,3,4)            104.9183         -DE/DX =    0.0                 !
 ! D2    D(2,1,3,8)           -134.2656         -DE/DX =    0.0                 !
 ! D3    D(2,1,3,9)            -14.5535         -DE/DX =    0.0                 !
 ! D4    D(10,1,3,4)           -74.5628         -DE/DX =    0.0                 !
 ! D5    D(10,1,3,8)            46.2533         -DE/DX =    0.0                 !
 ! D6    D(10,1,3,9)           165.9654         -DE/DX =    0.0                 !
 ! D7    D(2,1,10,11)           -0.3671         -DE/DX =    0.0                 !
 ! D8    D(3,1,10,11)          179.0899         -DE/DX =    0.0                 !
 ! D9    D(1,3,4,5)           -173.755          -DE/DX =    0.0                 !
 ! D10   D(1,3,4,6)            -54.0075         -DE/DX =    0.0                 !
 ! D11   D(1,3,4,7)             65.9386         -DE/DX =    0.0                 !
 ! D12   D(8,3,4,5)             64.1483         -DE/DX =    0.0                 !
 ! D13   D(8,3,4,6)           -176.1041         -DE/DX =    0.0                 !
 ! D14   D(8,3,4,7)            -56.158          -DE/DX =    0.0                 !
 ! D15   D(9,3,4,5)            -53.6779         -DE/DX =    0.0                 !
 ! D16   D(9,3,4,6)             66.0696         -DE/DX =    0.0                 !
 ! D17   D(9,3,4,7)           -173.9843         -DE/DX =    0.0                 !
 --------------------------------------------------------------------------------
 GradGradGradGradGradGradGradGradGradGradGradGradGradGradGradGradGradGrad

 Leave Link  103 at Sat May 24 04:44:46 2025, MaxMem=  3758096384 cpu:               0.1 elap:               0.0
 (Enter /apps/easybuild-2022/easybuild/software/Compiler/NVHPC/22.11-CUDA-11.7.0/Gaussian/g16c01-CUDA-11.7.0/g16/l9999.exe)

 ----------------------------------------------------------------------

 Electric dipole moment (input orientation):
 (Debye = 10**-18 statcoulomb cm , SI units = C m)
                  (au)            (Debye)         (10**-30 SI)
   Tot        0.907666D+00      0.230706D+01      0.769551D+01
   x          0.704698D+00      0.179116D+01      0.597468D+01
   y          0.570544D+00      0.145018D+01      0.483727D+01
   z          0.416754D-01      0.105928D+00      0.353339D+00

 Dipole polarizability, Alpha (input orientation).
 (esu units = cm**3 , SI units = C**2 m**2 J**-1)
 Alpha(0;0):
               (au)            (10**-24 esu)      (10**-40 SI)
   iso        0.438585D+02      0.649915D+01      0.723128D+01
   aniso      0.105199D+02      0.155889D+01      0.173450D+01
   xx         0.478993D+02      0.709794D+01      0.789752D+01
   yx        -0.794798D+00     -0.117777D+00     -0.131044D+00
   yy         0.465544D+02      0.689865D+01      0.767579D+01
   zx        -0.103327D+01     -0.153115D+00     -0.170364D+00
   zy         0.836542D+00      0.123963D+00      0.137927D+00
   zz         0.371217D+02      0.550087D+01      0.612054D+01

 ----------------------------------------------------------------------

 Dipole orientation:
     6          2.17301540         -0.83802695          1.68108550
     8          3.63017127         -2.49378071          1.26401537
     6          0.87716162          0.69904313         -0.43410178
     6         -1.91686162         -0.05236074         -0.81520772
     9         -2.85451848          1.13696936         -2.80481942
     9         -2.07431448         -2.52931253         -1.19245662
     9         -3.27548181          0.54544672          1.20146602
     9          0.95934346          3.17571110          0.10072771
     9          2.08941293          0.28219405         -2.60234796
     8          1.40639929         -0.05243671          3.93996745
     1          2.23178583         -1.07050027          5.21451954

 Electric dipole moment (dipole orientation):
 (Debye = 10**-18 statcoulomb cm , SI units = C m)
                  (au)            (Debye)         (10**-30 SI)
   Tot        0.907666D+00      0.230706D+01      0.769551D+01
   x          0.000000D+00      0.000000D+00      0.000000D+00
   y          0.000000D+00      0.000000D+00      0.000000D+00
   z          0.907666D+00      0.230706D+01      0.769551D+01

 Dipole polarizability, Alpha (dipole orientation).
 (esu units = cm**3 , SI units = C**2 m**2 J**-1)
 Alpha(0;0):
               (au)            (10**-24 esu)      (10**-40 SI)
   iso        0.438585D+02      0.649915D+01      0.723128D+01
   aniso      0.105199D+02      0.155889D+01      0.173450D+01
   xx         0.427102D+02      0.632899D+01      0.704195D+01
   yx        -0.550973D+01     -0.816457D+00     -0.908431D+00
   yy         0.423212D+02      0.627135D+01      0.697782D+01
   zx         0.103145D+01      0.152844D+00      0.170062D+00
   zy        -0.146028D+00     -0.216391D-01     -0.240768D-01
   zz         0.465440D+02      0.689711D+01      0.767407D+01

 ----------------------------------------------------------------------
 Unable to Open any file for archive entry.
 1\1\GINC-SPARTAN-BM155\Freq\RM062X\def2TZVPP\C3H1F5O2\AKHALILOV\24-May
 -2025\0\\#P Geom=AllCheck Guess=TCheck SCRF=Check GenChk RM062X/def2TZ
 VPP Freq\\Gaussian input prepared by ASE\\0,1\C,1.3847889058,-0.253300
 2307,-0.5731730778\O,1.9489685014,-1.2970109816,-0.6312153602\C,-0.154
 2875456,-0.1308065203,-0.6034495403\C,-0.7517668935,0.1848944092,0.785
 1434725\F,-2.0730796408,0.1462149583,0.7264241124\F,-0.330466154,-0.71
 72961874,1.6645802768\F,-0.3754429131,1.3880064963,1.193475638\F,-0.52
 76531299,0.8422924659,-1.4480384276\F,-0.6703822098,-1.2886120637,-1.0
 155220884\O,1.9469874964,0.9460351484,-0.4646407259\H,2.9070615831,0.8
 309765056,-0.4341382796\\Version=ES64L-G16RevC.01\HF=-764.668267\RMSD=
 5.744e-09\RMSF=3.866e-06\ZeroPoint=0.0527118\Thermal=0.0616436\ETot=-7
 64.6066234\HTot=-764.6056792\GTot=-764.6513396\Dipole=0.7046984,0.5705
 441,0.0416754\DipoleDeriv=1.1633401,0.0670877,-0.105377,0.1069337,1.78
 49602,0.1396694,0.0752957,0.114258,0.244751,-0.741907,0.3457489,0.0616
 96,0.1046281,-0.9968718,-0.0780164,-0.0120968,-0.0413974,-0.315099,0.7
 368724,0.0653227,0.182879,0.1172831,1.1979806,-0.0992869,0.2652636,-0.
 1121569,0.9288653,1.6500659,0.0173596,0.0989336,-0.0158631,1.5716478,-
 0.0491608,-0.1104826,-0.0236861,1.3873402,-1.003809,0.0059203,0.010298
 9,0.0112901,-0.2697556,-0.0143626,0.1149018,-0.0219267,-0.3350366,-0.3
 588022,0.1131997,-0.0641634,0.1261,-0.531249,0.235043,-0.0866003,0.299
 8026,-0.6311167,-0.3405099,-0.1085729,-0.0060946,-0.1376188,-0.7644158
 ,-0.1703726,-0.0174194,-0.2429801,-0.4015756,-0.3692315,0.1519899,-0.1
 033955,0.1158535,-0.5439684,0.2348899,-0.120454,0.3046035,-0.5412671,-
 0.3950195,-0.2243162,-0.0629209,-0.2023361,-0.6637434,-0.1402555,-0.08
 80006,-0.2072491,-0.3514221,-0.6804065,-0.5247033,-0.0127439,-0.311513
 ,-1.0745503,-0.053965,-0.0208387,-0.068836,-0.3314463,0.3394072,0.0909
 636,0.0008879,0.0852425,0.2899657,-0.0041825,0.0004313,-0.0004318,0.34
 60069\Polar=47.8992711,-0.7947979,46.5544143,-1.0332744,0.8365418,37.1
 216907\PG=Unknown\NImag=0\\0.72336439,-0.18961736,0.99804138,-0.004420
 38,0.04995209,0.23251227,-0.30043872,0.30373646,0.01632708,0.28435642,
 0.31883345,-0.64882864,-0.03279706,-0.35018837,0.76890528,0.01845674,-
 0.03332454,-0.07666711,-0.01772524,0.04431593,0.03258804,-0.18221019,-
 0.00302750,0.02041590,-0.01336386,0.01548848,-0.00560934,0.55922786,0.
 00087503,-0.04460714,-0.00501603,0.03781114,-0.02227077,-0.00263887,0.
 01700708,0.58364634,-0.01384828,-0.00274038,-0.09868795,0.01084737,-0.
 00876340,0.02314808,0.03747576,0.00917667,0.55033068,-0.01283581,0.010
 42143,0.03219111,-0.00210697,-0.00004902,-0.00435840,-0.09101471,0.016
 95674,0.07269800,0.60834530,0.00933998,0.01953506,0.00022388,-0.002271
 31,-0.00573991,0.00129705,0.00939697,-0.04356607,-0.02972121,-0.002994
 95,0.59665760,0.03021348,-0.00195071,0.01594006,-0.01286956,0.00740602
 ,-0.00532162,0.03325948,-0.02845403,-0.16609679,-0.01647876,0.01130862
 ,0.62061733,0.00826411,0.00015280,0.00667657,-0.00410739,0.00243893,-0
 .00095173,-0.05423397,-0.00142427,-0.00450242,-0.32254168,0.00065856,0
 .02325730,0.45341870,-0.00138168,-0.00212771,-0.00117632,0.00060904,0.
 00056851,0.00013594,0.00680344,0.00210131,-0.00089707,-0.00217067,-0.0
 7609844,-0.00137222,0.01200715,0.08316422,-0.00635959,-0.00097924,-0.0
 0691851,0.00361921,-0.00170320,0.00152464,0.03692703,-0.00069121,0.001
 91316,0.01449002,-0.00210076,-0.08524147,0.01974508,0.00010548,0.07483
 568,-0.00093894,0.00162129,-0.00248847,0.00076025,-0.00163055,0.001584
 10,0.00744276,-0.00198143,0.00144611,-0.09207300,0.03736328,-0.0404437
 2,-0.04677574,0.04021032,-0.04605693,0.11506536,0.00186406,-0.00510177
 ,0.00101964,-0.00143322,0.00306161,-0.00119897,0.00569774,-0.01014575,
 0.00697787,0.03618793,-0.16660392,0.11146744,0.02918823,-0.00016856,0.
 01382564,-0.07586032,0.24979124,-0.00605811,0.00138433,-0.00211580,0.0
 0366354,-0.00227032,0.00068370,-0.01623474,0.03925781,-0.02155413,-0.0
 3531862,0.10230663,-0.21714724,-0.03157332,0.01273332,-0.00022786,0.07
 814006,-0.16737235,0.23681810,-0.00110119,-0.00428843,-0.00320445,0.00
 039010,0.00130443,0.00042706,0.00854797,0.00311554,-0.00028530,-0.0895
 9762,-0.04752080,-0.01798605,-0.04406245,-0.05799184,-0.02403009,0.014
 49711,0.00557096,0.00263873,0.11162936,-0.00547375,-0.00602324,-0.0020
 1471,0.00160719,0.00209112,0.00017134,-0.01068375,-0.02989722,-0.00198
 899,-0.04413790,-0.26846487,-0.09458924,-0.04190106,-0.01437766,-0.009
 92340,0.00036566,-0.07983061,0.01496049,0.09564838,0.38896288,-0.00491
 727,-0.00019235,-0.00196097,0.00198252,-0.00046261,0.00061042,-0.01086
 145,-0.03406365,-0.00159446,-0.01451433,-0.08440470,-0.12547008,-0.015
 67084,-0.00866400,0.01034511,0.00358953,0.03155542,0.01851748,0.035199
 06,0.10237104,0.10963644,-0.00103512,0.03063568,-0.03304403,-0.0107327
 6,0.00335162,0.00469583,-0.10157187,0.04969448,-0.05928073,0.00277754,
 -0.00146958,0.00526726,0.00587679,-0.00138863,-0.00068271,0.00087142,-
 0.00135197,0.00292563,0.00045071,-0.00021205,0.00009081,0.09274722,0.0
 0121862,-0.01843634,0.01631741,0.00706344,0.00079376,-0.00166542,0.056
 99251,-0.17269435,0.11908119,0.00482411,-0.01494808,0.00809615,-0.0025
 8737,0.00248252,-0.00042860,-0.00056410,0.00139120,0.00247606,-0.00012
 223,0.00675723,0.00015684,-0.06879410,0.26264227,0.00112554,0.01573987
 ,-0.00466060,-0.00651837,0.00136217,0.00020727,-0.05277965,0.10149484,
 -0.18934552,-0.02258292,0.04156542,-0.02651633,0.00274114,-0.00264360,
 0.00199999,0.00294553,0.00230950,-0.01503550,0.00127941,-0.00265561,0.
 00021768,0.06830723,-0.16678598,0.21410781,-0.01766082,-0.04167849,-0.
 01920226,0.00093306,-0.00189851,0.00179443,-0.11987373,-0.08266296,-0.
 04456316,-0.00014224,-0.00035946,0.00398601,0.00608233,0.00274071,0.00
 034160,0.00069142,0.00038508,-0.00001487,0.00087966,0.00190180,0.00104
 238,0.01358241,-0.00032854,0.00758307,0.12834158,-0.00465474,-0.024361
 83,-0.00741772,0.00098581,0.00856584,0.00262840,-0.09374136,-0.2468231
 0,-0.09306280,-0.01682190,-0.03334911,-0.00723618,0.00223537,0.0034170
 7,0.00056768,0.00074781,0.00596991,-0.00377490,0.00194796,-0.00331450,
 -0.00754190,-0.00911962,-0.07370681,0.01277806,0.12462561,0.36172577,-
 0.00116331,-0.01023560,0.00410954,0.00010492,0.00232365,0.00006070,-0.
 03783500,-0.07884900,-0.11413158,-0.02232239,-0.03716142,-0.00709273,0
 .00085251,0.00127782,0.00062153,0.00116634,0.00097366,-0.00017951,0.00
 277909,-0.00766333,-0.01002044,0.00996511,0.02532940,0.01805723,0.0486
 5602,0.10361814,0.10846568,-0.18482994,-0.09833302,-0.01122255,0.04175
 210,0.00360093,0.00082817,-0.01374096,-0.03675144,0.00043455,0.0002910
 8,-0.00213967,-0.00837905,-0.00236604,0.00055365,0.00205633,0.00023137
 ,-0.00022725,0.00194802,-0.00192604,0.00273117,0.00403934,-0.00403241,
 0.00196816,-0.00238875,-0.01273550,-0.00593462,-0.00233739,0.66885553,
 -0.07549171,-0.27396127,-0.01726648,-0.00542256,-0.10783367,-0.0104865
 3,-0.00292532,-0.01022401,0.00225169,-0.00153405,-0.00743204,-0.004569
 18,-0.00098137,0.00105013,0.00130785,-0.00045908,0.00172895,0.00029620
 ,0.00204610,0.00397296,0.00137789,-0.00213080,0.00509317,-0.00327659,-
 0.00079111,0.00277536,0.00078076,0.04302989,0.43877093,-0.00850547,-0.
 01810734,-0.06581896,-0.00026950,-0.01008188,0.02890474,-0.00320992,-0
 .00048082,0.01025337,-0.00329463,-0.00296524,-0.00386673,-0.00019004,0
 .00045813,0.00102962,0.00028855,0.00031084,0.00062041,0.00286600,0.001
 30292,0.00004351,0.00107557,-0.00173290,0.00110780,-0.00006454,-0.0004
 4532,0.00027639,0.02780861,0.03127527,0.04397986,-0.03057775,-0.009622
 85,-0.00202851,0.00255777,0.00874861,0.00085837,0.00079068,-0.00263992
 ,-0.00042191,-0.00110190,-0.00000302,0.00017360,0.00044534,0.00000850,
 -0.00004995,0.00022799,-0.00002124,-0.00011631,0.00029239,0.00015430,0
 .00002026,0.00106609,0.00032951,0.00028777,-0.00009817,-0.00027032,0.0
 0013411,-0.49149918,0.04466000,-0.01650464,0.51789673,-0.05551191,0.00
 587151,-0.00182470,0.00750236,0.00068687,0.00076569,-0.00100829,-0.005
 51924,-0.00031356,-0.00068174,0.00000979,-0.00010666,0.00021303,-0.000
 01138,0.00001976,0.00018712,-0.00009230,0.00000272,0.00028993,0.000123
 91,-0.00013198,0.00078497,0.00062544,0.00011192,-0.00193413,-0.0008986
 0,-0.00039408,0.09150221,-0.05394052,0.00046635,-0.04134356,0.05314452
 ,-0.00452335,0.00045388,0.00426802,0.00083801,0.00067070,-0.00573885,-
 0.00154808,0.00026429,0.00576515,-0.00050908,-0.00034826,0.00019560,-0
 .00038425,0.00004251,0.00011812,-0.00017108,0.00013131,-0.00037964,0.0
 0031654,0.00002948,-0.00032469,0.00068004,-0.00084413,-0.00013983,0.00
 044132,-0.00011345,-0.00016680,-0.01278728,-0.00169087,-0.01653001,0.0
 1764722,0.00140454,0.01293291\\0.00000065,0.00000378,0.00000011,-0.000
 00030,0.00000126,-0.00000178,-0.00000497,0.00000652,0.00000207,0.00000
 063,-0.00000855,-0.00000638,-0.00000222,0.00000129,0.00000365,-0.00000
 247,-0.00000540,0.00000022,0.00000013,-0.00000255,0.00000187,-0.000001
 25,-0.00000393,-0.00000035,0.00000090,0.00000719,-0.00000738,0.0000071
 9,-0.00000197,0.00000514,0.00000173,0.00000238,0.00000282\\\@
 The archive entry for this job was punched.


 THERE IS MORE TO LIFE THAN INCREASING ITS SPEED.

                                       -- GANDHI
 Job cpu time:       0 days  0 hours 25 minutes 31.6 seconds.
 Elapsed time:       0 days  0 hours  3 minutes 17.5 seconds.
 File lengths (MBytes):  RWF=    116 Int=      0 D2E=      0 Chk=      9 Scr=      1
 Normal termination of Gaussian 16 at Sat May 24 04:44:46 2025.
done
