 Entering Gaussian System, Link 0=g16
 Initial command:
 /apps/easybuild-2022/easybuild/software/Compiler/NVHPC/22.11-CUDA-11.7.0/Gaussian/g16c01-CUDA-11.7.0/g16/l1.exe "/tmp/Gau-30271.inp" -scrdir="/tmp/"
 Entering Link 1 = /apps/easybuild-2022/easybuild/software/Compiler/NVHPC/22.11-CUDA-11.7.0/Gaussian/g16c01-CUDA-11.7.0/g16/l1.exe PID=     30272.
  
 Copyright (c) 1988-2019, Gaussian, Inc.  All Rights Reserved.
  
 This is part of the Gaussian(R) 16 program.  It is based on
 the Gaussian(R) 09 system (copyright 2009, Gaussian, Inc.),
 the Gaussian(R) 03 system (copyright 2003, Gaussian, Inc.),
 the Gaussian(R) 98 system (copyright 1998, Gaussian, Inc.),
 the Gaussian(R) 94 system (copyright 1995, Gaussian, Inc.),
 the Gaussian 92(TM) system (copyright 1992, Gaussian, Inc.),
 the Gaussian 90(TM) system (copyright 1990, Gaussian, Inc.),
 the Gaussian 88(TM) system (copyright 1988, Gaussian, Inc.),
 the Gaussian 86(TM) system (copyright 1986, Carnegie Mellon
 University), and the Gaussian 82(TM) system (copyright 1983,
 Carnegie Mellon University). Gaussian is a federally registered
 trademark of Gaussian, Inc.
  
 This software contains proprietary and confidential information,
 including trade secrets, belonging to Gaussian, Inc.
  
 This software is provided under written license and may be
 used, copied, transmitted, or stored only in accord with that
 written license.
  
 The following legend is applicable only to US Government
 contracts under FAR:
  
                    RESTRICTED RIGHTS LEGEND
  
 Use, reproduction and disclosure by the US Government is
 subject to restrictions as set forth in subparagraphs (a)
 and (c) of the Commercial Computer Software - Restricted
 Rights clause in FAR 52.227-19.
  
 Gaussian, Inc.
 340 Quinnipiac St., Bldg. 40, Wallingford CT 06492
  
  
 ---------------------------------------------------------------
 Warning -- This program may not be used in any manner that
 competes with the business of Gaussian, Inc. or will provide
 assistance to any competitor of Gaussian, Inc.  The licensee
 of this program is prohibited from giving any competitor of
 Gaussian, Inc. access to this program.  By using this program,
 the user acknowledges that Gaussian, Inc. is engaged in the
 business of creating and licensing software in the field of
 computational chemistry and represents and warrants to the
 licensee that it is not a competitor of Gaussian, Inc. and that
 it will not use this program in any manner prohibited above.
 ---------------------------------------------------------------
  

 Cite this work as:
 Gaussian 16, Revision C.01,
 M. J. Frisch, G. W. Trucks, H. B. Schlegel, G. E. Scuseria, 
 M. A. Robb, J. R. Cheeseman, G. Scalmani, V. Barone, 
 G. A. Petersson, H. Nakatsuji, X. Li, M. Caricato, A. V. Marenich, 
 J. Bloino, B. G. Janesko, R. Gomperts, B. Mennucci, H. P. Hratchian, 
 J. V. Ortiz, A. F. Izmaylov, J. L. Sonnenberg, D. Williams-Young, 
 F. Ding, F. Lipparini, F. Egidi, J. Goings, B. Peng, A. Petrone, 
 T. Henderson, D. Ranasinghe, V. G. Zakrzewski, J. Gao, N. Rega, 
 G. Zheng, W. Liang, M. Hada, M. Ehara, K. Toyota, R. Fukuda, 
 J. Hasegawa, M. Ishida, T. Nakajima, Y. Honda, O. Kitao, H. Nakai, 
 T. Vreven, K. Throssell, J. A. Montgomery, Jr., J. E. Peralta, 
 F. Ogliaro, M. J. Bearpark, J. J. Heyd, E. N. Brothers, K. N. Kudin, 
 V. N. Staroverov, T. A. Keith, R. Kobayashi, J. Normand, 
 K. Raghavachari, A. P. Rendell, J. C. Burant, S. S. Iyengar, 
 J. Tomasi, M. Cossi, J. M. Millam, M. Klene, C. Adamo, R. Cammi, 
 J. W. Ochterski, R. L. Martin, K. Morokuma, O. Farkas, 
 J. B. Foresman, and D. J. Fox, Gaussian, Inc., Wallingford CT, 2019.
 
 ******************************************
 Gaussian 16:  ES64L-G16RevC.01  3-Jul-2019
                24-May-2025 
 ******************************************
 %mem=28GB
 %chk=1642764945472630600001_r12_insertion_R_3_4_5_IRC_F_prod
 %nprocshared=8
 Will use up to    8 processors via shared memory.
 -----------------------------------------------------------------
 #P M062X/Def2TZVPP Symm(None) scf(xqc) pop(None) freq opt(CalcFC)
 -----------------------------------------------------------------
 1/10=4,18=20,19=15,26=3,38=1/1,3;
 2/9=110,12=2,15=3,17=6,18=5,40=1/2;
 3/5=44,7=202,11=2,25=1,30=1,71=2,74=-55,140=1/1,2,3;
 4//1;
 5/5=2,8=3,13=1,38=5/2,8;
 8/6=4,10=90,11=11/1;
 11/6=1,8=1,9=11,15=111,16=1,31=1/1,2,10;
 10/6=1,13=1,31=1/2;
 7/10=1,25=1,30=1/1,2,3,16;
 1/10=4,18=20,19=15,26=3/3(2);
 2/9=110,15=3/2;
 99//99;
 2/9=110,15=3/2;
 3/5=44,7=202,11=2,25=1,30=1,71=1,74=-55/1,2,3;
 4/5=5,16=3,69=1/1;
 5/5=2,8=3,13=1,38=5/2,8;
 7/30=1/1,2,3,16;
 1/18=20,19=15,26=3/3(-5);
 2/9=110,15=3/2;
 99/9=1/99;
 Leave Link    1 at Sat May 24 03:23:42 2025, MaxMem=  3758096384 cpu:               0.0 elap:               0.0
 (Enter /apps/easybuild-2022/easybuild/software/Compiler/NVHPC/22.11-CUDA-11.7.0/Gaussian/g16c01-CUDA-11.7.0/g16/l101.exe)
 ------------------------------
 Gaussian input prepared by ASE
 ------------------------------
 Symbolic Z-matrix:
 Charge =  0 Multiplicity = 1
 C                     1.4863    0.14731  -0.92663 
 O                     1.42121   0.04401   0.43061 
 C                    -0.91775  -0.02133  -0.37356 
 C                     0.09141  -0.05572   0.82288 
 F                    -2.12022  -0.12575   0.17661 
 F                    -0.09216  -1.19238   1.49192 
 F                    -0.20598   0.94512   1.64943 
 F                    -0.87953   1.12425  -1.03651 
 F                    -0.76419  -1.04735  -1.19635 
 O                     2.69661   0.24091  -1.32304 
 H                     3.36324   0.2236   -0.60761 
 
 ITRead=  0  0  0  0  0  0  0  0  0  0  0
 MicOpt= -1 -1 -1 -1 -1 -1 -1 -1 -1 -1 -1
 NAtoms=     11 NQM=       11 NQMF=       0 NMMI=      0 NMMIF=      0
                NMic=       0 NMicF=      0.
                    Isotopes and Nuclear Properties:
 (Nuclear quadrupole moments (NQMom) in fm**2, nuclear magnetic moments (NMagM)
  in nuclear magnetons)

  Atom         1           2           3           4           5           6           7           8           9          10
 IAtWgt=          12          16          12          12          19          19          19          19          19          16
 AtmWgt=  12.0000000  15.9949146  12.0000000  12.0000000  18.9984032  18.9984032  18.9984032  18.9984032  18.9984032  15.9949146
 NucSpn=           0           0           0           0           1           1           1           1           1           0
 AtZEff=  -0.0000000  -0.0000000  -0.0000000  -0.0000000  -0.0000000  -0.0000000  -0.0000000  -0.0000000  -0.0000000  -0.0000000
 NQMom=    0.0000000   0.0000000   0.0000000   0.0000000   0.0000000   0.0000000   0.0000000   0.0000000   0.0000000   0.0000000
 NMagM=    0.0000000   0.0000000   0.0000000   0.0000000   2.6288670   2.6288670   2.6288670   2.6288670   2.6288670   0.0000000
 AtZNuc=   6.0000000   8.0000000   6.0000000   6.0000000   9.0000000   9.0000000   9.0000000   9.0000000   9.0000000   8.0000000

  Atom        11
 IAtWgt=           1
 AtmWgt=   1.0078250
 NucSpn=           1
 AtZEff=  -0.0000000
 NQMom=    0.0000000
 NMagM=    2.7928460
 AtZNuc=   1.0000000
 Leave Link  101 at Sat May 24 03:23:42 2025, MaxMem=  3758096384 cpu:               0.2 elap:               0.2
 (Enter /apps/easybuild-2022/easybuild/software/Compiler/NVHPC/22.11-CUDA-11.7.0/Gaussian/g16c01-CUDA-11.7.0/g16/l103.exe)

 GradGradGradGradGradGradGradGradGradGradGradGradGradGradGradGradGradGrad
 Berny optimization.
 Initialization pass.
                           ----------------------------
                           !    Initial Parameters    !
                           ! (Angstroms and Degrees)  !
 --------------------------                            --------------------------
 ! Name  Definition              Value          Derivative Info.                !
 --------------------------------------------------------------------------------
 ! R1    R(1,2)                  1.3627         calculate D2E/DX2 analytically  !
 ! R2    R(1,10)                 1.277          calculate D2E/DX2 analytically  !
 ! R3    R(2,4)                  1.39           calculate D2E/DX2 analytically  !
 ! R4    R(3,4)                  1.5656         calculate D2E/DX2 analytically  !
 ! R5    R(3,5)                  1.3265         calculate D2E/DX2 analytically  !
 ! R6    R(3,8)                  1.3241         calculate D2E/DX2 analytically  !
 ! R7    R(3,9)                  1.3241         calculate D2E/DX2 analytically  !
 ! R8    R(4,6)                  1.3317         calculate D2E/DX2 analytically  !
 ! R9    R(4,7)                  1.3317         calculate D2E/DX2 analytically  !
 ! R10   R(10,11)                0.978          calculate D2E/DX2 analytically  !
 ! A1    A(2,1,10)             111.1            calculate D2E/DX2 analytically  !
 ! A2    A(1,2,4)              109.4023         calculate D2E/DX2 analytically  !
 ! A3    A(4,3,5)              105.4049         calculate D2E/DX2 analytically  !
 ! A4    A(4,3,8)              112.5207         calculate D2E/DX2 analytically  !
 ! A5    A(4,3,9)              112.5254         calculate D2E/DX2 analytically  !
 ! A6    A(5,3,8)              107.5737         calculate D2E/DX2 analytically  !
 ! A7    A(5,3,9)              107.5698         calculate D2E/DX2 analytically  !
 ! A8    A(8,3,9)              110.8501         calculate D2E/DX2 analytically  !
 ! A9    A(2,4,3)              113.5422         calculate D2E/DX2 analytically  !
 ! A10   A(2,4,6)              109.5666         calculate D2E/DX2 analytically  !
 ! A11   A(2,4,7)              109.565          calculate D2E/DX2 analytically  !
 ! A12   A(3,4,6)              108.2909         calculate D2E/DX2 analytically  !
 ! A13   A(3,4,7)              108.2933         calculate D2E/DX2 analytically  !
 ! A14   A(6,4,7)              107.3912         calculate D2E/DX2 analytically  !
 ! A15   A(1,10,11)            114.6857         calculate D2E/DX2 analytically  !
 ! D1    D(10,1,2,4)          -179.9966         calculate D2E/DX2 analytically  !
 ! D2    D(2,1,10,11)            0.0116         calculate D2E/DX2 analytically  !
 ! D3    D(1,2,4,3)             -0.0074         calculate D2E/DX2 analytically  !
 ! D4    D(1,2,4,6)            121.2023         calculate D2E/DX2 analytically  !
 ! D5    D(1,2,4,7)           -121.219          calculate D2E/DX2 analytically  !
 ! D6    D(5,3,4,2)           -179.9924         calculate D2E/DX2 analytically  !
 ! D7    D(5,3,4,6)             58.0858         calculate D2E/DX2 analytically  !
 ! D8    D(5,3,4,7)            -58.0709         calculate D2E/DX2 analytically  !
 ! D9    D(8,3,4,2)            -63.0376         calculate D2E/DX2 analytically  !
 ! D10   D(8,3,4,6)            175.0406         calculate D2E/DX2 analytically  !
 ! D11   D(8,3,4,7)             58.8838         calculate D2E/DX2 analytically  !
 ! D12   D(9,3,4,2)             63.0551         calculate D2E/DX2 analytically  !
 ! D13   D(9,3,4,6)            -58.8667         calculate D2E/DX2 analytically  !
 ! D14   D(9,3,4,7)           -175.0235         calculate D2E/DX2 analytically  !
 --------------------------------------------------------------------------------
 Trust Radius=3.00D-01 FncErr=1.00D-07 GrdErr=1.00D-06 EigMax=2.50D+02 EigMin=1.00D-04
 Number of steps in this run=     49 maximum allowed number of steps=    100.
 GradGradGradGradGradGradGradGradGradGradGradGradGradGradGradGradGradGrad

 Leave Link  103 at Sat May 24 03:23:42 2025, MaxMem=  3758096384 cpu:               0.0 elap:               0.0
 (Enter /apps/easybuild-2022/easybuild/software/Compiler/NVHPC/22.11-CUDA-11.7.0/Gaussian/g16c01-CUDA-11.7.0/g16/l202.exe)
                          Input orientation:                          
 ---------------------------------------------------------------------
 Center     Atomic      Atomic             Coordinates (Angstroms)
 Number     Number       Type             X           Y           Z
 ---------------------------------------------------------------------
      1          6           0        1.486304    0.147309   -0.926634
      2          8           0        1.421210    0.044012    0.430614
      3          6           0       -0.917754   -0.021331   -0.373559
      4          6           0        0.091407   -0.055724    0.822879
      5          9           0       -2.120216   -0.125747    0.176606
      6          9           0       -0.092164   -1.192383    1.491916
      7          9           0       -0.205978    0.945116    1.649429
      8          9           0       -0.879529    1.124248   -1.036514
      9          9           0       -0.764187   -1.047350   -1.196349
     10          8           0        2.696610    0.240909   -1.323037
     11          1           0        3.363243    0.223601   -0.607605
 ---------------------------------------------------------------------
                    Distance matrix (angstroms):
                    1          2          3          4          5
     1  C    0.000000
     2  O    1.362729   0.000000
     3  C    2.472615   2.474210   0.000000
     4  C    2.246721   1.390034   1.565584   0.000000
     5  F    3.781360   3.554580   1.326461   2.305179   0.000000
     6  F    3.183665   2.223811   2.352224   1.331654   2.642110
     7  F    3.183774   2.223789   2.352260   1.331654   2.642019
     8  F    2.561962   2.934753   1.324131   2.406739   2.138563
     9  F    2.562160   2.934968   1.324115   2.406791   2.138498
    10  O    1.277003   2.177316   3.746185   3.388219   5.058179
    11  H    1.905387   2.209444   4.294381   3.581790   5.550257
                    6          7          8          9         10
     6  F    0.000000
     7  F    2.146315   0.000000
     8  F    3.518477   2.774896   0.000000
     9  F    2.774783   3.518518   2.180525   0.000000
    10  O    4.213733   4.213844   3.694747   3.694966   0.000000
    11  H    4.284021   4.284171   4.358468   4.358625   0.978030
                   11
    11  H    0.000000
 Symmetry turned off by external request.
 Stoichiometry    C3HF5O2
 Rotational constants (GHZ):           1.8793385           1.2237791           1.0026798
 Leave Link  202 at Sat May 24 03:23:42 2025, MaxMem=  3758096384 cpu:               0.0 elap:               0.0
 (Enter /apps/easybuild-2022/easybuild/software/Compiler/NVHPC/22.11-CUDA-11.7.0/Gaussian/g16c01-CUDA-11.7.0/g16/l301.exe)
 Standard basis: def2TZVPP (5D, 7F)
 Ernie: Thresh=  0.10000D-02 Tol=  0.10000D-05 Strict=F.
   324 basis functions,   527 primitive gaussians,   375 cartesian basis functions
    40 alpha electrons       40 beta electrons
       nuclear repulsion energy       640.5418637043 Hartrees.
 IExCor= 4336 DFT=T Ex+Corr=M062X ExCW=0 ScaHFX=  0.540000
 ScaDFX=  1.000000  1.000000  1.000000  1.000000 ScalE2=  1.000000  1.000000
 IRadAn=      5 IRanWt=     -1 IRanGd=            0 ICorTp=0 IEmpDi=  4
 NAtoms=   11 NActive=   11 NUniq=   11 SFac= 1.00D+00 NAtFMM=   60 NAOKFM=F Big=F
 Integral buffers will be    131072 words long.
 Raffenetti 2 integral format.
 Two-electron integral symmetry is turned off.
 Leave Link  301 at Sat May 24 03:23:42 2025, MaxMem=  3758096384 cpu:               0.1 elap:               0.0
 (Enter /apps/easybuild-2022/easybuild/software/Compiler/NVHPC/22.11-CUDA-11.7.0/Gaussian/g16c01-CUDA-11.7.0/g16/l302.exe)
 NPDir=0 NMtPBC=     1 NCelOv=     1 NCel=       1 NClECP=     1 NCelD=      1
         NCelK=      1 NCelE2=     1 NClLst=     1 CellRange=     0.0.
 One-electron integrals computed using PRISM.
   1 Symmetry operations used in ECPInt.
 ECPInt:  NShTT=    6786 NPrTT=   21959 LenC2=    6445 LenP2D=   15833.
 LDataN:  DoStor=T MaxTD1= 6 Len=  172
 NBasis=   324 RedAO= T EigKep=  4.16D-04  NBF=   324
 NBsUse=   324 1.00D-06 EigRej= -1.00D+00 NBFU=   324
 Precomputing XC quadrature grid using
 IXCGrd= 4 IRadAn=           5 IRanWt=          -1 IRanGd=           0 AccXCQ= 0.00D+00.
 Generated NRdTot=       0 NPtTot=           0 NUsed=           0 NTot=          32
 NSgBfM=   373   373   373   373   373 MxSgAt=    11 MxSgA2=    11.
 Leave Link  302 at Sat May 24 03:23:43 2025, MaxMem=  3758096384 cpu:               0.6 elap:               0.1
 (Enter /apps/easybuild-2022/easybuild/software/Compiler/NVHPC/22.11-CUDA-11.7.0/Gaussian/g16c01-CUDA-11.7.0/g16/l303.exe)
 DipDrv:  MaxL=1.
 Leave Link  303 at Sat May 24 03:23:43 2025, MaxMem=  3758096384 cpu:               0.1 elap:               0.0
 (Enter /apps/easybuild-2022/easybuild/software/Compiler/NVHPC/22.11-CUDA-11.7.0/Gaussian/g16c01-CUDA-11.7.0/g16/l401.exe)
 ExpMin= 9.52D-02 ExpMax= 3.55D+04 ExpMxC= 1.21D+03 IAcc=3 IRadAn=         5 AccDes= 0.00D+00
 Harris functional with IExCor= 1009 and IRadAn=       5 diagonalized for initial guess.
 HarFok:  IExCor= 1009 AccDes= 0.00D+00 IRadAn=         5 IDoV= 1 UseB2=F ITyADJ=14
 ICtDFT=  3500011 ScaDFX=  1.000000  1.000000  1.000000  1.000000
 FoFCou: FMM=F IPFlag=           0 FMFlag=      100000 FMFlg1=           0
         NFxFlg=           0 DoJE=T BraDBF=F KetDBF=T FulRan=T
         wScrn=  0.000000 ICntrl=       500 IOpCl=  0 I1Cent=   200000004 NGrid=           0
         NMat0=    1 NMatS0=      1 NMatT0=    0 NMatD0=    1 NMtDS0=    0 NMtDT0=    0
 Symmetry not used in FoFCou.
 Harris En= -764.095668960574    
 JPrj=0 DoOrth=F DoCkMO=F.
 Leave Link  401 at Sat May 24 03:23:43 2025, MaxMem=  3758096384 cpu:               3.5 elap:               0.5
 (Enter /apps/easybuild-2022/easybuild/software/Compiler/NVHPC/22.11-CUDA-11.7.0/Gaussian/g16c01-CUDA-11.7.0/g16/l502.exe)
 Keep R1 ints in memory in canonical form, NReq=1412617130.
 FoFCou: FMM=F IPFlag=           0 FMFlag=           0 FMFlg1=           0
         NFxFlg=           0 DoJE=F BraDBF=F KetDBF=F FulRan=T
         wScrn=  0.000000 ICntrl=       600 IOpCl=  0 I1Cent=           0 NGrid=           0
         NMat0=    1 NMatS0=  52650 NMatT0=    0 NMatD0=    1 NMtDS0=    0 NMtDT0=    0
 Symmetry not used in FoFCou.
 Two-electron integral symmetry not used.
 Closed shell SCF:
 Using DIIS extrapolation, IDIIS=  1040.
 NGot=  3758096384 LenX=  2371771924 LenY=  2371630858
 Requested convergence on RMS density matrix=1.00D-08 within  32 cycles.
 Requested convergence on MAX density matrix=1.00D-06.
 Requested convergence on             energy=1.00D-06.
 No special actions if energy rises.
 Integral accuracy reduced to 1.0D-05 until final iterations.

 Cycle   1  Pass 0  IDiag  1:
 E= -764.453024619059    
 DIIS: error= 2.04D-02 at cycle   1 NSaved=   1.
 NSaved= 1 IEnMin= 1 EnMin= -764.453024619059     IErMin= 1 ErrMin= 2.04D-02
 ErrMax= 2.04D-02  0.00D+00 EMaxC= 1.00D-01 BMatC= 2.94D-01 BMatP= 2.94D-01
 IDIUse=3 WtCom= 7.96D-01 WtEn= 2.04D-01
 Coeff-Com:  0.100D+01
 Coeff-En:   0.100D+01
 Coeff:      0.100D+01
 Gap=     0.340 Goal=   None    Shift=    0.000
 GapD=    0.340 DampG=1.000 DampE=0.500 DampFc=0.5000 IDamp=-1.
 Damping current iteration by 5.00D-01
 RMSDP=1.66D-03 MaxDP=5.73D-02              OVMax= 9.85D-02

 Cycle   2  Pass 0  IDiag  1:
 E= -764.511787227972     Delta-E=       -0.058762608914 Rises=F Damp=T
 DIIS: error= 7.52D-03 at cycle   2 NSaved=   2.
 NSaved= 2 IEnMin= 2 EnMin= -764.511787227972     IErMin= 2 ErrMin= 7.52D-03
 ErrMax= 7.52D-03  0.00D+00 EMaxC= 1.00D-01 BMatC= 3.21D-02 BMatP= 2.94D-01
 IDIUse=3 WtCom= 9.25D-01 WtEn= 7.52D-02
 Coeff-Com: -0.418D-01 0.104D+01
 Coeff-En:   0.650D-01 0.935D+00
 Coeff:     -0.337D-01 0.103D+01
 Gap=     0.327 Goal=   None    Shift=    0.000
 RMSDP=5.58D-04 MaxDP=2.40D-02 DE=-5.88D-02 OVMax= 5.99D-02

 Cycle   3  Pass 0  IDiag  1:
 E= -764.580528462478     Delta-E=       -0.068741234506 Rises=F Damp=F
 DIIS: error= 3.58D-03 at cycle   3 NSaved=   3.
 NSaved= 3 IEnMin= 3 EnMin= -764.580528462478     IErMin= 3 ErrMin= 3.58D-03
 ErrMax= 3.58D-03  0.00D+00 EMaxC= 1.00D-01 BMatC= 7.78D-03 BMatP= 3.21D-02
 IDIUse=3 WtCom= 9.64D-01 WtEn= 3.58D-02
 Coeff-Com: -0.130D+00 0.308D+00 0.821D+00
 Coeff-En:   0.000D+00 0.000D+00 0.100D+01
 Coeff:     -0.125D+00 0.297D+00 0.828D+00
 Gap=     0.336 Goal=   None    Shift=    0.000
 RMSDP=2.09D-04 MaxDP=1.22D-02 DE=-6.87D-02 OVMax= 1.75D-02

 Cycle   4  Pass 0  IDiag  1:
 E= -764.584985581101     Delta-E=       -0.004457118623 Rises=F Damp=F
 DIIS: error= 1.57D-03 at cycle   4 NSaved=   4.
 NSaved= 4 IEnMin= 4 EnMin= -764.584985581101     IErMin= 4 ErrMin= 1.57D-03
 ErrMax= 1.57D-03  0.00D+00 EMaxC= 1.00D-01 BMatC= 7.80D-04 BMatP= 7.78D-03
 IDIUse=3 WtCom= 9.84D-01 WtEn= 1.57D-02
 Coeff-Com: -0.557D-01 0.107D+00 0.390D+00 0.558D+00
 Coeff-En:   0.000D+00 0.000D+00 0.000D+00 0.100D+01
 Coeff:     -0.548D-01 0.106D+00 0.384D+00 0.565D+00
 Gap=     0.335 Goal=   None    Shift=    0.000
 RMSDP=6.16D-05 MaxDP=4.18D-03 DE=-4.46D-03 OVMax= 6.88D-03

 Cycle   5  Pass 0  IDiag  1:
 E= -764.585534764984     Delta-E=       -0.000549183884 Rises=F Damp=F
 DIIS: error= 2.93D-04 at cycle   5 NSaved=   5.
 NSaved= 5 IEnMin= 5 EnMin= -764.585534764984     IErMin= 5 ErrMin= 2.93D-04
 ErrMax= 2.93D-04  0.00D+00 EMaxC= 1.00D-01 BMatC= 5.01D-05 BMatP= 7.80D-04
 IDIUse=3 WtCom= 9.97D-01 WtEn= 2.93D-03
 Coeff-Com: -0.178D-01 0.313D-01 0.126D+00 0.266D+00 0.595D+00
 Coeff-En:   0.000D+00 0.000D+00 0.000D+00 0.000D+00 0.100D+01
 Coeff:     -0.178D-01 0.312D-01 0.126D+00 0.265D+00 0.596D+00
 Gap=     0.335 Goal=   None    Shift=    0.000
 RMSDP=1.31D-05 MaxDP=6.63D-04 DE=-5.49D-04 OVMax= 1.81D-03

 Cycle   6  Pass 0  IDiag  1:
 E= -764.585566904368     Delta-E=       -0.000032139384 Rises=F Damp=F
 DIIS: error= 8.45D-05 at cycle   6 NSaved=   6.
 NSaved= 6 IEnMin= 6 EnMin= -764.585566904368     IErMin= 6 ErrMin= 8.45D-05
 ErrMax= 8.45D-05  0.00D+00 EMaxC= 1.00D-01 BMatC= 3.32D-06 BMatP= 5.01D-05
 IDIUse=1 WtCom= 1.00D+00 WtEn= 0.00D+00
 Coeff-Com: -0.116D-02 0.917D-03 0.351D-02 0.347D-01 0.216D+00 0.746D+00
 Coeff:     -0.116D-02 0.917D-03 0.351D-02 0.347D-01 0.216D+00 0.746D+00
 Gap=     0.335 Goal=   None    Shift=    0.000
 RMSDP=5.14D-06 MaxDP=2.66D-04 DE=-3.21D-05 OVMax= 5.16D-04

 Initial convergence to 1.0D-05 achieved.  Increase integral accuracy.
 Cycle   7  Pass 1  IDiag  1:
 E= -764.585602266413     Delta-E=       -0.000035362044 Rises=F Damp=F
 DIIS: error= 2.26D-05 at cycle   1 NSaved=   1.
 NSaved= 1 IEnMin= 1 EnMin= -764.585602266413     IErMin= 1 ErrMin= 2.26D-05
 ErrMax= 2.26D-05  0.00D+00 EMaxC= 1.00D-01 BMatC= 7.61D-07 BMatP= 7.61D-07
 IDIUse=1 WtCom= 1.00D+00 WtEn= 0.00D+00
 Coeff-Com:  0.100D+01
 Coeff:      0.100D+01
 Gap=     0.335 Goal=   None    Shift=    0.000
 RMSDP=5.14D-06 MaxDP=2.66D-04 DE=-3.54D-05 OVMax= 1.98D-04

 Cycle   8  Pass 1  IDiag  1:
 E= -764.585602802512     Delta-E=       -0.000000536099 Rises=F Damp=F
 DIIS: error= 1.75D-05 at cycle   2 NSaved=   2.
 NSaved= 2 IEnMin= 2 EnMin= -764.585602802512     IErMin= 2 ErrMin= 1.75D-05
 ErrMax= 1.75D-05  0.00D+00 EMaxC= 1.00D-01 BMatC= 1.73D-07 BMatP= 7.61D-07
 IDIUse=1 WtCom= 1.00D+00 WtEn= 0.00D+00
 Coeff-Com:  0.241D+00 0.759D+00
 Coeff:      0.241D+00 0.759D+00
 Gap=     0.335 Goal=   None    Shift=    0.000
 RMSDP=1.32D-06 MaxDP=5.99D-05 DE=-5.36D-07 OVMax= 1.13D-04

 Cycle   9  Pass 1  IDiag  1:
 E= -764.585602881816     Delta-E=       -0.000000079305 Rises=F Damp=F
 DIIS: error= 1.07D-05 at cycle   3 NSaved=   3.
 NSaved= 3 IEnMin= 3 EnMin= -764.585602881816     IErMin= 3 ErrMin= 1.07D-05
 ErrMax= 1.07D-05  0.00D+00 EMaxC= 1.00D-01 BMatC= 6.95D-08 BMatP= 1.73D-07
 IDIUse=1 WtCom= 1.00D+00 WtEn= 0.00D+00
 Coeff-Com: -0.264D-01 0.380D+00 0.647D+00
 Coeff:     -0.264D-01 0.380D+00 0.647D+00
 Gap=     0.335 Goal=   None    Shift=    0.000
 RMSDP=5.61D-07 MaxDP=3.28D-05 DE=-7.93D-08 OVMax= 5.90D-05

 Cycle  10  Pass 1  IDiag  1:
 E= -764.585602929382     Delta-E=       -0.000000047566 Rises=F Damp=F
 DIIS: error= 2.20D-06 at cycle   4 NSaved=   4.
 NSaved= 4 IEnMin= 4 EnMin= -764.585602929382     IErMin= 4 ErrMin= 2.20D-06
 ErrMax= 2.20D-06  0.00D+00 EMaxC= 1.00D-01 BMatC= 3.52D-09 BMatP= 6.95D-08
 IDIUse=1 WtCom= 1.00D+00 WtEn= 0.00D+00
 Coeff-Com: -0.207D-01 0.133D+00 0.295D+00 0.593D+00
 Coeff:     -0.207D-01 0.133D+00 0.295D+00 0.593D+00
 Gap=     0.335 Goal=   None    Shift=    0.000
 RMSDP=1.22D-07 MaxDP=6.90D-06 DE=-4.76D-08 OVMax= 1.07D-05

 Cycle  11  Pass 1  IDiag  1:
 E= -764.585602931836     Delta-E=       -0.000000002454 Rises=F Damp=F
 DIIS: error= 5.57D-07 at cycle   5 NSaved=   5.
 NSaved= 5 IEnMin= 5 EnMin= -764.585602931836     IErMin= 5 ErrMin= 5.57D-07
 ErrMax= 5.57D-07  0.00D+00 EMaxC= 1.00D-01 BMatC= 2.37D-10 BMatP= 3.52D-09
 IDIUse=1 WtCom= 1.00D+00 WtEn= 0.00D+00
 Coeff-Com: -0.220D-02-0.185D-01 0.116D-02 0.178D+00 0.842D+00
 Coeff:     -0.220D-02-0.185D-01 0.116D-02 0.178D+00 0.842D+00
 Gap=     0.335 Goal=   None    Shift=    0.000
 RMSDP=5.04D-08 MaxDP=1.84D-06 DE=-2.45D-09 OVMax= 5.02D-06

 Cycle  12  Pass 1  IDiag  1:
 E= -764.585602932053     Delta-E=       -0.000000000217 Rises=F Damp=F
 DIIS: error= 3.53D-07 at cycle   6 NSaved=   6.
 NSaved= 6 IEnMin= 6 EnMin= -764.585602932053     IErMin= 6 ErrMin= 3.53D-07
 ErrMax= 3.53D-07  0.00D+00 EMaxC= 1.00D-01 BMatC= 4.51D-11 BMatP= 2.37D-10
 IDIUse=1 WtCom= 1.00D+00 WtEn= 0.00D+00
 Coeff-Com:  0.130D-02-0.243D-01-0.315D-01 0.217D-01 0.387D+00 0.646D+00
 Coeff:      0.130D-02-0.243D-01-0.315D-01 0.217D-01 0.387D+00 0.646D+00
 Gap=     0.335 Goal=   None    Shift=    0.000
 RMSDP=1.47D-08 MaxDP=9.66D-07 DE=-2.17D-10 OVMax= 1.51D-06

 Cycle  13  Pass 1  IDiag  1:
 E= -764.585602932068     Delta-E=       -0.000000000015 Rises=F Damp=F
 DIIS: error= 9.43D-08 at cycle   7 NSaved=   7.
 NSaved= 7 IEnMin= 7 EnMin= -764.585602932068     IErMin= 7 ErrMin= 9.43D-08
 ErrMax= 9.43D-08  0.00D+00 EMaxC= 1.00D-01 BMatC= 2.84D-12 BMatP= 4.51D-11
 IDIUse=1 WtCom= 1.00D+00 WtEn= 0.00D+00
 Coeff-Com:  0.681D-03-0.734D-02-0.118D-01-0.907D-02 0.517D-01 0.231D+00
 Coeff-Com:  0.744D+00
 Coeff:      0.681D-03-0.734D-02-0.118D-01-0.907D-02 0.517D-01 0.231D+00
 Coeff:      0.744D+00
 Gap=     0.335 Goal=   None    Shift=    0.000
 RMSDP=4.31D-09 MaxDP=1.63D-07 DE=-1.50D-11 OVMax= 5.23D-07

 SCF Done:  E(RM062X) =  -764.585602932     A.U. after   13 cycles
            NFock= 13  Conv=0.43D-08     -V/T= 2.0035
 KE= 7.618824047953D+02 PE=-3.093423989347D+03 EE= 9.264141179154D+02
 Leave Link  502 at Sat May 24 03:24:07 2025, MaxMem=  3758096384 cpu:             104.8 elap:              24.0
 (Enter /apps/easybuild-2022/easybuild/software/Compiler/NVHPC/22.11-CUDA-11.7.0/Gaussian/g16c01-CUDA-11.7.0/g16/l508.exe)
 QCSCF skips out because SCF is already converged.
 Leave Link  508 at Sat May 24 03:24:07 2025, MaxMem=  3758096384 cpu:               0.0 elap:               0.0
 (Enter /apps/easybuild-2022/easybuild/software/Compiler/NVHPC/22.11-CUDA-11.7.0/Gaussian/g16c01-CUDA-11.7.0/g16/l801.exe)
 DoSCS=F DFT=T ScalE2(SS,OS)=  1.000000  1.000000
 Range of M.O.s used for correlation:     1   324
 NBasis=   324 NAE=    40 NBE=    40 NFC=     0 NFV=     0
 NROrb=    324 NOA=    40 NOB=    40 NVA=   284 NVB=   284

 **** Warning!!: The largest alpha MO coefficient is  0.13241205D+02

 Leave Link  801 at Sat May 24 03:24:07 2025, MaxMem=  3758096384 cpu:               0.0 elap:               0.0
 (Enter /apps/easybuild-2022/easybuild/software/Compiler/NVHPC/22.11-CUDA-11.7.0/Gaussian/g16c01-CUDA-11.7.0/g16/l1101.exe)
 Using compressed storage, NAtomX=    11.
 Will process     12 centers per pass.
   1 Symmetry operations used in ECPInt.
 ECPInt:  NShTT=    6786 NPrTT=   21959 LenC2=    6445 LenP2D=   15833.
 LDataN:  DoStor=T MaxTD1= 7 Len=  274
 Leave Link 1101 at Sat May 24 03:24:07 2025, MaxMem=  3758096384 cpu:               0.8 elap:               0.2
 (Enter /apps/easybuild-2022/easybuild/software/Compiler/NVHPC/22.11-CUDA-11.7.0/Gaussian/g16c01-CUDA-11.7.0/g16/l1102.exe)
 Symmetrizing basis deriv contribution to polar:
 IMax=3 JMax=2 DiffMx= 0.00D+00
 Leave Link 1102 at Sat May 24 03:24:07 2025, MaxMem=  3758096384 cpu:               0.1 elap:               0.0
 (Enter /apps/easybuild-2022/easybuild/software/Compiler/NVHPC/22.11-CUDA-11.7.0/Gaussian/g16c01-CUDA-11.7.0/g16/l1110.exe)
 Forming Gx(P) for the SCF density, NAtomX=    11.
 Integral derivatives from FoFJK, PRISM(SPDF).
 Do as many integral derivatives as possible in FoFJK.
 G2DrvN: MDV=    3758095115.
 G2DrvN: will do    12 centers at a time, making    1 passes.
 Calling FoFCou, ICntrl=  3107 FMM=F I1Cent=   0 AccDes= 0.00D+00.
 FoFJK:  IHMeth= 1 ICntrl=    3107 DoSepK=F KAlg= 0 I1Cent=           0 FoldK=F
 IRaf=         0 NMat=       1 IRICut=       1 DoRegI=T DoRafI=F ISym2E= 0 IDoP0=0 IntGTp=1.
 FoFCou: FMM=F IPFlag=           0 FMFlag=      100000 FMFlg1=           0
         NFxFlg=           0 DoJE=F BraDBF=F KetDBF=F FulRan=T
         wScrn=  0.000000 ICntrl=      3107 IOpCl=  0 I1Cent=           0 NGrid=           0
         NMat0=    1 NMatS0=      1 NMatT0=    0 NMatD0=    1 NMtDS0=    0 NMtDT0=    0
 Symmetry not used in FoFCou.
 End of G2Drv F.D. properties file   721 does not exist.
 End of G2Drv F.D. properties file   722 does not exist.
 End of G2Drv F.D. properties file   788 does not exist.
 Leave Link 1110 at Sat May 24 03:24:48 2025, MaxMem=  3758096384 cpu:             323.3 elap:              40.7
 (Enter /apps/easybuild-2022/easybuild/software/Compiler/NVHPC/22.11-CUDA-11.7.0/Gaussian/g16c01-CUDA-11.7.0/g16/l1002.exe)
 Minotr:  Closed shell wavefunction.
          IDoAtm=11111111111
          Direct CPHF calculation.
          Differentiating once with respect to nuclear coordinates.
          Requested convergence is 1.0D-08 RMS, and 1.0D-07 maximum.
          Secondary convergence is 1.0D-12 RMS, and 1.0D-12 maximum.
          NewPWx=T KeepS1=F KeepF1=F KeepIn=T MapXYZ=F SortEE=F KeepMc=T.
         3300 words used for storage of precomputed grid.
 Keep R1 ints in memory in canonical form, NReq=1412622530.
 FoFCou: FMM=F IPFlag=           0 FMFlag=           0 FMFlg1=           0
         NFxFlg=           0 DoJE=F BraDBF=F KetDBF=F FulRan=T
         wScrn=  0.000000 ICntrl=       600 IOpCl=  0 I1Cent=           0 NGrid=           0
         NMat0=    1 NMatS0=  52650 NMatT0=    0 NMatD0=    1 NMtDS0=    0 NMtDT0=    0
 Symmetry not used in FoFCou.
 Two-electron integral symmetry not used.
          MDV=    3758096384 using IRadAn=       1.
          Solving linear equations simultaneously, MaxMat=       0.
          There are    36 degrees of freedom in the 1st order CPHF.  IDoFFX=6 NUNeed=     0.
     30 vectors produced by pass  0 Test12= 3.16D-14 2.78D-09 XBig12= 1.17D-01 1.85D-01.
 AX will form    30 AO Fock derivatives at one time.
     30 vectors produced by pass  1 Test12= 3.16D-14 2.78D-09 XBig12= 1.76D-02 6.44D-02.
     30 vectors produced by pass  2 Test12= 3.16D-14 2.78D-09 XBig12= 7.89D-04 7.59D-03.
     30 vectors produced by pass  3 Test12= 3.16D-14 2.78D-09 XBig12= 1.48D-05 9.72D-04.
     30 vectors produced by pass  4 Test12= 3.16D-14 2.78D-09 XBig12= 1.50D-07 5.52D-05.
     30 vectors produced by pass  5 Test12= 3.16D-14 2.78D-09 XBig12= 1.00D-09 4.86D-06.
     30 vectors produced by pass  6 Test12= 3.16D-14 2.78D-09 XBig12= 7.02D-12 4.15D-07.
     14 vectors produced by pass  7 Test12= 3.16D-14 2.78D-09 XBig12= 3.36D-14 2.61D-08.
 InvSVY:  IOpt=1 It=  1 EMax= 8.88D-16
 Solved reduced A of dimension   224 with    30 vectors.
 End of Minotr F.D. properties file   721 does not exist.
 End of Minotr F.D. properties file   722 does not exist.
 End of Minotr F.D. properties file   788 does not exist.
 Leave Link 1002 at Sat May 24 03:25:41 2025, MaxMem=  3758096384 cpu:             415.5 elap:              52.8
 (Enter /apps/easybuild-2022/easybuild/software/Compiler/NVHPC/22.11-CUDA-11.7.0/Gaussian/g16c01-CUDA-11.7.0/g16/l701.exe)
 ... and contract with generalized density number  0.
 Compute integral second derivatives.
   1 Symmetry operations used in ECPInt.
 ECPInt:  NShTT=    6786 NPrTT=   21959 LenC2=    6445 LenP2D=   15833.
 LDataN:  DoStor=T MaxTD1= 8 Len=  415
 Leave Link  701 at Sat May 24 03:25:41 2025, MaxMem=  3758096384 cpu:               0.7 elap:               0.1
 (Enter /apps/easybuild-2022/easybuild/software/Compiler/NVHPC/22.11-CUDA-11.7.0/Gaussian/g16c01-CUDA-11.7.0/g16/l702.exe)
 L702 exits ... SP integral derivatives will be done elsewhere.
 Leave Link  702 at Sat May 24 03:25:41 2025, MaxMem=  3758096384 cpu:               0.0 elap:               0.0
 (Enter /apps/easybuild-2022/easybuild/software/Compiler/NVHPC/22.11-CUDA-11.7.0/Gaussian/g16c01-CUDA-11.7.0/g16/l703.exe)
 Integral derivatives from FoFJK, PRISM(SPDF).
 Compute integral second derivatives, UseDBF=F ICtDFT=           0.
 Calling FoFJK, ICntrl=    100127 FMM=F ISym2X=0 I1Cent= 0 IOpClX= 0 NMat=1 NMatS=1 NMatT=0.
 FoFJK:  IHMeth= 1 ICntrl=  100127 DoSepK=F KAlg= 0 I1Cent=           0 FoldK=F
 IRaf=         0 NMat=       1 IRICut=       1 DoRegI=T DoRafI=F ISym2E= 0 IDoP0=0 IntGTp=1.
 FoFCou: FMM=F IPFlag=           0 FMFlag=      100000 FMFlg1=         800
         NFxFlg=           0 DoJE=F BraDBF=F KetDBF=F FulRan=T
         wScrn=  0.000000 ICntrl=    100127 IOpCl=  0 I1Cent=           0 NGrid=           0
         NMat0=    1 NMatS0=      1 NMatT0=    0 NMatD0=    1 NMtDS0=    0 NMtDT0=    0
 Symmetry not used in FoFCou.
 Leave Link  703 at Sat May 24 03:27:14 2025, MaxMem=  3758096384 cpu:             736.7 elap:              92.6
 (Enter /apps/easybuild-2022/easybuild/software/Compiler/NVHPC/22.11-CUDA-11.7.0/Gaussian/g16c01-CUDA-11.7.0/g16/l716.exe)
 Dipole        = 1.10131841D+00 3.59160085D-02 3.07724244D-01
 Polarizability= 0.00000000D+00 0.00000000D+00 0.00000000D+00
                 0.00000000D+00 0.00000000D+00 0.00000000D+00
 -------------------------------------------------------------------
 Center     Atomic                   Forces (Hartrees/Bohr)
 Number     Number              X              Y              Z
 -------------------------------------------------------------------
      1        6           0.005480627    0.000690385   -0.005485325
      2        8          -0.003154478    0.000406887   -0.007844201
      3        6          -0.004646176   -0.000370039    0.001666463
      4        6          -0.000809955    0.000153973   -0.002718546
      5        9          -0.007485636   -0.000571550    0.002524363
      6        9           0.003920425    0.000217884   -0.002767891
      7        9           0.003889554    0.000593378   -0.002743329
      8        9          -0.005557757   -0.000778090    0.003176444
      9        9          -0.005576352   -0.000278249    0.003206484
     10        8           0.013835020    0.000022114    0.009707772
     11        1           0.000104727   -0.000086691    0.001277767
 -------------------------------------------------------------------
 Cartesian Forces:  Max     0.013835020 RMS     0.004417525
 Force constants in Cartesian coordinates: 
                1             2             3             4             5 
      1  0.687642D+00
      2  0.386966D-01  0.428414D-01
      3 -0.564776D-01 -0.269822D-01  0.363558D+00
      4 -0.100827D+00 -0.256361D-03 -0.680066D-01  0.429396D+00
      5 -0.162332D-02 -0.243777D-02  0.146312D-01  0.234053D-01  0.875391D-01
      6 -0.499385D-01  0.155527D-01 -0.248659D+00 -0.683750D-01 -0.278705D-01
      7 -0.171641D-01  0.671653D-03 -0.100026D-01 -0.275428D-01 -0.112951D-02
      8 -0.249558D-03 -0.149737D-01 -0.374761D-02 -0.393172D-02  0.948466D-02
      9  0.195748D-02 -0.307084D-02  0.277188D-01  0.263503D-01  0.291225D-02
     10 -0.247461D-01 -0.648131D-02  0.749847D-01 -0.233856D+00 -0.663233D-02
     11 -0.507170D-02 -0.785213D-02  0.646971D-02 -0.652435D-02 -0.793672D-01
     12  0.559839D-01  0.546520D-02 -0.407776D-01 -0.243120D-01 -0.976880D-03
     13  0.405904D-02  0.422214D-03 -0.413923D-02 -0.107391D-01 -0.308954D-03
     14  0.131748D-03  0.185386D-02  0.256444D-03 -0.174436D-03 -0.325069D-03
     15 -0.202764D-03  0.461918D-03 -0.456728D-02 -0.527180D-02 -0.476661D-03
     16 -0.179558D-02 -0.346645D-02 -0.132151D-01 -0.174082D-01 -0.418159D-01
     17 -0.931484D-03 -0.159950D-02 -0.101736D-01 -0.259336D-01 -0.110424D-01
     18 -0.411957D-03  0.206447D-02  0.745639D-02  0.233430D-01  0.230825D-01
     19 -0.238422D-02  0.540898D-02 -0.134523D-01 -0.238943D-01  0.325814D-01
     20  0.939269D-03 -0.190460D-02  0.730569D-02  0.203377D-01  0.233907D-02
     21  0.938609D-05 -0.352133D-02  0.832643D-02  0.290545D-01 -0.180120D-01
     22 -0.162080D-01  0.177433D-01  0.615004D-02  0.124805D-02 -0.460946D-02
     23  0.745896D-02  0.100185D-02  0.206314D-02  0.411089D-02  0.149625D-02
     24  0.149805D-02 -0.233371D-02 -0.459168D-02 -0.503027D-02 -0.227269D-02
     25 -0.137638D-01 -0.201192D-01  0.361184D-02  0.117867D-02  0.485417D-02
     26 -0.916089D-02 -0.210312D-02 -0.877197D-03 -0.331737D-02  0.115244D-02
     27  0.111705D-03  0.307953D-02 -0.438620D-02 -0.570884D-02  0.104634D-02
     28 -0.455649D+00 -0.304850D-01  0.110224D+00 -0.290048D-01 -0.600827D-02
     29 -0.266044D-01 -0.369905D-01  0.123691D-01 -0.873561D-02  0.297509D-02
     30  0.574330D-01  0.954835D-02 -0.122607D+00  0.949186D-01  0.895424D-02
     31 -0.591633D-01 -0.213439D-02 -0.296767D-01  0.114496D-01  0.128691D-02
     32 -0.358523D-02  0.221642D-01 -0.131464D-02  0.101964D-02 -0.118141D-01
     33 -0.996271D-02 -0.264011D-03  0.185287D-01  0.303813D-02 -0.101782D-02
                6             7             8             9            10 
      6  0.412137D+00
      7 -0.117711D-01  0.585117D+00
      8  0.888985D-03 -0.260424D-02  0.604771D+00
      9 -0.105089D-01  0.201578D-01  0.817756D-03  0.608368D+00
     10 -0.222299D-01 -0.108883D+00  0.238298D-02 -0.799760D-01  0.550818D+00
     11 -0.809252D-03  0.278768D-02 -0.422048D-01  0.218454D-02 -0.227250D-02
     12 -0.830331D-01 -0.856476D-01  0.195806D-02 -0.129751D+00  0.130423D-01
     13 -0.348074D-02 -0.295735D+00 -0.160790D-01  0.580559D-01 -0.519018D-01
     14 -0.380109D-03 -0.169279D-01 -0.751902D-01  0.527217D-02 -0.221167D-02
     15  0.220303D-02  0.685721D-01  0.582778D-02 -0.102009D+00 -0.895936D-02
     16  0.466804D-01  0.405307D-02  0.129912D-01 -0.493107D-02 -0.786531D-01
     17  0.298267D-01 -0.943382D-02 -0.256134D-01  0.104577D-01 -0.892988D-02
     18 -0.158187D-01  0.131423D-01  0.382483D-01 -0.131566D-01 -0.775319D-03
     19  0.549903D-01  0.422830D-02 -0.945155D-02 -0.535915D-02 -0.828512D-01
     20 -0.221545D-01  0.987290D-02 -0.185346D-01 -0.117982D-01  0.217715D-01
     21 -0.227439D-01  0.186527D-01 -0.373829D-01 -0.203803D-01  0.131988D-01
     22 -0.189668D-02 -0.776850D-01  0.817277D-02 -0.143765D-01  0.575931D-02
     23 -0.183048D-02  0.822089D-02 -0.238622D+00  0.116067D+00 -0.758644D-02
     24  0.546235D-02 -0.145761D-01  0.109145D+00 -0.159435D+00  0.103535D-01
     25 -0.133145D-02 -0.778788D-01  0.838246D-02 -0.144107D-02  0.655321D-02
     26  0.100412D-02  0.848998D-02 -0.204406D+00 -0.123720D+00  0.844303D-02
     27  0.595007D-02 -0.228651D-02 -0.116873D+00 -0.193929D+00  0.150080D-01
     28  0.577811D-01  0.978265D-02  0.227887D-03  0.238902D-02  0.209667D-01
     29  0.696908D-02  0.186701D-03  0.256694D-02  0.818606D-03  0.188114D-02
     30 -0.490876D-01  0.266774D-02  0.850037D-03 -0.680470D-02 -0.170064D-01
     31 -0.428369D-03  0.170715D-02  0.158841D-03 -0.282676D-02 -0.320590D-02
     32 -0.119677D-02 -0.134289D-03  0.272256D-02  0.592807D-04 -0.364486D-03
     33  0.409835D-02  0.109123D-02  0.268017D-03 -0.112449D-03  0.235973D-02
               11            12            13            14            15 
     11  0.576325D+00
     12 -0.273001D-02  0.622535D+00
     13 -0.506870D-02  0.297182D-01  0.389556D+00
     14  0.197259D-02  0.145472D-02  0.267146D-01  0.881424D-01
     15 -0.592532D-03  0.394496D-02 -0.141815D+00 -0.118109D-01  0.143101D+00
     16 -0.167509D-01  0.509803D-02  0.237736D-02  0.225340D-02 -0.314277D-02
     17 -0.228074D+00  0.112946D+00  0.221483D-02  0.321275D-02 -0.122662D-02
     18  0.107521D+00 -0.158473D+00 -0.407635D-02 -0.234360D-02  0.168837D-02
     19  0.286169D-01  0.206691D-01  0.281212D-02 -0.177112D-02 -0.354528D-02
     20 -0.190909D+00 -0.116726D+00 -0.158738D-02  0.230928D-02  0.990441D-03
     21 -0.112044D+00 -0.192022D+00 -0.453058D-02  0.201794D-02  0.226526D-02
     22  0.178941D-01 -0.337772D-02 -0.146671D-01 -0.480402D-01  0.422110D-01
     23 -0.221588D-01  0.413514D-02 -0.334379D-01 -0.191674D-01  0.327437D-01
     24  0.326824D-01 -0.643171D-02  0.308815D-01  0.351458D-01 -0.192120D-01
     25 -0.144868D-01 -0.517134D-02 -0.226042D-01  0.401852D-01  0.518964D-01
     26 -0.173701D-01 -0.619725D-02  0.273041D-01 -0.222479D-02 -0.258152D-01
     27 -0.328953D-01 -0.121146D-01  0.388672D-01 -0.295220D-01 -0.284195D-01
     28  0.112723D-02 -0.673631D-02 -0.349257D-02 -0.163681D-03 -0.148928D-03
     29  0.927697D-02  0.427382D-03 -0.241098D-03 -0.276770D-03 -0.103553D-03
     30 -0.115024D-03 -0.150221D-02  0.963652D-03 -0.462946D-04  0.104068D-02
     31 -0.251110D-03  0.733338D-03  0.335510D-03  0.413351D-05  0.405960D-03
     32  0.361343D-03  0.243463D-03  0.674085D-04 -0.306601D-03  0.173629D-05
     33  0.329044D-03 -0.237481D-02 -0.444969D-03 -0.441472D-04 -0.354587D-04
               16            17            18            19            20 
     16  0.831636D-01
     17  0.369192D-01  0.345981D+00
     18 -0.275618D-01 -0.152931D+00  0.165733D+00
     19  0.129286D-01  0.431109D-02 -0.551775D-05  0.932511D-01
     20  0.668766D-02 -0.885068D-01 -0.177159D-01 -0.556827D-01  0.288701D+00
     21 -0.843007D-03  0.978607D-03  0.234116D-01 -0.516174D-01  0.167788D+00
     22 -0.174435D-02  0.361419D-02 -0.615233D-02  0.397456D-03 -0.190730D-02
     23  0.321872D-02 -0.593000D-03  0.453467D-02  0.681051D-03  0.621086D-02
     24 -0.502837D-02  0.466249D-02 -0.878849D-02 -0.121326D-02 -0.133160D-02
     25  0.318814D-03  0.147084D-02 -0.947740D-03 -0.112533D-02 -0.283156D-02
     26 -0.109891D-02  0.634939D-02 -0.172013D-02 -0.259706D-02  0.606152D-05
     27 -0.154723D-02  0.209255D-02  0.294585D-03 -0.503015D-02 -0.386085D-02
     28 -0.426643D-02 -0.408848D-02  0.397726D-02 -0.440680D-02  0.292942D-02
     29  0.144972D-02  0.484404D-03 -0.105230D-02 -0.266305D-02  0.865281D-03
     30  0.456216D-02  0.353517D-02 -0.241292D-02  0.457496D-02 -0.256466D-02
     31  0.102626D-02  0.787148D-03 -0.531504D-03  0.104430D-02 -0.529449D-03
     32 -0.387746D-03 -0.597748D-03  0.312458D-03  0.566022D-03 -0.576793D-03
     33 -0.712305D-04 -0.167959D-03  0.653925D-04 -0.112476D-04  0.676129D-04
               21            22            23            24            25 
     21  0.213480D+00
     22 -0.145621D-02  0.976450D-01
     23  0.251411D-02  0.782943D-02  0.348703D+00
     24  0.340674D-03 -0.188284D-01 -0.161258D+00  0.168590D+00
     25 -0.622142D-02  0.105181D-01  0.748302D-02  0.192956D-02  0.102092D+00
     26 -0.384451D-02  0.158140D-02 -0.755534D-01 -0.152581D-01 -0.271766D-01
     27 -0.100664D-01  0.609751D-03  0.815598D-03  0.224515D-01 -0.398180D-01
     28  0.433985D-02 -0.415877D-02  0.184321D-02 -0.629892D-03 -0.410609D-02
     29  0.197322D-02 -0.140796D-02 -0.496706D-03  0.366934D-03  0.133268D-02
     30 -0.263590D-02 -0.225039D-02 -0.412262D-05  0.169613D-02 -0.203745D-02
     31 -0.586654D-03 -0.110466D-02  0.178193D-03  0.643711D-03 -0.118314D-02
     32 -0.466872D-03 -0.870315D-03 -0.820855D-03  0.451932D-03  0.905796D-03
     33  0.244963D-04 -0.632565D-03  0.219679D-03 -0.818995D-04 -0.469308D-03
               26            27            28            29            30 
     26  0.295229D+00
     27  0.177349D+00  0.218848D+00
     28 -0.214340D-02 -0.860362D-03  0.680145D+00
     29 -0.438860D-03 -0.760000D-03  0.313322D-01  0.500807D-01
     30 -0.555690D-03  0.156372D-02  0.332839D-01 -0.290896D-01  0.464285D+00
     31 -0.324245D-03  0.654521D-03 -0.205810D+00  0.346969D-02 -0.177110D+00
     32 -0.640030D-03 -0.471733D-03  0.542894D-02 -0.280466D-01  0.948759D-02
     33 -0.365082D-03 -0.192635D-03 -0.203619D+00  0.808111D-02 -0.283536D+00
               31            32            33 
     31  0.254905D+00
     32 -0.264573D-02  0.175546D-01
     33  0.208722D+00 -0.710644D-02  0.263616D+00
 FormGI is forming the generalized inverse of G from B-inverse, IUseBI=4.
 Force constants in internal coordinates: 
                1             2             3             4             5 
      1  0.324593D+00
      2  0.753119D-01  0.573435D+00
      3  0.462692D-01 -0.884602D-02  0.410549D+00
      4  0.651834D-02  0.709440D-03  0.390807D-01  0.273455D+00
      5 -0.185235D-02  0.284781D-02  0.480642D-02  0.198231D-01  0.456512D+00
      6 -0.315992D-02  0.160846D-02  0.128329D-01  0.178788D-01  0.596732D-01
      7 -0.315508D-02  0.162787D-02  0.127780D-01  0.179025D-01  0.596140D-01
      8 -0.903724D-02  0.615515D-02  0.509148D-01  0.158514D-01  0.516489D-02
      9 -0.904855D-02  0.614913D-02  0.509779D-01  0.158136D-01  0.516164D-02
     10 -0.819255D-03  0.331732D-01 -0.123791D-02  0.112675D-02  0.203938D-03
     11  0.923776D-01  0.627385D-01  0.373642D-02 -0.740350D-02 -0.286916D-02
     12  0.456655D-01  0.236230D-01  0.191219D+00  0.759306D-01  0.107133D-02
     13 -0.106259D-01 -0.374471D-04  0.164225D-02  0.220822D-01  0.195254D-01
     14  0.337630D-02  0.412771D-02  0.178211D-01  0.171398D-01 -0.282922D-01
     15  0.340029D-02  0.411850D-02  0.182003D-01  0.174623D-01 -0.282219D-01
     16  0.147911D-02 -0.350912D-02 -0.163659D-01 -0.236708D-01  0.188785D-01
     17  0.145056D-02 -0.352182D-02 -0.166488D-01 -0.238452D-01  0.187638D-01
     18  0.218367D-03 -0.186173D-02 -0.770581D-02 -0.117157D-01  0.488960D-02
     19  0.221500D-02  0.559583D-02  0.119531D+00  0.723803D-01  0.164620D-01
     20 -0.650640D-02  0.105574D-02 -0.144060D-01 -0.326733D-01 -0.311581D-02
     21 -0.646678D-02  0.103840D-02 -0.146046D-01 -0.327769D-01 -0.302028D-02
     22  0.515388D-02 -0.379700D-02 -0.507482D-01 -0.442286D-02 -0.515951D-02
     23  0.509949D-02 -0.375967D-02 -0.506748D-01 -0.446609D-02 -0.523484D-02
     24  0.680518D-03 -0.527656D-03  0.489626D-02 -0.920807D-03 -0.798271D-03
     25 -0.489102D-02  0.358813D-01  0.440439D-02  0.595696D-03 -0.686167D-03
     26  0.933650D-05  0.706713D-04 -0.126254D-03 -0.157194D-03  0.114368D-03
     27  0.610717D-05  0.136130D-05 -0.421867D-04 -0.589058D-04  0.337771D-04
     28  0.280589D-04  0.258400D-04  0.947619D-04  0.000000D+00 -0.432783D-04
     29  0.344118D-02 -0.286148D-03  0.566037D-02  0.198211D-01  0.225432D-02
     30 -0.334379D-02  0.302445D-03 -0.542022D-02 -0.196891D-01 -0.231316D-02
     31 -0.579874D-05 -0.556259D-05  0.119043D-03  0.964695D-04 -0.991799D-04
     32  0.312159D-02 -0.231912D-02 -0.240009D-01 -0.288512D-02 -0.329353D-02
     33 -0.312171D-02  0.231295D-02  0.240427D-01  0.291756D-02  0.316344D-02
     34 -0.290563D-02 -0.209622D-02 -0.927513D-02 -0.605271D-02  0.196804D-01
     35  0.221753D-03 -0.440978D-02 -0.333951D-01 -0.903429D-02  0.164860D-01
     36 -0.602154D-02  0.222286D-03  0.146485D-01 -0.323161D-02  0.229430D-01
     37  0.291661D-02  0.210520D-02  0.965601D-02  0.628622D-02 -0.197794D-01
     38  0.604400D-02 -0.208359D-03 -0.144639D-01  0.330463D-02 -0.229738D-01
     39 -0.199292D-03  0.442371D-02  0.335797D-01  0.910731D-02 -0.165168D-01
                6             7             8             9            10 
      6  0.443980D+00
      7  0.519080D-01  0.444568D+00
      8  0.568664D-02  0.545249D-02  0.439148D+00
      9  0.546020D-02  0.569486D-02  0.574827D-01  0.439512D+00
     10  0.407626D-04  0.541754D-04 -0.626893D-03 -0.619551D-03  0.467867D+00
     11 -0.509819D-03 -0.672238D-03  0.537684D-02  0.528629D-02 -0.238701D-01
     12  0.186178D-01  0.187252D-01  0.111605D-01  0.112300D-01 -0.290406D-02
     13 -0.303146D-01 -0.304722D-01 -0.384574D-02 -0.395667D-02 -0.101733D-02
     14  0.140181D-01 -0.329289D-01  0.164682D-01 -0.371600D-02  0.983841D-03
     15 -0.329563D-01  0.138464D-01 -0.370976D-02  0.165259D-01  0.103898D-02
     16  0.270386D-01  0.394721D-02 -0.295166D-02 -0.202647D-02 -0.558683D-03
     17  0.395045D-02  0.272239D-01 -0.206643D-02 -0.291866D-02 -0.580621D-03
     18  0.182793D-01  0.184012D-01 -0.468981D-02 -0.470569D-02 -0.748890D-04
     19  0.140154D-01  0.140437D-01 -0.245011D-01 -0.243955D-01  0.265075D-02
     20 -0.101354D-01 -0.648354D-02  0.130704D-01 -0.196737D-02 -0.129431D-02
     21 -0.651953D-02 -0.101934D-01 -0.192302D-02  0.130184D-01 -0.131986D-02
     22  0.738635D-02 -0.465428D-02  0.149840D-01 -0.140897D-01 -0.191513D-03
     23 -0.460421D-02  0.742198D-02 -0.140538D-01  0.149491D-01 -0.186294D-03
     24 -0.645352D-03 -0.637925D-03  0.144193D-01  0.144798D-01  0.256582D-03
     25 -0.695636D-03 -0.716185D-03 -0.154653D-02 -0.156932D-02  0.199540D-01
     26  0.519376D-02 -0.535474D-02  0.118071D-02 -0.119917D-02 -0.525115D-04
     27  0.157866D-02 -0.162910D-02 -0.135390D-02  0.134330D-02 -0.843626D-04
     28 -0.312663D-02  0.315025D-02 -0.141995D-01  0.141966D-01 -0.263878D-04
     29  0.854414D-02  0.201307D-02 -0.211957D-02 -0.219141D-01  0.590710D-03
     30 -0.200831D-02 -0.854335D-02  0.219045D-01  0.212705D-02 -0.631649D-03
     31 -0.165621D-01  0.166665D-01  0.999791D-02 -0.998551D-02  0.185914D-04
     32 -0.182104D-01  0.190020D-01 -0.125683D-02  0.187794D-01  0.552883D-04
     33 -0.189258D-01  0.182859D-01 -0.187561D-01  0.124718D-02 -0.468332D-04
     34  0.485011D-02 -0.141598D-01  0.126883D-01 -0.167464D-01 -0.756573D-03
     35  0.320177D-02 -0.118243D-01  0.143359D-02  0.120185D-01 -0.719876D-03
     36  0.248640D-02 -0.125405D-01 -0.160657D-01 -0.551369D-02 -0.821997D-03
     37  0.141823D-01 -0.478237D-02  0.167369D-01 -0.126784D-01  0.791522D-03
     38  0.125340D-01 -0.244686D-02  0.548212D-02  0.160865D-01  0.828219D-03
     39  0.118186D-01 -0.316298D-02 -0.120171D-01 -0.144566D-02  0.726097D-03
               11            12            13            14            15 
     11  0.461809D+00
     12  0.315298D-01  0.628740D+00
     13  0.682882D-02 -0.393410D-01  0.219927D+00
     14 -0.800149D-02  0.558083D-01  0.305505D-02  0.182446D+00
     15 -0.812581D-02  0.571966D-01  0.315801D-02 -0.943323D-02  0.182738D+00
     16  0.489131D-02 -0.355588D-01 -0.103944D+00 -0.868785D-01 -0.814183D-02
     17  0.502231D-02 -0.365106D-01 -0.103924D+00 -0.808601D-02 -0.872045D-01
     18  0.100657D-02 -0.123461D-01 -0.183786D-01 -0.890593D-01 -0.890945D-01
     19 -0.251430D-01  0.317638D+00 -0.120819D-01  0.381136D-01  0.391420D-01
     20  0.125498D-01 -0.935964D-01  0.192572D-02 -0.285092D-01 -0.128030D-02
     21  0.127336D-01 -0.943796D-01  0.203685D-02 -0.110793D-02 -0.289857D-01
     22  0.124235D-02 -0.847580D-01  0.463441D-02  0.157219D-01 -0.263971D-01
     23  0.973770D-03 -0.842848D-01  0.440389D-02 -0.259818D-01  0.155790D-01
     24 -0.151147D-02  0.264383D-01 -0.323131D-03  0.185664D-03  0.327187D-03
     25 -0.252149D-01  0.610187D-02 -0.225359D-02  0.472017D-03  0.534857D-03
     26 -0.182428D-03 -0.386247D-03  0.706345D-04 -0.920945D-02  0.896057D-02
     27 -0.210336D-03  0.684177D-05  0.875009D-05 -0.247743D-02  0.240476D-02
     28 -0.221819D-03  0.398873D-03 -0.101664D-03 -0.297924D-01  0.299493D-01
     29 -0.661529D-02  0.394846D-01 -0.960183D-03 -0.435007D-02  0.216956D-01
     30  0.638329D-02 -0.387243D-01  0.972462D-03 -0.214983D-01  0.433782D-02
     31 -0.451905D-04  0.412430D-03  0.335373D-05 -0.107184D-01  0.108448D-01
     32 -0.328309D-03 -0.291708D-01  0.219855D-02 -0.108541D-01  0.559611D-02
     33  0.278287D-03  0.293484D-01 -0.221635D-02 -0.562951D-02  0.109513D-01
     34  0.580190D-02 -0.370859D-01  0.987876D-02 -0.183394D-01 -0.192670D-02
     35  0.551879D-02 -0.666691D-01  0.120740D-01 -0.184751D-01 -0.717541D-02
     36  0.612538D-02 -0.814989D-02  0.765905D-02 -0.132505D-01 -0.182026D-02
     37 -0.598557D-02  0.383356D-01 -0.996417D-02  0.204874D-02  0.186426D-01
     38 -0.626869D-02  0.875237D-02 -0.776897D-02  0.191297D-02  0.133939D-01
     39 -0.566210D-02  0.672716D-01 -0.121839D-01  0.713759D-02  0.187490D-01
               16            17            18            19            20 
     16  0.129703D+00
     17  0.375492D-01  0.129922D+00
     18  0.382754D-01  0.383246D-01  0.124083D+00
     19 -0.359679D-01 -0.367713D-01 -0.876567D-03  0.463994D+00
     20  0.194553D-01  0.763550D-02  0.362792D-02 -0.156386D+00  0.130826D+00
     21  0.748033D-02  0.197933D-01  0.366539D-02 -0.157111D+00  0.373007D-01
     22 -0.159465D-02  0.139966D-01 -0.461107D-02 -0.107559D+00 -0.394194D-01
     23  0.137771D-01 -0.138905D-02 -0.465984D-02 -0.107025D+00  0.420225D-01
     24 -0.172838D-02 -0.181220D-02  0.292060D-02  0.464156D-01 -0.930359D-02
     25  0.233365D-03  0.237634D-03  0.603545D-03  0.299271D-02 -0.196399D-02
     26  0.340862D-02 -0.324468D-02  0.371421D-04 -0.522529D-03  0.732224D-02
     27  0.797710D-03 -0.742806D-03  0.152178D-04 -0.108705D-03  0.152057D-03
     28  0.120547D-01 -0.121097D-01 -0.141221D-04  0.369076D-03  0.217033D-01
     29 -0.335774D-03 -0.135755D-01 -0.390633D-02  0.640994D-01 -0.404093D-01
     30  0.133689D-01  0.317095D-03  0.391355D-02 -0.635166D-01  0.469328D-01
     31 -0.184037D-01  0.182632D-01 -0.344433D-05  0.328610D-03  0.231276D-01
     32 -0.182997D-01  0.227588D-01 -0.734634D-03 -0.294963D-01 -0.120230D-01
     33 -0.227255D-01  0.182058D-01  0.740396D-03  0.296286D-01 -0.243105D-02
     34  0.292724D-01 -0.375061D-02 -0.114694D-01 -0.303622D-01  0.328341D-01
     35  0.293764D-01  0.745045D-03 -0.122006D-01 -0.601871D-01 -0.231655D-02
     36  0.249506D-01 -0.380792D-02 -0.107255D-01 -0.106225D-02  0.727543D-02
     37  0.365874D-02 -0.295141D-01  0.114236D-01  0.314513D-01  0.134574D-01
     38  0.376274D-02 -0.250184D-01  0.106924D-01  0.162639D-02 -0.216933D-01
     39 -0.663052D-03 -0.295714D-01  0.121674D-01  0.607512D-01 -0.121013D-01
               21            22            23            24            25 
     21  0.131321D+00
     22  0.423589D-01  0.138084D+00
     23 -0.394871D-01  0.151288D-01  0.137979D+00
     24 -0.931307D-02 -0.450083D-01 -0.450552D-01  0.635620D-01
     25 -0.192300D-02  0.338774D-03  0.232323D-03  0.244141D-03  0.176223D+00
     26 -0.701613D-02 -0.335677D-02  0.363509D-02 -0.401958D-04 -0.149724D-03
     27 -0.921437D-04  0.210188D-03 -0.151758D-03 -0.488091D-05 -0.279604D-03
     28 -0.219390D-01 -0.367438D-01  0.365845D-01  0.106199D-04 -0.140271D-03
     29 -0.472305D-01  0.390551D-01  0.137558D-01 -0.330334D-01  0.905343D-03
     30  0.403924D-01 -0.137974D-01 -0.393922D-01  0.331219D-01 -0.107875D-02
     31 -0.233314D-01 -0.904515D-02  0.887658D-02  0.312410D-04  0.106895D-04
     32  0.245892D-02  0.129950D-01  0.151299D-01  0.135942D-01  0.294084D-03
     33  0.119172D-01 -0.152259D-01 -0.129762D-01 -0.135766D-01 -0.296883D-03
     34 -0.136910D-01  0.199246D-04  0.145780D-01 -0.214351D-02 -0.827687D-03
     35  0.120993D-01  0.220601D-01  0.208313D-01  0.114195D-01 -0.544292D-03
     36  0.215575D-01 -0.616085D-02 -0.727481D-02 -0.157513D-01 -0.113526D-02
     37 -0.332637D-01 -0.149342D-01 -0.222201D-03  0.223318D-02  0.811432D-03
     38 -0.747338D-02  0.710590D-02  0.603109D-02  0.157962D-01  0.109483D-02
     39  0.198487D-02 -0.211150D-01 -0.220750D-01 -0.113746D-01  0.503859D-03
               26            27            28            29            30 
     26  0.415700D-01
     27 -0.110922D-02  0.505411D-01
     28  0.555467D-02  0.796991D-03  0.260193D-01
     29  0.619246D-02  0.110345D-02 -0.522143D-02  0.592409D-01
     30  0.632315D-02  0.113267D-02 -0.534721D-02 -0.322260D-01  0.591636D-01
     31  0.762953D-02  0.104500D-02  0.837765D-02  0.137384D-01  0.136563D-01
     32  0.105062D-02  0.771736D-03  0.688156D-02 -0.517539D-02  0.569890D-02
     33  0.950444D-03  0.746483D-03  0.695460D-02  0.575881D-02 -0.513952D-02
     34  0.697721D-02  0.720108D-03  0.730202D-02  0.104920D-01  0.191218D-01
     35  0.398304D-03  0.446844D-03  0.580593D-02 -0.842176D-02  0.111644D-01
     36  0.298126D-03  0.421591D-03  0.587898D-02  0.251244D-02  0.325975D-03
     37  0.682416D-02  0.681347D-03  0.740937D-02  0.193421D-01  0.104311D-01
     38  0.245250D-03  0.408083D-03  0.591328D-02  0.428356D-03  0.247372D-02
     39  0.145072D-03  0.382830D-03  0.598633D-02  0.113626D-01 -0.836471D-02
               31            32            33            34            35 
     31  0.378429D-01
     32  0.146351D-01  0.401153D-01
     33  0.146880D-01  0.915921D-02  0.401355D-01
     34  0.101696D-01 -0.116551D-01 -0.168731D-01  0.417680D-01
     35 -0.130382D-01  0.138250D-01 -0.224019D-01  0.199432D-01  0.468064D-01
     36 -0.129853D-01 -0.171310D-01  0.857445D-02  0.147253D-01  0.105796D-01
     37  0.102675D-01 -0.169391D-01 -0.115301D-01  0.969558D-02 -0.175110D-01
     38 -0.129402D-01  0.854104D-02 -0.170589D-01 -0.121291D-01  0.935214D-02
     39 -0.128874D-01 -0.224150D-01  0.139174D-01 -0.173471D-01 -0.268747D-01
               36            37            38            39 
     36  0.362850D-01
     37 -0.121021D-01  0.420519D-01
     38 -0.162478D-01  0.148453D-01  0.363265D-01
     39  0.945770D-02  0.202543D-01  0.107266D-01  0.470590D-01
 Leave Link  716 at Sat May 24 03:27:14 2025, MaxMem=  3758096384 cpu:               0.0 elap:               0.0
 (Enter /apps/easybuild-2022/easybuild/software/Compiler/NVHPC/22.11-CUDA-11.7.0/Gaussian/g16c01-CUDA-11.7.0/g16/l103.exe)

 GradGradGradGradGradGradGradGradGradGradGradGradGradGradGradGradGradGrad
 Berny optimization.
 Red2BG is reusing G-inverse.
 Internal  Forces:  Max     0.087891373 RMS     0.020070002
 Search for a local minimum.
 Step number   1 out of a maximum of   49
 All quantities printed in internal units (Hartrees-Bohrs-Radians)
 RMS Force = .20070D-01 SwitMx=.10000D-02 MixMth= 1
 Mixed Optimization -- RFO/linear search
 Second derivative matrix not updated -- analytic derivatives used.
 ITU=  0
     Eigenvalues ---   -0.01201   0.02729   0.03899   0.05060   0.09041
     Eigenvalues ---    0.09325   0.10990   0.11821   0.16849   0.18154
     Eigenvalues ---    0.20066   0.21402   0.23798   0.25902   0.28436
     Eigenvalues ---    0.30035   0.33887   0.37680   0.39288   0.41783
     Eigenvalues ---    0.41922   0.43023   0.50400   0.54099   0.58930
     Eigenvalues ---    0.64525   1.16149
 Eigenvalue     1 is  -1.20D-02 should be greater than     0.000000 Eigenvector:
                          D3        D4        D5        D6        D9
   1                    0.52663   0.44536   0.44530  -0.25024  -0.23282
                          D12       D7        D8        D10       D11
   1                   -0.23277  -0.16257  -0.16255  -0.14515  -0.14513
 RFO step:  Lambda=-1.86083283D-02 EMin=-1.20125380D-02
 Linear search not attempted -- first point.
 Iteration  1 RMS(Cart)=  0.15921367 RMS(Int)=  0.04390919
 Iteration  2 RMS(Cart)=  0.06223024 RMS(Int)=  0.00541435
 Iteration  3 RMS(Cart)=  0.00489202 RMS(Int)=  0.00048028
 Iteration  4 RMS(Cart)=  0.00003700 RMS(Int)=  0.00047994
 Iteration  5 RMS(Cart)=  0.00000000 RMS(Int)=  0.00047994
 ITry= 1 IFail=0 DXMaxC= 4.95D-01 DCOld= 1.00D+10 DXMaxT= 3.00D-01 DXLimC= 3.00D+00 Rises=F
 Variable       Old X    -DE/DX   Delta X   Delta X   Delta X     New X
                                 (Linear)    (Quad)   (Total)
    R1        2.57518  -0.00451   0.00000  -0.00868  -0.00868   2.56650
    R2        2.41319   0.00980   0.00000   0.02369   0.02369   2.43687
    R3        2.62678   0.01630   0.00000  -0.02520  -0.02520   2.60158
    R4        2.95852   0.00687   0.00000  -0.02148  -0.02148   2.93705
    R5        2.50665   0.00788   0.00000   0.00717   0.00717   2.51382
    R6        2.50224  -0.00242   0.00000  -0.01974  -0.01974   2.48251
    R7        2.50222  -0.00242   0.00000  -0.00053  -0.00053   2.50169
    R8        2.51646  -0.00212   0.00000   0.00400   0.00400   2.52046
    R9        2.51646  -0.00212   0.00000  -0.00403  -0.00403   2.51243
   R10        1.84821   0.00101   0.00000  -0.00195  -0.00195   1.84626
    A1        1.93906  -0.03719   0.00000  -0.08802  -0.08802   1.85104
    A2        1.90943   0.08789   0.00000   0.13393   0.13393   2.04336
    A3        1.83966  -0.00161   0.00000   0.02605   0.02579   1.86545
    A4        1.96386   0.00401   0.00000   0.03029   0.02977   1.99362
    A5        1.96394   0.00401   0.00000  -0.07274  -0.07260   1.89133
    A6        1.87751  -0.00365   0.00000   0.00285   0.00193   1.87945
    A7        1.87745  -0.00363   0.00000   0.02615   0.02669   1.90413
    A8        1.93470  -0.00002   0.00000  -0.00713  -0.00730   1.92740
    A9        1.98169   0.06489   0.00000   0.04647   0.04570   2.02739
   A10        1.91230  -0.02299   0.00000  -0.06258  -0.06212   1.85018
   A11        1.91227  -0.02298   0.00000   0.01043   0.00874   1.92101
   A12        1.89003  -0.01445   0.00000  -0.03194  -0.03138   1.85865
   A13        1.89007  -0.01447   0.00000   0.02163   0.02052   1.91059
   A14        1.87433   0.00763   0.00000   0.01525   0.01552   1.88985
   A15        2.00164  -0.00148   0.00000  -0.02679  -0.02679   1.97486
    D1       -3.14153  -0.00001   0.00000  -0.01250  -0.01250   3.12915
    D2        0.00020  -0.00000   0.00000   0.00059   0.00059   0.00080
    D3       -0.00013  -0.00002   0.00000   0.39398   0.39440   0.39427
    D4        2.11538   0.00885   0.00000   0.33915   0.33895   2.45432
    D5       -2.11567  -0.00886   0.00000   0.32704   0.32683  -1.78884
    D6       -3.14146   0.00001   0.00000  -0.18838  -0.18923   2.95249
    D7        1.01379  -0.00317   0.00000  -0.11630  -0.11669   0.89709
    D8       -1.01353   0.00318   0.00000  -0.12881  -0.12876  -1.14229
    D9       -1.10021  -0.00326   0.00000  -0.15345  -0.15370  -1.25391
   D10        3.05503  -0.00644   0.00000  -0.08137  -0.08116   2.97388
   D11        1.02772  -0.00009   0.00000  -0.09387  -0.09323   0.93449
   D12        1.10052   0.00326   0.00000  -0.19773  -0.19799   0.90253
   D13       -1.02742   0.00008   0.00000  -0.12565  -0.12545  -1.15287
   D14       -3.05474   0.00643   0.00000  -0.13816  -0.13752   3.09093
         Item               Value     Threshold  Converged?
 Maximum Force            0.087891     0.000450     NO 
 RMS     Force            0.020070     0.000300     NO 
 Maximum Displacement     0.494977     0.001800     NO 
 RMS     Displacement     0.196813     0.001200     NO 
 Predicted change in Energy=-1.303278D-02
 Lowest energy point so far.  Saving SCF results.
 GradGradGradGradGradGradGradGradGradGradGradGradGradGradGradGradGradGrad

 Leave Link  103 at Sat May 24 03:27:14 2025, MaxMem=  3758096384 cpu:               0.0 elap:               0.0
 (Enter /apps/easybuild-2022/easybuild/software/Compiler/NVHPC/22.11-CUDA-11.7.0/Gaussian/g16c01-CUDA-11.7.0/g16/l202.exe)
                          Input orientation:                          
 ---------------------------------------------------------------------
 Center     Atomic      Atomic             Coordinates (Angstroms)
 Number     Number       Type             X           Y           Z
 ---------------------------------------------------------------------
      1          6           0        1.599403    0.402699   -1.000958
      2          8           0        1.393772   -0.035281    0.268065
      3          6           0       -1.019123   -0.032112   -0.344746
      4          6           0        0.098773   -0.017694    0.734926
      5          9           0       -2.167058   -0.251432    0.290644
      6          9           0       -0.049991   -1.134383    1.448946
      7          9           0       -0.080258    1.021773    1.544302
      8          9           0       -1.140249    1.093969   -1.010361
      9          9           0       -0.784597   -1.036544   -1.174602
     10          8           0        2.868668    0.309994   -1.209000
     11          1           0        3.359605   -0.038330   -0.439469
 ---------------------------------------------------------------------
                    Distance matrix (angstroms):
                    1          2          3          4          5
     1  C    0.000000
     2  O    1.358135   0.000000
     3  C    2.734292   2.489501   0.000000
     4  C    2.332791   1.376696   1.554217   0.000000
     5  F    4.035139   3.567456   1.330254   2.320777   0.000000
     6  F    3.329437   2.164938   2.317660   1.333773   2.569676
     7  F    3.111730   2.217861   2.358102   1.329523   2.747261
     8  F    2.825532   3.054643   1.313687   2.411845   2.134726
     9  F    2.790166   2.798054   1.323837   2.337669   2.162069
    10  O    1.289538   2.115716   3.997360   3.399787   5.284190
    11  H    1.899497   2.089285   4.379757   3.465929   5.578753
                    6          7          8          9         10
     6  F    0.000000
     7  F    2.158475   0.000000
     8  F    3.493194   2.766785   0.000000
     9  F    2.726210   3.482126   2.166228   0.000000
    10  O    4.203507   4.096763   4.089680   3.893673   0.000000
    11  H    4.048801   4.109967   4.675115   4.325651   0.976999
                   11
    11  H    0.000000
 Symmetry turned off by external request.
 Stoichiometry    C3HF5O2
 Rotational constants (GHZ):           1.9664414           1.1368111           0.9663173
 Leave Link  202 at Sat May 24 03:27:14 2025, MaxMem=  3758096384 cpu:               0.0 elap:               0.0
 (Enter /apps/easybuild-2022/easybuild/software/Compiler/NVHPC/22.11-CUDA-11.7.0/Gaussian/g16c01-CUDA-11.7.0/g16/l301.exe)
 Standard basis: def2TZVPP (5D, 7F)
 Ernie: Thresh=  0.10000D-02 Tol=  0.10000D-05 Strict=F.
   324 basis functions,   527 primitive gaussians,   375 cartesian basis functions
    40 alpha electrons       40 beta electrons
       nuclear repulsion energy       636.8802441066 Hartrees.
 IExCor= 4336 DFT=T Ex+Corr=M062X ExCW=0 ScaHFX=  0.540000
 ScaDFX=  1.000000  1.000000  1.000000  1.000000 ScalE2=  1.000000  1.000000
 IRadAn=      5 IRanWt=     -1 IRanGd=            0 ICorTp=0 IEmpDi=  4
 NAtoms=   11 NActive=   11 NUniq=   11 SFac= 1.00D+00 NAtFMM=   60 NAOKFM=F Big=F
 Integral buffers will be    131072 words long.
 Raffenetti 2 integral format.
 Two-electron integral symmetry is turned off.
 Leave Link  301 at Sat May 24 03:27:14 2025, MaxMem=  3758096384 cpu:               0.1 elap:               0.0
 (Enter /apps/easybuild-2022/easybuild/software/Compiler/NVHPC/22.11-CUDA-11.7.0/Gaussian/g16c01-CUDA-11.7.0/g16/l302.exe)
 NPDir=0 NMtPBC=     1 NCelOv=     1 NCel=       1 NClECP=     1 NCelD=      1
         NCelK=      1 NCelE2=     1 NClLst=     1 CellRange=     0.0.
 One-electron integrals computed using PRISM.
   1 Symmetry operations used in ECPInt.
 ECPInt:  NShTT=    6786 NPrTT=   21959 LenC2=    6425 LenP2D=   15762.
 LDataN:  DoStor=T MaxTD1= 6 Len=  172
 NBasis=   324 RedAO= T EigKep=  4.91D-04  NBF=   324
 NBsUse=   324 1.00D-06 EigRej= -1.00D+00 NBFU=   324
 Precomputing XC quadrature grid using
 IXCGrd= 4 IRadAn=           5 IRanWt=          -1 IRanGd=           0 AccXCQ= 0.00D+00.
 Generated NRdTot=       0 NPtTot=           0 NUsed=           0 NTot=          32
 NSgBfM=   373   373   373   373   373 MxSgAt=    11 MxSgA2=    11.
 Leave Link  302 at Sat May 24 03:27:14 2025, MaxMem=  3758096384 cpu:               0.6 elap:               0.1
 (Enter /apps/easybuild-2022/easybuild/software/Compiler/NVHPC/22.11-CUDA-11.7.0/Gaussian/g16c01-CUDA-11.7.0/g16/l303.exe)
 DipDrv:  MaxL=1.
 Leave Link  303 at Sat May 24 03:27:14 2025, MaxMem=  3758096384 cpu:               0.1 elap:               0.0
 (Enter /apps/easybuild-2022/easybuild/software/Compiler/NVHPC/22.11-CUDA-11.7.0/Gaussian/g16c01-CUDA-11.7.0/g16/l401.exe)
 Initial guess from the checkpoint file:  "1642764945472630600001_r12_insertion_R_3_4_5_IRC_F_prod.chk"
 B after Tr=    -0.003513    0.027398   -0.019588
         Rot=    0.999863    0.002398   -0.008856   -0.013810 Ang=   1.90 deg.
 Guess basis will be translated and rotated to current coordinates.
 JPrj=2 DoOrth=T DoCkMO=T.
 Generating alternative initial guess.
 ExpMin= 9.52D-02 ExpMax= 3.55D+04 ExpMxC= 1.21D+03 IAcc=3 IRadAn=         5 AccDes= 0.00D+00
 Harris functional with IExCor= 1009 and IRadAn=       5 diagonalized for initial guess.
 HarFok:  IExCor= 1009 AccDes= 0.00D+00 IRadAn=         5 IDoV= 1 UseB2=F ITyADJ=14
 ICtDFT=  3500011 ScaDFX=  1.000000  1.000000  1.000000  1.000000
 FoFCou: FMM=F IPFlag=           0 FMFlag=      100000 FMFlg1=           0
         NFxFlg=           0 DoJE=T BraDBF=F KetDBF=T FulRan=T
         wScrn=  0.000000 ICntrl=       500 IOpCl=  0 I1Cent=   200000004 NGrid=           0
         NMat0=    1 NMatS0=      1 NMatT0=    0 NMatD0=    1 NMtDS0=    0 NMtDT0=    0
 Symmetry not used in FoFCou.
 Harris En= -764.104945906106    
 Leave Link  401 at Sat May 24 03:27:15 2025, MaxMem=  3758096384 cpu:               3.6 elap:               0.5
 (Enter /apps/easybuild-2022/easybuild/software/Compiler/NVHPC/22.11-CUDA-11.7.0/Gaussian/g16c01-CUDA-11.7.0/g16/l502.exe)
 Keep R1 ints in memory in canonical form, NReq=1412617130.
 FoFCou: FMM=F IPFlag=           0 FMFlag=           0 FMFlg1=           0
         NFxFlg=           0 DoJE=F BraDBF=F KetDBF=F FulRan=T
         wScrn=  0.000000 ICntrl=       600 IOpCl=  0 I1Cent=           0 NGrid=           0
         NMat0=    1 NMatS0=  52650 NMatT0=    0 NMatD0=    1 NMtDS0=    0 NMtDT0=    0
 Symmetry not used in FoFCou.
 Two-electron integral symmetry not used.
 Closed shell SCF:
 Using DIIS extrapolation, IDIIS=  1040.
 NGot=  3758096384 LenX=  2371771924 LenY=  2371630858
 Requested convergence on RMS density matrix=1.00D-08 within  32 cycles.
 Requested convergence on MAX density matrix=1.00D-06.
 Requested convergence on             energy=1.00D-06.
 No special actions if energy rises.
 Integral accuracy reduced to 1.0D-05 until final iterations.

 Cycle   1  Pass 0  IDiag  1:
 E= -764.480160164570    
 DIIS: error= 9.20D-03 at cycle   1 NSaved=   1.
 NSaved= 1 IEnMin= 1 EnMin= -764.480160164570     IErMin= 1 ErrMin= 9.20D-03
 ErrMax= 9.20D-03  0.00D+00 EMaxC= 1.00D-01 BMatC= 8.05D-02 BMatP= 8.05D-02
 IDIUse=3 WtCom= 9.08D-01 WtEn= 9.20D-02
 Coeff-Com:  0.100D+01
 Coeff-En:   0.100D+01
 Coeff:      0.100D+01
 Gap=     0.997 Goal=   None    Shift=    0.000
 GapD=    0.997 DampG=2.000 DampE=1.000 DampFc=2.0000 IDamp=-1.
 RMSDP=9.42D-04 MaxDP=3.71D-02              OVMax= 1.37D-01

 Cycle   2  Pass 0  IDiag  1:
 E= -764.587774934530     Delta-E=       -0.107614769960 Rises=F Damp=F
 DIIS: error= 2.35D-03 at cycle   2 NSaved=   2.
 NSaved= 2 IEnMin= 2 EnMin= -764.587774934530     IErMin= 2 ErrMin= 2.35D-03
 ErrMax= 2.35D-03  0.00D+00 EMaxC= 1.00D-01 BMatC= 4.95D-03 BMatP= 8.05D-02
 IDIUse=3 WtCom= 9.76D-01 WtEn= 2.35D-02
 Coeff-Com: -0.752D-01 0.108D+01
 Coeff-En:   0.000D+00 0.100D+01
 Coeff:     -0.734D-01 0.107D+01
 Gap=     0.339 Goal=   None    Shift=    0.000
 RMSDP=2.88D-04 MaxDP=1.23D-02 DE=-1.08D-01 OVMax= 4.86D-02

 Cycle   3  Pass 0  IDiag  1:
 E= -764.593030208591     Delta-E=       -0.005255274061 Rises=F Damp=F
 DIIS: error= 2.64D-03 at cycle   3 NSaved=   3.
 NSaved= 3 IEnMin= 3 EnMin= -764.593030208591     IErMin= 2 ErrMin= 2.35D-03
 ErrMax= 2.64D-03  0.00D+00 EMaxC= 1.00D-01 BMatC= 4.49D-03 BMatP= 4.95D-03
 IDIUse=3 WtCom= 9.74D-01 WtEn= 2.64D-02
 Coeff-Com: -0.891D-01 0.562D+00 0.527D+00
 Coeff-En:   0.000D+00 0.000D+00 0.100D+01
 Coeff:     -0.867D-01 0.547D+00 0.539D+00
 Gap=     0.341 Goal=   None    Shift=    0.000
 RMSDP=1.17D-04 MaxDP=8.41D-03 DE=-5.26D-03 OVMax= 1.69D-02

 Cycle   4  Pass 0  IDiag  1:
 E= -764.596100962307     Delta-E=       -0.003070753716 Rises=F Damp=F
 DIIS: error= 4.61D-04 at cycle   4 NSaved=   4.
 NSaved= 4 IEnMin= 4 EnMin= -764.596100962307     IErMin= 4 ErrMin= 4.61D-04
 ErrMax= 4.61D-04  0.00D+00 EMaxC= 1.00D-01 BMatC= 1.95D-04 BMatP= 4.49D-03
 IDIUse=3 WtCom= 9.95D-01 WtEn= 4.61D-03
 Coeff-Com: -0.523D-02-0.395D-01 0.132D+00 0.912D+00
 Coeff-En:   0.000D+00 0.000D+00 0.000D+00 0.100D+01
 Coeff:     -0.520D-02-0.394D-01 0.132D+00 0.913D+00
 Gap=     0.341 Goal=   None    Shift=    0.000
 RMSDP=5.06D-05 MaxDP=1.89D-03 DE=-3.07D-03 OVMax= 1.20D-02

 Cycle   5  Pass 0  IDiag  1:
 E= -764.596358577096     Delta-E=       -0.000257614789 Rises=F Damp=F
 DIIS: error= 2.67D-04 at cycle   5 NSaved=   5.
 NSaved= 5 IEnMin= 5 EnMin= -764.596358577096     IErMin= 5 ErrMin= 2.67D-04
 ErrMax= 2.67D-04  0.00D+00 EMaxC= 1.00D-01 BMatC= 3.87D-05 BMatP= 1.95D-04
 IDIUse=3 WtCom= 9.97D-01 WtEn= 2.67D-03
 Coeff-Com:  0.805D-02-0.833D-01 0.105D-02 0.413D+00 0.661D+00
 Coeff-En:   0.000D+00 0.000D+00 0.000D+00 0.000D+00 0.100D+01
 Coeff:      0.803D-02-0.831D-01 0.105D-02 0.412D+00 0.662D+00
 Gap=     0.341 Goal=   None    Shift=    0.000
 RMSDP=1.77D-05 MaxDP=7.20D-04 DE=-2.58D-04 OVMax= 3.95D-03

 Cycle   6  Pass 0  IDiag  1:
 E= -764.596398691250     Delta-E=       -0.000040114154 Rises=F Damp=F
 DIIS: error= 7.23D-05 at cycle   6 NSaved=   6.
 NSaved= 6 IEnMin= 6 EnMin= -764.596398691250     IErMin= 6 ErrMin= 7.23D-05
 ErrMax= 7.23D-05  0.00D+00 EMaxC= 1.00D-01 BMatC= 3.97D-06 BMatP= 3.87D-05
 IDIUse=1 WtCom= 1.00D+00 WtEn= 0.00D+00
 Coeff-Com:  0.323D-02-0.211D-01-0.208D-01-0.130D-01 0.203D+00 0.849D+00
 Coeff:      0.323D-02-0.211D-01-0.208D-01-0.130D-01 0.203D+00 0.849D+00
 Gap=     0.341 Goal=   None    Shift=    0.000
 RMSDP=9.24D-06 MaxDP=3.37D-04 DE=-4.01D-05 OVMax= 2.13D-03

 Initial convergence to 1.0D-05 achieved.  Increase integral accuracy.
 Cycle   7  Pass 1  IDiag  1:
 E= -764.596447744496     Delta-E=       -0.000049053246 Rises=F Damp=F
 DIIS: error= 4.69D-05 at cycle   1 NSaved=   1.
 NSaved= 1 IEnMin= 1 EnMin= -764.596447744496     IErMin= 1 ErrMin= 4.69D-05
 ErrMax= 4.69D-05  0.00D+00 EMaxC= 1.00D-01 BMatC= 1.76D-06 BMatP= 1.76D-06
 IDIUse=1 WtCom= 1.00D+00 WtEn= 0.00D+00
 Coeff-Com:  0.100D+01
 Coeff:      0.100D+01
 Gap=     0.341 Goal=   None    Shift=    0.000
 RMSDP=9.24D-06 MaxDP=3.37D-04 DE=-4.91D-05 OVMax= 8.00D-04

 Cycle   8  Pass 1  IDiag  1:
 E= -764.596448950735     Delta-E=       -0.000001206239 Rises=F Damp=F
 DIIS: error= 4.43D-05 at cycle   2 NSaved=   2.
 NSaved= 2 IEnMin= 2 EnMin= -764.596448950735     IErMin= 2 ErrMin= 4.43D-05
 ErrMax= 4.43D-05  0.00D+00 EMaxC= 1.00D-01 BMatC= 1.01D-06 BMatP= 1.76D-06
 IDIUse=1 WtCom= 1.00D+00 WtEn= 0.00D+00
 Coeff-Com:  0.406D+00 0.594D+00
 Coeff:      0.406D+00 0.594D+00
 Gap=     0.341 Goal=   None    Shift=    0.000
 RMSDP=2.56D-06 MaxDP=1.22D-04 DE=-1.21D-06 OVMax= 2.18D-04

 Cycle   9  Pass 1  IDiag  1:
 E= -764.596449612149     Delta-E=       -0.000000661414 Rises=F Damp=F
 DIIS: error= 1.92D-05 at cycle   3 NSaved=   3.
 NSaved= 3 IEnMin= 3 EnMin= -764.596449612149     IErMin= 3 ErrMin= 1.92D-05
 ErrMax= 1.92D-05  0.00D+00 EMaxC= 1.00D-01 BMatC= 1.56D-07 BMatP= 1.01D-06
 IDIUse=1 WtCom= 1.00D+00 WtEn= 0.00D+00
 Coeff-Com: -0.245D-01 0.259D+00 0.766D+00
 Coeff:     -0.245D-01 0.259D+00 0.766D+00
 Gap=     0.341 Goal=   None    Shift=    0.000
 RMSDP=1.05D-06 MaxDP=4.95D-05 DE=-6.61D-07 OVMax= 1.55D-04

 Cycle  10  Pass 1  IDiag  1:
 E= -764.596449741706     Delta-E=       -0.000000129557 Rises=F Damp=F
 DIIS: error= 3.72D-06 at cycle   4 NSaved=   4.
 NSaved= 4 IEnMin= 4 EnMin= -764.596449741706     IErMin= 4 ErrMin= 3.72D-06
 ErrMax= 3.72D-06  0.00D+00 EMaxC= 1.00D-01 BMatC= 9.71D-09 BMatP= 1.56D-07
 IDIUse=1 WtCom= 1.00D+00 WtEn= 0.00D+00
 Coeff-Com: -0.306D-01 0.494D-01 0.248D+00 0.733D+00
 Coeff:     -0.306D-01 0.494D-01 0.248D+00 0.733D+00
 Gap=     0.341 Goal=   None    Shift=    0.000
 RMSDP=3.65D-07 MaxDP=1.37D-05 DE=-1.30D-07 OVMax= 7.39D-05

 Cycle  11  Pass 1  IDiag  1:
 E= -764.596449754058     Delta-E=       -0.000000012352 Rises=F Damp=F
 DIIS: error= 1.68D-06 at cycle   5 NSaved=   5.
 NSaved= 5 IEnMin= 5 EnMin= -764.596449754058     IErMin= 5 ErrMin= 1.68D-06
 ErrMax= 1.68D-06  0.00D+00 EMaxC= 1.00D-01 BMatC= 2.19D-09 BMatP= 9.71D-09
 IDIUse=1 WtCom= 1.00D+00 WtEn= 0.00D+00
 Coeff-Com: -0.510D-02-0.301D-01-0.492D-01 0.262D+00 0.823D+00
 Coeff:     -0.510D-02-0.301D-01-0.492D-01 0.262D+00 0.823D+00
 Gap=     0.341 Goal=   None    Shift=    0.000
 RMSDP=1.96D-07 MaxDP=8.26D-06 DE=-1.24D-08 OVMax= 4.59D-05

 Cycle  12  Pass 1  IDiag  1:
 E= -764.596449757242     Delta-E=       -0.000000003185 Rises=F Damp=F
 DIIS: error= 7.82D-07 at cycle   6 NSaved=   6.
 NSaved= 6 IEnMin= 6 EnMin= -764.596449757242     IErMin= 6 ErrMin= 7.82D-07
 ErrMax= 7.82D-07  0.00D+00 EMaxC= 1.00D-01 BMatC= 5.68D-10 BMatP= 2.19D-09
 IDIUse=1 WtCom= 1.00D+00 WtEn= 0.00D+00
 Coeff-Com:  0.462D-02-0.307D-01-0.881D-01-0.274D-01 0.421D+00 0.721D+00
 Coeff:      0.462D-02-0.307D-01-0.881D-01-0.274D-01 0.421D+00 0.721D+00
 Gap=     0.341 Goal=   None    Shift=    0.000
 RMSDP=9.23D-08 MaxDP=4.03D-06 DE=-3.18D-09 OVMax= 2.12D-05

 Cycle  13  Pass 1  IDiag  1:
 E= -764.596449758000     Delta-E=       -0.000000000758 Rises=F Damp=F
 DIIS: error= 1.20D-07 at cycle   7 NSaved=   7.
 NSaved= 7 IEnMin= 7 EnMin= -764.596449758000     IErMin= 7 ErrMin= 1.20D-07
 ErrMax= 1.20D-07  0.00D+00 EMaxC= 1.00D-01 BMatC= 7.11D-12 BMatP= 5.68D-10
 IDIUse=1 WtCom= 1.00D+00 WtEn= 0.00D+00
 Coeff-Com:  0.709D-03-0.156D-02-0.640D-02-0.164D-01-0.123D-01 0.487D-01
 Coeff-Com:  0.987D+00
 Coeff:      0.709D-03-0.156D-02-0.640D-02-0.164D-01-0.123D-01 0.487D-01
 Coeff:      0.987D+00
 Gap=     0.341 Goal=   None    Shift=    0.000
 RMSDP=1.70D-08 MaxDP=5.79D-07 DE=-7.58D-10 OVMax= 3.83D-06

 Cycle  14  Pass 1  IDiag  1:
 E= -764.596449757967     Delta-E=        0.000000000033 Rises=F Damp=F
 DIIS: error= 3.96D-08 at cycle   8 NSaved=   8.
 NSaved= 8 IEnMin= 7 EnMin= -764.596449758000     IErMin= 8 ErrMin= 3.96D-08
 ErrMax= 3.96D-08  0.00D+00 EMaxC= 1.00D-01 BMatC= 1.44D-12 BMatP= 7.11D-12
 IDIUse=1 WtCom= 1.00D+00 WtEn= 0.00D+00
 Coeff-Com: -0.112D-03 0.197D-02 0.484D-02-0.261D-02-0.342D-01-0.379D-01
 Coeff-Com:  0.346D+00 0.722D+00
 Coeff:     -0.112D-03 0.197D-02 0.484D-02-0.261D-02-0.342D-01-0.379D-01
 Coeff:      0.346D+00 0.722D+00
 Gap=     0.341 Goal=   None    Shift=    0.000
 RMSDP=3.43D-09 MaxDP=1.15D-07 DE= 3.34D-11 OVMax= 3.62D-07

 SCF Done:  E(RM062X) =  -764.596449758     A.U. after   14 cycles
            NFock= 14  Conv=0.34D-08     -V/T= 2.0036
 KE= 7.618588793682D+02 PE=-3.085797411908D+03 EE= 9.224618386749D+02
 Leave Link  502 at Sat May 24 03:27:40 2025, MaxMem=  3758096384 cpu:             109.0 elap:              25.2
 (Enter /apps/easybuild-2022/easybuild/software/Compiler/NVHPC/22.11-CUDA-11.7.0/Gaussian/g16c01-CUDA-11.7.0/g16/l508.exe)
 QCSCF skips out because SCF is already converged.
 Leave Link  508 at Sat May 24 03:27:40 2025, MaxMem=  3758096384 cpu:               0.0 elap:               0.0
 (Enter /apps/easybuild-2022/easybuild/software/Compiler/NVHPC/22.11-CUDA-11.7.0/Gaussian/g16c01-CUDA-11.7.0/g16/l701.exe)
 ... and contract with generalized density number  0.
 Compute integral first derivatives.
   1 Symmetry operations used in ECPInt.
 ECPInt:  NShTT=    6786 NPrTT=   21959 LenC2=    6425 LenP2D=   15762.
 LDataN:  DoStor=T MaxTD1= 7 Len=  274
 Leave Link  701 at Sat May 24 03:27:40 2025, MaxMem=  3758096384 cpu:               0.5 elap:               0.1
 (Enter /apps/easybuild-2022/easybuild/software/Compiler/NVHPC/22.11-CUDA-11.7.0/Gaussian/g16c01-CUDA-11.7.0/g16/l702.exe)
 L702 exits ... SP integral derivatives will be done elsewhere.
 Leave Link  702 at Sat May 24 03:27:40 2025, MaxMem=  3758096384 cpu:               0.0 elap:               0.0
 (Enter /apps/easybuild-2022/easybuild/software/Compiler/NVHPC/22.11-CUDA-11.7.0/Gaussian/g16c01-CUDA-11.7.0/g16/l703.exe)
 Integral derivatives from FoFJK, PRISM(SPDF).
 Compute integral first derivatives, UseDBF=F ICtDFT=           0.
 Calling FoFJK, ICntrl=      2127 FMM=F ISym2X=0 I1Cent= 0 IOpClX= 0 NMat=1 NMatS=1 NMatT=0.
 FoFJK:  IHMeth= 1 ICntrl=    2127 DoSepK=F KAlg= 0 I1Cent=           0 FoldK=F
 IRaf=         0 NMat=       1 IRICut=       1 DoRegI=T DoRafI=F ISym2E= 0 IDoP0=0 IntGTp=1.
 FoFCou: FMM=F IPFlag=           0 FMFlag=      100000 FMFlg1=         800
[...]
    R1        2.56094  -0.00009   0.00000   0.00018   0.00018   2.56111
    R2        2.44011  -0.00013   0.00000  -0.00003  -0.00003   2.44008
    R3        2.61061   0.00001   0.00000   0.00033   0.00033   2.61093
    R4        2.93995   0.00000   0.00000  -0.00146  -0.00146   2.93849
    R5        2.50827  -0.00005   0.00000  -0.00050  -0.00050   2.50777
    R6        2.48925   0.00002   0.00000   0.00016   0.00016   2.48941
    R7        2.50744   0.00003   0.00000   0.00044   0.00044   2.50789
    R8        2.51069   0.00001   0.00000  -0.00004  -0.00004   2.51065
    R9        2.51251  -0.00001   0.00000  -0.00052  -0.00052   2.51199
   R10        1.84686   0.00000   0.00000   0.00005   0.00005   1.84692
    A1        1.85703  -0.00007   0.00000  -0.00061  -0.00061   1.85642
    A2        2.03667  -0.00004   0.00000   0.00076   0.00076   2.03743
    A3        1.89139   0.00003   0.00000   0.00112   0.00112   1.89251
    A4        1.95459  -0.00007   0.00000  -0.00036  -0.00036   1.95423
    A5        1.91241   0.00005   0.00000  -0.00107  -0.00107   1.91134
    A6        1.89441   0.00004   0.00000   0.00095   0.00095   1.89536
    A7        1.89859  -0.00005   0.00000   0.00036   0.00036   1.89895
    A8        1.91151   0.00002   0.00000  -0.00093  -0.00094   1.91057
    A9        2.00212  -0.00008   0.00000  -0.00238  -0.00238   1.99974
   A10        1.84415   0.00009   0.00000   0.00015   0.00015   1.84430
   A11        1.93163  -0.00002   0.00000   0.00164   0.00164   1.93326
   A12        1.88478   0.00002   0.00000  -0.00046  -0.00046   1.88432
   A13        1.89864   0.00001   0.00000   0.00054   0.00055   1.89918
   A14        1.89921  -0.00001   0.00000   0.00057   0.00057   1.89977
   A15        1.97144  -0.00003   0.00000  -0.00003  -0.00003   1.97141
    D1        3.09780   0.00004   0.00000   0.00373   0.00373   3.10154
    D2       -0.00635  -0.00000   0.00000   0.00027   0.00027  -0.00608
    D3        0.94035  -0.00001   0.00000   0.03819   0.03818   0.97854
    D4        3.01424   0.00003   0.00000   0.03635   0.03635   3.05059
    D5       -1.21584   0.00006   0.00000   0.03795   0.03795  -1.17789
    D6        2.80721   0.00007   0.00000   0.01654   0.01654   2.82376
    D7        0.75628  -0.00001   0.00000   0.01812   0.01812   0.77439
    D8       -1.30227  -0.00001   0.00000   0.01740   0.01740  -1.28487
    D9       -1.38683   0.00009   0.00000   0.01823   0.01823  -1.36860
   D10        2.84542   0.00001   0.00000   0.01980   0.01980   2.86522
   D11        0.78687   0.00001   0.00000   0.01909   0.01909   0.80596
   D12        0.73792   0.00009   0.00000   0.01607   0.01607   0.75398
   D13       -1.31302   0.00002   0.00000   0.01764   0.01764  -1.29538
   D14        2.91162   0.00001   0.00000   0.01692   0.01692   2.92854
         Item               Value     Threshold  Converged?
 Maximum Force            0.000131     0.000450     YES
 RMS     Force            0.000049     0.000300     YES
 Maximum Displacement     0.048581     0.001800     NO 
 RMS     Displacement     0.018130     0.001200     NO 
 Predicted change in Energy=-4.218306D-06
                           ----------------------------
                           ! Non-Optimized Parameters !
                           ! (Angstroms and Degrees)  !
 --------------------------                            --------------------------
 ! Name  Definition              Value          Derivative Info.                !
 --------------------------------------------------------------------------------
 ! R1    R(1,2)                  1.3553         -DE/DX =   -0.0001              !
 ! R2    R(1,10)                 1.2912         -DE/DX =   -0.0001              !
 ! R3    R(2,4)                  1.3816         -DE/DX =    0.0                 !
 ! R4    R(3,4)                  1.555          -DE/DX =    0.0                 !
 ! R5    R(3,5)                  1.3271         -DE/DX =    0.0                 !
 ! R6    R(3,8)                  1.3173         -DE/DX =    0.0                 !
 ! R7    R(3,9)                  1.3271         -DE/DX =    0.0                 !
 ! R8    R(4,6)                  1.3286         -DE/DX =    0.0                 !
 ! R9    R(4,7)                  1.3293         -DE/DX =    0.0                 !
 ! R10   R(10,11)                0.9773         -DE/DX =    0.0                 !
 ! A1    A(2,1,10)             106.3652         -DE/DX =   -0.0001              !
 ! A2    A(1,2,4)              116.7364         -DE/DX =    0.0                 !
 ! A3    A(4,3,5)              108.4329         -DE/DX =    0.0                 !
 ! A4    A(4,3,8)              111.9691         -DE/DX =   -0.0001              !
 ! A5    A(4,3,9)              109.5116         -DE/DX =    0.0                 !
 ! A6    A(5,3,8)              108.5961         -DE/DX =    0.0                 !
 ! A7    A(5,3,9)              108.802          -DE/DX =   -0.0001              !
 ! A8    A(8,3,9)              109.4676         -DE/DX =    0.0                 !
 ! A9    A(2,4,3)              114.5767         -DE/DX =   -0.0001              !
 ! A10   A(2,4,6)              105.6705         -DE/DX =    0.0001              !
 ! A11   A(2,4,7)              110.7679         -DE/DX =    0.0                 !
 ! A12   A(3,4,6)              107.9635         -DE/DX =    0.0                 !
 ! A13   A(3,4,7)              108.8151         -DE/DX =    0.0                 !
 ! A14   A(6,4,7)              108.8489         -DE/DX =    0.0                 !
 ! A15   A(1,10,11)            112.9533         -DE/DX =    0.0                 !
 ! D1    D(10,1,2,4)           177.7049         -DE/DX =    0.0                 !
 ! D2    D(2,1,10,11)           -0.3483         -DE/DX =    0.0                 !
 ! D3    D(1,2,4,3)             56.066          -DE/DX =    0.0                 !
 ! D4    D(1,2,4,6)            174.7858         -DE/DX =    0.0                 !
 ! D5    D(1,2,4,7)            -67.4881         -DE/DX =    0.0001              !
 ! D6    D(5,3,4,2)            161.7894         -DE/DX =    0.0001              !
 ! D7    D(5,3,4,6)             44.3693         -DE/DX =    0.0                 !
 ! D8    D(5,3,4,7)            -73.6176         -DE/DX =    0.0                 !
 ! D9    D(8,3,4,2)            -78.4148         -DE/DX =    0.0001              !
 ! D10   D(8,3,4,6)            164.1652         -DE/DX =    0.0                 !
 ! D11   D(8,3,4,7)             46.1783         -DE/DX =    0.0                 !
 ! D12   D(9,3,4,2)             43.2001         -DE/DX =    0.0001              !
 ! D13   D(9,3,4,6)            -74.22           -DE/DX =    0.0                 !
 ! D14   D(9,3,4,7)            167.7932         -DE/DX =    0.0                 !
 --------------------------------------------------------------------------------
 GradGradGradGradGradGradGradGradGradGradGradGradGradGradGradGradGradGrad

 Leave Link  103 at Sat May 24 03:37:01 2025, MaxMem=  3758096384 cpu:               0.0 elap:               0.0
 (Enter /apps/easybuild-2022/easybuild/software/Compiler/NVHPC/22.11-CUDA-11.7.0/Gaussian/g16c01-CUDA-11.7.0/g16/l9999.exe)

 ----------------------------------------------------------------------

 Electric dipole moment (input orientation):
 (Debye = 10**-18 statcoulomb cm , SI units = C m)
                  (au)            (Debye)         (10**-30 SI)
   Tot        0.966901D+00      0.245762D+01      0.819773D+01
   x          0.737168D+00      0.187370D+01      0.624997D+01
   y         -0.564863D+00     -0.143574D+01     -0.478911D+01
   z          0.269090D+00      0.683959D+00      0.228144D+01

 Dipole polarizability, Alpha (input orientation).
 (esu units = cm**3 , SI units = C**2 m**2 J**-1)
 Alpha(0;0):
               (au)            (10**-24 esu)      (10**-40 SI)
   iso        0.468671D+02      0.694499D+01      0.772734D+01
   aniso      0.153701D+02      0.227761D+01      0.253418D+01
   xx         0.544197D+02      0.806416D+01      0.897259D+01
   yx         0.761459D-01      0.112837D-01      0.125548D-01
   yy         0.422056D+02      0.625423D+01      0.695877D+01
   zx        -0.539595D+01     -0.799597D+00     -0.889672D+00
   zy        -0.246174D+01     -0.364792D+00     -0.405886D+00
   zz         0.439761D+02      0.651659D+01      0.725068D+01

 ----------------------------------------------------------------------

 Dipole orientation:
     6          3.38235047          1.17593695          1.26128557
     8          1.03301372          0.88255389          2.23746783
     6         -0.65293324         -1.18227819         -1.60572344
     6         -0.94424370          0.81240479          0.53429376
     9         -2.91580189         -1.61266865         -2.59849643
     9         -2.97741810          0.21420803          1.88038044
     9         -1.29797155          3.07110803         -0.50773205
     9          0.86757391         -0.39535859         -3.41269976
     9          0.22716412         -3.32402229         -0.64362102
     8          4.90846324          1.29224865          3.16169877
     1          4.04454646          1.15809156          4.78852181

 Electric dipole moment (dipole orientation):
 (Debye = 10**-18 statcoulomb cm , SI units = C m)
                  (au)            (Debye)         (10**-30 SI)
   Tot        0.966901D+00      0.245762D+01      0.819773D+01
   x          0.000000D+00      0.000000D+00      0.000000D+00
   y          0.000000D+00      0.000000D+00      0.000000D+00
   z          0.966901D+00      0.245762D+01      0.819773D+01

 Dipole polarizability, Alpha (dipole orientation).
 (esu units = cm**3 , SI units = C**2 m**2 J**-1)
 Alpha(0;0):
               (au)            (10**-24 esu)      (10**-40 SI)
   iso        0.468671D+02      0.694499D+01      0.772734D+01
   aniso      0.153701D+02      0.227761D+01      0.253418D+01
   xx         0.526898D+02      0.780782D+01      0.868737D+01
   yx         0.216083D+01      0.320202D+00      0.356273D+00
   yy         0.400265D+02      0.593131D+01      0.659948D+01
   zx         0.568048D+01      0.841760D+00      0.936584D+00
   zy         0.970883D+00      0.143870D+00      0.160077D+00
   zz         0.478851D+02      0.709584D+01      0.789519D+01

 ----------------------------------------------------------------------
 Unable to Open any file for archive entry.
 1\1\GINC-SPARTAN-BM154\Freq\RM062X\def2TZVPP\C3H1F5O2\AKHALILOV\24-May
 -2025\0\\#P Geom=AllCheck Guess=TCheck SCRF=Check GenChk RM062X/def2TZ
 VPP Freq\\Gaussian input prepared by ASE\\0,1\C,1.7016715051,0.6898565
 506,-0.8153115711\O,1.3635041844,-0.1588979095,0.1855853163\C,-1.05421
 85546,-0.0825848254,-0.3385482452\C,0.0928848513,-0.0241471163,0.71078
 87332\F,-2.1870646713,-0.3598475964,0.2951385057\F,-0.0610174769,-1.04
 71971174,1.5443754832\F,-0.0131265416,1.1089072383,1.3983062108\F,-1.1
 993960137,1.0616258289,-0.9748340424\F,-0.8070009824,-1.0485114515,-1.
 2140406824\O,2.9301981178,0.4288543419,-1.1151837449\H,3.3125115819,-0
 .2853979433,-0.568529963\\Version=ES64L-G16RevC.01\HF=-764.5980185\RMS
 D=1.333e-09\RMSF=6.039e-05\ZeroPoint=0.0512377\Thermal=0.060236\ETot=-
 764.5377825\HTot=-764.5368383\GTot=-764.5821894\Dipole=0.7371685,-0.56
 48632,0.26909\DipoleDeriv=1.1827061,0.0006128,-0.5713061,0.2239289,0.2
 575388,-0.5042782,-0.8624568,-0.4261814,0.638688,-1.111965,-0.0113556,
 0.4469448,-0.5717011,-0.5213066,0.582009,0.9034706,0.3675737,-0.962091
 3,1.5957487,0.0147534,-0.2036447,0.043914,1.5810375,-0.0151727,-0.1013
 357,0.0014815,1.3729118,1.5945813,0.0999924,-0.4264704,-0.0129986,1.45
 81433,0.0221895,-0.4198429,-0.0534334,1.4650881,-0.8940656,-0.1338226,
 0.283947,-0.136401,-0.2973914,0.0673116,0.1710133,0.0452275,-0.4114582
 ,-0.351351,-0.040823,0.0310158,-0.1065547,-0.6164211,0.2870209,0.08694
 77,0.3354692,-0.5806285,-0.3736463,-0.0074749,0.0334411,0.1200168,-0.6
 6238,-0.2963358,0.0827661,-0.3073122,-0.5262605,-0.3845554,0.1094043,-
 0.0872635,0.0413254,-0.6858967,0.220504,-0.0703577,0.27552,-0.4166657,
 -0.3664036,0.0230235,0.0059047,0.0688119,-0.5945071,-0.2864486,0.04773
 5,-0.3247425,-0.5636649,-1.2258704,-0.0679908,0.4774307,0.2380479,-0.1
 744806,-0.1615713,0.2257719,-0.031714,-0.3021415,0.3348212,0.0136805,0
 .0100006,0.0916105,0.255664,0.0847716,-0.0637116,0.1181115,0.2862227\P
 olar=54.4196529,0.0761459,42.2056106,-5.3959489,-2.4617377,43.9761021\
 PG=Unknown\NImag=0\\0.54673279,-0.14354528,0.24229888,-0.08829485,-0.1
 4533612,0.21882215,-0.07386690,0.03663998,-0.00478524,0.44517226,0.020
 86938,-0.14790901,0.13399171,-0.01617455,0.23922905,0.01434533,0.13084
 081,-0.13842919,-0.17082229,-0.14307787,0.31065411,-0.00767439,0.00128
 429,0.00385319,-0.02636394,0.00432410,-0.01162502,0.60605637,0.0014298
 8,0.00734692,-0.00437957,0.00115046,-0.00014254,0.00035184,-0.00659579
 ,0.61044218,-0.00545516,-0.01468008,0.01251942,0.03377041,0.00675557,-
 0.00049630,0.02234485,-0.00781756,0.61524322,-0.03831328,-0.03228269,0
 .04441630,-0.23046933,0.04140488,0.01112906,-0.13830289,-0.00686490,-0
 .08144021,0.57169968,-0.02393137,0.00644773,-0.01019917,0.02808741,-0.
 09408127,0.00918998,-0.00517542,-0.03853951,-0.00384347,0.00861167,0.5
 9512116,0.03904581,0.00419352,-0.03871762,0.01179249,-0.00146359,-0.08
 142623,-0.08614732,-0.00410945,-0.11785984,0.02680110,-0.01327725,0.61
 097936,0.00422828,0.00283362,-0.00514932,-0.01254469,-0.00257010,-0.00
 258097,-0.27526245,-0.04350093,0.06913651,-0.04044364,-0.00956316,0.03
 440239,0.34564017,0.00045705,-0.00032124,-0.00033532,-0.00208115,0.000
 35771,-0.00097361,-0.04656237,-0.08600068,0.01646717,-0.00686477,0.000
 64033,0.00817770,0.06323378,0.09973955,0.00069798,0.00209820,-0.001731
 95,-0.00454623,-0.00097107,0.00126687,0.07887441,0.01878244,-0.1135787
 6,-0.00482379,0.00077020,0.00292291,-0.15184414,-0.04028739,0.16228409
 ,-0.00041014,0.00660576,-0.00676118,-0.02206118,-0.04624832,0.05644511
 ,0.00386650,0.01553819,-0.01049126,-0.07847282,-0.00979956,0.00267324,
 0.00097466,0.00315425,-0.00496940,0.09119901,0.00135059,0.00574842,-0.
 00498086,-0.02162876,-0.00839587,0.02632877,-0.00732707,-0.01972163,0.
 01405805,-0.00533801,-0.20160636,0.12411097,0.00098192,0.00310648,-0.0
 0204676,0.03207162,0.29904401,0.00005491,-0.00494882,0.00869938,0.0309
 2878,0.03459222,-0.03444622,0.01281323,0.03854332,-0.02100403,-0.00211
 921,0.11679459,-0.19507983,-0.00285250,-0.00263583,0.00235389,-0.03338
 184,-0.18164437,0.22642865,0.00431553,0.00879683,-0.00542781,-0.016176
 13,0.03571904,0.04243949,0.00849018,-0.01725008,-0.00907705,-0.0805224
 4,0.00280649,-0.00394248,0.00131050,0.00064052,-0.00019439,0.01202209,
 -0.00226728,0.00049379,0.07712660,-0.00342934,-0.00922571,0.01116441,0
 .03071715,-0.00769578,-0.03205266,0.00987655,-0.02625751,-0.01166719,-
 0.00670376,-0.22863018,-0.11733801,-0.00316389,0.00229217,0.00085671,-
 0.00150341,-0.08312214,-0.00143622,-0.02284548,0.34451239,-0.00300490,
 -0.00652895,0.00670640,0.02746026,-0.02325167,-0.02041420,0.01111644,-
 0.03564202,-0.01407258,-0.00992777,-0.10733298,-0.16045647,-0.00669786
 ,0.00118573,0.00204901,0.00086851,0.01574873,0.02454964,-0.01641738,0.
 15878331,0.17221693,-0.00600978,-0.00217004,-0.00066253,0.00078633,-0.
 00204398,0.00222338,-0.09176741,0.03575045,-0.03267016,0.00821651,0.02
 457684,-0.00911220,0.00085567,-0.04249729,0.03467840,-0.00374928,0.003
 63267,-0.00842931,-0.00055788,-0.00166821,-0.00069497,0.08479075,-0.00
 127800,-0.00331692,0.00452648,0.00439230,0.00431166,-0.00249208,0.0427
 9078,-0.25262483,0.11767943,-0.00485080,-0.02240631,0.00605720,-0.0285
 4884,-0.02889480,0.03797759,0.00357716,0.00012098,0.00396319,0.0000184
 0,0.00701081,0.00057903,-0.03399657,0.37460818,0.00184187,0.00474975,-
 0.00352866,-0.00711037,-0.00485446,0.00319353,-0.03352967,0.10947492,-
 0.15540827,0.00442446,0.03141915,-0.00863759,0.02379738,0.04115492,-0.
 02198928,-0.00523804,0.00324488,-0.00804542,-0.00115841,0.00009103,0.0
 0055076,0.01247938,-0.16387331,0.16949842,0.00092853,-0.00038868,-0.00
 180818,0.00095374,-0.00247022,-0.00115361,-0.08404526,0.01682594,0.010
 95780,0.00684698,-0.01348492,-0.00950494,-0.02216702,0.03128516,0.0521
 7601,-0.00001547,0.00171621,-0.00147155,-0.00261481,-0.00397211,-0.005
 71443,0.00980478,0.01837213,0.00502557,0.09102536,-0.00012037,-0.00150
 037,-0.00007224,-0.00100665,0.00206738,0.00168275,0.00996483,-0.191242
 23,-0.12064609,0.01089938,-0.01744659,-0.01327111,0.01984896,0.0086576
 8,-0.01648707,-0.00222313,0.00569212,-0.00367100,-0.00390439,-0.000924
 83,-0.00411402,0.01624721,-0.07999797,-0.02025096,-0.04828772,0.274120
 57,0.00133223,0.00292141,-0.00230165,-0.00454601,-0.00026836,0.0035124
 4,0.00332521,-0.11656326,-0.20204743,0.01688233,-0.03469238,-0.0183864
 9,0.04035850,-0.02281100,-0.03403653,-0.00182471,0.00328501,-0.0003170
 8,-0.00745522,-0.00528575,-0.00932930,0.00217649,-0.00294041,0.0231418
 0,-0.04883560,0.17696252,0.23946684,-0.39510460,0.07792452,0.08356248,
 -0.07213854,-0.02898865,0.06413108,0.00567969,0.00230939,0.00431223,0.
 02295336,-0.00312269,-0.00848423,-0.00337709,-0.00075683,-0.00020313,-
 0.00405769,-0.00368857,0.00462564,-0.00432589,0.00426272,0.00410231,-0
 .00222996,0.00023372,-0.00108183,-0.00102723,-0.00118277,-0.00150102,0
 .54656619,0.11718895,-0.09755976,0.00595801,-0.05089982,0.01532799,0.0
 1497740,-0.00195311,-0.00327277,0.00230926,0.00256266,0.00078158,0.006
 58482,0.00048009,0.00044019,-0.00047596,-0.00100738,-0.00050544,0.0000
 9072,-0.00154140,0.00226158,0.00065240,0.00183113,0.00114479,-0.000880
 32,0.00025483,0.00074338,-0.00022119,-0.15966326,0.33360323,0.04464872
 ,0.02305327,-0.08274803,0.08702858,0.00534638,-0.03826703,-0.00093086,
 0.00083704,-0.00474205,-0.00693809,0.01074169,0.00825604,0.00167481,0.
 00015959,0.00070591,0.00295805,0.00191571,-0.00322206,0.00067783,-0.00
 284682,-0.00149470,-0.00005076,-0.00141971,0.00150058,0.00027190,0.000
 23074,0.00089888,-0.06558221,-0.21482883,0.29620746,-0.03482605,0.0443
 0169,-0.01894286,0.00670839,-0.00382160,-0.00453157,-0.00067641,0.0012
 0740,-0.00138796,-0.00319215,0.00099471,0.00247615,0.00078560,-0.00000
 836,0.00015428,0.00070431,0.00049668,-0.00066195,0.00093225,-0.0015702
 0,-0.00109020,-0.00013972,-0.00071029,0.00054967,0.00031041,-0.0002353
 4,0.00008779,-0.09293824,0.09274730,-0.06375797,0.12233160,0.03100850,
 -0.00200896,0.00966267,-0.00919637,-0.00306933,-0.00477531,-0.00062679
 ,0.00001260,0.00138490,-0.00057368,-0.00028058,0.00033521,-0.00003144,
 -0.00001739,-0.00021691,-0.00016518,-0.00036057,0.00035218,-0.00017265
 ,-0.00022080,-0.00007954,0.00033778,0.00004441,-0.00027559,0.00014939,
 -0.00016916,-0.00038659,0.11267243,-0.25296477,0.17681096,-0.13340198,
 0.25903454,-0.00521194,0.00363701,0.02070976,0.00082962,-0.00679887,-0
 .00514778,-0.00009446,0.00052230,0.00144661,0.00159582,0.00042965,-0.0
 0159424,-0.00024479,-0.00010195,-0.00024615,-0.00027849,-0.00002012,0.
 00008309,0.00006164,-0.00026880,-0.00030550,0.00006227,-0.00005741,-0.
 00027587,0.00005702,-0.00036352,-0.00060148,-0.08388133,0.18583370,-0.
 17709499,0.08710463,-0.18281198,0.16302657\\-0.00008303,0.00001782,-0.
 00005967,-0.00004746,-0.00014684,0.00014018,0.00003296,-0.00005252,-0.
 00002638,0.00000457,0.00015567,-0.00006769,-0.00003692,-0.00000211,0.0
 0004204,0.00002155,-0.00001697,-0.00002493,-0.00000027,-0.00000293,0.0
 0001677,-0.00006960,-0.00001950,0.00003598,0.00005163,0.00006248,-0.00
 001241,0.00011626,0.00000051,-0.00002846,0.00001032,0.00000439,-0.0000
 1543\\\@
 The archive entry for this job was punched.


 AND THIS OUR LIFE, EXEMPT FROM PUBLIC HAUNT,
 FINDS TONGUES IN TREES, BOOKS IN THE RUNNING BROOKS,
 SERMONS IN STONES, AND GOOD IN EVERYTHING.
 I WOULD NOT CHANGE IT. -- W. SHAKESPEARE
 AS YOU LIKE IT, ACT II, SCENE 1.
 Job cpu time:       0 days  0 hours 25 minutes 44.9 seconds.
 Elapsed time:       0 days  0 hours  3 minutes 16.5 seconds.
 File lengths (MBytes):  RWF=    116 Int=      0 D2E=      0 Chk=      9 Scr=      1
 Normal termination of Gaussian 16 at Sat May 24 03:37:01 2025.
done
