 Entering Gaussian System, Link 0=g16
 Initial command:
 /apps/easybuild-2022/easybuild/software/Compiler/NVHPC/22.11-CUDA-11.7.0/Gaussian/g16c01-CUDA-11.7.0/g16/l1.exe "/tmp/Gau-14163.inp" -scrdir="/tmp/"
 Entering Link 1 = /apps/easybuild-2022/easybuild/software/Compiler/NVHPC/22.11-CUDA-11.7.0/Gaussian/g16c01-CUDA-11.7.0/g16/l1.exe PID=     14164.
  
 Copyright (c) 1988-2019, Gaussian, Inc.  All Rights Reserved.
  
 This is part of the Gaussian(R) 16 program.  It is based on
 the Gaussian(R) 09 system (copyright 2009, Gaussian, Inc.),
 the Gaussian(R) 03 system (copyright 2003, Gaussian, Inc.),
 the Gaussian(R) 98 system (copyright 1998, Gaussian, Inc.),
 the Gaussian(R) 94 system (copyright 1995, Gaussian, Inc.),
 the Gaussian 92(TM) system (copyright 1992, Gaussian, Inc.),
 the Gaussian 90(TM) system (copyright 1990, Gaussian, Inc.),
 the Gaussian 88(TM) system (copyright 1988, Gaussian, Inc.),
 the Gaussian 86(TM) system (copyright 1986, Carnegie Mellon
 University), and the Gaussian 82(TM) system (copyright 1983,
 Carnegie Mellon University). Gaussian is a federally registered
 trademark of Gaussian, Inc.
  
 This software contains proprietary and confidential information,
 including trade secrets, belonging to Gaussian, Inc.
  
 This software is provided under written license and may be
 used, copied, transmitted, or stored only in accord with that
 written license.
  
 The following legend is applicable only to US Government
 contracts under FAR:
  
                    RESTRICTED RIGHTS LEGEND
  
 Use, reproduction and disclosure by the US Government is
 subject to restrictions as set forth in subparagraphs (a)
 and (c) of the Commercial Computer Software - Restricted
 Rights clause in FAR 52.227-19.
  
 Gaussian, Inc.
 340 Quinnipiac St., Bldg. 40, Wallingford CT 06492
  
  
 ---------------------------------------------------------------
 Warning -- This program may not be used in any manner that
 competes with the business of Gaussian, Inc. or will provide
 assistance to any competitor of Gaussian, Inc.  The licensee
 of this program is prohibited from giving any competitor of
 Gaussian, Inc. access to this program.  By using this program,
 the user acknowledges that Gaussian, Inc. is engaged in the
 business of creating and licensing software in the field of
 computational chemistry and represents and warrants to the
 licensee that it is not a competitor of Gaussian, Inc. and that
 it will not use this program in any manner prohibited above.
 ---------------------------------------------------------------
  

 Cite this work as:
 Gaussian 16, Revision C.01,
 M. J. Frisch, G. W. Trucks, H. B. Schlegel, G. E. Scuseria, 
 M. A. Robb, J. R. Cheeseman, G. Scalmani, V. Barone, 
 G. A. Petersson, H. Nakatsuji, X. Li, M. Caricato, A. V. Marenich, 
 J. Bloino, B. G. Janesko, R. Gomperts, B. Mennucci, H. P. Hratchian, 
 J. V. Ortiz, A. F. Izmaylov, J. L. Sonnenberg, D. Williams-Young, 
 F. Ding, F. Lipparini, F. Egidi, J. Goings, B. Peng, A. Petrone, 
 T. Henderson, D. Ranasinghe, V. G. Zakrzewski, J. Gao, N. Rega, 
 G. Zheng, W. Liang, M. Hada, M. Ehara, K. Toyota, R. Fukuda, 
 J. Hasegawa, M. Ishida, T. Nakajima, Y. Honda, O. Kitao, H. Nakai, 
 T. Vreven, K. Throssell, J. A. Montgomery, Jr., J. E. Peralta, 
 F. Ogliaro, M. J. Bearpark, J. J. Heyd, E. N. Brothers, K. N. Kudin, 
 V. N. Staroverov, T. A. Keith, R. Kobayashi, J. Normand, 
 K. Raghavachari, A. P. Rendell, J. C. Burant, S. S. Iyengar, 
 J. Tomasi, M. Cossi, J. M. Millam, M. Klene, C. Adamo, R. Cammi, 
 J. W. Ochterski, R. L. Martin, K. Morokuma, O. Farkas, 
 J. B. Foresman, and D. J. Fox, Gaussian, Inc., Wallingford CT, 2019.
 
 ******************************************
 Gaussian 16:  ES64L-G16RevC.01  3-Jul-2019
                24-May-2025 
 ******************************************
 %mem=28GB
 %chk=1642764945472630600001_r13_insertion_ROR_11_10_1_2_IRC_R_prod
 %nprocshared=8
 Will use up to    8 processors via shared memory.
 -----------------------------------------------------------------
 #P M062X/Def2TZVPP Symm(None) scf(xqc) pop(None) freq opt(CalcFC)
 -----------------------------------------------------------------
 1/10=4,18=20,19=15,26=3,38=1/1,3;
 2/9=110,12=2,15=3,17=6,18=5,40=1/2;
 3/5=44,7=202,11=2,25=1,30=1,71=2,74=-55,140=1/1,2,3;
 4//1;
 5/5=2,8=3,13=1,38=5/2,8;
 8/6=4,10=90,11=11/1;
 11/6=1,8=1,9=11,15=111,16=1,31=1/1,2,10;
 10/6=1,13=1,31=1/2;
 7/10=1,25=1,30=1/1,2,3,16;
 1/10=4,18=20,19=15,26=3/3(2);
 2/9=110,15=3/2;
 99//99;
 2/9=110,15=3/2;
 3/5=44,7=202,11=2,25=1,30=1,71=1,74=-55/1,2,3;
 4/5=5,16=3,69=1/1;
 5/5=2,8=3,13=1,38=5/2,8;
 7/30=1/1,2,3,16;
 1/18=20,19=15,26=3/3(-5);
 2/9=110,15=3/2;
 99/9=1/99;
 Leave Link    1 at Sat May 24 08:08:34 2025, MaxMem=  3758096384 cpu:               0.1 elap:               0.0
 (Enter /apps/easybuild-2022/easybuild/software/Compiler/NVHPC/22.11-CUDA-11.7.0/Gaussian/g16c01-CUDA-11.7.0/g16/l101.exe)
 ------------------------------
 Gaussian input prepared by ASE
 ------------------------------
 Symbolic Z-matrix:
 Charge =  0 Multiplicity = 1
 C                    -1.31625   0.17491  -0.22826 
 O                    -3.66835   0.16804   0.08712 
 C                     0.15171   0.31917  -0.63104 
 C                     1.11797  -0.2414    0.44231 
 F                     2.36688  -0.06638   0.04831 
 F                     0.92307   0.39804   1.58499 
 F                     0.88925  -1.53236   0.61592 
 F                     0.32086  -0.35646  -1.76258 
 F                     0.4222    1.60459  -0.81611 
 O                    -1.85938  -0.40935   0.58503 
 H                    -4.50554  -0.07289   0.50854 
 
 Add virtual bond connecting atoms O10        and O2         Dist= 3.71D+00.
 ITRead=  0  0  0  0  0  0  0  0  0  0  0
 MicOpt= -1 -1 -1 -1 -1 -1 -1 -1 -1 -1 -1
 NAtoms=     11 NQM=       11 NQMF=       0 NMMI=      0 NMMIF=      0
                NMic=       0 NMicF=      0.
                    Isotopes and Nuclear Properties:
 (Nuclear quadrupole moments (NQMom) in fm**2, nuclear magnetic moments (NMagM)
  in nuclear magnetons)

  Atom         1           2           3           4           5           6           7           8           9          10
 IAtWgt=          12          16          12          12          19          19          19          19          19          16
 AtmWgt=  12.0000000  15.9949146  12.0000000  12.0000000  18.9984032  18.9984032  18.9984032  18.9984032  18.9984032  15.9949146
 NucSpn=           0           0           0           0           1           1           1           1           1           0
 AtZEff=  -0.0000000  -0.0000000  -0.0000000  -0.0000000  -0.0000000  -0.0000000  -0.0000000  -0.0000000  -0.0000000  -0.0000000
 NQMom=    0.0000000   0.0000000   0.0000000   0.0000000   0.0000000   0.0000000   0.0000000   0.0000000   0.0000000   0.0000000
 NMagM=    0.0000000   0.0000000   0.0000000   0.0000000   2.6288670   2.6288670   2.6288670   2.6288670   2.6288670   0.0000000
 AtZNuc=   6.0000000   8.0000000   6.0000000   6.0000000   9.0000000   9.0000000   9.0000000   9.0000000   9.0000000   8.0000000

  Atom        11
 IAtWgt=           1
 AtmWgt=   1.0078250
 NucSpn=           1
 AtZEff=  -0.0000000
 NQMom=    0.0000000
 NMagM=    2.7928460
 AtZNuc=   1.0000000
 Leave Link  101 at Sat May 24 08:08:34 2025, MaxMem=  3758096384 cpu:               0.3 elap:               0.2
 (Enter /apps/easybuild-2022/easybuild/software/Compiler/NVHPC/22.11-CUDA-11.7.0/Gaussian/g16c01-CUDA-11.7.0/g16/l103.exe)

 GradGradGradGradGradGradGradGradGradGradGradGradGradGradGradGradGradGrad
 Berny optimization.
 Initialization pass.
                           ----------------------------
                           !    Initial Parameters    !
                           ! (Angstroms and Degrees)  !
 --------------------------                            --------------------------
 ! Name  Definition              Value          Derivative Info.                !
 --------------------------------------------------------------------------------
 ! R1    R(1,3)                  1.529          calculate D2E/DX2 analytically  !
 ! R2    R(1,10)                 1.1392         calculate D2E/DX2 analytically  !
 ! R3    R(2,10)                 1.9631         calculate D2E/DX2 analytically  !
 ! R4    R(2,11)                 0.9677         calculate D2E/DX2 analytically  !
 ! R5    R(3,4)                  1.5492         calculate D2E/DX2 analytically  !
 ! R6    R(3,8)                  1.3287         calculate D2E/DX2 analytically  !
 ! R7    R(3,9)                  1.3265         calculate D2E/DX2 analytically  !
 ! R8    R(4,5)                  1.3212         calculate D2E/DX2 analytically  !
 ! R9    R(4,6)                  1.3238         calculate D2E/DX2 analytically  !
 ! R10   R(4,7)                  1.3225         calculate D2E/DX2 analytically  !
 ! A1    A(3,1,10)             133.9607         calculate D2E/DX2 analytically  !
 ! A2    A(10,2,11)            127.8438         calculate D2E/DX2 analytically  !
 ! A3    A(1,3,4)              112.4669         calculate D2E/DX2 analytically  !
 ! A4    A(1,3,8)              107.3722         calculate D2E/DX2 analytically  !
 ! A5    A(1,3,9)              108.9008         calculate D2E/DX2 analytically  !
 ! A6    A(4,3,8)              109.065          calculate D2E/DX2 analytically  !
 ! A7    A(4,3,9)              108.6699         calculate D2E/DX2 analytically  !
 ! A8    A(8,3,9)              110.3623         calculate D2E/DX2 analytically  !
 ! A9    A(3,4,5)              109.574          calculate D2E/DX2 analytically  !
 ! A10   A(3,4,6)              109.3555         calculate D2E/DX2 analytically  !
 ! A11   A(3,4,7)              109.6517         calculate D2E/DX2 analytically  !
 ! A12   A(5,4,6)              109.4255         calculate D2E/DX2 analytically  !
 ! A13   A(5,4,7)              109.3859         calculate D2E/DX2 analytically  !
 ! A14   A(6,4,7)              109.4344         calculate D2E/DX2 analytically  !
 ! A15   A(1,10,2)              96.1663         calculate D2E/DX2 analytically  !
 ! D1    D(10,1,3,4)           -13.0033         calculate D2E/DX2 analytically  !
 ! D2    D(10,1,3,8)           106.9793         calculate D2E/DX2 analytically  !
 ! D3    D(10,1,3,9)          -133.5169         calculate D2E/DX2 analytically  !
 ! D4    D(3,1,10,2)          -179.0992         calculate D2E/DX2 analytically  !
 ! D5    D(11,2,10,1)         -179.718          calculate D2E/DX2 analytically  !
 ! D6    D(1,3,4,5)           -178.8784         calculate D2E/DX2 analytically  !
 ! D7    D(1,3,4,6)            -58.9424         calculate D2E/DX2 analytically  !
 ! D8    D(1,3,4,7)             61.052          calculate D2E/DX2 analytically  !
 ! D9    D(8,3,4,5)             62.1243         calculate D2E/DX2 analytically  !
 ! D10   D(8,3,4,6)           -177.9397         calculate D2E/DX2 analytically  !
 ! D11   D(8,3,4,7)            -57.9454         calculate D2E/DX2 analytically  !
 ! D12   D(9,3,4,5)            -58.2318         calculate D2E/DX2 analytically  !
 ! D13   D(9,3,4,6)             61.7041         calculate D2E/DX2 analytically  !
 ! D14   D(9,3,4,7)           -178.3015         calculate D2E/DX2 analytically  !
 --------------------------------------------------------------------------------
 Trust Radius=3.00D-01 FncErr=1.00D-07 GrdErr=1.00D-06 EigMax=2.50D+02 EigMin=1.00D-04
 Number of steps in this run=     49 maximum allowed number of steps=    100.
 GradGradGradGradGradGradGradGradGradGradGradGradGradGradGradGradGradGrad

 Leave Link  103 at Sat May 24 08:08:34 2025, MaxMem=  3758096384 cpu:               0.1 elap:               0.0
 (Enter /apps/easybuild-2022/easybuild/software/Compiler/NVHPC/22.11-CUDA-11.7.0/Gaussian/g16c01-CUDA-11.7.0/g16/l202.exe)
                          Input orientation:                          
 ---------------------------------------------------------------------
 Center     Atomic      Atomic             Coordinates (Angstroms)
 Number     Number       Type             X           Y           Z
 ---------------------------------------------------------------------
      1          6           0       -1.316249    0.174910   -0.228260
      2          8           0       -3.668346    0.168042    0.087124
      3          6           0        0.151714    0.319171   -0.631043
      4          6           0        1.117967   -0.241403    0.442314
      5          9           0        2.366876   -0.066382    0.048307
      6          9           0        0.923067    0.398035    1.584987
      7          9           0        0.889251   -1.532362    0.615918
      8          9           0        0.320864   -0.356458   -1.762584
      9          9           0        0.422201    1.604594   -0.816111
     10          8           0       -1.859377   -0.409351    0.585027
     11          1           0       -4.505540   -0.072885    0.508544
 ---------------------------------------------------------------------
                    Distance matrix (angstroms):
                    1          2          3          4          5
     1  C    0.000000
     2  O    2.373157   0.000000
     3  C    1.529039   3.889918   0.000000
     4  C    2.558983   4.816907   1.549188   0.000000
     5  F    3.701367   6.039898   2.348853   1.321230   0.000000
     6  F    2.890015   4.835035   2.347764   1.323846   2.159086
     7  F    2.914043   4.893127   2.350967   1.322507   2.157465
     8  F    2.305784   4.428354   1.328710   2.347379   2.747660
     9  F    2.326322   4.428554   1.326547   2.339963   2.705761
    10  O    1.139204   1.963074   2.460499   2.985490   4.273981
    11  H    3.282660   0.967747   4.810653   5.626421   6.887813
                    6          7          8          9         10
     6  F    0.000000
     7  F    2.160248   0.000000
     8  F    3.483983   2.713501   0.000000
     9  F    2.733482   3.479847   2.179864   0.000000
    10  O    3.064929   2.969354   3.204298   3.350337   0.000000
    11  H    5.554302   5.589756   5.341593   5.371339   2.668565
                   11
    11  H    0.000000
 Symmetry turned off by external request.
 Stoichiometry    C3HF5O2
 Rotational constants (GHZ):           2.0711315           0.9013338           0.8088307
 Leave Link  202 at Sat May 24 08:08:34 2025, MaxMem=  3758096384 cpu:               0.1 elap:               0.1
 (Enter /apps/easybuild-2022/easybuild/software/Compiler/NVHPC/22.11-CUDA-11.7.0/Gaussian/g16c01-CUDA-11.7.0/g16/l301.exe)
 Standard basis: def2TZVPP (5D, 7F)
 Ernie: Thresh=  0.10000D-02 Tol=  0.10000D-05 Strict=F.
   324 basis functions,   527 primitive gaussians,   375 cartesian basis functions
    40 alpha electrons       40 beta electrons
       nuclear repulsion energy       609.6411867405 Hartrees.
 IExCor= 4336 DFT=T Ex+Corr=M062X ExCW=0 ScaHFX=  0.540000
 ScaDFX=  1.000000  1.000000  1.000000  1.000000 ScalE2=  1.000000  1.000000
 IRadAn=      5 IRanWt=     -1 IRanGd=            0 ICorTp=0 IEmpDi=  4
 NAtoms=   11 NActive=   11 NUniq=   11 SFac= 1.00D+00 NAtFMM=   60 NAOKFM=F Big=F
 Integral buffers will be    131072 words long.
 Raffenetti 2 integral format.
 Two-electron integral symmetry is turned off.
 Leave Link  301 at Sat May 24 08:08:34 2025, MaxMem=  3758096384 cpu:               0.1 elap:               0.0
 (Enter /apps/easybuild-2022/easybuild/software/Compiler/NVHPC/22.11-CUDA-11.7.0/Gaussian/g16c01-CUDA-11.7.0/g16/l302.exe)
 NPDir=0 NMtPBC=     1 NCelOv=     1 NCel=       1 NClECP=     1 NCelD=      1
         NCelK=      1 NCelE2=     1 NClLst=     1 CellRange=     0.0.
 One-electron integrals computed using PRISM.
   1 Symmetry operations used in ECPInt.
 ECPInt:  NShTT=    6786 NPrTT=   21959 LenC2=    6283 LenP2D=   15338.
 LDataN:  DoStor=T MaxTD1= 6 Len=  172
 NBasis=   324 RedAO= T EigKep=  1.92D-04  NBF=   324
 NBsUse=   324 1.00D-06 EigRej= -1.00D+00 NBFU=   324
 Precomputing XC quadrature grid using
 IXCGrd= 4 IRadAn=           5 IRanWt=          -1 IRanGd=           0 AccXCQ= 0.00D+00.
 Generated NRdTot=       0 NPtTot=           0 NUsed=           0 NTot=          32
 NSgBfM=   372   371   372   372   372 MxSgAt=    11 MxSgA2=    11.
 Leave Link  302 at Sat May 24 08:08:34 2025, MaxMem=  3758096384 cpu:               1.3 elap:               0.4
 (Enter /apps/easybuild-2022/easybuild/software/Compiler/NVHPC/22.11-CUDA-11.7.0/Gaussian/g16c01-CUDA-11.7.0/g16/l303.exe)
 DipDrv:  MaxL=1.
 Leave Link  303 at Sat May 24 08:08:35 2025, MaxMem=  3758096384 cpu:               0.2 elap:               0.1
 (Enter /apps/easybuild-2022/easybuild/software/Compiler/NVHPC/22.11-CUDA-11.7.0/Gaussian/g16c01-CUDA-11.7.0/g16/l401.exe)
 ExpMin= 9.52D-02 ExpMax= 3.55D+04 ExpMxC= 1.21D+03 IAcc=3 IRadAn=         5 AccDes= 0.00D+00
 Harris functional with IExCor= 1009 and IRadAn=       5 diagonalized for initial guess.
 HarFok:  IExCor= 1009 AccDes= 0.00D+00 IRadAn=         5 IDoV= 1 UseB2=F ITyADJ=14
 ICtDFT=  3500011 ScaDFX=  1.000000  1.000000  1.000000  1.000000
 FoFCou: FMM=F IPFlag=           0 FMFlag=      100000 FMFlg1=           0
         NFxFlg=           0 DoJE=T BraDBF=F KetDBF=T FulRan=T
         wScrn=  0.000000 ICntrl=       500 IOpCl=  0 I1Cent=   200000004 NGrid=           0
         NMat0=    1 NMatS0=      1 NMatT0=    0 NMatD0=    1 NMtDS0=    0 NMtDT0=    0
 Symmetry not used in FoFCou.
 Harris En= -764.076166915207    
 JPrj=0 DoOrth=F DoCkMO=F.
 Leave Link  401 at Sat May 24 08:08:35 2025, MaxMem=  3758096384 cpu:               3.4 elap:               0.6
 (Enter /apps/easybuild-2022/easybuild/software/Compiler/NVHPC/22.11-CUDA-11.7.0/Gaussian/g16c01-CUDA-11.7.0/g16/l502.exe)
 Keep R1 ints in memory in canonical form, NReq=1412617130.
 FoFCou: FMM=F IPFlag=           0 FMFlag=           0 FMFlg1=           0
         NFxFlg=           0 DoJE=F BraDBF=F KetDBF=F FulRan=T
         wScrn=  0.000000 ICntrl=       600 IOpCl=  0 I1Cent=           0 NGrid=           0
         NMat0=    1 NMatS0=  52650 NMatT0=    0 NMatD0=    1 NMtDS0=    0 NMtDT0=    0
 Symmetry not used in FoFCou.
 Two-electron integral symmetry not used.
 Closed shell SCF:
 Using DIIS extrapolation, IDIIS=  1040.
 NGot=  3758096384 LenX=  2371771924 LenY=  2371630858
 Requested convergence on RMS density matrix=1.00D-08 within  32 cycles.
 Requested convergence on MAX density matrix=1.00D-06.
 Requested convergence on             energy=1.00D-06.
 No special actions if energy rises.
 Integral accuracy reduced to 1.0D-05 until final iterations.

 Cycle   1  Pass 0  IDiag  1:
 E= -764.037072063316    
 DIIS: error= 3.55D-02 at cycle   1 NSaved=   1.
 NSaved= 1 IEnMin= 1 EnMin= -764.037072063316     IErMin= 1 ErrMin= 3.55D-02
 ErrMax= 3.55D-02  0.00D+00 EMaxC= 1.00D-01 BMatC= 5.42D-01 BMatP= 5.42D-01
 IDIUse=3 WtCom= 6.45D-01 WtEn= 3.55D-01
 Coeff-Com:  0.100D+01
 Coeff-En:   0.100D+01
 Coeff:      0.100D+01
 Gap=    -0.193 Goal=   None    Shift=    0.000
 GapD=   -0.193 DampG=0.250 DampE=0.500 DampFc=0.2500 IDamp=-1.
 Damping current iteration by 2.50D-01
 RMSDP=7.42D-03 MaxDP=6.76D-01              OVMax= 9.77D-01

 Cycle   2  Pass 0  IDiag  1:
 E= -764.060615762757     Delta-E=       -0.023543699440 Rises=F Damp=T
 DIIS: error= 1.22D-02 at cycle   2 NSaved=   2.
 NSaved= 2 IEnMin= 2 EnMin= -764.060615762757     IErMin= 2 ErrMin= 1.22D-02
 ErrMax= 1.22D-02  0.00D+00 EMaxC= 1.00D-01 BMatC= 1.04D-01 BMatP= 5.42D-01
 IDIUse=3 WtCom= 8.78D-01 WtEn= 1.22D-01
 Coeff-Com: -0.644D-01 0.106D+01
 Coeff-En:   0.471D+00 0.529D+00
 Coeff:      0.745D-03 0.999D+00
 Gap=     0.641 Goal=   None    Shift=    0.000
 RMSDP=2.04D-03 MaxDP=2.03D-01 DE=-2.35D-02 OVMax= 9.74D-01

 Cycle   3  Pass 0  IDiag  1:
 E= -764.210616344805     Delta-E=       -0.150000582049 Rises=F Damp=F
 DIIS: error= 2.83D-02 at cycle   3 NSaved=   3.
 NSaved= 3 IEnMin= 3 EnMin= -764.210616344805     IErMin= 2 ErrMin= 1.22D-02
 ErrMax= 2.83D-02  0.00D+00 EMaxC= 1.00D-01 BMatC= 2.04D-01 BMatP= 1.04D-01
 IDIUse=2 WtCom= 0.00D+00 WtEn= 1.00D+00
 Coeff-En:   0.000D+00 0.286D+00 0.714D+00
 Coeff:      0.000D+00 0.286D+00 0.714D+00
 Gap=     0.038 Goal=   None    Shift=    0.000
 RMSDP=4.45D-03 MaxDP=1.97D-01 DE=-1.50D-01 OVMax= 9.37D-01

 Cycle   4  Pass 0  IDiag  1:
 E= -761.231482897672     Delta-E=        2.979133447133 Rises=F Damp=F
 DIIS: error= 1.04D-01 at cycle   4 NSaved=   4.
 NSaved= 4 IEnMin= 3 EnMin= -764.210616344805     IErMin= 2 ErrMin= 1.22D-02
 ErrMax= 1.04D-01  0.00D+00 EMaxC= 1.00D-01 BMatC= 2.23D+00 BMatP= 1.04D-01
 IDIUse=2 WtCom= 0.00D+00 WtEn= 1.00D+00
 Coeff-En:   0.000D+00 0.000D+00 0.868D+00 0.132D+00
 Coeff:      0.000D+00 0.000D+00 0.868D+00 0.132D+00
 Gap=    -0.047 Goal=   None    Shift=    0.000
 RMSDP=3.17D-03 MaxDP=1.42D-01 DE= 2.98D+00 OVMax= 8.90D-01

 Cycle   5  Pass 0  IDiag  1:
 E= -764.281159788997     Delta-E=       -3.049676891325 Rises=F Damp=F
 DIIS: error= 2.78D-02 at cycle   5 NSaved=   5.
 NSaved= 5 IEnMin= 5 EnMin= -764.281159788997     IErMin= 2 ErrMin= 1.22D-02
 ErrMax= 2.78D-02  0.00D+00 EMaxC= 1.00D-01 BMatC= 1.92D-01 BMatP= 1.04D-01
 IDIUse=2 WtCom= 0.00D+00 WtEn= 1.00D+00
 Coeff-En:   0.000D+00 0.000D+00 0.429D+00 0.000D+00 0.571D+00
 Coeff:      0.000D+00 0.000D+00 0.429D+00 0.000D+00 0.571D+00
 Gap=     0.200 Goal=   None    Shift=    0.000
 RMSDP=1.22D-03 MaxDP=5.17D-02 DE=-3.05D+00 OVMax= 2.90D-01

 Cycle   6  Pass 0  IDiag  1:
 E= -764.423290996813     Delta-E=       -0.142131207816 Rises=F Damp=F
 DIIS: error= 8.03D-03 at cycle   6 NSaved=   6.
 NSaved= 6 IEnMin= 6 EnMin= -764.423290996813     IErMin= 6 ErrMin= 8.03D-03
 ErrMax= 8.03D-03  0.00D+00 EMaxC= 1.00D-01 BMatC= 1.56D-02 BMatP= 1.04D-01
 IDIUse=3 WtCom= 9.20D-01 WtEn= 8.03D-02
 Coeff-Com: -0.664D-01 0.820D-01 0.691D-01-0.231D-01 0.245D+00 0.694D+00
 Coeff-En:   0.000D+00 0.000D+00 0.000D+00 0.000D+00 0.118D+00 0.882D+00
 Coeff:     -0.611D-01 0.755D-01 0.636D-01-0.212D-01 0.234D+00 0.709D+00
 Gap=     0.173 Goal=   None    Shift=    0.000
 RMSDP=3.56D-04 MaxDP=1.68D-02 DE=-1.42D-01 OVMax= 9.84D-02

 Cycle   7  Pass 0  IDiag  1:
 E= -764.436604245484     Delta-E=       -0.013313248670 Rises=F Damp=F
 DIIS: error= 2.49D-03 at cycle   7 NSaved=   7.
 NSaved= 7 IEnMin= 7 EnMin= -764.436604245484     IErMin= 7 ErrMin= 2.49D-03
 ErrMax= 2.49D-03  0.00D+00 EMaxC= 1.00D-01 BMatC= 1.45D-03 BMatP= 1.56D-02
 IDIUse=3 WtCom= 9.75D-01 WtEn= 2.49D-02
 Coeff-Com: -0.791D-02 0.103D-01-0.686D-02-0.229D-02 0.604D-02 0.267D+00
 Coeff-Com:  0.734D+00
 Coeff-En:   0.000D+00 0.000D+00 0.000D+00 0.000D+00 0.000D+00 0.460D-01
 Coeff-En:   0.954D+00
 Coeff:     -0.771D-02 0.101D-01-0.669D-02-0.223D-02 0.589D-02 0.261D+00
 Coeff:      0.740D+00
 Gap=     0.186 Goal=   None    Shift=    0.000
 RMSDP=8.20D-05 MaxDP=3.48D-03 DE=-1.33D-02 OVMax= 1.00D-02

 Cycle   8  Pass 0  IDiag  1:
 E= -764.437604657239     Delta-E=       -0.001000411756 Rises=F Damp=F
 DIIS: error= 8.21D-04 at cycle   8 NSaved=   8.
 NSaved= 8 IEnMin= 8 EnMin= -764.437604657239     IErMin= 8 ErrMin= 8.21D-04
 ErrMax= 8.21D-04  0.00D+00 EMaxC= 1.00D-01 BMatC= 2.24D-04 BMatP= 1.45D-03
 IDIUse=3 WtCom= 9.92D-01 WtEn= 8.21D-03
 Coeff-Com:  0.193D-01-0.237D-01-0.170D-01 0.275D-02-0.446D-01 0.296D-02
 Coeff-Com:  0.338D+00 0.722D+00
 Coeff-En:   0.000D+00 0.000D+00 0.000D+00 0.000D+00 0.000D+00 0.000D+00
 Coeff-En:   0.000D+00 0.100D+01
 Coeff:      0.191D-01-0.236D-01-0.169D-01 0.273D-02-0.442D-01 0.293D-02
 Coeff:      0.335D+00 0.725D+00
 Gap=     0.189 Goal=   None    Shift=    0.000
 RMSDP=4.80D-05 MaxDP=1.77D-03 DE=-1.00D-03 OVMax= 8.11D-03

 Cycle   9  Pass 0  IDiag  1:
 E= -764.437650804331     Delta-E=       -0.000046147092 Rises=F Damp=F
 DIIS: error= 8.50D-04 at cycle   9 NSaved=   9.
 NSaved= 9 IEnMin= 9 EnMin= -764.437650804331     IErMin= 8 ErrMin= 8.21D-04
 ErrMax= 8.50D-04  0.00D+00 EMaxC= 1.00D-01 BMatC= 1.94D-04 BMatP= 2.24D-04
 IDIUse=3 WtCom= 9.92D-01 WtEn= 8.21D-03
 Coeff-Com:  0.156D-01-0.189D-01-0.778D-02 0.114D-02-0.322D-01-0.170D-01
 Coeff-Com:  0.117D+00 0.364D+00 0.579D+00
 Coeff-En:   0.000D+00 0.000D+00 0.000D+00 0.000D+00 0.000D+00 0.000D+00
 Coeff-En:   0.000D+00 0.000D+00 0.100D+01
 Coeff:      0.155D-01-0.187D-01-0.771D-02 0.113D-02-0.320D-01-0.169D-01
 Coeff:      0.116D+00 0.361D+00 0.582D+00
 Gap=     0.189 Goal=   None    Shift=    0.000
 RMSDP=1.74D-05 MaxDP=6.97D-04 DE=-4.61D-05 OVMax= 2.29D-03

 Failed to achieve initial convergence to 1.0D-08 in 10 cycles.
 Switch to full accuracy anyway.
 Cycle  10  Pass 1  IDiag  1:
 E= -764.437812781726     Delta-E=       -0.000161977395 Rises=F Damp=F
 DIIS: error= 5.96D-04 at cycle   1 NSaved=   1.
 NSaved= 1 IEnMin= 1 EnMin= -764.437812781726     IErMin= 1 ErrMin= 5.96D-04
 ErrMax= 5.96D-04  0.00D+00 EMaxC= 1.00D-01 BMatC= 9.85D-05 BMatP= 9.85D-05
 IDIUse=3 WtCom= 9.94D-01 WtEn= 5.96D-03
 Coeff-Com:  0.100D+01
 Coeff-En:   0.100D+01
 Coeff:      0.100D+01
 Gap=     0.192 Goal=   None    Shift=    0.000
 RMSDP=1.74D-05 MaxDP=6.97D-04 DE=-1.62D-04 OVMax= 2.42D-02

 Cycle  11  Pass 1  IDiag  1:
 E= -764.437207257164     Delta-E=        0.000605524561 Rises=F Damp=F
 DIIS: error= 1.72D-03 at cycle   2 NSaved=   2.
 NSaved= 2 IEnMin= 1 EnMin= -764.437812781726     IErMin= 1 ErrMin= 5.96D-04
 ErrMax= 1.72D-03  0.00D+00 EMaxC= 1.00D-01 BMatC= 8.01D-04 BMatP= 9.85D-05
 IDIUse=3 WtCom= 1.94D-01 WtEn= 8.06D-01
 Coeff-Com:  0.742D+00 0.258D+00
 Coeff-En:   0.814D+00 0.186D+00
 Coeff:      0.800D+00 0.200D+00
 Gap=     0.190 Goal=   None    Shift=    0.000
 RMSDP=5.17D-05 MaxDP=2.00D-03 DE= 6.06D-04 OVMax= 1.31D-02

 Cycle  12  Pass 1  IDiag  1:
 E= -764.437868129662     Delta-E=       -0.000660872498 Rises=F Damp=F
 DIIS: error= 4.48D-04 at cycle   3 NSaved=   3.
 NSaved= 3 IEnMin= 3 EnMin= -764.437868129662     IErMin= 3 ErrMin= 4.48D-04
 ErrMax= 4.48D-04  0.00D+00 EMaxC= 1.00D-01 BMatC= 5.04D-05 BMatP= 9.85D-05
 IDIUse=3 WtCom= 9.96D-01 WtEn= 4.48D-03
 Coeff-Com:  0.321D+00-0.769D-01 0.756D+00
 Coeff-En:   0.360D+00 0.000D+00 0.640D+00
 Coeff:      0.322D+00-0.766D-01 0.755D+00
 Gap=     0.189 Goal=   None    Shift=    0.000
 RMSDP=1.73D-05 MaxDP=6.23D-04 DE=-6.61D-04 OVMax= 4.49D-03

 Cycle  13  Pass 1  IDiag  1:
 E= -764.437914048386     Delta-E=       -0.000045918724 Rises=F Damp=F
 DIIS: error= 3.24D-05 at cycle   4 NSaved=   4.
 NSaved= 4 IEnMin= 4 EnMin= -764.437914048386     IErMin= 4 ErrMin= 3.24D-05
 ErrMax= 3.24D-05  0.00D+00 EMaxC= 1.00D-01 BMatC= 4.55D-07 BMatP= 5.04D-05
 IDIUse=1 WtCom= 1.00D+00 WtEn= 0.00D+00
 Coeff-Com:  0.368D-01-0.945D-01 0.413D+00 0.645D+00
 Coeff:      0.368D-01-0.945D-01 0.413D+00 0.645D+00
 Gap=     0.189 Goal=   None    Shift=    0.000
 RMSDP=2.84D-06 MaxDP=1.20D-04 DE=-4.59D-05 OVMax= 4.50D-04

 Cycle  14  Pass 1  IDiag  1:
 E= -764.437914539559     Delta-E=       -0.000000491173 Rises=F Damp=F
 DIIS: error= 1.66D-05 at cycle   5 NSaved=   5.
 NSaved= 5 IEnMin= 5 EnMin= -764.437914539559     IErMin= 5 ErrMin= 1.66D-05
 ErrMax= 1.66D-05  0.00D+00 EMaxC= 1.00D-01 BMatC= 1.40D-07 BMatP= 4.55D-07
 IDIUse=1 WtCom= 1.00D+00 WtEn= 0.00D+00
 Coeff-Com: -0.601D-01-0.120D-01-0.202D-01 0.321D+00 0.771D+00
 Coeff:     -0.601D-01-0.120D-01-0.202D-01 0.321D+00 0.771D+00
 Gap=     0.189 Goal=   None    Shift=    0.000
 RMSDP=1.26D-06 MaxDP=5.36D-05 DE=-4.91D-07 OVMax= 2.33D-04

 Cycle  15  Pass 1  IDiag  1:
 E= -764.437914727421     Delta-E=       -0.000000187862 Rises=F Damp=F
 DIIS: error= 1.13D-05 at cycle   6 NSaved=   6.
 NSaved= 6 IEnMin= 6 EnMin= -764.437914727421     IErMin= 6 ErrMin= 1.13D-05
 ErrMax= 1.13D-05  0.00D+00 EMaxC= 1.00D-01 BMatC= 3.37D-08 BMatP= 1.40D-07
 IDIUse=1 WtCom= 1.00D+00 WtEn= 0.00D+00
 Coeff-Com: -0.269D-01 0.229D-01-0.101D+00-0.517D-01 0.153D+00 0.100D+01
 Coeff:     -0.269D-01 0.229D-01-0.101D+00-0.517D-01 0.153D+00 0.100D+01
 Gap=     0.189 Goal=   None    Shift=    0.000
 RMSDP=7.91D-07 MaxDP=3.04D-05 DE=-1.88D-07 OVMax= 1.89D-04

 Cycle  16  Pass 1  IDiag  1:
 E= -764.437914778311     Delta-E=       -0.000000050889 Rises=F Damp=F
 DIIS: error= 2.56D-06 at cycle   7 NSaved=   7.
 NSaved= 7 IEnMin= 7 EnMin= -764.437914778311     IErMin= 7 ErrMin= 2.56D-06
 ErrMax= 2.56D-06  0.00D+00 EMaxC= 1.00D-01 BMatC= 3.22D-09 BMatP= 3.37D-08
 IDIUse=1 WtCom= 1.00D+00 WtEn= 0.00D+00
 Coeff-Com: -0.317D-02 0.109D-01-0.360D-01-0.618D-01-0.718D-01 0.450D+00
 Coeff-Com:  0.712D+00
 Coeff:     -0.317D-02 0.109D-01-0.360D-01-0.618D-01-0.718D-01 0.450D+00
 Coeff:      0.712D+00
 Gap=     0.189 Goal=   None    Shift=    0.000
 RMSDP=2.21D-07 MaxDP=7.64D-06 DE=-5.09D-08 OVMax= 4.62D-05

 Cycle  17  Pass 1  IDiag  1:
 E= -764.437914782043     Delta-E=       -0.000000003733 Rises=F Damp=F
 DIIS: error= 5.35D-07 at cycle   8 NSaved=   8.
 NSaved= 8 IEnMin= 8 EnMin= -764.437914782043     IErMin= 8 ErrMin= 5.35D-07
 ErrMax= 5.35D-07  0.00D+00 EMaxC= 1.00D-01 BMatC= 1.64D-10 BMatP= 3.22D-09
 IDIUse=1 WtCom= 1.00D+00 WtEn= 0.00D+00
 Coeff-Com:  0.152D-02 0.100D-03 0.135D-02-0.135D-02-0.373D-01-0.773D-02
 Coeff-Com:  0.169D+00 0.874D+00
 Coeff:      0.152D-02 0.100D-03 0.135D-02-0.135D-02-0.373D-01-0.773D-02
 Coeff:      0.169D+00 0.874D+00
 Gap=     0.189 Goal=   None    Shift=    0.000
 RMSDP=6.79D-08 MaxDP=2.19D-06 DE=-3.73D-09 OVMax= 1.18D-05

 Cycle  18  Pass 1  IDiag  1:
 E= -764.437914782320     Delta-E=       -0.000000000276 Rises=F Damp=F
 DIIS: error= 2.07D-07 at cycle   9 NSaved=   9.
 NSaved= 9 IEnMin= 9 EnMin= -764.437914782320     IErMin= 9 ErrMin= 2.07D-07
 ErrMax= 2.07D-07  0.00D+00 EMaxC= 1.00D-01 BMatC= 1.64D-11 BMatP= 1.64D-10
 IDIUse=1 WtCom= 1.00D+00 WtEn= 0.00D+00
 Coeff-Com:  0.541D-03-0.534D-03 0.208D-02 0.447D-02-0.523D-02-0.289D-01
 Coeff-Com: -0.118D-01 0.165D+00 0.875D+00
 Coeff:      0.541D-03-0.534D-03 0.208D-02 0.447D-02-0.523D-02-0.289D-01
 Coeff:     -0.118D-01 0.165D+00 0.875D+00
 Gap=     0.189 Goal=   None    Shift=    0.000
 RMSDP=2.87D-08 MaxDP=1.37D-06 DE=-2.76D-10 OVMax= 8.17D-06

 Cycle  19  Pass 1  IDiag  1:
 E= -764.437914782399     Delta-E=       -0.000000000079 Rises=F Damp=F
 DIIS: error= 1.57D-07 at cycle  10 NSaved=  10.
 NSaved=10 IEnMin=10 EnMin= -764.437914782399     IErMin=10 ErrMin= 1.57D-07
 ErrMax= 1.57D-07  0.00D+00 EMaxC= 1.00D-01 BMatC= 4.77D-12 BMatP= 1.64D-11
 IDIUse=1 WtCom= 1.00D+00 WtEn= 0.00D+00
 Coeff-Com: -0.202D-03-0.799D-04 0.890D-05 0.160D-02 0.582D-02-0.327D-02
 Coeff-Com: -0.371D-01-0.136D+00 0.128D+00 0.104D+01
 Coeff:     -0.202D-03-0.799D-04 0.890D-05 0.160D-02 0.582D-02-0.327D-02
 Coeff:     -0.371D-01-0.136D+00 0.128D+00 0.104D+01
 Gap=     0.189 Goal=   None    Shift=    0.000
 RMSDP=2.46D-08 MaxDP=1.16D-06 DE=-7.91D-11 OVMax= 7.84D-06

 Cycle  20  Pass 1  IDiag  1:
 E= -764.437914782456     Delta-E=       -0.000000000057 Rises=F Damp=F
 DIIS: error= 9.68D-08 at cycle  11 NSaved=  11.
 NSaved=11 IEnMin=11 EnMin= -764.437914782456     IErMin=11 ErrMin= 9.68D-08
 ErrMax= 9.68D-08  0.00D+00 EMaxC= 1.00D-01 BMatC= 1.70D-12 BMatP= 4.77D-12
 IDIUse=1 WtCom= 1.00D+00 WtEn= 0.00D+00
 Coeff-Com: -0.164D-03 0.159D-03-0.630D-03-0.135D-02 0.248D-02 0.896D-02
 Coeff-Com: -0.202D-02-0.758D-01-0.259D+00 0.207D+00 0.112D+01
 Coeff:     -0.164D-03 0.159D-03-0.630D-03-0.135D-02 0.248D-02 0.896D-02
 Coeff:     -0.202D-02-0.758D-01-0.259D+00 0.207D+00 0.112D+01
 Gap=     0.189 Goal=   None    Shift=    0.000
 RMSDP=2.09D-08 MaxDP=9.65D-07 DE=-5.71D-11 OVMax= 6.73D-06

 Cycle  21  Pass 1  IDiag  1:
 E= -764.437914782484     Delta-E=       -0.000000000028 Rises=F Damp=F
 DIIS: error= 5.57D-08 at cycle  12 NSaved=  12.
 NSaved=12 IEnMin=12 EnMin= -764.437914782484     IErMin=12 ErrMin= 5.57D-08
 ErrMax= 5.57D-08  0.00D+00 EMaxC= 1.00D-01 BMatC= 7.75D-13 BMatP= 1.70D-12
 IDIUse=1 WtCom= 1.00D+00 WtEn= 0.00D+00
 Coeff-Com:  0.949D-06 0.762D-04-0.241D-03-0.136D-02-0.118D-02 0.475D-02
 Coeff-Com:  0.159D-01 0.301D-01-0.160D+00-0.377D+00 0.451D+00 0.104D+01
 Coeff:      0.949D-06 0.762D-04-0.241D-03-0.136D-02-0.118D-02 0.475D-02
 Coeff:      0.159D-01 0.301D-01-0.160D+00-0.377D+00 0.451D+00 0.104D+01
 Gap=     0.189 Goal=   None    Shift=    0.000
 RMSDP=1.55D-08 MaxDP=6.75D-07 DE=-2.84D-11 OVMax= 4.99D-06

 Cycle  22  Pass 1  IDiag  1:
 E= -764.437914782468     Delta-E=        0.000000000016 Rises=F Damp=F
 DIIS: error= 1.48D-08 at cycle  13 NSaved=  13.
 NSaved=13 IEnMin=12 EnMin= -764.437914782484     IErMin=13 ErrMin= 1.48D-08
 ErrMax= 1.48D-08  0.00D+00 EMaxC= 1.00D-01 BMatC= 8.68D-14 BMatP= 7.75D-13
 IDIUse=1 WtCom= 1.00D+00 WtEn= 0.00D+00
 Coeff-Com:  0.430D-04-0.329D-04 0.139D-03-0.153D-04-0.742D-03-0.146D-02
 Coeff-Com:  0.367D-02 0.252D-01 0.382D-01-0.137D+00-0.179D+00 0.201D+00
 Coeff-Com:  0.105D+01
 Coeff:      0.430D-04-0.329D-04 0.139D-03-0.153D-04-0.742D-03-0.146D-02
 Coeff:      0.367D-02 0.252D-01 0.382D-01-0.137D+00-0.179D+00 0.201D+00
 Coeff:      0.105D+01
 Gap=     0.189 Goal=   None    Shift=    0.000
 RMSDP=5.83D-09 MaxDP=2.57D-07 DE= 1.59D-11 OVMax= 1.86D-06

 SCF Done:  E(RM062X) =  -764.437914782     A.U. after   22 cycles
            NFock= 22  Conv=0.58D-08     -V/T= 2.0036
 KE= 7.617021444202D+02 PE=-3.030342090263D+03 EE= 8.945608443194D+02
 Leave Link  502 at Sat May 24 08:09:17 2025, MaxMem=  3758096384 cpu:             157.3 elap:              42.2
 (Enter /apps/easybuild-2022/easybuild/software/Compiler/NVHPC/22.11-CUDA-11.7.0/Gaussian/g16c01-CUDA-11.7.0/g16/l508.exe)
 QCSCF skips out because SCF is already converged.
 Leave Link  508 at Sat May 24 08:09:17 2025, MaxMem=  3758096384 cpu:               0.0 elap:               0.0
 (Enter /apps/easybuild-2022/easybuild/software/Compiler/NVHPC/22.11-CUDA-11.7.0/Gaussian/g16c01-CUDA-11.7.0/g16/l801.exe)
 DoSCS=F DFT=T ScalE2(SS,OS)=  1.000000  1.000000
 Range of M.O.s used for correlation:     1   324
 NBasis=   324 NAE=    40 NBE=    40 NFC=     0 NFV=     0
 NROrb=    324 NOA=    40 NOB=    40 NVA=   284 NVB=   284

 **** Warning!!: The largest alpha MO coefficient is  0.16084198D+02

 Leave Link  801 at Sat May 24 08:09:17 2025, MaxMem=  3758096384 cpu:               0.1 elap:               0.0
 (Enter /apps/easybuild-2022/easybuild/software/Compiler/NVHPC/22.11-CUDA-11.7.0/Gaussian/g16c01-CUDA-11.7.0/g16/l1101.exe)
 Using compressed storage, NAtomX=    11.
 Will process     12 centers per pass.
   1 Symmetry operations used in ECPInt.
 ECPInt:  NShTT=    6786 NPrTT=   21959 LenC2=    6283 LenP2D=   15338.
 LDataN:  DoStor=T MaxTD1= 7 Len=  274
 Leave Link 1101 at Sat May 24 08:09:18 2025, MaxMem=  3758096384 cpu:               1.3 elap:               0.3
 (Enter /apps/easybuild-2022/easybuild/software/Compiler/NVHPC/22.11-CUDA-11.7.0/Gaussian/g16c01-CUDA-11.7.0/g16/l1102.exe)
 Symmetrizing basis deriv contribution to polar:
 IMax=3 JMax=2 DiffMx= 0.00D+00
 Leave Link 1102 at Sat May 24 08:09:18 2025, MaxMem=  3758096384 cpu:               0.1 elap:               0.1
 (Enter /apps/easybuild-2022/easybuild/software/Compiler/NVHPC/22.11-CUDA-11.7.0/Gaussian/g16c01-CUDA-11.7.0/g16/l1110.exe)
 Forming Gx(P) for the SCF density, NAtomX=    11.
 Integral derivatives from FoFJK, PRISM(SPDF).
 Do as many integral derivatives as possible in FoFJK.
 G2DrvN: MDV=    3758095115.
 G2DrvN: will do    12 centers at a time, making    1 passes.
 Calling FoFCou, ICntrl=  3107 FMM=F I1Cent=   0 AccDes= 0.00D+00.
 FoFJK:  IHMeth= 1 ICntrl=    3107 DoSepK=F KAlg= 0 I1Cent=           0 FoldK=F
 IRaf=         0 NMat=       1 IRICut=       1 DoRegI=T DoRafI=F ISym2E= 0 IDoP0=0 IntGTp=1.
 FoFCou: FMM=F IPFlag=           0 FMFlag=      100000 FMFlg1=           0
         NFxFlg=           0 DoJE=F BraDBF=F KetDBF=F FulRan=T
         wScrn=  0.000000 ICntrl=      3107 IOpCl=  0 I1Cent=           0 NGrid=           0
         NMat0=    1 NMatS0=      1 NMatT0=    0 NMatD0=    1 NMtDS0=    0 NMtDT0=    0
 Symmetry not used in FoFCou.
 End of G2Drv F.D. properties file   721 does not exist.
 End of G2Drv F.D. properties file   722 does not exist.
 End of G2Drv F.D. properties file   788 does not exist.
 Leave Link 1110 at Sat May 24 08:09:55 2025, MaxMem=  3758096384 cpu:             292.4 elap:              36.9
 (Enter /apps/easybuild-2022/easybuild/software/Compiler/NVHPC/22.11-CUDA-11.7.0/Gaussian/g16c01-CUDA-11.7.0/g16/l1002.exe)
 Minotr:  Closed shell wavefunction.
          IDoAtm=11111111111
          Direct CPHF calculation.
          Differentiating once with respect to nuclear coordinates.
          Requested convergence is 1.0D-08 RMS, and 1.0D-07 maximum.
          Secondary convergence is 1.0D-12 RMS, and 1.0D-12 maximum.
          NewPWx=T KeepS1=F KeepF1=F KeepIn=T MapXYZ=F SortEE=F KeepMc=T.
         3328 words used for storage of precomputed grid.
 Keep R1 ints in memory in canonical form, NReq=1412622558.
 FoFCou: FMM=F IPFlag=           0 FMFlag=           0 FMFlg1=           0
         NFxFlg=           0 DoJE=F BraDBF=F KetDBF=F FulRan=T
         wScrn=  0.000000 ICntrl=       600 IOpCl=  0 I1Cent=           0 NGrid=           0
         NMat0=    1 NMatS0=  52650 NMatT0=    0 NMatD0=    1 NMtDS0=    0 NMtDT0=    0
 Symmetry not used in FoFCou.
 Two-electron integral symmetry not used.
          MDV=    3758096384 using IRadAn=       1.
          Solving linear equations simultaneously, MaxMat=       0.
          There are    36 degrees of freedom in the 1st order CPHF.  IDoFFX=6 NUNeed=     0.
     30 vectors produced by pass  0 Test12= 3.16D-14 2.78D-09 XBig12= 1.25D-01 1.18D-01.
 AX will form    30 AO Fock derivatives at one time.
     30 vectors produced by pass  1 Test12= 3.16D-14 2.78D-09 XBig12= 5.01D-02 7.72D-02.
     30 vectors produced by pass  2 Test12= 3.16D-14 2.78D-09 XBig12= 3.14D-03 1.66D-02.
     30 vectors produced by pass  3 Test12= 3.16D-14 2.78D-09 XBig12= 7.65D-05 1.98D-03.
     30 vectors produced by pass  4 Test12= 3.16D-14 2.78D-09 XBig12= 9.51D-07 1.67D-04.
     30 vectors produced by pass  5 Test12= 3.16D-14 2.78D-09 XBig12= 7.30D-09 1.74D-05.
     30 vectors produced by pass  6 Test12= 3.16D-14 2.78D-09 XBig12= 5.98D-11 1.61D-06.
     14 vectors produced by pass  7 Test12= 3.16D-14 2.78D-09 XBig12= 3.70D-13 7.43D-08.
      2 vectors produced by pass  8 Test12= 3.16D-14 2.78D-09 XBig12= 1.58D-15 6.05D-09.
 InvSVY:  IOpt=1 It=  1 EMax= 1.11D-15
 Solved reduced A of dimension   226 with    30 vectors.
 End of Minotr F.D. properties file   721 does not exist.
 End of Minotr F.D. properties file   722 does not exist.
 End of Minotr F.D. properties file   788 does not exist.
 Leave Link 1002 at Sat May 24 08:10:57 2025, MaxMem=  3758096384 cpu:             448.7 elap:              62.7
 (Enter /apps/easybuild-2022/easybuild/software/Compiler/NVHPC/22.11-CUDA-11.7.0/Gaussian/g16c01-CUDA-11.7.0/g16/l701.exe)
 ... and contract with generalized density number  0.
 Compute integral second derivatives.
   1 Symmetry operations used in ECPInt.
 ECPInt:  NShTT=    6786 NPrTT=   21959 LenC2=    6283 LenP2D=   15338.
 LDataN:  DoStor=T MaxTD1= 8 Len=  415
 Leave Link  701 at Sat May 24 08:10:58 2025, MaxMem=  3758096384 cpu:               1.2 elap:               0.2
 (Enter /apps/easybuild-2022/easybuild/software/Compiler/NVHPC/22.11-CUDA-11.7.0/Gaussian/g16c01-CUDA-11.7.0/g16/l702.exe)
 L702 exits ... SP integral derivatives will be done elsewhere.
 Leave Link  702 at Sat May 24 08:10:58 2025, MaxMem=  3758096384 cpu:               0.1 elap:               0.0
 (Enter /apps/easybuild-2022/easybuild/software/Compiler/NVHPC/22.11-CUDA-11.7.0/Gaussian/g16c01-CUDA-11.7.0/g16/l703.exe)
 Integral derivatives from FoFJK, PRISM(SPDF).
 Compute integral second derivatives, UseDBF=F ICtDFT=           0.
 Calling FoFJK, ICntrl=    100127 FMM=F ISym2X=0 I1Cent= 0 IOpClX= 0 NMat=1 NMatS=1 NMatT=0.
 FoFJK:  IHMeth= 1 ICntrl=  100127 DoSepK=F KAlg= 0 I1Cent=           0 FoldK=F
 IRaf=         0 NMat=       1 IRICut=       1 DoRegI=T DoRafI=F ISym2E= 0 IDoP0=0 IntGTp=1.
 FoFCou: FMM=F IPFlag=           0 FMFlag=      100000 FMFlg1=         800
         NFxFlg=           0 DoJE=F BraDBF=F KetDBF=F FulRan=T
         wScrn=  0.000000 ICntrl=    100127 IOpCl=  0 I1Cent=           0 NGrid=           0
         NMat0=    1 NMatS0=      1 NMatT0=    0 NMatD0=    1 NMtDS0=    0 NMtDT0=    0
 Symmetry not used in FoFCou.
 Leave Link  703 at Sat May 24 08:12:17 2025, MaxMem=  3758096384 cpu:             629.9 elap:              79.4
 (Enter /apps/easybuild-2022/easybuild/software/Compiler/NVHPC/22.11-CUDA-11.7.0/Gaussian/g16c01-CUDA-11.7.0/g16/l716.exe)
 Dipole        = 1.01103632D+00-2.28354394D-01 1.74813970D-01
 Polarizability= 0.00000000D+00 0.00000000D+00 0.00000000D+00
                 0.00000000D+00 0.00000000D+00 0.00000000D+00
 -------------------------------------------------------------------
 Center     Atomic                   Forces (Hartrees/Bohr)
 Number     Number              X              Y              Z
 -------------------------------------------------------------------
      1        6           0.000007735    0.000055042   -0.000073535
      2        8          -0.000036527   -0.000085287    0.000116209
      3        6           0.000007532   -0.000011001    0.000012174
      4        6           0.000006228   -0.000002886    0.000003631
      5        9           0.000016017   -0.000010147    0.000013721
      6        9           0.000005250   -0.000003535    0.000005104
      7        9           0.000003810   -0.000005313    0.000008971
      8        9           0.000025770   -0.000015930    0.000007530
      9        9           0.000036169   -0.000008755    0.000010466
     10        8          -0.000130997    0.000110857   -0.000124126
     11        1           0.000059012   -0.000023045    0.000019856
 -------------------------------------------------------------------
 Cartesian Forces:  Max     0.000130997 RMS     0.000050292
 Force constants in Cartesian coordinates: 
                1             2             3             4             5 
      1  0.538613D+00
      2  0.288343D+00  0.347638D+00
      3 -0.424819D+00 -0.366592D+00  0.600999D+00
      4 -0.411671D-01 -0.276878D-01  0.400206D-01  0.445172D+00
      5 -0.251266D-01 -0.722409D-02  0.460487D-03  0.924360D-01  0.721587D-01
      6  0.357442D-01  0.919699D-03 -0.158317D-01 -0.177735D+00 -0.963954D-01
      7 -0.146977D+00 -0.102003D-01  0.183164D-01  0.115121D-01 -0.346375D-02
      8  0.994338D-02 -0.338228D-01 -0.154562D-01  0.113911D-01  0.264386D-02
      9 -0.772346D-02 -0.179017D-01 -0.235408D-01 -0.190490D-01  0.232592D-03
     10 -0.297569D-01  0.102319D-01 -0.154270D-01  0.188509D-02 -0.730884D-03
     11 -0.452087D-02  0.322094D-02  0.412753D-02 -0.449116D-02 -0.151905D-02
     12  0.121036D-01  0.613192D-02 -0.497466D-03  0.879643D-02  0.465935D-03
     13 -0.646755D-02 -0.247766D-02  0.317629D-02 -0.442817D-02 -0.342206D-03
     14  0.170605D-02 -0.209618D-04 -0.230676D-03  0.820148D-03  0.287215D-03
     15 -0.322602D-02 -0.463441D-03 -0.341841D-04 -0.145308D-02 -0.191849D-03
     16  0.165540D-02 -0.136421D-02  0.215776D-02 -0.427855D-03  0.794567D-04
     17 -0.376132D-03 -0.841062D-03 -0.488698D-03 -0.146397D-03  0.240459D-03
     18 -0.164757D-02 -0.199527D-02  0.152957D-02 -0.218243D-02 -0.729380D-04
     19  0.125293D-02 -0.140141D-02  0.171793D-02 -0.498720D-03  0.199086D-03
     20  0.464490D-03  0.618637D-03 -0.148753D-02  0.176642D-02  0.579401D-03
     21 -0.592428D-03 -0.135941D-02  0.696153D-03 -0.113205D-02 -0.775605D-04
     22 -0.882552D-02  0.191135D-01  0.394375D-01 -0.848213D-03 -0.213487D-03
     23  0.146345D-01  0.123796D-02 -0.166506D-01  0.133104D-02  0.467071D-03
     24  0.220950D-01 -0.103842D-01 -0.319802D-01  0.294956D-02  0.120959D-02
     25 -0.169939D-01 -0.454910D-01  0.939240D-02 -0.722145D-03  0.895589D-03
     26 -0.285359D-01 -0.274694D-01  0.135271D-01 -0.251034D-02  0.109001D-02
     27  0.410771D-02  0.129576D-01  0.351580D-02  0.510577D-03 -0.455938D-03
     28 -0.276730D+00 -0.229901D+00  0.324877D+00 -0.248115D-01  0.392782D-01
     29 -0.273887D+00 -0.293443D+00  0.397405D+00  0.316567D-01 -0.197382D-01
     30  0.384233D+00  0.390777D+00 -0.553992D+00 -0.364558D-01  0.227338D-01
     31 -0.146030D-01  0.835663D-03  0.114995D-02 -0.385666D+00 -0.103011D+00
     32  0.173557D-01  0.101056D-01 -0.146148D-01 -0.104566D+00 -0.489854D-01
     33 -0.202752D-01 -0.120902D-01  0.191363D-01  0.185731D+00  0.720913D-01
                6             7             8             9            10 
      6  0.154279D+00
      7  0.451643D-02  0.469157D+00
      8 -0.160040D-02  0.586048D-02  0.564165D+00
      9  0.521758D-02  0.248830D-02 -0.347752D-02  0.562238D+00
     10  0.105043D-02 -0.110857D+00  0.382067D-01 -0.720141D-01  0.610524D+00
     11  0.111390D-02  0.309453D-01 -0.544951D-01  0.357677D-01 -0.234607D-02
     12 -0.363467D-02 -0.534494D-01  0.343022D-01 -0.105271D+00  0.479298D-02
     13  0.132274D-02 -0.516852D-01 -0.694608D-02  0.161163D-01 -0.316631D+00
     14 -0.312043D-03  0.790077D-02  0.265069D-02 -0.875325D-03 -0.203266D-01
     15  0.771088D-03 -0.141203D-01 -0.160921D-03  0.440609D-02  0.484323D-01
     16 -0.213663D-03  0.781942D-02 -0.874942D-02 -0.133474D-01 -0.821801D-01
     17  0.230664D-03  0.148396D-02 -0.638861D-03 -0.340670D-02  0.855735D-02
     18  0.965185D-03  0.116265D-01 -0.283252D-01 -0.385962D-01  0.548044D-02
     19 -0.160378D-03  0.744414D-02  0.147542D-01 -0.121163D-02 -0.832201D-01
     20 -0.567890D-03 -0.108795D-01 -0.408843D-01  0.136788D-02 -0.156026D-01
     21  0.515208D-03  0.549133D-02  0.257493D-01  0.842656D-03 -0.219112D-02
     22 -0.117372D-02 -0.800783D-01  0.247560D-01  0.367995D-01  0.527035D-02
     23  0.490498D-05  0.111384D-01 -0.117663D+00 -0.999564D-01 -0.171957D-03
     24  0.907282D-03  0.213747D-01 -0.981728D-01 -0.285738D+00  0.165291D-01
     25 -0.568053D-03 -0.851988D-01 -0.560427D-01  0.792327D-02  0.467715D-02
     26  0.612491D-03 -0.377711D-01 -0.311939D+00  0.623423D-01 -0.161865D-01
     27  0.205908D-03  0.811972D-02  0.596742D-01 -0.873384D-01  0.118321D-01
     28 -0.464922D-01 -0.210476D-01 -0.342547D-01  0.514045D-01  0.986097D-03
     29  0.237061D-01  0.426213D-02 -0.704509D-02  0.198241D-01 -0.204876D-02
     30 -0.221048D-01 -0.381285D-02  0.223474D-01 -0.256871D-01  0.190514D-02
     31  0.183710D+00 -0.883882D-04  0.108107D-02 -0.138624D-02 -0.696955D-03
     32  0.722880D-01  0.723601D-03 -0.297177D-02  0.608314D-02  0.417417D-03
     33 -0.121290D+00 -0.550851D-03  0.512007D-02 -0.653287D-02 -0.390293D-03
               11            12            13            14            15 
     11  0.608142D+00
     12 -0.342875D-03  0.601960D+00
     13 -0.183554D-01  0.460760D-01  0.415825D+00
     14 -0.786467D-01  0.659870D-02  0.494840D-01  0.876259D-01
     15  0.670404D-02 -0.901700D-01 -0.110558D+00 -0.117805D-01  0.108551D+00
     16  0.101921D-01  0.105997D-01 -0.245424D-01  0.205202D-01  0.599470D-01
     17 -0.120280D+00 -0.926336D-01  0.133500D-01  0.101029D-01 -0.117883D-01
     18 -0.881246D-01 -0.282032D+00  0.417570D-01 -0.134754D-01 -0.325785D-01
     19 -0.216780D-01  0.943187D-04 -0.273143D-01 -0.603012D-01  0.203486D-01
     20 -0.311959D+00  0.540329D-01 -0.414045D-01 -0.267376D-01  0.163089D-01
     21  0.493222D-01 -0.909585D-01  0.151729D-01  0.184452D-01  0.632166D-02
     22 -0.851347D-02 -0.155638D-01  0.438662D-02 -0.312734D-03 -0.680520D-03
     23 -0.236269D-02 -0.449305D-02 -0.159707D-03  0.105729D-02  0.949411D-03
     24 -0.310194D-01 -0.398785D-01 -0.350081D-02  0.213461D-02  0.394498D-02
     25  0.140149D-01 -0.327158D-02  0.432682D-02  0.160872D-02 -0.650055D-03
     26 -0.440856D-01  0.190903D-02  0.264495D-02  0.421963D-02 -0.529591D-03
     27  0.269523D-01  0.110249D-02 -0.237877D-02 -0.142395D-02  0.522831D-03
     28  0.524062D-02 -0.110180D-01  0.672659D-02 -0.120817D-02  0.214550D-02
     29  0.258388D-03 -0.324474D-02  0.285725D-02 -0.192704D-03  0.406157D-03
     30 -0.280013D-02  0.578166D-02 -0.556934D-02  0.553311D-03 -0.103305D-02
     31 -0.488027D-03  0.839787D-03 -0.196027D-03  0.108870D-03 -0.185344D-03
     32  0.172747D-02 -0.272643D-02  0.134937D-02 -0.345632D-03  0.546029D-03
     33 -0.170072D-02  0.359792D-02 -0.161409D-02  0.366114D-03 -0.701607D-03
               16            17            18            19            20 
     16  0.861989D-01
     17 -0.217835D-01  0.166333D+00
     18 -0.484675D-01  0.158927D+00  0.360389D+00
     19  0.132799D-01 -0.944333D-03 -0.996785D-03  0.903003D-01
     20 -0.113798D-02 -0.621407D-01 -0.341044D-01  0.621941D-01  0.441872D+00
     21 -0.140016D-02 -0.526242D-01  0.258117D-02 -0.130155D-01 -0.481318D-01
     22 -0.172612D-02 -0.284001D-03 -0.694775D-02  0.182605D-03  0.481548D-03
     23  0.394492D-03  0.145709D-02  0.156893D-02 -0.295686D-04  0.521475D-02
     24 -0.663826D-02  0.146578D-02 -0.117013D-01 -0.128914D-02  0.391973D-02
     25  0.230311D-03 -0.930035D-04 -0.508239D-03 -0.114259D-02  0.513983D-02
     26  0.148952D-02  0.542731D-02  0.388997D-02  0.511954D-02 -0.611108D-02
     27 -0.698198D-03  0.596974D-03  0.123438D-02 -0.413126D-02  0.714883D-02
     28 -0.436952D-03  0.237534D-03  0.208961D-02 -0.411791D-03 -0.117594D-02
     29  0.411450D-03  0.377476D-03  0.118633D-02  0.224098D-02  0.252022D-03
     30 -0.205195D-02 -0.170305D-03 -0.850454D-03 -0.145872D-02  0.906596D-03
     31  0.129581D-03 -0.144955D-05 -0.203192D-03  0.127671D-03  0.154028D-03
     32 -0.521263D-04 -0.370822D-04  0.525278D-03 -0.153451D-03 -0.704349D-03
     33  0.112658D-03 -0.109004D-03 -0.940520D-03  0.102578D-03  0.606731D-03
               21            22            23            24            25 
     21  0.840452D-01
     22  0.204871D-04  0.715607D-01
     23  0.125448D-02 -0.266688D-01  0.167849D+00
     24  0.173776D-02 -0.453656D-01  0.164656D+00  0.353372D+00
     25 -0.321202D-02  0.135318D-01  0.800516D-04 -0.446198D-02  0.856699D-01
     26  0.686992D-02 -0.413898D-02 -0.567994D-01 -0.307489D-01  0.788335D-01
     27 -0.483077D-02 -0.707466D-02 -0.481619D-01  0.640524D-02 -0.109600D-01
     28  0.967545D-03 -0.376141D-02 -0.558401D-03 -0.142872D-02 -0.464294D-02
     29  0.203094D-03 -0.376690D-02 -0.117983D-03 -0.267925D-02  0.148750D-02
     30 -0.509647D-03  0.261611D-03  0.564320D-03  0.235047D-02  0.578821D-02
     31 -0.108926D-03  0.307477D-03  0.991348D-05 -0.263888D-03  0.264381D-03
     32  0.348832D-03 -0.452730D-03 -0.340216D-03 -0.381597D-03 -0.433410D-03
     33 -0.440965D-03  0.286964D-03  0.263659D-03  0.580758D-03  0.528093D-03
               26            27            28            29            30 
     26  0.434114D+00
     27 -0.555524D-01  0.795534D-01
     28  0.857304D-03  0.869379D-03  0.315303D+00
     29  0.133447D-02 -0.182199D-02  0.244496D+00  0.315863D+00
     30 -0.185334D-02 -0.242018D-03 -0.351473D+00 -0.431397D+00  0.596472D+00
     31  0.198023D-03 -0.196562D-03  0.882644D-02 -0.770894D-02  0.863377D-02
     32  0.219510D-03  0.864391D-04 -0.230110D-01  0.245218D-02 -0.166137D-02
     33 -0.466517D-03 -0.128889D-03  0.280585D-01 -0.358792D-02 -0.184630D-03
               31            32            33 
     31  0.391595D+00
     32  0.108822D+00  0.388796D-01
     33 -0.191989D+00 -0.604935D-01  0.106905D+00
 FormGI is forming the generalized inverse of G from B-inverse, IUseBI=4.
 GSVD:  received Info=                   1 from GESDD.
 Force constants in internal coordinates: 
                1             2             3             4             5 
      1  0.244696D+00
      2  0.177685D-01  0.114953D+01
      3 -0.114224D-01  0.489698D-01  0.630428D-01
      4 -0.237285D-03 -0.108202D-01  0.948167D-02  0.520387D+00
      5  0.122336D-01 -0.130734D-02 -0.142622D-02  0.225754D-03  0.271188D+00
      6  0.368544D-01 -0.225517D-02  0.293796D-02 -0.599890D-03  0.173618D-01
      7  0.398939D-01 -0.755362D-03  0.257745D-02 -0.400459D-03  0.180676D-01
      8  0.231581D-02 -0.627217D-02  0.378061D-02 -0.716439D-03  0.195649D-01
      9  0.199754D-02 -0.108519D-02  0.204116D-02 -0.320311D-03  0.208672D-01
     10  0.155380D-02  0.146957D-04  0.186275D-02 -0.318021D-03  0.203737D-01
     11  0.410815D-01  0.932093D-01 -0.272998D-01  0.496101D-02 -0.195439D-03
     12 -0.523566D-03  0.560802D-01 -0.242251D-01 -0.253504D-02 -0.437265D-03
     13  0.154844D-01 -0.235996D-01  0.897700D-02 -0.142990D-02  0.110078D-01
     14  0.826840D-02  0.103797D-01 -0.260682D-02  0.479894D-03 -0.128972D-01
     15  0.139737D-01  0.127531D-01 -0.286669D-02  0.640824D-03 -0.140838D-01
     16 -0.185791D-01  0.818253D-03 -0.192773D-02  0.208239D-03  0.112309D-01
     17 -0.227633D-01  0.541203D-03 -0.221462D-02  0.137153D-03  0.120477D-01
     18  0.418209D-02 -0.761057D-03  0.648220D-03 -0.307290D-04 -0.794029D-02
     19  0.677353D-02 -0.574984D-02  0.539145D-02 -0.989225D-03  0.178013D-01
     20 -0.877278D-03 -0.102434D-02  0.717755D-03 -0.796084D-04  0.165003D-01
     21 -0.650036D-03 -0.165758D-02  0.769501D-03 -0.618278D-04  0.190025D-01
     22 -0.207929D-02  0.352184D-02 -0.263957D-02  0.459383D-03 -0.174475D-01
     23 -0.227633D-02  0.371298D-02 -0.269136D-02  0.448987D-03 -0.186538D-01
     24 -0.901102D-03  0.121362D-02 -0.156170D-02  0.224582D-03 -0.173124D-01
     25  0.215142D-02  0.178286D-01  0.630096D-01  0.429923D-02  0.554531D-03
     26 -0.809915D-03  0.307417D-05 -0.136573D-03 -0.230393D-04  0.387678D-04
     27 -0.906947D-02 -0.630990D-02  0.114743D-02 -0.307278D-03  0.120508D-01
     28  0.836674D-02  0.575824D-02 -0.115214D-02  0.284320D-03 -0.125703D-01
     29 -0.741807D-03  0.198855D-03 -0.230329D-03 -0.176237D-03  0.696213D-04
     30  0.493855D-04  0.693116D-04 -0.678369D-04  0.327998D-03  0.203626D-04
     31 -0.137307D-02 -0.972121D-03  0.171061D-03 -0.404477D-04  0.201773D-03
     32 -0.323276D-03 -0.796295D-03  0.668834D-03 -0.130387D-03 -0.188361D-03
     33 -0.236478D-02 -0.953119D-03 -0.332742D-03  0.580390D-04  0.369658D-03
     34 -0.902726D-02  0.250750D-03 -0.896123D-03  0.114400D-03  0.198062D-02
     35 -0.797747D-02  0.426576D-03 -0.398350D-03  0.244603D-04  0.159049D-02
     36 -0.100190D-01  0.269752D-03 -0.139993D-02  0.212886D-03  0.214851D-02
     37  0.105557D-01  0.364303D-03  0.787630D-03 -0.540792D-04 -0.226533D-02
     38  0.116055D-01  0.540129D-03  0.128540D-02 -0.144018D-03 -0.265546D-02
     39  0.956395D-02  0.383306D-03  0.283827D-03  0.444075D-04 -0.209744D-02
                6             7             8             9            10 
      6  0.456739D+00
      7  0.514357D-01  0.459515D+00
      8  0.427909D-02  0.439556D-02  0.458397D+00
      9  0.538320D-02  0.528067D-02  0.549964D-01  0.457083D+00
     10  0.531649D-02  0.569441D-02  0.552630D-01  0.554240D-01  0.459124D+00
     11  0.636236D-02  0.725087D-02  0.273486D-02  0.121440D-02  0.647279D-03
     12  0.948730D-03  0.262308D-03  0.273131D-02  0.168723D-02  0.175536D-02
     13 -0.298801D-01 -0.300555D-01  0.109794D-01 -0.327530D-02 -0.421911D-02
     14  0.184488D-01  0.637193D-03 -0.557843D-03 -0.516638D-02  0.407992D-03
     15  0.112149D-02  0.172950D-01 -0.687591D-03 -0.176704D-03 -0.451274D-02
     16  0.158050D-01 -0.128481D-01 -0.432398D-02  0.132444D-01 -0.280777D-02
     17 -0.125736D-01  0.171763D-01 -0.481999D-02 -0.220098D-02  0.133447D-01
     18  0.778959D-02  0.791770D-02 -0.568162D-03 -0.250548D-02 -0.251761D-02
     19 -0.508805D-02 -0.578093D-02  0.152466D-01 -0.313116D-01 -0.317767D-01
     20  0.174194D-01 -0.328863D-02 -0.295934D-01  0.225397D-01 -0.296899D-01
     21 -0.370000D-02  0.178792D-01 -0.301840D-01 -0.297541D-01  0.211474D-01
     22 -0.339262D-02 -0.135665D-02  0.205408D-01  0.176551D-01  0.302638D-02
     23 -0.133114D-02 -0.336667D-02  0.209364D-01  0.286297D-02  0.186566D-01
     24 -0.391476D-02 -0.411545D-02  0.313460D-02  0.181534D-01  0.186638D-01
     25  0.852079D-03  0.548274D-03  0.115581D-03  0.541557D-03  0.668715D-03
     26 -0.154971D-01  0.161532D-01 -0.455887D-03 -0.505892D-02  0.520302D-02
     27 -0.172604D-02 -0.173500D-01  0.412456D-03  0.596389D-02 -0.532906D-03
     28  0.187113D-01  0.202706D-02 -0.963962D-03 -0.700210D-04 -0.580019D-02
     29  0.657276D-02 -0.361116D-02 -0.780312D-03 -0.860220D-03  0.263028D-04
     30  0.492309D-04 -0.117425D-03  0.894522D-04 -0.285246D-03  0.249907D-03
     31  0.101114D-01 -0.100223D-01  0.247232D-03 -0.158989D-01  0.155013D-01
     32  0.135250D-01 -0.172248D-01  0.165667D-01  0.418569D-03 -0.183698D-01
     33  0.171788D-01 -0.133537D-01 -0.162589D-01  0.183272D-01 -0.823676D-03
     34 -0.478203D-02  0.164820D-01 -0.303799D-02 -0.161985D-01  0.194910D-01
     35 -0.136842D-02  0.927945D-02  0.132815D-01  0.118964D-03 -0.143800D-01
     36  0.228532D-02  0.131506D-01 -0.195442D-01  0.180276D-01  0.316610D-02
     37 -0.160976D-01  0.422820D-02  0.310409D-02 -0.197084D-01  0.162281D-01
     38 -0.126840D-01 -0.297435D-02  0.194236D-01 -0.339087D-02 -0.176430D-01
     39 -0.903023D-02  0.896778D-03 -0.134021D-01  0.145178D-01 -0.968419D-04
               11            12            13            14            15 
     11  0.745262D-01
     12 -0.283603D-01  0.458047D-01
     13  0.744495D-02  0.912573D-02  0.148631D+00
     14  0.818614D-05 -0.372314D-02 -0.519752D-01  0.765196D-01
     15  0.150860D-02 -0.405172D-02 -0.552192D-01  0.131269D-01  0.832146D-01
     16 -0.332960D-02 -0.105867D-02 -0.320334D-01 -0.511642D-01  0.142555D-01
     17 -0.432874D-02 -0.126476D-02 -0.333309D-01  0.145732D-01 -0.542621D-01
     18 -0.129725D-02  0.966952D-03  0.244398D-01 -0.617593D-03  0.202279D-03
     19 -0.532247D-03  0.520493D-02  0.156648D-01 -0.159115D-02 -0.251360D-02
     20  0.392116D-02 -0.118072D-03 -0.687094D-02 -0.819862D-02  0.398097D-02
     21  0.508880D-02 -0.328001D-03 -0.417466D-02  0.331757D-02 -0.846009D-02
     22 -0.284227D-02 -0.190051D-02 -0.371248D-02  0.398157D-02  0.535862D-03
     23 -0.325220D-02 -0.188127D-02 -0.463542D-02  0.498268D-03  0.461035D-02
     24 -0.240029D-02 -0.986697D-03  0.372137D-02  0.200378D-02  0.186209D-02
     25  0.109195D-01  0.107748D+00  0.628737D-03  0.370999D-03  0.554356D-03
     26 -0.629846D-03 -0.510429D-04 -0.151138D-02  0.114669D-01 -0.106585D-01
     27 -0.278679D-03  0.166294D-02  0.138049D-01 -0.326641D-01 -0.175035D-01
     28 -0.987067D-03 -0.154874D-02 -0.172345D-01  0.175107D-01  0.362609D-01
     29 -0.296129D-03 -0.670155D-04 -0.424111D-02  0.494015D-02 -0.155319D-03
     30 -0.195435D-03 -0.220717D-03  0.235257D-03 -0.302123D-03  0.244866D-04
     31 -0.198380D-03  0.122891D-03  0.182182D-02  0.129906D-01 -0.147211D-01
     32 -0.160051D-02  0.899593D-03  0.262527D-02  0.118715D-01 -0.131600D-01
     33  0.982878D-03 -0.582829D-03  0.405634D-03  0.113136D-01 -0.136047D-01
     34 -0.264470D-02 -0.219870D-03 -0.475831D-02 -0.161661D-01 -0.611645D-02
     35 -0.404683D-02  0.556832D-03 -0.395486D-02 -0.172851D-01 -0.455528D-02
     36 -0.146344D-02 -0.925590D-03 -0.617449D-02 -0.178430D-01 -0.500002D-02
     37  0.349740D-02 -0.746187D-05  0.455998D-02  0.625353D-02  0.176411D-01
     38  0.209527D-02  0.769241D-03  0.536343D-02  0.513447D-02  0.192022D-01
     39  0.467866D-02 -0.713181D-03  0.314380D-02  0.457658D-02  0.187575D-01
               16            17            18            19            20 
     16  0.111801D+00
     17 -0.475882D-02  0.114943D+00
     18 -0.396845D-01 -0.404142D-01  0.587700D-01
     19 -0.850208D-02 -0.683327D-02  0.396808D-02  0.186762D+00
     20  0.219836D-01 -0.549995D-02 -0.553240D-02  0.197770D-02  0.193063D+00
     21 -0.588022D-02  0.200435D-01 -0.534968D-02 -0.207404D-03  0.227027D-02
     22 -0.490059D-02  0.266356D-02  0.148131D-02 -0.886030D-01 -0.932328D-01
     23  0.319578D-02 -0.494991D-02  0.144045D-02 -0.894765D-01 -0.122933D-01
     24 -0.590867D-02 -0.544532D-02  0.400713D-02 -0.108142D-01 -0.922153D-01
     25 -0.829460D-03 -0.107974D-02  0.388739D-03  0.490355D-04  0.712426D-03
     26 -0.321562D-01  0.330327D-01 -0.679829D-03  0.223315D-03 -0.922936D-02
     27  0.532922D-01  0.167422D-01 -0.355267D-01 -0.194728D-02  0.845435D-02
     28 -0.153515D-01 -0.531775D-01  0.343461D-01  0.488484D-03 -0.620342D-03
     29 -0.169465D-03  0.866796D-03 -0.125242D-02 -0.158022D-02  0.116456D-02
     30 -0.294779D-04 -0.301367D-05  0.747689D-04  0.968937D-04  0.156071D-04
     31 -0.410683D-02  0.397271D-02  0.395151D-04 -0.622465D-03 -0.524716D-02
     32 -0.182622D-02 -0.304993D-03  0.884791D-03  0.606880D-02  0.945233D-04
     33  0.857770D-03  0.190027D-02 -0.880136D-03 -0.609391D-02  0.722865D-02
     34  0.553794D-02  0.973715D-02  0.119171D-01 -0.276626D-02 -0.531959D-02
     35  0.781855D-02  0.545945D-02  0.127624D-01  0.392500D-02  0.220897D-04
     36  0.105025D-01  0.766472D-02  0.109974D-01 -0.823771D-02  0.715622D-02
     37 -0.987076D-02 -0.718104D-02 -0.116365D-01  0.155817D-02 -0.837357D-02
     38 -0.759014D-02 -0.114587D-01 -0.107912D-01  0.824943D-02 -0.303189D-02
     39 -0.490616D-02 -0.925347D-02 -0.125561D-01 -0.391328D-02  0.410224D-02
               21            22            23            24            25 
     21  0.195524D+00
     22 -0.119716D-01  0.121391D+00
     23 -0.937275D-01  0.359714D-01  0.122766D+00
     24 -0.922993D-01  0.369197D-01  0.370533D-01  0.121794D+00
     25  0.131969D-02 -0.551161D-03 -0.839011D-03 -0.695146D-03  0.171629D+00
     26  0.864109D-02  0.280247D-02 -0.261985D-02  0.180306D-03 -0.195026D-03
     27  0.104478D-02 -0.286775D-02 -0.111830D-02 -0.357976D-02 -0.600071D-03
     28 -0.812516D-02  0.146714D-02  0.343488D-02  0.337393D-02  0.382005D-03
     29 -0.449316D-03  0.559207D-03  0.298970D-03  0.100356D-04 -0.333897D-03
     30 -0.119632D-03 -0.238927D-04 -0.894114D-05  0.400630D-04  0.305386D-03
     31  0.588415D-02 -0.184000D-01  0.184549D-01 -0.140073D-03  0.387763D-04
     32 -0.750734D-02  0.190341D-01  0.368607D-03 -0.180323D-01 -0.169606D-03
     33  0.388143D-03 -0.392352D-03 -0.191217D-01  0.180382D-01  0.224024D-03
     34  0.825237D-02 -0.178007D-01  0.186033D-01 -0.104137D-02 -0.266207D-03
     35 -0.513912D-02  0.196334D-01  0.517029D-03 -0.189336D-01 -0.474589D-03
     36  0.275636D-02  0.206941D-03 -0.189733D-01  0.171369D-01 -0.809595D-04
     37  0.624217D-02 -0.182811D-01  0.179193D-01  0.864682D-03  0.400918D-03
     38 -0.714932D-02  0.191531D-01 -0.166984D-03 -0.170276D-01  0.192536D-03
     39  0.746164D-03 -0.273421D-03 -0.196573D-01  0.190429D-01  0.586166D-03
               26            27            28            29            30 
     26  0.220320D-01
     27 -0.111147D-01  0.416092D-01
     28 -0.112810D-01 -0.290904D-01  0.419334D-01
     29 -0.166302D-03  0.330583D-03  0.156855D-02  0.352749D-01
     30  0.885853D-04 -0.555985D-05 -0.751560D-04 -0.211826D-02  0.675989D-02
     31 -0.363120D-02  0.927200D-03  0.240806D-03  0.150798D-02 -0.168422D-03
     32 -0.571810D-02  0.140758D-02  0.195490D-02  0.194186D-02 -0.128993D-03
     33 -0.588801D-02  0.286005D-02  0.737529D-03  0.239561D-02 -0.143480D-03
     34  0.434967D-02 -0.228859D-02 -0.676778D-03 -0.190340D-02  0.817328D-04
     35  0.226277D-02 -0.180821D-02  0.103732D-02 -0.146953D-02  0.121161D-03
     36  0.209285D-02 -0.355739D-03 -0.180054D-03 -0.101578D-02  0.106674D-03
     37  0.450805D-02 -0.855062D-03 -0.141106D-02 -0.801785D-03  0.103236D-04
     38  0.242115D-02 -0.374682D-03  0.303035D-03 -0.367912D-03  0.497523D-04
     39  0.225123D-02  0.107779D-02 -0.914338D-03  0.858363D-04  0.352651D-04
               31            32            33            34            35 
     31  0.275478D-01
     32  0.142810D-02  0.284905D-01
     33  0.162848D-02  0.185843D-02  0.286471D-01
     34  0.129093D-01 -0.138290D-01 -0.133290D-01  0.323976D-01
     35 -0.132103D-01  0.132333D-01 -0.130991D-01  0.565922D-02  0.321029D-01
     36 -0.130100D-01 -0.133987D-01  0.136896D-01  0.615926D-02  0.577051D-02
     37  0.129235D-01 -0.136354D-01 -0.139077D-01  0.882156D-02 -0.177373D-01
     38 -0.131962D-01  0.134270D-01 -0.136778D-01 -0.179168D-01  0.870641D-02
     39 -0.129958D-01 -0.132050D-01  0.131109D-01 -0.174167D-01 -0.176260D-01
               36            37            38            39 
     36  0.328588D-01
     37 -0.180096D-01  0.331011D-01
     38 -0.183984D-01  0.654228D-02  0.331655D-01
     39  0.868991D-02  0.626993D-02  0.606068D-02  0.323766D-01
 Leave Link  716 at Sat May 24 08:12:17 2025, MaxMem=  3758096384 cpu:               0.1 elap:               0.1
 (Enter /apps/easybuild-2022/easybuild/software/Compiler/NVHPC/22.11-CUDA-11.7.0/Gaussian/g16c01-CUDA-11.7.0/g16/l103.exe)

 GradGradGradGradGradGradGradGradGradGradGradGradGradGradGradGradGradGrad
 Berny optimization.
 Red2BG is reusing G-inverse.
 Internal  Forces:  Max     0.000659152 RMS     0.000133095
 Search for a local minimum.
 Step number   1 out of a maximum of   49
 All quantities printed in internal units (Hartrees-Bohrs-Radians)
 RMS Force = .13310D-03 SwitMx=.10000D-02 MixMth= 2
 Mixed Optimization -- En-DIIS/RFO-DIIS
 Second derivative matrix not updated -- analytic derivatives used.
 ITU=  0
     Eigenvalues ---   -0.06221   0.00016   0.00450   0.00660   0.03453
     Eigenvalues ---    0.06268   0.06629   0.08107   0.09952   0.10349
     Eigenvalues ---    0.10811   0.17653   0.18439   0.19927   0.22505
     Eigenvalues ---    0.24105   0.24575   0.26128   0.28161   0.39641
     Eigenvalues ---    0.41258   0.42604   0.43383   0.52063   0.53202
     Eigenvalues ---    0.58968   1.16430
 Eigenvalue     1 is  -6.22D-02 should be greater than     0.000000 Eigenvector:
                          A2        R3        A15       A1        R2
   1                    0.68222   0.46375  -0.44872   0.32801  -0.07051
                          A3        A9        A4        A5        D3
   1                   -0.05531  -0.01640   0.01592   0.01575   0.01198
 RFO step:  Lambda=-6.22194692D-02 EMin=-6.22145335D-02
 I=     1 Eig=   -6.22D-02 Dot1= -3.33D-04
 I=     1 Stepn= -6.00D-01 RXN=   6.00D-01 EDone=F
 Mixed    1 eigenvectors in step.  Raw Step.Grad=  3.33D-04.
 RFO eigenvector is Hessian eigenvector with negative curvature.
 Taking step of  6.00D-01 in eigenvector direction(s).  Step.Grad=  1.47D-05.
 Linear search not attempted -- first point.
 Maximum step size (   0.300) exceeded in Quadratic search.
    -- Step size not scaled.
 Iteration  1 RMS(Cart)=  0.23200318 RMS(Int)=  0.05582029
 Iteration  2 RMS(Cart)=  0.12235065 RMS(Int)=  0.01306390
 Iteration  3 RMS(Cart)=  0.01798131 RMS(Int)=  0.00038799
 Iteration  4 RMS(Cart)=  0.00044275 RMS(Int)=  0.00002325
 Iteration  5 RMS(Cart)=  0.00000050 RMS(Int)=  0.00002324
 ITry= 1 IFail=0 DXMaxC= 8.90D-01 DCOld= 1.00D+10 DXMaxT= 3.00D-01 DXLimC= 3.00D+00 Rises=F
 Variable       Old X    -DE/DX   Delta X   Delta X   Delta X     New X
                                 (Linear)    (Quad)   (Total)
    R1        2.88947   0.00007   0.00000   0.00697   0.00697   2.89643
    R2        2.15278   0.00006   0.00000   0.04231   0.04231   2.19509
    R3        3.70967  -0.00009   0.00000  -0.27825  -0.27825   3.43142
    R4        1.82878  -0.00004   0.00000   0.00339   0.00339   1.83217
    R5        2.92754   0.00005   0.00000  -0.00688  -0.00688   2.92066
    R6        2.51090   0.00000   0.00000   0.00643   0.00643   2.51733
    R7        2.50681  -0.00000   0.00000   0.00610   0.00610   2.51291
    R8        2.49676   0.00001   0.00000   0.00411   0.00411   2.50087
    R9        2.50171   0.00000   0.00000   0.00334   0.00334   2.50505
   R10        2.49918   0.00001   0.00000   0.00300   0.00300   2.50217
    A1        2.33805  -0.00046   0.00000  -0.19680  -0.19680   2.14125
    A2        2.23129  -0.00010   0.00000  -0.40933  -0.40933   1.82196
    A3        1.96292  -0.00007   0.00000   0.03318   0.03317   1.99609
    A4        1.87400   0.00004   0.00000  -0.00955  -0.00960   1.86439
    A5        1.90068   0.00006   0.00000  -0.00945  -0.00949   1.89119
    A6        1.90354  -0.00002   0.00000  -0.00522  -0.00523   1.89831
    A7        1.89665  -0.00002   0.00000  -0.00633  -0.00634   1.89030
    A8        1.92619   0.00001   0.00000  -0.00281  -0.00290   1.92328
    A9        1.91243   0.00004   0.00000   0.00984   0.00982   1.92225
   A10        1.90861   0.00001   0.00000   0.00142   0.00142   1.91003
   A11        1.91378   0.00001   0.00000   0.00143   0.00142   1.91520
   A12        1.90984  -0.00002   0.00000  -0.00466  -0.00468   1.90516
   A13        1.90914  -0.00002   0.00000  -0.00456  -0.00458   1.90457
   A14        1.90999  -0.00001   0.00000  -0.00349  -0.00349   1.90650
   A15        1.67842   0.00066   0.00000   0.26923   0.26923   1.94765
    D1       -0.22695   0.00000   0.00000  -0.00032  -0.00032  -0.22727
    D2        1.86714  -0.00003   0.00000   0.00684   0.00678   1.87392
    D3       -2.33031   0.00003   0.00000  -0.00719  -0.00713  -2.33744
    D4       -3.12587   0.00000   0.00000   0.00118   0.00118  -3.12469
    D5       -3.13667  -0.00000   0.00000  -0.00351  -0.00351  -3.14018
    D6       -3.12202  -0.00001   0.00000   0.00026   0.00026  -3.12176
    D7       -1.02874  -0.00000   0.00000   0.00142   0.00143  -1.02731
    D8        1.06556  -0.00001   0.00000  -0.00111  -0.00111   1.06445
    D9        1.08427  -0.00000   0.00000  -0.00506  -0.00507   1.07921
   D10       -3.10563   0.00000   0.00000  -0.00390  -0.00390  -3.10953
   D11       -1.01134  -0.00001   0.00000  -0.00643  -0.00643  -1.01777
   D12       -1.01634   0.00001   0.00000   0.00524   0.00524  -1.01110
   D13        1.07694   0.00001   0.00000   0.00640   0.00641   1.08335
   D14       -3.11195   0.00000   0.00000   0.00388   0.00387  -3.10808
         Item               Value     Threshold  Converged?
 Maximum Force            0.000659     0.000450     NO 
 RMS     Force            0.000133     0.000300     YES
 Maximum Displacement     0.889815     0.001800     NO 
 RMS     Displacement     0.334003     0.001200     NO 
 Predicted change in Energy=-1.153121D-02
 Lowest energy point so far.  Saving SCF results.
 GradGradGradGradGradGradGradGradGradGradGradGradGradGradGradGradGradGrad

 Leave Link  103 at Sat May 24 08:12:17 2025, MaxMem=  3758096384 cpu:               0.1 elap:               0.1
 (Enter /apps/easybuild-2022/easybuild/software/Compiler/NVHPC/22.11-CUDA-11.7.0/Gaussian/g16c01-CUDA-11.7.0/g16/l202.exe)
                          Input orientation:                          
 ---------------------------------------------------------------------
 Center     Atomic      Atomic             Coordinates (Angstroms)
 Number     Number       Type             X           Y           Z
 ---------------------------------------------------------------------
      1          6           0       -1.320242    0.428469   -0.543283
      2          8           0       -3.676061    0.099176    0.191977
      3          6           0        0.202247    0.373678   -0.711441
      4          6           0        0.953163   -0.260063    0.481543
      5          9           0        2.257747   -0.242728    0.259832
      6          9           0        0.690074    0.427566    1.583906
      7          9           0        0.557414   -1.513122    0.644176
      8          9           0        0.443708   -0.350361   -1.803225
      9          9           0        0.650428    1.614880   -0.875309
     10          8           0       -1.881380   -0.160762    0.285709
     11          1           0       -4.034670   -0.430823    0.920339
 ---------------------------------------------------------------------
                    Distance matrix (angstroms):
                    1          2          3          4          5
     1  C    0.000000
     2  O    2.489765   0.000000
     3  C    1.532727   3.991590   0.000000
     4  C    2.587028   4.652163   1.545547   0.000000
     5  F    3.727936   5.944038   2.355506   1.323403   0.000000
     6  F    2.926826   4.594393   2.347233   1.325615   2.158718
     7  F    2.950495   4.552615   2.350289   1.324093   2.157025
     8  F    2.303378   4.599502   1.332114   2.342619   2.749278
     9  F    2.324081   4.706907   1.329775   2.334118   2.706054
    10  O    1.161592   1.815829   2.370956   2.843035   4.140019
    11  H    3.201358   0.969541   4.611008   5.010009   6.329784
                    6          7          8          9         10
     6  F    0.000000
     7  F    2.160315   0.000000
     8  F    3.484039   2.711958   0.000000
     9  F    2.731122   3.478776   2.183102   0.000000
    10  O    2.940038   2.811599   3.131394   3.303168   0.000000
    11  H    4.847718   4.725978   5.242151   5.418432   2.261050
                   11
    11  H    0.000000
 Symmetry turned off by external request.
 Stoichiometry    C3HF5O2
 Rotational constants (GHZ):           1.9968192           0.9449773           0.8304852
 Leave Link  202 at Sat May 24 08:12:17 2025, MaxMem=  3758096384 cpu:               0.1 elap:               0.0
 (Enter /apps/easybuild-2022/easybuild/software/Compiler/NVHPC/22.11-CUDA-11.7.0/Gaussian/g16c01-CUDA-11.7.0/g16/l301.exe)
 Standard basis: def2TZVPP (5D, 7F)
 Ernie: Thresh=  0.10000D-02 Tol=  0.10000D-05 Strict=F.
   324 basis functions,   527 primitive gaussians,   375 cartesian basis functions
    40 alpha electrons       40 beta electrons
       nuclear repulsion energy       613.4058206238 Hartrees.
 IExCor= 4336 DFT=T Ex+Corr=M062X ExCW=0 ScaHFX=  0.540000
 ScaDFX=  1.000000  1.000000  1.000000  1.000000 ScalE2=  1.000000  1.000000
 IRadAn=      5 IRanWt=     -1 IRanGd=            0 ICorTp=0 IEmpDi=  4
 NAtoms=   11 NActive=   11 NUniq=   11 SFac= 1.00D+00 NAtFMM=   60 NAOKFM=F Big=F
 Integral buffers will be    131072 words long.
 Raffenetti 2 integral format.
 Two-electron integral symmetry is turned off.
 Leave Link  301 at Sat May 24 08:12:17 2025, MaxMem=  3758096384 cpu:               0.1 elap:               0.1
 (Enter /apps/easybuild-2022/easybuild/software/Compiler/NVHPC/22.11-CUDA-11.7.0/Gaussian/g16c01-CUDA-11.7.0/g16/l302.exe)
 NPDir=0 NMtPBC=     1 NCelOv=     1 NCel=       1 NClECP=     1 NCelD=      1
         NCelK=      1 NCelE2=     1 NClLst=     1 CellRange=     0.0.
 One-electron integrals computed using PRISM.
   1 Symmetry operations used in ECPInt.
 ECPInt:  NShTT=    6786 NPrTT=   21959 LenC2=    6312 LenP2D=   15436.
 LDataN:  DoStor=T MaxTD1= 6 Len=  172
 NBasis=   324 RedAO= T EigKep=  2.77D-04  NBF=   324
 NBsUse=   324 1.00D-06 EigRej= -1.00D+00 NBFU=   324
 Precomputing XC quadrature grid using
 IXCGrd= 4 IRadAn=           5 IRanWt=          -1 IRanGd=           0 AccXCQ= 0.00D+00.
 Generated NRdTot=       0 NPtTot=           0 NUsed=           0 NTot=          32
 NSgBfM=   372   372   372   372   372 MxSgAt=    11 MxSgA2=    11.
 Leave Link  302 at Sat May 24 08:12:18 2025, MaxMem=  3758096384 cpu:               1.0 elap:               0.2
 (Enter /apps/easybuild-2022/easybuild/software/Compiler/NVHPC/22.11-CUDA-11.7.0/Gaussian/g16c01-CUDA-11.7.0/g16/l303.exe)
 DipDrv:  MaxL=1.
 Leave Link  303 at Sat May 24 08:12:18 2025, MaxMem=  3758096384 cpu:               0.1 elap:               0.0
 (Enter /apps/easybuild-2022/easybuild/software/Compiler/NVHPC/22.11-CUDA-11.7.0/Gaussian/g16c01-CUDA-11.7.0/g16/l401.exe)
 Initial guess from the checkpoint file:  "1642764945472630600001_r13_insertion_ROR_11_10_1_2_IRC_R_prod.chk"
 B after Tr=    -0.079580    0.038190   -0.042358
         Rot=    0.999456    0.004327    0.025210    0.020808 Ang=   3.78 deg.
 Guess basis will be translated and rotated to current coordinates.
 JPrj=2 DoOrth=T DoCkMO=T.
 Generating alternative initial guess.
 ExpMin= 9.52D-02 ExpMax= 3.55D+04 ExpMxC= 1.21D+03 IAcc=3 IRadAn=         5 AccDes= 0.00D+00
 Harris functional with IExCor= 1009 and IRadAn=       5 diagonalized for initial guess.
 HarFok:  IExCor= 1009 AccDes= 0.00D+00 IRadAn=         5 IDoV= 1 UseB2=F ITyADJ=14
 ICtDFT=  3500011 ScaDFX=  1.000000  1.000000  1.000000  1.000000
 FoFCou: FMM=F IPFlag=           0 FMFlag=      100000 FMFlg1=           0
         NFxFlg=           0 DoJE=T BraDBF=F KetDBF=T FulRan=T
         wScrn=  0.000000 ICntrl=       500 IOpCl=  0 I1Cent=   200000004 NGrid=           0
         NMat0=    1 NMatS0=      1 NMatT0=    0 NMatD0=    1 NMtDS0=    0 NMtDT0=    0
 Symmetry not used in FoFCou.
 Harris En= -764.040450374216    
 Leave Link  401 at Sat May 24 08:12:18 2025, MaxMem=  3758096384 cpu:               3.6 elap:               0.6
 (Enter /apps/easybuild-2022/easybuild/software/Compiler/NVHPC/22.11-CUDA-11.7.0/Gaussian/g16c01-CUDA-11.7.0/g16/l502.exe)
 Keep R1 ints in memory in canonical form, NReq=1412617130.
 FoFCou: FMM=F IPFlag=           0 FMFlag=           0 FMFlg1=           0
         NFxFlg=           0 DoJE=F BraDBF=F KetDBF=F FulRan=T
         wScrn=  0.000000 ICntrl=       600 IOpCl=  0 I1Cent=           0 NGrid=           0
         NMat0=    1 NMatS0=  52650 NMatT0=    0 NMatD0=    1 NMtDS0=    0 NMtDT0=    0
 Symmetry not used in FoFCou.
 Two-electron integral symmetry not used.
 Closed shell SCF:
 Using DIIS extrapolation, IDIIS=  1040.
 NGot=  3758096384 LenX=  2371771924 LenY=  2371630858
 Requested convergence on RMS density matrix=1.00D-08 within  32 cycles.
 Requested convergence on MAX density matrix=1.00D-06.
 Requested convergence on             energy=1.00D-06.
 No special actions if energy rises.
 Integral accuracy reduced to 1.0D-05 until final iterations.

 Cycle   1  Pass 0  IDiag  1:
 E= -764.302909298684    
 DIIS: error= 1.48D-02 at cycle   1 NSaved=   1.
 NSaved= 1 IEnMin= 1 EnMin= -764.302909298684     IErMin= 1 ErrMin= 1.48D-02
 ErrMax= 1.48D-02  0.00D+00 EMaxC= 1.00D-01 BMatC= 8.62D-02 BMatP= 8.62D-02
 IDIUse=3 WtCom= 8.52D-01 WtEn= 1.48D-01
 Coeff-Com:  0.100D+01
 Coeff-En:   0.100D+01
 Coeff:      0.100D+01
 Recover alternate guess density for next cycle.
 RMSDP=2.18D-03 MaxDP=8.17D-02              OVMax= 0.00D+00

 Cycle   2  Pass 0  IDiag  1:
 E= -764.084471592552     Delta-E=        0.218437706132 Rises=F Damp=F
 Switch densities from cycles 1 and 2 for lowest energy.
 DIIS: error= 3.12D-02 at cycle   2 NSaved=   2.
 NSaved= 2 IEnMin= 1 EnMin= -764.302909298684     IErMin= 1 ErrMin= 1.48D-02
 ErrMax= 3.12D-02  0.00D+00 EMaxC= 1.00D+00 BMatC= 4.95D-01 BMatP= 8.62D-02
 IDIUse=1 WtCom= 1.00D+00 WtEn= 0.00D+00
 Coeff-Com:  0.885D+00 0.115D+00
 Coeff:      0.885D+00 0.115D+00
 Gap=     0.127 Goal=   None    Shift=    0.000
 RMSDP=1.44D-03 MaxDP=7.17D-02 DE= 2.18D-01 OVMax= 4.90D-01

 Cycle   3  Pass 0  IDiag  1:
 E= -764.373152079457     Delta-E=       -0.288680486905 Rises=F Damp=F
 DIIS: error= 1.47D-02 at cycle   3 NSaved=   3.
 NSaved= 3 IEnMin= 3 EnMin= -764.373152079457     IErMin= 3 ErrMin= 1.47D-02
 ErrMax= 1.47D-02  0.00D+00 EMaxC= 1.00D+00 BMatC= 8.17D-02 BMatP= 8.62D-02
 IDIUse=1 WtCom= 1.00D+00 WtEn= 0.00D+00
 Coeff-Com:  0.139D+00 0.225D+00 0.637D+00
 Coeff:      0.139D+00 0.225D+00 0.637D+00
 Gap=     0.185 Goal=   None    Shift=    0.000
 RMSDP=8.23D-04 MaxDP=3.55D-02 DE=-2.89D-01 OVMax= 1.72D-01

 Cycle   4  Pass 0  IDiag  1:
 E= -764.430632418848     Delta-E=       -0.057480339391 Rises=F Damp=F
 DIIS: error= 5.31D-03 at cycle   4 NSaved=   4.
 NSaved= 4 IEnMin= 4 EnMin= -764.430632418848     IErMin= 4 ErrMin= 5.31D-03
 ErrMax= 5.31D-03  0.00D+00 EMaxC= 1.00D+00 BMatC= 1.22D-02 BMatP= 8.17D-02
 IDIUse=1 WtCom= 1.00D+00 WtEn= 0.00D+00
 Coeff-Com: -0.362D-01 0.621D-01 0.326D+00 0.648D+00
 Coeff:     -0.362D-01 0.621D-01 0.326D+00 0.648D+00
 Gap=     0.202 Goal=   None    Shift=    0.000
 RMSDP=3.99D-04 MaxDP=2.15D-02 DE=-5.75D-02 OVMax= 9.58D-02

 Cycle   5  Pass 0  IDiag  1:
 E= -764.441489530856     Delta-E=       -0.010857112008 Rises=F Damp=F
 DIIS: error= 2.17D-03 at cycle   5 NSaved=   5.
 NSaved= 5 IEnMin= 5 EnMin= -764.441489530856     IErMin= 5 ErrMin= 2.17D-03
 ErrMax= 2.17D-03  0.00D+00 EMaxC= 1.00D+00 BMatC= 3.04D-03 BMatP= 1.22D-02
 IDIUse=1 WtCom= 1.00D+00 WtEn= 0.00D+00
 Coeff-Com: -0.225D-01-0.125D-01-0.162D-01 0.345D+00 0.706D+00
 Coeff:     -0.225D-01-0.125D-01-0.162D-01 0.345D+00 0.706D+00
 Gap=     0.210 Goal=   None    Shift=    0.000
 RMSDP=1.10D-04 MaxDP=5.10D-03 DE=-1.09D-02 OVMax= 1.64D-02

 Cycle   6  Pass 0  IDiag  1:
 E= -764.444119588129     Delta-E=       -0.002630057273 Rises=F Damp=F
 DIIS: error= 6.82D-04 at cycle   6 NSaved=   6.
[...]
                                 (Linear)    (Quad)   (Total)
    R1        2.91897  -0.00000   0.00000   0.00001   0.00001   2.91898
    R2        2.36563  -0.00000   0.00000   0.00001   0.00001   2.36564
    R3        2.72692  -0.00000   0.00000  -0.00002  -0.00002   2.72690
    R4        1.83011  -0.00000   0.00000  -0.00000  -0.00000   1.83011
    R5        2.91591  -0.00000   0.00000  -0.00001  -0.00001   2.91590
    R6        2.53549  -0.00000   0.00000   0.00001   0.00001   2.53550
    R7        2.53556   0.00000   0.00000  -0.00001  -0.00001   2.53555
    R8        2.50438   0.00000   0.00000   0.00000   0.00000   2.50438
    R9        2.51213   0.00000   0.00000   0.00001   0.00001   2.51214
   R10        2.51212  -0.00000   0.00000  -0.00001  -0.00001   2.51212
    A1        1.86295  -0.00002   0.00000  -0.00005  -0.00005   1.86290
    A2        1.73806  -0.00000   0.00000  -0.00001  -0.00001   1.73804
    A3        2.09703  -0.00001   0.00000  -0.00001  -0.00001   2.09702
    A4        1.85867   0.00000   0.00000  -0.00003  -0.00003   1.85864
    A5        1.85824   0.00000   0.00000   0.00004   0.00004   1.85829
    A6        1.86803   0.00000   0.00000   0.00002   0.00002   1.86805
    A7        1.86818   0.00000   0.00000  -0.00002  -0.00002   1.86817
    A8        1.90903  -0.00000   0.00000  -0.00000  -0.00000   1.90903
    A9        1.92552   0.00000   0.00000   0.00000   0.00000   1.92553
   A10        1.92583  -0.00000   0.00000  -0.00002  -0.00002   1.92581
   A11        1.92567  -0.00000   0.00000   0.00002   0.00002   1.92569
   A12        1.89370   0.00000   0.00000   0.00001   0.00001   1.89371
   A13        1.89365   0.00000   0.00000  -0.00000  -0.00000   1.89365
   A14        1.89870   0.00000   0.00000  -0.00000  -0.00000   1.89870
   A15        1.94620  -0.00000   0.00000  -0.00001  -0.00001   1.94619
    D1        0.00250  -0.00000   0.00000  -0.00060  -0.00060   0.00190
    D2        2.12629  -0.00000   0.00000  -0.00061  -0.00061   2.12568
    D3       -2.12112   0.00000   0.00000  -0.00061  -0.00061  -2.12173
    D4        3.14097  -0.00000   0.00000   0.00006   0.00006   3.14104
    D5        3.13935   0.00000   0.00000   0.00002   0.00002   3.13937
    D6        3.14066  -0.00000   0.00000   0.00020   0.00020   3.14085
    D7       -1.05018   0.00000   0.00000   0.00019   0.00019  -1.04999
    D8        1.04848  -0.00000   0.00000   0.00019   0.00019   1.04866
    D9        1.02146   0.00000   0.00000   0.00024   0.00024   1.02169
   D10        3.11380   0.00000   0.00000   0.00023   0.00023   3.11403
   D11       -1.07072   0.00000   0.00000   0.00023   0.00023  -1.07050
   D12       -1.02378   0.00000   0.00000   0.00023   0.00023  -1.02355
   D13        1.06856   0.00000   0.00000   0.00023   0.00023   1.06879
   D14       -3.11596  -0.00000   0.00000   0.00022   0.00022  -3.11574
         Item               Value     Threshold  Converged?
 Maximum Force            0.000017     0.000450     YES
 RMS     Force            0.000003     0.000300     YES
 Maximum Displacement     0.000695     0.001800     YES
 RMS     Displacement     0.000231     0.001200     YES
 Predicted change in Energy=-1.129033D-09
 Optimization completed.
    -- Stationary point found.
                           ----------------------------
                           !   Optimized Parameters   !
                           ! (Angstroms and Degrees)  !
 --------------------------                            --------------------------
 ! Name  Definition              Value          Derivative Info.                !
 --------------------------------------------------------------------------------
 ! R1    R(1,3)                  1.5447         -DE/DX =    0.0                 !
 ! R2    R(1,10)                 1.2518         -DE/DX =    0.0                 !
 ! R3    R(2,10)                 1.443          -DE/DX =    0.0                 !
 ! R4    R(2,11)                 0.9685         -DE/DX =    0.0                 !
 ! R5    R(3,4)                  1.543          -DE/DX =    0.0                 !
 ! R6    R(3,8)                  1.3417         -DE/DX =    0.0                 !
 ! R7    R(3,9)                  1.3418         -DE/DX =    0.0                 !
 ! R8    R(4,5)                  1.3253         -DE/DX =    0.0                 !
 ! R9    R(4,6)                  1.3294         -DE/DX =    0.0                 !
 ! R10   R(4,7)                  1.3294         -DE/DX =    0.0                 !
 ! A1    A(3,1,10)             106.7389         -DE/DX =    0.0                 !
 ! A2    A(10,2,11)             99.5833         -DE/DX =    0.0                 !
 ! A3    A(1,3,4)              120.1511         -DE/DX =    0.0                 !
 ! A4    A(1,3,8)              106.4942         -DE/DX =    0.0                 !
 ! A5    A(1,3,9)              106.4694         -DE/DX =    0.0                 !
 ! A6    A(4,3,8)              107.0302         -DE/DX =    0.0                 !
 ! A7    A(4,3,9)              107.0389         -DE/DX =    0.0                 !
 ! A8    A(8,3,9)              109.3793         -DE/DX =    0.0                 !
 ! A9    A(3,4,5)              110.3244         -DE/DX =    0.0                 !
 ! A10   A(3,4,6)              110.3419         -DE/DX =    0.0                 !
 ! A11   A(3,4,7)              110.3328         -DE/DX =    0.0                 !
 ! A12   A(5,4,6)              108.5013         -DE/DX =    0.0                 !
 ! A13   A(5,4,7)              108.4983         -DE/DX =    0.0                 !
 ! A14   A(6,4,7)              108.7877         -DE/DX =    0.0                 !
 ! A15   A(1,10,2)             111.5088         -DE/DX =    0.0                 !
 ! D1    D(10,1,3,4)             0.1434         -DE/DX =    0.0                 !
 ! D2    D(10,1,3,8)           121.8276         -DE/DX =    0.0                 !
 ! D3    D(10,1,3,9)          -121.531          -DE/DX =    0.0                 !
 ! D4    D(3,1,10,2)           179.9644         -DE/DX =    0.0                 !
 ! D5    D(11,2,10,1)          179.8713         -DE/DX =    0.0                 !
 ! D6    D(1,3,4,5)            179.9464         -DE/DX =    0.0                 !
 ! D7    D(1,3,4,6)            -60.1711         -DE/DX =    0.0                 !
 ! D8    D(1,3,4,7)             60.0734         -DE/DX =    0.0                 !
 ! D9    D(8,3,4,5)             58.5252         -DE/DX =    0.0                 !
 ! D10   D(8,3,4,6)            178.4077         -DE/DX =    0.0                 !
 ! D11   D(8,3,4,7)            -61.3478         -DE/DX =    0.0                 !
 ! D12   D(9,3,4,5)            -58.6585         -DE/DX =    0.0                 !
 ! D13   D(9,3,4,6)             61.224          -DE/DX =    0.0                 !
 ! D14   D(9,3,4,7)           -178.5315         -DE/DX =    0.0                 !
 --------------------------------------------------------------------------------
 GradGradGradGradGradGradGradGradGradGradGradGradGradGradGradGradGradGrad

 Leave Link  103 at Sat May 24 08:24:41 2025, MaxMem=  3758096384 cpu:               0.1 elap:               0.1
 (Enter /apps/easybuild-2022/easybuild/software/Compiler/NVHPC/22.11-CUDA-11.7.0/Gaussian/g16c01-CUDA-11.7.0/g16/l9999.exe)

 ----------------------------------------------------------------------

 Electric dipole moment (input orientation):
 (Debye = 10**-18 statcoulomb cm , SI units = C m)
                  (au)            (Debye)         (10**-30 SI)
   Tot        0.124193D+01      0.315668D+01      0.105295D+02
   x         -0.670214D+00     -0.170352D+01     -0.568231D+01
   y         -0.451703D+00     -0.114811D+01     -0.382970D+01
   z          0.942961D+00      0.239677D+01      0.799476D+01

 Dipole polarizability, Alpha (input orientation).
 (esu units = cm**3 , SI units = C**2 m**2 J**-1)
 Alpha(0;0):
               (au)            (10**-24 esu)      (10**-40 SI)
   iso        0.507644D+02      0.752251D+01      0.836992D+01
   aniso      0.262064D+02      0.388339D+01      0.432085D+01
   xx         0.648161D+02      0.960475D+01      0.106867D+02
   yx         0.281104D+01      0.416553D+00      0.463478D+00
   yy         0.412364D+02      0.611060D+01      0.679896D+01
   zx        -0.763391D+01     -0.113123D+01     -0.125866D+01
   zy        -0.289802D+01     -0.429442D+00     -0.477819D+00
   zz         0.462408D+02      0.685217D+01      0.762407D+01

 ----------------------------------------------------------------------

 Dipole orientation:
     6         -3.18045834          0.56851097         -0.07650776
     8         -4.99909173          0.89976903          3.71103308
     6         -0.63737914          0.11258992         -1.43492147
     6          1.79312156         -0.32590711          0.11520915
     9          3.74688760         -0.67793892         -1.41147937
     9          2.26942304          1.66320832          1.57375936
     9          1.54439490         -2.35684515          1.57266694
     9         -0.96098184         -1.92978340         -2.90213032
     9         -0.22953112          2.14319880         -2.89757117
     8         -2.73577011          0.49207099          2.24569176
     1         -4.29781981          0.77233207          5.39664449

 Electric dipole moment (dipole orientation):
 (Debye = 10**-18 statcoulomb cm , SI units = C m)
                  (au)            (Debye)         (10**-30 SI)
   Tot        0.124193D+01      0.315668D+01      0.105295D+02
   x          0.000000D+00      0.000000D+00      0.000000D+00
   y          0.000000D+00      0.000000D+00      0.000000D+00
   z          0.124193D+01      0.315668D+01      0.105295D+02

 Dipole polarizability, Alpha (dipole orientation).
 (esu units = cm**3 , SI units = C**2 m**2 J**-1)
 Alpha(0;0):
               (au)            (10**-24 esu)      (10**-40 SI)
   iso        0.507644D+02      0.752251D+01      0.836992D+01
   aniso      0.262064D+02      0.388339D+01      0.432085D+01
   xx         0.520631D+02      0.771496D+01      0.858405D+01
   yx        -0.219470D+01     -0.325221D+00     -0.361858D+00
   yy         0.402818D+02      0.596915D+01      0.664157D+01
   zx        -0.110510D+02     -0.163759D+01     -0.182207D+01
   zy         0.200627D+01      0.297298D+00      0.330789D+00
   zz         0.599483D+02      0.888343D+01      0.988415D+01

 ----------------------------------------------------------------------
 Unable to Open any file for archive entry.
 1\1\GINC-SPARTAN-BM171\Freq\RM062X\def2TZVPP\C3H1F5O2\AKHALILOV\24-May
 -2025\0\\#P Geom=AllCheck Guess=TCheck SCRF=Check GenChk RM062X/def2TZ
 VPP Freq\\Gaussian input prepared by ASE\\0,1\C,-1.4161364236,0.480718
 0425,-0.8295723181\O,-3.3203802126,0.0212260854,0.2366191817\C,0.12167
 44719,0.368904882,-0.7368820153\C,0.7781437909,-0.2875326695,0.4956298
 051\F,2.0976480882,-0.2813240487,0.3724128668\F,0.4545106662,0.3770715
 014,1.6005145233\F,0.3720060217,-1.5472745708,0.6193008859\F,0.5183529
 878,-0.3291116874,-1.8118894461\F,0.5995788442,1.6200905983,-0.8172617
 837\O,-1.8784155666,-0.0298907553,0.2157375026\H,-3.4845546681,-0.4069
 66378,1.0896137979\\Version=ES64L-G16RevC.01\HF=-764.46271\RMSD=3.633e
 -09\RMSF=2.444e-06\ZeroPoint=0.0493584\Thermal=0.058947\ETot=-764.4037
 63\HTot=-764.4028188\GTot=-764.449292\Dipole=-0.6702144,-0.4517028,0.9
 429611\DipoleDeriv=0.0025894,-0.0109837,0.0009252,-0.050374,-0.1680309
 ,-0.1655483,0.0780819,-0.1685508,0.0714488,-0.8397966,-0.2153015,0.463
 0883,-0.0691486,-0.29588,-0.1003765,0.1770436,-0.0878068,-0.1915212,0.
 9141357,0.1079544,-0.1799194,0.211404,1.2448786,0.1477632,-0.380924,0.
 1568522,1.0541436,1.6235749,0.0565736,-0.1142448,-0.0997864,1.5262694,
 0.1420062,0.1915609,0.1292012,1.3254393,-1.0834329,0.0161513,0.0361219
 ,0.0955267,-0.2819553,0.0189866,-0.1180452,0.0249771,-0.3085708,-0.341
 4471,0.0760347,0.0561419,0.0860245,-0.4266873,-0.1932403,0.047639,-0.2
 82095,-0.7446833,-0.3575499,-0.1197029,-0.0247716,-0.1226504,-0.846824
 2,0.0383088,-0.0304164,0.1280534,-0.3080529,-0.4107463,0.0948008,0.185
 2326,0.1243495,-0.4013307,-0.1997802,0.1913858,-0.2390312,-0.6951629,-
 0.4384083,-0.2253151,0.0405712,-0.2507378,-0.7719951,0.0575536,0.02418
 39,0.0971808,-0.2955339,0.6656933,0.1936671,-0.4197054,0.0158071,0.084
 7212,0.2199494,-0.0704428,0.2041605,-0.200579,0.2653876,0.0261214,-0.0
 4344,0.0595855,0.3368343,0.0343774,-0.1100666,0.0370585,0.2930723\Pola
 r=64.8160913,2.8110385,41.2363911,-7.6339089,-2.8980201,46.2407549\PG=
 Unknown\NImag=0\\0.40755583,0.05913744,0.14832682,-0.14536203,-0.18478
 358,0.43326503,-0.05196407,-0.03524525,0.07257549,0.26394538,-0.031679
 92,-0.01004576,-0.00729529,0.02411888,0.13620693,0.06547744,-0.0070017
 3,-0.00678746,-0.06800930,-0.23962892,0.49010839,-0.16700377,0.0122087
 4,-0.01350387,0.01830222,-0.00013848,0.00003998,0.52970650,0.02771397,
 -0.04684204,0.00797317,0.00338246,0.01194812,0.00732648,0.01237629,0.5
 3386039,-0.04421832,0.00922252,-0.05614117,-0.00685714,0.00764195,0.00
 132727,-0.02492915,-0.02096864,0.56649166,-0.01497128,0.01215460,-0.02
 229930,0.00041554,-0.00081361,0.00139457,-0.09108103,0.03647867,-0.067
 05192,0.59690060,0.00187236,0.00542152,-0.00274947,-0.00354353,-0.0023
 2279,0.00065405,0.02183960,-0.06576621,0.05657061,-0.01004132,0.594654
 13,-0.00207679,-0.00358791,0.01136153,0.00671037,0.00042514,-0.0035420
 1,-0.03847868,0.05538137,-0.14143884,0.01903225,-0.01543630,0.61493618
 ,-0.00196716,0.00274834,-0.00524589,-0.00220080,-0.00018930,0.00057114
 ,-0.05143372,-0.00215218,0.00882118,-0.31818172,0.01486576,-0.00891640
 ,0.44393131,0.00087206,-0.00131497,0.00255308,0.00103073,0.00034121,-0
 .00027536,0.01667437,0.00218349,-0.00129048,0.01112569,-0.07727384,0.0
 0377921,0.00425854,0.08092135,-0.00153459,0.00237885,-0.00452768,-0.00
 180860,-0.00017340,0.00073493,-0.02813532,0.00032113,0.00399336,-0.001
 52789,0.00342608,-0.08163632,-0.03858170,0.00343044,0.07957058,0.00030
 058,-0.00148085,0.00347982,-0.00029900,-0.00021118,-0.00078114,0.00819
 023,-0.00384251,-0.00381755,-0.08403871,0.01982483,0.03268571,-0.03960
 343,0.02843459,0.05708669,0.10521579,-0.00015290,-0.00002723,-0.000635
 74,-0.00027821,0.00037697,0.00016999,0.00130845,-0.00050653,-0.0009873
 3,0.01874824,-0.11815686,-0.08785881,0.02188967,0.00442100,-0.01581648
 ,-0.04069516,0.16911524,0.00068560,0.00086673,-0.00114513,-0.00276931,
 -0.00037161,0.00092569,0.01640088,-0.03326075,-0.03039064,0.02727736,-
 0.07781687,-0.26962776,0.04048865,-0.01460871,-0.01331972,-0.07412342,
 0.15396374,0.32623329,0.00026904,-0.00203041,0.00332805,-0.00014163,0.
 00080880,-0.00030444,0.00775834,0.00322162,0.00030093,-0.08961713,-0.0
 5073597,0.00645061,-0.04627779,-0.06106138,0.01279016,0.01329137,-0.00
 029485,-0.00341565,0.11720209,-0.00048334,-0.00044982,0.00106375,0.002
 43379,0.00041538,-0.00061674,-0.01723149,-0.03563619,-0.00670352,-0.04
 540284,-0.29069581,0.05244783,-0.04379621,-0.01425176,0.00511997,-0.00
 336660,-0.06179004,-0.03533820,0.10344324,0.40580440,0.00049399,-0.000
 17352,-0.00060505,-0.00135722,0.00005145,0.00071377,0.01016305,0.02424
 796,0.00513950,0.00355646,0.04278461,-0.09195149,0.00831578,0.00479776
 ,0.01212403,-0.00571517,-0.05175037,0.00170080,-0.01362870,-0.02951417
 ,0.07785216,-0.00959477,0.01936265,0.03488209,-0.00374606,-0.00445814,
 0.00038916,-0.10272869,0.04397957,0.06919302,0.00098358,-0.00058245,-0
 .00547670,0.00532958,-0.00150977,-0.00137942,0.00061557,-0.00066559,-0
 .00394008,0.00059873,0.00018820,-0.00019982,0.09723100,0.01169324,-0.0
 0198047,-0.01424076,0.00186092,0.00129034,-0.00111911,0.03756523,-0.11
 222804,-0.08889371,-0.00003480,-0.00225000,-0.00370985,-0.00089868,0.0
 0146420,0.00111791,0.00008238,0.00153604,0.00202282,0.00011320,0.00517
 523,0.00121665,-0.05692772,0.16396834,0.00838959,-0.00456509,-0.011082
 74,0.00355739,0.00285874,-0.00062150,0.06590517,-0.08165349,-0.2470152
 0,0.02337097,-0.03471079,-0.04106850,-0.00274563,0.00229417,0.00281764
 ,-0.00404724,0.00201599,-0.01470376,-0.00122642,0.00478099,0.00097289,
 -0.08578107,0.14905725,0.30646502,-0.01307932,-0.03995160,0.00577449,-
 0.00368350,0.00262492,0.00414178,-0.11313581,-0.09180982,0.00879958,0.
 00033200,0.00268390,-0.00284437,0.00560667,0.00182733,0.00028136,0.000
 65909,0.00038614,0.00008634,0.00089911,0.00334239,-0.00148897,0.018649
 02,0.00345792,-0.00767707,0.11148543,-0.01369860,-0.01331010,0.0063188
 0,-0.00355844,0.00097559,0.00302462,-0.08515579,-0.27042584,0.04367505
 ,-0.02206775,-0.04484469,-0.00217899,0.00264494,0.00365621,0.00033744,
 0.00141018,0.00520816,0.00466713,0.00298068,-0.00764153,0.00836225,-0.
 00178657,-0.05544033,-0.03308624,0.12108354,0.38402446,-0.00420921,-0.
 00185317,0.00383883,0.00064795,-0.00093552,-0.00034752,0.01164941,0.03
 644160,-0.07796055,0.01567930,0.02685566,0.00221429,-0.00107203,-0.000
 72700,0.00037551,-0.00073463,0.00118251,0.00090725,-0.00213785,0.00839
 875,-0.00587933,-0.01088077,-0.04513594,0.00202344,-0.00694867,-0.0249
 4073,0.07151925,-0.13368656,-0.02527893,0.06186117,-0.16493645,0.01727
 374,-0.02166275,-0.03779697,-0.02905242,0.05893383,0.00064102,0.004392
 70,-0.00844289,0.00454587,-0.00177177,0.00307912,-0.00476470,-0.000191
 60,-0.00017615,-0.00441852,0.00050429,0.00013307,-0.00691478,0.0027082
 6,-0.00006879,-0.00731022,-0.00139307,-0.00188361,0.36415534,-0.054867
 26,-0.07920732,0.19085792,0.04716135,-0.03520231,0.03063545,0.00113411
 ,-0.01832742,0.00147554,0.00018852,-0.00005587,0.00068709,0.00048896,0
 .00004795,-0.00017980,-0.00039495,0.00017176,0.00008269,0.00370334,-0.
 00021525,-0.00015114,0.00231650,-0.00129931,-0.00679170,-0.00445687,-0
 .00239563,0.00078212,0.02759925,0.13708097,0.12022809,0.18846796,-0.36
 584517,-0.08026674,0.03312608,-0.07585312,-0.00047719,0.00394919,-0.02
 526907,-0.00031743,0.00035629,-0.00033924,-0.00132111,0.00000548,0.000
 09085,-0.00395228,-0.00013949,0.00004203,-0.00189302,0.00031124,0.0001
 9129,0.00421113,-0.00059409,0.00181352,0.00055796,-0.00571475,0.003336
 34,-0.08218113,-0.21465417,0.45860428,-0.01585852,-0.00162473,0.004509
 99,-0.05569162,-0.00733571,0.01874356,-0.00077731,-0.00029566,0.000825
 55,-0.00138285,-0.00057587,0.00135690,0.00025118,0.00011960,-0.0002698
 1,0.00043322,-0.00005418,-0.00051421,0.00043640,0.00036856,-0.00027247
 ,-0.00042317,0.00038005,0.00032310,-0.00042246,-0.00045914,-0.00010989
 ,-0.00951403,-0.02287294,0.04541174,0.08294918,-0.00040705,-0.00057064
 ,0.00093812,-0.03736271,-0.10398370,0.20683127,-0.00058103,0.00174027,
 0.00025801,-0.00033540,0.00129042,0.00005122,0.00014016,-0.00019484,0.
 00003786,0.00023926,-0.00034852,-0.00020696,-0.00014827,-0.00071461,0.
 00012852,0.00008332,-0.00023601,-0.00019983,0.00081214,0.00019369,-0.0
 0006828,0.00520956,-0.00059758,-0.00511373,0.03235002,0.10342151,0.002
 12624,0.00102894,-0.00233099,0.07757711,0.20430138,-0.40665843,0.00136
 572,0.00024196,0.00126368,0.00088563,0.00006613,0.00109215,-0.00031398
 ,0.00004141,-0.00022318,-0.00008076,-0.00014400,-0.00062206,-0.0002636
 7,0.00005011,-0.00025856,-0.00101753,0.00027883,0.00039918,-0.00068244
 ,-0.00046457,-0.00002751,-0.00959186,-0.00274400,0.00322827,-0.0700044
 6,-0.20265619,0.40413745\\0.00000574,-0.00000199,0.00000529,-0.0000012
 7,-0.00000128,0.00000284,-0.00000016,0.00000249,-0.00000408,0.00000020
 ,0.00000019,0.00000217,-0.00000072,-0.00000049,0.00000043,0.00000190,-
 0.00000017,0.00000041,0.00000083,-0.00000116,0.00000050,0.00000231,-0.
 00000110,-0.00000193,-0.00000121,-0.00000092,-0.00000001,-0.00000500,0
 .00000405,-0.00000498,-0.00000263,0.00000037,-0.00000064\\\@
 The archive entry for this job was punched.


 IT IS NOT EASY TO DESCRIBE
     THE SEA WITH THE MOUTH

                   -- KOKYU
 Job cpu time:       0 days  0 hours 25 minutes 13.6 seconds.
 Elapsed time:       0 days  0 hours  3 minutes 15.8 seconds.
 File lengths (MBytes):  RWF=    116 Int=      0 D2E=      0 Chk=      9 Scr=      1
 Normal termination of Gaussian 16 at Sat May 24 08:24:42 2025.
done
