 Entering Gaussian System, Link 0=g16
 Initial command:
 /apps/easybuild-2022/easybuild/software/Compiler/NVHPC/22.11-CUDA-11.7.0/Gaussian/g16c01-CUDA-11.7.0/g16/l1.exe "/tmp/Gau-47259.inp" -scrdir="/tmp/"
 Entering Link 1 = /apps/easybuild-2022/easybuild/software/Compiler/NVHPC/22.11-CUDA-11.7.0/Gaussian/g16c01-CUDA-11.7.0/g16/l1.exe PID=     47260.
  
 Copyright (c) 1988-2019, Gaussian, Inc.  All Rights Reserved.
  
 This is part of the Gaussian(R) 16 program.  It is based on
 the Gaussian(R) 09 system (copyright 2009, Gaussian, Inc.),
 the Gaussian(R) 03 system (copyright 2003, Gaussian, Inc.),
 the Gaussian(R) 98 system (copyright 1998, Gaussian, Inc.),
 the Gaussian(R) 94 system (copyright 1995, Gaussian, Inc.),
 the Gaussian 92(TM) system (copyright 1992, Gaussian, Inc.),
 the Gaussian 90(TM) system (copyright 1990, Gaussian, Inc.),
 the Gaussian 88(TM) system (copyright 1988, Gaussian, Inc.),
 the Gaussian 86(TM) system (copyright 1986, Carnegie Mellon
 University), and the Gaussian 82(TM) system (copyright 1983,
 Carnegie Mellon University). Gaussian is a federally registered
 trademark of Gaussian, Inc.
  
 This software contains proprietary and confidential information,
 including trade secrets, belonging to Gaussian, Inc.
  
 This software is provided under written license and may be
 used, copied, transmitted, or stored only in accord with that
 written license.
  
 The following legend is applicable only to US Government
 contracts under FAR:
  
                    RESTRICTED RIGHTS LEGEND
  
 Use, reproduction and disclosure by the US Government is
 subject to restrictions as set forth in subparagraphs (a)
 and (c) of the Commercial Computer Software - Restricted
 Rights clause in FAR 52.227-19.
  
 Gaussian, Inc.
 340 Quinnipiac St., Bldg. 40, Wallingford CT 06492
  
  
 ---------------------------------------------------------------
 Warning -- This program may not be used in any manner that
 competes with the business of Gaussian, Inc. or will provide
 assistance to any competitor of Gaussian, Inc.  The licensee
 of this program is prohibited from giving any competitor of
 Gaussian, Inc. access to this program.  By using this program,
 the user acknowledges that Gaussian, Inc. is engaged in the
 business of creating and licensing software in the field of
 computational chemistry and represents and warrants to the
 licensee that it is not a competitor of Gaussian, Inc. and that
 it will not use this program in any manner prohibited above.
 ---------------------------------------------------------------
  

 Cite this work as:
 Gaussian 16, Revision C.01,
 M. J. Frisch, G. W. Trucks, H. B. Schlegel, G. E. Scuseria, 
 M. A. Robb, J. R. Cheeseman, G. Scalmani, V. Barone, 
 G. A. Petersson, H. Nakatsuji, X. Li, M. Caricato, A. V. Marenich, 
 J. Bloino, B. G. Janesko, R. Gomperts, B. Mennucci, H. P. Hratchian, 
 J. V. Ortiz, A. F. Izmaylov, J. L. Sonnenberg, D. Williams-Young, 
 F. Ding, F. Lipparini, F. Egidi, J. Goings, B. Peng, A. Petrone, 
 T. Henderson, D. Ranasinghe, V. G. Zakrzewski, J. Gao, N. Rega, 
 G. Zheng, W. Liang, M. Hada, M. Ehara, K. Toyota, R. Fukuda, 
 J. Hasegawa, M. Ishida, T. Nakajima, Y. Honda, O. Kitao, H. Nakai, 
 T. Vreven, K. Throssell, J. A. Montgomery, Jr., J. E. Peralta, 
 F. Ogliaro, M. J. Bearpark, J. J. Heyd, E. N. Brothers, K. N. Kudin, 
 V. N. Staroverov, T. A. Keith, R. Kobayashi, J. Normand, 
 K. Raghavachari, A. P. Rendell, J. C. Burant, S. S. Iyengar, 
 J. Tomasi, M. Cossi, J. M. Millam, M. Klene, C. Adamo, R. Cammi, 
 J. W. Ochterski, R. L. Martin, K. Morokuma, O. Farkas, 
 J. B. Foresman, and D. J. Fox, Gaussian, Inc., Wallingford CT, 2019.
 
 ******************************************
 Gaussian 16:  ES64L-G16RevC.01  3-Jul-2019
                24-May-2025 
 ******************************************
 %mem=28GB
 %chk=1642764945472630600001_r13_insertion_ROR_11_10_1_2
 %nprocshared=8
 Will use up to    8 processors via shared memory.
 ----------------------------------------------------------------------
 #P M062X/Def2TZVPP Symm(None) scf(xqc) pop(None) opt(NoFreeze,TS,CalcA
 ll,NoEigentest,MaxCycle=999)
 ----------------------------------------------------------------------
 1/5=1,6=999,10=4,11=1,18=20,26=3,29=2000,38=1/1,3;
 2/9=110,12=2,15=3,17=6,18=5,40=1/2;
 3/5=44,7=202,11=2,25=1,30=1,71=2,74=-55,140=1/1,2,3;
 4//1;
 5/5=2,8=3,13=1,38=5/2,8;
 8/6=4,10=90,11=11/1;
 11/6=1,8=1,9=11,15=111,16=1,31=1/1,2,10;
 10/6=1,31=1/2;
 7/10=1,25=1,30=1/1,2,3,16;
 1/5=1,6=999,10=4,11=1,18=20,26=3/3(3);
 2/9=110,15=3/2;
 7/8=1,9=1,25=1,30=1,44=-1/16;
 99//99;
 2/9=110,15=3/2;
 3/5=44,7=202,11=2,25=1,30=1,71=2,74=-55,140=1/1,2,3;
 4/5=5,16=3,69=1/1;
 5/5=2,8=3,13=1,38=5/2,8;
 8/6=4,10=90,11=11/1;
 11/6=1,8=1,9=11,15=111,16=1,31=1/1,2,10;
 10/6=1,31=1/2;
 7/10=1,25=1,30=1/1,2,3,16;
 1/5=1,6=999,10=4,11=1,18=20,26=3/3(-8);
 2/9=110,15=3/2;
 7/8=1,9=1,25=1,30=1,44=-1/16;
 99//99;
 Leave Link    1 at Sat May 24 05:12:18 2025, MaxMem=  3758096384 cpu:               0.0 elap:               0.0
 (Enter /apps/easybuild-2022/easybuild/software/Compiler/NVHPC/22.11-CUDA-11.7.0/Gaussian/g16c01-CUDA-11.7.0/g16/l101.exe)
 ------------------------------
 Gaussian input prepared by ASE
 ------------------------------
 Symbolic Z-matrix:
 Charge =  0 Multiplicity = 1
 C                     1.63565   0.97235  -0.22181 
 O                     0.09853   1.36966   0.9945 
 C                     3.1204    1.23129  -0.55827 
 C                     3.94258   0.79365   0.67354 
 F                     5.23983   0.75304   0.41591 
 F                     3.80119   1.61665   1.70685 
 F                     3.62025  -0.41478   1.11104 
 F                     3.4988    0.57983  -1.6683 
 F                     3.31524   2.51488  -0.85977 
 O                     0.6275    0.11889  -0.81992 
 H                    -0.23053   0.51314   0.07359 
 
 Add virtual bond connecting atoms H11        and O10        Dist= 2.46D+00.
 Add virtual bond connecting atoms H11        and O2         Dist= 2.46D+00.
 ITRead=  0  0  0  0  0  0  0  0  0  0  0
 MicOpt= -1 -1 -1 -1 -1 -1 -1 -1 -1 -1 -1
 NAtoms=     11 NQM=       11 NQMF=       0 NMMI=      0 NMMIF=      0
                NMic=       0 NMicF=      0.
                    Isotopes and Nuclear Properties:
 (Nuclear quadrupole moments (NQMom) in fm**2, nuclear magnetic moments (NMagM)
  in nuclear magnetons)

  Atom         1           2           3           4           5           6           7           8           9          10
 IAtWgt=          12          16          12          12          19          19          19          19          19          16
 AtmWgt=  12.0000000  15.9949146  12.0000000  12.0000000  18.9984032  18.9984032  18.9984032  18.9984032  18.9984032  15.9949146
 NucSpn=           0           0           0           0           1           1           1           1           1           0
 AtZEff=  -0.0000000  -0.0000000  -0.0000000  -0.0000000  -0.0000000  -0.0000000  -0.0000000  -0.0000000  -0.0000000  -0.0000000
 NQMom=    0.0000000   0.0000000   0.0000000   0.0000000   0.0000000   0.0000000   0.0000000   0.0000000   0.0000000   0.0000000
 NMagM=    0.0000000   0.0000000   0.0000000   0.0000000   2.6288670   2.6288670   2.6288670   2.6288670   2.6288670   0.0000000
 AtZNuc=   6.0000000   8.0000000   6.0000000   6.0000000   9.0000000   9.0000000   9.0000000   9.0000000   9.0000000   8.0000000

  Atom        11
 IAtWgt=           1
 AtmWgt=   1.0078250
 NucSpn=           1
 AtZEff=  -0.0000000
 NQMom=    0.0000000
 NMagM=    2.7928460
 AtZNuc=   1.0000000
 Leave Link  101 at Sat May 24 05:12:19 2025, MaxMem=  3758096384 cpu:               0.2 elap:               0.2
 (Enter /apps/easybuild-2022/easybuild/software/Compiler/NVHPC/22.11-CUDA-11.7.0/Gaussian/g16c01-CUDA-11.7.0/g16/l103.exe)

 GradGradGradGradGradGradGradGradGradGradGradGradGradGradGradGradGradGrad
 Berny optimization.
 Initialization pass.
                           ----------------------------
                           !    Initial Parameters    !
                           ! (Angstroms and Degrees)  !
 --------------------------                            --------------------------
 ! Name  Definition              Value          Derivative Info.                !
 --------------------------------------------------------------------------------
 ! R1    R(1,3)                  1.5443         calculate D2E/DX2 analytically  !
 ! R2    R(1,10)                 1.45           calculate D2E/DX2 analytically  !
 ! R3    R(2,11)                 1.3            calculate D2E/DX2 analytically  !
 ! R4    R(3,4)                  1.5443         calculate D2E/DX2 analytically  !
 ! R5    R(3,8)                  1.3416         calculate D2E/DX2 analytically  !
 ! R6    R(3,9)                  1.3328         calculate D2E/DX2 analytically  !
 ! R7    R(4,5)                  1.3232         calculate D2E/DX2 analytically  !
 ! R8    R(4,6)                  1.3286         calculate D2E/DX2 analytically  !
 ! R9    R(4,7)                  1.325          calculate D2E/DX2 analytically  !
 ! R10   R(10,11)                1.3            calculate D2E/DX2 analytically  !
 ! A1    A(3,1,10)             132.6332         calculate D2E/DX2 analytically  !
 ! A2    A(1,3,4)              106.8921         calculate D2E/DX2 analytically  !
 ! A3    A(1,3,8)              111.7187         calculate D2E/DX2 analytically  !
 ! A4    A(1,3,9)              110.5685         calculate D2E/DX2 analytically  !
 ! A5    A(4,3,8)              111.8517         calculate D2E/DX2 analytically  !
 ! A6    A(4,3,9)              112.0562         calculate D2E/DX2 analytically  !
 ! A7    A(8,3,9)              103.8427         calculate D2E/DX2 analytically  !
 ! A8    A(3,4,5)              112.046          calculate D2E/DX2 analytically  !
 ! A9    A(3,4,6)              112.8412         calculate D2E/DX2 analytically  !
 ! A10   A(3,4,7)              113.0989         calculate D2E/DX2 analytically  !
 ! A11   A(5,4,6)              105.9491         calculate D2E/DX2 analytically  !
 ! A12   A(5,4,7)              105.9495         calculate D2E/DX2 analytically  !
 ! A13   A(6,4,7)              106.3957         calculate D2E/DX2 analytically  !
 ! A14   A(1,10,11)             89.8213         calculate D2E/DX2 analytically  !
 ! A15   A(2,11,10)            121.3081         calculate D2E/DX2 analytically  !
 ! D1    D(10,1,3,4)          -118.4705         calculate D2E/DX2 analytically  !
 ! D2    D(10,1,3,8)             4.191          calculate D2E/DX2 analytically  !
 ! D3    D(10,1,3,9)           119.3129         calculate D2E/DX2 analytically  !
 ! D4    D(3,1,10,11)          179.0409         calculate D2E/DX2 analytically  !
 ! D5    D(1,3,4,5)            169.0727         calculate D2E/DX2 analytically  !
 ! D6    D(1,3,4,6)            -71.4383         calculate D2E/DX2 analytically  !
 ! D7    D(1,3,4,7)             49.4012         calculate D2E/DX2 analytically  !
 ! D8    D(8,3,4,5)             46.4943         calculate D2E/DX2 analytically  !
 ! D9    D(8,3,4,6)            165.9833         calculate D2E/DX2 analytically  !
 ! D10   D(8,3,4,7)            -73.1772         calculate D2E/DX2 analytically  !
 ! D11   D(9,3,4,5)            -69.6487         calculate D2E/DX2 analytically  !
 ! D12   D(9,3,4,6)             49.8403         calculate D2E/DX2 analytically  !
 ! D13   D(9,3,4,7)            170.6797         calculate D2E/DX2 analytically  !
 ! D14   D(1,10,11,2)           -0.0723         calculate D2E/DX2 analytically  !
 --------------------------------------------------------------------------------
 Trust Radius=3.00D-01 FncErr=1.00D-07 GrdErr=1.00D-06 EigMax=2.50D+02 EigMin=1.00D-04
 Number of steps in this run=    100 maximum allowed number of steps=    100.
 Search for a saddle point of order  1.
 GradGradGradGradGradGradGradGradGradGradGradGradGradGradGradGradGradGrad

 Leave Link  103 at Sat May 24 05:12:19 2025, MaxMem=  3758096384 cpu:               0.0 elap:               0.0
 (Enter /apps/easybuild-2022/easybuild/software/Compiler/NVHPC/22.11-CUDA-11.7.0/Gaussian/g16c01-CUDA-11.7.0/g16/l202.exe)
                          Input orientation:                          
 ---------------------------------------------------------------------
 Center     Atomic      Atomic             Coordinates (Angstroms)
 Number     Number       Type             X           Y           Z
 ---------------------------------------------------------------------
      1          6           0        1.635647    0.972347   -0.221808
      2          8           0        0.098530    1.369663    0.994502
      3          6           0        3.120395    1.231289   -0.558273
      4          6           0        3.942578    0.793654    0.673537
      5          9           0        5.239833    0.753041    0.415910
      6          9           0        3.801185    1.616654    1.706851
      7          9           0        3.620249   -0.414783    1.111041
      8          9           0        3.498803    0.579826   -1.668301
      9          9           0        3.315245    2.514882   -0.859769
     10          8           0        0.627499    0.118885   -0.819921
     11          1           0       -0.230529    0.513139    0.073585
 ---------------------------------------------------------------------
                    Distance matrix (angstroms):
                    1          2          3          4          5
     1  C    0.000000
     2  O    2.000000   0.000000
     3  C    1.544259   3.400283   0.000000
     4  C    2.481029   3.900194   1.544301   0.000000
     5  F    3.666734   5.210373   2.381128   1.323213   0.000000
     6  F    2.970591   3.778637   2.396407   1.328555   2.117089
     7  F    2.763921   3.949726   2.397085   1.325000   2.114255
     8  F    2.391185   4.390469   1.341551   2.393087   2.721236
     9  F    2.368007   3.885499   1.332846   2.388975   2.904390
    10  O    1.450000   2.266359   2.742341   3.698037   4.816955
    11  H    1.944413   1.300001   3.484778   4.225335   5.486310
                    6          7          8          9         10
     6  F    0.000000
     7  F    2.124727   0.000000
     8  F    3.543741   2.954444   0.000000
     9  F    2.762334   3.544017   2.105198   0.000000
    10  O    4.324369   3.601384   3.029291   3.600884   0.000000
    11  H    4.487763   4.094612   4.116616   4.177396   1.300000
                   11
    11  H    0.000000
 Symmetry turned off by external request.
 Stoichiometry    C3HF5O2
 Rotational constants (GHZ):           1.7533081           1.0062349           0.8794830
 Leave Link  202 at Sat May 24 05:12:19 2025, MaxMem=  3758096384 cpu:               0.0 elap:               0.0
 (Enter /apps/easybuild-2022/easybuild/software/Compiler/NVHPC/22.11-CUDA-11.7.0/Gaussian/g16c01-CUDA-11.7.0/g16/l301.exe)
 Standard basis: def2TZVPP (5D, 7F)
 Ernie: Thresh=  0.10000D-02 Tol=  0.10000D-05 Strict=F.
   324 basis functions,   527 primitive gaussians,   375 cartesian basis functions
    40 alpha electrons       40 beta electrons
       nuclear repulsion energy       603.5153385142 Hartrees.
 IExCor= 4336 DFT=T Ex+Corr=M062X ExCW=0 ScaHFX=  0.540000
 ScaDFX=  1.000000  1.000000  1.000000  1.000000 ScalE2=  1.000000  1.000000
 IRadAn=      5 IRanWt=     -1 IRanGd=            0 ICorTp=0 IEmpDi=  4
 NAtoms=   11 NActive=   11 NUniq=   11 SFac= 1.00D+00 NAtFMM=   60 NAOKFM=F Big=F
 Integral buffers will be    131072 words long.
 Raffenetti 2 integral format.
 Two-electron integral symmetry is turned off.
 Leave Link  301 at Sat May 24 05:12:19 2025, MaxMem=  3758096384 cpu:               0.0 elap:               0.0
 (Enter /apps/easybuild-2022/easybuild/software/Compiler/NVHPC/22.11-CUDA-11.7.0/Gaussian/g16c01-CUDA-11.7.0/g16/l302.exe)
 NPDir=0 NMtPBC=     1 NCelOv=     1 NCel=       1 NClECP=     1 NCelD=      1
         NCelK=      1 NCelE2=     1 NClLst=     1 CellRange=     0.0.
 One-electron integrals computed using PRISM.
   1 Symmetry operations used in ECPInt.
 ECPInt:  NShTT=    6786 NPrTT=   21959 LenC2=    6375 LenP2D=   15453.
 LDataN:  DoStor=T MaxTD1= 6 Len=  172
 NBasis=   324 RedAO= T EigKep=  2.77D-04  NBF=   324
 NBsUse=   324 1.00D-06 EigRej= -1.00D+00 NBFU=   324
 Precomputing XC quadrature grid using
 IXCGrd= 4 IRadAn=           5 IRanWt=          -1 IRanGd=           0 AccXCQ= 0.00D+00.
 Generated NRdTot=       0 NPtTot=           0 NUsed=           0 NTot=          32
 NSgBfM=   372   372   372   372   372 MxSgAt=    11 MxSgA2=    11.
 Leave Link  302 at Sat May 24 05:12:19 2025, MaxMem=  3758096384 cpu:               0.6 elap:               0.1
 (Enter /apps/easybuild-2022/easybuild/software/Compiler/NVHPC/22.11-CUDA-11.7.0/Gaussian/g16c01-CUDA-11.7.0/g16/l303.exe)
 DipDrv:  MaxL=1.
 Leave Link  303 at Sat May 24 05:12:19 2025, MaxMem=  3758096384 cpu:               0.1 elap:               0.0
 (Enter /apps/easybuild-2022/easybuild/software/Compiler/NVHPC/22.11-CUDA-11.7.0/Gaussian/g16c01-CUDA-11.7.0/g16/l401.exe)
 ExpMin= 9.52D-02 ExpMax= 3.55D+04 ExpMxC= 1.21D+03 IAcc=3 IRadAn=         5 AccDes= 0.00D+00
 Harris functional with IExCor= 1009 and IRadAn=       5 diagonalized for initial guess.
 HarFok:  IExCor= 1009 AccDes= 0.00D+00 IRadAn=         5 IDoV= 1 UseB2=F ITyADJ=14
 ICtDFT=  3500011 ScaDFX=  1.000000  1.000000  1.000000  1.000000
 FoFCou: FMM=F IPFlag=           0 FMFlag=      100000 FMFlg1=           0
         NFxFlg=           0 DoJE=T BraDBF=F KetDBF=T FulRan=T
         wScrn=  0.000000 ICntrl=       500 IOpCl=  0 I1Cent=   200000004 NGrid=           0
         NMat0=    1 NMatS0=      1 NMatT0=    0 NMatD0=    1 NMtDS0=    0 NMtDT0=    0
 Symmetry not used in FoFCou.
 Harris En= -763.977693945704    
 JPrj=0 DoOrth=F DoCkMO=F.
 Leave Link  401 at Sat May 24 05:12:19 2025, MaxMem=  3758096384 cpu:               3.5 elap:               0.5
 (Enter /apps/easybuild-2022/easybuild/software/Compiler/NVHPC/22.11-CUDA-11.7.0/Gaussian/g16c01-CUDA-11.7.0/g16/l502.exe)
 Keep R1 ints in memory in canonical form, NReq=1412617130.
 FoFCou: FMM=F IPFlag=           0 FMFlag=           0 FMFlg1=           0
         NFxFlg=           0 DoJE=F BraDBF=F KetDBF=F FulRan=T
         wScrn=  0.000000 ICntrl=       600 IOpCl=  0 I1Cent=           0 NGrid=           0
         NMat0=    1 NMatS0=  52650 NMatT0=    0 NMatD0=    1 NMtDS0=    0 NMtDT0=    0
 Symmetry not used in FoFCou.
 Two-electron integral symmetry not used.
 Closed shell SCF:
 Using DIIS extrapolation, IDIIS=  1040.
 NGot=  3758096384 LenX=  2371771924 LenY=  2371630858
 Requested convergence on RMS density matrix=1.00D-08 within  32 cycles.
 Requested convergence on MAX density matrix=1.00D-06.
 Requested convergence on             energy=1.00D-06.
 No special actions if energy rises.
 Integral accuracy reduced to 1.0D-05 until final iterations.

 Cycle   1  Pass 0  IDiag  1:
 E= -763.958665200812    
 DIIS: error= 2.89D-02 at cycle   1 NSaved=   1.
 NSaved= 1 IEnMin= 1 EnMin= -763.958665200812     IErMin= 1 ErrMin= 2.89D-02
 ErrMax= 2.89D-02  0.00D+00 EMaxC= 1.00D-01 BMatC= 5.46D-01 BMatP= 5.46D-01
 IDIUse=3 WtCom= 7.11D-01 WtEn= 2.89D-01
 Coeff-Com:  0.100D+01
 Coeff-En:   0.100D+01
 Coeff:      0.100D+01
 Gap=    -0.051 Goal=   None    Shift=    0.000
 GapD=   -0.051 DampG=0.250 DampE=0.500 DampFc=0.2500 IDamp=-1.
 Damping current iteration by 2.50D-01
 RMSDP=5.01D-03 MaxDP=2.12D-01              OVMax= 8.39D-01

 Cycle   2  Pass 0  IDiag  1:
 E= -763.986798978233     Delta-E=       -0.028133777422 Rises=F Damp=T
 DIIS: error= 1.15D-02 at cycle   2 NSaved=   2.
 NSaved= 2 IEnMin= 2 EnMin= -763.986798978233     IErMin= 2 ErrMin= 1.15D-02
 ErrMax= 1.15D-02  0.00D+00 EMaxC= 1.00D-01 BMatC= 1.04D-01 BMatP= 5.46D-01
 IDIUse=3 WtCom= 8.85D-01 WtEn= 1.15D-01
 Coeff-Com: -0.231D-01 0.102D+01
 Coeff-En:   0.461D+00 0.539D+00
 Coeff:      0.327D-01 0.967D+00
 Gap=     0.277 Goal=   None    Shift=    0.000
 RMSDP=1.52D-03 MaxDP=5.23D-02 DE=-2.81D-02 OVMax= 7.96D-01

 Cycle   3  Pass 0  IDiag  1:
 E= -764.071101719965     Delta-E=       -0.084302741731 Rises=F Damp=F
 DIIS: error= 3.47D-02 at cycle   3 NSaved=   3.
 NSaved= 3 IEnMin= 3 EnMin= -764.071101719965     IErMin= 2 ErrMin= 1.15D-02
 ErrMax= 3.47D-02  0.00D+00 EMaxC= 1.00D-01 BMatC= 3.17D-01 BMatP= 1.04D-01
 IDIUse=2 WtCom= 0.00D+00 WtEn= 1.00D+00
 EnCoef did     2 forward-backward iterations
 Coeff-En:   0.375D-01 0.381D+00 0.582D+00
 Coeff:      0.375D-01 0.381D+00 0.582D+00
 Gap=     0.260 Goal=   None    Shift=    0.000
 RMSDP=2.72D-03 MaxDP=1.36D-01 DE=-8.43D-02 OVMax= 7.68D-01

 Cycle   4  Pass 0  IDiag  1:
 E= -763.039236685771     Delta-E=        1.031865034194 Rises=F Damp=F
 DIIS: error= 6.13D-02 at cycle   4 NSaved=   4.
 NSaved= 4 IEnMin= 3 EnMin= -764.071101719965     IErMin= 2 ErrMin= 1.15D-02
 ErrMax= 6.13D-02  0.00D+00 EMaxC= 1.00D-01 BMatC= 1.35D+00 BMatP= 1.04D-01
 IDIUse=2 WtCom= 0.00D+00 WtEn= 1.00D+00
 EnCoef did     5 forward-backward iterations
 Coeff-En:   0.966D-01 0.000D+00 0.652D+00 0.251D+00
 Coeff:      0.966D-01 0.000D+00 0.652D+00 0.251D+00
 Gap=     0.042 Goal=   None    Shift=    0.000
 RMSDP=1.78D-03 MaxDP=9.12D-02 DE= 1.03D+00 OVMax= 6.00D-01

 Cycle   5  Pass 0  IDiag  1:
 E= -764.312989417028     Delta-E=       -1.273752731257 Rises=F Damp=F
 DIIS: error= 1.32D-02 at cycle   5 NSaved=   5.
 NSaved= 5 IEnMin= 5 EnMin= -764.312989417028     IErMin= 2 ErrMin= 1.15D-02
 ErrMax= 1.32D-02  0.00D+00 EMaxC= 1.00D-01 BMatC= 6.16D-02 BMatP= 1.04D-01
 IDIUse=3 WtCom= 8.68D-01 WtEn= 1.32D-01
 Coeff-Com: -0.146D+00 0.242D+00 0.290D+00-0.614D-01 0.676D+00
 Coeff-En:   0.000D+00 0.000D+00 0.171D+00 0.000D+00 0.829D+00
 Coeff:     -0.127D+00 0.210D+00 0.274D+00-0.533D-01 0.696D+00
 Gap=     0.214 Goal=   None    Shift=    0.000
 RMSDP=4.97D-04 MaxDP=2.50D-02 DE=-1.27D+00 OVMax= 1.37D-01

 Cycle   6  Pass 0  IDiag  1:
 E= -764.359050093165     Delta-E=       -0.046060676138 Rises=F Damp=F
 DIIS: error= 3.29D-03 at cycle   6 NSaved=   6.
 NSaved= 6 IEnMin= 6 EnMin= -764.359050093165     IErMin= 6 ErrMin= 3.29D-03
 ErrMax= 3.29D-03  0.00D+00 EMaxC= 1.00D-01 BMatC= 2.98D-03 BMatP= 6.16D-02
 IDIUse=3 WtCom= 9.67D-01 WtEn= 3.29D-02
 Coeff-Com: -0.452D-01 0.549D-01 0.669D-01-0.258D-01 0.301D+00 0.648D+00
 Coeff-En:   0.000D+00 0.000D+00 0.000D+00 0.000D+00 0.000D+00 0.100D+01
 Coeff:     -0.437D-01 0.531D-01 0.647D-01-0.250D-01 0.291D+00 0.660D+00
 Gap=     0.232 Goal=   None    Shift=    0.000
 RMSDP=1.45D-04 MaxDP=6.14D-03 DE=-4.61D-02 OVMax= 2.29D-02

 Cycle   7  Pass 0  IDiag  1:
 E= -764.362074004863     Delta-E=       -0.003023911698 Rises=F Damp=F
 DIIS: error= 1.72D-03 at cycle   7 NSaved=   7.
 NSaved= 7 IEnMin= 7 EnMin= -764.362074004863     IErMin= 7 ErrMin= 1.72D-03
 ErrMax= 1.72D-03  0.00D+00 EMaxC= 1.00D-01 BMatC= 5.87D-04 BMatP= 2.98D-03
 IDIUse=3 WtCom= 9.83D-01 WtEn= 1.72D-02
 Coeff-Com:  0.112D-01-0.119D-01-0.375D-01-0.218D-02-0.642D-01 0.287D+00
 Coeff-Com:  0.818D+00
 Coeff-En:   0.000D+00 0.000D+00 0.000D+00 0.000D+00 0.000D+00 0.000D+00
 Coeff-En:   0.100D+01
 Coeff:      0.110D-01-0.117D-01-0.368D-01-0.214D-02-0.631D-01 0.282D+00
 Coeff:      0.821D+00
 Gap=     0.241 Goal=   None    Shift=    0.000
 RMSDP=1.05D-04 MaxDP=3.22D-03 DE=-3.02D-03 OVMax= 2.86D-02

 Cycle   8  Pass 0  IDiag  1:
 E= -764.363178199474     Delta-E=       -0.001104194610 Rises=F Damp=F
 DIIS: error= 5.43D-04 at cycle   8 NSaved=   8.
 NSaved= 8 IEnMin= 8 EnMin= -764.363178199474     IErMin= 8 ErrMin= 5.43D-04
 ErrMax= 5.43D-04  0.00D+00 EMaxC= 1.00D-01 BMatC= 1.31D-04 BMatP= 5.87D-04
 IDIUse=3 WtCom= 9.95D-01 WtEn= 5.43D-03
 Coeff-Com:  0.143D-01-0.148D-01-0.112D-01-0.141D-03-0.511D-01-0.113D+00
 Coeff-Com:  0.225D+00 0.950D+00
 Coeff-En:   0.000D+00 0.000D+00 0.000D+00 0.000D+00 0.000D+00 0.000D+00
 Coeff-En:   0.000D+00 0.100D+01
 Coeff:      0.142D-01-0.147D-01-0.112D-01-0.140D-03-0.508D-01-0.112D+00
 Coeff:      0.224D+00 0.950D+00
 Gap=     0.242 Goal=   None    Shift=    0.000
 RMSDP=6.97D-05 MaxDP=2.41D-03 DE=-1.10D-03 OVMax= 1.71D-02

 Cycle   9  Pass 0  IDiag  1:
 E= -764.363485077239     Delta-E=       -0.000306877766 Rises=F Damp=F
 DIIS: error= 3.25D-04 at cycle   9 NSaved=   9.
 NSaved= 9 IEnMin= 9 EnMin= -764.363485077239     IErMin= 9 ErrMin= 3.25D-04
 ErrMax= 3.25D-04  0.00D+00 EMaxC= 1.00D-01 BMatC= 4.25D-05 BMatP= 1.31D-04
 IDIUse=3 WtCom= 9.97D-01 WtEn= 3.25D-03
 Coeff-Com:  0.394D-02-0.322D-02 0.857D-02-0.299D-02 0.744D-02-0.103D+00
 Coeff-Com: -0.615D-01 0.248D+00 0.903D+00
 Coeff-En:   0.000D+00 0.000D+00 0.000D+00 0.000D+00 0.000D+00 0.000D+00
 Coeff-En:   0.000D+00 0.000D+00 0.100D+01
 Coeff:      0.393D-02-0.321D-02 0.854D-02-0.298D-02 0.742D-02-0.103D+00
 Coeff:     -0.613D-01 0.247D+00 0.904D+00
 Gap=     0.242 Goal=   None    Shift=    0.000
 RMSDP=3.36D-05 MaxDP=1.32D-03 DE=-3.07D-04 OVMax= 8.65D-03

 Failed to achieve initial convergence to 1.0D-08 in 10 cycles.
 Switch to full accuracy anyway.
 Cycle  10  Pass 1  IDiag  1:
 E= -764.363538340545     Delta-E=       -0.000053263305 Rises=F Damp=F
 DIIS: error= 2.14D-04 at cycle   1 NSaved=   1.
 NSaved= 1 IEnMin= 1 EnMin= -764.363538340545     IErMin= 1 ErrMin= 2.14D-04
 ErrMax= 2.14D-04  0.00D+00 EMaxC= 1.00D-01 BMatC= 1.20D-05 BMatP= 1.20D-05
 IDIUse=3 WtCom= 9.98D-01 WtEn= 2.14D-03
 Coeff-Com:  0.100D+01
 Coeff-En:   0.100D+01
 Coeff:      0.100D+01
 Gap=     0.244 Goal=   None    Shift=    0.000
 RMSDP=3.36D-05 MaxDP=1.32D-03 DE=-5.33D-05 OVMax= 4.97D-03

 Cycle  11  Pass 1  IDiag  1:
 E= -764.363503305638     Delta-E=        0.000035034907 Rises=F Damp=F
 DIIS: error= 3.81D-04 at cycle   2 NSaved=   2.
 NSaved= 2 IEnMin= 1 EnMin= -764.363538340545     IErMin= 1 ErrMin= 2.14D-04
 ErrMax= 3.81D-04  0.00D+00 EMaxC= 1.00D-01 BMatC= 6.32D-05 BMatP= 1.20D-05
 IDIUse=3 WtCom= 3.39D-01 WtEn= 6.61D-01
 Coeff-Com:  0.706D+00 0.294D+00
 Coeff-En:   0.738D+00 0.262D+00
 Coeff:      0.727D+00 0.273D+00
 Gap=     0.242 Goal=   None    Shift=    0.000
 RMSDP=1.41D-05 MaxDP=7.72D-04 DE= 3.50D-05 OVMax= 2.65D-03

 Cycle  12  Pass 1  IDiag  1:
 E= -764.363557636317     Delta-E=       -0.000054330680 Rises=F Damp=F
 DIIS: error= 5.10D-05 at cycle   3 NSaved=   3.
 NSaved= 3 IEnMin= 3 EnMin= -764.363557636317     IErMin= 3 ErrMin= 5.10D-05
 ErrMax= 5.10D-05  0.00D+00 EMaxC= 1.00D-01 BMatC= 7.75D-07 BMatP= 1.20D-05
 IDIUse=1 WtCom= 1.00D+00 WtEn= 0.00D+00
 Coeff-Com:  0.342D-01-0.635D-01 0.103D+01
 Coeff:      0.342D-01-0.635D-01 0.103D+01
 Gap=     0.242 Goal=   None    Shift=    0.000
 RMSDP=5.22D-06 MaxDP=1.74D-04 DE=-5.43D-05 OVMax= 1.38D-03

 Cycle  13  Pass 1  IDiag  1:
 E= -764.363560199535     Delta-E=       -0.000002563217 Rises=F Damp=F
 DIIS: error= 3.96D-05 at cycle   4 NSaved=   4.
 NSaved= 4 IEnMin= 4 EnMin= -764.363560199535     IErMin= 4 ErrMin= 3.96D-05
 ErrMax= 3.96D-05  0.00D+00 EMaxC= 1.00D-01 BMatC= 3.88D-07 BMatP= 7.75D-07
 IDIUse=1 WtCom= 1.00D+00 WtEn= 0.00D+00
 Coeff-Com: -0.170D+00-0.108D+00 0.636D+00 0.642D+00
 Coeff:     -0.170D+00-0.108D+00 0.636D+00 0.642D+00
 Gap=     0.242 Goal=   None    Shift=    0.000
 RMSDP=3.49D-06 MaxDP=1.20D-04 DE=-2.56D-06 OVMax= 8.04D-04

 Cycle  14  Pass 1  IDiag  1:
 E= -764.363561267097     Delta-E=       -0.000001067563 Rises=F Damp=F
 DIIS: error= 2.03D-05 at cycle   5 NSaved=   5.
 NSaved= 5 IEnMin= 5 EnMin= -764.363561267097     IErMin= 5 ErrMin= 2.03D-05
 ErrMax= 2.03D-05  0.00D+00 EMaxC= 1.00D-01 BMatC= 1.92D-07 BMatP= 3.88D-07
 IDIUse=1 WtCom= 1.00D+00 WtEn= 0.00D+00
 Coeff-Com: -0.142D+00-0.226D-01-0.116D+00 0.450D+00 0.831D+00
 Coeff:     -0.142D+00-0.226D-01-0.116D+00 0.450D+00 0.831D+00
 Gap=     0.242 Goal=   None    Shift=    0.000
 RMSDP=3.37D-06 MaxDP=1.11D-04 DE=-1.07D-06 OVMax= 8.24D-04

 Cycle  15  Pass 1  IDiag  1:
 E= -764.363561862115     Delta-E=       -0.000000595018 Rises=F Damp=F
 DIIS: error= 1.26D-05 at cycle   6 NSaved=   6.
 NSaved= 6 IEnMin= 6 EnMin= -764.363561862115     IErMin= 6 ErrMin= 1.26D-05
 ErrMax= 1.26D-05  0.00D+00 EMaxC= 1.00D-01 BMatC= 3.35D-08 BMatP= 1.92D-07
 IDIUse=1 WtCom= 1.00D+00 WtEn= 0.00D+00
 Coeff-Com: -0.118D-01 0.323D-01-0.240D+00 0.406D-02 0.401D+00 0.815D+00
 Coeff:     -0.118D-01 0.323D-01-0.240D+00 0.406D-02 0.401D+00 0.815D+00
 Gap=     0.242 Goal=   None    Shift=    0.000
 RMSDP=1.44D-06 MaxDP=5.04D-05 DE=-5.95D-07 OVMax= 3.56D-04

 Cycle  16  Pass 1  IDiag  1:
 E= -764.363561950706     Delta-E=       -0.000000088591 Rises=F Damp=F
 DIIS: error= 2.11D-06 at cycle   7 NSaved=   7.
 NSaved= 7 IEnMin= 7 EnMin= -764.363561950706     IErMin= 7 ErrMin= 2.11D-06
 ErrMax= 2.11D-06  0.00D+00 EMaxC= 1.00D-01 BMatC= 3.08D-09 BMatP= 3.35D-08
 IDIUse=1 WtCom= 1.00D+00 WtEn= 0.00D+00
 Coeff-Com:  0.112D-01 0.144D-01-0.729D-01-0.606D-01 0.534D-01 0.309D+00
 Coeff-Com:  0.746D+00
 Coeff:      0.112D-01 0.144D-01-0.729D-01-0.606D-01 0.534D-01 0.309D+00
 Coeff:      0.746D+00
 Gap=     0.242 Goal=   None    Shift=    0.000
 RMSDP=3.55D-07 MaxDP=1.39D-05 DE=-8.86D-08 OVMax= 9.89D-05

 Cycle  17  Pass 1  IDiag  1:
 E= -764.363561958817     Delta-E=       -0.000000008111 Rises=F Damp=F
 DIIS: error= 1.17D-06 at cycle   8 NSaved=   8.
 NSaved= 8 IEnMin= 8 EnMin= -764.363561958817     IErMin= 8 ErrMin= 1.17D-06
 ErrMax= 1.17D-06  0.00D+00 EMaxC= 1.00D-01 BMatC= 4.92D-10 BMatP= 3.08D-09
 IDIUse=1 WtCom= 1.00D+00 WtEn= 0.00D+00
 Coeff-Com:  0.178D-02-0.392D-02 0.315D-01-0.127D-01-0.507D-01-0.999D-01
 Coeff-Com:  0.136D+00 0.998D+00
 Coeff:      0.178D-02-0.392D-02 0.315D-01-0.127D-01-0.507D-01-0.999D-01
 Coeff:      0.136D+00 0.998D+00
 Gap=     0.242 Goal=   None    Shift=    0.000
 RMSDP=1.83D-07 MaxDP=7.93D-06 DE=-8.11D-09 OVMax= 4.29D-05

 Cycle  18  Pass 1  IDiag  1:
 E= -764.363561961242     Delta-E=       -0.000000002425 Rises=F Damp=F
 DIIS: error= 8.00D-07 at cycle   9 NSaved=   9.
 NSaved= 9 IEnMin= 9 EnMin= -764.363561961242     IErMin= 9 ErrMin= 8.00D-07
 ErrMax= 8.00D-07  0.00D+00 EMaxC= 1.00D-01 BMatC= 1.40D-10 BMatP= 4.92D-10
 IDIUse=1 WtCom= 1.00D+00 WtEn= 0.00D+00
 Coeff-Com: -0.248D-02-0.364D-02 0.234D-01 0.632D-02-0.124D-01-0.979D-01
 Coeff-Com: -0.140D+00 0.174D+00 0.105D+01
 Coeff:     -0.248D-02-0.364D-02 0.234D-01 0.632D-02-0.124D-01-0.979D-01
 Coeff:     -0.140D+00 0.174D+00 0.105D+01
 Gap=     0.242 Goal=   None    Shift=    0.000
 RMSDP=1.04D-07 MaxDP=4.32D-06 DE=-2.42D-09 OVMax= 2.47D-05

 Cycle  19  Pass 1  IDiag  1:
 E= -764.363561961880     Delta-E=       -0.000000000638 Rises=F Damp=F
 DIIS: error= 2.92D-07 at cycle  10 NSaved=  10.
 NSaved=10 IEnMin=10 EnMin= -764.363561961880     IErMin=10 ErrMin= 2.92D-07
 ErrMax= 2.92D-07  0.00D+00 EMaxC= 1.00D-01 BMatC= 2.07D-11 BMatP= 1.40D-10
 IDIUse=1 WtCom= 1.00D+00 WtEn= 0.00D+00
 Coeff-Com: -0.111D-02-0.296D-03 0.106D-02 0.206D-02 0.961D-02-0.114D-01
 Coeff-Com: -0.580D-01-0.124D+00 0.276D+00 0.905D+00
 Coeff:     -0.111D-02-0.296D-03 0.106D-02 0.206D-02 0.961D-02-0.114D-01
 Coeff:     -0.580D-01-0.124D+00 0.276D+00 0.905D+00
 Gap=     0.242 Goal=   None    Shift=    0.000
 RMSDP=3.32D-08 MaxDP=1.31D-06 DE=-6.38D-10 OVMax= 8.36D-06

 Cycle  20  Pass 1  IDiag  1:
 E= -764.363561961937     Delta-E=       -0.000000000057 Rises=F Damp=F
 DIIS: error= 6.77D-08 at cycle  11 NSaved=  11.
 NSaved=11 IEnMin=11 EnMin= -764.363561961937     IErMin=11 ErrMin= 6.77D-08
 ErrMax= 6.77D-08  0.00D+00 EMaxC= 1.00D-01 BMatC= 2.51D-12 BMatP= 2.07D-11
 IDIUse=1 WtCom= 1.00D+00 WtEn= 0.00D+00
 Coeff-Com: -0.148D-03 0.292D-03-0.259D-02 0.403D-04 0.597D-02 0.718D-02
 Coeff-Com: -0.744D-02-0.704D-01-0.160D-02 0.340D+00 0.728D+00
 Coeff:     -0.148D-03 0.292D-03-0.259D-02 0.403D-04 0.597D-02 0.718D-02
 Coeff:     -0.744D-02-0.704D-01-0.160D-02 0.340D+00 0.728D+00
 Gap=     0.242 Goal=   None    Shift=    0.000
 RMSDP=7.40D-09 MaxDP=2.85D-07 DE=-5.73D-11 OVMax= 1.57D-06

 SCF Done:  E(RM062X) =  -764.363561962     A.U. after   20 cycles
            NFock= 20  Conv=0.74D-08     -V/T= 2.0049
 KE= 7.606050494336D+02 PE=-3.017236405566D+03 EE= 8.887524556560D+02
 Leave Link  502 at Sat May 24 05:12:56 2025, MaxMem=  3758096384 cpu:             150.7 elap:              36.2
 (Enter /apps/easybuild-2022/easybuild/software/Compiler/NVHPC/22.11-CUDA-11.7.0/Gaussian/g16c01-CUDA-11.7.0/g16/l508.exe)
 QCSCF skips out because SCF is already converged.
 Leave Link  508 at Sat May 24 05:12:56 2025, MaxMem=  3758096384 cpu:               0.0 elap:               0.0
 (Enter /apps/easybuild-2022/easybuild/software/Compiler/NVHPC/22.11-CUDA-11.7.0/Gaussian/g16c01-CUDA-11.7.0/g16/l801.exe)
 DoSCS=F DFT=T ScalE2(SS,OS)=  1.000000  1.000000
 Range of M.O.s used for correlation:     1   324
 NBasis=   324 NAE=    40 NBE=    40 NFC=     0 NFV=     0
 NROrb=    324 NOA=    40 NOB=    40 NVA=   284 NVB=   284

 **** Warning!!: The largest alpha MO coefficient is  0.16145547D+02

 Leave Link  801 at Sat May 24 05:12:56 2025, MaxMem=  3758096384 cpu:               0.0 elap:               0.0
 (Enter /apps/easybuild-2022/easybuild/software/Compiler/NVHPC/22.11-CUDA-11.7.0/Gaussian/g16c01-CUDA-11.7.0/g16/l1101.exe)
 Using compressed storage, NAtomX=    11.
 Will process     12 centers per pass.
   1 Symmetry operations used in ECPInt.
 ECPInt:  NShTT=    6786 NPrTT=   21959 LenC2=    6375 LenP2D=   15453.
 LDataN:  DoStor=T MaxTD1= 7 Len=  274
 Leave Link 1101 at Sat May 24 05:12:56 2025, MaxMem=  3758096384 cpu:               0.9 elap:               0.2
 (Enter /apps/easybuild-2022/easybuild/software/Compiler/NVHPC/22.11-CUDA-11.7.0/Gaussian/g16c01-CUDA-11.7.0/g16/l1102.exe)
 Symmetrizing basis deriv contribution to polar:
 IMax=3 JMax=2 DiffMx= 0.00D+00
 Leave Link 1102 at Sat May 24 05:12:56 2025, MaxMem=  3758096384 cpu:               0.0 elap:               0.0
 (Enter /apps/easybuild-2022/easybuild/software/Compiler/NVHPC/22.11-CUDA-11.7.0/Gaussian/g16c01-CUDA-11.7.0/g16/l1110.exe)
 Forming Gx(P) for the SCF density, NAtomX=    11.
 Integral derivatives from FoFJK, PRISM(SPDF).
 Do as many integral derivatives as possible in FoFJK.
 G2DrvN: MDV=    3758095115.
 G2DrvN: will do    12 centers at a time, making    1 passes.
 Calling FoFCou, ICntrl=  3107 FMM=F I1Cent=   0 AccDes= 0.00D+00.
 FoFJK:  IHMeth= 1 ICntrl=    3107 DoSepK=F KAlg= 0 I1Cent=           0 FoldK=F
 IRaf=         0 NMat=       1 IRICut=       1 DoRegI=T DoRafI=F ISym2E= 0 IDoP0=0 IntGTp=1.
 FoFCou: FMM=F IPFlag=           0 FMFlag=      100000 FMFlg1=           0
         NFxFlg=           0 DoJE=F BraDBF=F KetDBF=F FulRan=T
         wScrn=  0.000000 ICntrl=      3107 IOpCl=  0 I1Cent=           0 NGrid=           0
         NMat0=    1 NMatS0=      1 NMatT0=    0 NMatD0=    1 NMtDS0=    0 NMtDT0=    0
 Symmetry not used in FoFCou.
 End of G2Drv F.D. properties file   721 does not exist.
 End of G2Drv F.D. properties file   722 does not exist.
 End of G2Drv F.D. properties file   788 does not exist.
 Leave Link 1110 at Sat May 24 05:13:38 2025, MaxMem=  3758096384 cpu:             330.9 elap:              41.7
 (Enter /apps/easybuild-2022/easybuild/software/Compiler/NVHPC/22.11-CUDA-11.7.0/Gaussian/g16c01-CUDA-11.7.0/g16/l1002.exe)
 Minotr:  Closed shell wavefunction.
          IDoAtm=11111111111
          Direct CPHF calculation.
          Differentiating once with respect to electric field.
                with respect to dipole field.
          Differentiating once with respect to nuclear coordinates.
          Requested convergence is 1.0D-08 RMS, and 1.0D-07 maximum.
          Secondary convergence is 1.0D-12 RMS, and 1.0D-12 maximum.
          NewPWx=T KeepS1=F KeepF1=F KeepIn=T MapXYZ=F SortEE=F KeepMc=T.
         3307 words used for storage of precomputed grid.
 Keep R1 ints in memory in canonical form, NReq=1412622537.
 FoFCou: FMM=F IPFlag=           0 FMFlag=           0 FMFlg1=           0
         NFxFlg=           0 DoJE=F BraDBF=F KetDBF=F FulRan=T
         wScrn=  0.000000 ICntrl=       600 IOpCl=  0 I1Cent=           0 NGrid=           0
         NMat0=    1 NMatS0=  52650 NMatT0=    0 NMatD0=    1 NMtDS0=    0 NMtDT0=    0
 Symmetry not used in FoFCou.
 Two-electron integral symmetry not used.
          MDV=    3758096384 using IRadAn=       1.
          Solving linear equations simultaneously, MaxMat=       0.
          There are    36 degrees of freedom in the 1st order CPHF.  IDoFFX=6 NUNeed=     3.
     33 vectors produced by pass  0 Test12= 3.16D-14 2.78D-09 XBig12= 4.62D+01 4.01D+00.
 AX will form    33 AO Fock derivatives at one time.
     33 vectors produced by pass  1 Test12= 3.16D-14 2.78D-09 XBig12= 2.37D+01 1.35D+00.
     33 vectors produced by pass  2 Test12= 3.16D-14 2.78D-09 XBig12= 1.52D+00 1.95D-01.
     33 vectors produced by pass  3 Test12= 3.16D-14 2.78D-09 XBig12= 3.18D-02 2.62D-02.
     33 vectors produced by pass  4 Test12= 3.16D-14 2.78D-09 XBig12= 4.43D-04 2.53D-03.
     33 vectors produced by pass  5 Test12= 3.16D-14 2.78D-09 XBig12= 4.17D-06 2.03D-04.
     33 vectors produced by pass  6 Test12= 3.16D-14 2.78D-09 XBig12= 1.95D-08 1.39D-05.
     15 vectors produced by pass  7 Test12= 3.16D-14 2.78D-09 XBig12= 8.27D-11 8.77D-07.
      3 vectors produced by pass  8 Test12= 3.16D-14 2.78D-09 XBig12= 4.25D-13 5.91D-08.
      1 vectors produced by pass  9 Test12= 3.16D-14 2.78D-09 XBig12= 2.05D-15 5.41D-09.
 InvSVY:  IOpt=1 It=  1 EMax= 5.33D-15
 Solved reduced A of dimension   250 with    36 vectors.
 FullF1:  Do perturbations      1 to       3.
 Isotropic polarizability for W=    0.000000       55.16 Bohr**3.
 End of Minotr F.D. properties file   721 does not exist.
 End of Minotr F.D. properties file   722 does not exist.
 End of Minotr F.D. properties file   788 does not exist.
 Leave Link 1002 at Sat May 24 05:14:43 2025, MaxMem=  3758096384 cpu:             505.9 elap:              65.2
 (Enter /apps/easybuild-2022/easybuild/software/Compiler/NVHPC/22.11-CUDA-11.7.0/Gaussian/g16c01-CUDA-11.7.0/g16/l701.exe)
 ... and contract with generalized density number  0.
 Compute integral second derivatives.
   1 Symmetry operations used in ECPInt.
 ECPInt:  NShTT=    6786 NPrTT=   21959 LenC2=    6375 LenP2D=   15453.
 LDataN:  DoStor=T MaxTD1= 8 Len=  415
 Leave Link  701 at Sat May 24 05:14:43 2025, MaxMem=  3758096384 cpu:               0.8 elap:               0.1
 (Enter /apps/easybuild-2022/easybuild/software/Compiler/NVHPC/22.11-CUDA-11.7.0/Gaussian/g16c01-CUDA-11.7.0/g16/l702.exe)
 L702 exits ... SP integral derivatives will be done elsewhere.
 Leave Link  702 at Sat May 24 05:14:43 2025, MaxMem=  3758096384 cpu:               0.0 elap:               0.0
 (Enter /apps/easybuild-2022/easybuild/software/Compiler/NVHPC/22.11-CUDA-11.7.0/Gaussian/g16c01-CUDA-11.7.0/g16/l703.exe)
 Integral derivatives from FoFJK, PRISM(SPDF).
 Compute integral second derivatives, UseDBF=F ICtDFT=           0.
 Calling FoFJK, ICntrl=    100127 FMM=F ISym2X=0 I1Cent= 0 IOpClX= 0 NMat=1 NMatS=1 NMatT=0.
 FoFJK:  IHMeth= 1 ICntrl=  100127 DoSepK=F KAlg= 0 I1Cent=           0 FoldK=F
 IRaf=         0 NMat=       1 IRICut=       1 DoRegI=T DoRafI=F ISym2E= 0 IDoP0=0 IntGTp=1.
 FoFCou: FMM=F IPFlag=           0 FMFlag=      100000 FMFlg1=         800
         NFxFlg=           0 DoJE=F BraDBF=F KetDBF=F FulRan=T
         wScrn=  0.000000 ICntrl=    100127 IOpCl=  0 I1Cent=           0 NGrid=           0
         NMat0=    1 NMatS0=      1 NMatT0=    0 NMatD0=    1 NMtDS0=    0 NMtDT0=    0
 Symmetry not used in FoFCou.
 Leave Link  703 at Sat May 24 05:16:15 2025, MaxMem=  3758096384 cpu:             728.1 elap:              91.6
 (Enter /apps/easybuild-2022/easybuild/software/Compiler/NVHPC/22.11-CUDA-11.7.0/Gaussian/g16c01-CUDA-11.7.0/g16/l716.exe)
 Dipole        = 5.92252017D-01-1.70071145D-01-5.23734973D-01
 Polarizability= 7.04658872D+01 2.19318283D+00 4.42145742D+01
                -7.92780367D+00 5.25814956D+00 5.08130600D+01
 -------------------------------------------------------------------
 Center     Atomic                   Forces (Hartrees/Bohr)
 Number     Number              X              Y              Z
 -------------------------------------------------------------------
      1        6          -0.233967896   -0.085728922   -0.007730764
      2        8           0.063548737   -0.028237936   -0.064638860
      3        6          -0.006635359   -0.000958170   -0.023366161
      4        6           0.032377217   -0.006060978    0.035571632
      5        9           0.000498003    0.005261175   -0.017343836
      6        9          -0.012815323    0.007638068   -0.011771358
      7        9          -0.015199922   -0.003617266   -0.012671046
      8        9          -0.004934252   -0.011936309    0.015754809
      9        9          -0.006024819    0.001650337    0.017947851
     10        8           0.150669263    0.081961591    0.033265382
     11        1           0.032484350    0.040028411    0.034982352
 -------------------------------------------------------------------
 Cartesian Forces:  Max     0.233967896 RMS     0.057835451
 Force constants in Cartesian coordinates: 
                1             2             3             4             5 
      1  0.278563D+00
      2  0.206384D-01  0.180806D+00
      3 -0.449469D-02 -0.905629D-02  0.174241D+00
      4  0.356806D-01 -0.121228D-01 -0.509992D-01 -0.182158D-01
      5 -0.308212D-01 -0.588475D-01 -0.659861D-02 -0.121192D-01  0.763579D-01
      6 -0.752229D-01 -0.151604D-01 -0.270225D-01  0.171229D-01  0.361647D-01
      7 -0.142174D+00 -0.840618D-02  0.166593D-02  0.148743D-02  0.269353D-02
      8  0.383406D-02 -0.446984D-01 -0.153945D-02 -0.268424D-02  0.466146D-02
      9  0.235635D-01  0.370100D-02 -0.656889D-01 -0.286312D-02  0.409132D-02
     10 -0.288418D-01  0.520836D-02 -0.248368D-01  0.299259D-03  0.422084D-03
     11 -0.172633D-02  0.144134D-01 -0.457259D-02  0.291110D-03 -0.323398D-02
     12 -0.628428D-02 -0.248723D-02  0.199177D-01 -0.177087D-02 -0.559747D-03
     13  0.619378D-03  0.158948D-02 -0.586473D-02 -0.211272D-03  0.160648D-03
     14  0.517617D-03 -0.146748D-02  0.207149D-02 -0.609861D-04  0.344949D-03
     15 -0.109400D-02  0.101350D-02 -0.505680D-02  0.294715D-03  0.889426D-04
     16 -0.820594D-03  0.327674D-03  0.192932D-02  0.127396D-04 -0.581209D-03
     17  0.227215D-03 -0.169381D-02 -0.117645D-02  0.152904D-03  0.811224D-03
     18 -0.615902D-04  0.656434D-04 -0.337417D-02  0.717869D-03  0.279628D-03
     19  0.802583D-03 -0.182060D-02  0.176858D-02 -0.260555D-03  0.591667D-03
     20  0.100298D-02 -0.284196D-02  0.156384D-02 -0.252764D-03  0.129703D-02
     21 -0.366551D-04 -0.495695D-03 -0.230018D-02  0.405051D-03 -0.257267D-03
     22 -0.266047D-01  0.170034D-01  0.406172D-01  0.244538D-02 -0.425238D-02
     23  0.895870D-02  0.947952D-03 -0.800298D-02 -0.408891D-03  0.147861D-02
     24  0.254298D-01 -0.131649D-01 -0.239225D-01 -0.206911D-02  0.375120D-02
     25 -0.667559D-02 -0.367275D-01  0.836262D-02 -0.504275D-03  0.133516D-02
     26 -0.212807D-01 -0.282030D-01  0.585666D-02 -0.232989D-03  0.124621D-02
     27  0.407102D-02  0.127856D-01  0.189406D-02  0.112447D-03 -0.569152D-03
     28 -0.596919D-01  0.400979D-01  0.415062D-01  0.274652D-01  0.587327D-01
     29  0.122471D-01 -0.854810D-01 -0.113262D-01  0.152242D-01 -0.180927D-01
     30  0.288356D-02 -0.246318D-01 -0.112958D+00  0.196590D-01 -0.855757D-01
     31 -0.508565D-01 -0.257881D-01 -0.965444D-02 -0.481987D-01 -0.161619D-01
     32  0.640208D-02  0.270656D-01  0.327806D-01  0.122137D-01 -0.602320D-02
     33  0.312462D-01  0.474307D-01  0.442694D-01  0.193903D-01  0.491847D-01
                6             7             8             9            10 
      6  0.899914D-01
      7  0.332032D-02  0.450354D+00
      8  0.703620D-02 -0.216569D-02  0.530361D+00
      9  0.826919D-02 -0.344817D-02 -0.195440D-01  0.555589D+00
     10  0.303442D-02 -0.110944D+00  0.261938D-01 -0.808440D-01  0.611676D+00
     11 -0.188493D-02  0.150113D-01 -0.567318D-01  0.336211D-01 -0.804300D-02
     12 -0.306241D-02 -0.541217D-01  0.330379D-01 -0.142993D+00  0.300729D-01
     13 -0.143651D-03 -0.474535D-01 -0.318937D-03  0.143047D-01 -0.317024D+00
     14  0.136898D-03  0.119094D-01  0.373416D-02 -0.280946D-02  0.154107D-01
     15  0.562055D-03 -0.220540D-01 -0.707950D-04  0.547767D-02  0.250879D-01
     16 -0.117055D-02  0.928733D-02 -0.925365D-02 -0.740835D-02 -0.803593D-01
     17  0.670759D-03  0.290059D-02 -0.485307D-02 -0.465028D-02  0.680775D-02
     18  0.770397D-03  0.815195D-02 -0.308354D-01 -0.244435D-01  0.186083D-02
     19  0.932491D-04  0.921333D-02  0.923909D-02 -0.871272D-03 -0.859171D-01
     20  0.675761D-03 -0.132691D-01 -0.264141D-01  0.230570D-02 -0.349107D-01
     21  0.442358D-03  0.120368D-01  0.297570D-01  0.871661D-03  0.998319D-02
     22 -0.635599D-02 -0.887030D-01  0.327038D-01  0.586784D-01  0.497367D-02
     23  0.150430D-02  0.233075D-01 -0.108540D+00 -0.832982D-01  0.864320D-03
     24  0.569566D-02  0.428188D-01 -0.813674D-01 -0.245115D+00  0.221511D-01
     25  0.133394D-02 -0.766621D-01 -0.468717D-01  0.140875D-01  0.734850D-02
     26  0.447262D-04 -0.264802D-01 -0.296577D+00  0.769850D-01 -0.112325D-01
     27 -0.358407D-03  0.743341D-02  0.678061D-01 -0.932441D-01  0.123605D-01
     28  0.740098D-01 -0.610690D-02 -0.117535D-01 -0.196946D-01 -0.116454D-02
     29 -0.650705D-01  0.190883D-02  0.160202D-02 -0.922763D-03  0.125174D-02
     30 -0.882388D-01  0.948615D-02  0.735119D-02  0.781877D-02  0.256814D-02
     31 -0.160215D-01  0.170144D-02  0.107696D-02  0.449532D-02 -0.466949D-04
     32  0.358826D-01 -0.740998D-02 -0.254483D-02 -0.947931D-02 -0.197254D-02
     33  0.129510D-01 -0.528947D-02 -0.116314D-01 -0.654232D-02 -0.143819D-02
               11            12            13            14            15 
     11  0.581026D+00
     12 -0.152429D-01  0.603541D+00
     13  0.152321D-01  0.198988D-01  0.438798D+00
     14 -0.761884D-01  0.897894D-03 -0.354385D-02  0.862055D-01
     15  0.177067D-03 -0.838165D-01 -0.937236D-01  0.597945D-02  0.996660D-01
     16  0.878558D-02  0.394750D-02 -0.325960D-01  0.400393D-01  0.593170D-01
     17 -0.149458D+00 -0.106944D+00  0.288799D-01 -0.233149D-02 -0.260785D-01
     18 -0.102301D+00 -0.238569D+00  0.430294D-01 -0.266916D-01 -0.246336D-01
     19 -0.365799D-01  0.114152D-01 -0.488434D-01 -0.627030D-01  0.341671D-01
     20 -0.272068D+00  0.906546D-01 -0.438984D-01 -0.147033D-01  0.179145D-01
     21  0.881003D-01 -0.120100D+00  0.266301D-01  0.205197D-01  0.340781D-02
     22 -0.473314D-02 -0.593174D-02  0.440582D-02 -0.131791D-02 -0.193381D-02
     23 -0.115707D-02 -0.396507D-02 -0.920546D-03  0.946055D-03  0.118315D-02
     24 -0.294729D-01 -0.312454D-01 -0.204863D-02  0.186813D-02  0.325277D-02
     25  0.137918D-01 -0.345582D-02  0.407996D-02 -0.852521D-03  0.113077D-02
     26 -0.336686D-01  0.413275D-03  0.409064D-02  0.296312D-02  0.489794D-03
     27  0.302977D-01 -0.141574D-02 -0.257807D-02 -0.172410D-02  0.506250D-03
     28 -0.109886D-02  0.789105D-02 -0.245781D-02  0.592585D-03 -0.150671D-02
     29 -0.425569D-02  0.168447D-02 -0.752688D-03  0.515787D-03 -0.165537D-03
     30 -0.820083D-03 -0.495061D-02  0.790262D-03 -0.147453D-03  0.113180D-02
     31 -0.930696D-03 -0.166099D-02  0.683065D-03  0.878415D-05  0.314602D-03
     32  0.132137D-02  0.251094D-02 -0.518405D-03 -0.189289D-04 -0.531530D-03
     33  0.209858D-02  0.269365D-02 -0.294568D-03 -0.100967D-03 -0.497512D-03
               16            17            18            19            20 
     16  0.908845D-01
     17 -0.301122D-01  0.236848D+00
     18 -0.453795D-01  0.178879D+00  0.283530D+00
     19  0.142594D-01 -0.743003D-02 -0.281232D-02  0.111480D+00
     20 -0.105551D-01 -0.862708D-01 -0.225733D-01  0.956799D-01  0.399401D+00
     21 -0.527897D-02 -0.416368D-01  0.145182D-01 -0.379287D-01 -0.100371D+00
     22 -0.103397D-02 -0.120589D-02 -0.476502D-02  0.174372D-03  0.127973D-02
     23  0.147925D-03  0.136952D-02  0.627231D-03 -0.331377D-03  0.353706D-02
     24 -0.518122D-02  0.375804D-03 -0.972855D-02 -0.159166D-02  0.487989D-02
     25 -0.517789D-04 -0.499407D-04  0.323392D-03 -0.902078D-03  0.396157D-02
     26  0.105338D-02  0.531572D-02  0.279290D-02  0.274812D-02 -0.272497D-02
     27 -0.687729D-03  0.433607D-03  0.141899D-02 -0.360925D-02  0.556328D-02
     28  0.660878D-03 -0.543715D-03 -0.156935D-02 -0.471866D-03  0.492662D-03
     29 -0.545974D-03  0.867409D-03  0.422309D-03  0.749825D-03  0.150739D-02
     30 -0.908886D-03  0.809056D-03  0.119266D-02 -0.104367D-03  0.816136D-05
     31 -0.243160D-03  0.373452D-03  0.504349D-03  0.465511D-03  0.469194D-03
     32  0.694290D-03 -0.604291D-03 -0.664797D-03 -0.143657D-03 -0.719709D-03
     33  0.821339D-03 -0.681615D-03 -0.681486D-03 -0.526563D-03 -0.621330D-03
               21            22            23            24            25 
     21  0.109609D+00
     22 -0.754393D-03  0.858284D-01
     23 -0.161806D-02 -0.475209D-01  0.183255D+00
     24  0.132900D-03 -0.804354D-01  0.147167D+00  0.295456D+00
     25 -0.402275D-02  0.142512D-01  0.154078D-01  0.258603D-02  0.628548D-01
     26  0.609172D-02  0.532891D-02 -0.821028D-01 -0.338728D-01  0.488714D-01
     27 -0.672503D-02  0.383832D-03 -0.541723D-01  0.495577D-02 -0.189618D-01
     28 -0.120666D-02  0.627964D-02 -0.258873D-03 -0.345386D-02 -0.426731D-02
     29  0.466760D-04 -0.217455D-02  0.136697D-02  0.331064D-02  0.119009D-02
     30  0.633044D-03 -0.601804D-02  0.190648D-02  0.596828D-02  0.158506D-02
     31  0.172892D-03 -0.201686D-02  0.754316D-03  0.179412D-02  0.528619D-03
     32 -0.136441D-03  0.488895D-02 -0.110100D-02 -0.347488D-02 -0.561659D-04
     33 -0.489775D-03  0.651492D-02 -0.133178D-02 -0.545062D-02 -0.296896D-02
               26            27            28            29            30 
     26  0.432782D+00
     27 -0.604913D-01  0.927147D-01
     28 -0.305271D-02  0.184429D-02  0.382567D-01
     29  0.121637D-02 -0.434505D-03 -0.345033D-01  0.129899D+00
     30  0.313790D-02 -0.460650D-03 -0.247209D-01  0.818487D-01  0.190435D+00
     31  0.186589D-03 -0.368572D-03  0.149789D-02  0.540478D-02 -0.521999D-02
     32 -0.247516D-03  0.505047D-03 -0.487049D-01 -0.291457D-01  0.161136D-01
     33 -0.144786D-02  0.714196D-03 -0.730992D-01 -0.939323D-02 -0.571738D-03
               31            32            33 
     31  0.964853D-01
     32  0.346066D-01  0.120183D-01
     33  0.256442D-01 -0.735058D-01 -0.463949D-01
 FormGI is forming the generalized inverse of G from B-inverse, IUseBI=4.
 Force constants in internal coordinates: 
                1             2             3             4             5 
      1  0.215917D+00
      2  0.130782D-02  0.116548D+00
      3  0.748457D-04 -0.796908D-01  0.113074D+00
      4  0.177646D-01 -0.180249D-02  0.321796D-04  0.270957D+00
      5  0.309997D-01  0.226646D-02 -0.774364D-02  0.146051D-01  0.421138D+00
      6  0.326192D-01  0.524814D-03  0.113157D-02  0.155620D-01  0.609755D-01
      7 -0.154773D-03  0.179067D-02 -0.160384D-03  0.169728D-01  0.413208D-02
      8 -0.226762D-03 -0.900990D-03  0.149111D-02  0.155419D-01  0.373752D-02
      9  0.122321D-02  0.181666D-02 -0.119007D-02  0.175976D-01  0.469915D-02
     10 -0.639371D-02  0.221172D-01  0.147528D+00  0.287694D-03 -0.358805D-03
     11  0.150362D-01  0.157593D-01  0.288126D-01 -0.162298D-02 -0.152917D-01
     12  0.143387D-01  0.417667D-02  0.461758D-02  0.178491D-01 -0.178439D-01
     13  0.811703D-02 -0.398883D-02 -0.647787D-02 -0.134110D-01  0.102022D-01
     14  0.471610D-02  0.577833D-03  0.907979D-03 -0.126220D-01 -0.397576D-02
     15 -0.158230D-01  0.245601D-03  0.195595D-02  0.558859D-02  0.760324D-02
     16 -0.133080D-01 -0.157897D-02 -0.200072D-02  0.629741D-02 -0.182320D-01
     17  0.131825D-02  0.276462D-03  0.641511D-03 -0.508541D-02  0.231210D-01
     18  0.169928D-02  0.157304D-02  0.971320D-03  0.174672D-01 -0.702263D-02
     19  0.371429D-03  0.994647D-03 -0.200775D-02  0.113594D-01  0.132724D-01
     20 -0.262821D-03 -0.749701D-03  0.114206D-02  0.783137D-02 -0.363524D-03
     21 -0.102874D-02 -0.923967D-03  0.407081D-03 -0.147718D-01 -0.185424D-02
     22 -0.861008D-03 -0.805677D-03 -0.441151D-03 -0.135530D-01 -0.491646D-03
     23 -0.111330D-03 -0.280405D-03 -0.709380D-04 -0.123231D-01 -0.427024D-02
     24 -0.817071D-02  0.104750D+00 -0.619053D-01  0.163017D-02 -0.117394D-01
     25 -0.957962D-02 -0.398479D-01  0.158953D+00  0.925430D-03 -0.119760D-01
     26  0.103626D-02 -0.520203D-04 -0.203403D-03 -0.612719D-03 -0.135966D-01
     27 -0.401192D-02  0.584471D-03  0.131538D-02  0.997638D-02 -0.979797D-02
     28  0.539823D-02 -0.111698D-02 -0.122914D-02 -0.121306D-01  0.223940D-01
     29 -0.153567D-02 -0.403312D-03 -0.359080D-03  0.879207D-03 -0.477465D-03
     30  0.717453D-03 -0.189588D-02 -0.170248D-02  0.258051D-03  0.827954D-02
     31  0.859853D-03 -0.126960D-02 -0.189592D-02  0.159904D-02  0.102114D-01
     32  0.795169D-03 -0.145366D-02 -0.264059D-02 -0.307944D-03  0.142430D-01
     33 -0.920822D-02  0.106222D-03  0.203946D-02  0.150232D-02  0.288074D-02
     34 -0.906582D-02  0.732501D-03  0.184602D-02  0.284330D-02  0.481264D-02
     35 -0.913050D-02  0.548446D-03  0.110135D-02  0.936323D-03  0.884415D-02
     36  0.798174D-02  0.618780D-03  0.125670D-02  0.208609D-03 -0.193485D-01
     37  0.812414D-02  0.124506D-02  0.106326D-02  0.154959D-02 -0.174166D-01
     38  0.805946D-02  0.106100D-02  0.318590D-03 -0.357387D-03 -0.133851D-01
     39 -0.717346D-03 -0.232080D-03 -0.213625D-03  0.451865D-03 -0.373834D-03
                6             7             8             9            10 
      6  0.448844D+00
      7  0.482785D-02  0.461675D+00
      8  0.485651D-02  0.626626D-01  0.447290D+00
      9  0.445188D-02  0.630177D-01  0.611455D-01  0.459780D+00
     10 -0.785067D-03 -0.627757D-03 -0.823607D-03 -0.183570D-03  0.243525D-02
     11  0.117645D-01  0.195344D-02  0.693214D-02 -0.114721D-04 -0.220849D-02
     12 -0.184150D-01  0.105259D-01 -0.264060D-02 -0.860728D-03 -0.124155D-02
     13 -0.413985D-02 -0.931044D-03 -0.383894D-02 -0.206228D-02  0.762426D-03
     14  0.130432D-01 -0.120131D-02  0.769917D-03 -0.463960D-02 -0.230030D-03
     15 -0.184229D-01 -0.649508D-02  0.114628D-01 -0.484671D-03  0.119034D-03
     16  0.674951D-02 -0.291179D-02 -0.416704D-02  0.104992D-01  0.581298D-03
     17  0.225678D-01  0.399432D-03 -0.157397D-02 -0.242192D-02  0.887774D-04
     18 -0.152825D-02 -0.324338D-02 -0.315316D-01 -0.328155D-01 -0.830083D-03
     19 -0.467196D-02 -0.309320D-01 -0.286696D-02 -0.317801D-01 -0.140434D-03
     20  0.135520D-01 -0.316631D-01 -0.314950D-01  0.159196D-02 -0.731521D-03
     21 -0.129113D-02  0.327671D-01  0.334587D-01  0.700728D-02  0.551473D-03
     22 -0.361208D-02  0.332853D-01  0.732178D-02  0.317213D-01  0.719639D-03
     23 -0.332023D-02  0.760774D-02  0.321889D-01  0.308475D-01  0.615505D-03
     24  0.808460D-03  0.638105D-03 -0.264781D-02 -0.654282D-04 -0.201253D+00
     25  0.844559D-03  0.358064D-03 -0.529733D-03 -0.127171D-02 -0.836625D-01
     26  0.145576D-01  0.177707D-02 -0.573640D-02  0.406233D-02 -0.563221D-04
     27 -0.231392D-01  0.177342D-03  0.435176D-02  0.161594D-02 -0.268116D-03
     28  0.102298D-01 -0.629840D-03  0.577251D-03 -0.546756D-02  0.158059D-03
     29  0.590385D-02  0.293933D-03 -0.164923D-02 -0.260427D-02 -0.328255D-03
     30 -0.893472D-02 -0.655084D-03 -0.169494D-01  0.175710D-01  0.251322D-03
     31 -0.149803D-01  0.176468D-01  0.182180D-02 -0.191172D-01  0.273898D-03
     32 -0.127530D-01 -0.190662D-01  0.186326D-01 -0.105112D-02  0.434946D-03
     33  0.199015D-01 -0.254602D-02 -0.174829D-01  0.210066D-01  0.632266D-04
     34  0.138559D-01  0.157559D-01  0.128823D-02 -0.156816D-01  0.858032D-04
     35  0.160832D-01 -0.209571D-01  0.180990D-01  0.238447D-02  0.246851D-03
     36 -0.890480D-03  0.304149D-02 -0.202436D-01  0.175878D-01 -0.500830D-03
     37 -0.693602D-02  0.213434D-01 -0.147240D-02 -0.191004D-01 -0.478254D-03
     38 -0.470873D-02 -0.153696D-01  0.153384D-01 -0.103433D-02 -0.317206D-03
     39  0.218948D-02  0.656410D-03 -0.536390D-03 -0.189326D-02 -0.401381D-03
               11            12            13            14            15 
     11  0.945131D-01
     12  0.120711D-01  0.132784D+00
     13 -0.125342D-01 -0.503090D-01  0.679213D-01
     14  0.319698D-02 -0.461671D-01  0.116537D-01  0.612057D-01
     15  0.143295D-02 -0.372132D-01 -0.357569D-01  0.160897D-01  0.996564D-01
     16 -0.658695D-02 -0.387614D-01  0.170715D-01 -0.321039D-01  0.266493D-02
     17  0.157151D-02  0.306060D-01 -0.631529D-02 -0.720181D-02 -0.440748D-01
     18  0.798619D-02  0.173591D-01 -0.421118D-02 -0.162431D-02 -0.697080D-02
     19 -0.395206D-02 -0.418072D-02 -0.579390D-02  0.280790D-02  0.168559D-01
     20  0.289591D-02 -0.845655D-02  0.334041D-02 -0.535192D-02 -0.422144D-02
     21 -0.191264D-02 -0.429635D-02  0.426123D-02  0.260480D-03 -0.450790D-02
     22 -0.378067D-02 -0.410188D-02  0.135783D-02  0.290417D-02  0.261644D-02
     23 -0.193483D-02  0.329690D-02  0.176095D-02  0.146494D-02 -0.447399D-02
     24  0.605155D-01  0.829185D-02 -0.131772D-01  0.162846D-02  0.422339D-02
     25  0.503776D-01  0.664074D-02 -0.104596D-01  0.163822D-02  0.343860D-02
     26  0.113993D-02 -0.324807D-03  0.105903D-01 -0.103505D-01 -0.292259D-01
     27  0.325663D-02  0.112037D-01 -0.255104D-01 -0.140470D-01  0.474921D-01
     28 -0.372681D-03 -0.974243D-02  0.147170D-01  0.217767D-01 -0.184380D-01
     29  0.225036D-02 -0.941495D-02  0.322609D-02  0.707060D-02  0.142324D-02
     30 -0.364534D-02 -0.260988D-02  0.132548D-01 -0.115802D-01 -0.314686D-02
     31 -0.320524D-02  0.126890D-02  0.116874D-01 -0.104262D-01 -0.208878D-02
     32 -0.655441D-02 -0.381577D-02  0.121626D-01 -0.103827D-01  0.148052D-02
     33  0.294383D-02 -0.616851D-02 -0.153090D-01 -0.503893D-02  0.472148D-02
     34  0.338392D-02 -0.228972D-02 -0.168764D-01 -0.388491D-02  0.577956D-02
     35  0.347530D-04 -0.737439D-02 -0.164012D-01 -0.384143D-02  0.934886D-02
     36  0.429153D-02  0.449327D-02  0.478700D-02  0.143133D-01 -0.617565D-02
     37  0.473163D-02  0.837206D-02  0.321959D-02  0.154673D-01 -0.511757D-02
     38  0.138246D-02  0.328739D-02  0.369478D-02  0.155108D-01 -0.154827D-02
     39  0.125408D-02 -0.179472D-02  0.630293D-03  0.789641D-03  0.696706D-03
               16            17            18            19            20 
     16  0.988537D-01
     17 -0.450834D-01  0.700220D-01
     18 -0.101870D-01  0.452770D-02  0.165782D+00
     19 -0.556514D-02 -0.405720D-02  0.418894D-03  0.160756D+00
     20  0.199111D-01 -0.460634D-02  0.178208D-02 -0.714223D-03  0.160142D+00
     21  0.384191D-02  0.800596D-03 -0.912662D-01 -0.859888D-01 -0.316452D-02
     22 -0.327359D-02  0.755016D-03 -0.906646D-01 -0.307730D-02 -0.882254D-01
     23 -0.529849D-02  0.309424D-02 -0.403323D-02 -0.893249D-01 -0.878627D-01
     24 -0.370280D-02  0.207307D-02 -0.476918D-03 -0.153598D-02 -0.540710D-03
     25 -0.321576D-02  0.143124D-02  0.582110D-04 -0.228605D-02  0.774544D-03
     26  0.302311D-01 -0.528083D-03 -0.542057D-03 -0.733500D-02  0.742006D-02
     27  0.181679D-01 -0.386428D-01 -0.189255D-03  0.720906D-02 -0.140502D-02
     28 -0.469261D-01  0.394576D-01  0.186084D-02  0.452688D-03 -0.837224D-02
     29 -0.806237D-03 -0.815965D-03 -0.379085D-02 -0.309923D-03  0.143664D-02
     30  0.420296D-02  0.449511D-04  0.999296D-03 -0.106372D-02  0.530592D-04
     31 -0.200599D-02  0.145412D-02  0.146106D-02  0.111942D-02 -0.327109D-02
     32  0.168447D-02 -0.935982D-03 -0.221348D-02  0.313465D-02 -0.272101D-03
     33  0.733532D-02  0.145580D-01 -0.110424D-02 -0.146418D-02  0.417478D-02
     34  0.112637D-02  0.159671D-01 -0.642474D-03  0.718962D-03  0.850638D-03
     35  0.481683D-02  0.135771D-01 -0.431702D-02  0.273419D-02  0.384962D-02
     36 -0.152469D-02 -0.158113D-01  0.429767D-02 -0.369559D-02 -0.151513D-03
     37 -0.773363D-02 -0.144021D-01  0.475944D-02 -0.151245D-02 -0.347566D-02
     38 -0.404318D-02 -0.167922D-01  0.108489D-02  0.502784D-03 -0.476673D-03
     39  0.281442D-03 -0.481759D-03 -0.139427D-02 -0.336698D-03  0.399658D-03
               21            22            23            24            25 
     21  0.130036D+00
     22  0.355001D-01  0.131213D+00
     23  0.349889D-01  0.353672D-01  0.130558D+00
     24  0.117860D-02  0.393820D-03  0.126320D-02 -0.555933D+00
     25  0.102017D-02 -0.103750D-03  0.701105D-03 -0.573264D+00 -0.221515D+00
     26  0.245646D-02 -0.197206D-02  0.134191D-04 -0.161713D-02 -0.109942D-02
     27 -0.337839D-02 -0.629829D-03 -0.224884D-02  0.104036D-02  0.115635D-02
     28  0.331101D-03  0.290610D-02  0.352716D-02 -0.332324D-02 -0.235864D-02
     29  0.982339D-03  0.622186D-03  0.130551D-02 -0.431219D-02 -0.321328D-02
     30 -0.218132D-01  0.212273D-01  0.522806D-03 -0.447786D-02 -0.317243D-02
     31  0.207912D-01  0.333739D-03 -0.199408D-01 -0.437422D-02 -0.341979D-02
     32  0.210523D-03 -0.211004D-01  0.198290D-01 -0.426147D-02 -0.362898D-02
     33 -0.214450D-01  0.206763D-01 -0.111319D-02  0.372087D-02  0.324269D-02
     34  0.211593D-01 -0.217188D-03 -0.215768D-01  0.382451D-02  0.299534D-02
     35  0.578680D-03 -0.216513D-01  0.181930D-01  0.393725D-02  0.278614D-02
     36 -0.220100D-01  0.201445D-01  0.131679D-02  0.767286D-03  0.129036D-02
     37  0.205943D-01 -0.749027D-03 -0.191468D-01  0.870923D-03  0.104301D-02
     38  0.136527D-04 -0.221832D-01  0.206230D-01  0.983668D-03  0.833816D-03
     39  0.334583D-03  0.290701D-03  0.832789D-03 -0.214529D-02 -0.190823D-02
               26            27            28            29            30 
     26  0.208073D-01
     27 -0.913243D-02  0.415351D-01
     28 -0.979120D-02 -0.300983D-01  0.408110D-01
     29  0.145472D-02 -0.108006D-02  0.420829D-02  0.345597D-01
     30 -0.185025D-02  0.669668D-03  0.156204D-02 -0.888410D-03  0.277640D-01
     31 -0.421980D-02  0.123707D-02  0.363525D-02 -0.253865D-02 -0.479566D-03
     32 -0.416082D-02  0.261998D-02  0.238378D-02  0.208068D-04 -0.546851D-03
     33  0.324214D-02 -0.445265D-02  0.118879D-02  0.536643D-03  0.149985D-01
     34  0.872589D-03 -0.388525D-02  0.326200D-02 -0.111359D-02 -0.132450D-01
     35  0.931577D-03 -0.250234D-02  0.201053D-02  0.144586D-02 -0.133123D-01
     36  0.333274D-02  0.162317D-02 -0.617759D-02  0.116059D-02  0.142683D-01
     37  0.963186D-03  0.219057D-02 -0.410438D-02 -0.489647D-03 -0.139752D-01
     38  0.102217D-02  0.357348D-02 -0.535585D-02  0.206981D-02 -0.140425D-01
     39  0.386127D-03  0.439969D-03  0.711278D-03  0.576733D-02  0.200301D-03
               31            32            33            34            35 
     31  0.282355D-01
     32  0.352389D-03  0.286308D-01
     33 -0.145503D-01 -0.140019D-01  0.352241D-01
     34  0.141648D-01 -0.131027D-01  0.567528D-02  0.330851D-01
     35 -0.137183D-01  0.151757D-01  0.622363D-02  0.581763D-02  0.347117D-01
     36 -0.137297D-01 -0.148722D-01  0.912360D-02 -0.188744D-01 -0.200169D-01
     37  0.149854D-01 -0.139729D-01 -0.204252D-01  0.853545D-02 -0.204229D-01
     38 -0.128977D-01  0.143055D-01 -0.198768D-01 -0.187321D-01  0.847115D-02
     39 -0.597868D-03  0.545699D-03  0.190619D-03 -0.607549D-03  0.536018D-03
               36            37            38            39 
     36  0.339912D-01
     37  0.599317D-02  0.349538D-01
     38  0.485071D-02  0.599547D-02  0.331987D-01
     39  0.163083D-03 -0.635086D-03  0.508481D-03  0.232289D+00
 Leave Link  716 at Sat May 24 05:16:15 2025, MaxMem=  3758096384 cpu:               0.0 elap:               0.0
 (Enter /apps/easybuild-2022/easybuild/software/Compiler/NVHPC/22.11-CUDA-11.7.0/Gaussian/g16c01-CUDA-11.7.0/g16/l103.exe)

 GradGradGradGradGradGradGradGradGradGradGradGradGradGradGradGradGradGrad
 Berny optimization.
 Red2BG is reusing G-inverse.
 Internal  Forces:  Max     0.352389940 RMS     0.076772406
 Search for a saddle point.
 Step number   1 out of a maximum of  100
 All quantities printed in internal units (Hartrees-Bohrs-Radians)
 Swapping is turned off.
 Second derivative matrix not updated -- analytic derivatives used.
 ITU=  0
     Eigenvalues ---   -1.04359  -0.09007   0.00130   0.00192   0.03261
     Eigenvalues ---    0.03501   0.05541   0.08768   0.09192   0.10212
     Eigenvalues ---    0.10336   0.12112   0.15023   0.17300   0.20047
     Eigenvalues ---    0.21777   0.23188   0.23236   0.25117   0.26706
     Eigenvalues ---    0.35209   0.38358   0.40812   0.41500   0.42371
     Eigenvalues ---    0.51867   0.61956
 Eigenvectors required to have negative eigenvalues:
                          A14       A15       R10       R3        A1
   1                   -0.78013  -0.57970  -0.20699   0.06650   0.06398
                          R2        A3        R1        R5        A2
   1                    0.05811  -0.01221  -0.01105  -0.00971   0.00688
 Eigenvalue     2 is  -9.01D-02 should be greater than     0.000000 Eigenvector:
                          R3        R10       A14       R2        A1
   1                    0.67933  -0.62195   0.25753   0.20476  -0.19744
                          A15       A3        A2        D6        D3
   1                   -0.04938   0.02677  -0.01314   0.01225   0.01141
 RFO step:  Lambda0=1.303930460D-01 Lambda=-2.46169773D-01.
 Linear search not attempted -- option 19 set.
 Maximum step size (   0.300) exceeded in Quadratic search.
    -- Step size scaled by   0.281
 Iteration  1 RMS(Cart)=  0.04935772 RMS(Int)=  0.00455269
 Iteration  2 RMS(Cart)=  0.00549603 RMS(Int)=  0.00001776
 Iteration  3 RMS(Cart)=  0.00000801 RMS(Int)=  0.00001675
 Iteration  4 RMS(Cart)=  0.00000000 RMS(Int)=  0.00001675
 ITry= 1 IFail=0 DXMaxC= 1.90D-01 DCOld= 1.00D+10 DXMaxT= 3.00D-01 DXLimC= 3.00D+00 Rises=F
 Variable       Old X    -DE/DX   Delta X   Delta X   Delta X     New X
                                 (Linear)    (Quad)   (Total)
    R1        2.91823  -0.01449   0.00000  -0.00437  -0.00437   2.91386
    R2        2.74010  -0.22818   0.00000  -0.22516  -0.22516   2.51495
    R3        2.45664  -0.04832   0.00000  -0.15936  -0.15936   2.29729
    R4        2.91831  -0.00328   0.00000  -0.00129  -0.00129   2.91702
    R5        2.53516  -0.00864   0.00000  -0.00293  -0.00293   2.53223
    R6        2.51871  -0.00335   0.00000  -0.00083  -0.00083   2.51788
    R7        2.50051   0.00370   0.00000  -0.00006  -0.00006   2.50045
    R8        2.51061  -0.00306   0.00000  -0.00262  -0.00262   2.50799
    R9        2.50389   0.00281   0.00000   0.00037   0.00037   2.50426
   R10        2.45664  -0.08020   0.00000   0.09620   0.09620   2.55285
    A1        2.31489  -0.01109   0.00000  -0.00234  -0.00234   2.31254
    A2        1.86562   0.01313   0.00000   0.00977   0.00979   1.87541
    A3        1.94986  -0.00397   0.00000  -0.00475  -0.00473   1.94513
    A4        1.92978  -0.00583   0.00000  -0.00369  -0.00368   1.92611
    A5        1.95218  -0.01210   0.00000  -0.00686  -0.00686   1.94532
    A6        1.95575  -0.01078   0.00000  -0.00660  -0.00660   1.94915
    A7        1.81240   0.01864   0.00000   0.01144   0.01143   1.82383
    A8        1.95557  -0.01853   0.00000  -0.00731  -0.00734   1.94823
    A9        1.96945  -0.02106   0.00000  -0.00924  -0.00929   1.96017
   A10        1.97395  -0.02353   0.00000  -0.01117  -0.01122   1.96273
   A11        1.84916   0.02291   0.00000   0.01030   0.01028   1.85944
   A12        1.84917   0.02378   0.00000   0.01041   0.01038   1.85954
   A13        1.85696   0.02342   0.00000   0.01010   0.01005   1.86701
   A14        1.56768  -0.35239   0.00000   0.02267   0.02267   1.59035
   A15        2.11723  -0.20078   0.00000   0.05625   0.05625   2.17348
    D1       -2.06770   0.00025   0.00000   0.00065   0.00065  -2.06705
    D2        0.07315  -0.00843   0.00000  -0.00426  -0.00426   0.06888
    D3        2.08240   0.00857   0.00000   0.00472   0.00472   2.08712
    D4        3.12485  -0.00107   0.00000   0.00035   0.00035   3.12520
    D5        2.95088   0.00042   0.00000  -0.00060  -0.00059   2.95028
    D6       -1.24683   0.00203   0.00000   0.00101   0.00100  -1.24583
    D7        0.86221  -0.00039   0.00000  -0.00092  -0.00091   0.86130
    D8        0.81148   0.00401   0.00000   0.00298   0.00299   0.81447
    D9        2.89696   0.00562   0.00000   0.00459   0.00459   2.90154
   D10       -1.27718   0.00320   0.00000   0.00267   0.00268  -1.27450
   D11       -1.21560  -0.00462   0.00000  -0.00269  -0.00270  -1.21830
   D12        0.86988  -0.00301   0.00000  -0.00109  -0.00110   0.86877
   D13        2.97892  -0.00543   0.00000  -0.00301  -0.00301   2.97591
   D14       -0.00126  -0.00043   0.00000   0.00016   0.00016  -0.00110
         Item               Value     Threshold  Converged?
 Maximum Force            0.352390     0.000450     NO 
 RMS     Force            0.076772     0.000300     NO 
 Maximum Displacement     0.190037     0.001800     NO 
 RMS     Displacement     0.049912     0.001200     NO 
 Predicted change in Energy=-3.858723D-02
 Lowest energy point so far.  Saving SCF results.
 GradGradGradGradGradGradGradGradGradGradGradGradGradGradGradGradGradGrad

 Leave Link  103 at Sat May 24 05:16:15 2025, MaxMem=  3758096384 cpu:               0.0 elap:               0.1
 (Enter /apps/easybuild-2022/easybuild/software/Compiler/NVHPC/22.11-CUDA-11.7.0/Gaussian/g16c01-CUDA-11.7.0/g16/l202.exe)
                          Input orientation:                          
 ---------------------------------------------------------------------
 Center     Atomic      Atomic             Coordinates (Angstroms)
 Number     Number       Type             X           Y           Z
 ---------------------------------------------------------------------
      1          6           0        1.634444    0.954000   -0.240335
      2          8           0       -0.002033    1.348078    1.002024
      3          6           0        3.118918    1.218600   -0.562705
      4          6           0        3.943909    0.788966    0.669189
      5          9           0        5.239627    0.760374    0.402521
      6          9           0        3.787360    1.617336    1.694215
      7          9           0        3.620053   -0.422435    1.097871
      8          9           0        3.505551    0.561908   -1.664915
      9          9           0        3.307264    2.504339   -0.857155
     10          8           0        0.719767    0.165224   -0.799231
     11          1           0       -0.205425    0.552208    0.105875
 ---------------------------------------------------------------------
                    Distance matrix (angstroms):
                    1          2          3          4          5
     1  C    0.000000
     2  O    2.092083   0.000000
     3  C    1.541946   3.493634   0.000000
     4  C    2.487590   3.999231   1.543619   0.000000
     5  F    3.667165   5.308465   2.374666   1.323183   0.000000
     6  F    2.969436   3.861493   2.387362   1.327171   2.124132
     7  F    2.761886   4.032792   2.387812   1.325196   2.122632
     8  F    2.384157   4.475911   1.339999   2.385740   2.705680
     9  F    2.362698   3.967989   1.332404   2.382760   2.891751
    10  O    1.330852   2.272589   2.630869   3.597278   4.714609
    11  H    1.914789   1.215673   3.455768   4.194085   5.457098
                    6          7          8          9         10
     6  F    0.000000
     7  F    2.131732   0.000000
     8  F    3.532294   2.935137   0.000000
     9  F    2.743493   3.533549   2.113016   0.000000
    10  O    4.211417   3.515110   2.944038   3.488546   0.000000
    11  H    4.427150   4.070413   4.111828   4.132460   1.350908
                   11
    11  H    0.000000
 Symmetry turned off by external request.
 Stoichiometry    C3HF5O2
 Rotational constants (GHZ):           1.7662198           1.0079639           0.8794814
 Leave Link  202 at Sat May 24 05:16:15 2025, MaxMem=  3758096384 cpu:               0.0 elap:               0.0
 (Enter /apps/easybuild-2022/easybuild/software/Compiler/NVHPC/22.11-CUDA-11.7.0/Gaussian/g16c01-CUDA-11.7.0/g16/l301.exe)
 Standard basis: def2TZVPP (5D, 7F)
 Ernie: Thresh=  0.10000D-02 Tol=  0.10000D-05 Strict=F.
   324 basis functions,   527 primitive gaussians,   375 cartesian basis functions
    40 alpha electrons       40 beta electrons
       nuclear repulsion energy       605.8055241259 Hartrees.
 IExCor= 4336 DFT=T Ex+Corr=M062X ExCW=0 ScaHFX=  0.540000
 ScaDFX=  1.000000  1.000000  1.000000  1.000000 ScalE2=  1.000000  1.000000
 IRadAn=      5 IRanWt=     -1 IRanGd=            0 ICorTp=0 IEmpDi=  4
 NAtoms=   11 NActive=   11 NUniq=   11 SFac= 1.00D+00 NAtFMM=   60 NAOKFM=F Big=F
 Integral buffers will be    131072 words long.
 Raffenetti 2 integral format.
 Two-electron integral symmetry is turned off.
 Leave Link  301 at Sat May 24 05:16:15 2025, MaxMem=  3758096384 cpu:               0.0 elap:               0.0
 (Enter /apps/easybuild-2022/easybuild/software/Compiler/NVHPC/22.11-CUDA-11.7.0/Gaussian/g16c01-CUDA-11.7.0/g16/l302.exe)
 NPDir=0 NMtPBC=     1 NCelOv=     1 NCel=       1 NClECP=     1 NCelD=      1
         NCelK=      1 NCelE2=     1 NClLst=     1 CellRange=     0.0.
 One-electron integrals computed using PRISM.
   1 Symmetry operations used in ECPInt.
 ECPInt:  NShTT=    6786 NPrTT=   21959 LenC2=    6374 LenP2D=   15487.
 LDataN:  DoStor=T MaxTD1= 6 Len=  172
 NBasis=   324 RedAO= T EigKep=  2.67D-04  NBF=   324
 NBsUse=   324 1.00D-06 EigRej= -1.00D+00 NBFU=   324
 Precomputing XC quadrature grid using
 IXCGrd= 4 IRadAn=           5 IRanWt=          -1 IRanGd=           0 AccXCQ= 0.00D+00.
 Generated NRdTot=       0 NPtTot=           0 NUsed=           0 NTot=          32
 NSgBfM=   371   371   371   371   371 MxSgAt=    11 MxSgA2=    11.
 Leave Link  302 at Sat May 24 05:16:15 2025, MaxMem=  3758096384 cpu:               0.6 elap:               0.1
 (Enter /apps/easybuild-2022/easybuild/software/Compiler/NVHPC/22.11-CUDA-11.7.0/Gaussian/g16c01-CUDA-11.7.0/g16/l303.exe)
 DipDrv:  MaxL=1.
 Leave Link  303 at Sat May 24 05:16:15 2025, MaxMem=  3758096384 cpu:               0.1 elap:               0.0
 (Enter /apps/easybuild-2022/easybuild/software/Compiler/NVHPC/22.11-CUDA-11.7.0/Gaussian/g16c01-CUDA-11.7.0/g16/l401.exe)
 Initial guess from the checkpoint file:  "1642764945472630600001_r13_insertion_ROR_11_10_1_2.chk"
 B after Tr=     0.001702   -0.022814   -0.019368
         Rot=    0.999998   -0.000482    0.001163   -0.001595 Ang=  -0.23 deg.
 Guess basis will be translated and rotated to current coordinates.
 JPrj=2 DoOrth=T DoCkMO=T.
 Generating alternative initial guess.
 ExpMin= 9.52D-02 ExpMax= 3.55D+04 ExpMxC= 1.21D+03 IAcc=3 IRadAn=         5 AccDes= 0.00D+00
 Harris functional with IExCor= 1009 and IRadAn=       5 diagonalized for initial guess.
 HarFok:  IExCor= 1009 AccDes= 0.00D+00 IRadAn=         5 IDoV= 1 UseB2=F ITyADJ=14
 ICtDFT=  3500011 ScaDFX=  1.000000  1.000000  1.000000  1.000000
 FoFCou: FMM=F IPFlag=           0 FMFlag=      100000 FMFlg1=           0
         NFxFlg=           0 DoJE=T BraDBF=F KetDBF=T FulRan=T
         wScrn=  0.000000 ICntrl=       500 IOpCl=  0 I1Cent=   200000004 NGrid=           0
         NMat0=    1 NMatS0=      1 NMatT0=    0 NMatD0=    1 NMtDS0=    0 NMtDT0=    0
 Symmetry not used in FoFCou.
 Harris En= -764.012090978487    
 Leave Link  401 at Sat May 24 05:16:16 2025, MaxMem=  3758096384 cpu:               3.8 elap:               0.6
 (Enter /apps/easybuild-2022/easybuild/software/Compiler/NVHPC/22.11-CUDA-11.7.0/Gaussian/g16c01-CUDA-11.7.0/g16/l502.exe)
 Keep R1 ints in memory in canonical form, NReq=1412617130.
 FoFCou: FMM=F IPFlag=           0 FMFlag=           0 FMFlg1=           0
         NFxFlg=           0 DoJE=F BraDBF=F KetDBF=F FulRan=T
         wScrn=  0.000000 ICntrl=       600 IOpCl=  0 I1Cent=           0 NGrid=           0
         NMat0=    1 NMatS0=  52650 NMatT0=    0 NMatD0=    1 NMtDS0=    0 NMtDT0=    0
 Symmetry not used in FoFCou.
 Two-electron integral symmetry not used.
 Closed shell SCF:
 Using DIIS extrapolation, IDIIS=  1040.
 NGot=  3758096384 LenX=  2371771924 LenY=  2371630858
 Requested convergence on RMS density matrix=1.00D-08 within  32 cycles.
 Requested convergence on MAX density matrix=1.00D-06.
 Requested convergence on             energy=1.00D-06.
 No special actions if energy rises.
 Integral accuracy reduced to 1.0D-05 until final iterations.

 Cycle   1  Pass 0  IDiag  1:
 E= -764.385437633209    
 DIIS: error= 3.67D-03 at cycle   1 NSaved=   1.
 NSaved= 1 IEnMin= 1 EnMin= -764.385437633209     IErMin= 1 ErrMin= 3.67D-03
 ErrMax= 3.67D-03  0.00D+00 EMaxC= 1.00D-01 BMatC= 9.07D-03 BMatP= 9.07D-03
 IDIUse=3 WtCom= 9.63D-01 WtEn= 3.67D-02
 Coeff-Com:  0.100D+01
 Coeff-En:   0.100D+01
 Coeff:      0.100D+01
 Gap=     1.034 Goal=   None    Shift=    0.000
 GapD=    1.034 DampG=2.000 DampE=1.000 DampFc=2.0000 IDamp=-1.
 RMSDP=3.24D-04 MaxDP=9.10D-03              OVMax= 5.97D-02

 Cycle   2  Pass 0  IDiag  1:
 E= -764.398053339437     Delta-E=       -0.012615706228 Rises=F Damp=F
 DIIS: error= 1.21D-03 at cycle   2 NSaved=   2.
 NSaved= 2 IEnMin= 2 EnMin= -764.398053339437     IErMin= 2 ErrMin= 1.21D-03
 ErrMax= 1.21D-03  0.00D+00 EMaxC= 1.00D-01 BMatC= 8.06D-04 BMatP= 9.07D-03
 IDIUse=3 WtCom= 9.88D-01 WtEn= 1.21D-02
 Coeff-Com:  0.613D-01 0.939D+00
 Coeff-En:   0.000D+00 0.100D+01
 Coeff:      0.606D-01 0.939D+00
 Gap=     0.247 Goal=   None    Shift=    0.000
 RMSDP=1.33D-04 MaxDP=5.57D-03 DE=-1.26D-02 OVMax= 2.54D-02

 Cycle   3  Pass 0  IDiag  1:
 E= -764.399263697107     Delta-E=       -0.001210357670 Rises=F Damp=F
 DIIS: error= 1.35D-03 at cycle   3 NSaved=   3.
 NSaved= 3 IEnMin= 3 EnMin= -764.399263697107     IErMin= 2 ErrMin= 1.21D-03
 ErrMax= 1.35D-03  0.00D+00 EMaxC= 1.00D-01 BMatC= 7.91D-04 BMatP= 8.06D-04
 IDIUse=3 WtCom= 9.87D-01 WtEn= 1.35D-02
 Coeff-Com: -0.407D-01 0.506D+00 0.535D+00
 Coeff-En:   0.000D+00 0.000D+00 0.100D+01
 Coeff:     -0.401D-01 0.499D+00 0.541D+00
 Gap=     0.252 Goal=   None    Shift=    0.000
 RMSDP=6.63D-05 MaxDP=3.68D-03 DE=-1.21D-03 OVMax= 1.20D-02

 Cycle   4  Pass 0  IDiag  1:
 E= -764.399907876938     Delta-E=       -0.000644179831 Rises=F Damp=F
 DIIS: error= 5.35D-04 at cycle   4 NSaved=   4.
 NSaved= 4 IEnMin= 4 EnMin= -764.399907876938     IErMin= 4 ErrMin= 5.35D-04
 ErrMax= 5.35D-04  0.00D+00 EMaxC= 1.00D-01 BMatC= 1.60D-04 BMatP= 7.91D-04
 IDIUse=3 WtCom= 9.95D-01 WtEn= 5.35D-03
 Coeff-Com: -0.346D-01 0.613D-01 0.303D+00 0.670D+00
 Coeff-En:   0.000D+00 0.000D+00 0.000D+00 0.100D+01
 Coeff:     -0.344D-01 0.610D-01 0.301D+00 0.672D+00
 Gap=     0.250 Goal=   None    Shift=    0.000
 RMSDP=4.71D-05 MaxDP=1.57D-03 DE=-6.44D-04 OVMax= 9.99D-03

 Cycle   5  Pass 0  IDiag  1:
 E= -764.400170423271     Delta-E=       -0.000262546333 Rises=F Damp=F
 DIIS: error= 2.91D-04 at cycle   5 NSaved=   5.
 NSaved= 5 IEnMin= 5 EnMin= -764.400170423271     IErMin= 5 ErrMin= 2.91D-04
 ErrMax= 2.91D-04  0.00D+00 EMaxC= 1.00D-01 BMatC= 4.05D-05 BMatP= 1.60D-04
 IDIUse=3 WtCom= 9.97D-01 WtEn= 2.91D-03
 Coeff-Com:  0.205D-02-0.956D-01-0.592D-01 0.324D+00 0.828D+00
 Coeff-En:   0.000D+00 0.000D+00 0.000D+00 0.000D+00 0.100D+01
 Coeff:      0.205D-02-0.953D-01-0.590D-01 0.323D+00 0.829D+00
 Gap=     0.251 Goal=   None    Shift=    0.000
 RMSDP=3.81D-05 MaxDP=1.63D-03 DE=-2.63D-04 OVMax= 1.12D-02

 Cycle   6  Pass 0  IDiag  1:
 E= -764.400267958482     Delta-E=       -0.000097535211 Rises=F Damp=F
 DIIS: error= 3.42D-04 at cycle   6 NSaved=   6.
 NSaved= 6 IEnMin= 6 EnMin= -764.400267958482     IErMin= 5 ErrMin= 2.91D-04
 ErrMax= 3.42D-04  0.00D+00 EMaxC= 1.00D-01 BMatC= 3.06D-05 BMatP= 4.05D-05
 IDIUse=3 WtCom= 9.97D-01 WtEn= 2.91D-03
 Coeff-Com:  0.845D-02-0.102D+00-0.132D+00 0.112D+00 0.669D+00 0.445D+00
 Coeff-En:   0.000D+00 0.000D+00 0.000D+00 0.000D+00 0.000D+00 0.100D+01
 Coeff:      0.843D-02-0.101D+00-0.132D+00 0.111D+00 0.667D+00 0.446D+00
 Gap=     0.252 Goal=   None    Shift=    0.000
 RMSDP=1.85D-05 MaxDP=7.25D-04 DE=-9.75D-05 OVMax= 4.84D-03

 Cycle   7  Pass 0  IDiag  1:
 E= -764.400312400819     Delta-E=       -0.000044442337 Rises=F Damp=F
 DIIS: error= 8.58D-05 at cycle   7 NSaved=   7.
[...]
     16 -0.438468D-02 -0.334338D-01  0.145901D-01 -0.540870D-01 -0.474838D-02
     17 -0.128968D-02  0.244865D-01 -0.667226D-03  0.150923D-03 -0.396998D-01
     18 -0.574457D-03  0.156242D-01 -0.157867D-02 -0.249806D-02 -0.849309D-02
     19  0.394858D-02 -0.682760D-02 -0.820519D-02  0.397253D-02  0.219808D-01
     20  0.510164D-02 -0.415380D-02  0.331259D-02 -0.846100D-02 -0.589477D-02
     21 -0.284772D-02 -0.372651D-02  0.398359D-02  0.536513D-03 -0.489755D-02
     22 -0.324833D-02 -0.463833D-02  0.497940D-03  0.460633D-02  0.319701D-02
     23 -0.239678D-02  0.371575D-02  0.200097D-02  0.185891D-02 -0.590503D-02
     24  0.112316D-01  0.461925D-03  0.443988D-03  0.638966D-03 -0.820254D-03
     25 -0.514706D-02  0.606602D-03  0.107135D-02  0.107237D-02 -0.110462D-02
     26 -0.639042D-03 -0.150377D-02  0.114445D-01 -0.106489D-01 -0.321832D-01
     27 -0.300111D-03  0.138438D-01 -0.326390D-01 -0.175003D-01  0.532982D-01
     28 -0.972576D-03 -0.172567D-01  0.175043D-01  0.362151D-01 -0.153523D-01
     29 -0.296261D-03 -0.420543D-02  0.491280D-02 -0.167850D-03 -0.178817D-03
     30 -0.209174D-03  0.181300D-02  0.130007D-01 -0.147177D-01 -0.409988D-02
     31 -0.162749D-02  0.260135D-02  0.118893D-01 -0.131522D-01 -0.181540D-02
     32  0.986289D-03  0.412628D-03  0.113202D-01 -0.136071D-01  0.864888D-03
     33 -0.266081D-02 -0.478459D-02 -0.161592D-01 -0.610001D-02  0.553039D-02
     34 -0.407913D-02 -0.399625D-02 -0.172705D-01 -0.453444D-02  0.781487D-02
     35 -0.146535D-02 -0.618497D-02 -0.178397D-01 -0.498936D-02  0.104952D-01
     36  0.352192D-02  0.458420D-02  0.623848D-02  0.176219D-01 -0.987158D-02
     37  0.210360D-02  0.537255D-02  0.512711D-02  0.191875D-01 -0.758710D-02
     38  0.471738D-02  0.318383D-02  0.455794D-02  0.187326D-01 -0.490681D-02
     39 -0.234845D-03 -0.982079D-03  0.113050D-02 -0.302539D-04 -0.810804D-04
               16            17            18            19            20 
     16  0.114889D+00
     17 -0.404187D-01  0.587902D-01
     18 -0.682864D-02  0.396744D-02  0.186753D+00
     19 -0.552255D-02 -0.552768D-02  0.199021D-02  0.193056D+00
     20  0.200433D-01 -0.534532D-02 -0.185586D-03  0.225983D-02  0.195496D+00
     21  0.267052D-02  0.147843D-02 -0.886005D-01 -0.932173D-01 -0.119739D-01
     22 -0.494487D-02  0.143784D-02 -0.894786D-01 -0.122953D-01 -0.937056D-01
     23 -0.543923D-02  0.400430D-02 -0.108244D-01 -0.922180D-01 -0.922957D-01
     24 -0.106658D-02  0.375458D-03 -0.132194D-05  0.720933D-03  0.133078D-02
     25 -0.116409D-02 -0.471373D-03  0.855703D-03  0.963492D-03  0.113065D-02
     26  0.330505D-01 -0.670102D-03  0.228800D-03 -0.924663D-02  0.865141D-02
     27  0.167256D-01 -0.355269D-01 -0.194859D-02  0.845629D-02  0.104833D-02
     28 -0.531594D-01  0.343512D-01  0.500173D-03 -0.630477D-03 -0.812828D-02
     29  0.868374D-03 -0.124116D-02 -0.157086D-02  0.115870D-02 -0.447970D-03
     30  0.396441D-02  0.383755D-04 -0.620896D-03 -0.525549D-02  0.588854D-02
     31 -0.314085D-03  0.883314D-03  0.606484D-02  0.738990D-04 -0.749811D-02
     32  0.188649D-02 -0.881065D-03 -0.609007D-02  0.722101D-02  0.403648D-03
     33  0.974078D-02  0.119168D-01 -0.276208D-02 -0.532292D-02  0.824946D-02
     34  0.546229D-02  0.127617D-01  0.392366D-02  0.646459D-05 -0.513719D-02
     35  0.766287D-02  0.109974D-01 -0.823125D-02  0.715357D-02  0.276457D-02
     36 -0.716700D-02 -0.116359D-01  0.155886D-02 -0.837221D-02  0.624044D-02
     37 -0.114455D-01 -0.107910D-01  0.824459D-02 -0.304282D-02 -0.714621D-02
     38 -0.924492D-02 -0.125554D-01 -0.391031D-02  0.410429D-02  0.755547D-03
     39  0.244698D-03 -0.285260D-03 -0.359718D-03  0.348576D-03 -0.238219D-03
               21            22            23            24            25 
     21  0.121380D+00
     22  0.359626D-01  0.122753D+00
     23  0.369166D-01  0.370484D-01  0.121799D+00
     24 -0.537236D-03 -0.825880D-03 -0.691359D-03  0.168575D+00
     25 -0.110863D-02 -0.112281D-02 -0.724313D-03 -0.102110D+00  0.345639D+00
     26  0.280469D-02 -0.262168D-02  0.181461D-03 -0.194458D-03 -0.714893D-04
     27 -0.286888D-02 -0.112059D-02 -0.358053D-02 -0.640522D-03 -0.370686D-03
     28  0.147042D-02  0.343351D-02  0.337343D-02  0.415610D-03  0.273463D-03
     29  0.557524D-03  0.295570D-03  0.101163D-04 -0.323390D-03 -0.736498D-04
     30 -0.184011D-01  0.184578D-01 -0.139733D-03  0.325834D-04  0.702930D-04
     31  0.190482D-01  0.366657D-03 -0.180252D-01 -0.184373D-03 -0.174773D-03
     32 -0.389630D-03 -0.191323D-01  0.180306D-01  0.226213D-03  0.222207D-03
     33 -0.178052D-01  0.186091D-01 -0.104087D-02 -0.266082D-03 -0.913362D-03
     34  0.196440D-01  0.517931D-03 -0.189263D-01 -0.483038D-03 -0.115843D-02
     35  0.206223D-03 -0.189810D-01  0.171295D-01 -0.724527D-04 -0.761448D-03
     36 -0.182874D-01  0.179245D-01  0.865446D-03  0.404289D-03  0.101204D-02
     37  0.191619D-01 -0.166661D-03 -0.170200D-01  0.187333D-03  0.766972D-03
     38 -0.275959D-03 -0.196656D-01  0.190358D-01  0.597919D-03  0.116395D-02
     39  0.135827D-03  0.756983D-04  0.388041D-04  0.412970D-03 -0.125618D-03
               26            27            28            29            30 
     26  0.220517D-01
     27 -0.111315D-01  0.416414D-01
     28 -0.112916D-01 -0.291235D-01  0.419595D-01
     29 -0.172819D-03  0.311369D-03  0.154515D-02  0.349760D-01
     30 -0.362567D-02  0.924808D-03  0.244726D-03  0.149846D-02  0.275554D-01
     31 -0.571529D-02  0.140276D-02  0.196370D-02  0.193223D-02  0.143351D-02
     32 -0.588830D-02  0.285904D-02  0.736391D-03  0.238343D-02  0.163191D-02
     33  0.435366D-02 -0.228155D-02 -0.675120D-03 -0.189466D-02  0.129112D-01
     34  0.226404D-02 -0.180360D-02  0.104385D-02 -0.146089D-02 -0.132107D-01
     35  0.209103D-02 -0.347316D-03 -0.183455D-03 -0.100968D-02 -0.130124D-01
     36  0.450769D-02 -0.857115D-03 -0.141308D-02 -0.802054D-03  0.129279D-01
     37  0.241807D-02 -0.379166D-03  0.305896D-03 -0.368285D-03 -0.131940D-01
     38  0.224506D-02  0.107712D-02 -0.921411D-03  0.829167D-04 -0.129956D-01
     39  0.392200D-04  0.926639D-04  0.381630D-03  0.803736D-02  0.278216D-03
               31            32            33            34            35 
     31  0.284954D-01
     32  0.186188D-02  0.286493D-01
     33 -0.138288D-01 -0.133317D-01  0.324033D-01
     34  0.132331D-01 -0.131017D-01  0.566330D-02  0.321071D-01
     35 -0.134005D-01  0.136858D-01  0.616047D-02  0.577236D-02  0.328586D-01
     36 -0.136338D-01 -0.139058D-01  0.882372D-02 -0.177379D-01 -0.180100D-01
     37  0.134281D-01 -0.136759D-01 -0.179162D-01  0.870588D-02 -0.183981D-01
     38 -0.132054D-01  0.131116D-01 -0.174191D-01 -0.176289D-01  0.868815D-02
     39  0.438507D-03  0.554767D-03 -0.467173D-03 -0.306881D-03 -0.190622D-03
               36            37            38            39 
     36  0.331016D-01
     37  0.653997D-02  0.331621D-01
     38  0.626796D-02  0.605816D-02  0.323752D-01
     39 -0.219305D-03 -0.590136D-04  0.572460D-04  0.759970D-02
 Leave Link  716 at Sat May 24 08:07:25 2025, MaxMem=  3758096384 cpu:               0.0 elap:               0.0
 (Enter /apps/easybuild-2022/easybuild/software/Compiler/NVHPC/22.11-CUDA-11.7.0/Gaussian/g16c01-CUDA-11.7.0/g16/l9999.exe)

 ----------------------------------------------------------------------

 Electric dipole moment (input orientation):
 (Debye = 10**-18 statcoulomb cm , SI units = C m)
                  (au)            (Debye)         (10**-30 SI)
   Tot        0.105641D+01      0.268513D+01      0.895661D+01
   x          0.101802D+01      0.258755D+01      0.863113D+01
   y         -0.225137D+00     -0.572241D+00     -0.190879D+01
   z          0.170146D+00      0.432468D+00      0.144256D+01

 Dipole polarizability, Alpha (input orientation).
 (esu units = cm**3 , SI units = C**2 m**2 J**-1)
 Alpha(0;0):
               (au)            (10**-24 esu)      (10**-40 SI)
   iso        0.640849D+02      0.949640D+01      0.105662D+02
   aniso      0.710334D+02      0.105261D+02      0.117118D+02
   xx         0.109734D+03      0.162609D+02      0.180927D+02
   yx         0.168658D+01      0.249926D+00      0.278080D+00
   yy         0.400728D+02      0.593817D+01      0.660710D+01
   zx        -0.105477D+02     -0.156301D+01     -0.173909D+01
   zy        -0.187895D+01     -0.278432D+00     -0.309797D+00
   zz         0.424480D+02      0.629014D+01      0.699873D+01

 ----------------------------------------------------------------------

 Dipole orientation:
     6          1.37351421          2.48825133          2.70760215
     8         -0.08820992          1.81876411         -1.47793044
     6          2.71319188          3.07983774          5.19938749
     6          0.93638699          2.81706935          7.51161046
     9          2.18504838          3.39369683          9.59538611
     9         -1.00439412          4.37321145          7.24705358
     9          0.10234315          0.46643718          7.66795544
     9          4.61173836          1.45386810          5.43500481
     9          3.58198079          5.42961918          5.11763439
     8         -0.50845637          1.57302902          2.20474933
     1         -1.24224883          1.27675637         -2.78882138

 Electric dipole moment (dipole orientation):
 (Debye = 10**-18 statcoulomb cm , SI units = C m)
                  (au)            (Debye)         (10**-30 SI)
   Tot        0.105641D+01      0.268513D+01      0.895661D+01
   x          0.000000D+00      0.000000D+00      0.000000D+00
   y          0.000000D+00      0.000000D+00      0.000000D+00
   z          0.105641D+01      0.268513D+01      0.895661D+01

 Dipole polarizability, Alpha (dipole orientation).
 (esu units = cm**3 , SI units = C**2 m**2 J**-1)
 Alpha(0;0):
               (au)            (10**-24 esu)      (10**-40 SI)
   iso        0.640849D+02      0.949640D+01      0.105662D+02
   aniso      0.710334D+02      0.105261D+02      0.117118D+02
   xx         0.498993D+02      0.739431D+01      0.822728D+01
   yx         0.537287D+01      0.796178D+00      0.885867D+00
   yy         0.413687D+02      0.613021D+01      0.682078D+01
   zx         0.223004D+02      0.330457D+01      0.367683D+01
   zy         0.107816D+02      0.159766D+01      0.177764D+01
   zz         0.100987D+03      0.149647D+02      0.166504D+02

 ----------------------------------------------------------------------
 Unable to Open any file for archive entry.
 1\1\GINC-SPARTAN-BM202\Freq\RM062X\def2TZVPP\C3H1F5O2\AKHALILOV\24-May
 -2025\0\\#P M062X/Def2TZVPP Symm(None) scf(xqc) pop(None) opt(NoFreeze
 ,TS,CalcAll,NoEigentest,MaxCycle=999)\\Gaussian input prepared by ASE\
 \0,1\C,1.7591351561,1.0884303199,-0.1890373415\O,-0.5927706631,1.08321
 77281,0.124131321\C,3.2270994166,1.233621909,-0.5931115545\C,4.1933985
 305,0.6729353311,0.4804010358\F,5.4422578942,0.8480149335,0.08627878\F
 ,3.9985596781,1.3123725641,1.6230437136\F,3.9647524159,-0.6180070335,0
 .6539503032\F,3.3961707234,0.5579894117,-1.7245581698\F,3.4973843608,2
 .5189717474,-0.7781174816\O,1.2176833614,0.5036144003,0.6245953267\H,-
 1.4342358738,0.8474356885,0.5397780671\\Version=ES64L-G16RevC.01\HF=-7
 64.4379134\RMSD=1.765e-09\RMSF=1.096e-06\ZeroPoint=0.0469593\Thermal=0
 .0567772\ETot=-764.3811362\HTot=-764.380192\GTot=-764.4281891\Dipole=1
 .0180201,-0.225137,0.1701461\DipoleDeriv=-0.3756196,-0.0011342,0.04498
 9,-1.4893544,0.1521182,0.1049893,1.9900236,-0.0893936,-0.0320101,-1.24
 20788,-0.0312634,0.0987024,0.0318779,-0.6008016,-0.1029784,0.0384765,-
 0.0951326,-0.5584368,1.2012856,0.1042405,-0.1414614,0.7732986,1.346329
 3,0.0089004,-1.2066325,0.0886432,1.2882099,1.7294182,0.068921,-0.14973
 14,-0.2692146,1.5586934,0.1357949,0.5459118,0.0997184,1.3609354,-1.254
 531,-0.0656512,0.1965761,0.0309773,-0.277515,0.0236222,-0.0286151,0.03
 19971,-0.3191566,-0.3487437,0.0365162,0.0037343,0.0430227,-0.4021449,-
 0.2061742,-0.101775,-0.2706423,-0.7433057,-0.3522432,-0.0340429,-0.025
 8815,0.0382228,-0.8520171,0.0585184,-0.0890413,0.1321679,-0.2933085,-0
 .3364011,0.0323027,0.0668963,0.1289125,-0.3760475,-0.2046128,0.2662832
 ,-0.2606592,-0.7267789,-0.3357248,-0.1109711,0.0063351,-0.3229391,-0.8
 007996,0.0998991,0.0473183,0.1538053,-0.2838538,1.1398395,0.0555402,-0
 .1898954,0.8871637,-0.0591114,0.0698039,-1.2955092,0.1747859,0.0020667
 ,0.1747988,-0.0544578,0.0897365,0.1480326,0.3112961,0.0122371,-0.16644
 02,0.0347099,0.3056384\Polar=109.7338574,1.686581,40.0727514,-10.54773
 18,-1.8789498,42.4479758\PG=Unknown\NImag=1\\0.53645473,0.28840370,0.3
 4917919,-0.42458560,-0.36835879,0.60333056,-0.04097629,-0.02732163,0.0
 3951274,0.44932803,-0.02507966,-0.00737976,0.00060461,0.09073077,0.070
 90509,0.03566558,0.00102228,-0.01598811,-0.17622073,-0.09444127,0.1517
 2034,-0.14649185,-0.01012296,0.01816292,0.01149279,-0.00345445,0.00449
 060,0.46848882,0.00997542,-0.03387499,-0.01541457,0.01131153,0.0026271
 1,-0.00163112,0.00594778,0.56448726,-0.00782473,-0.01783817,-0.0236410
 5,-0.01892577,0.00018714,0.00521730,0.00246759,-0.00340192,0.56226437,
 -0.02981488,0.01025294,-0.01545407,0.00189210,-0.00073831,0.00105546,-
 0.11075550,0.03815627,-0.07192535,0.61042300,-0.00451616,0.00325965,0.
 00409242,-0.00445548,-0.00152855,0.00112089,0.03087514,-0.05446955,0.0
 3569652,-0.00226818,0.60819707,0.01209993,0.00609221,-0.00042309,0.008
 72830,0.00048332,-0.00364319,-0.05333574,0.03422750,-0.10513050,0.0046
 4409,-0.00022290,0.60185816,-0.00645016,-0.00248054,0.00317047,-0.0043
 9845,-0.00034787,0.00132311,-0.05170481,-0.00692975,0.01608997,-0.3166
 1314,-0.01838493,0.04613084,0.41580330,0.00170462,-0.00002793,-0.00022
 420,0.00081254,0.00028913,-0.00031327,0.00790110,0.00264723,-0.0008710
 5,-0.02033529,-0.07865298,0.00659999,0.04950628,0.08764183,-0.00322472
 ,-0.00045595,-0.00004797,-0.00143952,-0.00019525,0.00077269,-0.0141167
 2,-0.00015664,0.00439446,0.04845210,0.00670523,-0.09018018,-0.11059703
 ,-0.01178855,0.10857969,0.00165618,-0.00137410,0.00216753,-0.00042963,
 0.00008106,-0.00021548,0.00781953,-0.00874979,-0.01334130,-0.08218109,
 0.01019737,0.01060213,-0.02453963,0.02051856,0.05995214,0.08621343,-0.
 00037744,-0.00084375,-0.00048942,-0.00014598,0.00024125,0.00023057,0.0
 0148393,-0.00063846,-0.00340548,0.00856068,-0.12030791,-0.09265966,0.0
 1334896,0.01010767,-0.01179001,-0.02178236,0.16635404,-0.00164378,-0.0
 0198511,0.00151042,-0.00216527,-0.00007496,0.00096889,0.01160377,-0.02
 831487,-0.03859671,0.00550074,-0.08817173,-0.28206395,0.04175524,-0.01
 347868,-0.03259139,-0.04847537,0.15896163,0.36043676,0.00125213,-0.001
 41011,0.00173189,-0.00050177,0.00020178,-0.00016242,0.00744566,0.01474
 951,-0.00120608,-0.08322076,-0.02168326,0.00008916,-0.02731263,-0.0603
 0709,0.02035216,0.01328066,-0.00094455,-0.00099487,0.09031039,0.000465
 99,0.00059980,-0.00146583,0.00175195,0.00058440,-0.00056910,-0.0108640
 2,-0.04087661,0.00136999,-0.01562342,-0.31202694,0.05400850,-0.0414053
 9,-0.02674888,0.01631565,-0.00113796,-0.06213935,-0.03409841,0.0622070
 3,0.44194052,-0.00059192,-0.00135166,0.00068317,-0.00112245,-0.0000803
 8,0.00051643,0.00548166,0.02574322,0.00083820,-0.00218139,0.04931838,-
 0.09095147,0.01517352,0.01845361,0.00632372,-0.00139890,-0.05262761,0.
 00257663,-0.01302140,-0.04812303,0.08404035,-0.00879540,0.01906042,0.0
 3944073,-0.00085334,-0.00020745,-0.00117369,-0.08005808,0.02475176,0.0
 3678779,0.00527750,-0.00850904,-0.01556045,0.00438710,-0.00031273,-0.0
 0068101,-0.00172842,-0.00028353,-0.00694447,0.00018118,0.00048337,0.00
 002032,0.07151385,0.01459419,0.00125833,-0.01662483,0.00132503,0.00046
 981,0.00000666,0.01113859,-0.11773617,-0.10002131,-0.00017164,-0.00235
 576,-0.00449305,-0.00016008,0.00105667,0.00094969,0.00039450,0.0014564
 1,0.00156924,-0.00003018,0.00521469,0.00125212,-0.02663342,0.16791732,
 0.02208486,-0.01036889,-0.03201706,0.00294376,0.00120128,0.00090885,0.
 02134934,-0.09826765,-0.28585268,0.01653160,-0.03101390,-0.03987866,-0
 .00349931,0.00213388,0.00394688,-0.00663842,0.00146646,-0.01169838,-0.
 00128980,0.00391914,0.00174083,-0.04534380,0.16472309,0.35348887,-0.01
 687463,-0.04545442,0.00942784,-0.00072765,0.00090040,-0.00056874,-0.08
 520333,-0.05606084,0.00792221,0.00468622,0.01401753,-0.00327257,0.0043
 2866,0.00160626,-0.00064912,0.00022840,-0.00009423,-0.00050745,-0.0011
 4555,0.00513792,-0.00321116,0.01352958,0.00008192,-0.00445057,0.085578
 27,-0.02846007,-0.02749755,0.01356044,-0.00250994,0.00109602,0.0006071
 0,-0.03780229,-0.31221894,0.06234596,-0.01618850,-0.04406902,0.0019124
 1,0.00264377,0.00422078,-0.00053183,0.00149018,0.00542750,0.00389010,0
 .00511955,-0.00610711,0.00686655,-0.00414219,-0.05681787,-0.03074849,0
 .07880481,0.43439510,0.00410808,0.01298549,0.00348047,0.00051582,-0.00
 045916,0.00020908,0.00811442,0.05970761,-0.08734734,0.01183681,0.02694
 877,0.00110258,-0.00237546,-0.00142563,0.00052410,-0.00069808,0.000593
 45,0.00123716,-0.00413160,0.00714544,-0.00482890,-0.00706594,-0.048185
 75,0.00640523,-0.01097499,-0.05557020,0.07958190,-0.27558734,-0.230576
 94,0.32554912,-0.02497011,0.03935225,-0.04656059,-0.02095937,-0.034175
 22,0.05125513,0.00099746,0.00519252,-0.01092142,0.00667610,-0.00119830
 ,0.00212829,-0.00044766,0.00023490,0.00206389,-0.00041532,-0.00116040,
 0.00095531,-0.00375677,-0.00054369,-0.00141449,-0.00465788,0.00083958,
 0.00086641,0.31464316,-0.27416967,-0.29476982,0.39891110,0.03138866,-0
 .01956436,0.02362138,0.00417643,-0.00696279,0.01985213,-0.00206848,0.0
 0022427,-0.00321857,0.00286078,-0.00018755,0.00040109,0.00041618,0.000
 37976,0.00117662,0.00225254,0.00026320,0.00019985,-0.00375270,-0.00012
 411,-0.00266536,0.00149790,0.00135635,-0.00182866,0.24509624,0.3168545
 4,0.38434967,0.39234203,-0.55605108,-0.03608037,0.02261109,-0.02191368
 ,-0.00366538,0.02237710,-0.02558669,0.00194004,-0.00276516,0.00570216,
 -0.00555449,0.00054640,-0.00101839,-0.00206891,-0.00017152,-0.00083774
 ,-0.00147227,0.00088896,-0.00049682,0.00022741,0.00056097,0.00238094,0
 .00575145,-0.00186876,-0.00023351,-0.35209851,-0.43280948,0.59814307,-
 0.01437249,0.00102363,0.00087641,-0.38985568,-0.10143850,0.18236691,-0
 .00007386,0.00102334,-0.00129946,-0.00069090,-0.00046552,0.00079572,-0
 .00017635,0.00010406,-0.00017656,0.00012823,-0.00000038,-0.00019244,0.
 00012601,0.00014491,-0.00010359,0.00030281,0.00000480,-0.00027318,0.00
 025791,0.00020511,-0.00019547,0.00847773,-0.00769788,0.00867136,0.3958
 7661,0.01745910,0.01009683,-0.01459094,-0.10288746,-0.04774015,0.07034
 590,0.00072077,-0.00298409,0.00608619,0.00042394,0.00172971,-0.0027297
 5,0.00134875,-0.00034598,0.00054656,-0.00005364,-0.00003715,0.00052616
 ,-0.00015522,-0.00070374,0.00034895,-0.00045450,-0.00033931,-0.0003795
 6,-0.00043726,0.00021472,0.00008863,-0.02306094,0.00253050,-0.00171163
 ,0.10709646,0.03757868,-0.02043738,-0.01208345,0.01916376,0.18425349,0
 .07016359,-0.11876860,-0.00055246,0.00513133,-0.00655936,-0.00040002,-
 0.00170852,0.00360815,-0.00161687,0.00036749,-0.00070359,0.00011467,-0
 .00010842,-0.00094167,0.00010523,0.00060869,-0.00044212,0.00029309,0.0
 0026316,0.00057519,0.00053310,-0.00046328,-0.00013075,0.02817686,-0.00
 364008,-0.00008826,-0.19046972,-0.05853051,0.10428725\\-0.00000017,-0.
 00000205,-0.00000146,-0.00000064,-0.00000130,-0.00000196,0.00000166,0.
 00000102,0.00000034,-0.00000011,-0.00000005,-0.00000107,0.00000094,-0.
 00000027,0.00000098,-0.00000050,-0.00000089,0.00000097,0.00000004,-0.0
 0000028,-0.00000065,-0.00000144,0.00000030,0.00000134,0.00000074,0.000
 00018,0.00000207,-0.00000056,0.00000276,0.00000028,0.00000005,0.000000
 57,-0.00000083\\\@
 The archive entry for this job was punched.


 IN THE WOODS WE RETURN TO REASON AND FAITH.

                                 -- EMERSON
 Job cpu time:       0 days 21 hours 11 minutes 37.8 seconds.
 Elapsed time:       0 days  2 hours 54 minutes 54.2 seconds.
 File lengths (MBytes):  RWF=    123 Int=      0 D2E=      0 Chk=      9 Scr=      1
 Normal termination of Gaussian 16 at Sat May 24 08:07:25 2025.
done
