 Entering Gaussian System, Link 0=g16
 Initial command:
 /apps/easybuild-2022/easybuild/software/Compiler/NVHPC/22.11-CUDA-11.7.0/Gaussian/g16c01-CUDA-11.7.0/g16/l1.exe "/tmp/Gau-174198.inp" -scrdir="/tmp/"
 Entering Link 1 = /apps/easybuild-2022/easybuild/software/Compiler/NVHPC/22.11-CUDA-11.7.0/Gaussian/g16c01-CUDA-11.7.0/g16/l1.exe PID=    174200.
  
 Copyright (c) 1988-2019, Gaussian, Inc.  All Rights Reserved.
  
 This is part of the Gaussian(R) 16 program.  It is based on
 the Gaussian(R) 09 system (copyright 2009, Gaussian, Inc.),
 the Gaussian(R) 03 system (copyright 2003, Gaussian, Inc.),
 the Gaussian(R) 98 system (copyright 1998, Gaussian, Inc.),
 the Gaussian(R) 94 system (copyright 1995, Gaussian, Inc.),
 the Gaussian 92(TM) system (copyright 1992, Gaussian, Inc.),
 the Gaussian 90(TM) system (copyright 1990, Gaussian, Inc.),
 the Gaussian 88(TM) system (copyright 1988, Gaussian, Inc.),
 the Gaussian 86(TM) system (copyright 1986, Carnegie Mellon
 University), and the Gaussian 82(TM) system (copyright 1983,
 Carnegie Mellon University). Gaussian is a federally registered
 trademark of Gaussian, Inc.
  
 This software contains proprietary and confidential information,
 including trade secrets, belonging to Gaussian, Inc.
  
 This software is provided under written license and may be
 used, copied, transmitted, or stored only in accord with that
 written license.
  
 The following legend is applicable only to US Government
 contracts under FAR:
  
                    RESTRICTED RIGHTS LEGEND
  
 Use, reproduction and disclosure by the US Government is
 subject to restrictions as set forth in subparagraphs (a)
 and (c) of the Commercial Computer Software - Restricted
 Rights clause in FAR 52.227-19.
  
 Gaussian, Inc.
 340 Quinnipiac St., Bldg. 40, Wallingford CT 06492
  
  
 ---------------------------------------------------------------
 Warning -- This program may not be used in any manner that
 competes with the business of Gaussian, Inc. or will provide
 assistance to any competitor of Gaussian, Inc.  The licensee
 of this program is prohibited from giving any competitor of
 Gaussian, Inc. access to this program.  By using this program,
 the user acknowledges that Gaussian, Inc. is engaged in the
 business of creating and licensing software in the field of
 computational chemistry and represents and warrants to the
 licensee that it is not a competitor of Gaussian, Inc. and that
 it will not use this program in any manner prohibited above.
 ---------------------------------------------------------------
  

 Cite this work as:
 Gaussian 16, Revision C.01,
 M. J. Frisch, G. W. Trucks, H. B. Schlegel, G. E. Scuseria, 
 M. A. Robb, J. R. Cheeseman, G. Scalmani, V. Barone, 
 G. A. Petersson, H. Nakatsuji, X. Li, M. Caricato, A. V. Marenich, 
 J. Bloino, B. G. Janesko, R. Gomperts, B. Mennucci, H. P. Hratchian, 
 J. V. Ortiz, A. F. Izmaylov, J. L. Sonnenberg, D. Williams-Young, 
 F. Ding, F. Lipparini, F. Egidi, J. Goings, B. Peng, A. Petrone, 
 T. Henderson, D. Ranasinghe, V. G. Zakrzewski, J. Gao, N. Rega, 
 G. Zheng, W. Liang, M. Hada, M. Ehara, K. Toyota, R. Fukuda, 
 J. Hasegawa, M. Ishida, T. Nakajima, Y. Honda, O. Kitao, H. Nakai, 
 T. Vreven, K. Throssell, J. A. Montgomery, Jr., J. E. Peralta, 
 F. Ogliaro, M. J. Bearpark, J. J. Heyd, E. N. Brothers, K. N. Kudin, 
 V. N. Staroverov, T. A. Keith, R. Kobayashi, J. Normand, 
 K. Raghavachari, A. P. Rendell, J. C. Burant, S. S. Iyengar, 
 J. Tomasi, M. Cossi, J. M. Millam, M. Klene, C. Adamo, R. Cammi, 
 J. W. Ochterski, R. L. Martin, K. Morokuma, O. Farkas, 
 J. B. Foresman, and D. J. Fox, Gaussian, Inc., Wallingford CT, 2019.
 
 ******************************************
 Gaussian 16:  ES64L-G16RevC.01  3-Jul-2019
                24-May-2025 
 ******************************************
 %mem=28GB
 %chk=1642764945472630600001_R_Addition_MultipleBond_1_3_4_IRC_F
 %nprocshared=8
 Will use up to    8 processors via shared memory.
 ----------------------------------------------------------------------
 #P mp2/6-31G Symm(None) scf(xqc) pop(None) guess(Read,Mix) geom(AllChe
 ck,NoKeepConstants) irc(RCFC,forward,MaxPoints=100,StepSize=2)
 ----------------------------------------------------------------------
 1/10=5,18=10,22=1,29=20007,38=1,39=2,42=100,44=3,172=1/1,23;
 2/12=2,15=3,29=1,40=1/2;
 3/5=1,6=6,11=9,14=-4,25=1,30=1,71=2,116=-2,140=1/1,2,3;
 4/5=1,13=-1/1;
 5/5=2,8=3,13=1,38=6/2,8;
 8/6=3,8=1,10=2,19=11,30=-1/1;
 9/15=3,16=-3/6;
 11/6=1,8=1,15=11,17=12,24=-1,27=1,28=-2,29=300,31=1,32=6,42=3/1,2,10;
 10/6=2,21=1,31=1/2;
 8/6=4,8=1,10=2,19=11,30=-1/11,4;
 10/5=1,20=4,31=1/2;
 11/12=2,14=11,16=1,17=2,28=-2,31=1,42=3,76=2/2,10,12;
 7/10=1,12=2,25=1,30=1,44=2/1,2,3,16;
 1/18=10,22=1,39=2,42=100,44=3/23(2);
 2/15=3,29=1/2;
 99/5=20/99;
 2/15=3,29=1/2;
 3/5=1,6=6,11=9,14=-2,25=1,30=1,71=2,140=1/1,2,3;
 4/5=5,16=3,69=1/1;
 5/5=2,8=3,13=1,38=5/2,8;
 8/6=3,8=1,10=2,19=11,30=-1/1;
 9/15=3,16=-3/6;
 11/6=1,8=1,15=11,17=12,24=-1,27=1,28=-2,29=300,31=1,32=6,42=3/1,2,10;
 10/6=2,21=1,31=1/2;
 8/6=4,8=1,10=2,19=11,30=-1/11,4;
 10/5=1,20=4,31=1/2;
 11/12=2,14=11,16=1,17=2,28=-2,31=1,42=3,76=2/2,10,12;
 7/10=1,12=2,25=1,30=1,44=2/1,2,3,16;
 1/18=10,22=1,39=2,42=100,44=3/23(-12);
 2/15=3,29=1/2;
 99/5=20,9=10/99;
 Leave Link    1 at Sat May 24 03:08:15 2025, MaxMem=  3758096384 cpu:               0.0 elap:               0.1
 (Enter /apps/easybuild-2022/easybuild/software/Compiler/NVHPC/22.11-CUDA-11.7.0/Gaussian/g16c01-CUDA-11.7.0/g16/l101.exe)
 Structure from the checkpoint file:  "1642764945472630600001_R_Addition_MultipleBond_1_3_4_IRC_F.chk"
 ------------------------------
 Gaussian input prepared by ASE
 ------------------------------
 Charge =  0 Multiplicity = 1
 Redundant internal coordinates found in file.  (old form).
 C,0,1.730898892,0.1139144962,-0.2391767408
 O,0,2.6398545892,-0.6794180037,0.0798333793
 C,0,0.2919209057,-0.2262992863,-0.1877059676
 C,0,-0.2888403665,0.4829882298,2.2434210546
 F,0,-1.0990148236,1.3834656001,1.5573281004
 F,0,-0.6784570137,-0.85192738,2.3096425816
 F,0,1.0734964809,0.7770947091,2.3679563567
 F,0,-0.6282400752,0.5245922669,-0.8691264301
 F,0,-0.0480256579,-1.5513602793,-0.1212186653
 O,0,1.8966876964,1.4478031267,-0.5700049644
 H,0,2.8465052759,1.7027892647,-0.5098215877
 Recover connectivity data from disk.
 ITRead=  0  0  0  0  0  0  0  0  0  0  0
 MicOpt= -1 -1 -1 -1 -1 -1 -1 -1 -1 -1 -1
 NAtoms=     11 NQM=       11 NQMF=       0 NMMI=      0 NMMIF=      0
                NMic=       0 NMicF=      0.
                    Isotopes and Nuclear Properties:
 (Nuclear quadrupole moments (NQMom) in fm**2, nuclear magnetic moments (NMagM)
  in nuclear magnetons)

  Atom         1           2           3           4           5           6           7           8           9          10
 IAtWgt=          12          16          12          12          19          19          19          19          19          16
 AtmWgt=  12.0000000  15.9949146  12.0000000  12.0000000  18.9984032  18.9984032  18.9984032  18.9984032  18.9984032  15.9949146
 NucSpn=           0           0           0           0           1           1           1           1           1           0
 AtZEff=   3.6000000   5.6000000   3.6000000   3.6000000   6.7500000   6.7500000   6.7500000   6.7500000   6.7500000   5.6000000
 NQMom=    0.0000000   0.0000000   0.0000000   0.0000000   0.0000000   0.0000000   0.0000000   0.0000000   0.0000000   0.0000000
 NMagM=    0.0000000   0.0000000   0.0000000   0.0000000   2.6288670   2.6288670   2.6288670   2.6288670   2.6288670   0.0000000
 AtZNuc=   6.0000000   8.0000000   6.0000000   6.0000000   9.0000000   9.0000000   9.0000000   9.0000000   9.0000000   8.0000000

  Atom        11
 IAtWgt=           1
 AtmWgt=   1.0078250
 NucSpn=           1
 AtZEff=   1.0000000
 NQMom=    0.0000000
 NMagM=    2.7928460
 AtZNuc=   1.0000000
 Leave Link  101 at Sat May 24 03:08:16 2025, MaxMem=  3758096384 cpu:               0.2 elap:               0.2
 (Enter /apps/easybuild-2022/easybuild/software/Compiler/NVHPC/22.11-CUDA-11.7.0/Gaussian/g16c01-CUDA-11.7.0/g16/l123.exe)
 IRC-IRC-IRC-IRC-IRC-IRC-IRC-IRC-IRC-IRC-IRC-IRC-IRC-IRC-IRC-IRC-IRC-IRC
 ------------------------------------------------------------------------
 INPUT DATA FOR L123
 ------------------------------------------------------------------------
 GENERAL PARAMETERS:
 Rxn path following direction = Forward
 Maximum points per path      = 100
 Step size                    =   0.020 bohr
 Integration scheme           = HPC                                 
    Redo corrector integration= Yes                                 
    DWI Weight Power          =  2
    DWI will use Hessian update vectors when possible.
    Max correction cycles     =  20
 Initial Hessian              = ReadFC from chk
 Hessian evaluation           = All updating
 Hessian updating method      = Bofill                              
 ------------------------------------------------------------------------
          ******** Start new reaction path calculation ********
 RCFC Option Requested - Data Read From Chk File:
 "1642764945472630600001_R_Addition_MultipleBond_1_3_4_IRC_F.chk"
   Energy From Chk =   -761.7500550

 Current Structure is TS -> form Hessian eigenvectors.
                            Recovering Hessian eigenvectors from chk file.
 Supplied step size of   0.0200 bohr.
    Integration on MW PES will use step size of   0.0706 sqrt(amu)*bohr.
 Point Number:   0          Path Number:   1
 Calculating another point on the path.
 Point Number  1 in FORWARD path direction.
 Using LQA Reaction Path Following.
 IRC-IRC-IRC-IRC-IRC-IRC-IRC-IRC-IRC-IRC-IRC-IRC-IRC-IRC-IRC-IRC-IRC-IRC
 Leave Link  123 at Sat May 24 03:08:16 2025, MaxMem=  3758096384 cpu:               0.0 elap:               0.0
 (Enter /apps/easybuild-2022/easybuild/software/Compiler/NVHPC/22.11-CUDA-11.7.0/Gaussian/g16c01-CUDA-11.7.0/g16/l202.exe)
                          Input orientation:                          
 ---------------------------------------------------------------------
 Center     Atomic      Atomic             Coordinates (Angstroms)
 Number     Number       Type             X           Y           Z
 ---------------------------------------------------------------------
      1          6           0        1.303818   -0.031468   -0.928903
      2          8           0        2.212933   -0.824521   -0.609756
      3          6           0       -0.135608   -0.370644   -0.874459
      4          6           0       -0.713141    0.335268    1.544820
      5          9           0       -1.526559    1.238880    0.869128
      6          9           0       -1.105914   -0.996946    1.621579
      7          9           0        0.646302    0.632374    1.679897
      8          9           0       -1.055207    0.379461   -1.558916
      9          9           0       -0.474942   -1.696716   -0.810934
     10          8           0        1.469802    1.302667   -1.259585
     11          1           0        2.419682    1.557325   -1.199614
 ---------------------------------------------------------------------
                    Distance matrix (angstroms):
                    1          2          3          4          5
     1  C    0.000000
     2  O    1.247909   0.000000
     3  C    1.479849   2.406599   0.000000
     4  C    3.212775   3.814344   2.585491   0.000000
     5  F    3.585768   4.519792   2.750529   1.390943   0.000000
     6  F    3.639218   4.002915   2.750264   1.391027   2.396256
     7  F    2.771073   3.133590   2.853447   1.398071   2.397190
     8  F    2.476041   3.609878   1.369964   3.122841   2.618429
     9  F    2.439458   2.832997   1.370273   3.120140   3.542066
    10  O    1.384492   2.345090   2.350666   3.683176   3.676093
    11  H    1.960281   2.462492   3.217499   4.340498   4.466981
                    6          7          8          9         10
     6  F    0.000000
     7  F    2.393396   0.000000
     8  F    3.465922   3.667288   0.000000
     9  F    2.608624   3.589719   2.281818   0.000000
    10  O    4.497069   3.125379   2.705103   3.602723   0.000000
    11  H    5.187799   3.505994   3.686641   4.372494   0.985252
                   11
    11  H    0.000000
 Symmetry turned off by external request.
 Stoichiometry    C3HF5O2
 Rotational constants (GHZ):           1.5440694           1.0481341           0.9881490
 Leave Link  202 at Sat May 24 03:08:16 2025, MaxMem=  3758096384 cpu:               0.0 elap:               0.0
 (Enter /apps/easybuild-2022/easybuild/software/Compiler/NVHPC/22.11-CUDA-11.7.0/Gaussian/g16c01-CUDA-11.7.0/g16/l301.exe)
 Standard basis: 6-31G (6D, 7F)
 Ernie: Thresh=  0.10000D-02 Tol=  0.10000D-05 Strict=F.
    92 basis functions,   224 primitive gaussians,    92 cartesian basis functions
    40 alpha electrons       40 beta electrons
       nuclear repulsion energy       594.1948818603 Hartrees.
 IExCor=    0 DFT=F Ex=HF Corr=None ExCW=0 ScaHFX=  1.000000
 ScaDFX=  1.000000  1.000000  1.000000  1.000000 ScalE2=  1.000000  1.000000
 IRadAn=      5 IRanWt=     -1 IRanGd=            0 ICorTp=0 IEmpDi=  4
 NAtoms=   11 NActive=   11 NUniq=   11 SFac= 1.00D+00 NAtFMM=   60 NAOKFM=F Big=F
 Integral buffers will be    131072 words long.
 Raffenetti 1 integral format.
 Two-electron integral symmetry is turned off.
 Leave Link  301 at Sat May 24 03:08:16 2025, MaxMem=  3758096384 cpu:               0.0 elap:               0.0
 (Enter /apps/easybuild-2022/easybuild/software/Compiler/NVHPC/22.11-CUDA-11.7.0/Gaussian/g16c01-CUDA-11.7.0/g16/l302.exe)
 NPDir=0 NMtPBC=     1 NCelOv=     1 NCel=       1 NClECP=     1 NCelD=      1
         NCelK=      1 NCelE2=     1 NClLst=     1 CellRange=     0.0.
 One-electron integrals computed using PRISM.
 NBasis=    92 RedAO= T EigKep=  6.32D-03  NBF=    92
 NBsUse=    92 1.00D-06 EigRej= -1.00D+00 NBFU=    92
 Leave Link  302 at Sat May 24 03:08:16 2025, MaxMem=  3758096384 cpu:               0.2 elap:               0.1
 (Enter /apps/easybuild-2022/easybuild/software/Compiler/NVHPC/22.11-CUDA-11.7.0/Gaussian/g16c01-CUDA-11.7.0/g16/l303.exe)
 DipDrv:  MaxL=1.
 Leave Link  303 at Sat May 24 03:08:16 2025, MaxMem=  3758096384 cpu:               0.0 elap:               0.0
 (Enter /apps/easybuild-2022/easybuild/software/Compiler/NVHPC/22.11-CUDA-11.7.0/Gaussian/g16c01-CUDA-11.7.0/g16/l401.exe)
 Initial guess from the checkpoint file:  "1642764945472630600001_R_Addition_MultipleBond_1_3_4_IRC_F.chk"
 B after Tr=    -0.806805   -0.274373   -1.303158
         Rot=    1.000000    0.000000    0.000001    0.000001 Ang=   0.00 deg.
 Guess basis will be translated and rotated to current coordinates.
 JPrj=2 DoOrth=T DoCkMO=T.
 Mixing orbitals, IMix= 1 IMixAn=  0 NRI=1 NE=   40 Coef=  7.07106781D-01  7.07106781D-01
 Leave Link  401 at Sat May 24 03:08:16 2025, MaxMem=  3758096384 cpu:               0.1 elap:               0.1
 (Enter /apps/easybuild-2022/easybuild/software/Compiler/NVHPC/22.11-CUDA-11.7.0/Gaussian/g16c01-CUDA-11.7.0/g16/l502.exe)
 Keep R1 ints in memory in canonical form, NReq=10818512.
 FoFCou: FMM=F IPFlag=           0 FMFlag=           0 FMFlg1=           0
         NFxFlg=           0 DoJE=F BraDBF=F KetDBF=F FulRan=T
         wScrn=  0.000000 ICntrl=       600 IOpCl=  0 I1Cent=           0 NGrid=           0
         NMat0=    1 NMatS0=   4278 NMatT0=    0 NMatD0=    1 NMtDS0=    0 NMtDT0=    0
 Symmetry not used in FoFCou.
 Two-electron integral symmetry not used.
 Closed shell SCF:
 Using DIIS extrapolation, IDIIS=  1040.
 NGot=  3758096384 LenX=  3748924719 LenY=  3748915814
 Requested convergence on RMS density matrix=1.00D-08 within  32 cycles.
 Requested convergence on MAX density matrix=1.00D-06.
 Requested convergence on             energy=1.00D-06.
 No special actions if energy rises.

 Cycle   1  Pass 1  IDiag  1:
 E= -760.424312550757    
 DIIS: error= 1.30D-02 at cycle   1 NSaved=   1.
 NSaved= 1 IEnMin= 1 EnMin= -760.424312550757     IErMin= 1 ErrMin= 1.30D-02
 ErrMax= 1.30D-02  0.00D+00 EMaxC= 1.00D-01 BMatC= 2.85D-02 BMatP= 2.85D-02
 IDIUse=3 WtCom= 8.70D-01 WtEn= 1.30D-01
 Coeff-Com:  0.100D+01
 Coeff-En:   0.100D+01
 Coeff:      0.100D+01
 Gap=     0.025 Goal=   None    Shift=    0.000
 GapD=    0.025 DampG=0.250 DampE=0.500 DampFc=0.2500 IDamp=-1.
 Damping current iteration by 2.50D-01
 RMSDP=5.19D-03 MaxDP=1.41D-01              OVMax= 1.73D-01

 Cycle   2  Pass 1  IDiag  1:
 E= -760.435261391555     Delta-E=       -0.010948840798 Rises=F Damp=T
 DIIS: error= 9.50D-03 at cycle   2 NSaved=   2.
 NSaved= 2 IEnMin= 2 EnMin= -760.435261391555     IErMin= 2 ErrMin= 9.50D-03
 ErrMax= 9.50D-03  0.00D+00 EMaxC= 1.00D-01 BMatC= 1.18D-02 BMatP= 2.85D-02
 IDIUse=3 WtCom= 9.05D-01 WtEn= 9.50D-02
 Coeff-Com: -0.168D+01 0.268D+01
 Coeff-En:   0.000D+00 0.100D+01
 Coeff:     -0.152D+01 0.252D+01
 Gap=     0.122 Goal=   None    Shift=    0.000
 RMSDP=2.57D-03 MaxDP=4.51D-02 DE=-1.09D-02 OVMax= 1.12D-01

 Cycle   3  Pass 1  IDiag  1:
 E= -760.465895848000     Delta-E=       -0.030634456445 Rises=F Damp=F
 DIIS: error= 5.09D-03 at cycle   3 NSaved=   3.
 NSaved= 3 IEnMin= 3 EnMin= -760.465895848000     IErMin= 3 ErrMin= 5.09D-03
 ErrMax= 5.09D-03  0.00D+00 EMaxC= 1.00D-01 BMatC= 5.45D-04 BMatP= 1.18D-02
 IDIUse=3 WtCom= 9.49D-01 WtEn= 5.09D-02
 Coeff-Com: -0.472D+00 0.691D+00 0.781D+00
 Coeff-En:   0.000D+00 0.000D+00 0.100D+01
 Coeff:     -0.448D+00 0.656D+00 0.792D+00
 Gap=     0.132 Goal=   None    Shift=    0.000
 RMSDP=1.40D-03 MaxDP=2.12D-02 DE=-3.06D-02 OVMax= 8.52D-02

 Cycle   4  Pass 1  IDiag  1:
 E= -760.472623007153     Delta-E=       -0.006727159153 Rises=F Damp=F
 DIIS: error= 6.81D-03 at cycle   4 NSaved=   4.
 NSaved= 4 IEnMin= 4 EnMin= -760.472623007153     IErMin= 3 ErrMin= 5.09D-03
 ErrMax= 6.81D-03  0.00D+00 EMaxC= 1.00D-01 BMatC= 6.27D-04 BMatP= 5.45D-04
 IDIUse=3 WtCom= 1.08D-01 WtEn= 8.92D-01
 Coeff-Com: -0.470D+00 0.689D+00 0.769D+00 0.122D-01
 Coeff-En:   0.000D+00 0.000D+00 0.000D+00 0.100D+01
 Coeff:     -0.508D-01 0.744D-01 0.831D-01 0.893D+00
 Gap=     0.135 Goal=   None    Shift=    0.000
 RMSDP=2.12D-03 MaxDP=3.17D-02 DE=-6.73D-03 OVMax= 1.27D-01

 Cycle   5  Pass 1  IDiag  1:
 E= -760.485329066028     Delta-E=       -0.012706058875 Rises=F Damp=F
 DIIS: error= 9.28D-03 at cycle   5 NSaved=   5.
 NSaved= 5 IEnMin= 5 EnMin= -760.485329066028     IErMin= 3 ErrMin= 5.09D-03
 ErrMax= 9.28D-03  0.00D+00 EMaxC= 1.00D-01 BMatC= 9.24D-04 BMatP= 5.45D-04
 IDIUse=3 WtCom= 9.40D-02 WtEn= 9.06D-01
 Coeff-Com: -0.364D+00 0.377D+00 0.561D+00 0.153D+01-0.111D+01
 Coeff-En:   0.000D+00 0.000D+00 0.000D+00 0.000D+00 0.100D+01
 Coeff:     -0.342D-01 0.354D-01 0.528D-01 0.144D+00 0.802D+00
 Gap=     0.154 Goal=   None    Shift=    0.000
 RMSDP=2.30D-03 MaxDP=4.01D-02 DE=-1.27D-02 OVMax= 1.32D-01

 Cycle   6  Pass 1  IDiag  1:
 E= -760.501150372525     Delta-E=       -0.015821306497 Rises=F Damp=F
 DIIS: error= 1.03D-02 at cycle   6 NSaved=   6.
 NSaved= 6 IEnMin= 6 EnMin= -760.501150372525     IErMin= 3 ErrMin= 5.09D-03
 ErrMax= 1.03D-02  0.00D+00 EMaxC= 1.00D-01 BMatC= 1.26D-03 BMatP= 5.45D-04
 IDIUse=2 WtCom= 0.00D+00 WtEn= 1.00D+00
 Coeff-En:   0.000D+00 0.000D+00 0.000D+00 0.000D+00 0.000D+00 0.100D+01
 Coeff:      0.000D+00 0.000D+00 0.000D+00 0.000D+00 0.000D+00 0.100D+01
 Gap=     0.187 Goal=   None    Shift=    0.000
 RMSDP=2.70D-03 MaxDP=4.15D-02 DE=-1.58D-02 OVMax= 1.53D-01

 Cycle   7  Pass 1  IDiag  1:
 E= -760.519231609139     Delta-E=       -0.018081236614 Rises=F Damp=F
 DIIS: error= 7.94D-03 at cycle   7 NSaved=   7.
 NSaved= 7 IEnMin= 7 EnMin= -760.519231609139     IErMin= 3 ErrMin= 5.09D-03
 ErrMax= 7.94D-03  0.00D+00 EMaxC= 1.00D-01 BMatC= 1.62D-03 BMatP= 5.45D-04
 IDIUse=3 WtCom= 1.01D-01 WtEn= 8.99D-01
 Coeff-Com:  0.184D+00-0.228D+00-0.242D+00 0.128D+01 0.163D+01-0.365D+01
 Coeff-Com:  0.203D+01
 Coeff-En:   0.000D+00 0.000D+00 0.000D+00 0.000D+00 0.000D+00 0.000D+00
 Coeff-En:   0.100D+01
 Coeff:      0.186D-01-0.230D-01-0.245D-01 0.129D+00 0.165D+00-0.368D+00
 Coeff:      0.110D+01
 Gap=     0.218 Goal=   None    Shift=    0.000
 RMSDP=1.64D-03 MaxDP=2.74D-02 DE=-1.81D-02 OVMax= 8.29D-02

 Cycle   8  Pass 1  IDiag  1:
 E= -760.528442609493     Delta-E=       -0.009211000354 Rises=F Damp=F
 DIIS: error= 6.34D-03 at cycle   8 NSaved=   8.
 NSaved= 8 IEnMin= 8 EnMin= -760.528442609493     IErMin= 3 ErrMin= 5.09D-03
 ErrMax= 6.34D-03  0.00D+00 EMaxC= 1.00D-01 BMatC= 7.45D-04 BMatP= 5.45D-04
 IDIUse=3 WtCom= 1.12D-01 WtEn= 8.88D-01
 Coeff-Com:  0.422D-01-0.492D-01-0.304D+00 0.746D+00 0.251D+01-0.402D+01
 Coeff-Com:  0.141D+01 0.660D+00
 Coeff-En:   0.000D+00 0.000D+00 0.000D+00 0.000D+00 0.000D+00 0.000D+00
 Coeff-En:   0.000D+00 0.100D+01
 Coeff:      0.471D-02-0.549D-02-0.339D-01 0.833D-01 0.281D+00-0.448D+00
 Coeff:      0.157D+00 0.962D+00
 Gap=     0.226 Goal=   None    Shift=    0.000
 RMSDP=1.13D-03 MaxDP=1.84D-02 DE=-9.21D-03 OVMax= 6.07D-02

 Cycle   9  Pass 1  IDiag  1:
 E= -760.533091710852     Delta-E=       -0.004649101359 Rises=F Damp=F
 DIIS: error= 3.97D-03 at cycle   9 NSaved=   9.
 NSaved= 9 IEnMin= 9 EnMin= -760.533091710852     IErMin= 9 ErrMin= 3.97D-03
 ErrMax= 3.97D-03  0.00D+00 EMaxC= 1.00D-01 BMatC= 5.87D-04 BMatP= 5.45D-04
 IDIUse=3 WtCom= 9.60D-01 WtEn= 3.97D-02
 Coeff-Com:  0.121D+00-0.164D+00 0.288D+00-0.435D+00 0.989D+00-0.416D+00
 Coeff-Com: -0.828D+00-0.711D+00 0.216D+01
 Coeff-En:   0.000D+00 0.000D+00 0.000D+00 0.000D+00 0.000D+00 0.000D+00
 Coeff-En:   0.000D+00 0.000D+00 0.100D+01
 Coeff:      0.116D+00-0.157D+00 0.276D+00-0.417D+00 0.950D+00-0.399D+00
 Coeff:     -0.795D+00-0.683D+00 0.211D+01
 Gap=     0.211 Goal=   None    Shift=    0.000
 RMSDP=1.13D-03 MaxDP=1.95D-02 DE=-4.65D-03 OVMax= 4.67D-02

 Cycle  10  Pass 1  IDiag  1:
 E= -760.535920277526     Delta-E=       -0.002828566674 Rises=F Damp=F
 DIIS: error= 3.42D-03 at cycle  10 NSaved=  10.
 NSaved=10 IEnMin=10 EnMin= -760.535920277526     IErMin=10 ErrMin= 3.42D-03
 ErrMax= 3.42D-03  0.00D+00 EMaxC= 1.00D-01 BMatC= 1.48D-04 BMatP= 5.45D-04
 IDIUse=3 WtCom= 9.66D-01 WtEn= 3.42D-02
 Coeff-Com:  0.804D-01-0.841D-01 0.834D-01 0.288D-01 0.493D+00-0.100D+01
 Coeff-Com:  0.357D+00-0.390D+00 0.536D+00 0.900D+00
 Coeff-En:   0.000D+00 0.000D+00 0.000D+00 0.000D+00 0.000D+00 0.000D+00
 Coeff-En:   0.000D+00 0.000D+00 0.000D+00 0.100D+01
 Coeff:      0.776D-01-0.812D-01 0.805D-01 0.278D-01 0.476D+00-0.970D+00
 Coeff:      0.345D+00-0.377D+00 0.518D+00 0.904D+00
 Gap=     0.230 Goal=   None    Shift=    0.000
 RMSDP=8.41D-04 MaxDP=1.23D-02 DE=-2.83D-03 OVMax= 4.62D-02

 Cycle  11  Pass 1  IDiag  1:
 E= -760.537251519579     Delta-E=       -0.001331242053 Rises=F Damp=F
 DIIS: error= 8.76D-04 at cycle  11 NSaved=  11.
 NSaved=11 IEnMin=11 EnMin= -760.537251519579     IErMin=11 ErrMin= 8.76D-04
 ErrMax= 8.76D-04  0.00D+00 EMaxC= 1.00D-01 BMatC= 6.19D-05 BMatP= 1.48D-04
 IDIUse=3 WtCom= 9.91D-01 WtEn= 8.76D-03
 Coeff-Com: -0.683D-02 0.514D-01-0.846D-01 0.197D+00-0.393D+00 0.110D+00
 Coeff-Com:  0.388D-01 0.343D+00-0.513D+00 0.641D-01 0.119D+01
 Coeff-En:   0.000D+00 0.000D+00 0.000D+00 0.000D+00 0.000D+00 0.000D+00
 Coeff-En:   0.000D+00 0.000D+00 0.000D+00 0.000D+00 0.100D+01
 Coeff:     -0.677D-02 0.509D-01-0.839D-01 0.195D+00-0.389D+00 0.109D+00
 Coeff:      0.385D-01 0.340D+00-0.508D+00 0.636D-01 0.119D+01
 Gap=     0.256 Goal=   None    Shift=    0.000
 RMSDP=6.05D-04 MaxDP=9.05D-03 DE=-1.33D-03 OVMax= 3.44D-02

 Cycle  12  Pass 1  IDiag  1:
 E= -760.537426551081     Delta-E=       -0.000175031502 Rises=F Damp=F
 DIIS: error= 1.03D-03 at cycle  12 NSaved=  12.
 NSaved=12 IEnMin=12 EnMin= -760.537426551081     IErMin=11 ErrMin= 8.76D-04
 ErrMax= 1.03D-03  0.00D+00 EMaxC= 1.00D-01 BMatC= 4.12D-05 BMatP= 6.19D-05
 IDIUse=3 WtCom= 9.91D-01 WtEn= 8.76D-03
 Coeff-Com:  0.288D-01-0.189D-01 0.675D-01-0.496D-01-0.903D+00 0.154D+01
 Coeff-Com: -0.749D+00 0.303D-01 0.120D+00-0.111D+00-0.284D+00 0.133D+01
 Coeff-En:   0.000D+00 0.000D+00 0.000D+00 0.000D+00 0.000D+00 0.000D+00
 Coeff-En:   0.000D+00 0.000D+00 0.000D+00 0.000D+00 0.000D+00 0.100D+01
 Coeff:      0.286D-01-0.188D-01 0.669D-01-0.492D-01-0.895D+00 0.152D+01
 Coeff:     -0.743D+00 0.300D-01 0.119D+00-0.110D+00-0.281D+00 0.133D+01
 Gap=     0.260 Goal=   None    Shift=    0.000
 RMSDP=1.68D-04 MaxDP=2.64D-03 DE=-1.75D-04 OVMax= 5.95D-03

 Cycle  13  Pass 1  IDiag  1:
 E= -760.537479194206     Delta-E=       -0.000052643125 Rises=F Damp=F
 DIIS: error= 7.27D-04 at cycle  13 NSaved=  13.
 NSaved=13 IEnMin=13 EnMin= -760.537479194206     IErMin=13 ErrMin= 7.27D-04
 ErrMax= 7.27D-04  0.00D+00 EMaxC= 1.00D-01 BMatC= 1.01D-05 BMatP= 4.12D-05
 IDIUse=3 WtCom= 9.93D-01 WtEn= 7.27D-03
 Coeff-Com:  0.143D-01-0.194D-01 0.167D-01 0.383D-01-0.243D+00 0.253D+00
 Coeff-Com: -0.358D-01-0.114D+00-0.162D-01 0.285D+00-0.563D-03-0.208D+00
 Coeff-Com:  0.103D+01
 Coeff-En:   0.000D+00 0.000D+00 0.000D+00 0.000D+00 0.000D+00 0.000D+00
 Coeff-En:   0.000D+00 0.000D+00 0.000D+00 0.000D+00 0.000D+00 0.000D+00
 Coeff-En:   0.100D+01
 Coeff:      0.142D-01-0.192D-01 0.166D-01 0.380D-01-0.241D+00 0.251D+00
 Coeff:     -0.355D-01-0.113D+00-0.161D-01 0.283D+00-0.559D-03-0.207D+00
 Coeff:      0.103D+01
 Gap=     0.253 Goal=   None    Shift=    0.000
 RMSDP=8.52D-05 MaxDP=1.51D-03 DE=-5.26D-05 OVMax= 5.24D-03

 Cycle  14  Pass 1  IDiag  1:
 E= -760.537514788110     Delta-E=       -0.000035593904 Rises=F Damp=F
 DIIS: error= 3.34D-04 at cycle  14 NSaved=  14.
 NSaved=14 IEnMin=14 EnMin= -760.537514788110     IErMin=14 ErrMin= 3.34D-04
 ErrMax= 3.34D-04  0.00D+00 EMaxC= 1.00D-01 BMatC= 1.59D-06 BMatP= 1.01D-05
 IDIUse=3 WtCom= 9.97D-01 WtEn= 3.34D-03
 Coeff-Com: -0.576D-02 0.717D-02-0.299D-01 0.707D-01 0.115D-02-0.124D+00
 Coeff-Com:  0.115D+00 0.257D-01-0.119D+00 0.823D-01 0.147D+00-0.293D+00
 Coeff-Com:  0.474D-01 0.108D+01
 Coeff-En:   0.000D+00 0.000D+00 0.000D+00 0.000D+00 0.000D+00 0.000D+00
 Coeff-En:   0.000D+00 0.000D+00 0.000D+00 0.000D+00 0.000D+00 0.000D+00
 Coeff-En:   0.000D+00 0.100D+01
 Coeff:     -0.574D-02 0.714D-02-0.298D-01 0.705D-01 0.115D-02-0.124D+00
 Coeff:      0.115D+00 0.256D-01-0.118D+00 0.821D-01 0.146D+00-0.292D+00
 Coeff:      0.473D-01 0.108D+01
 Gap=     0.249 Goal=   None    Shift=    0.000
 RMSDP=9.66D-05 MaxDP=1.60D-03 DE=-3.56D-05 OVMax= 5.72D-03

 Cycle  15  Pass 1  IDiag  1:
 E= -760.537524910022     Delta-E=       -0.000010121913 Rises=F Damp=F
 DIIS: error= 3.89D-05 at cycle  15 NSaved=  15.
 NSaved=15 IEnMin=15 EnMin= -760.537524910022     IErMin=15 ErrMin= 3.89D-05
 ErrMax= 3.89D-05  0.00D+00 EMaxC= 1.00D-01 BMatC= 5.91D-08 BMatP= 1.59D-06
 IDIUse=1 WtCom= 1.00D+00 WtEn= 0.00D+00
 Coeff-Com: -0.853D-03 0.179D-02 0.376D-02-0.149D-01 0.163D-01 0.297D-02
 Coeff-Com: -0.131D-01-0.161D-02 0.355D-01-0.637D-01-0.170D-01 0.442D-01
 Coeff-Com: -0.939D-01-0.105D+00 0.121D+01
 Coeff:     -0.853D-03 0.179D-02 0.376D-02-0.149D-01 0.163D-01 0.297D-02
 Coeff:     -0.131D-01-0.161D-02 0.355D-01-0.637D-01-0.170D-01 0.442D-01
 Coeff:     -0.939D-01-0.105D+00 0.121D+01
 Gap=     0.249 Goal=   None    Shift=    0.000
 RMSDP=8.79D-06 MaxDP=1.10D-04 DE=-1.01D-05 OVMax= 3.56D-04

 Cycle  16  Pass 1  IDiag  1:
 E= -760.537525088091     Delta-E=       -0.000000178069 Rises=F Damp=F
 DIIS: error= 2.57D-05 at cycle  16 NSaved=  16.
 NSaved=16 IEnMin=16 EnMin= -760.537525088091     IErMin=16 ErrMin= 2.57D-05
 ErrMax= 2.57D-05  0.00D+00 EMaxC= 1.00D-01 BMatC= 1.21D-08 BMatP= 5.91D-08
 IDIUse=1 WtCom= 1.00D+00 WtEn= 0.00D+00
 Coeff-Com:  0.420D-03-0.389D-03 0.527D-02-0.167D-01 0.104D-01 0.141D-01
 Coeff-Com: -0.204D-01-0.357D-02 0.236D-01-0.262D-01-0.118D-01 0.409D-01
 Coeff-Com: -0.171D-01-0.118D+00 0.207D-01 0.110D+01
 Coeff:      0.420D-03-0.389D-03 0.527D-02-0.167D-01 0.104D-01 0.141D-01
 Coeff:     -0.204D-01-0.357D-02 0.236D-01-0.262D-01-0.118D-01 0.409D-01
 Coeff:     -0.171D-01-0.118D+00 0.207D-01 0.110D+01
 Gap=     0.250 Goal=   None    Shift=    0.000
 RMSDP=6.94D-06 MaxDP=1.16D-04 DE=-1.78D-07 OVMax= 4.13D-04

 Cycle  17  Pass 1  IDiag  1:
 E= -760.537525160539     Delta-E=       -0.000000072447 Rises=F Damp=F
 DIIS: error= 3.31D-06 at cycle  17 NSaved=  17.
 NSaved=17 IEnMin=17 EnMin= -760.537525160539     IErMin=17 ErrMin= 3.31D-06
 ErrMax= 3.31D-06  0.00D+00 EMaxC= 1.00D-01 BMatC= 1.20D-09 BMatP= 1.21D-08
 IDIUse=1 WtCom= 1.00D+00 WtEn= 0.00D+00
 Coeff-Com:  0.271D-04-0.179D-03-0.180D-02 0.420D-02-0.204D-02-0.315D-02
 Coeff-Com:  0.362D-02 0.475D-02-0.153D-01 0.139D-01 0.149D-01-0.139D-01
 Coeff-Com:  0.233D-01 0.332D-01-0.341D+00 0.336D-01 0.125D+01
 Coeff:      0.271D-04-0.179D-03-0.180D-02 0.420D-02-0.204D-02-0.315D-02
 Coeff:      0.362D-02 0.475D-02-0.153D-01 0.139D-01 0.149D-01-0.139D-01
 Coeff:      0.233D-01 0.332D-01-0.341D+00 0.336D-01 0.125D+01
 Gap=     0.250 Goal=   None    Shift=    0.000
 RMSDP=2.37D-06 MaxDP=3.79D-05 DE=-7.24D-08 OVMax= 9.24D-05

 Cycle  18  Pass 1  IDiag  1:
 E= -760.537525164620     Delta-E=       -0.000000004081 Rises=F Damp=F
 DIIS: error= 3.91D-06 at cycle  18 NSaved=  18.
 NSaved=18 IEnMin=18 EnMin= -760.537525164620     IErMin=17 ErrMin= 3.31D-06
 ErrMax= 3.91D-06  0.00D+00 EMaxC= 1.00D-01 BMatC= 3.12D-10 BMatP= 1.20D-09
 IDIUse=1 WtCom= 1.00D+00 WtEn= 0.00D+00
 Coeff-Com: -0.298D-04 0.621D-04-0.978D-03 0.188D-02 0.123D-03-0.287D-02
 Coeff-Com:  0.264D-02 0.107D-02-0.329D-02 0.278D-02 0.193D-02-0.544D-02
 Coeff-Com:  0.148D-02 0.768D-02 0.605D-02-0.140D+00 0.343D-01 0.109D+01
 Coeff:     -0.298D-04 0.621D-04-0.978D-03 0.188D-02 0.123D-03-0.287D-02
 Coeff:      0.264D-02 0.107D-02-0.329D-02 0.278D-02 0.193D-02-0.544D-02
 Coeff:      0.148D-02 0.768D-02 0.605D-02-0.140D+00 0.343D-01 0.109D+01
 Gap=     0.250 Goal=   None    Shift=    0.000
 RMSDP=1.30D-06 MaxDP=2.07D-05 DE=-4.08D-09 OVMax= 7.41D-05

 Cycle  19  Pass 1  IDiag  1:
 E= -760.537525166110     Delta-E=       -0.000000001491 Rises=F Damp=F
 DIIS: error= 8.32D-07 at cycle  19 NSaved=  19.
 NSaved=19 IEnMin=19 EnMin= -760.537525166110     IErMin=19 ErrMin= 8.32D-07
 ErrMax= 8.32D-07  0.00D+00 EMaxC= 1.00D-01 BMatC= 2.86D-11 BMatP= 3.12D-10
 IDIUse=1 WtCom= 1.00D+00 WtEn= 0.00D+00
 Coeff-Com:  0.278D-04-0.464D-04 0.426D-03-0.569D-03-0.378D-03 0.131D-02
 Coeff-Com: -0.100D-02-0.885D-03 0.228D-02-0.159D-02-0.261D-02 0.256D-02
 Coeff-Com: -0.881D-03-0.504D-02 0.307D-01 0.338D-01-0.137D+00-0.329D+00
 Coeff-Com:  0.141D+01
 Coeff:      0.278D-04-0.464D-04 0.426D-03-0.569D-03-0.378D-03 0.131D-02
 Coeff:     -0.100D-02-0.885D-03 0.228D-02-0.159D-02-0.261D-02 0.256D-02
 Coeff:     -0.881D-03-0.504D-02 0.307D-01 0.338D-01-0.137D+00-0.329D+00
 Coeff:      0.141D+01
 Gap=     0.250 Goal=   None    Shift=    0.000
 RMSDP=3.32D-07 MaxDP=3.65D-06 DE=-1.49D-09 OVMax= 1.53D-05

 Cycle  20  Pass 1  IDiag  1:
 E= -760.537525166294     Delta-E=       -0.000000000184 Rises=F Damp=F
 DIIS: error= 2.16D-07 at cycle  20 NSaved=  20.
 NSaved=20 IEnMin=20 EnMin= -760.537525166294     IErMin=20 ErrMin= 2.16D-07
 ErrMax= 2.16D-07  0.00D+00 EMaxC= 1.00D-01 BMatC= 4.97D-12 BMatP= 2.86D-11
 IDIUse=1 WtCom= 1.00D+00 WtEn= 0.00D+00
 Coeff-Com:  0.172D-04-0.323D-04 0.142D-03-0.164D-03-0.807D-04 0.224D-03
 Coeff-Com: -0.122D-03-0.204D-03 0.294D-03-0.237D-04-0.566D-03 0.985D-03
 Coeff-Com:  0.160D-03-0.604D-03-0.454D-02 0.224D-01 0.283D-03-0.207D+00
 Coeff-Com:  0.808D-01 0.111D+01
 Coeff:      0.172D-04-0.323D-04 0.142D-03-0.164D-03-0.807D-04 0.224D-03
 Coeff:     -0.122D-03-0.204D-03 0.294D-03-0.237D-04-0.566D-03 0.985D-03
 Coeff:      0.160D-03-0.604D-03-0.454D-02 0.224D-01 0.283D-03-0.207D+00
 Coeff:      0.808D-01 0.111D+01
 Gap=     0.250 Goal=   None    Shift=    0.000
 RMSDP=8.66D-08 MaxDP=1.04D-06 DE=-1.84D-10 OVMax= 3.92D-06

 Cycle  21  Pass 1  IDiag  1:
 E= -760.537525166306     Delta-E=       -0.000000000012 Rises=F Damp=F
 DIIS: error= 7.40D-08 at cycle  21 NSaved=  20.
 NSaved=20 IEnMin=20 EnMin= -760.537525166306     IErMin=20 ErrMin= 7.40D-08
 ErrMax= 7.40D-08  0.00D+00 EMaxC= 1.00D-01 BMatC= 8.67D-13 BMatP= 4.97D-12
 IDIUse=1 WtCom= 1.00D+00 WtEn= 0.00D+00
 Coeff-Com:  0.249D-05-0.591D-04 0.317D-04 0.208D-03-0.363D-03 0.232D-03
 Coeff-Com:  0.106D-03-0.311D-03 0.303D-03 0.250D-03-0.219D-03-0.657D-04
 Coeff-Com:  0.759D-03-0.538D-02-0.380D-02 0.254D-01 0.352D-01-0.249D+00
 Coeff-Com:  0.155D+00 0.104D+01
 Coeff:      0.249D-05-0.591D-04 0.317D-04 0.208D-03-0.363D-03 0.232D-03
 Coeff:      0.106D-03-0.311D-03 0.303D-03 0.250D-03-0.219D-03-0.657D-04
 Coeff:      0.759D-03-0.538D-02-0.380D-02 0.254D-01 0.352D-01-0.249D+00
 Coeff:      0.155D+00 0.104D+01
 Gap=     0.250 Goal=   None    Shift=    0.000
 RMSDP=5.29D-08 MaxDP=7.93D-07 DE=-1.16D-11 OVMax= 2.07D-06

 Cycle  22  Pass 1  IDiag  1:
 E= -760.537525166303     Delta-E=        0.000000000003 Rises=F Damp=F
 DIIS: error= 2.40D-08 at cycle  22 NSaved=  20.
 NSaved=20 IEnMin=19 EnMin= -760.537525166306     IErMin=20 ErrMin= 2.40D-08
 ErrMax= 2.40D-08  0.00D+00 EMaxC= 1.00D-01 BMatC= 1.40D-13 BMatP= 8.67D-13
 IDIUse=1 WtCom= 1.00D+00 WtEn= 0.00D+00
 Coeff-Com:  0.101D-04-0.247D-04-0.197D-04 0.985D-04-0.982D-04-0.184D-04
 Coeff-Com:  0.115D-03-0.124D-03-0.640D-04 0.117D-04-0.975D-04-0.188D-03
 Coeff-Com:  0.249D-02-0.203D-03-0.929D-02 0.305D-02 0.659D-01-0.179D+00
 Coeff-Com: -0.260D+00 0.138D+01
 Coeff:      0.101D-04-0.247D-04-0.197D-04 0.985D-04-0.982D-04-0.184D-04
 Coeff:      0.115D-03-0.124D-03-0.640D-04 0.117D-04-0.975D-04-0.188D-03
 Coeff:      0.249D-02-0.203D-03-0.929D-02 0.305D-02 0.659D-01-0.179D+00
 Coeff:     -0.260D+00 0.138D+01
 Gap=     0.250 Goal=   None    Shift=    0.000
 RMSDP=1.11D-08 MaxDP=1.59D-07 DE= 2.50D-12 OVMax= 5.04D-07

 Cycle  23  Pass 1  IDiag  1:
 E= -760.537525166313     Delta-E=       -0.000000000010 Rises=F Damp=F
 DIIS: error= 1.19D-08 at cycle  23 NSaved=  20.
 NSaved=20 IEnMin=20 EnMin= -760.537525166313     IErMin=20 ErrMin= 1.19D-08
 ErrMax= 1.19D-08  0.00D+00 EMaxC= 1.00D-01 BMatC= 7.71D-15 BMatP= 1.40D-13
 IDIUse=1 WtCom= 1.00D+00 WtEn= 0.00D+00
 Large coefficients: NSaved= 20 BigCof=    0.00 CofMax=   10.00 Det=-5.13D-15
 Inversion failed.  Reducing to 19 matrices.
 Large coefficients: NSaved= 19 BigCof=    0.00 CofMax=   10.00 Det=-5.21D-15
 Inversion failed.  Reducing to 18 matrices.
 Large coefficients: NSaved= 18 BigCof=    0.00 CofMax=   10.00 Det=-6.01D-15
 Inversion failed.  Reducing to 17 matrices.
 Coeff-Com:  0.847D-06 0.615D-05-0.120D-04 0.282D-05-0.460D-05 0.328D-04
 Coeff-Com:  0.168D-05-0.205D-04 0.291D-04 0.207D-03-0.590D-03-0.107D-02
 Coeff-Com:  0.805D-02 0.552D-02-0.426D-01-0.139D+00 0.117D+01
 Coeff:      0.847D-06 0.615D-05-0.120D-04 0.282D-05-0.460D-05 0.328D-04
 Coeff:      0.168D-05-0.205D-04 0.291D-04 0.207D-03-0.590D-03-0.107D-02
 Coeff:      0.805D-02 0.552D-02-0.426D-01-0.139D+00 0.117D+01
 Gap=     0.250 Goal=   None    Shift=    0.000
 RMSDP=4.87D-09 MaxDP=6.50D-08 DE=-1.00D-11 OVMax= 1.85D-07

 SCF Done:  E(RHF) =  -760.537525166     A.U. after   23 cycles
            NFock= 23  Conv=0.49D-08     -V/T= 2.0015
 KE= 7.593633541166D+02 PE=-2.996888791718D+03 EE= 8.827930305745D+02
 Leave Link  502 at Sat May 24 03:08:16 2025, MaxMem=  3758096384 cpu:               1.1 elap:               0.3
 (Enter /apps/easybuild-2022/easybuild/software/Compiler/NVHPC/22.11-CUDA-11.7.0/Gaussian/g16c01-CUDA-11.7.0/g16/l508.exe)
 QCSCF skips out because SCF is already converged.
 Leave Link  508 at Sat May 24 03:08:16 2025, MaxMem=  3758096384 cpu:               0.0 elap:               0.0
 (Enter /apps/easybuild-2022/easybuild/software/Compiler/NVHPC/22.11-CUDA-11.7.0/Gaussian/g16c01-CUDA-11.7.0/g16/l801.exe)
 ExpMin= 1.61D-01 ExpMax= 7.00D+03 ExpMxC= 1.05D+03 IAcc=3 IRadAn=         5 AccDes= 0.00D+00
 HarFok:  IExCor=  205 AccDes= 0.00D+00 IRadAn=         5 IDoV=-2 UseB2=F ITyADJ=14
 ICtDFT= 12500011 ScaDFX=  1.000000  1.000000  1.000000  1.000000
 Largest valence mixing into a core orbital is  1.28D-04
 Largest core mixing into a valence orbital is  6.92D-05
 Range of M.O.s used for correlation:    11    92
 NBasis=    92 NAE=    40 NBE=    40 NFC=    10 NFV=     0
 NROrb=     82 NOA=    30 NOB=    30 NVA=    52 NVB=    52
 Leave Link  801 at Sat May 24 03:08:17 2025, MaxMem=  3758096384 cpu:               0.3 elap:               0.5
 (Enter /apps/easybuild-2022/easybuild/software/Compiler/NVHPC/22.11-CUDA-11.7.0/Gaussian/g16c01-CUDA-11.7.0/g16/l906.exe)
 Frozen-core derivative calculation, NFC=  10 NFV=   0.
 FulOut=F Deriv=T AODrv=T NAtomX=    11
   MMem=        1209  MDisk=          30 MDiskD=          30
  W3Min=      338560 MinDsk=      464230 NBas6D=          92
 NBas2D=        4398    NTT=        4278    LW2=     2000000
    MDV=  3757980907 MDiskM=      425269 NBas2p=        4217
 Fully direct method using O(ONN) memory.
 IMap=   1   2   3   4   5   6   7   8   9  10  11  12  13  14  15  16  17  18  19  20
 IMap=  21  22  23  24  25  26  27  28  29  30  31  32  33  34  35  36  37  38  39  40
 JobTyp=1 Pass  1:  I=  11 to  40 NPSUse=  8 ParTrn=T ParDer=T DoDerP=T.
 Spin components of T(2) and E(2):
     alpha-alpha T2 =       0.5118064708D-01 E2=     -0.1598449672D+00
     alpha-beta  T2 =       0.3429233160D+00 E2=     -0.8929818717D+00
     beta-beta   T2 =       0.5118064708D-01 E2=     -0.1598449672D+00
 The integrals were generated   1 times.
 ANorm=    0.1202199904D+01
 E2 =    -0.1212671806D+01 EUMP2 =    -0.76175019697233D+03
 Leave Link  906 at Sat May 24 03:08:18 2025, MaxMem=  3758096384 cpu:               8.1 elap:               1.2
 (Enter /apps/easybuild-2022/easybuild/software/Compiler/NVHPC/22.11-CUDA-11.7.0/Gaussian/g16c01-CUDA-11.7.0/g16/l1101.exe)
 Leave Link 1101 at Sat May 24 03:08:18 2025, MaxMem=  3758096384 cpu:               0.0 elap:               0.0
 (Enter /apps/easybuild-2022/easybuild/software/Compiler/NVHPC/22.11-CUDA-11.7.0/Gaussian/g16c01-CUDA-11.7.0/g16/l1102.exe)
 Leave Link 1102 at Sat May 24 03:08:18 2025, MaxMem=  3758096384 cpu:               0.1 elap:               0.0
 (Enter /apps/easybuild-2022/easybuild/software/Compiler/NVHPC/22.11-CUDA-11.7.0/Gaussian/g16c01-CUDA-11.7.0/g16/l1110.exe)
 Leave Link 1110 at Sat May 24 03:08:18 2025, MaxMem=  3758096384 cpu:               0.0 elap:               0.0
 (Enter /apps/easybuild-2022/easybuild/software/Compiler/NVHPC/22.11-CUDA-11.7.0/Gaussian/g16c01-CUDA-11.7.0/g16/l1002.exe)
 Minotr:  Closed shell wavefunction.
 Leave Link 1002 at Sat May 24 03:08:18 2025, MaxMem=  3758096384 cpu:               0.0 elap:               0.0
 (Enter /apps/easybuild-2022/easybuild/software/Compiler/NVHPC/22.11-CUDA-11.7.0/Gaussian/g16c01-CUDA-11.7.0/g16/l811.exe)
 Leave Link  811 at Sat May 24 03:08:18 2025, MaxMem=  3758096384 cpu:               0.0 elap:               0.0
 (Enter /apps/easybuild-2022/easybuild/software/Compiler/NVHPC/22.11-CUDA-11.7.0/Gaussian/g16c01-CUDA-11.7.0/g16/l804.exe)
 Leave Link  804 at Sat May 24 03:08:19 2025, MaxMem=  3758096384 cpu:               0.0 elap:               0.1
 (Enter /apps/easybuild-2022/easybuild/software/Compiler/NVHPC/22.11-CUDA-11.7.0/Gaussian/g16c01-CUDA-11.7.0/g16/l1002.exe)
 Minotr:  Closed shell wavefunction.
          Computing MP2/KS-MP2 derivatives.
          Using Z-Vector for PSCF gradient.
          Skipping F1 and S1 gradient terms here.
          IDoAtm=11111111111
          Frozen-core window.
          Direct CPHF calculation.
          Differentiating once with respect to electric field.
                with respect to dipole field.
          Differentiating once with respect to nuclear coordinates.
          Requested convergence is 1.0D-10 RMS, and 1.0D-09 maximum.
          NewPWx=F KeepS1=T KeepF1=T KeepIn=T MapXYZ=F SortEE=F KeepMc=T.
 Keep R1 ints in memory in canonical form, NReq=10821789.
 FoFCou: FMM=F IPFlag=           0 FMFlag=           0 FMFlg1=           0
         NFxFlg=           0 DoJE=F BraDBF=F KetDBF=F FulRan=T
         wScrn=  0.000000 ICntrl=       600 IOpCl=  0 I1Cent=           0 NGrid=           0
         NMat0=    1 NMatS0=   4278 NMatT0=    0 NMatD0=    1 NMtDS0=    0 NMtDT0=    0
 Symmetry not used in FoFCou.
 Two-electron integral symmetry not used.
          MDV=    3758096384 using IRadAn=       5.
          Solving linear equations separately, MaxMat=       0.
          There are     1 degrees of freedom in the 1st order CPHF.  IDoFFX=0 NUNeed=     1.
 LinEq1:  Iter=  0 NonCon=     1 RMS=1.19D-02 Max=3.31D-01 NDo=     1
 AX will form     1 AO Fock derivatives at one time.
 LinEq1:  Iter=  1 NonCon=     1 RMS=4.86D-03 Max=6.67D-02 NDo=     1
 LinEq1:  Iter=  2 NonCon=     1 RMS=2.47D-03 Max=7.30D-02 NDo=     1
 LinEq1:  Iter=  3 NonCon=     1 RMS=9.36D-04 Max=1.15D-02 NDo=     1
 LinEq1:  Iter=  4 NonCon=     1 RMS=4.52D-04 Max=6.51D-03 NDo=     1
 LinEq1:  Iter=  5 NonCon=     1 RMS=1.82D-04 Max=2.81D-03 NDo=     1
 LinEq1:  Iter=  6 NonCon=     1 RMS=7.73D-05 Max=7.42D-04 NDo=     1
 LinEq1:  Iter=  7 NonCon=     1 RMS=2.53D-05 Max=2.87D-04 NDo=     1
 LinEq1:  Iter=  8 NonCon=     1 RMS=5.47D-06 Max=7.60D-05 NDo=     1
 LinEq1:  Iter=  9 NonCon=     1 RMS=2.23D-06 Max=2.67D-05 NDo=     1
 LinEq1:  Iter= 10 NonCon=     1 RMS=8.13D-07 Max=1.07D-05 NDo=     1
 LinEq1:  Iter= 11 NonCon=     1 RMS=2.98D-07 Max=4.74D-06 NDo=     1
 LinEq1:  Iter= 12 NonCon=     1 RMS=9.38D-08 Max=1.42D-06 NDo=     1
 LinEq1:  Iter= 13 NonCon=     1 RMS=2.11D-08 Max=1.93D-07 NDo=     1
 LinEq1:  Iter= 14 NonCon=     1 RMS=9.90D-09 Max=8.68D-08 NDo=     1
 LinEq1:  Iter= 15 NonCon=     1 RMS=2.15D-09 Max=2.43D-08 NDo=     1
 LinEq1:  Iter= 16 NonCon=     1 RMS=5.01D-10 Max=4.00D-09 NDo=     1
 LinEq1:  Iter= 17 NonCon=     1 RMS=2.36D-10 Max=2.14D-09 NDo=     1
 LinEq1:  Iter= 18 NonCon=     0 RMS=5.85D-11 Max=8.45D-10 NDo=     1
 Linear equations converged to 1.000D-10 1.000D-09 after    18 iterations.
 End of Minotr F.D. properties file   721 does not exist.
 End of Minotr F.D. properties file   722 does not exist.
 End of Minotr F.D. properties file   788 does not exist.
 Leave Link 1002 at Sat May 24 03:08:19 2025, MaxMem=  3758096384 cpu:               1.0 elap:               0.3
 (Enter /apps/easybuild-2022/easybuild/software/Compiler/NVHPC/22.11-CUDA-11.7.0/Gaussian/g16c01-CUDA-11.7.0/g16/l1102.exe)
 Use density number 2.
 Symmetrizing basis deriv contribution to polar:
 IMax=3 JMax=2 DiffMx= 0.00D+00
 Leave Link 1102 at Sat May 24 03:08:19 2025, MaxMem=  3758096384 cpu:               0.1 elap:               0.0
 (Enter /apps/easybuild-2022/easybuild/software/Compiler/NVHPC/22.11-CUDA-11.7.0/Gaussian/g16c01-CUDA-11.7.0/g16/l1110.exe)
 Leave Link 1110 at Sat May 24 03:08:19 2025, MaxMem=  3758096384 cpu:               0.0 elap:               0.0
 (Enter /apps/easybuild-2022/easybuild/software/Compiler/NVHPC/22.11-CUDA-11.7.0/Gaussian/g16c01-CUDA-11.7.0/g16/l1112.exe)
 Leave Link 1112 at Sat May 24 03:08:19 2025, MaxMem=  3758096384 cpu:               0.0 elap:               0.1
 (Enter /apps/easybuild-2022/easybuild/software/Compiler/NVHPC/22.11-CUDA-11.7.0/Gaussian/g16c01-CUDA-11.7.0/g16/l701.exe)
 ... and contract with generalized density number  2.
 Compute integral first derivatives.
 Leave Link  701 at Sat May 24 03:08:19 2025, MaxMem=  3758096384 cpu:               0.3 elap:               0.1
 (Enter /apps/easybuild-2022/easybuild/software/Compiler/NVHPC/22.11-CUDA-11.7.0/Gaussian/g16c01-CUDA-11.7.0/g16/l702.exe)
 L702 exits ... SP integral derivatives will be done elsewhere.
 Leave Link  702 at Sat May 24 03:08:19 2025, MaxMem=  3758096384 cpu:               0.0 elap:               0.0
 (Enter /apps/easybuild-2022/easybuild/software/Compiler/NVHPC/22.11-CUDA-11.7.0/Gaussian/g16c01-CUDA-11.7.0/g16/l703.exe)
 Integral derivatives from FoFJK, PRISM(SPDF).
 Compute integral first derivatives, UseDBF=F ICtDFT=           0.
 Calling FoFJK, ICntrl=  10002127 FMM=F ISym2X=0 I1Cent= 0 IOpClX= 0 NMat=1 NMatS=1 NMatT=0.
 FoFJK:  IHMeth= 1 ICntrl=10002127 DoSepK=F KAlg= 0 I1Cent=           0 FoldK=F
 IRaf=         0 NMat=       1 IRICut=       1 DoRegI=T DoRafI=F ISym2E= 0 IDoP0=0 IntGTp=1.
 FoFCou: FMM=F IPFlag=           0 FMFlag=      100000 FMFlg1=         800
         NFxFlg=           0 DoJE=F BraDBF=F KetDBF=F FulRan=T
         wScrn=  0.000000 ICntrl=  10002127 IOpCl=  0 I1Cent=           0 NGrid=           0
         NMat0=    1 NMatS0=      1 NMatT0=    0 NMatD0=    1 NMtDS0=    0 NMtDT0=    0
 Symmetry not used in FoFCou.
 Leave Link  703 at Sat May 24 03:08:19 2025, MaxMem=  3758096384 cpu:               0.6 elap:               0.1
 (Enter /apps/easybuild-2022/easybuild/software/Compiler/NVHPC/22.11-CUDA-11.7.0/Gaussian/g16c01-CUDA-11.7.0/g16/l716.exe)
 Dipole        = 5.41905134D-01 5.54139008D-01-3.05616998D-01
 Polarizability= 0.00000000D+00 0.00000000D+00 0.00000000D+00
                 0.00000000D+00 0.00000000D+00 0.00000000D+00
 -------------------------------------------------------------------
 Center     Atomic                   Forces (Hartrees/Bohr)
 Number     Number              X              Y              Z
 -------------------------------------------------------------------
      1        6          -0.000229894   -0.000276106   -0.000222524
      2        8           0.000089617    0.000126910   -0.000016277
      3        6          -0.000671272    0.001118771    0.003677747
      4        6           0.003441716   -0.003301756   -0.011744771
      5        9          -0.001159897    0.001167144    0.002890909
      6        9          -0.001012059    0.000442937    0.003115446
      7        9          -0.000595945    0.000934077    0.003115285
      8        9          -0.000062479    0.000125591   -0.000481270
      9        9           0.000063690   -0.000403277   -0.000302733
     10        8           0.000123818    0.000098332   -0.000006983
     11        1           0.000012705   -0.000032623   -0.000024829
 -------------------------------------------------------------------
 Cartesian Forces:  Max     0.011744771 RMS     0.002520091
 Leave Link  716 at Sat May 24 03:08:19 2025, MaxMem=  3758096384 cpu:               0.0 elap:               0.0
 (Enter /apps/easybuild-2022/easybuild/software/Compiler/NVHPC/22.11-CUDA-11.7.0/Gaussian/g16c01-CUDA-11.7.0/g16/l123.exe)
 IRC-IRC-IRC-IRC-IRC-IRC-IRC-IRC-IRC-IRC-IRC-IRC-IRC-IRC-IRC-IRC-IRC-IRC
 Pt  1 Step number   1 out of a maximum of  20
 Using modified Bulirsch-Stoer corrector integration.
   Using distance weighted interpolants to fit PES.
 PreDWI: IReCr0= 2 IReCr1= 1 IReCr2= 1 IReCr3= 1
 Modified Bulirsch-Stoer Extrapolation Cycles:
    EPS =    0.000010000000000
    Cycle     1 NS=    48
      PEZero:  N= 2 I= 1 D=  1.84D-04 Err=  4.62D-04
    Cycle     2 NS=    64 Truncation Error =  0.000461534
      PEZero:  N= 3 I= 2 D=  1.84D-04 Err=  3.08D-04
      PEZero:  N= 3 I= 1 D=  3.68D-04 Err=  6.82D-09
    Cycle     3 NS=    96 Truncation Error =  0.000000007
 BS completed in    3 cycles and     208 integration steps.
 Maximum DWI energy   std dev =  0.000000290 at pt    56
 Maximum DWI gradient std dev =  0.006785682 at pt     1
 SUMMARY OF CORRECTOR INTEGRATION:
   Predictor End Point Energy =  -761.750197
   Old End Point Energy       =  -761.750197
   Corrected End Point Energy =  -761.750197
   Predictor End-Start Dist.  =     0.070641
   Old End-Start Dist.        =     0.070641
   New End-Start Dist.        =     0.070641
   New End-Old End Dist.      =     0.000341
 CORRECTOR INTEGRATION CONVERGENCE:
   Recorrection delta-x convergence threshold:    0.010000
   Delta-x Convergence Met
 Point Number:   1          Path Number:   1
                    CURRENT STRUCTURE
                Cartesian Coordinates (Ang):                
 ---------------------------------------------------------------------
 Center     Atomic                     Coordinates (Angstroms)
 Number     Number                        X           Y           Z
 ---------------------------------------------------------------------
      1          6                    1.303805   -0.031473   -0.928910
      2          8                    2.212939   -0.824522   -0.609754
      3          6                   -0.135589   -0.370638   -0.874459
      4          6                   -0.713144    0.335268    1.544821
      5          9                   -1.526548    1.238868    0.869139
      6          9                   -1.105909   -0.996927    1.621580
      7          9                    0.646284    0.632370    1.679896
      8          9                   -1.055212    0.379463   -1.558923
      9          9                   -0.474944   -1.696724   -0.810936
     10          8                    1.469803    1.302670   -1.259584
     11          1                    2.419684    1.557317   -1.199617
 ---------------------------------------------------------------------
   CHANGE IN THE REACTION COORDINATE =    0.07064
   NET REACTION COORDINATE UP TO THIS POINT =    0.07064
  # OF POINTS ALONG THE PATH =   1
  # OF STEPS =   1

 Calculating another point on the path.
 Point Number  2 in FORWARD path direction.
 Using LQA Reaction Path Following.
   LQA: T_Est iteration completed in    3 iterations.
 IRC-IRC-IRC-IRC-IRC-IRC-IRC-IRC-IRC-IRC-IRC-IRC-IRC-IRC-IRC-IRC-IRC-IRC
 Leave Link  123 at Sat May 24 03:08:20 2025, MaxMem=  3758096384 cpu:               0.1 elap:               0.1
 (Enter /apps/easybuild-2022/easybuild/software/Compiler/NVHPC/22.11-CUDA-11.7.0/Gaussian/g16c01-CUDA-11.7.0/g16/l202.exe)
                          Input orientation:                          
 ---------------------------------------------------------------------
 Center     Atomic      Atomic             Coordinates (Angstroms)
 Number     Number       Type             X           Y           Z
 ---------------------------------------------------------------------
      1          6           0        1.303658   -0.031683   -0.929076
      2          8           0        2.212981   -0.824443   -0.609767
      3          6           0       -0.136135   -0.369792   -0.871643
      4          6           0       -0.710497    0.332733    1.535799
      5          9           0       -1.527118    1.239442    0.870538
      6          9           0       -1.106403   -0.996722    1.623093
      7          9           0        0.646003    0.632826    1.681410
      8          9           0       -1.055236    0.379521   -1.559151
      9          9           0       -0.474910   -1.696911   -0.811082
     10          8           0        1.469871    1.302723   -1.259588
     11          1           0        2.419820    1.557017   -1.199838
 ---------------------------------------------------------------------
                    Distance matrix (angstroms):
                    1          2          3          4          5
     1  C    0.000000
     2  O    1.247916   0.000000
     3  C    1.480074   2.406997   0.000000
     4  C    3.203939   3.806473   2.572782   0.000000
     5  F    3.587152   4.520980   2.749483   1.389807   0.000000
     6  F    3.640503   4.004205   2.749212   1.389896   2.396616
     7  F    2.772854   3.135051   2.852202   1.396908   2.397488
     8  F    2.475977   3.610000   1.370724   3.114442   2.620214
     9  F    2.439305   2.833105   1.371014   3.111720   3.543607
    10  O    1.384740   2.345062   2.350971   3.675470   3.677415
    11  H    1.960382   2.462178   3.217640   4.333759   4.468291
                    6          7          8          9         10
     6  F    0.000000
     7  F    2.393691   0.000000
     8  F    3.467468   3.668734   0.000000
     9  F    2.610413   3.591188   2.282094   0.000000
    10  O    4.498276   3.126818   2.705218   3.602934   0.000000
    11  H    5.188908   3.507441   3.686681   4.372486   0.985210
                   11
    11  H    0.000000
 Symmetry turned off by external request.
 Stoichiometry    C3HF5O2
 Rotational constants (GHZ):           1.5440677           1.0483246           0.9884201
 Leave Link  202 at Sat May 24 03:08:20 2025, MaxMem=  3758096384 cpu:               0.0 elap:               0.0
 (Enter /apps/easybuild-2022/easybuild/software/Compiler/NVHPC/22.11-CUDA-11.7.0/Gaussian/g16c01-CUDA-11.7.0/g16/l301.exe)
 Standard basis: 6-31G (6D, 7F)
 Ernie: Thresh=  0.10000D-02 Tol=  0.10000D-05 Strict=F.
    92 basis functions,   224 primitive gaussians,    92 cartesian basis functions
    40 alpha electrons       40 beta electrons
       nuclear repulsion energy       594.2691630133 Hartrees.
 IExCor=    0 DFT=F Ex=HF Corr=None ExCW=0 ScaHFX=  1.000000
 ScaDFX=  1.000000  1.000000  1.000000  1.000000 ScalE2=  1.000000  1.000000
 IRadAn=      5 IRanWt=     -1 IRanGd=            0 ICorTp=0 IEmpDi=  4
 NAtoms=   11 NActive=   11 NUniq=   11 SFac= 1.00D+00 NAtFMM=   60 NAOKFM=F Big=F
 Integral buffers will be    131072 words long.
 Raffenetti 1 integral format.
 Two-electron integral symmetry is turned off.
 Leave Link  301 at Sat May 24 03:08:20 2025, MaxMem=  3758096384 cpu:               0.0 elap:               0.0
 (Enter /apps/easybuild-2022/easybuild/software/Compiler/NVHPC/22.11-CUDA-11.7.0/Gaussian/g16c01-CUDA-11.7.0/g16/l302.exe)
 NPDir=0 NMtPBC=     1 NCelOv=     1 NCel=       1 NClECP=     1 NCelD=      1
         NCelK=      1 NCelE2=     1 NClLst=     1 CellRange=     0.0.
 One-electron integrals computed using PRISM.
 NBasis=    92 RedAO= T EigKep=  6.32D-03  NBF=    92
 NBsUse=    92 1.00D-06 EigRej= -1.00D+00 NBFU=    92
 Leave Link  302 at Sat May 24 03:08:20 2025, MaxMem=  3758096384 cpu:               0.2 elap:               0.1
 (Enter /apps/easybuild-2022/easybuild/software/Compiler/NVHPC/22.11-CUDA-11.7.0/Gaussian/g16c01-CUDA-11.7.0/g16/l303.exe)
 DipDrv:  MaxL=1.
 Leave Link  303 at Sat May 24 03:08:20 2025, MaxMem=  3758096384 cpu:               0.0 elap:               0.0
 (Enter /apps/easybuild-2022/easybuild/software/Compiler/NVHPC/22.11-CUDA-11.7.0/Gaussian/g16c01-CUDA-11.7.0/g16/l401.exe)
 Initial guess from the checkpoint file:  "1642764945472630600001_R_Addition_MultipleBond_1_3_4_IRC_F.chk"
 B after Tr=     0.000017   -0.000017   -0.000050
         Rot=    1.000000    0.000000    0.000001    0.000001 Ang=   0.00 deg.
 Guess basis will be translated and rotated to current coordinates.
 JPrj=2 DoOrth=T DoCkMO=T.
 Generating alternative initial guess.
 ExpMin= 1.61D-01 ExpMax= 7.00D+03 ExpMxC= 1.05D+03 IAcc=3 IRadAn=         5 AccDes= 0.00D+00
 Harris functional with IExCor=  205 and IRadAn=       5 diagonalized for initial guess.
 HarFok:  IExCor=  205 AccDes= 0.00D+00 IRadAn=         5 IDoV= 1 UseB2=F ITyADJ=14
 ICtDFT=  3500011 ScaDFX=  1.000000  1.000000  1.000000  1.000000
 FoFCou: FMM=F IPFlag=           0 FMFlag=      100000 FMFlg1=           0
         NFxFlg=           0 DoJE=T BraDBF=F KetDBF=T FulRan=T
         wScrn=  0.000000 ICntrl=       500 IOpCl=  0 I1Cent=   200000004 NGrid=           0
         NMat0=    1 NMatS0=      1 NMatT0=    0 NMatD0=    1 NMtDS0=    0 NMtDT0=    0
 Symmetry not used in FoFCou.
 Harris En= -760.755092379505    
 Leave Link  401 at Sat May 24 03:08:20 2025, MaxMem=  3758096384 cpu:               0.7 elap:               0.1
 (Enter /apps/easybuild-2022/easybuild/software/Compiler/NVHPC/22.11-CUDA-11.7.0/Gaussian/g16c01-CUDA-11.7.0/g16/l502.exe)
 Keep R1 ints in memory in canonical form, NReq=10818544.
 FoFCou: FMM=F IPFlag=           0 FMFlag=           0 FMFlg1=           0
         NFxFlg=           0 DoJE=F BraDBF=F KetDBF=F FulRan=T
         wScrn=  0.000000 ICntrl=       600 IOpCl=  0 I1Cent=           0 NGrid=           0
         NMat0=    1 NMatS0=   4278 NMatT0=    0 NMatD0=    1 NMtDS0=    0 NMtDT0=    0
 Symmetry not used in FoFCou.
 Two-electron integral symmetry not used.
 Closed shell SCF:
 Using DIIS extrapolation, IDIIS=  1040.
 NGot=  3758096384 LenX=  3748924719 LenY=  3748915814
 Requested convergence on RMS density matrix=1.00D-08 within  32 cycles.
 Requested convergence on MAX density matrix=1.00D-06.
 Requested convergence on             energy=1.00D-06.
 No special actions if energy rises.

 Cycle   1  Pass 1  IDiag  1:
 E= -760.540854893849    
 DIIS: error= 8.39D-04 at cycle   1 NSaved=   1.
 NSaved= 1 IEnMin= 1 EnMin= -760.540854893849     IErMin= 1 ErrMin= 8.39D-04
 ErrMax= 8.39D-04  0.00D+00 EMaxC= 1.00D-01 BMatC= 4.97D-05 BMatP= 4.97D-05
 IDIUse=3 WtCom= 9.92D-01 WtEn= 8.39D-03
 Coeff-Com:  0.100D+01
 Coeff-En:   0.100D+01
 Coeff:      0.100D+01
 Gap=     0.984 Goal=   None    Shift=    0.000
 RMSDP=1.98D-04 MaxDP=3.25D-03              OVMax= 6.84D-03

 Cycle   2  Pass 1  IDiag  1:
 E= -760.540993264082     Delta-E=       -0.000138370232 Rises=F Damp=F
 DIIS: error= 3.32D-04 at cycle   2 NSaved=   2.
 NSaved= 2 IEnMin= 2 EnMin= -760.540993264082     IErMin= 2 ErrMin= 3.32D-04
 ErrMax= 3.32D-04  0.00D+00 EMaxC= 1.00D-01 BMatC= 1.01D-05 BMatP= 4.97D-05
 IDIUse=3 WtCom= 9.97D-01 WtEn= 3.32D-03
 Coeff-Com: -0.254D+00 0.125D+01
 Coeff-En:   0.000D+00 0.100D+01
 Coeff:     -0.253D+00 0.125D+01
 Gap=     0.254 Goal=   None    Shift=    0.000
 RMSDP=1.04D-04 MaxDP=1.77D-03 DE=-1.38D-04 OVMax= 3.83D-03

 Cycle   3  Pass 1  IDiag  1:
 E= -760.541019249297     Delta-E=       -0.000025985215 Rises=F Damp=F
 DIIS: error= 2.37D-04 at cycle   3 NSaved=   3.
 NSaved= 3 IEnMin= 3 EnMin= -760.541019249297     IErMin= 3 ErrMin= 2.37D-04
 ErrMax= 2.37D-04  0.00D+00 EMaxC= 1.00D-01 BMatC= 3.41D-06 BMatP= 1.01D-05
 IDIUse=3 WtCom= 9.98D-01 WtEn= 2.37D-03
 Coeff-Com: -0.202D+00 0.518D+00 0.684D+00
 Coeff-En:   0.000D+00 0.000D+00 0.100D+01
 Coeff:     -0.201D+00 0.517D+00 0.685D+00
 Gap=     0.255 Goal=   None    Shift=    0.000
 RMSDP=4.76D-05 MaxDP=7.86D-04 DE=-2.60D-05 OVMax= 2.50D-03

 Cycle   4  Pass 1  IDiag  1:
 E= -760.541026045238     Delta-E=       -0.000006795941 Rises=F Damp=F
 DIIS: error= 7.84D-05 at cycle   4 NSaved=   4.
 NSaved= 4 IEnMin= 4 EnMin= -760.541026045238     IErMin= 4 ErrMin= 7.84D-05
 ErrMax= 7.84D-05  0.00D+00 EMaxC= 1.00D-01 BMatC= 4.59D-07 BMatP= 3.41D-06
 IDIUse=1 WtCom= 1.00D+00 WtEn= 0.00D+00
 Coeff-Com:  0.414D-01-0.215D+00 0.104D+00 0.107D+01
 Coeff:      0.414D-01-0.215D+00 0.104D+00 0.107D+01
 Gap=     0.255 Goal=   None    Shift=    0.000
 RMSDP=2.32D-05 MaxDP=4.08D-04 DE=-6.80D-06 OVMax= 8.97D-04

 Cycle   5  Pass 1  IDiag  1:
 E= -760.541027236140     Delta-E=       -0.000001190902 Rises=F Damp=F
 DIIS: error= 3.52D-05 at cycle   5 NSaved=   5.
 NSaved= 5 IEnMin= 5 EnMin= -760.541027236140     IErMin= 5 ErrMin= 3.52D-05
 ErrMax= 3.52D-05  0.00D+00 EMaxC= 1.00D-01 BMatC= 7.14D-08 BMatP= 4.59D-07
 IDIUse=1 WtCom= 1.00D+00 WtEn= 0.00D+00
 Coeff-Com:  0.346D-01-0.117D+00-0.948D-03 0.188D+00 0.895D+00
 Coeff:      0.346D-01-0.117D+00-0.948D-03 0.188D+00 0.895D+00
 Gap=     0.255 Goal=   None    Shift=    0.000
 RMSDP=8.00D-06 MaxDP=1.29D-04 DE=-1.19D-06 OVMax= 3.25D-04

 Cycle   6  Pass 1  IDiag  1:
 E= -760.541027422961     Delta-E=       -0.000000186821 Rises=F Damp=F
 DIIS: error= 1.88D-05 at cycle   6 NSaved=   6.
 NSaved= 6 IEnMin= 6 EnMin= -760.541027422961     IErMin= 6 ErrMin= 1.88D-05
 ErrMax= 1.88D-05  0.00D+00 EMaxC= 1.00D-01 BMatC= 2.18D-08 BMatP= 7.14D-08
 IDIUse=1 WtCom= 1.00D+00 WtEn= 0.00D+00
 Coeff-Com: -0.121D-01 0.661D-01 0.157D-01-0.386D+00-0.189D+00 0.150D+01
 Coeff:     -0.121D-01 0.661D-01 0.157D-01-0.386D+00-0.189D+00 0.150D+01
 Gap=     0.255 Goal=   None    Shift=    0.000
 RMSDP=7.21D-06 MaxDP=1.10D-04 DE=-1.87D-07 OVMax= 2.94D-04

 Cycle   7  Pass 1  IDiag  1:
 E= -760.541027510286     Delta-E=       -0.000000087325 Rises=F Damp=F
 DIIS: error= 5.09D-06 at cycle   7 NSaved=   7.
 NSaved= 7 IEnMin= 7 EnMin= -760.541027510286     IErMin= 7 ErrMin= 5.09D-06
 ErrMax= 5.09D-06  0.00D+00 EMaxC= 1.00D-01 BMatC= 2.99D-09 BMatP= 2.18D-08
 IDIUse=1 WtCom= 1.00D+00 WtEn= 0.00D+00
 Coeff-Com: -0.625D-02 0.220D-01 0.167D-01-0.743D-01-0.188D+00 0.169D+00
 Coeff-Com:  0.106D+01
 Coeff:     -0.625D-02 0.220D-01 0.167D-01-0.743D-01-0.188D+00 0.169D+00
 Coeff:      0.106D+01
 Gap=     0.255 Goal=   None    Shift=    0.000
 RMSDP=2.06D-06 MaxDP=3.09D-05 DE=-8.73D-08 OVMax= 7.97D-05

 Cycle   8  Pass 1  IDiag  1:
 E= -760.541027518293     Delta-E=       -0.000000008007 Rises=F Damp=F
 DIIS: error= 1.14D-06 at cycle   8 NSaved=   8.
 NSaved= 8 IEnMin= 8 EnMin= -760.541027518293     IErMin= 8 ErrMin= 1.14D-06
 ErrMax= 1.14D-06  0.00D+00 EMaxC= 1.00D-01 BMatC= 3.45D-10 BMatP= 2.99D-09
 IDIUse=1 WtCom= 1.00D+00 WtEn= 0.00D+00
 Coeff-Com: -0.694D-04-0.318D-02 0.585D-02 0.253D-01-0.355D-01-0.115D+00
 Coeff-Com:  0.211D+00 0.911D+00
 Coeff:     -0.694D-04-0.318D-02 0.585D-02 0.253D-01-0.355D-01-0.115D+00
 Coeff:      0.211D+00 0.911D+00
 Gap=     0.255 Goal=   None    Shift=    0.000
 RMSDP=4.97D-07 MaxDP=6.71D-06 DE=-8.01D-09 OVMax= 2.01D-05

 Cycle   9  Pass 1  IDiag  1:
 E= -760.541027518992     Delta-E=       -0.000000000699 Rises=F Damp=F
 DIIS: error= 7.15D-07 at cycle   9 NSaved=   9.
 NSaved= 9 IEnMin= 9 EnMin= -760.541027518992     IErMin= 9 ErrMin= 7.15D-07
 ErrMax= 7.15D-07  0.00D+00 EMaxC= 1.00D-01 BMatC= 6.38D-11 BMatP= 3.45D-10
 IDIUse=1 WtCom= 1.00D+00 WtEn= 0.00D+00
 Coeff-Com:  0.108D-02-0.493D-02 0.318D-04 0.191D-01 0.145D-01-0.497D-01
 Coeff-Com: -0.131D+00 0.260D+00 0.891D+00
 Coeff:      0.108D-02-0.493D-02 0.318D-04 0.191D-01 0.145D-01-0.497D-01
 Coeff:     -0.131D+00 0.260D+00 0.891D+00
 Gap=     0.255 Goal=   None    Shift=    0.000
 RMSDP=1.89D-07 MaxDP=2.25D-06 DE=-6.99D-10 OVMax= 6.70D-06

 Cycle  10  Pass 1  IDiag  1:
 E= -760.541027519121     Delta-E=       -0.000000000129 Rises=F Damp=F
 DIIS: error= 2.90D-07 at cycle  10 NSaved=  10.
 NSaved=10 IEnMin=10 EnMin= -760.541027519121     IErMin=10 ErrMin= 2.90D-07
 ErrMax= 2.90D-07  0.00D+00 EMaxC= 1.00D-01 BMatC= 6.41D-12 BMatP= 6.38D-11
 IDIUse=1 WtCom= 1.00D+00 WtEn= 0.00D+00
 Coeff-Com: -0.115D-03 0.955D-03-0.118D-03-0.620D-02 0.840D-03 0.281D-01
 Coeff-Com: -0.277D-01-0.120D+00-0.621D-01 0.119D+01
 Coeff:     -0.115D-03 0.955D-03-0.118D-03-0.620D-02 0.840D-03 0.281D-01
 Coeff:     -0.277D-01-0.120D+00-0.621D-01 0.119D+01
 Gap=     0.255 Goal=   None    Shift=    0.000
 RMSDP=7.63D-08 MaxDP=8.05D-07 DE=-1.29D-10 OVMax= 2.97D-06

 Cycle  11  Pass 1  IDiag  1:
 E= -760.541027519148     Delta-E=       -0.000000000027 Rises=F Damp=F
 DIIS: error= 1.38D-07 at cycle  11 NSaved=  11.
 NSaved=11 IEnMin=11 EnMin= -760.541027519148     IErMin=11 ErrMin= 1.38D-07
 ErrMax= 1.38D-07  0.00D+00 EMaxC= 1.00D-01 BMatC= 1.86D-12 BMatP= 6.41D-12
 IDIUse=1 WtCom= 1.00D+00 WtEn= 0.00D+00
 Coeff-Com: -0.262D-03 0.123D-02 0.285D-04-0.548D-02-0.361D-02 0.162D-01
 Coeff-Com:  0.216D-01-0.776D-01-0.240D+00 0.264D+00 0.102D+01
 Coeff:     -0.262D-03 0.123D-02 0.285D-04-0.548D-02-0.361D-02 0.162D-01
 Coeff:      0.216D-01-0.776D-01-0.240D+00 0.264D+00 0.102D+01
 Gap=     0.255 Goal=   None    Shift=    0.000
 RMSDP=4.66D-08 MaxDP=5.34D-07 DE=-2.68D-11 OVMax= 1.58D-06

 Cycle  12  Pass 1  IDiag  1:
 E= -760.541027519156     Delta-E=       -0.000000000008 Rises=F Damp=F
 DIIS: error= 4.96D-08 at cycle  12 NSaved=  12.
 NSaved=12 IEnMin=12 EnMin= -760.541027519156     IErMin=12 ErrMin= 4.96D-08
 ErrMax= 4.96D-08  0.00D+00 EMaxC= 1.00D-01 BMatC= 1.78D-13 BMatP= 1.86D-12
 IDIUse=1 WtCom= 1.00D+00 WtEn= 0.00D+00
 Coeff-Com:  0.282D-04-0.192D-03 0.311D-04 0.120D-02-0.123D-05-0.465D-02
 Coeff-Com:  0.266D-02 0.294D-01 0.233D-01-0.195D+00-0.926D-01 0.124D+01
 Coeff:      0.282D-04-0.192D-03 0.311D-04 0.120D-02-0.123D-05-0.465D-02
 Coeff:      0.266D-02 0.294D-01 0.233D-01-0.195D+00-0.926D-01 0.124D+01
 Gap=     0.255 Goal=   None    Shift=    0.000
 RMSDP=1.67D-08 MaxDP=2.12D-07 DE=-8.19D-12 OVMax= 7.01D-07

 Cycle  13  Pass 1  IDiag  1:
 E= -760.541027519155     Delta-E=        0.000000000000 Rises=F Damp=F
 DIIS: error= 2.37D-08 at cycle  13 NSaved=  13.
 NSaved=13 IEnMin=12 EnMin= -760.541027519156     IErMin=13 ErrMin= 2.37D-08
 ErrMax= 2.37D-08  0.00D+00 EMaxC= 1.00D-01 BMatC= 3.10D-14 BMatP= 1.78D-13
 IDIUse=1 WtCom= 1.00D+00 WtEn= 0.00D+00
 Coeff-Com:  0.377D-04-0.179D-03-0.215D-04 0.789D-03 0.647D-03-0.243D-02
 Coeff-Com: -0.350D-02 0.112D-01 0.319D-01-0.346D-01-0.157D+00-0.694D-01
 Coeff-Com:  0.122D+01
 Coeff:      0.377D-04-0.179D-03-0.215D-04 0.789D-03 0.647D-03-0.243D-02
 Coeff:     -0.350D-02 0.112D-01 0.319D-01-0.346D-01-0.157D+00-0.694D-01
 Coeff:      0.122D+01
 Gap=     0.255 Goal=   None    Shift=    0.000
 RMSDP=7.34D-09 MaxDP=1.10D-07 DE= 4.55D-13 OVMax= 3.77D-07

 SCF Done:  E(RHF) =  -760.541027519     A.U. after   13 cycles
            NFock= 13  Conv=0.73D-08     -V/T= 2.0016
 KE= 7.593611374536D+02 PE=-2.997044114573D+03 EE= 8.828727865868D+02
 Leave Link  502 at Sat May 24 03:08:20 2025, MaxMem=  3758096384 cpu:               0.8 elap:               0.2
 (Enter /apps/easybuild-2022/easybuild/software/Compiler/NVHPC/22.11-CUDA-11.7.0/Gaussian/g16c01-CUDA-11.7.0/g16/l508.exe)
 QCSCF skips out because SCF is already converged.
 Leave Link  508 at Sat May 24 03:08:20 2025, MaxMem=  3758096384 cpu:               0.0 elap:               0.0
 (Enter /apps/easybuild-2022/easybuild/software/Compiler/NVHPC/22.11-CUDA-11.7.0/Gaussian/g16c01-CUDA-11.7.0/g16/l801.exe)
 ExpMin= 1.61D-01 ExpMax= 7.00D+03 ExpMxC= 1.05D+03 IAcc=3 IRadAn=         5 AccDes= 0.00D+00
 HarFok:  IExCor=  205 AccDes= 0.00D+00 IRadAn=         5 IDoV=-2 UseB2=F ITyADJ=14
 ICtDFT= 12500011 ScaDFX=  1.000000  1.000000  1.000000  1.000000
 Largest valence mixing into a core orbital is  1.28D-04
 Largest core mixing into a valence orbital is  6.94D-05
 Range of M.O.s used for correlation:    11    92
 NBasis=    92 NAE=    40 NBE=    40 NFC=    10 NFV=     0
 NROrb=     82 NOA=    30 NOB=    30 NVA=    52 NVB=    52
 Leave Link  801 at Sat May 24 03:08:20 2025, MaxMem=  3758096384 cpu:               0.2 elap:               0.0
 (Enter /apps/easybuild-2022/easybuild/software/Compiler/NVHPC/22.11-CUDA-11.7.0/Gaussian/g16c01-CUDA-11.7.0/g16/l906.exe)
 Frozen-core derivative calculation, NFC=  10 NFV=   0.
 FulOut=F Deriv=T AODrv=T NAtomX=    11
   MMem=        1209  MDisk=          30 MDiskD=          30
  W3Min=      338560 MinDsk=      464230 NBas6D=          92
 NBas2D=        4398    NTT=        4278    LW2=     2000000
    MDV=  3757980907 MDiskM=      425269 NBas2p=        4217
 Fully direct method using O(ONN) memory.
 IMap=   1   2   3   4   5   6   7   8   9  10  11  12  13  14  15  16  17  18  19  20
 IMap=  21  22  23  24  25  26  27  28  29  30  31  32  33  34  35  36  37  38  39  40
 JobTyp=1 Pass  1:  I=  11 to  40 NPSUse=  8 ParTrn=T ParDer=T DoDerP=T.
 Spin components of T(2) and E(2):
     alpha-alpha T2 =       0.5102182957D-01 E2=     -0.1596362456D+00
     alpha-beta  T2 =       0.3368460944D+00 E2=     -0.8903314673D+00
     beta-beta   T2 =       0.5102182957D-01 E2=     -0.1596362456D+00
 The integrals were generated   1 times.
 ANorm=    0.1199537308D+01
 E2 =    -0.1209603958D+01 EUMP2 =    -0.76175063147760D+03
 Leave Link  906 at Sat May 24 03:08:21 2025, MaxMem=  3758096384 cpu:               8.9 elap:               1.2
 (Enter /apps/easybuild-2022/easybuild/software/Compiler/NVHPC/22.11-CUDA-11.7.0/Gaussian/g16c01-CUDA-11.7.0/g16/l1101.exe)
 Leave Link 1101 at Sat May 24 03:08:21 2025, MaxMem=  3758096384 cpu:               0.0 elap:               0.0
 (Enter /apps/easybuild-2022/easybuild/software/Compiler/NVHPC/22.11-CUDA-11.7.0/Gaussian/g16c01-CUDA-11.7.0/g16/l1102.exe)
 Leave Link 1102 at Sat May 24 03:08:21 2025, MaxMem=  3758096384 cpu:               0.0 elap:               0.0
 (Enter /apps/easybuild-2022/easybuild/software/Compiler/NVHPC/22.11-CUDA-11.7.0/Gaussian/g16c01-CUDA-11.7.0/g16/l1110.exe)
 Leave Link 1110 at Sat May 24 03:08:21 2025, MaxMem=  3758096384 cpu:               0.0 elap:               0.0
 (Enter /apps/easybuild-2022/easybuild/software/Compiler/NVHPC/22.11-CUDA-11.7.0/Gaussian/g16c01-CUDA-11.7.0/g16/l1002.exe)
 Minotr:  Closed shell wavefunction.
 Leave Link 1002 at Sat May 24 03:08:21 2025, MaxMem=  3758096384 cpu:               0.0 elap:               0.0
 (Enter /apps/easybuild-2022/easybuild/software/Compiler/NVHPC/22.11-CUDA-11.7.0/Gaussian/g16c01-CUDA-11.7.0/g16/l811.exe)
 Leave Link  811 at Sat May 24 03:08:21 2025, MaxMem=  3758096384 cpu:               0.0 elap:               0.0
 (Enter /apps/easybuild-2022/easybuild/software/Compiler/NVHPC/22.11-CUDA-11.7.0/Gaussian/g16c01-CUDA-11.7.0/g16/l804.exe)
 Leave Link  804 at Sat May 24 03:08:22 2025, MaxMem=  3758096384 cpu:               0.0 elap:               0.0
 (Enter /apps/easybuild-2022/easybuild/software/Compiler/NVHPC/22.11-CUDA-11.7.0/Gaussian/g16c01-CUDA-11.7.0/g16/l1002.exe)
 Minotr:  Closed shell wavefunction.
          Computing MP2/KS-MP2 derivatives.
          Using Z-Vector for PSCF gradient.
          Skipping F1 and S1 gradient terms here.
          IDoAtm=11111111111
          Frozen-core window.
          Direct CPHF calculation.
          Differentiating once with respect to electric field.
                with respect to dipole field.
          Differentiating once with respect to nuclear coordinates.
          Requested convergence is 1.0D-10 RMS, and 1.0D-09 maximum.
          NewPWx=F KeepS1=T KeepF1=T KeepIn=T MapXYZ=F SortEE=F KeepMc=T.
 Keep R1 ints in memory in canonical form, NReq=10821831.
 FoFCou: FMM=F IPFlag=           0 FMFlag=           0 FMFlg1=           0
         NFxFlg=           0 DoJE=F BraDBF=F KetDBF=F FulRan=T
         wScrn=  0.000000 ICntrl=       600 IOpCl=  0 I1Cent=           0 NGrid=           0
         NMat0=    1 NMatS0=   4278 NMatT0=    0 NMatD0=    1 NMtDS0=    0 NMtDT0=    0
 Symmetry not used in FoFCou.
 Two-electron integral symmetry not used.
          MDV=    3758096384 using IRadAn=       5.
          Solving linear equations separately, MaxMat=       0.
          There are     1 degrees of freedom in the 1st order CPHF.  IDoFFX=0 NUNeed=     1.
 LinEq1:  Iter=  0 NonCon=     1 RMS=1.18D-02 Max=3.26D-01 NDo=     1
 AX will form     1 AO Fock derivatives at one time.
 LinEq1:  Iter=  1 NonCon=     1 RMS=4.79D-03 Max=6.44D-02 NDo=     1
 LinEq1:  Iter=  2 NonCon=     1 RMS=2.35D-03 Max=6.86D-02 NDo=     1
 LinEq1:  Iter=  3 NonCon=     1 RMS=8.74D-04 Max=1.02D-02 NDo=     1
 LinEq1:  Iter=  4 NonCon=     1 RMS=4.20D-04 Max=6.35D-03 NDo=     1
 LinEq1:  Iter=  5 NonCon=     1 RMS=1.64D-04 Max=2.36D-03 NDo=     1
 LinEq1:  Iter=  6 NonCon=     1 RMS=6.60D-05 Max=6.64D-04 NDo=     1
 LinEq1:  Iter=  7 NonCon=     1 RMS=2.44D-05 Max=2.92D-04 NDo=     1
 LinEq1:  Iter=  8 NonCon=     1 RMS=5.26D-06 Max=7.16D-05 NDo=     1
 LinEq1:  Iter=  9 NonCon=     1 RMS=2.12D-06 Max=2.49D-05 NDo=     1
 LinEq1:  Iter= 10 NonCon=     1 RMS=7.72D-07 Max=1.01D-05 NDo=     1
 LinEq1:  Iter= 11 NonCon=     1 RMS=2.87D-07 Max=4.63D-06 NDo=     1
 LinEq1:  Iter= 12 NonCon=     1 RMS=9.11D-08 Max=1.37D-06 NDo=     1
 LinEq1:  Iter= 13 NonCon=     1 RMS=2.09D-08 Max=1.55D-07 NDo=     1
 LinEq1:  Iter= 14 NonCon=     1 RMS=9.85D-09 Max=7.97D-08 NDo=     1
 LinEq1:  Iter= 15 NonCon=     1 RMS=2.01D-09 Max=2.05D-08 NDo=     1
 LinEq1:  Iter= 16 NonCon=     1 RMS=5.05D-10 Max=3.71D-09 NDo=     1
 LinEq1:  Iter= 17 NonCon=     1 RMS=2.32D-10 Max=1.91D-09 NDo=     1
 LinEq1:  Iter= 18 NonCon=     0 RMS=5.43D-11 Max=7.90D-10 NDo=     1
 Linear equations converged to 1.000D-10 1.000D-09 after    18 iterations.
 End of Minotr F.D. properties file   721 does not exist.
 End of Minotr F.D. properties file   722 does not exist.
 End of Minotr F.D. properties file   788 does not exist.
 Leave Link 1002 at Sat May 24 03:08:22 2025, MaxMem=  3758096384 cpu:               1.1 elap:               0.3
 (Enter /apps/easybuild-2022/easybuild/software/Compiler/NVHPC/22.11-CUDA-11.7.0/Gaussian/g16c01-CUDA-11.7.0/g16/l1102.exe)
 Use density number 2.
 Symmetrizing basis deriv contribution to polar:
 IMax=3 JMax=2 DiffMx= 0.00D+00
 Leave Link 1102 at Sat May 24 03:08:22 2025, MaxMem=  3758096384 cpu:               0.0 elap:               0.0
 (Enter /apps/easybuild-2022/easybuild/software/Compiler/NVHPC/22.11-CUDA-11.7.0/Gaussian/g16c01-CUDA-11.7.0/g16/l1110.exe)
 Leave Link 1110 at Sat May 24 03:08:22 2025, MaxMem=  3758096384 cpu:               0.0 elap:               0.0
 (Enter /apps/easybuild-2022/easybuild/software/Compiler/NVHPC/22.11-CUDA-11.7.0/Gaussian/g16c01-CUDA-11.7.0/g16/l1112.exe)
 Leave Link 1112 at Sat May 24 03:08:22 2025, MaxMem=  3758096384 cpu:               0.0 elap:               0.0
 (Enter /apps/easybuild-2022/easybuild/software/Compiler/NVHPC/22.11-CUDA-11.7.0/Gaussian/g16c01-CUDA-11.7.0/g16/l701.exe)
 ... and contract with generalized density number  2.
 Compute integral first derivatives.
 Leave Link  701 at Sat May 24 03:08:22 2025, MaxMem=  3758096384 cpu:               0.2 elap:               0.1
 (Enter /apps/easybuild-2022/easybuild/software/Compiler/NVHPC/22.11-CUDA-11.7.0/Gaussian/g16c01-CUDA-11.7.0/g16/l702.exe)
 L702 exits ... SP integral derivatives will be done elsewhere.
 Leave Link  702 at Sat May 24 03:08:22 2025, MaxMem=  3758096384 cpu:               0.0 elap:               0.0
 (Enter /apps/easybuild-2022/easybuild/software/Compiler/NVHPC/22.11-CUDA-11.7.0/Gaussian/g16c01-CUDA-11.7.0/g16/l703.exe)
 Integral derivatives from FoFJK, PRISM(SPDF).
 Compute integral first derivatives, UseDBF=F ICtDFT=           0.
 Calling FoFJK, ICntrl=  10002127 FMM=F ISym2X=0 I1Cent= 0 IOpClX= 0 NMat=1 NMatS=1 NMatT=0.
 FoFJK:  IHMeth= 1 ICntrl=10002127 DoSepK=F KAlg= 0 I1Cent=           0 FoldK=F
 IRaf=         0 NMat=       1 IRICut=       1 DoRegI=T DoRafI=F ISym2E= 0 IDoP0=0 IntGTp=1.
 FoFCou: FMM=F IPFlag=           0 FMFlag=      100000 FMFlg1=         800
         NFxFlg=           0 DoJE=F BraDBF=F KetDBF=F FulRan=T
         wScrn=  0.000000 ICntrl=  10002127 IOpCl=  0 I1Cent=           0 NGrid=           0
         NMat0=    1 NMatS0=      1 NMatT0=    0 NMatD0=    1 NMtDS0=    0 NMtDT0=    0
 Symmetry not used in FoFCou.
 Leave Link  703 at Sat May 24 03:08:22 2025, MaxMem=  3758096384 cpu:               0.6 elap:               0.1
 (Enter /apps/easybuild-2022/easybuild/software/Compiler/NVHPC/22.11-CUDA-11.7.0/Gaussian/g16c01-CUDA-11.7.0/g16/l716.exe)
 Dipole        = 5.18153848D-01 5.74306782D-01-2.33091612D-01
 Polarizability= 0.00000000D+00 0.00000000D+00 0.00000000D+00
                 0.00000000D+00 0.00000000D+00 0.00000000D+00
 -------------------------------------------------------------------
 Center     Atomic                   Forces (Hartrees/Bohr)
 Number     Number              X              Y              Z
 -------------------------------------------------------------------
      1        6          -0.000485446   -0.000583442   -0.000483981
      2        8           0.000207270    0.000259021   -0.000032308
      3        6          -0.001330239    0.002294255    0.007499739
      4        6           0.007011051   -0.006736139   -0.023952656
      5        9          -0.002286708    0.002290907    0.005980975
      6        9          -0.002030036    0.001046742    0.006360414
      7        9          -0.001348421    0.001881632    0.006352774
      8        9          -0.000151086    0.000272498   -0.001024780
      9        9           0.000128487   -0.000865568   -0.000638121
     10        8           0.000257162    0.000210033   -0.000011043
     11        1           0.000027966   -0.000069939   -0.000051015
 -------------------------------------------------------------------
 Cartesian Forces:  Max     0.023952656 RMS     0.005142034
 Leave Link  716 at Sat May 24 03:08:22 2025, MaxMem=  3758096384 cpu:               0.1 elap:               0.0
 (Enter /apps/easybuild-2022/easybuild/software/Compiler/NVHPC/22.11-CUDA-11.7.0/Gaussian/g16c01-CUDA-11.7.0/g16/l123.exe)
 IRC-IRC-IRC-IRC-IRC-IRC-IRC-IRC-IRC-IRC-IRC-IRC-IRC-IRC-IRC-IRC-IRC-IRC
 Pt  2 Step number   1 out of a maximum of  20
 Using modified Bulirsch-Stoer corrector integration.
   Using distance weighted interpolants to fit PES.
 PreDWI: IReCr0= 2 IReCr1= 1 IReCr2= 1 IReCr3= 1
 Modified Bulirsch-Stoer Extrapolation Cycles:
    EPS =    0.000010000000000
    Cycle     1 NS=    48
      PEZero:  N= 2 I= 1 D=  3.68D-04 Err=  2.24D-06
    Cycle     2 NS=    64 Truncation Error =  0.000002242
 BS completed in    2 cycles and     112 integration steps.
 Maximum DWI energy   std dev =  0.000000760 at pt    46
 Maximum DWI gradient std dev =  0.004160571 at pt    36
 SUMMARY OF CORRECTOR INTEGRATION:
   Predictor End Point Energy =  -761.750631
   Old End Point Energy       =  -761.750631
   Corrected End Point Energy =  -761.750631
   Predictor End-Start Dist.  =     0.070617
   Old End-Start Dist.        =     0.070617
   New End-Start Dist.        =     0.070617
   New End-Old End Dist.      =     0.000310
 CORRECTOR INTEGRATION CONVERGENCE:
   Recorrection delta-x convergence threshold:    0.010000
   Delta-x Convergence Met
 Point Number:   2          Path Number:   1
                    CURRENT STRUCTURE
                Cartesian Coordinates (Ang):                
 ---------------------------------------------------------------------
 Center     Atomic                     Coordinates (Angstroms)
 Number     Number                        X           Y           Z
 ---------------------------------------------------------------------
      1          6                    1.303646   -0.031688   -0.929082
      2          8                    2.212987   -0.824445   -0.609766
      3          6                   -0.136118   -0.369786   -0.871640
      4          6                   -0.710500    0.332732    1.535800
      5          9                   -1.527107    1.239430    0.870547
      6          9                   -1.106399   -0.996704    1.623093
      7          9                    0.645987    0.632823    1.681408
      8          9                   -1.055240    0.379523   -1.559157
      9          9                   -0.474911   -1.696918   -0.811085
     10          8                    1.469873    1.302726   -1.259588
     11          1                    2.419820    1.557011   -1.199840
 ---------------------------------------------------------------------
   CHANGE IN THE REACTION COORDINATE =    0.07062
   NET REACTION COORDINATE UP TO THIS POINT =    0.14126
  # OF POINTS ALONG THE PATH =   2
  # OF STEPS =   1

 Calculating another point on the path.
 Point Number  3 in FORWARD path direction.
 Using LQA Reaction Path Following.
   LQA: T_Est iteration completed in    3 iterations.
 IRC-IRC-IRC-IRC-IRC-IRC-IRC-IRC-IRC-IRC-IRC-IRC-IRC-IRC-IRC-IRC-IRC-IRC
 Leave Link  123 at Sat May 24 03:08:22 2025, MaxMem=  3758096384 cpu:               0.1 elap:               0.0
 (Enter /apps/easybuild-2022/easybuild/software/Compiler/NVHPC/22.11-CUDA-11.7.0/Gaussian/g16c01-CUDA-11.7.0/g16/l202.exe)
                          Input orientation:                          
 ---------------------------------------------------------------------
 Center     Atomic      Atomic             Coordinates (Angstroms)
 Number     Number       Type             X           Y           Z
 ---------------------------------------------------------------------
      1          6           0        1.303475   -0.031908   -0.929264
      2          8           0        2.213042   -0.824369   -0.609776
      3          6           0       -0.136629   -0.368927   -0.868821
      4          6           0       -0.707859    0.330197    1.526782
      5          9           0       -1.527651    1.239974    0.871972
      6          9           0       -1.106881   -0.996454    1.624606
      7          9           0        0.645664    0.633270    1.682920
      8          9           0       -1.055274    0.379587   -1.559400
      9          9           0       -0.474879   -1.697122   -0.811237
     10          8           0        1.469944    1.302784   -1.259591
     11          1           0        2.419960    1.556694   -1.200067
 ---------------------------------------------------------------------
                    Distance matrix (angstroms):
                    1          2          3          4          5
     1  C    0.000000
     2  O    1.247950   0.000000
     3  C    1.480249   2.407382   0.000000
     4  C    3.195113   3.798627   2.560076   0.000000
     5  F    3.588511   4.522154   2.748429   1.388715   0.000000
[...]
     alpha-beta  T2 =       0.2541151541D+00 E2=     -0.8379547132D+00
     beta-beta   T2 =       0.4641370459D-01 E2=     -0.1538272420D+00
 The integrals were generated   1 times.
 ANorm=    0.1160578547D+01
 E2 =    -0.1145609197D+01 EUMP2 =    -0.76194543284410D+03
 Leave Link  906 at Sat May 24 03:12:28 2025, MaxMem=  3758096384 cpu:               8.0 elap:               1.1
 (Enter /apps/easybuild-2022/easybuild/software/Compiler/NVHPC/22.11-CUDA-11.7.0/Gaussian/g16c01-CUDA-11.7.0/g16/l1101.exe)
 Leave Link 1101 at Sat May 24 03:12:28 2025, MaxMem=  3758096384 cpu:               0.0 elap:               0.1
 (Enter /apps/easybuild-2022/easybuild/software/Compiler/NVHPC/22.11-CUDA-11.7.0/Gaussian/g16c01-CUDA-11.7.0/g16/l1102.exe)
 Leave Link 1102 at Sat May 24 03:12:28 2025, MaxMem=  3758096384 cpu:               0.0 elap:               0.0
 (Enter /apps/easybuild-2022/easybuild/software/Compiler/NVHPC/22.11-CUDA-11.7.0/Gaussian/g16c01-CUDA-11.7.0/g16/l1110.exe)
 Leave Link 1110 at Sat May 24 03:12:28 2025, MaxMem=  3758096384 cpu:               0.0 elap:               0.0
 (Enter /apps/easybuild-2022/easybuild/software/Compiler/NVHPC/22.11-CUDA-11.7.0/Gaussian/g16c01-CUDA-11.7.0/g16/l1002.exe)
 Minotr:  Closed shell wavefunction.
 Leave Link 1002 at Sat May 24 03:12:28 2025, MaxMem=  3758096384 cpu:               0.0 elap:               0.0
 (Enter /apps/easybuild-2022/easybuild/software/Compiler/NVHPC/22.11-CUDA-11.7.0/Gaussian/g16c01-CUDA-11.7.0/g16/l811.exe)
 Leave Link  811 at Sat May 24 03:12:28 2025, MaxMem=  3758096384 cpu:               0.0 elap:               0.0
 (Enter /apps/easybuild-2022/easybuild/software/Compiler/NVHPC/22.11-CUDA-11.7.0/Gaussian/g16c01-CUDA-11.7.0/g16/l804.exe)
 Leave Link  804 at Sat May 24 03:12:28 2025, MaxMem=  3758096384 cpu:               0.0 elap:               0.0
 (Enter /apps/easybuild-2022/easybuild/software/Compiler/NVHPC/22.11-CUDA-11.7.0/Gaussian/g16c01-CUDA-11.7.0/g16/l1002.exe)
 Minotr:  Closed shell wavefunction.
          Computing MP2/KS-MP2 derivatives.
          Using Z-Vector for PSCF gradient.
          Skipping F1 and S1 gradient terms here.
          IDoAtm=11111111111
          Frozen-core window.
          Direct CPHF calculation.
          Differentiating once with respect to electric field.
                with respect to dipole field.
          Differentiating once with respect to nuclear coordinates.
          Requested convergence is 1.0D-10 RMS, and 1.0D-09 maximum.
          NewPWx=F KeepS1=T KeepF1=T KeepIn=T MapXYZ=F SortEE=F KeepMc=T.
 Keep R1 ints in memory in canonical form, NReq=10824073.
 FoFCou: FMM=F IPFlag=           0 FMFlag=           0 FMFlg1=           0
         NFxFlg=           0 DoJE=F BraDBF=F KetDBF=F FulRan=T
         wScrn=  0.000000 ICntrl=       600 IOpCl=  0 I1Cent=           0 NGrid=           0
         NMat0=    1 NMatS0=   4278 NMatT0=    0 NMatD0=    1 NMtDS0=    0 NMtDT0=    0
 Symmetry not used in FoFCou.
 Two-electron integral symmetry not used.
          MDV=    3758096384 using IRadAn=       5.
          Solving linear equations separately, MaxMat=       0.
          There are     1 degrees of freedom in the 1st order CPHF.  IDoFFX=0 NUNeed=     1.
 LinEq1:  Iter=  0 NonCon=     1 RMS=8.35D-03 Max=1.14D-01 NDo=     1
 AX will form     1 AO Fock derivatives at one time.
 LinEq1:  Iter=  1 NonCon=     1 RMS=3.62D-03 Max=4.71D-02 NDo=     1
 LinEq1:  Iter=  2 NonCon=     1 RMS=1.06D-03 Max=1.12D-02 NDo=     1
 LinEq1:  Iter=  3 NonCon=     1 RMS=4.89D-04 Max=1.26D-02 NDo=     1
 LinEq1:  Iter=  4 NonCon=     1 RMS=1.75D-04 Max=1.85D-03 NDo=     1
 LinEq1:  Iter=  5 NonCon=     1 RMS=4.92D-05 Max=7.13D-04 NDo=     1
 LinEq1:  Iter=  6 NonCon=     1 RMS=9.44D-06 Max=9.91D-05 NDo=     1
 LinEq1:  Iter=  7 NonCon=     1 RMS=4.23D-06 Max=4.52D-05 NDo=     1
 LinEq1:  Iter=  8 NonCon=     1 RMS=1.39D-06 Max=2.34D-05 NDo=     1
 LinEq1:  Iter=  9 NonCon=     1 RMS=4.73D-07 Max=6.20D-06 NDo=     1
 LinEq1:  Iter= 10 NonCon=     1 RMS=1.10D-07 Max=1.37D-06 NDo=     1
 LinEq1:  Iter= 11 NonCon=     1 RMS=3.96D-08 Max=6.27D-07 NDo=     1
 LinEq1:  Iter= 12 NonCon=     1 RMS=1.66D-08 Max=3.58D-07 NDo=     1
 LinEq1:  Iter= 13 NonCon=     1 RMS=3.75D-09 Max=6.10D-08 NDo=     1
 LinEq1:  Iter= 14 NonCon=     1 RMS=9.92D-10 Max=7.27D-09 NDo=     1
 LinEq1:  Iter= 15 NonCon=     1 RMS=2.71D-10 Max=1.92D-09 NDo=     1
 LinEq1:  Iter= 16 NonCon=     0 RMS=9.31D-11 Max=7.71D-10 NDo=     1
 Linear equations converged to 1.000D-10 1.000D-09 after    16 iterations.
 End of Minotr F.D. properties file   721 does not exist.
 End of Minotr F.D. properties file   722 does not exist.
 End of Minotr F.D. properties file   788 does not exist.
 Leave Link 1002 at Sat May 24 03:12:28 2025, MaxMem=  3758096384 cpu:               1.0 elap:               0.3
 (Enter /apps/easybuild-2022/easybuild/software/Compiler/NVHPC/22.11-CUDA-11.7.0/Gaussian/g16c01-CUDA-11.7.0/g16/l1102.exe)
 Use density number 2.
 Symmetrizing basis deriv contribution to polar:
 IMax=3 JMax=2 DiffMx= 0.00D+00
 Leave Link 1102 at Sat May 24 03:12:28 2025, MaxMem=  3758096384 cpu:               0.1 elap:               0.0
 (Enter /apps/easybuild-2022/easybuild/software/Compiler/NVHPC/22.11-CUDA-11.7.0/Gaussian/g16c01-CUDA-11.7.0/g16/l1110.exe)
 Leave Link 1110 at Sat May 24 03:12:28 2025, MaxMem=  3758096384 cpu:               0.0 elap:               0.0
 (Enter /apps/easybuild-2022/easybuild/software/Compiler/NVHPC/22.11-CUDA-11.7.0/Gaussian/g16c01-CUDA-11.7.0/g16/l1112.exe)
 Leave Link 1112 at Sat May 24 03:12:28 2025, MaxMem=  3758096384 cpu:               0.0 elap:               0.0
 (Enter /apps/easybuild-2022/easybuild/software/Compiler/NVHPC/22.11-CUDA-11.7.0/Gaussian/g16c01-CUDA-11.7.0/g16/l701.exe)
 ... and contract with generalized density number  2.
 Compute integral first derivatives.
 Leave Link  701 at Sat May 24 03:12:28 2025, MaxMem=  3758096384 cpu:               0.2 elap:               0.0
 (Enter /apps/easybuild-2022/easybuild/software/Compiler/NVHPC/22.11-CUDA-11.7.0/Gaussian/g16c01-CUDA-11.7.0/g16/l702.exe)
 L702 exits ... SP integral derivatives will be done elsewhere.
 Leave Link  702 at Sat May 24 03:12:28 2025, MaxMem=  3758096384 cpu:               0.0 elap:               0.0
 (Enter /apps/easybuild-2022/easybuild/software/Compiler/NVHPC/22.11-CUDA-11.7.0/Gaussian/g16c01-CUDA-11.7.0/g16/l703.exe)
 Integral derivatives from FoFJK, PRISM(SPDF).
 Compute integral first derivatives, UseDBF=F ICtDFT=           0.
 Calling FoFJK, ICntrl=  10002127 FMM=F ISym2X=0 I1Cent= 0 IOpClX= 0 NMat=1 NMatS=1 NMatT=0.
 FoFJK:  IHMeth= 1 ICntrl=10002127 DoSepK=F KAlg= 0 I1Cent=           0 FoldK=F
 IRaf=         0 NMat=       1 IRICut=       1 DoRegI=T DoRafI=F ISym2E= 0 IDoP0=0 IntGTp=1.
 FoFCou: FMM=F IPFlag=           0 FMFlag=      100000 FMFlg1=         800
         NFxFlg=           0 DoJE=F BraDBF=F KetDBF=F FulRan=T
         wScrn=  0.000000 ICntrl=  10002127 IOpCl=  0 I1Cent=           0 NGrid=           0
         NMat0=    1 NMatS0=      1 NMatT0=    0 NMatD0=    1 NMtDS0=    0 NMtDT0=    0
 Symmetry not used in FoFCou.
 Leave Link  703 at Sat May 24 03:12:28 2025, MaxMem=  3758096384 cpu:               0.6 elap:               0.1
 (Enter /apps/easybuild-2022/easybuild/software/Compiler/NVHPC/22.11-CUDA-11.7.0/Gaussian/g16c01-CUDA-11.7.0/g16/l716.exe)
 Dipole        = 7.21201249D-01 6.41255995D-01-3.40570785D-01
 Polarizability= 0.00000000D+00 0.00000000D+00 0.00000000D+00
                 0.00000000D+00 0.00000000D+00 0.00000000D+00
 -------------------------------------------------------------------
 Center     Atomic                   Forces (Hartrees/Bohr)
 Number     Number              X              Y              Z
 -------------------------------------------------------------------
      1        6           0.000169148   -0.000138780   -0.000042463
      2        8          -0.000111718    0.000002143   -0.001126298
      3        6           0.000137245   -0.000020329    0.000092486
      4        6           0.000110210   -0.000074653   -0.000019626
      5        9          -0.000012393    0.000347426   -0.000193284
      6        9          -0.000566610    0.000212130   -0.000090258
      7        9          -0.000211427   -0.000175166    0.000275854
      8        9           0.000040820   -0.000348904    0.000079455
      9        9           0.000422878   -0.000092629    0.000555567
     10        8           0.000566581    0.000432277    0.000458035
     11        1          -0.000544733   -0.000143515    0.000010533
 -------------------------------------------------------------------
 Cartesian Forces:  Max     0.001126298 RMS     0.000335812
 Leave Link  716 at Sat May 24 03:12:28 2025, MaxMem=  3758096384 cpu:               0.0 elap:               0.0
 (Enter /apps/easybuild-2022/easybuild/software/Compiler/NVHPC/22.11-CUDA-11.7.0/Gaussian/g16c01-CUDA-11.7.0/g16/l123.exe)
 IRC-IRC-IRC-IRC-IRC-IRC-IRC-IRC-IRC-IRC-IRC-IRC-IRC-IRC-IRC-IRC-IRC-IRC
 Pt100 Step number   1 out of a maximum of  20
 Using modified Bulirsch-Stoer corrector integration.
   Using distance weighted interpolants to fit PES.
 PreDWI: IReCr0= 2 IReCr1= 1 IReCr2= 1 IReCr3= 1
 Modified Bulirsch-Stoer Extrapolation Cycles:
    EPS =    0.000010000000000
    Cycle     1 NS=    48
      PEZero:  N= 2 I= 1 D=  3.67D-04 Err=  2.21D-05
    Cycle     2 NS=    64 Truncation Error =  0.000022129
      PEZero:  N= 3 I= 2 D=  3.67D-04 Err=  1.47D-05
      PEZero:  N= 3 I= 1 D=  7.34D-04 Err=  1.73D-07
    Cycle     3 NS=    96 Truncation Error =  0.000000173
 BS completed in    3 cycles and     208 integration steps.
 Maximum DWI energy   std dev =  0.000000176 at pt    46
 Maximum DWI gradient std dev =  0.365207530 at pt    37
 SUMMARY OF CORRECTOR INTEGRATION:
   Predictor End Point Energy =  -761.945433
   Old End Point Energy       =  -761.945433
   Corrected End Point Energy =  -761.945433
   Predictor End-Start Dist.  =     0.070509
   Old End-Start Dist.        =     0.070509
   New End-Start Dist.        =     0.070429
   New End-Old End Dist.      =     0.004361
 CORRECTOR INTEGRATION CONVERGENCE:
   Recorrection delta-x convergence threshold:    0.010000
   Delta-x Convergence Met
 Point Number: 100          Path Number:   1
                    CURRENT STRUCTURE
                Cartesian Coordinates (Ang):                
 ---------------------------------------------------------------------
 Center     Atomic                     Coordinates (Angstroms)
 Number     Number                        X           Y           Z
 ---------------------------------------------------------------------
      1          6                    1.294668   -0.000745   -0.838734
      2          8                    2.191159   -0.847137   -0.685800
      3          6                   -0.189761   -0.270110   -0.539729
      4          6                   -0.591369    0.147850    0.915853
      5          9                   -1.510464    1.188169    0.911090
      6          9                   -1.130852   -0.919925    1.621886
      7          9                    0.551007    0.585616    1.608107
      8          9                   -1.015574    0.412147   -1.453970
      9          9                   -0.421871   -1.650648   -0.690345
     10          8                    1.461783    1.301332   -1.250098
     11          1                    2.412470    1.507981   -1.405322
 ---------------------------------------------------------------------
   CHANGE IN THE REACTION COORDINATE =    0.07043
   NET REACTION COORDINATE UP TO THIS POINT =    7.06049
  # OF POINTS ALONG THE PATH = 100
  # OF STEPS =   1

 Maximum number of steps reached.
 Calculation of FORWARD path complete.
 Reaction path calculation complete.
 
 Energies reported relative to the TS energy of        -761.750055
 --------------------------------------------------------------------------
    Summary of reaction path following
 --------------------------------------------------------------------------
                        Energy    RxCoord
   1                    0.00000   0.00000
   2                   -0.00014   0.07064
   3                   -0.00058   0.14126
   4                   -0.00131   0.21188
   5                   -0.00235   0.28250
   6                   -0.00370   0.35312
   7                   -0.00534   0.42375
   8                   -0.00726   0.49437
   9                   -0.00946   0.56500
  10                   -0.01191   0.63563
  11                   -0.01459   0.70625
  12                   -0.01749   0.77688
  13                   -0.02058   0.84750
  14                   -0.02384   0.91813
  15                   -0.02725   0.98876
  16                   -0.03079   1.05938
  17                   -0.03445   1.13001
  18                   -0.03819   1.20064
  19                   -0.04202   1.27126
  20                   -0.04590   1.34189
  21                   -0.04983   1.41252
  22                   -0.05379   1.48314
  23                   -0.05778   1.55377
  24                   -0.06178   1.62440
  25                   -0.06578   1.69502
  26                   -0.06978   1.76565
  27                   -0.07376   1.83628
  28                   -0.07772   1.90690
  29                   -0.08165   1.97753
  30                   -0.08556   2.04816
  31                   -0.08942   2.11879
  32                   -0.09324   2.18941
  33                   -0.09701   2.26004
  34                   -0.10072   2.33067
  35                   -0.10438   2.40129
  36                   -0.10799   2.47192
  37                   -0.11153   2.54255
  38                   -0.11500   2.61317
  39                   -0.11840   2.68380
  40                   -0.12174   2.75443
  41                   -0.12500   2.82505
  42                   -0.12818   2.89568
  43                   -0.13129   2.96631
  44                   -0.13432   3.03693
  45                   -0.13727   3.10756
  46                   -0.14014   3.17818
  47                   -0.14292   3.24881
  48                   -0.14563   3.31943
  49                   -0.14824   3.39006
  50                   -0.15078   3.46069
  51                   -0.15323   3.53131
  52                   -0.15559   3.60194
  53                   -0.15787   3.67256
  54                   -0.16006   3.74318
  55                   -0.16217   3.81381
  56                   -0.16419   3.88443
  57                   -0.16613   3.95505
  58                   -0.16798   4.02568
  59                   -0.16976   4.09630
  60                   -0.17145   4.16692
  61                   -0.17306   4.23754
  62                   -0.17460   4.30816
  63                   -0.17605   4.37878
  64                   -0.17743   4.44940
  65                   -0.17874   4.52001
  66                   -0.17998   4.59063
  67                   -0.18114   4.66125
  68                   -0.18224   4.73186
  69                   -0.18327   4.80248
  70                   -0.18424   4.87309
  71                   -0.18516   4.94371
  72                   -0.18601   5.01432
  73                   -0.18681   5.08493
  74                   -0.18755   5.15554
  75                   -0.18825   5.22615
  76                   -0.18890   5.29677
  77                   -0.18951   5.36738
  78                   -0.19008   5.43799
  79                   -0.19060   5.50860
  80                   -0.19109   5.57921
  81                   -0.19155   5.64982
  82                   -0.19197   5.72043
  83                   -0.19236   5.79104
  84                   -0.19273   5.86166
  85                   -0.19306   5.93227
  86                   -0.19337   6.00289
  87                   -0.19366   6.07351
  88                   -0.19392   6.14413
  89                   -0.19415   6.21475
  90                   -0.19436   6.28537
  91                   -0.19455   6.35599
  92                   -0.19472   6.42661
  93                   -0.19486   6.49722
  94                   -0.19499   6.56783
  95                   -0.19509   6.63842
  96                   -0.19517   6.70898
  97                   -0.19523   6.77946
  98                   -0.19528   6.84980
  99                   -0.19532   6.91996
 100                   -0.19535   6.99006
 101                   -0.19538   7.06049
 --------------------------------------------------------------------------
 
 Total number of points:                  100
 Total number of gradient calculations:   101
 Total number of Hessian calculations:      0
 IRC-IRC-IRC-IRC-IRC-IRC-IRC-IRC-IRC-IRC-IRC-IRC-IRC-IRC-IRC-IRC-IRC-IRC
 Leave Link  123 at Sat May 24 03:12:29 2025, MaxMem=  3758096384 cpu:               0.1 elap:               0.0
 (Enter /apps/easybuild-2022/easybuild/software/Compiler/NVHPC/22.11-CUDA-11.7.0/Gaussian/g16c01-CUDA-11.7.0/g16/l202.exe)
                          Input orientation:                          
 ---------------------------------------------------------------------
 Center     Atomic      Atomic             Coordinates (Angstroms)
 Number     Number       Type             X           Y           Z
 ---------------------------------------------------------------------
      1          6           0        1.294612   -0.000752   -0.838731
      2          8           0        2.191235   -0.847261   -0.685785
      3          6           0       -0.189882   -0.270161   -0.539725
      4          6           0       -0.591439    0.148034    0.915967
      5          9           0       -1.510405    1.188127    0.910993
      6          9           0       -1.130750   -0.919900    1.621871
      7          9           0        0.551112    0.585714    1.608115
      8          9           0       -1.015636    0.412160   -1.454092
      9          9           0       -0.421905   -1.650750   -0.690423
     10          8           0        1.461658    1.301323   -1.249832
     11          1           0        2.412993    1.508305   -1.404448
 ---------------------------------------------------------------------
                    Distance matrix (angstroms):
                    1          2          3          4          5
     1  C    0.000000
     2  O    1.242539   0.000000
     3  C    1.538086   2.454403   0.000000
     4  C    2.580366   3.361472   1.566899   0.000000
     5  F    3.513272   4.516043   2.444374   1.387918   0.000000
     6  F    3.575161   4.045508   2.445382   1.389115   2.256826
     7  F    2.623698   3.163132   2.427923   1.405722   2.258037
     8  F    2.426193   3.529937   1.408367   2.422165   2.537823
     9  F    2.385565   2.733883   1.408038   2.417613   3.436362
    10  O    1.375612   2.338129   2.387760   3.199369   3.676293
    11  H    1.961648   2.472720   3.268890   4.032526   4.566927
                    6          7          8          9         10
     6  F    0.000000
     7  F    2.257371   0.000000
     8  F    3.353980   3.444116   0.000000
     9  F    2.526521   3.351390   2.278443   0.000000
    10  O    4.461064   3.083675   2.639946   3.546193   0.000000
    11  H    5.254798   3.659687   3.599930   4.304196   0.985792
                   11
    11  H    0.000000
 Symmetry turned off by external request.
 Stoichiometry    C3HF5O2
 Rotational constants (GHZ):           1.7445568           1.1094136           1.0874839
 Leave Link  202 at Sat May 24 03:12:29 2025, MaxMem=  3758096384 cpu:               0.0 elap:               0.0
 (Enter /apps/easybuild-2022/easybuild/software/Compiler/NVHPC/22.11-CUDA-11.7.0/Gaussian/g16c01-CUDA-11.7.0/g16/l9999.exe)

 This type of calculation cannot be archived.


 NATURE REVEALS EVERY SECRET ONCE.
                    - RALPH WALDO EMERSON
 Job cpu time:       0 days  0 hours 21 minutes 18.2 seconds.
 Elapsed time:       0 days  0 hours  3 minutes 57.9 seconds.
 File lengths (MBytes):  RWF=     10 Int=      0 D2E=      0 Chk=      3 Scr=      1
 Normal termination of Gaussian 16 at Sat May 24 03:12:29 2025.
done
