 Entering Gaussian System, Link 0=g16
 Initial command:
 /apps/easybuild-2022/easybuild/software/Compiler/NVHPC/22.11-CUDA-11.7.0/Gaussian/g16c01-CUDA-11.7.0/g16/l1.exe "/tmp/Gau-151825.inp" -scrdir="/tmp/"
 Entering Link 1 = /apps/easybuild-2022/easybuild/software/Compiler/NVHPC/22.11-CUDA-11.7.0/Gaussian/g16c01-CUDA-11.7.0/g16/l1.exe PID=    151826.
  
 Copyright (c) 1988-2019, Gaussian, Inc.  All Rights Reserved.
  
 This is part of the Gaussian(R) 16 program.  It is based on
 the Gaussian(R) 09 system (copyright 2009, Gaussian, Inc.),
 the Gaussian(R) 03 system (copyright 2003, Gaussian, Inc.),
 the Gaussian(R) 98 system (copyright 1998, Gaussian, Inc.),
 the Gaussian(R) 94 system (copyright 1995, Gaussian, Inc.),
 the Gaussian 92(TM) system (copyright 1992, Gaussian, Inc.),
 the Gaussian 90(TM) system (copyright 1990, Gaussian, Inc.),
 the Gaussian 88(TM) system (copyright 1988, Gaussian, Inc.),
 the Gaussian 86(TM) system (copyright 1986, Carnegie Mellon
 University), and the Gaussian 82(TM) system (copyright 1983,
 Carnegie Mellon University). Gaussian is a federally registered
 trademark of Gaussian, Inc.
  
 This software contains proprietary and confidential information,
 including trade secrets, belonging to Gaussian, Inc.
  
 This software is provided under written license and may be
 used, copied, transmitted, or stored only in accord with that
 written license.
  
 The following legend is applicable only to US Government
 contracts under FAR:
  
                    RESTRICTED RIGHTS LEGEND
  
 Use, reproduction and disclosure by the US Government is
 subject to restrictions as set forth in subparagraphs (a)
 and (c) of the Commercial Computer Software - Restricted
 Rights clause in FAR 52.227-19.
  
 Gaussian, Inc.
 340 Quinnipiac St., Bldg. 40, Wallingford CT 06492
  
  
 ---------------------------------------------------------------
 Warning -- This program may not be used in any manner that
 competes with the business of Gaussian, Inc. or will provide
 assistance to any competitor of Gaussian, Inc.  The licensee
 of this program is prohibited from giving any competitor of
 Gaussian, Inc. access to this program.  By using this program,
 the user acknowledges that Gaussian, Inc. is engaged in the
 business of creating and licensing software in the field of
 computational chemistry and represents and warrants to the
 licensee that it is not a competitor of Gaussian, Inc. and that
 it will not use this program in any manner prohibited above.
 ---------------------------------------------------------------
  

 Cite this work as:
 Gaussian 16, Revision C.01,
 M. J. Frisch, G. W. Trucks, H. B. Schlegel, G. E. Scuseria, 
 M. A. Robb, J. R. Cheeseman, G. Scalmani, V. Barone, 
 G. A. Petersson, H. Nakatsuji, X. Li, M. Caricato, A. V. Marenich, 
 J. Bloino, B. G. Janesko, R. Gomperts, B. Mennucci, H. P. Hratchian, 
 J. V. Ortiz, A. F. Izmaylov, J. L. Sonnenberg, D. Williams-Young, 
 F. Ding, F. Lipparini, F. Egidi, J. Goings, B. Peng, A. Petrone, 
 T. Henderson, D. Ranasinghe, V. G. Zakrzewski, J. Gao, N. Rega, 
 G. Zheng, W. Liang, M. Hada, M. Ehara, K. Toyota, R. Fukuda, 
 J. Hasegawa, M. Ishida, T. Nakajima, Y. Honda, O. Kitao, H. Nakai, 
 T. Vreven, K. Throssell, J. A. Montgomery, Jr., J. E. Peralta, 
 F. Ogliaro, M. J. Bearpark, J. J. Heyd, E. N. Brothers, K. N. Kudin, 
 V. N. Staroverov, T. A. Keith, R. Kobayashi, J. Normand, 
 K. Raghavachari, A. P. Rendell, J. C. Burant, S. S. Iyengar, 
 J. Tomasi, M. Cossi, J. M. Millam, M. Klene, C. Adamo, R. Cammi, 
 J. W. Ochterski, R. L. Martin, K. Morokuma, O. Farkas, 
 J. B. Foresman, and D. J. Fox, Gaussian, Inc., Wallingford CT, 2019.
 
 ******************************************
 Gaussian 16:  ES64L-G16RevC.01  3-Jul-2019
                24-May-2025 
 ******************************************
 %mem=28GB
 %chk=1642764945472630600001_intra_H_migration_suprafacial_2_11
 %nprocshared=8
 Will use up to    8 processors via shared memory.
 ----------------------------------------------------------------------
 #P M062X/Def2TZVPP Symm(None) scf(xqc) pop(None) opt(NoFreeze,TS,CalcA
 ll,NoEigentest,MaxCycle=999)
 ----------------------------------------------------------------------
 1/5=1,6=999,10=4,11=1,18=20,26=3,29=2000,38=1/1,3;
 2/9=110,12=2,15=3,17=6,18=5,40=1/2;
 3/5=44,7=202,11=2,25=1,30=1,71=2,74=-55,140=1/1,2,3;
 4//1;
 5/5=2,8=3,13=1,38=5/2,8;
 8/6=4,10=90,11=11/1;
 11/6=1,8=1,9=11,15=111,16=1,31=1/1,2,10;
 10/6=1,31=1/2;
 7/10=1,25=1,30=1/1,2,3,16;
 1/5=1,6=999,10=4,11=1,18=20,26=3/3(3);
 2/9=110,15=3/2;
 7/8=1,9=1,25=1,30=1,44=-1/16;
 99//99;
 2/9=110,15=3/2;
 3/5=44,7=202,11=2,25=1,30=1,71=2,74=-55,140=1/1,2,3;
 4/5=5,16=3,69=1/1;
 5/5=2,8=3,13=1,38=5/2,8;
 8/6=4,10=90,11=11/1;
 11/6=1,8=1,9=11,15=111,16=1,31=1/1,2,10;
 10/6=1,31=1/2;
 7/10=1,25=1,30=1/1,2,3,16;
 1/5=1,6=999,10=4,11=1,18=20,26=3/3(-8);
 2/9=110,15=3/2;
 7/8=1,9=1,25=1,30=1,44=-1/16;
 99//99;
 Leave Link    1 at Sat May 24 03:00:59 2025, MaxMem=  3758096384 cpu:               0.0 elap:               0.0
 (Enter /apps/easybuild-2022/easybuild/software/Compiler/NVHPC/22.11-CUDA-11.7.0/Gaussian/g16c01-CUDA-11.7.0/g16/l101.exe)
 ------------------------------
 Gaussian input prepared by ASE
 ------------------------------
 Symbolic Z-matrix:
 Charge =  0 Multiplicity = 1
 C                     1.36369   0.24138  -1.23688 
 O                     0.6924   -0.10631  -2.15309 
 C                     1.47688  -0.63747   0.02786 
 C                     2.44665  -1.80571  -0.25435 
 F                     2.74377  -2.55057   0.79817 
 F                     2.01474  -2.69381  -1.14305 
 F                     3.63494  -1.45774  -0.72606 
 F                     1.89164   0.08116   1.08204 
 F                     0.28329  -1.08895   0.41253 
 O                     2.08946   1.35358  -1.18582 
 H                     1.30032   0.91289  -1.97516 
 
 ITRead=  0  0  0  0  0  0  0  0  0  0  0
 MicOpt= -1 -1 -1 -1 -1 -1 -1 -1 -1 -1 -1
 NAtoms=     11 NQM=       11 NQMF=       0 NMMI=      0 NMMIF=      0
                NMic=       0 NMicF=      0.
                    Isotopes and Nuclear Properties:
 (Nuclear quadrupole moments (NQMom) in fm**2, nuclear magnetic moments (NMagM)
  in nuclear magnetons)

  Atom         1           2           3           4           5           6           7           8           9          10
 IAtWgt=          12          16          12          12          19          19          19          19          19          16
 AtmWgt=  12.0000000  15.9949146  12.0000000  12.0000000  18.9984032  18.9984032  18.9984032  18.9984032  18.9984032  15.9949146
 NucSpn=           0           0           0           0           1           1           1           1           1           0
 AtZEff=  -0.0000000  -0.0000000  -0.0000000  -0.0000000  -0.0000000  -0.0000000  -0.0000000  -0.0000000  -0.0000000  -0.0000000
 NQMom=    0.0000000   0.0000000   0.0000000   0.0000000   0.0000000   0.0000000   0.0000000   0.0000000   0.0000000   0.0000000
 NMagM=    0.0000000   0.0000000   0.0000000   0.0000000   2.6288670   2.6288670   2.6288670   2.6288670   2.6288670   0.0000000
 AtZNuc=   6.0000000   8.0000000   6.0000000   6.0000000   9.0000000   9.0000000   9.0000000   9.0000000   9.0000000   8.0000000

  Atom        11
 IAtWgt=           1
 AtmWgt=   1.0078250
 NucSpn=           1
 AtZEff=  -0.0000000
 NQMom=    0.0000000
 NMagM=    2.7928460
 AtZNuc=   1.0000000
 Leave Link  101 at Sat May 24 03:00:59 2025, MaxMem=  3758096384 cpu:               0.2 elap:               0.2
 (Enter /apps/easybuild-2022/easybuild/software/Compiler/NVHPC/22.11-CUDA-11.7.0/Gaussian/g16c01-CUDA-11.7.0/g16/l103.exe)

 GradGradGradGradGradGradGradGradGradGradGradGradGradGradGradGradGradGrad
 Berny optimization.
 Initialization pass.
                           ----------------------------
                           !    Initial Parameters    !
                           ! (Angstroms and Degrees)  !
 --------------------------                            --------------------------
 ! Name  Definition              Value          Derivative Info.                !
 --------------------------------------------------------------------------------
 ! R1    R(1,2)                  1.1878         calculate D2E/DX2 analytically  !
 ! R2    R(1,3)                  1.5443         calculate D2E/DX2 analytically  !
 ! R3    R(1,10)                 1.329          calculate D2E/DX2 analytically  !
 ! R4    R(1,11)                 1.0            calculate D2E/DX2 analytically  !
 ! R5    R(3,4)                  1.5443         calculate D2E/DX2 analytically  !
 ! R6    R(3,8)                  1.3415         calculate D2E/DX2 analytically  !
 ! R7    R(3,9)                  1.3328         calculate D2E/DX2 analytically  !
 ! R8    R(4,5)                  1.3232         calculate D2E/DX2 analytically  !
 ! R9    R(4,6)                  1.3286         calculate D2E/DX2 analytically  !
 ! R10   R(4,7)                  1.325          calculate D2E/DX2 analytically  !
 ! A1    A(2,1,3)              120.4343         calculate D2E/DX2 analytically  !
 ! A2    A(2,1,10)             125.6757         calculate D2E/DX2 analytically  !
 ! A3    A(2,1,11)              65.8759         calculate D2E/DX2 analytically  !
 ! A4    A(3,1,10)             113.8764         calculate D2E/DX2 analytically  !
 ! A5    A(10,1,11)             60.0673         calculate D2E/DX2 analytically  !
 ! A6    A(1,3,4)              109.0799         calculate D2E/DX2 analytically  !
 ! A7    A(1,3,8)              111.184          calculate D2E/DX2 analytically  !
 ! A8    A(1,3,9)              111.3158         calculate D2E/DX2 analytically  !
 ! A9    A(4,3,8)              110.7738         calculate D2E/DX2 analytically  !
 ! A10   A(4,3,9)              111.0296         calculate D2E/DX2 analytically  !
 ! A11   A(8,3,9)              103.3869         calculate D2E/DX2 analytically  !
 ! A12   A(3,4,5)              114.929          calculate D2E/DX2 analytically  !
 ! A13   A(3,4,6)              115.0733         calculate D2E/DX2 analytically  !
 ! A14   A(3,4,7)              115.4401         calculate D2E/DX2 analytically  !
 ! A15   A(5,4,6)              103.2254         calculate D2E/DX2 analytically  !
 ! A16   A(5,4,7)              103.2753         calculate D2E/DX2 analytically  !
 ! A17   A(6,4,7)              103.2355         calculate D2E/DX2 analytically  !
 ! A18   L(3,1,11,2,-1)        186.3103         calculate D2E/DX2 analytically  !
 ! A19   L(3,1,11,2,-2)        175.4402         calculate D2E/DX2 analytically  !
 ! D1    D(2,1,3,4)             77.7366         calculate D2E/DX2 analytically  !
 ! D2    D(2,1,3,8)           -159.8147         calculate D2E/DX2 analytically  !
 ! D3    D(2,1,3,9)            -45.1214         calculate D2E/DX2 analytically  !
 ! D4    D(10,1,3,4)          -100.9967         calculate D2E/DX2 analytically  !
 ! D5    D(10,1,3,8)            21.4521         calculate D2E/DX2 analytically  !
 ! D6    D(10,1,3,9)           136.1454         calculate D2E/DX2 analytically  !
 ! D7    D(1,3,4,5)            172.9228         calculate D2E/DX2 analytically  !
 ! D8    D(1,3,4,6)            -67.3414         calculate D2E/DX2 analytically  !
 ! D9    D(1,3,4,7)             52.8226         calculate D2E/DX2 analytically  !
 ! D10   D(8,3,4,5)             50.2279         calculate D2E/DX2 analytically  !
 ! D11   D(8,3,4,6)            169.9637         calculate D2E/DX2 analytically  !
 ! D12   D(8,3,4,7)            -69.8724         calculate D2E/DX2 analytically  !
 ! D13   D(9,3,4,5)            -64.0481         calculate D2E/DX2 analytically  !
 ! D14   D(9,3,4,6)             55.6877         calculate D2E/DX2 analytically  !
 ! D15   D(9,3,4,7)            175.8516         calculate D2E/DX2 analytically  !
 --------------------------------------------------------------------------------
 Trust Radius=3.00D-01 FncErr=1.00D-07 GrdErr=1.00D-06 EigMax=2.50D+02 EigMin=1.00D-04
 Number of steps in this run=    100 maximum allowed number of steps=    100.
 Search for a saddle point of order  1.
 GradGradGradGradGradGradGradGradGradGradGradGradGradGradGradGradGradGrad

 Leave Link  103 at Sat May 24 03:00:59 2025, MaxMem=  3758096384 cpu:               0.0 elap:               0.0
 (Enter /apps/easybuild-2022/easybuild/software/Compiler/NVHPC/22.11-CUDA-11.7.0/Gaussian/g16c01-CUDA-11.7.0/g16/l202.exe)
                          Input orientation:                          
 ---------------------------------------------------------------------
 Center     Atomic      Atomic             Coordinates (Angstroms)
 Number     Number       Type             X           Y           Z
 ---------------------------------------------------------------------
      1          6           0        1.363692    0.241379   -1.236875
      2          8           0        0.692399   -0.106311   -2.153092
      3          6           0        1.476880   -0.637468    0.027858
      4          6           0        2.446646   -1.805706   -0.254345
      5          9           0        2.743774   -2.550568    0.798167
      6          9           0        2.014740   -2.693808   -1.143051
      7          9           0        3.634935   -1.457743   -0.726064
      8          9           0        1.891637    0.081162    1.082037
      9          9           0        0.283286   -1.088950    0.412533
     10          8           0        2.089461    1.353575   -1.185817
     11          1           0        1.300323    0.912888   -1.975157
 ---------------------------------------------------------------------
                    Distance matrix (angstroms):
                    1          2          3          4          5
     1  C    0.000000
     2  O    1.187845   0.000000
     3  C    1.544258   2.377831   0.000000
     4  C    2.515693   3.093633   1.544301   0.000000
     5  F    3.720348   4.346546   2.420402   1.323210   0.000000
     6  F    3.007988   3.076347   2.426696   1.328558   2.078542
     7  F    2.882098   3.538544   2.428673   1.325001   2.076467
     8  F    2.383642   3.455340   1.341546   2.377861   2.780777
     9  F    2.378571   2.777658   1.332846   2.374572   2.887740
    10  O    1.329033   2.240239   2.410916   3.313047   4.427940
    11  H    1.000000   1.200000   2.539064   3.415553   4.665877
                    6          7          8          9         10
     6  F    0.000000
     7  F    2.080088   0.000000
     8  F    3.559021   2.945598   0.000000
     9  F    2.827250   3.558927   2.098616   0.000000
    10  O    4.048299   3.240891   2.607936   3.432626   0.000000
    11  H    3.769754   3.553947   3.223020   3.277619   1.200001
                   11
    11  H    0.000000
 Symmetry turned off by external request.
 Stoichiometry    C3HF5O2
 Rotational constants (GHZ):           1.8819399           1.1734699           1.1012249
 Leave Link  202 at Sat May 24 03:00:59 2025, MaxMem=  3758096384 cpu:               0.0 elap:               0.0
 (Enter /apps/easybuild-2022/easybuild/software/Compiler/NVHPC/22.11-CUDA-11.7.0/Gaussian/g16c01-CUDA-11.7.0/g16/l301.exe)
 Standard basis: def2TZVPP (5D, 7F)
 Ernie: Thresh=  0.10000D-02 Tol=  0.10000D-05 Strict=F.
   324 basis functions,   527 primitive gaussians,   375 cartesian basis functions
    40 alpha electrons       40 beta electrons
       nuclear repulsion energy       640.3224406289 Hartrees.
 IExCor= 4336 DFT=T Ex+Corr=M062X ExCW=0 ScaHFX=  0.540000
 ScaDFX=  1.000000  1.000000  1.000000  1.000000 ScalE2=  1.000000  1.000000
 IRadAn=      5 IRanWt=     -1 IRanGd=            0 ICorTp=0 IEmpDi=  4
 NAtoms=   11 NActive=   11 NUniq=   11 SFac= 1.00D+00 NAtFMM=   60 NAOKFM=F Big=F
 Integral buffers will be    131072 words long.
 Raffenetti 2 integral format.
 Two-electron integral symmetry is turned off.
 Leave Link  301 at Sat May 24 03:00:59 2025, MaxMem=  3758096384 cpu:               0.0 elap:               0.0
 (Enter /apps/easybuild-2022/easybuild/software/Compiler/NVHPC/22.11-CUDA-11.7.0/Gaussian/g16c01-CUDA-11.7.0/g16/l302.exe)
 NPDir=0 NMtPBC=     1 NCelOv=     1 NCel=       1 NClECP=     1 NCelD=      1
         NCelK=      1 NCelE2=     1 NClLst=     1 CellRange=     0.0.
 One-electron integrals computed using PRISM.
   1 Symmetry operations used in ECPInt.
 ECPInt:  NShTT=    6786 NPrTT=   21959 LenC2=    6500 LenP2D=   16047.
 LDataN:  DoStor=T MaxTD1= 6 Len=  172
 NBasis=   324 RedAO= T EigKep=  1.16D-04  NBF=   324
 NBsUse=   324 1.00D-06 EigRej= -1.00D+00 NBFU=   324
 Precomputing XC quadrature grid using
 IXCGrd= 4 IRadAn=           5 IRanWt=          -1 IRanGd=           0 AccXCQ= 0.00D+00.
 Generated NRdTot=       0 NPtTot=           0 NUsed=           0 NTot=          32
 NSgBfM=   374   373   374   374   374 MxSgAt=    11 MxSgA2=    11.
 Leave Link  302 at Sat May 24 03:00:59 2025, MaxMem=  3758096384 cpu:               0.6 elap:               0.1
 (Enter /apps/easybuild-2022/easybuild/software/Compiler/NVHPC/22.11-CUDA-11.7.0/Gaussian/g16c01-CUDA-11.7.0/g16/l303.exe)
 DipDrv:  MaxL=1.
 Leave Link  303 at Sat May 24 03:00:59 2025, MaxMem=  3758096384 cpu:               0.1 elap:               0.0
 (Enter /apps/easybuild-2022/easybuild/software/Compiler/NVHPC/22.11-CUDA-11.7.0/Gaussian/g16c01-CUDA-11.7.0/g16/l401.exe)
 ExpMin= 9.52D-02 ExpMax= 3.55D+04 ExpMxC= 1.21D+03 IAcc=3 IRadAn=         5 AccDes= 0.00D+00
 Harris functional with IExCor= 1009 and IRadAn=       5 diagonalized for initial guess.
 HarFok:  IExCor= 1009 AccDes= 0.00D+00 IRadAn=         5 IDoV= 1 UseB2=F ITyADJ=14
 ICtDFT=  3500011 ScaDFX=  1.000000  1.000000  1.000000  1.000000
 FoFCou: FMM=F IPFlag=           0 FMFlag=      100000 FMFlg1=           0
         NFxFlg=           0 DoJE=T BraDBF=F KetDBF=T FulRan=T
         wScrn=  0.000000 ICntrl=       500 IOpCl=  0 I1Cent=   200000004 NGrid=           0
         NMat0=    1 NMatS0=      1 NMatT0=    0 NMatD0=    1 NMtDS0=    0 NMtDT0=    0
 Symmetry not used in FoFCou.
 Harris En= -764.013347255015    
 JPrj=0 DoOrth=F DoCkMO=F.
 Leave Link  401 at Sat May 24 03:01:00 2025, MaxMem=  3758096384 cpu:               3.3 elap:               0.5
 (Enter /apps/easybuild-2022/easybuild/software/Compiler/NVHPC/22.11-CUDA-11.7.0/Gaussian/g16c01-CUDA-11.7.0/g16/l502.exe)
 Keep R1 ints in memory in canonical form, NReq=1412617130.
 FoFCou: FMM=F IPFlag=           0 FMFlag=           0 FMFlg1=           0
         NFxFlg=           0 DoJE=F BraDBF=F KetDBF=F FulRan=T
         wScrn=  0.000000 ICntrl=       600 IOpCl=  0 I1Cent=           0 NGrid=           0
         NMat0=    1 NMatS0=  52650 NMatT0=    0 NMatD0=    1 NMtDS0=    0 NMtDT0=    0
 Symmetry not used in FoFCou.
 Two-electron integral symmetry not used.
 Closed shell SCF:
 Using DIIS extrapolation, IDIIS=  1040.
 NGot=  3758096384 LenX=  2371771924 LenY=  2371630858
 Requested convergence on RMS density matrix=1.00D-08 within  32 cycles.
 Requested convergence on MAX density matrix=1.00D-06.
 Requested convergence on             energy=1.00D-06.
 No special actions if energy rises.
 Integral accuracy reduced to 1.0D-05 until final iterations.

 Cycle   1  Pass 0  IDiag  1:
 E= -764.341795366172    
 DIIS: error= 1.76D-02 at cycle   1 NSaved=   1.
 NSaved= 1 IEnMin= 1 EnMin= -764.341795366172     IErMin= 1 ErrMin= 1.76D-02
 ErrMax= 1.76D-02  0.00D+00 EMaxC= 1.00D-01 BMatC= 3.07D-01 BMatP= 3.07D-01
 IDIUse=3 WtCom= 8.24D-01 WtEn= 1.76D-01
 Coeff-Com:  0.100D+01
 Coeff-En:   0.100D+01
 Coeff:      0.100D+01
 Gap=     0.430 Goal=   None    Shift=    0.000
 GapD=    0.430 DampG=2.000 DampE=0.500 DampFc=1.0000 IDamp=-1.
 RMSDP=1.95D-03 MaxDP=5.50D-02              OVMax= 1.13D-01

 Cycle   2  Pass 0  IDiag  1:
 E= -764.286913238395     Delta-E=        0.054882127778 Rises=F Damp=F
 DIIS: error= 2.01D-02 at cycle   2 NSaved=   2.
 NSaved= 2 IEnMin= 1 EnMin= -764.341795366172     IErMin= 1 ErrMin= 1.76D-02
 ErrMax= 2.01D-02  0.00D+00 EMaxC= 1.00D-01 BMatC= 3.26D-01 BMatP= 3.07D-01
 IDIUse=3 WtCom= 7.99D-01 WtEn= 2.01D-01
 Coeff-Com:  0.508D+00 0.492D+00
 Coeff-En:   0.580D+00 0.420D+00
 Coeff:      0.523D+00 0.477D+00
 Gap=     0.428 Goal=   None    Shift=    0.000
 RMSDP=9.36D-04 MaxDP=3.45D-02 DE= 5.49D-02 OVMax= 6.96D-02

 Cycle   3  Pass 0  IDiag  1:
 E= -764.478412704450     Delta-E=       -0.191499466055 Rises=F Damp=F
 DIIS: error= 3.70D-03 at cycle   3 NSaved=   3.
 NSaved= 3 IEnMin= 3 EnMin= -764.478412704450     IErMin= 3 ErrMin= 3.70D-03
 ErrMax= 3.70D-03  0.00D+00 EMaxC= 1.00D-01 BMatC= 7.28D-03 BMatP= 3.07D-01
 IDIUse=3 WtCom= 9.63D-01 WtEn= 3.70D-02
 Coeff-Com:  0.381D-01 0.133D+00 0.829D+00
 Coeff-En:   0.000D+00 0.000D+00 0.100D+01
 Coeff:      0.367D-01 0.128D+00 0.835D+00
 Gap=     0.404 Goal=   None    Shift=    0.000
 RMSDP=2.45D-04 MaxDP=1.06D-02 DE=-1.91D-01 OVMax= 3.15D-02

 Cycle   4  Pass 0  IDiag  1:
 E= -764.480959814904     Delta-E=       -0.002547110454 Rises=F Damp=F
 DIIS: error= 4.05D-03 at cycle   4 NSaved=   4.
 NSaved= 4 IEnMin= 4 EnMin= -764.480959814904     IErMin= 3 ErrMin= 3.70D-03
 ErrMax= 4.05D-03  0.00D+00 EMaxC= 1.00D-01 BMatC= 3.67D-03 BMatP= 7.28D-03
 IDIUse=3 WtCom= 9.59D-01 WtEn= 4.05D-02
 Coeff-Com: -0.297D-02 0.535D-01 0.514D+00 0.435D+00
 Coeff-En:   0.000D+00 0.000D+00 0.332D+00 0.668D+00
 Coeff:     -0.285D-02 0.513D-01 0.507D+00 0.445D+00
 Gap=     0.408 Goal=   None    Shift=    0.000
 RMSDP=1.04D-04 MaxDP=5.51D-03 DE=-2.55D-03 OVMax= 2.04D-02

 Cycle   5  Pass 0  IDiag  1:
 E= -764.483394780053     Delta-E=       -0.002434965149 Rises=F Damp=F
 DIIS: error= 7.72D-04 at cycle   5 NSaved=   5.
 NSaved= 5 IEnMin= 5 EnMin= -764.483394780053     IErMin= 5 ErrMin= 7.72D-04
 ErrMax= 7.72D-04  0.00D+00 EMaxC= 1.00D-01 BMatC= 1.84D-04 BMatP= 3.67D-03
 IDIUse=3 WtCom= 9.92D-01 WtEn= 7.72D-03
 Coeff-Com: -0.479D-02 0.146D-01 0.193D+00 0.242D+00 0.555D+00
 Coeff-En:   0.000D+00 0.000D+00 0.000D+00 0.000D+00 0.100D+01
 Coeff:     -0.476D-02 0.145D-01 0.191D+00 0.240D+00 0.559D+00
 Gap=     0.406 Goal=   None    Shift=    0.000
 RMSDP=2.75D-05 MaxDP=1.04D-03 DE=-2.43D-03 OVMax= 3.24D-03

 Cycle   6  Pass 0  IDiag  1:
 E= -764.483522718924     Delta-E=       -0.000127938871 Rises=F Damp=F
 DIIS: error= 1.05D-04 at cycle   6 NSaved=   6.
 NSaved= 6 IEnMin= 6 EnMin= -764.483522718924     IErMin= 6 ErrMin= 1.05D-04
 ErrMax= 1.05D-04  0.00D+00 EMaxC= 1.00D-01 BMatC= 5.37D-06 BMatP= 1.84D-04
 IDIUse=3 WtCom= 9.99D-01 WtEn= 1.05D-03
 Coeff-Com: -0.160D-02 0.838D-03 0.230D-01 0.470D-01 0.184D+00 0.747D+00
 Coeff-En:   0.000D+00 0.000D+00 0.000D+00 0.000D+00 0.000D+00 0.100D+01
 Coeff:     -0.159D-02 0.837D-03 0.230D-01 0.470D-01 0.184D+00 0.747D+00
 Gap=     0.406 Goal=   None    Shift=    0.000
 RMSDP=6.05D-06 MaxDP=2.23D-04 DE=-1.28D-04 OVMax= 5.03D-04

 Initial convergence to 1.0D-05 achieved.  Increase integral accuracy.
 Cycle   7  Pass 1  IDiag  1:
 E= -764.483497739963     Delta-E=        0.000024978961 Rises=F Damp=F
 DIIS: error= 3.27D-05 at cycle   1 NSaved=   1.
 NSaved= 1 IEnMin= 1 EnMin= -764.483497739963     IErMin= 1 ErrMin= 3.27D-05
 ErrMax= 3.27D-05  0.00D+00 EMaxC= 1.00D-01 BMatC= 1.44D-06 BMatP= 1.44D-06
 IDIUse=1 WtCom= 1.00D+00 WtEn= 0.00D+00
 Coeff-Com:  0.100D+01
 Coeff:      0.100D+01
 Gap=     0.406 Goal=   None    Shift=    0.000
 RMSDP=6.05D-06 MaxDP=2.23D-04 DE= 2.50D-05 OVMax= 2.71D-04

 Cycle   8  Pass 1  IDiag  1:
 E= -764.483498047836     Delta-E=       -0.000000307872 Rises=F Damp=F
 DIIS: error= 3.93D-05 at cycle   2 NSaved=   2.
 NSaved= 2 IEnMin= 2 EnMin= -764.483498047836     IErMin= 1 ErrMin= 3.27D-05
 ErrMax= 3.93D-05  0.00D+00 EMaxC= 1.00D-01 BMatC= 1.28D-06 BMatP= 1.44D-06
 IDIUse=1 WtCom= 1.00D+00 WtEn= 0.00D+00
 Coeff-Com:  0.483D+00 0.517D+00
 Coeff:      0.483D+00 0.517D+00
 Gap=     0.406 Goal=   None    Shift=    0.000
 RMSDP=1.88D-06 MaxDP=9.57D-05 DE=-3.08D-07 OVMax= 2.08D-04

 Cycle   9  Pass 1  IDiag  1:
 E= -764.483498757809     Delta-E=       -0.000000709974 Rises=F Damp=F
 DIIS: error= 1.60D-05 at cycle   3 NSaved=   3.
 NSaved= 3 IEnMin= 3 EnMin= -764.483498757809     IErMin= 3 ErrMin= 1.60D-05
 ErrMax= 1.60D-05  0.00D+00 EMaxC= 1.00D-01 BMatC= 6.28D-08 BMatP= 1.28D-06
 IDIUse=1 WtCom= 1.00D+00 WtEn= 0.00D+00
 Coeff-Com:  0.377D-01 0.169D+00 0.793D+00
 Coeff:      0.377D-01 0.169D+00 0.793D+00
 Gap=     0.406 Goal=   None    Shift=    0.000
 RMSDP=8.20D-07 MaxDP=4.08D-05 DE=-7.10D-07 OVMax= 1.11D-04

 Cycle  10  Pass 1  IDiag  1:
 E= -764.483498781516     Delta-E=       -0.000000023707 Rises=F Damp=F
 DIIS: error= 1.53D-05 at cycle   4 NSaved=   4.
 NSaved= 4 IEnMin= 4 EnMin= -764.483498781516     IErMin= 4 ErrMin= 1.53D-05
 ErrMax= 1.53D-05  0.00D+00 EMaxC= 1.00D-01 BMatC= 3.86D-08 BMatP= 6.28D-08
 IDIUse=1 WtCom= 1.00D+00 WtEn= 0.00D+00
 Coeff-Com: -0.353D-01 0.470D-01 0.515D+00 0.473D+00
 Coeff:     -0.353D-01 0.470D-01 0.515D+00 0.473D+00
 Gap=     0.406 Goal=   None    Shift=    0.000
 RMSDP=3.73D-07 MaxDP=1.86D-05 DE=-2.37D-08 OVMax= 8.13D-05

 Cycle  11  Pass 1  IDiag  1:
 E= -764.483498809574     Delta-E=       -0.000000028058 Rises=F Damp=F
 DIIS: error= 3.25D-06 at cycle   5 NSaved=   5.
 NSaved= 5 IEnMin= 5 EnMin= -764.483498809574     IErMin= 5 ErrMin= 3.25D-06
 ErrMax= 3.25D-06  0.00D+00 EMaxC= 1.00D-01 BMatC= 1.28D-09 BMatP= 3.86D-08
 IDIUse=1 WtCom= 1.00D+00 WtEn= 0.00D+00
 Coeff-Com: -0.124D-01-0.455D-02 0.336D-01 0.147D+00 0.836D+00
 Coeff:     -0.124D-01-0.455D-02 0.336D-01 0.147D+00 0.836D+00
 Gap=     0.406 Goal=   None    Shift=    0.000
 RMSDP=1.28D-07 MaxDP=4.65D-06 DE=-2.81D-08 OVMax= 1.65D-05

 Cycle  12  Pass 1  IDiag  1:
 E= -764.483498811219     Delta-E=       -0.000000001645 Rises=F Damp=F
 DIIS: error= 8.32D-07 at cycle   6 NSaved=   6.
 NSaved= 6 IEnMin= 6 EnMin= -764.483498811219     IErMin= 6 ErrMin= 8.32D-07
 ErrMax= 8.32D-07  0.00D+00 EMaxC= 1.00D-01 BMatC= 2.35D-10 BMatP= 1.28D-09
 IDIUse=1 WtCom= 1.00D+00 WtEn= 0.00D+00
 Coeff-Com:  0.243D-02-0.111D-01-0.101D+00-0.278D-01 0.329D+00 0.808D+00
 Coeff:      0.243D-02-0.111D-01-0.101D+00-0.278D-01 0.329D+00 0.808D+00
 Gap=     0.406 Goal=   None    Shift=    0.000
 RMSDP=6.22D-08 MaxDP=2.62D-06 DE=-1.64D-09 OVMax= 1.19D-05

 Cycle  13  Pass 1  IDiag  1:
 E= -764.483498811511     Delta-E=       -0.000000000292 Rises=F Damp=F
 DIIS: error= 3.64D-07 at cycle   7 NSaved=   7.
 NSaved= 7 IEnMin= 7 EnMin= -764.483498811511     IErMin= 7 ErrMin= 3.64D-07
 ErrMax= 3.64D-07  0.00D+00 EMaxC= 1.00D-01 BMatC= 4.29D-11 BMatP= 2.35D-10
 IDIUse=1 WtCom= 1.00D+00 WtEn= 0.00D+00
 Coeff-Com:  0.291D-02-0.479D-02-0.552D-01-0.290D-01 0.554D-01 0.378D+00
 Coeff-Com:  0.653D+00
 Coeff:      0.291D-02-0.479D-02-0.552D-01-0.290D-01 0.554D-01 0.378D+00
 Coeff:      0.653D+00
 Gap=     0.406 Goal=   None    Shift=    0.000
 RMSDP=1.83D-08 MaxDP=7.37D-07 DE=-2.92D-10 OVMax= 2.98D-06

 Cycle  14  Pass 1  IDiag  1:
 E= -764.483498811527     Delta-E=       -0.000000000017 Rises=F Damp=F
 DIIS: error= 9.53D-08 at cycle   8 NSaved=   8.
 NSaved= 8 IEnMin= 8 EnMin= -764.483498811527     IErMin= 8 ErrMin= 9.53D-08
 ErrMax= 9.53D-08  0.00D+00 EMaxC= 1.00D-01 BMatC= 2.65D-12 BMatP= 4.29D-11
 IDIUse=1 WtCom= 1.00D+00 WtEn= 0.00D+00
 Coeff-Com: -0.101D-03 0.132D-02 0.100D-01 0.325D-02-0.544D-01-0.858D-01
 Coeff-Com:  0.900D-01 0.104D+01
 Coeff:     -0.101D-03 0.132D-02 0.100D-01 0.325D-02-0.544D-01-0.858D-01
 Coeff:      0.900D-01 0.104D+01
 Gap=     0.406 Goal=   None    Shift=    0.000
 RMSDP=9.91D-09 MaxDP=3.60D-07 DE=-1.66D-11 OVMax= 1.67D-06

 SCF Done:  E(RM062X) =  -764.483498812     A.U. after   14 cycles
            NFock= 14  Conv=0.99D-08     -V/T= 2.0029
 KE= 7.622577345032D+02 PE=-3.092017363257D+03 EE= 9.249536893136D+02
 Leave Link  502 at Sat May 24 03:01:25 2025, MaxMem=  3758096384 cpu:             110.1 elap:              25.1
 (Enter /apps/easybuild-2022/easybuild/software/Compiler/NVHPC/22.11-CUDA-11.7.0/Gaussian/g16c01-CUDA-11.7.0/g16/l508.exe)
 QCSCF skips out because SCF is already converged.
 Leave Link  508 at Sat May 24 03:01:25 2025, MaxMem=  3758096384 cpu:               0.0 elap:               0.0
 (Enter /apps/easybuild-2022/easybuild/software/Compiler/NVHPC/22.11-CUDA-11.7.0/Gaussian/g16c01-CUDA-11.7.0/g16/l801.exe)
 DoSCS=F DFT=T ScalE2(SS,OS)=  1.000000  1.000000
 Range of M.O.s used for correlation:     1   324
 NBasis=   324 NAE=    40 NBE=    40 NFC=     0 NFV=     0
 NROrb=    324 NOA=    40 NOB=    40 NVA=   284 NVB=   284

 **** Warning!!: The largest alpha MO coefficient is  0.20438955D+02

 Leave Link  801 at Sat May 24 03:01:25 2025, MaxMem=  3758096384 cpu:               0.0 elap:               0.0
 (Enter /apps/easybuild-2022/easybuild/software/Compiler/NVHPC/22.11-CUDA-11.7.0/Gaussian/g16c01-CUDA-11.7.0/g16/l1101.exe)
 Using compressed storage, NAtomX=    11.
 Will process     12 centers per pass.
   1 Symmetry operations used in ECPInt.
 ECPInt:  NShTT=    6786 NPrTT=   21959 LenC2=    6500 LenP2D=   16047.
 LDataN:  DoStor=T MaxTD1= 7 Len=  274
 Leave Link 1101 at Sat May 24 03:01:25 2025, MaxMem=  3758096384 cpu:               0.9 elap:               0.2
 (Enter /apps/easybuild-2022/easybuild/software/Compiler/NVHPC/22.11-CUDA-11.7.0/Gaussian/g16c01-CUDA-11.7.0/g16/l1102.exe)
 Symmetrizing basis deriv contribution to polar:
 IMax=3 JMax=2 DiffMx= 0.00D+00
 Leave Link 1102 at Sat May 24 03:01:25 2025, MaxMem=  3758096384 cpu:               0.1 elap:               0.0
 (Enter /apps/easybuild-2022/easybuild/software/Compiler/NVHPC/22.11-CUDA-11.7.0/Gaussian/g16c01-CUDA-11.7.0/g16/l1110.exe)
 Forming Gx(P) for the SCF density, NAtomX=    11.
 Integral derivatives from FoFJK, PRISM(SPDF).
 Do as many integral derivatives as possible in FoFJK.
 G2DrvN: MDV=    3758095115.
 G2DrvN: will do    12 centers at a time, making    1 passes.
 Calling FoFCou, ICntrl=  3107 FMM=F I1Cent=   0 AccDes= 0.00D+00.
 FoFJK:  IHMeth= 1 ICntrl=    3107 DoSepK=F KAlg= 0 I1Cent=           0 FoldK=F
 IRaf=         0 NMat=       1 IRICut=       1 DoRegI=T DoRafI=F ISym2E= 0 IDoP0=0 IntGTp=1.
 FoFCou: FMM=F IPFlag=           0 FMFlag=      100000 FMFlg1=           0
         NFxFlg=           0 DoJE=F BraDBF=F KetDBF=F FulRan=T
         wScrn=  0.000000 ICntrl=      3107 IOpCl=  0 I1Cent=           0 NGrid=           0
         NMat0=    1 NMatS0=      1 NMatT0=    0 NMatD0=    1 NMtDS0=    0 NMtDT0=    0
 Symmetry not used in FoFCou.
 End of G2Drv F.D. properties file   721 does not exist.
 End of G2Drv F.D. properties file   722 does not exist.
 End of G2Drv F.D. properties file   788 does not exist.
 Leave Link 1110 at Sat May 24 03:02:06 2025, MaxMem=  3758096384 cpu:             328.6 elap:              41.4
 (Enter /apps/easybuild-2022/easybuild/software/Compiler/NVHPC/22.11-CUDA-11.7.0/Gaussian/g16c01-CUDA-11.7.0/g16/l1002.exe)
 Minotr:  Closed shell wavefunction.
          IDoAtm=11111111111
          Direct CPHF calculation.
          Differentiating once with respect to electric field.
                with respect to dipole field.
          Differentiating once with respect to nuclear coordinates.
          Requested convergence is 1.0D-08 RMS, and 1.0D-07 maximum.
          Secondary convergence is 1.0D-12 RMS, and 1.0D-12 maximum.
          NewPWx=T KeepS1=F KeepF1=F KeepIn=T MapXYZ=F SortEE=F KeepMc=T.
         3300 words used for storage of precomputed grid.
 Keep R1 ints in memory in canonical form, NReq=1412622530.
 FoFCou: FMM=F IPFlag=           0 FMFlag=           0 FMFlg1=           0
         NFxFlg=           0 DoJE=F BraDBF=F KetDBF=F FulRan=T
         wScrn=  0.000000 ICntrl=       600 IOpCl=  0 I1Cent=           0 NGrid=           0
         NMat0=    1 NMatS0=  52650 NMatT0=    0 NMatD0=    1 NMtDS0=    0 NMtDT0=    0
 Symmetry not used in FoFCou.
 Two-electron integral symmetry not used.
          MDV=    3758096384 using IRadAn=       1.
          Solving linear equations simultaneously, MaxMat=       0.
          There are    36 degrees of freedom in the 1st order CPHF.  IDoFFX=6 NUNeed=     3.
     33 vectors produced by pass  0 Test12= 3.16D-14 2.78D-09 XBig12= 1.68D+01 1.69D+00.
 AX will form    33 AO Fock derivatives at one time.
     33 vectors produced by pass  1 Test12= 3.16D-14 2.78D-09 XBig12= 3.94D+00 3.78D-01.
     33 vectors produced by pass  2 Test12= 3.16D-14 2.78D-09 XBig12= 8.97D-02 4.22D-02.
     33 vectors produced by pass  3 Test12= 3.16D-14 2.78D-09 XBig12= 2.34D-03 6.16D-03.
     33 vectors produced by pass  4 Test12= 3.16D-14 2.78D-09 XBig12= 2.79D-05 5.90D-04.
     33 vectors produced by pass  5 Test12= 3.16D-14 2.78D-09 XBig12= 2.45D-07 6.12D-05.
     33 vectors produced by pass  6 Test12= 3.16D-14 2.78D-09 XBig12= 1.43D-09 5.98D-06.
     15 vectors produced by pass  7 Test12= 3.16D-14 2.78D-09 XBig12= 6.56D-12 3.25D-07.
      3 vectors produced by pass  8 Test12= 3.16D-14 2.78D-09 XBig12= 3.25D-14 2.29D-08.
 InvSVY:  IOpt=1 It=  1 EMax= 1.78D-15
 Solved reduced A of dimension   249 with    36 vectors.
 FullF1:  Do perturbations      1 to       3.
 Isotropic polarizability for W=    0.000000       43.86 Bohr**3.
 End of Minotr F.D. properties file   721 does not exist.
 End of Minotr F.D. properties file   722 does not exist.
 End of Minotr F.D. properties file   788 does not exist.
 Leave Link 1002 at Sat May 24 03:03:08 2025, MaxMem=  3758096384 cpu:             483.2 elap:              61.4
 (Enter /apps/easybuild-2022/easybuild/software/Compiler/NVHPC/22.11-CUDA-11.7.0/Gaussian/g16c01-CUDA-11.7.0/g16/l701.exe)
 ... and contract with generalized density number  0.
 Compute integral second derivatives.
   1 Symmetry operations used in ECPInt.
 ECPInt:  NShTT=    6786 NPrTT=   21959 LenC2=    6500 LenP2D=   16047.
 LDataN:  DoStor=T MaxTD1= 8 Len=  415
 Leave Link  701 at Sat May 24 03:03:08 2025, MaxMem=  3758096384 cpu:               0.7 elap:               0.1
 (Enter /apps/easybuild-2022/easybuild/software/Compiler/NVHPC/22.11-CUDA-11.7.0/Gaussian/g16c01-CUDA-11.7.0/g16/l702.exe)
 L702 exits ... SP integral derivatives will be done elsewhere.
 Leave Link  702 at Sat May 24 03:03:08 2025, MaxMem=  3758096384 cpu:               0.0 elap:               0.0
 (Enter /apps/easybuild-2022/easybuild/software/Compiler/NVHPC/22.11-CUDA-11.7.0/Gaussian/g16c01-CUDA-11.7.0/g16/l703.exe)
 Integral derivatives from FoFJK, PRISM(SPDF).
 Compute integral second derivatives, UseDBF=F ICtDFT=           0.
 Calling FoFJK, ICntrl=    100127 FMM=F ISym2X=0 I1Cent= 0 IOpClX= 0 NMat=1 NMatS=1 NMatT=0.
 FoFJK:  IHMeth= 1 ICntrl=  100127 DoSepK=F KAlg= 0 I1Cent=           0 FoldK=F
 IRaf=         0 NMat=       1 IRICut=       1 DoRegI=T DoRafI=F ISym2E= 0 IDoP0=0 IntGTp=1.
 FoFCou: FMM=F IPFlag=           0 FMFlag=      100000 FMFlg1=         800
         NFxFlg=           0 DoJE=F BraDBF=F KetDBF=F FulRan=T
         wScrn=  0.000000 ICntrl=    100127 IOpCl=  0 I1Cent=           0 NGrid=           0
         NMat0=    1 NMatS0=      1 NMatT0=    0 NMatD0=    1 NMtDS0=    0 NMtDT0=    0
 Symmetry not used in FoFCou.
 Leave Link  703 at Sat May 24 03:04:41 2025, MaxMem=  3758096384 cpu:             735.7 elap:              92.6
 (Enter /apps/easybuild-2022/easybuild/software/Compiler/NVHPC/22.11-CUDA-11.7.0/Gaussian/g16c01-CUDA-11.7.0/g16/l716.exe)
 Dipole        =-3.16655834D-01 1.47297490D-01-2.40450243D-01
 Polarizability= 4.13923119D+01 3.07872136D+00 4.65800420D+01
                 3.45297660D+00-1.15211144D+00 4.35933136D+01
 -------------------------------------------------------------------
 Center     Atomic                   Forces (Hartrees/Bohr)
 Number     Number              X              Y              Z
 -------------------------------------------------------------------
      1        6           0.090846510   -0.108479698    0.259879879
      2        8          -0.044610957   -0.020061841   -0.058658304
      3        6          -0.001435944    0.007279677    0.018719638
      4        6           0.036113140   -0.052739925   -0.002440557
      5        9          -0.015178832    0.010152072    0.027724260
      6        9          -0.029894194    0.010568162   -0.011424193
      7        9           0.002259145    0.035106779   -0.004622492
      8        9           0.015729723   -0.001945897   -0.011068847
      9        9          -0.006329041   -0.013808988   -0.014594719
     10        8          -0.050498615   -0.053577630   -0.023805194
     11        1           0.002999064    0.187507288   -0.179709470
 -------------------------------------------------------------------
 Cartesian Forces:  Max     0.259879879 RMS     0.072957899
 Force constants in Cartesian coordinates: 
                1             2             3             4             5 
      1  0.350004D+00
      2  0.143186D+00  0.642555D+00
      3  0.348300D+00 -0.286988D+00  0.101471D+01
      4 -0.317628D+00 -0.128192D+00 -0.387052D+00  0.355430D+00
      5 -0.175814D+00 -0.147501D+00 -0.214367D+00  0.224613D+00  0.186118D+00
      6 -0.343025D+00 -0.130784D+00 -0.564888D+00  0.433625D+00  0.220368D+00
      7 -0.756050D-01  0.251726D-01  0.171307D-01  0.353641D-03 -0.305098D-02
      8  0.359292D-01 -0.112778D+00  0.396969D-01 -0.155292D-01  0.160448D-01
      9 -0.152111D-02  0.576095D-01 -0.134476D+00 -0.130905D-01  0.119162D-01
     10  0.126802D-01  0.183129D-01 -0.149228D-01 -0.212662D-02 -0.609165D-02
     11  0.186407D-01 -0.182505D-01  0.200346D-01 -0.407766D-02 -0.174368D-02
     12 -0.190326D-01  0.245578D-01  0.248325D-01 -0.103472D-02 -0.667584D-02
     13 -0.439601D-02 -0.462678D-03  0.687323D-02  0.271064D-03  0.502420D-03
     14  0.372838D-02 -0.440127D-03 -0.102125D-01  0.464671D-03  0.367308D-03
     15 -0.779519D-03 -0.156489D-02  0.160693D-02  0.242243D-03  0.875358D-03
     16 -0.251591D-02 -0.279461D-02 -0.797112D-03  0.797174D-03  0.266760D-02
     17 -0.851677D-03  0.159638D-02 -0.469859D-02  0.203867D-02 -0.662193D-03
     18 -0.520793D-03 -0.226882D-02 -0.717920D-02  0.161044D-02  0.294316D-02
     19 -0.309365D-02 -0.404731D-02  0.359773D-02  0.852907D-03  0.216638D-02
     20 -0.343247D-02 -0.726684D-03 -0.160772D-02  0.107309D-02  0.109967D-02
     21  0.197044D-02 -0.165940D-03 -0.347446D-02  0.822219D-05 -0.670464D-04
     22 -0.222528D-03 -0.107246D-01 -0.918026D-02  0.411908D-03  0.388606D-02
     23 -0.392687D-02  0.317723D-02  0.700561D-02  0.392809D-02  0.176594D-02
     24 -0.144725D-01 -0.299417D-01 -0.313800D-01 -0.371871D-02  0.872551D-02
     25 -0.168932D-01 -0.890818D-02 -0.106989D-02  0.753809D-02  0.348617D-02
     26 -0.320175D-01 -0.290811D-02  0.740896D-02  0.548395D-02  0.184342D-03
     27  0.340761D-01  0.903116D-02 -0.592170D-02 -0.293777D-02  0.351862D-03
     28 -0.148144D+00 -0.127005D+00  0.240021D-01 -0.887094D-02 -0.463106D-01
     29 -0.717779D-01 -0.258075D+00  0.613783D-01 -0.365526D-01  0.622445D-02
     30 -0.268341D-01 -0.262949D-01 -0.115166D+00 -0.347398D-01 -0.646269D-01
     31  0.205814D+00  0.954619D-01  0.131177D-01 -0.370289D-01 -0.605446D-02
     32  0.863355D-01 -0.106648D+00  0.382350D+00 -0.532501D-01 -0.618973D-01
     33  0.218389D-01  0.386810D+00 -0.178662D+00  0.708750D-02  0.405566D-01
                6             7             8             9            10 
      6  0.597043D+00
      7 -0.393977D-01  0.552145D+00
      8 -0.781409D-02  0.294293D-01  0.521712D+00
      9 -0.225415D-01 -0.227799D-01  0.845278D-02  0.586338D+00
     10  0.554661D-02 -0.106985D+00  0.664182D-01  0.245197D-01  0.604198D+00
     11 -0.717374D-02  0.789986D-01 -0.143557D+00 -0.211315D-01 -0.456621D-01
     12 -0.120154D-01  0.299517D-02  0.812852D-02 -0.691989D-01 -0.738657D-02
     13 -0.245223D-02 -0.118263D-02  0.164018D-01 -0.263388D-01 -0.950602D-01
     14  0.385883D-02  0.578823D-02 -0.202197D-01  0.386203D-01  0.455339D-01
     15  0.255531D-04 -0.555469D-03  0.595496D-02 -0.135027D-01 -0.500859D-01
     16  0.238110D-03  0.729183D-02  0.425064D-02  0.569825D-02 -0.928130D-01
     17  0.369716D-02 -0.232436D-01 -0.133455D-01 -0.220449D-01 -0.331396D-01
     18  0.447366D-02 -0.116117D-01 -0.121615D-01 -0.673257D-02 -0.354104D-01
     19 -0.115704D-02 -0.245222D-01 -0.225864D-01  0.822911D-02 -0.283163D+00
     20  0.106656D-02  0.106986D-01  0.122925D-01 -0.428883D-02 -0.366015D-01
     21  0.160447D-02  0.967083D-02  0.632407D-02  0.214329D-02  0.803073D-01
     22 -0.263479D-02 -0.844293D-01 -0.263284D-01 -0.526343D-01  0.758257D-02
     23  0.177095D-02 -0.264891D-01 -0.139840D+00 -0.103686D+00 -0.183906D-01
     24 -0.135877D-01 -0.396542D-01 -0.981822D-01 -0.232519D+00 -0.159608D-01
     25  0.504764D-02 -0.278207D+00 -0.669740D-01  0.879208D-01 -0.382880D-01
     26  0.100514D-02 -0.739377D-01 -0.956464D-01  0.366464D-01  0.131470D-01
     27  0.200769D-02  0.816861D-01  0.262835D-01 -0.105177D+00  0.995606D-02
     28 -0.127399D-01  0.809852D-02 -0.222731D-01 -0.953393D-02 -0.909859D-02
     29 -0.349791D-01 -0.251133D-01 -0.267947D-01 -0.940533D-02 -0.701906D-02
     30  0.371540D-01  0.706681D-03  0.216114D-01  0.317107D-02  0.269184D-02
     31 -0.430502D-01  0.304257D-02  0.126198D-02 -0.469276D-03  0.307330D-02
     32 -0.510158D-01  0.174724D-02  0.213187D-02  0.731130D-02  0.349257D-02
     33 -0.292762D-01  0.180955D-02  0.170578D-02 -0.750475D-02  0.744946D-03
               11            12            13            14            15 
     11  0.623504D+00
     12 -0.194323D-02  0.572159D+00
     13  0.448405D-01 -0.465316D-01  0.940344D-01
     14 -0.168581D+00  0.106540D+00 -0.234935D-01  0.179410D+00
     15  0.112360D+00 -0.210319D+00  0.578849D-01 -0.167789D+00  0.364474D+00
     16 -0.382301D-01 -0.393411D-01  0.641218D-03 -0.653107D-02 -0.413487D-01
     17 -0.200308D+00 -0.109410D+00  0.261419D-03  0.252970D-01  0.488262D-03
     18 -0.111150D+00 -0.173415D+00 -0.442548D-01 -0.184254D-01 -0.973520D-01
     19 -0.310204D-01  0.803343D-01  0.223089D-03 -0.262222D-01  0.353837D-01
     20 -0.886335D-01  0.159390D-01 -0.380631D-01 -0.190239D-01  0.495572D-01
     21  0.128114D-01 -0.103737D+00  0.525126D-01  0.506083D-01 -0.532473D-01
     22  0.304079D-02  0.105708D-01  0.109777D-02 -0.846975D-03  0.121947D-02
     23 -0.168433D-01 -0.332045D-01  0.130584D-04  0.244807D-02  0.758325D-03
     24 -0.102836D-01 -0.211605D-01  0.308812D-02 -0.123579D-02  0.553279D-02
     25 -0.257490D-01  0.133332D-01  0.246640D-02  0.350203D-02 -0.221456D-02
     26  0.101982D-01 -0.790474D-02 -0.158375D-02  0.286029D-02 -0.119997D-02
     27  0.927476D-02 -0.239825D-02  0.620969D-03 -0.378424D-02  0.283971D-02
     28 -0.301055D-02  0.442917D-02  0.215852D-02 -0.150293D-02  0.466480D-03
     29  0.284246D-02  0.264052D-02  0.227773D-02 -0.247181D-02  0.115150D-02
     30 -0.456633D-02 -0.791131D-02 -0.172425D-02  0.266568D-02 -0.525269D-05
     31  0.222923D-02  0.166402D-02 -0.253554D-03 -0.420434D-03 -0.212566D-03
     32  0.137242D-02  0.133327D-02 -0.693810D-03  0.353487D-03 -0.591633D-03
     33  0.176780D-02  0.316389D-02  0.321853D-03 -0.845491D-03 -0.529549D-04
               16            17            18            19            20 
     16  0.143377D+00
     17  0.102643D+00  0.222326D+00
     18  0.103772D+00  0.152460D+00  0.261575D+00
     19 -0.598898D-01 -0.569458D-01 -0.164129D-01  0.373634D+00
     20 -0.671613D-01 -0.277126D-01 -0.831066D-02  0.125454D+00  0.125338D+00
     21 -0.312357D-01 -0.167910D-01  0.174125D-01 -0.114087D+00 -0.505321D-01
     22 -0.664630D-03  0.465294D-02  0.196470D-02  0.231492D-02 -0.285113D-03
     23  0.430375D-02 -0.853549D-02 -0.386671D-02  0.489898D-02  0.691670D-03
     24  0.324577D-02 -0.466596D-02 -0.847973D-03  0.314233D-02  0.307088D-03
     25  0.311484D-02  0.471866D-02  0.119814D-02 -0.808341D-02  0.663503D-02
     26  0.623894D-03  0.233002D-02  0.162621D-02  0.613871D-02 -0.222579D-02
     27 -0.164200D-03  0.182182D-03  0.945839D-03  0.232420D-02 -0.226114D-02
     28  0.171088D-02  0.616790D-03  0.103573D-02  0.285970D-02  0.257897D-02
     29  0.120029D-02 -0.427119D-03  0.410205D-03  0.348152D-02 -0.323649D-03
     30  0.399219D-03  0.164183D-02  0.226586D-02 -0.120864D-02  0.853100D-03
     31 -0.104922D-02 -0.750462D-03 -0.137092D-02 -0.113273D-02 -0.896471D-03
     32 -0.971735D-03 -0.557910D-03 -0.125658D-02 -0.131769D-02 -0.776135D-03
     33 -0.466935D-03 -0.859091D-03 -0.114549D-02 -0.146208D-03 -0.722508D-03
               21            22            23            24            25 
     21  0.137119D+00
     22 -0.103134D-02  0.126246D+00
     23  0.479719D-03  0.809331D-01  0.177314D+00
     24  0.112065D-02  0.916830D-01  0.148480D+00  0.281750D+00
     25  0.310843D-02 -0.528356D-01 -0.480062D-01 -0.261459D-01  0.382656D+00
     26 -0.179586D-02 -0.552696D-01 -0.222376D-01 -0.139166D-01  0.136514D+00
     27  0.904055D-04 -0.424298D-01 -0.231636D-01  0.979506D-02 -0.843316D-01
     28 -0.160590D-02  0.183886D-02  0.504951D-02  0.626561D-03  0.122324D-02
     29 -0.102948D-02  0.285102D-02  0.462279D-02  0.498078D-02 -0.382290D-02
     30  0.117854D-02  0.301865D-02  0.609990D-02  0.105733D-02  0.623803D-02
     31  0.381630D-03 -0.134008D-02 -0.231367D-02 -0.183363D-02 -0.269129D-02
     32  0.157930D-03 -0.190918D-02 -0.256380D-02 -0.426738D-02 -0.139596D-02
     33 -0.209636D-03 -0.546066D-03 -0.673584D-03  0.239418D-03 -0.308436D-02
               26            27            28            29            30 
     26  0.114335D+00
     27 -0.241734D-01  0.998318D-01
     28  0.226258D-02  0.178783D-03  0.191557D+00
     29 -0.636865D-02  0.944704D-02  0.170599D+00  0.313185D+00
     30  0.430626D-02 -0.402301D-02  0.513313D-01  0.223089D-01  0.136035D+00
     31 -0.136199D-02  0.102104D-02 -0.433333D-01 -0.361242D-01  0.121114D-03
     32 -0.521220D-03 -0.118813D-02  0.189946D-01 -0.324137D-01  0.360011D-01
     33 -0.200242D-02  0.200931D-02 -0.581904D-01 -0.569033D-01 -0.537561D-01
               31            32            33 
     31 -0.125101D+00
     32 -0.510315D-01  0.201521D+00
     33  0.306312D-01 -0.368834D+00  0.265194D+00
 FormGI is forming the generalized inverse of G from B-inverse, IUseBI=4.
 Leave Link  716 at Sat May 24 03:04:41 2025, MaxMem=  3758096384 cpu:               0.0 elap:               0.0
 (Enter /apps/easybuild-2022/easybuild/software/Compiler/NVHPC/22.11-CUDA-11.7.0/Gaussian/g16c01-CUDA-11.7.0/g16/l103.exe)

 GradGradGradGradGradGradGradGradGradGradGradGradGradGradGradGradGradGrad
 Berny optimization.
 Red2BG is reusing G-inverse.
 Internal  Forces:  Max     0.258400134 RMS     0.045027834
 Search for a saddle point.
 Step number   1 out of a maximum of  100
 All quantities printed in internal units (Hartrees-Bohrs-Radians)
 Swapping is turned off.
 Second derivative matrix not updated -- analytic derivatives used.
 ITU=  0
     Eigenvalues ---   -0.04519  -0.00037   0.00169   0.02617   0.05444
     Eigenvalues ---    0.09208   0.09272   0.10360   0.12156   0.14476
     Eigenvalues ---    0.15087   0.16597   0.21212   0.22057   0.24307
     Eigenvalues ---    0.24834   0.26298   0.30457   0.33197   0.39192
     Eigenvalues ---    0.41000   0.41753   0.43864   0.52819   0.65683
     Eigenvalues ---    0.66642   1.06367
 Eigenvectors required to have negative eigenvalues:
                          A18       A5        A3        R3        R1
   1                    0.57090  -0.56023   0.55668   0.19398  -0.09993
                          A19       R4        A1        D5        A4
   1                    0.02825   0.02033   0.01422  -0.01235  -0.01118
 Eigenvalue     2 is  -3.70D-04 should be greater than     0.000000 Eigenvector:
                          D5        D6        D4        D2        D3
   1                   -0.35416  -0.35349  -0.35254  -0.34326  -0.34259
                          D1        D13       D10       D7        D15
   1                   -0.34164  -0.18596  -0.18245  -0.18004  -0.17391
 RFO step:  Lambda0=2.511697894D-03 Lambda=-1.38344840D-01.
 Linear search not attempted -- option 19 set.
 Maximum step size (   0.300) exceeded in Quadratic search.
    -- Step size scaled by   0.543
 Iteration  1 RMS(Cart)=  0.08078358 RMS(Int)=  0.00530160
 Iteration  2 RMS(Cart)=  0.00559986 RMS(Int)=  0.00023241
 Iteration  3 RMS(Cart)=  0.00002664 RMS(Int)=  0.00023045
 Iteration  4 RMS(Cart)=  0.00000001 RMS(Int)=  0.00023045
 ITry= 1 IFail=0 DXMaxC= 2.63D-01 DCOld= 1.00D+10 DXMaxT= 3.00D-01 DXLimC= 3.00D+00 Rises=F
 Variable       Old X    -DE/DX   Delta X   Delta X   Delta X     New X
                                 (Linear)    (Quad)   (Total)
    R1        2.24470   0.07633   0.00000   0.04680   0.04680   2.29150
    R2        2.91822   0.00504   0.00000   0.00180   0.00180   2.92002
    R3        2.51151  -0.07333   0.00000  -0.11120  -0.11120   2.40031
    R4        1.88973   0.25840   0.00000   0.20304   0.20304   2.09277
    R5        2.91831  -0.00824   0.00000  -0.00478  -0.00478   2.91353
    R6        2.53515  -0.00488   0.00000  -0.00776  -0.00776   2.52740
    R7        2.51871   0.00613   0.00000   0.00742   0.00742   2.52613
    R8        2.50051   0.01293   0.00000  -0.00094  -0.00094   2.49956
    R9        2.51061   0.01030   0.00000  -0.00514  -0.00514   2.50547
   R10        2.50389   0.01289   0.00000   0.00459   0.00459   2.50848
    A1        2.10198  -0.00146   0.00000  -0.00117  -0.00122   2.10075
    A2        2.19345  -0.01600   0.00000  -0.05373  -0.05408   2.13938
    A3        1.14975   0.01117   0.00000  -0.08414  -0.08385   1.06590
    A4        1.98752   0.01755   0.00000   0.05533   0.05553   2.04305
    A5        1.04837  -0.02806   0.00000   0.02586   0.02640   1.07478
    A6        1.90380   0.01244   0.00000   0.01783   0.01790   1.92170
    A7        1.94053  -0.00265   0.00000  -0.00727  -0.00720   1.93332
    A8        1.94283  -0.00505   0.00000  -0.00956  -0.00950   1.93333
    A9        1.93337  -0.01130   0.00000  -0.01525  -0.01523   1.91814
   A10        1.93783  -0.01053   0.00000  -0.01434  -0.01431   1.92352
   A11        1.80444   0.01643   0.00000   0.02776   0.02773   1.83217
   A12        2.00589  -0.03007   0.00000  -0.02851  -0.02893   1.97696
   A13        2.00841  -0.03398   0.00000  -0.02950  -0.02994   1.97846
   A14        2.01481  -0.03558   0.00000  -0.04669  -0.04738   1.96743
   A15        1.80162   0.03864   0.00000   0.04115   0.04099   1.84261
   A16        1.80249   0.03962   0.00000   0.04155   0.04096   1.84345
   A17        1.80180   0.03986   0.00000   0.04148   0.04084   1.84264
   A18        3.25173   0.00972   0.00000  -0.08532  -0.08507   3.16665
   A19        3.06201   0.00632   0.00000   0.02709   0.02711   3.08912
    D1        1.35676   0.00215   0.00000  -0.13142  -0.13141   1.22535
    D2       -2.78929  -0.00535   0.00000  -0.14325  -0.14324  -2.93253
    D3       -0.78752   0.01023   0.00000  -0.11924  -0.11923  -0.90675
    D4       -1.76272  -0.00211   0.00000  -0.15047  -0.15048  -1.91321
    D5        0.37441  -0.00961   0.00000  -0.16230  -0.16231   0.21210
    D6        2.37619   0.00597   0.00000  -0.13830  -0.13830   2.23788
    D7        3.01807   0.00075   0.00000  -0.07342  -0.07332   2.94476
    D8       -1.17533   0.00204   0.00000  -0.06387  -0.06399  -1.23932
    D9        0.92193  -0.00012   0.00000  -0.06920  -0.06919   0.85274
   D10        0.87664   0.00310   0.00000  -0.06633  -0.06619   0.81045
   D11        2.96643   0.00439   0.00000  -0.05677  -0.05687   2.90956
   D12       -1.21950   0.00223   0.00000  -0.06210  -0.06207  -1.28157
   D13       -1.11785  -0.00408   0.00000  -0.08278  -0.08269  -1.20054
   D14        0.97193  -0.00279   0.00000  -0.07322  -0.07337   0.89857
   D15        3.06919  -0.00495   0.00000  -0.07855  -0.07857   2.99062
         Item               Value     Threshold  Converged?
 Maximum Force            0.258400     0.000450     NO 
 RMS     Force            0.045028     0.000300     NO 
 Maximum Displacement     0.262837     0.001800     NO 
 RMS     Displacement     0.080195     0.001200     NO 
 Predicted change in Energy=-5.873567D-02
 Lowest energy point so far.  Saving SCF results.
 GradGradGradGradGradGradGradGradGradGradGradGradGradGradGradGradGradGrad

 Leave Link  103 at Sat May 24 03:04:41 2025, MaxMem=  3758096384 cpu:               0.0 elap:               0.1
 (Enter /apps/easybuild-2022/easybuild/software/Compiler/NVHPC/22.11-CUDA-11.7.0/Gaussian/g16c01-CUDA-11.7.0/g16/l202.exe)
                          Input orientation:                          
 ---------------------------------------------------------------------
 Center     Atomic      Atomic             Coordinates (Angstroms)
 Number     Number       Type             X           Y           Z
 ---------------------------------------------------------------------
      1          6           0        1.399407    0.261280   -1.204226
      2          8           0        0.817427   -0.118884   -2.197802
      3          6           0        1.500497   -0.650932    0.038882
      4          6           0        2.443193   -1.836482   -0.248976
      5          9           0        2.763462   -2.524468    0.834383
      6          9           0        1.932390   -2.721002   -1.094287
      7          9           0        3.596561   -1.456155   -0.784856
      8          9           0        1.943714    0.036645    1.096969
      9          9           0        0.293029   -1.097810    0.398430
     10          8           0        1.950374    1.403289   -1.129224
     11          1           0        1.297721    0.952968   -2.063098
 ---------------------------------------------------------------------
                    Distance matrix (angstroms):
                    1          2          3          4          5
     1  C    0.000000
     2  O    1.212609   0.000000
     3  C    1.545208   2.398420   0.000000
     4  C    2.530336   3.064504   1.541774   0.000000
     5  F    3.711734   4.332209   2.395420   1.322711   0.000000
     6  F    3.031528   3.038405   2.399123   1.325838   2.109284
     7  F    2.820096   3.392388   2.391738   1.327431   2.111228
     8  F    2.375337   3.485431   1.337442   2.360011   2.701895
     9  F    2.374806   2.823776   1.336770   2.363890   2.885905
    10  O    1.270187   2.177714   2.405554   3.393203   4.465887
    11  H    1.107445   1.182241   2.651780   3.519116   4.757768
                    6          7          8          9         10
     6  F    0.000000
     7  F    2.113067   0.000000
     8  F    3.522264   2.915753   0.000000
     9  F    2.747810   3.527307   2.121251   0.000000
    10  O    4.124478   3.317370   2.612220   3.366900   0.000000
    11  H    3.852201   3.566853   3.353055   3.357710   1.225098
                   11
    11  H    0.000000
 Symmetry turned off by external request.
 Stoichiometry    C3HF5O2
 Rotational constants (GHZ):           1.9120649           1.1822815           1.0968292
 Leave Link  202 at Sat May 24 03:04:41 2025, MaxMem=  3758096384 cpu:               0.0 elap:               0.0
 (Enter /apps/easybuild-2022/easybuild/software/Compiler/NVHPC/22.11-CUDA-11.7.0/Gaussian/g16c01-CUDA-11.7.0/g16/l301.exe)
 Standard basis: def2TZVPP (5D, 7F)
 Ernie: Thresh=  0.10000D-02 Tol=  0.10000D-05 Strict=F.
   324 basis functions,   527 primitive gaussians,   375 cartesian basis functions
    40 alpha electrons       40 beta electrons
       nuclear repulsion energy       641.3784830708 Hartrees.
 IExCor= 4336 DFT=T Ex+Corr=M062X ExCW=0 ScaHFX=  0.540000
 ScaDFX=  1.000000  1.000000  1.000000  1.000000 ScalE2=  1.000000  1.000000
 IRadAn=      5 IRanWt=     -1 IRanGd=            0 ICorTp=0 IEmpDi=  4
 NAtoms=   11 NActive=   11 NUniq=   11 SFac= 1.00D+00 NAtFMM=   60 NAOKFM=F Big=F
 Integral buffers will be    131072 words long.
 Raffenetti 2 integral format.
 Two-electron integral symmetry is turned off.
 Leave Link  301 at Sat May 24 03:04:41 2025, MaxMem=  3758096384 cpu:               0.0 elap:               0.0
 (Enter /apps/easybuild-2022/easybuild/software/Compiler/NVHPC/22.11-CUDA-11.7.0/Gaussian/g16c01-CUDA-11.7.0/g16/l302.exe)
 NPDir=0 NMtPBC=     1 NCelOv=     1 NCel=       1 NClECP=     1 NCelD=      1
         NCelK=      1 NCelE2=     1 NClLst=     1 CellRange=     0.0.
 One-electron integrals computed using PRISM.
   1 Symmetry operations used in ECPInt.
 ECPInt:  NShTT=    6786 NPrTT=   21959 LenC2=    6497 LenP2D=   16051.
 LDataN:  DoStor=T MaxTD1= 6 Len=  172
 NBasis=   324 RedAO= T EigKep=  1.68D-04  NBF=   324
 NBsUse=   324 1.00D-06 EigRej= -1.00D+00 NBFU=   324
 Precomputing XC quadrature grid using
 IXCGrd= 4 IRadAn=           5 IRanWt=          -1 IRanGd=           0 AccXCQ= 0.00D+00.
 Generated NRdTot=       0 NPtTot=           0 NUsed=           0 NTot=          32
 NSgBfM=   374   374   374   374   374 MxSgAt=    11 MxSgA2=    11.
 Leave Link  302 at Sat May 24 03:04:41 2025, MaxMem=  3758096384 cpu:               0.6 elap:               0.1
 (Enter /apps/easybuild-2022/easybuild/software/Compiler/NVHPC/22.11-CUDA-11.7.0/Gaussian/g16c01-CUDA-11.7.0/g16/l303.exe)
 DipDrv:  MaxL=1.
 Leave Link  303 at Sat May 24 03:04:41 2025, MaxMem=  3758096384 cpu:               0.1 elap:               0.0
 (Enter /apps/easybuild-2022/easybuild/software/Compiler/NVHPC/22.11-CUDA-11.7.0/Gaussian/g16c01-CUDA-11.7.0/g16/l401.exe)
 Initial guess from the checkpoint file:  "1642764945472630600001_intra_H_migration_suprafacial_2_11.chk"
 B after Tr=    -0.000864   -0.008852    0.027405
         Rot=    0.999998   -0.000889   -0.001624   -0.000099 Ang=  -0.21 deg.
 Guess basis will be translated and rotated to current coordinates.
 JPrj=2 DoOrth=T DoCkMO=T.
 Generating alternative initial guess.
 ExpMin= 9.52D-02 ExpMax= 3.55D+04 ExpMxC= 1.21D+03 IAcc=3 IRadAn=         5 AccDes= 0.00D+00
 Harris functional with IExCor= 1009 and IRadAn=       5 diagonalized for initial guess.
 HarFok:  IExCor= 1009 AccDes= 0.00D+00 IRadAn=         5 IDoV= 1 UseB2=F ITyADJ=14
 ICtDFT=  3500011 ScaDFX=  1.000000  1.000000  1.000000  1.000000
 FoFCou: FMM=F IPFlag=           0 FMFlag=      100000 FMFlg1=           0
         NFxFlg=           0 DoJE=T BraDBF=F KetDBF=T FulRan=T
         wScrn=  0.000000 ICntrl=       500 IOpCl=  0 I1Cent=   200000004 NGrid=           0
         NMat0=    1 NMatS0=      1 NMatT0=    0 NMatD0=    1 NMtDS0=    0 NMtDT0=    0
 Symmetry not used in FoFCou.
 Harris En= -764.070463368498    
 Leave Link  401 at Sat May 24 03:04:41 2025, MaxMem=  3758096384 cpu:               3.6 elap:               0.5
 (Enter /apps/easybuild-2022/easybuild/software/Compiler/NVHPC/22.11-CUDA-11.7.0/Gaussian/g16c01-CUDA-11.7.0/g16/l502.exe)
 Keep R1 ints in memory in canonical form, NReq=1412617130.
 FoFCou: FMM=F IPFlag=           0 FMFlag=           0 FMFlg1=           0
         NFxFlg=           0 DoJE=F BraDBF=F KetDBF=F FulRan=T
         wScrn=  0.000000 ICntrl=       600 IOpCl=  0 I1Cent=           0 NGrid=           0
         NMat0=    1 NMatS0=  52650 NMatT0=    0 NMatD0=    1 NMtDS0=    0 NMtDT0=    0
 Symmetry not used in FoFCou.
 Two-electron integral symmetry not used.
 Closed shell SCF:
 Using DIIS extrapolation, IDIIS=  1040.
 NGot=  3758096384 LenX=  2371771924 LenY=  2371630858
 Requested convergence on RMS density matrix=1.00D-08 within  32 cycles.
 Requested convergence on MAX density matrix=1.00D-06.
 Requested convergence on             energy=1.00D-06.
 No special actions if energy rises.
 Integral accuracy reduced to 1.0D-05 until final iterations.

 Cycle   1  Pass 0  IDiag  1:
 E= -764.509822173957    
 DIIS: error= 7.88D-03 at cycle   1 NSaved=   1.
 NSaved= 1 IEnMin= 1 EnMin= -764.509822173957     IErMin= 1 ErrMin= 7.88D-03
 ErrMax= 7.88D-03  0.00D+00 EMaxC= 1.00D-01 BMatC= 2.63D-02 BMatP= 2.63D-02
 IDIUse=3 WtCom= 9.21D-01 WtEn= 7.88D-02
 Coeff-Com:  0.100D+01
 Coeff-En:   0.100D+01
 Coeff:      0.100D+01
 Gap=     1.026 Goal=   None    Shift=    0.000
 GapD=    1.026 DampG=2.000 DampE=1.000 DampFc=2.0000 IDamp=-1.
 RMSDP=5.54D-04 MaxDP=1.65D-02              OVMax= 4.54D-02

 Cycle   2  Pass 0  IDiag  1:
 E= -764.541279628834     Delta-E=       -0.031457454877 Rises=F Damp=F
 DIIS: error= 2.37D-03 at cycle   2 NSaved=   2.
 NSaved= 2 IEnMin= 2 EnMin= -764.541279628834     IErMin= 2 ErrMin= 2.37D-03
 ErrMax= 2.37D-03  0.00D+00 EMaxC= 1.00D-01 BMatC= 1.41D-03 BMatP= 2.63D-02
 IDIUse=3 WtCom= 9.76D-01 WtEn= 2.37D-02
 Coeff-Com: -0.690D-01 0.107D+01
 Coeff-En:   0.000D+00 0.100D+01
 Coeff:     -0.674D-01 0.107D+01
 Gap=     0.421 Goal=   None    Shift=    0.000
 RMSDP=1.58D-04 MaxDP=6.91D-03 DE=-3.15D-02 OVMax= 2.19D-02

 Cycle   3  Pass 0  IDiag  1:
 E= -764.542055856383     Delta-E=       -0.000776227549 Rises=F Damp=F
 DIIS: error= 2.75D-03 at cycle   3 NSaved=   3.
 NSaved= 3 IEnMin= 3 EnMin= -764.542055856383     IErMin= 2 ErrMin= 2.37D-03
 ErrMax= 2.75D-03  0.00D+00 EMaxC= 1.00D-01 BMatC= 1.92D-03 BMatP= 1.41D-03
 IDIUse=3 WtCom= 1.60D-01 WtEn= 8.40D-01
 Coeff-Com: -0.837D-01 0.621D+00 0.462D+00
 Coeff-En:   0.000D+00 0.241D+00 0.759D+00
 Coeff:     -0.134D-01 0.302D+00 0.712D+00
 Gap=     0.429 Goal=   None    Shift=    0.000
 RMSDP=1.19D-04 MaxDP=8.07D-03 DE=-7.76D-04 OVMax= 1.95D-02

 Cycle   4  Pass 0  IDiag  1:
 E= -764.542300001569     Delta-E=       -0.000244145187 Rises=F Damp=F
 DIIS: error= 3.34D-03 at cycle   4 NSaved=   4.
 NSaved= 4 IEnMin= 4 EnMin= -764.542300001569     IErMin= 2 ErrMin= 2.37D-03
 ErrMax= 3.34D-03  0.00D+00 EMaxC= 1.00D-01 BMatC= 1.57D-03 BMatP= 1.41D-03
 IDIUse=3 WtCom= 1.48D-01 WtEn= 8.52D-01
 Coeff-Com: -0.179D-01 0.341D-01 0.481D+00 0.503D+00
 Coeff-En:   0.000D+00 0.000D+00 0.457D+00 0.543D+00
 Coeff:     -0.265D-02 0.504D-02 0.461D+00 0.537D+00
 Gap=     0.423 Goal=   None    Shift=    0.000
 RMSDP=6.65D-05 MaxDP=4.50D-03 DE=-2.44D-04 OVMax= 1.32D-02

 Cycle   5  Pass 0  IDiag  1:
 E= -764.543353599598     Delta-E=       -0.001053598028 Rises=F Damp=F
 DIIS: error= 4.78D-04 at cycle   5 NSaved=   5.
 NSaved= 5 IEnMin= 5 EnMin= -764.543353599598     IErMin= 5 ErrMin= 4.78D-04
 ErrMax= 4.78D-04  0.00D+00 EMaxC= 1.00D-01 BMatC= 5.73D-05 BMatP= 1.41D-03
 IDIUse=3 WtCom= 9.95D-01 WtEn= 4.78D-03
 Coeff-Com:  0.309D-04-0.727D-01 0.224D+00 0.341D+00 0.508D+00
 Coeff-En:   0.000D+00 0.000D+00 0.000D+00 0.000D+00 0.100D+01
 Coeff:      0.308D-04-0.724D-01 0.223D+00 0.339D+00 0.510D+00
 Gap=     0.422 Goal=   None    Shift=    0.000
 RMSDP=1.29D-05 MaxDP=7.61D-04 DE=-1.05D-03 OVMax= 1.94D-03

 Cycle   6  Pass 0  IDiag  1:
 E= -764.543394709771     Delta-E=       -0.000041110173 Rises=F Damp=F
 DIIS: error= 4.72D-05 at cycle   6 NSaved=   6.
 NSaved= 6 IEnMin= 6 EnMin= -764.543394709771     IErMin= 6 ErrMin= 4.72D-05
 ErrMax= 4.72D-05  0.00D+00 EMaxC= 1.00D-01 BMatC= 8.37D-07 BMatP= 5.73D-05
 IDIUse=1 WtCom= 1.00D+00 WtEn= 0.00D+00
 Coeff-Com:  0.254D-02-0.262D-01-0.426D-02 0.290D-01 0.966D-01 0.902D+00
 Coeff:      0.254D-02-0.262D-01-0.426D-02 0.290D-01 0.966D-01 0.902D+00
 Gap=     0.422 Goal=   None    Shift=    0.000
 RMSDP=4.02D-06 MaxDP=1.38D-04 DE=-4.11D-05 OVMax= 7.90D-04

 Initial convergence to 1.0D-05 achieved.  Increase integral accuracy.
 Cycle   7  Pass 1  IDiag  1:
 E= -764.543414333109     Delta-E=       -0.000019623338 Rises=F Damp=F
 DIIS: error= 2.16D-05 at cycle   1 NSaved=   1.
 NSaved= 1 IEnMin= 1 EnMin= -764.543414333109     IErMin= 1 ErrMin= 2.16D-05
 ErrMax= 2.16D-05  0.00D+00 EMaxC= 1.00D-01 BMatC= 5.76D-07 BMatP= 5.76D-07
 IDIUse=1 WtCom= 1.00D+00 WtEn= 0.00D+00
 Coeff-Com:  0.100D+01
 Coeff:      0.100D+01
 Gap=     0.422 Goal=   None    Shift=    0.000
 RMSDP=4.02D-06 MaxDP=1.38D-04 DE=-1.96D-05 OVMax= 3.10D-04

 Cycle   8  Pass 1  IDiag  1:
 E= -764.543414737528     Delta-E=       -0.000000404419 Rises=F Damp=F
 DIIS: error= 3.59D-05 at cycle   2 NSaved=   2.
 NSaved= 2 IEnMin= 2 EnMin= -764.543414737528     IErMin= 1 ErrMin= 2.16D-05
 ErrMax= 3.59D-05  0.00D+00 EMaxC= 1.00D-01 BMatC= 1.92D-07 BMatP= 5.76D-07
 IDIUse=1 WtCom= 1.00D+00 WtEn= 0.00D+00
 Coeff-Com:  0.298D+00 0.702D+00
 Coeff:      0.298D+00 0.702D+00
 Gap=     0.422 Goal=   None    Shift=    0.000
 RMSDP=1.39D-06 MaxDP=6.07D-05 DE=-4.04D-07 OVMax= 2.12D-04

 Cycle   9  Pass 1  IDiag  1:
 E= -764.543414807171     Delta-E=       -0.000000069643 Rises=F Damp=F
 DIIS: error= 2.21D-05 at cycle   3 NSaved=   3.
 NSaved= 3 IEnMin= 3 EnMin= -764.543414807171     IErMin= 1 ErrMin= 2.16D-05
 ErrMax= 2.21D-05  0.00D+00 EMaxC= 1.00D-01 BMatC= 1.32D-07 BMatP= 1.92D-07
 IDIUse=1 WtCom= 1.00D+00 WtEn= 0.00D+00
 Coeff-Com: -0.302D-01 0.453D+00 0.577D+00
 Coeff:     -0.302D-01 0.453D+00 0.577D+00
 Gap=     0.422 Goal=   None    Shift=    0.000
 RMSDP=7.26D-07 MaxDP=3.35D-05 DE=-6.96D-08 OVMax= 1.04D-04

 Cycle  10  Pass 1  IDiag  1:
 E= -764.543414896620     Delta-E=       -0.000000089449 Rises=F Damp=F
 DIIS: error= 8.13D-06 at cycle   4 NSaved=   4.
 NSaved= 4 IEnMin= 4 EnMin= -764.543414896620     IErMin= 4 ErrMin= 8.13D-06
 ErrMax= 8.13D-06  0.00D+00 EMaxC= 1.00D-01 BMatC= 7.27D-09 BMatP= 1.32D-07
 IDIUse=1 WtCom= 1.00D+00 WtEn= 0.00D+00
 Coeff-Com: -0.338D-01 0.188D+00 0.277D+00 0.569D+00
 Coeff:     -0.338D-01 0.188D+00 0.277D+00 0.569D+00
 Gap=     0.422 Goal=   None    Shift=    0.000
 RMSDP=2.17D-07 MaxDP=1.34D-05 DE=-8.94D-08 OVMax= 3.50D-05

 Cycle  11  Pass 1  IDiag  1:
 E= -764.543414903315     Delta-E=       -0.000000006694 Rises=F Damp=F
 DIIS: error= 2.22D-06 at cycle   5 NSaved=   5.
 NSaved= 5 IEnMin= 5 EnMin= -764.543414903315     IErMin= 5 ErrMin= 2.22D-06
 ErrMax= 2.22D-06  0.00D+00 EMaxC= 1.00D-01 BMatC= 1.30D-09 BMatP= 7.27D-09
 IDIUse=1 WtCom= 1.00D+00 WtEn= 0.00D+00
 Coeff-Com: -0.838D-03-0.752D-01-0.108D+00 0.206D+00 0.978D+00
 Coeff:     -0.838D-03-0.752D-01-0.108D+00 0.206D+00 0.978D+00
 Gap=     0.422 Goal=   None    Shift=    0.000
 RMSDP=1.52D-07 MaxDP=7.16D-06 DE=-6.69D-09 OVMax= 3.49D-05

 Cycle  12  Pass 1  IDiag  1:
 E= -764.543414905421     Delta-E=       -0.000000002106 Rises=F Damp=F
 DIIS: error= 6.04D-07 at cycle   6 NSaved=   6.
 NSaved= 6 IEnMin= 6 EnMin= -764.543414905421     IErMin= 6 ErrMin= 6.04D-07
 ErrMax= 6.04D-07  0.00D+00 EMaxC= 1.00D-01 BMatC= 1.47D-10 BMatP= 1.30D-09
 IDIUse=1 WtCom= 1.00D+00 WtEn= 0.00D+00
 Coeff-Com:  0.488D-02-0.605D-01-0.906D-01 0.105D-01 0.403D+00 0.733D+00
 Coeff:      0.488D-02-0.605D-01-0.906D-01 0.105D-01 0.403D+00 0.733D+00
 Gap=     0.422 Goal=   None    Shift=    0.000
 RMSDP=4.73D-08 MaxDP=2.33D-06 DE=-2.11D-09 OVMax= 1.07D-05

 Cycle  13  Pass 1  IDiag  1:
 E= -764.543414905645     Delta-E=       -0.000000000224 Rises=F Damp=F
 DIIS: error= 1.73D-07 at cycle   7 NSaved=   7.
 NSaved= 7 IEnMin= 7 EnMin= -764.543414905645     IErMin= 7 ErrMin= 1.73D-07
 ErrMax= 1.73D-07  0.00D+00 EMaxC= 1.00D-01 BMatC= 8.09D-12 BMatP= 1.47D-10
 IDIUse=1 WtCom= 1.00D+00 WtEn= 0.00D+00
 Coeff-Com:  0.149D-02-0.122D-01-0.189D-01-0.118D-01 0.444D-01 0.214D+00
 Coeff-Com:  0.783D+00
 Coeff:      0.149D-02-0.122D-01-0.189D-01-0.118D-01 0.444D-01 0.214D+00
 Coeff:      0.783D+00
 Gap=     0.422 Goal=   None    Shift=    0.000
 RMSDP=1.24D-08 MaxDP=5.41D-07 DE=-2.24D-10 OVMax= 2.09D-06

 Cycle  14  Pass 1  IDiag  1:
 E= -764.543414905610     Delta-E=        0.000000000035 Rises=F Damp=F
 DIIS: error= 4.96D-08 at cycle   8 NSaved=   8.
 NSaved= 8 IEnMin= 7 EnMin= -764.543414905645     IErMin= 8 ErrMin= 4.96D-08
 ErrMax= 4.96D-08  0.00D+00 EMaxC= 1.00D-01 BMatC= 1.67D-12 BMatP= 8.09D-12
 IDIUse=1 WtCom= 1.00D+00 WtEn= 0.00D+00
 Coeff-Com: -0.933D-04 0.366D-02 0.518D-02-0.656D-02-0.395D-01-0.157D-01
 Coeff-Com:  0.330D+00 0.723D+00
 Coeff:     -0.933D-04 0.366D-02 0.518D-02-0.656D-02-0.395D-01-0.157D-01
 Coeff:      0.330D+00 0.723D+00
 Gap=     0.422 Goal=   None    Shift=    0.000
 RMSDP=4.68D-09 MaxDP=1.66D-07 DE= 3.55D-11 OVMax= 6.75D-07

 SCF Done:  E(RM062X) =  -764.543414906     A.U. after   14 cycles
            NFock= 14  Conv=0.47D-08     -V/T= 2.0031
 KE= 7.621830129168D+02 PE=-3.094290708461D+03 EE= 9.261857975675D+02
 Leave Link  502 at Sat May 24 03:05:06 2025, MaxMem=  3758096384 cpu:             109.6 elap:              24.8
 (Enter /apps/easybuild-2022/easybuild/software/Compiler/NVHPC/22.11-CUDA-11.7.0/Gaussian/g16c01-CUDA-11.7.0/g16/l508.exe)
 QCSCF skips out because SCF is already converged.
 Leave Link  508 at Sat May 24 03:05:06 2025, MaxMem=  3758096384 cpu:               0.0 elap:               0.0
 (Enter /apps/easybuild-2022/easybuild/software/Compiler/NVHPC/22.11-CUDA-11.7.0/Gaussian/g16c01-CUDA-11.7.0/g16/l801.exe)
 DoSCS=F DFT=T ScalE2(SS,OS)=  1.000000  1.000000
 Range of M.O.s used for correlation:     1   324
 NBasis=   324 NAE=    40 NBE=    40 NFC=     0 NFV=     0
 NROrb=    324 NOA=    40 NOB=    40 NVA=   284 NVB=   284

 **** Warning!!: The largest alpha MO coefficient is  0.18446008D+02

 Leave Link  801 at Sat May 24 03:05:06 2025, MaxMem=  3758096384 cpu:               0.0 elap:               0.0
 (Enter /apps/easybuild-2022/easybuild/software/Compiler/NVHPC/22.11-CUDA-11.7.0/Gaussian/g16c01-CUDA-11.7.0/g16/l1101.exe)
 Using compressed storage, NAtomX=    11.
 Will process     12 centers per pass.
   1 Symmetry operations used in ECPInt.
 ECPInt:  NShTT=    6786 NPrTT=   21959 LenC2=    6497 LenP2D=   16051.
 LDataN:  DoStor=T MaxTD1= 7 Len=  274
 Leave Link 1101 at Sat May 24 03:05:07 2025, MaxMem=  3758096384 cpu:               0.9 elap:               0.2
 (Enter /apps/easybuild-2022/easybuild/software/Compiler/NVHPC/22.11-CUDA-11.7.0/Gaussian/g16c01-CUDA-11.7.0/g16/l1102.exe)
 Symmetrizing basis deriv contribution to polar:
 IMax=3 JMax=2 DiffMx= 0.00D+00
 Leave Link 1102 at Sat May 24 03:05:07 2025, MaxMem=  3758096384 cpu:               0.1 elap:               0.0
 (Enter /apps/easybuild-2022/easybuild/software/Compiler/NVHPC/22.11-CUDA-11.7.0/Gaussian/g16c01-CUDA-11.7.0/g16/l1110.exe)
 Forming Gx(P) for the SCF density, NAtomX=    11.
 Integral derivatives from FoFJK, PRISM(SPDF).
 Do as many integral derivatives as possible in FoFJK.
 G2DrvN: MDV=    3758095115.
 G2DrvN: will do    12 centers at a time, making    1 passes.
 Calling FoFCou, ICntrl=  3107 FMM=F I1Cent=   0 AccDes= 0.00D+00.
 FoFJK:  IHMeth= 1 ICntrl=    3107 DoSepK=F KAlg= 0 I1Cent=           0 FoldK=F
 IRaf=         0 NMat=       1 IRICut=       1 DoRegI=T DoRafI=F ISym2E= 0 IDoP0=0 IntGTp=1.
 FoFCou: FMM=F IPFlag=           0 FMFlag=      100000 FMFlg1=           0
         NFxFlg=           0 DoJE=F BraDBF=F KetDBF=F FulRan=T
         wScrn=  0.000000 ICntrl=      3107 IOpCl=  0 I1Cent=           0 NGrid=           0
         NMat0=    1 NMatS0=      1 NMatT0=    0 NMatD0=    1 NMtDS0=    0 NMtDT0=    0
 Symmetry not used in FoFCou.
 End of G2Drv F.D. properties file   721 does not exist.
 End of G2Drv F.D. properties file   722 does not exist.
 End of G2Drv F.D. properties file   788 does not exist.
 Leave Link 1110 at Sat May 24 03:05:48 2025, MaxMem=  3758096384 cpu:             329.4 elap:              41.5
 (Enter /apps/easybuild-2022/easybuild/software/Compiler/NVHPC/22.11-CUDA-11.7.0/Gaussian/g16c01-CUDA-11.7.0/g16/l1002.exe)
 Minotr:  Closed shell wavefunction.
          IDoAtm=11111111111
          Direct CPHF calculation.
          Differentiating once with respect to electric field.
                with respect to dipole field.
          Differentiating once with respect to nuclear coordinates.
          Requested convergence is 1.0D-08 RMS, and 1.0D-07 maximum.
          Secondary convergence is 1.0D-12 RMS, and 1.0D-12 maximum.
          NewPWx=T KeepS1=F KeepF1=F KeepIn=T MapXYZ=F SortEE=F KeepMc=T.
         3300 words used for storage of precomputed grid.
 Keep R1 ints in memory in canonical form, NReq=1412622530.
 FoFCou: FMM=F IPFlag=           0 FMFlag=           0 FMFlg1=           0
         NFxFlg=           0 DoJE=F BraDBF=F KetDBF=F FulRan=T
         wScrn=  0.000000 ICntrl=       600 IOpCl=  0 I1Cent=           0 NGrid=           0
         NMat0=    1 NMatS0=  52650 NMatT0=    0 NMatD0=    1 NMtDS0=    0 NMtDT0=    0
 Symmetry not used in FoFCou.
 Two-electron integral symmetry not used.
          MDV=    3758096384 using IRadAn=       1.
          Solving linear equations simultaneously, MaxMat=       0.
          There are    36 degrees of freedom in the 1st order CPHF.  IDoFFX=6 NUNeed=     3.
     33 vectors produced by pass  0 Test12= 3.16D-14 2.78D-09 XBig12= 1.71D+01 1.42D+00.
 AX will form    33 AO Fock derivatives at one time.
     33 vectors produced by pass  1 Test12= 3.16D-14 2.78D-09 XBig12= 2.72D+00 3.13D-01.
     33 vectors produced by pass  2 Test12= 3.16D-14 2.78D-09 XBig12= 5.57D-02 3.17D-02.
     33 vectors produced by pass  3 Test12= 3.16D-14 2.78D-09 XBig12= 1.28D-03 3.86D-03.
     33 vectors produced by pass  4 Test12= 3.16D-14 2.78D-09 XBig12= 1.58D-05 5.05D-04.
     33 vectors produced by pass  5 Test12= 3.16D-14 2.78D-09 XBig12= 1.34D-07 4.42D-05.
     33 vectors produced by pass  6 Test12= 3.16D-14 2.78D-09 XBig12= 7.90D-10 3.63D-06.
     15 vectors produced by pass  7 Test12= 3.16D-14 2.78D-09 XBig12= 3.64D-12 2.51D-07.
      3 vectors produced by pass  8 Test12= 3.16D-14 2.78D-09 XBig12= 1.64D-14 1.60D-08.
 InvSVY:  IOpt=1 It=  1 EMax= 2.66D-15
 Solved reduced A of dimension   249 with    36 vectors.
 FullF1:  Do perturbations      1 to       3.
 Isotropic polarizability for W=    0.000000       43.51 Bohr**3.
 End of Minotr F.D. properties file   721 does not exist.
 End of Minotr F.D. properties file   722 does not exist.
 End of Minotr F.D. properties file   788 does not exist.
 Leave Link 1002 at Sat May 24 03:06:50 2025, MaxMem=  3758096384 cpu:             485.4 elap:              61.6
 (Enter /apps/easybuild-2022/easybuild/software/Compiler/NVHPC/22.11-CUDA-11.7.0/Gaussian/g16c01-CUDA-11.7.0/g16/l701.exe)
 ... and contract with generalized density number  0.
 Compute integral second derivatives.
   1 Symmetry operations used in ECPInt.
 ECPInt:  NShTT=    6786 NPrTT=   21959 LenC2=    6497 LenP2D=   16051.
 LDataN:  DoStor=T MaxTD1= 8 Len=  415
 Leave Link  701 at Sat May 24 03:06:50 2025, MaxMem=  3758096384 cpu:               0.7 elap:               0.1
 (Enter /apps/easybuild-2022/easybuild/software/Compiler/NVHPC/22.11-CUDA-11.7.0/Gaussian/g16c01-CUDA-11.7.0/g16/l702.exe)
 L702 exits ... SP integral derivatives will be done elsewhere.
 Leave Link  702 at Sat May 24 03:06:50 2025, MaxMem=  3758096384 cpu:               0.0 elap:               0.0
 (Enter /apps/easybuild-2022/easybuild/software/Compiler/NVHPC/22.11-CUDA-11.7.0/Gaussian/g16c01-CUDA-11.7.0/g16/l703.exe)
 Integral derivatives from FoFJK, PRISM(SPDF).
 Compute integral second derivatives, UseDBF=F ICtDFT=           0.
 Calling FoFJK, ICntrl=    100127 FMM=F ISym2X=0 I1Cent= 0 IOpClX= 0 NMat=1 NMatS=1 NMatT=0.
 FoFJK:  IHMeth= 1 ICntrl=  100127 DoSepK=F KAlg= 0 I1Cent=           0 FoldK=F
 IRaf=         0 NMat=       1 IRICut=       1 DoRegI=T DoRafI=F ISym2E= 0 IDoP0=0 IntGTp=1.
 FoFCou: FMM=F IPFlag=           0 FMFlag=      100000 FMFlg1=         800
         NFxFlg=           0 DoJE=F BraDBF=F KetDBF=F FulRan=T
         wScrn=  0.000000 ICntrl=    100127 IOpCl=  0 I1Cent=           0 NGrid=           0
         NMat0=    1 NMatS0=      1 NMatT0=    0 NMatD0=    1 NMtDS0=    0 NMtDT0=    0
 Symmetry not used in FoFCou.
 Leave Link  703 at Sat May 24 03:08:23 2025, MaxMem=  3758096384 cpu:             742.5 elap:              93.4
 (Enter /apps/easybuild-2022/easybuild/software/Compiler/NVHPC/22.11-CUDA-11.7.0/Gaussian/g16c01-CUDA-11.7.0/g16/l716.exe)
 Dipole        =-1.83317969D-01 1.48319638D-01-2.34274404D-01
 Polarizability= 3.96061836D+01 2.48749780D+00 4.68440878D+01
                 3.30123595D+00-1.04478599D+00 4.40881469D+01
 -------------------------------------------------------------------
 Center     Atomic                   Forces (Hartrees/Bohr)
 Number     Number              X              Y              Z
 -------------------------------------------------------------------
      1        6           0.050030000   -0.073653770    0.183829830
      2        8          -0.022627042   -0.009210433   -0.038672968
      3        6          -0.002800757    0.003635998    0.011925098
      4        6           0.022169417   -0.034254205   -0.002064662
      5        9          -0.008640677    0.007567645    0.015344817
      6        9          -0.017289970    0.007410243   -0.005257371
      7        9           0.000176305    0.020416001   -0.002676324
      8        9           0.011115684   -0.000268204   -0.007514895
      9        9          -0.003824357   -0.008484766   -0.010648877
     10        8          -0.020406387   -0.023897021   -0.016453910
     11        1          -0.007902216    0.110738511   -0.127810735
 -------------------------------------------------------------------
 Cartesian Forces:  Max     0.183829830 RMS     0.048341697
 Force constants in Cartesian coordinates: 
                1             2             3             4             5 
      1  0.349588D+00
      2  0.183240D+00  0.723454D+00
      3  0.286209D+00 -0.143143D+00  0.937861D+00
      4 -0.222199D+00 -0.986575D-01 -0.291517D+00  0.247239D+00
      5 -0.135976D+00 -0.166985D+00 -0.203683D+00  0.188881D+00  0.228100D+00
      6 -0.257817D+00 -0.121565D+00 -0.543328D+00  0.337801D+00  0.231049D+00
      7 -0.825983D-01  0.229040D-01  0.150218D-01  0.441182D-02 -0.173350D-02
      8  0.336546D-01 -0.115183D+00  0.375408D-01 -0.143914D-01  0.120778D-01
      9 -0.294336D-02  0.619603D-01 -0.136379D+00 -0.926546D-02  0.107339D-01
     10  0.123726D-01  0.170207D-01 -0.140923D-01 -0.231685D-02 -0.608908D-02
     11  0.169325D-01 -0.195159D-01  0.190971D-01 -0.331533D-02 -0.102290D-02
     12 -0.178973D-01  0.240397D-01  0.265969D-01  0.634066D-05 -0.686219D-02
     13 -0.426177D-02 -0.551106D-03  0.715528D-02  0.380949D-03  0.645554D-03
     14  0.370672D-02 -0.125550D-03 -0.103047D-01  0.196094D-03  0.879938D-04
     15 -0.103725D-02 -0.186248D-02  0.191772D-02  0.234728D-03  0.117989D-02
     16 -0.225753D-02 -0.259799D-02 -0.121451D-02  0.854541D-03  0.271249D-02
     17 -0.454946D-03  0.190338D-02 -0.505137D-02  0.165929D-02 -0.993856D-03
     18 -0.826577D-04 -0.221737D-02 -0.767889D-02  0.106073D-02  0.320024D-02
     19 -0.271754D-02 -0.413845D-02  0.363210D-02  0.667645D-03  0.220769D-02
     20 -0.307001D-02 -0.201200D-03 -0.150209D-02  0.902929D-03  0.794040D-03
     21  0.155994D-02 -0.289741D-03 -0.401441D-02 -0.204702D-03  0.171446D-03
     22  0.308597D-03 -0.100918D-01 -0.102144D-01  0.499598D-03  0.371920D-02
     23 -0.263876D-02  0.286327D-02  0.797559D-02  0.356388D-02  0.246539D-02
     24 -0.162356D-01 -0.308415D-01 -0.334171D-01 -0.227799D-02  0.974147D-02
     25 -0.178523D-01 -0.804327D-02 -0.145201D-02  0.612815D-02  0.245578D-02
     26 -0.339423D-01 -0.223498D-02  0.640880D-02  0.495433D-02  0.184654D-04
     27  0.349828D-01  0.712356D-02 -0.357529D-02 -0.284971D-02  0.975654D-03
     28 -0.163558D+00 -0.180127D+00 -0.531997D-02 -0.136709D-02 -0.645234D-01
     29 -0.142291D+00 -0.426514D+00  0.319517D-01 -0.457110D-01 -0.144163D-01
     30 -0.391760D-01 -0.483525D-01 -0.125462D+00 -0.452004D-01 -0.981695D-01
     31  0.133175D+00  0.810428D-01  0.117919D-01 -0.342988D-01  0.770008D-02
     32  0.808394D-01  0.253918D-02  0.260711D+00 -0.380821D-01 -0.601255D-01
     33  0.124370D-01  0.255149D+00 -0.112522D+00  0.122125D-01  0.516638D-01
                6             7             8             9            10 
      6  0.586545D+00
      7 -0.308197D-01  0.549863D+00
      8 -0.128457D-01  0.215563D-01  0.538127D+00
      9 -0.194787D-01 -0.179739D-01  0.146117D-01  0.594708D+00
     10  0.508467D-02 -0.103408D+00  0.699488D-01  0.258692D-01  0.602693D+00
     11 -0.670427D-02  0.810841D-01 -0.147162D+00 -0.224891D-01 -0.375891D-01
     12 -0.108409D-01  0.518272D-02  0.567859D-02 -0.674952D-01 -0.279848D-02
     13 -0.212039D-02 -0.194989D-02  0.167976D-01 -0.282478D-01 -0.995391D-01
     14  0.322995D-02  0.756241D-02 -0.207372D-01  0.397488D-01  0.464841D-01
     15  0.117774D-03 -0.202209D-02  0.698684D-02 -0.164787D-01 -0.559343D-01
     16  0.238517D-03  0.568719D-02  0.341129D-02  0.443920D-02 -0.101129D+00
     17  0.386040D-02 -0.254614D-01 -0.162320D-01 -0.231497D-01 -0.424729D-01
     18  0.408987D-02 -0.123814D-01 -0.142326D-01 -0.668580D-02 -0.420671D-01
[...]
     33  0.188352D-01  0.820979D-01 -0.538759D-01  0.123974D-01  0.178560D-01
                6             7             8             9            10 
      6  0.268082D+00
      7 -0.273779D-01  0.569981D+00
      8  0.228529D-02  0.245013D-01  0.540879D+00
      9 -0.350585D-02 -0.141474D-01 -0.165887D-02  0.597611D+00
     10  0.505448D-02 -0.102215D+00  0.698766D-01  0.273233D-01  0.614025D+00
     11 -0.567724D-02  0.829677D-01 -0.132984D+00 -0.215838D-01 -0.151636D-01
     12 -0.867174D-02  0.605281D-02  0.744853D-02 -0.621167D-01 -0.124045D-02
     13 -0.189252D-02 -0.693737D-03  0.183326D-01 -0.221280D-01 -0.835177D-01
     14  0.357970D-02  0.340691D-02 -0.316710D-01  0.450028D-01  0.262004D-01
     15 -0.624122D-03  0.485651D-03  0.134753D-01 -0.179660D-01 -0.225327D-01
     16  0.239712D-03  0.672988D-02  0.498014D-02  0.786215D-02 -0.916168D-01
     17  0.197919D-02 -0.200295D-01 -0.138882D-01 -0.321797D-01 -0.206721D-01
     18  0.336444D-02 -0.145514D-01 -0.162064D-01 -0.177954D-01 -0.349800D-01
     19 -0.132558D-02 -0.381536D-01 -0.257436D-01  0.362833D-02 -0.301994D+00
     20  0.648800D-03  0.914825D-02  0.966575D-02 -0.325485D-02 -0.592842D-01
     21  0.893449D-03  0.101288D-01  0.227426D-02  0.413146D-02  0.447569D-01
     22 -0.164755D-02 -0.869631D-01 -0.354399D-01 -0.614586D-01  0.405235D-02
     23 -0.356413D-03 -0.273356D-01 -0.140337D+00 -0.105106D+00 -0.192316D-01
     24 -0.834920D-02 -0.448029D-01 -0.106471D+00 -0.246320D+00 -0.177870D-01
     25 -0.310175D-03 -0.272686D+00 -0.720165D-01  0.795881D-01 -0.425048D-01
     26 -0.641051D-03 -0.820936D-01 -0.105061D+00  0.370190D-01  0.100479D-01
     27  0.333024D-03  0.703229D-01  0.269216D-01 -0.101170D+00  0.105025D-01
     28 -0.195168D-01  0.259314D-02 -0.732313D-02 -0.452313D-02 -0.858410D-02
     29 -0.359637D-01 -0.203335D-01 -0.725805D-02 -0.240883D-02 -0.417491D-02
     30  0.792223D-01  0.996060D-02  0.170398D-01  0.533824D-02  0.347652D-02
     31 -0.628201D-01  0.309383D-02 -0.217546D-02 -0.192133D-02  0.381131D-02
     32 -0.402233D-01 -0.318835D-02  0.429080D-02  0.417170D-02  0.244802D-02
     33 -0.509118D-01 -0.351848D-02  0.659160D-02  0.270475D-03  0.157698D-02
               11            12            13            14            15 
     11  0.618910D+00
     12 -0.504921D-02  0.599568D+00
     13  0.225570D-01 -0.180384D-01  0.801601D-01
     14 -0.192338D+00  0.118224D+00 -0.641277D-02  0.216822D+00
     15  0.124100D+00 -0.211652D+00  0.153960D-01 -0.184127D+00  0.318150D+00
     16 -0.267303D-01 -0.413022D-01  0.844984D-02 -0.440145D-03 -0.205395D-01
     17 -0.168487D+00 -0.110297D+00  0.338684D-02  0.244152D-01  0.147207D-01
     18 -0.113541D+00 -0.220185D+00 -0.207404D-01 -0.338009D-02 -0.796264D-01
     19 -0.497008D-01  0.472860D-01 -0.622081D-02 -0.283583D-01  0.285191D-01
     20 -0.100265D+00  0.121671D-01 -0.410641D-01 -0.207667D-01  0.337051D-01
     21  0.100625D-01 -0.850725D-01  0.420030D-01  0.339734D-01 -0.203965D-01
     22  0.286091D-02  0.110457D-01  0.121350D-02 -0.767896D-03  0.103216D-02
     23 -0.176879D-01 -0.367261D-01  0.520641D-03  0.249833D-02  0.663638D-03
     24 -0.122955D-01 -0.244567D-01  0.292645D-02 -0.211166D-02  0.652922D-02
     25 -0.298256D-01  0.125792D-01  0.315270D-02  0.234378D-02 -0.119304D-02
     26  0.643100D-02 -0.595259D-02  0.124419D-02  0.369710D-02 -0.260677D-02
     27  0.110071D-01 -0.258917D-02 -0.139908D-02 -0.348224D-02  0.329638D-02
     28 -0.470170D-02  0.224493D-02  0.133038D-02 -0.108140D-04 -0.204479D-03
     29  0.303329D-02  0.100830D-03  0.921126D-03 -0.131293D-02  0.730789D-03
     30 -0.528137D-02 -0.649587D-02 -0.134587D-02  0.262943D-02 -0.409580D-03
     31  0.298397D-02  0.722648D-03 -0.416654D-03 -0.551871D-03  0.170756D-03
     32  0.148286D-02  0.604461D-03 -0.483188D-03  0.307763D-03 -0.389839D-03
     33  0.147626D-02 -0.128913D-02 -0.410146D-03  0.214391D-03  0.212645D-04
               16            17            18            19            20 
     16  0.111898D+00
     17  0.639245D-01  0.180883D+00
     18  0.897579D-01  0.154107D+00  0.313743D+00
     19 -0.375599D-01 -0.370161D-01 -0.259017D-01  0.392209D+00
     20 -0.473140D-01 -0.148747D-01 -0.151728D-01  0.130198D+00  0.127242D+00
     21 -0.396277D-01 -0.201243D-01  0.572096D-02 -0.610593D-01 -0.267417D-01
     22 -0.526210D-03  0.500100D-02  0.291735D-02  0.397557D-02  0.202457D-02
     23  0.451571D-02 -0.981577D-02 -0.640574D-02  0.398895D-02  0.142802D-02
     24  0.364642D-02 -0.624062D-02 -0.236911D-02  0.295700D-02  0.761949D-03
     25  0.332470D-02  0.515641D-02  0.239179D-02 -0.117096D-01  0.641682D-02
     26  0.129375D-02  0.180602D-02  0.146942D-02  0.615731D-02 -0.938590D-03
     27  0.346254D-03  0.370606D-03  0.152175D-02  0.340778D-02 -0.216459D-02
     28  0.183209D-02  0.104942D-02  0.134681D-02  0.303018D-02  0.372253D-02
     29  0.761335D-03 -0.437757D-03 -0.799248D-04  0.279970D-02 -0.114957D-02
     30  0.126573D-03  0.146893D-02  0.227990D-02 -0.194745D-02  0.137245D-02
     31 -0.114499D-02 -0.536453D-03 -0.106542D-02 -0.171002D-02 -0.138231D-02
     32 -0.649414D-03 -0.366858D-03 -0.104130D-02 -0.858321D-03 -0.793322D-03
     33 -0.171191D-03 -0.367623D-03 -0.224410D-03 -0.603710D-03 -0.791485D-03
               21            22            23            24            25 
     21  0.947838D-01
     22  0.503177D-03  0.113854D+00
     23  0.153898D-02  0.724107D-01  0.172877D+00
     24  0.175970D-02  0.960964D-01  0.156497D+00  0.296726D+00
     25  0.293280D-02 -0.355643D-01 -0.362951D-01 -0.218958D-01  0.367314D+00
     26 -0.827941D-03 -0.416914D-01 -0.188904D-01 -0.104975D-01  0.136449D+00
     27  0.760025D-04 -0.348091D-01 -0.181085D-01  0.126642D-01 -0.817568D-01
     28 -0.193843D-02  0.192726D-02  0.300408D-02  0.204012D-02  0.504486D-02
     29  0.113885D-03  0.249204D-02  0.210062D-02  0.410693D-02 -0.168009D-02
     30  0.951780D-03  0.140976D-02  0.178342D-02  0.218914D-02  0.720452D-02
     31  0.528874D-03 -0.242965D-02 -0.170589D-02 -0.424682D-02 -0.454762D-02
     32  0.160836D-03 -0.312738D-04 -0.114780D-02 -0.122707D-02 -0.288647D-02
     33  0.342253D-03 -0.403246D-03 -0.152946D-02 -0.171301D-03 -0.911619D-03
               26            27            28            29            30 
     26  0.127975D+00
     27 -0.356770D-01  0.969397D-01
     28  0.296303D-02 -0.117439D-02  0.438600D+00
     29 -0.500948D-02  0.665266D-02  0.330301D+00  0.358216D+00
     30  0.738824D-02 -0.676932D-02 -0.391959D-01 -0.570971D-01  0.864022D-01
     31 -0.221488D-02  0.172547D-02 -0.159363D-01 -0.423863D-01  0.735876D-01
     32 -0.209864D-02  0.821727D-03  0.205799D-01 -0.562089D-01  0.383349D-01
     33 -0.140849D-02  0.142092D-02 -0.147970D-02 -0.202542D-01 -0.180080D-01
               31            32            33 
     31 -0.834881D-01
     32 -0.785150D-01  0.539481D-01
     33 -0.253115D-01 -0.838849D-01  0.122426D+00
 Red2BG is reusing G-inverse.
 Leave Link  716 at Sat May 24 04:06:34 2025, MaxMem=  3758096384 cpu:               0.0 elap:               0.0
 (Enter /apps/easybuild-2022/easybuild/software/Compiler/NVHPC/22.11-CUDA-11.7.0/Gaussian/g16c01-CUDA-11.7.0/g16/l9999.exe)

 ----------------------------------------------------------------------

 Electric dipole moment (input orientation):
 (Debye = 10**-18 statcoulomb cm , SI units = C m)
                  (au)            (Debye)         (10**-30 SI)
   Tot        0.189068D+00      0.480562D+00      0.160298D+01
   x         -0.141271D-01     -0.359076D-01     -0.119775D+00
   y          0.112081D+00      0.284883D+00      0.950266D+00
   z         -0.151607D+00     -0.385347D+00     -0.128538D+01

 Dipole polarizability, Alpha (input orientation).
 (esu units = cm**3 , SI units = C**2 m**2 J**-1)
 Alpha(0;0):
               (au)            (10**-24 esu)      (10**-40 SI)
   iso        0.442719D+02      0.656042D+01      0.729945D+01
   aniso      0.112504D+02      0.166713D+01      0.185494D+01
   xx         0.445397D+02      0.660011D+01      0.734361D+01
   yx         0.247115D+01      0.366187D+00      0.407438D+00
   yy         0.441694D+02      0.654523D+01      0.728255D+01
   zx         0.363745D+01      0.539015D+00      0.599735D+00
   zy        -0.477471D+01     -0.707540D+00     -0.787244D+00
   zz         0.441065D+02      0.653591D+01      0.727218D+01

 ----------------------------------------------------------------------

 Dipole orientation:
     6          2.72833177          0.88666801          1.77323934
     8          1.03327431          1.94766891          3.04379744
     6          2.82510386          0.90408026         -1.10898921
     6          4.68973966          2.92128647         -2.10563619
     9          4.61806412          2.96590848         -4.60167371
     9          4.03705153          5.17441888         -1.21976357
     9          7.01624434          2.39260334         -1.35699586
     9          3.57820792         -1.35746909         -1.94438130
     9          0.53850886          1.41852491         -2.03860260
     8          4.36773344         -0.16449369          3.12634129
     1          2.66499243          0.89384829          4.56173572

 Electric dipole moment (dipole orientation):
 (Debye = 10**-18 statcoulomb cm , SI units = C m)
                  (au)            (Debye)         (10**-30 SI)
   Tot        0.189068D+00      0.480562D+00      0.160298D+01
   x          0.000000D+00      0.000000D+00      0.000000D+00
   y          0.000000D+00      0.000000D+00      0.000000D+00
   z          0.189068D+00      0.480562D+00      0.160298D+01

 Dipole polarizability, Alpha (dipole orientation).
 (esu units = cm**3 , SI units = C**2 m**2 J**-1)
 Alpha(0;0):
               (au)            (10**-24 esu)      (10**-40 SI)
   iso        0.442719D+02      0.656042D+01      0.729945D+01
   aniso      0.112504D+02      0.166713D+01      0.185494D+01
   xx         0.441339D+02      0.653996D+01      0.727669D+01
   yx        -0.435695D+01     -0.645634D+00     -0.718364D+00
   yy         0.397944D+02      0.589692D+01      0.656121D+01
   zx        -0.115729D+01     -0.171493D+00     -0.190812D+00
   zy        -0.108778D+01     -0.161192D+00     -0.179350D+00
   zz         0.488874D+02      0.724436D+01      0.806044D+01

 ----------------------------------------------------------------------
 Unable to Open any file for archive entry.
 1\1\GINC-SPARTAN-BM209\Freq\RM062X\def2TZVPP\C3H1F5O2\AKHALILOV\24-May
 -2025\0\\#P M062X/Def2TZVPP Symm(None) scf(xqc) pop(None) opt(NoFreeze
 ,TS,CalcAll,NoEigentest,MaxCycle=999)\\Gaussian input prepared by ASE\
 \0,1\C,1.3576490038,0.2140680246,-1.1384669822\O,0.3994023102,0.138640
 8636,-1.9434185803\C,1.5224371035,-0.6962525483,0.0752599933\C,2.51926
 89424,-1.8439151671,-0.2083635588\F,2.5795705872,-2.6468684511,0.83961
 57057\F,2.1106137083,-2.534270996,-1.2652717009\F,3.7238636551,-1.3535
 97231,-0.4521750712\F,1.9821789976,0.0148307817,1.1094176981\F,0.34623
 71712,-1.2367578646,0.3987523964\O,2.18266732,1.1076287559,-1.44769862
 14\H,1.2138842008,1.0849438324,-2.3214572786\\Version=ES64L-G16RevC.01
 \HF=-764.6051268\RMSD=6.521e-09\RMSF=1.473e-06\ZeroPoint=0.0481029\The
 rmal=0.0568743\ETot=-764.5482525\HTot=-764.5473083\GTot=-764.5932456\D
 ipole=-0.0141271,0.1120815,-0.151607\DipoleDeriv=1.1299077,0.426571,0.
 2783737,0.3750722,0.7985538,-0.1644731,0.3817422,-0.311399,0.7611748,-
 0.9328368,-0.2612742,-0.2371533,-0.1755688,-0.5505565,0.0939532,-0.366
 1648,0.047457,-0.6373712,1.0429036,0.2834914,-0.0665291,0.2512813,0.83
 21139,0.1647997,-0.0144887,0.1032468,1.0989945,1.4981993,0.0127446,0.1
 439429,0.0830097,1.5574018,-0.1771967,0.0150685,-0.0067481,1.5593541,-
 0.3062853,0.1094531,-0.0782271,0.0781997,-0.6178658,0.384972,-0.023252
 5,0.3006383,-0.6681956,-0.3390154,-0.0147381,-0.1081187,-0.0676582,-0.
 5231694,-0.2674529,-0.1427572,-0.2501042,-0.6426293,-0.8182949,-0.1555
 656,0.0845569,-0.0902207,-0.3813846,0.037341,0.1093729,0.0368369,-0.28
 83099,-0.3092221,-0.0549679,-0.1072168,-0.0864533,-0.4355873,-0.222218
 2,-0.1698385,-0.2199187,-0.6633918,-0.7016296,-0.2063269,0.1394996,-0.
 1557591,-0.3744802,0.067924,0.1748643,0.1074459,-0.3350912,-0.8770644,
 -0.3082894,-0.1519726,-0.3835827,-0.7152126,0.0768074,-0.0646702,0.182
 6687,-0.536681,0.6133377,0.168902,0.1028445,0.1716799,0.4101869,0.0055
 437,0.100124,0.0098764,0.3521465\Polar=44.5397422,2.4711548,44.1693977
 ,3.637451,-4.7747133,44.1065066\PG=Unknown\NImag=1\\0.65247139,0.18700
 602,0.57887695,0.17086829,-0.23962322,0.66479547,-0.37716978,-0.030869
 57,-0.24021069,0.52015420,-0.07422558,-0.12231269,-0.01722514,0.113610
 80,0.09823784,-0.18792675,0.02214239,-0.27983213,0.29752320,0.05222634
 ,0.26808168,-0.07527950,0.02459328,0.00744748,-0.00640721,0.00836322,-
 0.02737793,0.56998115,0.03516256,-0.13224113,0.04830024,-0.01015461,0.
 00860515,0.00228529,0.02450128,0.54087891,-0.01043151,0.07178298,-0.15
 847731,-0.00379191,0.00821539,-0.00350585,-0.01414742,-0.00165887,0.59
 761125,0.01235021,0.01673540,-0.01615052,-0.00380622,-0.00678184,0.005
 05448,-0.10221473,0.06987657,0.02732328,0.61402456,0.01952222,-0.01663
 137,0.01678233,-0.00476973,-0.00146419,-0.00567724,0.08296766,-0.13298
 409,-0.02158384,-0.01516360,0.61891016,-0.01950255,0.02081427,0.022959
 89,0.00015226,-0.00133376,-0.00867174,0.00605281,0.00744853,-0.0621167
 1,-0.00124045,-0.00504921,0.59956847,-0.00402878,-0.00017272,0.0056288
 9,0.00057115,0.00117045,-0.00189252,-0.00069374,0.01833258,-0.02212802
 ,-0.08351765,0.02255697,-0.01803835,0.08016005,0.00385461,-0.00077261,
 -0.01052200,0.00073609,-0.00087895,0.00357970,0.00340691,-0.03167100,0
 .04500283,0.02620044,-0.19233849,0.11822369,-0.00641277,0.21682226,-0.
 00076021,-0.00098004,0.00267703,-0.00037383,0.00070852,-0.00062412,0.0
 0048565,0.01347529,-0.01796601,-0.02253266,0.12410011,-0.21165171,0.01
 539598,-0.18412747,0.31815044,-0.00241434,-0.00246622,-0.00033852,0.00
 102791,0.00212469,0.00023971,0.00672988,0.00498014,0.00786215,-0.09161
 676,-0.02673033,-0.04130218,0.00844984,-0.00044015,-0.02053946,0.11189
 779,-0.00164422,0.00146777,-0.00343697,0.00138026,-0.00070229,0.001979
 19,-0.02002946,-0.01388817,-0.03217974,-0.02067211,-0.16848669,-0.1102
 9721,0.00338684,0.02441522,0.01472068,0.06392445,0.18088327,-0.0005561
 1,-0.00124998,-0.00643025,0.00138114,0.00150084,0.00336444,-0.01455144
 ,-0.01620638,-0.01779544,-0.03498001,-0.11354116,-0.22018476,-0.020740
 36,-0.00338009,-0.07962642,0.08975791,0.15410709,0.31374332,-0.0038061
 0,-0.00403764,0.00503945,0.00193933,0.00257106,-0.00132558,-0.03815365
 ,-0.02574356,0.00362833,-0.30199413,-0.04970077,0.04728599,-0.00622081
 ,-0.02835834,0.02851913,-0.03755991,-0.03701614,-0.02590167,0.39220918
 ,-0.00438751,-0.00091412,-0.00053007,0.00192222,0.00136579,0.00064880,
 0.00914825,0.00966575,-0.00325485,-0.05928421,-0.10026463,0.01216712,-
 0.04106413,-0.02076669,0.03370508,-0.04731398,-0.01487474,-0.01517276,
 0.13019775,0.12724211,0.00247043,0.00015963,-0.00319043,-0.00069859,-0
 .00058959,0.00089345,0.01012879,0.00227426,0.00413146,0.04475687,0.010
 06253,-0.08507251,0.04200302,0.03397343,-0.02039650,-0.03962768,-0.020
 12434,0.00572096,-0.06105926,-0.02674167,0.09478384,-0.00129763,-0.010
 73063,-0.01468612,0.00175785,0.00387184,-0.00164755,-0.08696311,-0.035
 43985,-0.06145856,0.00405235,0.00286091,0.01104570,0.00121350,-0.00076
 790,0.00103216,-0.00052621,0.00500100,0.00291735,0.00397557,0.00202457
 ,0.00050318,0.11385437,-0.00318055,0.00814046,0.00774863,0.00330870,0.
 00083438,-0.00035641,-0.02733564,-0.14033728,-0.10510573,-0.01923163,-
 0.01768786,-0.03672615,0.00052064,0.00249833,0.00066364,0.00451571,-0.
 00981577,-0.00640574,0.00398895,0.00142802,0.00153898,0.07241072,0.172
 87730,-0.01845329,-0.03238545,-0.03820243,-0.00048059,0.00986293,-0.00
 834920,-0.04480291,-0.10647133,-0.24631977,-0.01778699,-0.01229553,-0.
 02445674,0.00292645,-0.00211166,0.00652922,0.00364642,-0.00624062,-0.0
 0236911,0.00295700,0.00076195,0.00175970,0.09609642,0.15649730,0.29672
 633,-0.01879256,-0.01116714,0.00137098,0.00696860,0.00350446,-0.000310
 17,-0.27268608,-0.07201652,0.07958811,-0.04250484,-0.02982560,0.012579
 19,0.00315270,0.00234378,-0.00119304,0.00332470,0.00515641,0.00239179,
 -0.01170965,0.00641682,0.00293280,-0.03556431,-0.03629509,-0.02189579,
 0.36731419,-0.03520213,-0.00866214,0.01173465,0.00304647,0.00075117,-0
 .00064105,-0.08209364,-0.10506090,0.03701896,0.01004787,0.00643100,-0.
 00595259,0.00124419,0.00369710,-0.00260677,0.00129375,0.00180602,0.001
 46942,0.00615731,-0.00093859,-0.00082794,-0.04169142,-0.01889039,-0.01
 049746,0.13644944,0.12797486,0.03369576,0.01347535,-0.00572312,-0.0008
 6130,0.00018321,0.00033302,0.07032285,0.02692159,-0.10117035,0.0105025
 0,0.01100713,-0.00258917,-0.00139908,-0.00348224,0.00329638,0.00034625
 ,0.00037061,0.00152175,0.00340778,-0.00216459,0.00007600,-0.03480908,-
 0.01810847,0.01266416,-0.08175678,-0.03567697,0.09693972,-0.31539026,-
 0.23547741,0.06240094,-0.11444676,-0.11410669,-0.01951678,0.00259314,-
 0.00732313,-0.00452313,-0.00858410,-0.00470170,0.00224493,0.00133038,-
 0.00001081,-0.00020448,0.00183209,0.00104942,0.00134681,0.00303018,0.0
 0372253,-0.00193843,0.00192726,0.00300408,0.00204012,0.00504486,0.0029
 6303,-0.00117439,0.43859954,-0.19329178,-0.31678927,0.10409873,-0.0754
 0838,0.02481595,-0.03596374,-0.02033352,-0.00725805,-0.00240883,-0.004
 17491,0.00303329,0.00010083,0.00092113,-0.00131293,0.00073079,0.000761
 33,-0.00043776,-0.00007992,0.00279970,-0.00114957,0.00011388,0.0024920
 4,0.00210062,0.00410693,-0.00168009,-0.00500948,0.00665266,0.33030079,
 0.35821610,0.01176074,0.06376617,-0.14470078,-0.06503711,-0.07140477,0
 .07922229,0.00996060,0.01703978,0.00533824,0.00347652,-0.00528137,-0.0
 0649587,-0.00134587,0.00262943,-0.00040958,0.00012657,0.00146893,0.002
 27990,-0.00194745,0.00137245,0.00095178,0.00140976,0.00178342,0.002189
 14,0.00720452,0.00738824,-0.00676932,-0.03919590,-0.05709714,0.0864021
 7,0.13335733,0.06658664,0.01862983,-0.03058908,0.05989759,-0.06282011,
 0.00309383,-0.00217546,-0.00192133,0.00381131,0.00298397,0.00072265,-0
 .00041665,-0.00055187,0.00017076,-0.00114499,-0.00053645,-0.00106542,-
 0.00171002,-0.00138231,0.00052887,-0.00242965,-0.00170589,-0.00424682,
 -0.00454762,-0.00221488,0.00172547,-0.01593634,-0.04238633,0.07358763,
 -0.08348811,0.06638638,0.00983814,0.08267281,-0.00280226,-0.00925215,-
 0.04022327,-0.00318835,0.00429080,0.00417170,0.00244802,0.00148286,0.0
 0060446,-0.00048319,0.00030776,-0.00038984,-0.00064941,-0.00036686,-0.
 00104130,-0.00085832,-0.00079332,0.00016084,-0.00003127,-0.00114780,-0
 .00122707,-0.00288647,-0.00209864,0.00082173,0.02057989,-0.05620890,0.
 03833486,-0.07851501,0.05394811,0.01883521,0.08209790,-0.05387593,0.01
 239743,0.01785603,-0.05091184,-0.00351848,0.00659160,0.00027048,0.0015
 7698,0.00147626,-0.00128913,-0.00041015,0.00021439,0.00002126,-0.00017
 119,-0.00036762,-0.00022441,-0.00060371,-0.00079149,0.00034225,-0.0004
 0325,-0.00152946,-0.00017130,-0.00091162,-0.00140849,0.00142092,-0.001
 47970,-0.02025419,-0.01800797,-0.02531153,-0.08388492,0.12242567\\-0.0
 0000104,0.00000074,-0.00000012,0.00000048,-0.00000054,0.00000007,0.000
 00104,0.00000116,-0.00000013,-0.00000057,-0.00000007,0.00000192,-0.000
 00092,0.00000070,0.00000096,-0.00000331,-0.00000027,0.00000078,-0.0000
 0158,-0.00000233,-0.00000176,0.00000333,0.00000083,-0.00000058,0.00000
 107,0.00000264,0.00000206,0.00000155,-0.00000150,-0.00000260,-0.000000
 05,-0.00000135,-0.00000058\\\@
 The archive entry for this job was punched.


 I DO NOT DEFINE TIME, SPACE, PLACE, AND MOTION, AS BEING WELL KNOWN TO ALL.
                                            -- NEWTON (1642-1726), PRINCIPIA
 Job cpu time:       0 days  8 hours 15 minutes 22.0 seconds.
 Elapsed time:       0 days  1 hours  5 minutes 32.2 seconds.
 File lengths (MBytes):  RWF=    123 Int=      0 D2E=      0 Chk=      9 Scr=      1
 Normal termination of Gaussian 16 at Sat May 24 04:06:34 2025.
done
