 Entering Gaussian System, Link 0=g16
 Initial command:
 /apps/easybuild-2022/easybuild/software/Compiler/NVHPC/22.11-CUDA-11.7.0/Gaussian/g16c01-CUDA-11.7.0/g16/l1.exe "/tmp/Gau-154956.inp" -scrdir="/tmp/"
 Entering Link 1 = /apps/easybuild-2022/easybuild/software/Compiler/NVHPC/22.11-CUDA-11.7.0/Gaussian/g16c01-CUDA-11.7.0/g16/l1.exe PID=    154958.
  
 Copyright (c) 1988-2019, Gaussian, Inc.  All Rights Reserved.
  
 This is part of the Gaussian(R) 16 program.  It is based on
 the Gaussian(R) 09 system (copyright 2009, Gaussian, Inc.),
 the Gaussian(R) 03 system (copyright 2003, Gaussian, Inc.),
 the Gaussian(R) 98 system (copyright 1998, Gaussian, Inc.),
 the Gaussian(R) 94 system (copyright 1995, Gaussian, Inc.),
 the Gaussian 92(TM) system (copyright 1992, Gaussian, Inc.),
 the Gaussian 90(TM) system (copyright 1990, Gaussian, Inc.),
 the Gaussian 88(TM) system (copyright 1988, Gaussian, Inc.),
 the Gaussian 86(TM) system (copyright 1986, Carnegie Mellon
 University), and the Gaussian 82(TM) system (copyright 1983,
 Carnegie Mellon University). Gaussian is a federally registered
 trademark of Gaussian, Inc.
  
 This software contains proprietary and confidential information,
 including trade secrets, belonging to Gaussian, Inc.
  
 This software is provided under written license and may be
 used, copied, transmitted, or stored only in accord with that
 written license.
  
 The following legend is applicable only to US Government
 contracts under FAR:
  
                    RESTRICTED RIGHTS LEGEND
  
 Use, reproduction and disclosure by the US Government is
 subject to restrictions as set forth in subparagraphs (a)
 and (c) of the Commercial Computer Software - Restricted
 Rights clause in FAR 52.227-19.
  
 Gaussian, Inc.
 340 Quinnipiac St., Bldg. 40, Wallingford CT 06492
  
  
 ---------------------------------------------------------------
 Warning -- This program may not be used in any manner that
 competes with the business of Gaussian, Inc. or will provide
 assistance to any competitor of Gaussian, Inc.  The licensee
 of this program is prohibited from giving any competitor of
 Gaussian, Inc. access to this program.  By using this program,
 the user acknowledges that Gaussian, Inc. is engaged in the
 business of creating and licensing software in the field of
 computational chemistry and represents and warrants to the
 licensee that it is not a competitor of Gaussian, Inc. and that
 it will not use this program in any manner prohibited above.
 ---------------------------------------------------------------
  

 Cite this work as:
 Gaussian 16, Revision C.01,
 M. J. Frisch, G. W. Trucks, H. B. Schlegel, G. E. Scuseria, 
 M. A. Robb, J. R. Cheeseman, G. Scalmani, V. Barone, 
 G. A. Petersson, H. Nakatsuji, X. Li, M. Caricato, A. V. Marenich, 
 J. Bloino, B. G. Janesko, R. Gomperts, B. Mennucci, H. P. Hratchian, 
 J. V. Ortiz, A. F. Izmaylov, J. L. Sonnenberg, D. Williams-Young, 
 F. Ding, F. Lipparini, F. Egidi, J. Goings, B. Peng, A. Petrone, 
 T. Henderson, D. Ranasinghe, V. G. Zakrzewski, J. Gao, N. Rega, 
 G. Zheng, W. Liang, M. Hada, M. Ehara, K. Toyota, R. Fukuda, 
 J. Hasegawa, M. Ishida, T. Nakajima, Y. Honda, O. Kitao, H. Nakai, 
 T. Vreven, K. Throssell, J. A. Montgomery, Jr., J. E. Peralta, 
 F. Ogliaro, M. J. Bearpark, J. J. Heyd, E. N. Brothers, K. N. Kudin, 
 V. N. Staroverov, T. A. Keith, R. Kobayashi, J. Normand, 
 K. Raghavachari, A. P. Rendell, J. C. Burant, S. S. Iyengar, 
 J. Tomasi, M. Cossi, J. M. Millam, M. Klene, C. Adamo, R. Cammi, 
 J. W. Ochterski, R. L. Martin, K. Morokuma, O. Farkas, 
 J. B. Foresman, and D. J. Fox, Gaussian, Inc., Wallingford CT, 2019.
 
 ******************************************
 Gaussian 16:  ES64L-G16RevC.01  3-Jul-2019
                24-May-2025 
 ******************************************
 %mem=28GB
 %chk=1642764945472630600001_r12_insertion_R_5_4_6
 %nprocshared=8
 Will use up to    8 processors via shared memory.
 ----------------------------------------------------------------------
 #P M062X/Def2TZVPP Symm(None) scf(xqc) pop(None) opt(NoFreeze,TS,CalcA
 ll,NoEigentest,MaxCycle=999)
 ----------------------------------------------------------------------
 1/5=1,6=999,10=4,11=1,18=20,26=3,29=2000,38=1/1,3;
 2/9=110,12=2,15=3,17=6,18=5,40=1/2;
 3/5=44,7=202,11=2,25=1,30=1,71=2,74=-55,140=1/1,2,3;
 4//1;
 5/5=2,8=3,13=1,38=5/2,8;
 8/6=4,10=90,11=11/1;
 11/6=1,8=1,9=11,15=111,16=1,31=1/1,2,10;
 10/6=1,31=1/2;
 7/10=1,25=1,30=1/1,2,3,16;
 1/5=1,6=999,10=4,11=1,18=20,26=3/3(3);
 2/9=110,15=3/2;
 7/8=1,9=1,25=1,30=1,44=-1/16;
 99//99;
 2/9=110,15=3/2;
 3/5=44,7=202,11=2,25=1,30=1,71=2,74=-55,140=1/1,2,3;
 4/5=5,16=3,69=1/1;
 5/5=2,8=3,13=1,38=5/2,8;
 8/6=4,10=90,11=11/1;
 11/6=1,8=1,9=11,15=111,16=1,31=1/1,2,10;
 10/6=1,31=1/2;
 7/10=1,25=1,30=1/1,2,3,16;
 1/5=1,6=999,10=4,11=1,18=20,26=3/3(-8);
 2/9=110,15=3/2;
 7/8=1,9=1,25=1,30=1,44=-1/16;
 99//99;
 Leave Link    1 at Sat May 24 02:14:37 2025, MaxMem=  3758096384 cpu:               0.0 elap:               0.0
 (Enter /apps/easybuild-2022/easybuild/software/Compiler/NVHPC/22.11-CUDA-11.7.0/Gaussian/g16c01-CUDA-11.7.0/g16/l101.exe)
 ------------------------------
 Gaussian input prepared by ASE
 ------------------------------
 Symbolic Z-matrix:
 Charge =  0 Multiplicity = 1
 C                     1.38965  -0.10005   0.02161 
 O                     1.93062  -1.15096  -0.06805 
 C                    -0.13674   0.17515  -0.25177 
 C                    -0.67874   0.69964   0.91108 
 F                    -1.06267  -0.43416   2.07556 
 F                     0.68642   0.14171   2.54358 
 F                    -1.0889    1.73031   1.28083 
 F                    -0.27088   0.97937  -1.34688 
 F                    -0.73238  -0.96434  -0.67566 
 O                     2.00406   1.03497   0.34009 
 H                     2.88907   0.85975   0.6817 
 
 Add virtual bond connecting atoms F5         and C4         Dist= 3.16D+00.
 Add virtual bond connecting atoms F6         and F5         Dist= 3.59D+00.
 ITRead=  0  0  0  0  0  0  0  0  0  0  0
 MicOpt= -1 -1 -1 -1 -1 -1 -1 -1 -1 -1 -1
 NAtoms=     11 NQM=       11 NQMF=       0 NMMI=      0 NMMIF=      0
                NMic=       0 NMicF=      0.
                    Isotopes and Nuclear Properties:
 (Nuclear quadrupole moments (NQMom) in fm**2, nuclear magnetic moments (NMagM)
  in nuclear magnetons)

  Atom         1           2           3           4           5           6           7           8           9          10
 IAtWgt=          12          16          12          12          19          19          19          19          19          16
 AtmWgt=  12.0000000  15.9949146  12.0000000  12.0000000  18.9984032  18.9984032  18.9984032  18.9984032  18.9984032  15.9949146
 NucSpn=           0           0           0           0           1           1           1           1           1           0
 AtZEff=  -0.0000000  -0.0000000  -0.0000000  -0.0000000  -0.0000000  -0.0000000  -0.0000000  -0.0000000  -0.0000000  -0.0000000
 NQMom=    0.0000000   0.0000000   0.0000000   0.0000000   0.0000000   0.0000000   0.0000000   0.0000000   0.0000000   0.0000000
 NMagM=    0.0000000   0.0000000   0.0000000   0.0000000   2.6288670   2.6288670   2.6288670   2.6288670   2.6288670   0.0000000
 AtZNuc=   6.0000000   8.0000000   6.0000000   6.0000000   9.0000000   9.0000000   9.0000000   9.0000000   9.0000000   8.0000000

  Atom        11
 IAtWgt=           1
 AtmWgt=   1.0078250
 NucSpn=           1
 AtZEff=  -0.0000000
 NQMom=    0.0000000
 NMagM=    2.7928460
 AtZNuc=   1.0000000
 Leave Link  101 at Sat May 24 02:14:37 2025, MaxMem=  3758096384 cpu:               0.2 elap:               0.2
 (Enter /apps/easybuild-2022/easybuild/software/Compiler/NVHPC/22.11-CUDA-11.7.0/Gaussian/g16c01-CUDA-11.7.0/g16/l103.exe)

 GradGradGradGradGradGradGradGradGradGradGradGradGradGradGradGradGradGrad
 Berny optimization.
 Initialization pass.
                           ----------------------------
                           !    Initial Parameters    !
                           ! (Angstroms and Degrees)  !
 --------------------------                            --------------------------
 ! Name  Definition              Value          Derivative Info.                !
 --------------------------------------------------------------------------------
 ! R1    R(1,2)                  1.1854         calculate D2E/DX2 analytically  !
 ! R2    R(1,3)                  1.5749         calculate D2E/DX2 analytically  !
 ! R3    R(1,10)                 1.3294         calculate D2E/DX2 analytically  !
 ! R4    R(3,4)                  1.386          calculate D2E/DX2 analytically  !
 ! R5    R(3,8)                  1.3653         calculate D2E/DX2 analytically  !
 ! R6    R(3,9)                  1.3538         calculate D2E/DX2 analytically  !
 ! R7    R(4,5)                  1.67           calculate D2E/DX2 analytically  !
 ! R8    R(4,7)                  1.1693         calculate D2E/DX2 analytically  !
 ! R9    R(5,6)                  1.9            calculate D2E/DX2 analytically  !
 ! R10   R(10,11)                0.9647         calculate D2E/DX2 analytically  !
 ! A1    A(2,1,3)              125.7396         calculate D2E/DX2 analytically  !
 ! A2    A(2,1,10)             124.3432         calculate D2E/DX2 analytically  !
 ! A3    A(3,1,10)             109.8977         calculate D2E/DX2 analytically  !
 ! A4    A(1,3,4)              107.427          calculate D2E/DX2 analytically  !
 ! A5    A(1,3,8)              109.7174         calculate D2E/DX2 analytically  !
 ! A6    A(1,3,9)              109.4929         calculate D2E/DX2 analytically  !
 ! A7    A(4,3,8)              114.3068         calculate D2E/DX2 analytically  !
 ! A8    A(4,3,9)              114.1506         calculate D2E/DX2 analytically  !
 ! A9    A(8,3,9)              101.6198         calculate D2E/DX2 analytically  !
 ! A10   A(3,4,5)              114.7084         calculate D2E/DX2 analytically  !
 ! A11   A(3,4,7)              137.394          calculate D2E/DX2 analytically  !
 ! A12   A(5,4,7)              107.2953         calculate D2E/DX2 analytically  !
 ! A13   A(4,5,6)               75.7797         calculate D2E/DX2 analytically  !
 ! A14   A(1,10,11)            110.7172         calculate D2E/DX2 analytically  !
 ! D1    D(2,1,3,4)            121.3131         calculate D2E/DX2 analytically  !
 ! D2    D(2,1,3,8)           -113.8812         calculate D2E/DX2 analytically  !
 ! D3    D(2,1,3,9)             -3.1591         calculate D2E/DX2 analytically  !
 ! D4    D(10,1,3,4)           -60.2421         calculate D2E/DX2 analytically  !
 ! D5    D(10,1,3,8)            64.5637         calculate D2E/DX2 analytically  !
 ! D6    D(10,1,3,9)           175.2858         calculate D2E/DX2 analytically  !
 ! D7    D(2,1,10,11)          -12.9963         calculate D2E/DX2 analytically  !
 ! D8    D(3,1,10,11)          168.5324         calculate D2E/DX2 analytically  !
 ! D9    D(1,3,4,5)            -80.568          calculate D2E/DX2 analytically  !
 ! D10   D(1,3,4,7)            109.7891         calculate D2E/DX2 analytically  !
 ! D11   D(8,3,4,5)            157.4412         calculate D2E/DX2 analytically  !
 ! D12   D(8,3,4,7)            -12.2017         calculate D2E/DX2 analytically  !
 ! D13   D(9,3,4,5)             41.0356         calculate D2E/DX2 analytically  !
 ! D14   D(9,3,4,7)           -128.6074         calculate D2E/DX2 analytically  !
 ! D15   D(3,4,5,6)             94.1709         calculate D2E/DX2 analytically  !
 ! D16   D(7,4,5,6)            -93.1523         calculate D2E/DX2 analytically  !
 --------------------------------------------------------------------------------
 Trust Radius=3.00D-01 FncErr=1.00D-07 GrdErr=1.00D-06 EigMax=2.50D+02 EigMin=1.00D-04
 Number of steps in this run=    100 maximum allowed number of steps=    100.
 Search for a saddle point of order  1.
 GradGradGradGradGradGradGradGradGradGradGradGradGradGradGradGradGradGrad

 Leave Link  103 at Sat May 24 02:14:37 2025, MaxMem=  3758096384 cpu:               0.0 elap:               0.0
 (Enter /apps/easybuild-2022/easybuild/software/Compiler/NVHPC/22.11-CUDA-11.7.0/Gaussian/g16c01-CUDA-11.7.0/g16/l202.exe)
                          Input orientation:                          
 ---------------------------------------------------------------------
 Center     Atomic      Atomic             Coordinates (Angstroms)
 Number     Number       Type             X           Y           Z
 ---------------------------------------------------------------------
      1          6           0        1.389646   -0.100047    0.021610
      2          8           0        1.930621   -1.150958   -0.068047
      3          6           0       -0.136740    0.175145   -0.251767
      4          6           0       -0.678744    0.699640    0.911083
      5          9           0       -1.062674   -0.434155    2.075558
      6          9           0        0.686421    0.141713    2.543579
      7          9           0       -1.088901    1.730310    1.280833
      8          9           0       -0.270879    0.979374   -1.346880
      9          9           0       -0.732381   -0.964335   -0.675655
     10          8           0        2.004058    1.034975    0.340091
     11          1           0        2.889072    0.859747    0.681697
 ---------------------------------------------------------------------
                    Distance matrix (angstroms):
                    1          2          3          4          5
     1  C    0.000000
     2  O    1.185372   0.000000
     3  C    1.574903   2.462983   0.000000
     4  C    2.389330   3.345474   1.386032   0.000000
     5  F    3.216241   3.750822   2.577798   1.669999   0.000000
     6  F    2.629316   3.168536   2.914219   2.200000   1.900000
     7  F    3.328520   4.386194   2.382018   1.169284   2.305902
     8  F    2.407334   3.319688   1.365302   2.311493   3.786566
     9  F    2.395030   2.737808   1.353840   2.299875   2.821233
    10  O    1.329363   2.224921   2.381726   2.763315   3.817726
    11  H    1.898736   2.350251   3.239687   3.578766   4.385582
                    6          7          8          9         10
     6  F    0.000000
     7  F    2.696282   0.000000
     8  F    4.093137   2.852708   0.000000
     9  F    3.687792   3.349039   2.107494   0.000000
    10  O    2.718353   3.306793   2.832720   3.537948   0.000000
    11  H    2.972179   4.115958   3.756957   4.276050   0.964702
                   11
    11  H    0.000000
 Symmetry turned off by external request.
 Stoichiometry    C3HF5O2
 Rotational constants (GHZ):           1.5268906           1.2767472           1.0586438
 Leave Link  202 at Sat May 24 02:14:37 2025, MaxMem=  3758096384 cpu:               0.0 elap:               0.0
 (Enter /apps/easybuild-2022/easybuild/software/Compiler/NVHPC/22.11-CUDA-11.7.0/Gaussian/g16c01-CUDA-11.7.0/g16/l301.exe)
 Standard basis: def2TZVPP (5D, 7F)
 Ernie: Thresh=  0.10000D-02 Tol=  0.10000D-05 Strict=F.
   324 basis functions,   527 primitive gaussians,   375 cartesian basis functions
    40 alpha electrons       40 beta electrons
       nuclear repulsion energy       619.4951422418 Hartrees.
 IExCor= 4336 DFT=T Ex+Corr=M062X ExCW=0 ScaHFX=  0.540000
 ScaDFX=  1.000000  1.000000  1.000000  1.000000 ScalE2=  1.000000  1.000000
 IRadAn=      5 IRanWt=     -1 IRanGd=            0 ICorTp=0 IEmpDi=  4
 NAtoms=   11 NActive=   11 NUniq=   11 SFac= 1.00D+00 NAtFMM=   60 NAOKFM=F Big=F
 Integral buffers will be    131072 words long.
 Raffenetti 2 integral format.
 Two-electron integral symmetry is turned off.
 Leave Link  301 at Sat May 24 02:14:37 2025, MaxMem=  3758096384 cpu:               0.0 elap:               0.0
 (Enter /apps/easybuild-2022/easybuild/software/Compiler/NVHPC/22.11-CUDA-11.7.0/Gaussian/g16c01-CUDA-11.7.0/g16/l302.exe)
 NPDir=0 NMtPBC=     1 NCelOv=     1 NCel=       1 NClECP=     1 NCelD=      1
         NCelK=      1 NCelE2=     1 NClLst=     1 CellRange=     0.0.
 One-electron integrals computed using PRISM.
   1 Symmetry operations used in ECPInt.
 ECPInt:  NShTT=    6786 NPrTT=   21959 LenC2=    6475 LenP2D=   15831.
 LDataN:  DoStor=T MaxTD1= 6 Len=  172
 NBasis=   324 RedAO= T EigKep=  1.66D-04  NBF=   324
 NBsUse=   324 1.00D-06 EigRej= -1.00D+00 NBFU=   324
 Precomputing XC quadrature grid using
 IXCGrd= 4 IRadAn=           5 IRanWt=          -1 IRanGd=           0 AccXCQ= 0.00D+00.
 Generated NRdTot=       0 NPtTot=           0 NUsed=           0 NTot=          32
 NSgBfM=   372   372   372   372   372 MxSgAt=    11 MxSgA2=    11.
 Leave Link  302 at Sat May 24 02:14:37 2025, MaxMem=  3758096384 cpu:               0.7 elap:               0.2
 (Enter /apps/easybuild-2022/easybuild/software/Compiler/NVHPC/22.11-CUDA-11.7.0/Gaussian/g16c01-CUDA-11.7.0/g16/l303.exe)
 DipDrv:  MaxL=1.
 Leave Link  303 at Sat May 24 02:14:38 2025, MaxMem=  3758096384 cpu:               0.1 elap:               0.0
 (Enter /apps/easybuild-2022/easybuild/software/Compiler/NVHPC/22.11-CUDA-11.7.0/Gaussian/g16c01-CUDA-11.7.0/g16/l401.exe)
 ExpMin= 9.52D-02 ExpMax= 3.55D+04 ExpMxC= 1.21D+03 IAcc=3 IRadAn=         5 AccDes= 0.00D+00
 Harris functional with IExCor= 1009 and IRadAn=       5 diagonalized for initial guess.
 HarFok:  IExCor= 1009 AccDes= 0.00D+00 IRadAn=         5 IDoV= 1 UseB2=F ITyADJ=14
 ICtDFT=  3500011 ScaDFX=  1.000000  1.000000  1.000000  1.000000
 FoFCou: FMM=F IPFlag=           0 FMFlag=      100000 FMFlg1=           0
         NFxFlg=           0 DoJE=T BraDBF=F KetDBF=T FulRan=T
         wScrn=  0.000000 ICntrl=       500 IOpCl=  0 I1Cent=   200000004 NGrid=           0
         NMat0=    1 NMatS0=      1 NMatT0=    0 NMatD0=    1 NMtDS0=    0 NMtDT0=    0
 Symmetry not used in FoFCou.
 Harris En= -764.057078354147    
 JPrj=0 DoOrth=F DoCkMO=F.
 Leave Link  401 at Sat May 24 02:14:38 2025, MaxMem=  3758096384 cpu:               3.7 elap:               0.5
 (Enter /apps/easybuild-2022/easybuild/software/Compiler/NVHPC/22.11-CUDA-11.7.0/Gaussian/g16c01-CUDA-11.7.0/g16/l502.exe)
 Keep R1 ints in memory in canonical form, NReq=1412617130.
 FoFCou: FMM=F IPFlag=           0 FMFlag=           0 FMFlg1=           0
         NFxFlg=           0 DoJE=F BraDBF=F KetDBF=F FulRan=T
         wScrn=  0.000000 ICntrl=       600 IOpCl=  0 I1Cent=           0 NGrid=           0
         NMat0=    1 NMatS0=  52650 NMatT0=    0 NMatD0=    1 NMtDS0=    0 NMtDT0=    0
 Symmetry not used in FoFCou.
 Two-electron integral symmetry not used.
 Closed shell SCF:
 Using DIIS extrapolation, IDIIS=  1040.
 NGot=  3758096384 LenX=  2371771924 LenY=  2371630858
 Requested convergence on RMS density matrix=1.00D-08 within  32 cycles.
 Requested convergence on MAX density matrix=1.00D-06.
 Requested convergence on             energy=1.00D-06.
 No special actions if energy rises.
 Integral accuracy reduced to 1.0D-05 until final iterations.

 Cycle   1  Pass 0  IDiag  1:
 E= -763.956050001723    
 DIIS: error= 2.63D-02 at cycle   1 NSaved=   1.
 NSaved= 1 IEnMin= 1 EnMin= -763.956050001723     IErMin= 1 ErrMin= 2.63D-02
 ErrMax= 2.63D-02  0.00D+00 EMaxC= 1.00D-01 BMatC= 5.72D-01 BMatP= 5.72D-01
 IDIUse=3 WtCom= 7.37D-01 WtEn= 2.63D-01
 Coeff-Com:  0.100D+01
 Coeff-En:   0.100D+01
 Coeff:      0.100D+01
 Gap=    -0.170 Goal=   None    Shift=    0.000
 GapD=   -0.170 DampG=0.250 DampE=0.500 DampFc=0.2500 IDamp=-1.
 Damping current iteration by 2.50D-01
 RMSDP=1.03D-02 MaxDP=9.58D-01              OVMax= 9.15D-01

 Cycle   2  Pass 0  IDiag  1:
 E= -763.756994690245     Delta-E=        0.199055311478 Rises=F Damp=T
 DIIS: error= 1.15D-02 at cycle   2 NSaved=   2.
 NSaved= 2 IEnMin= 1 EnMin= -763.956050001723     IErMin= 2 ErrMin= 1.15D-02
 ErrMax= 1.15D-02  0.00D+00 EMaxC= 1.00D-01 BMatC= 1.52D-01 BMatP= 5.72D-01
 IDIUse=3 WtCom= 8.85D-01 WtEn= 1.15D-01
 Coeff-Com:  0.117D+00 0.883D+00
 Coeff-En:   0.674D+00 0.326D+00
 Coeff:      0.181D+00 0.819D+00
 Gap=    -0.150 Goal=   None    Shift=    0.000
 RMSDP=2.60D-03 MaxDP=2.22D-01 DE= 1.99D-01 OVMax= 8.27D-01

 Cycle   3  Pass 0  IDiag  1:
 E= -764.080771615603     Delta-E=       -0.323776925358 Rises=F Damp=F
 DIIS: error= 2.02D-02 at cycle   3 NSaved=   3.
 NSaved= 3 IEnMin= 3 EnMin= -764.080771615603     IErMin= 2 ErrMin= 1.15D-02
 ErrMax= 2.02D-02  0.00D+00 EMaxC= 1.00D-01 BMatC= 3.67D-01 BMatP= 1.52D-01
 IDIUse=2 WtCom= 0.00D+00 WtEn= 1.00D+00
 EnCoef did     1 forward-backward iterations
 Coeff-En:   0.143D+00 0.203D+00 0.654D+00
 Coeff:      0.143D+00 0.203D+00 0.654D+00
 Gap=     0.233 Goal=   None    Shift=    0.000
 RMSDP=5.07D-03 MaxDP=2.29D-01 DE=-3.24D-01 OVMax= 7.86D-01

 Cycle   4  Pass 0  IDiag  1:
 E= -761.999523326577     Delta-E=        2.081248289026 Rises=F Damp=F
 DIIS: error= 6.18D-02 at cycle   4 NSaved=   4.
 NSaved= 4 IEnMin= 3 EnMin= -764.080771615603     IErMin= 2 ErrMin= 1.15D-02
 ErrMax= 6.18D-02  0.00D+00 EMaxC= 1.00D-01 BMatC= 2.33D+00 BMatP= 1.52D-01
 IDIUse=2 WtCom= 0.00D+00 WtEn= 1.00D+00
 EnCoef did     3 forward-backward iterations
 Coeff-En:   0.187D+00 0.000D+00 0.657D+00 0.157D+00
 Coeff:      0.187D+00 0.000D+00 0.657D+00 0.157D+00
 Gap=    -0.031 Goal=   None    Shift=    0.000
 RMSDP=4.84D-03 MaxDP=1.90D-01 DE= 2.08D+00 OVMax= 9.62D-01

 Cycle   5  Pass 0  IDiag  1:
 E= -764.318448491988     Delta-E=       -2.318925165411 Rises=F Damp=F
 DIIS: error= 9.59D-03 at cycle   5 NSaved=   5.
 NSaved= 5 IEnMin= 5 EnMin= -764.318448491988     IErMin= 5 ErrMin= 9.59D-03
 ErrMax= 9.59D-03  0.00D+00 EMaxC= 1.00D-01 BMatC= 6.75D-02 BMatP= 1.52D-01
 IDIUse=3 WtCom= 9.04D-01 WtEn= 9.59D-02
 Coeff-Com: -0.284D-01 0.120D+00 0.299D+00-0.583D-02 0.614D+00
 Coeff-En:   0.000D+00 0.000D+00 0.803D-01 0.000D+00 0.920D+00
 Coeff:     -0.256D-01 0.109D+00 0.278D+00-0.527D-02 0.644D+00
 Gap=     0.188 Goal=   None    Shift=    0.000
 RMSDP=7.77D-04 MaxDP=5.54D-02 DE=-2.32D+00 OVMax= 8.48D-02

 Cycle   6  Pass 0  IDiag  1:
 E= -764.351101250722     Delta-E=       -0.032652758734 Rises=F Damp=F
 DIIS: error= 2.79D-03 at cycle   6 NSaved=   6.
 NSaved= 6 IEnMin= 6 EnMin= -764.351101250722     IErMin= 6 ErrMin= 2.79D-03
 ErrMax= 2.79D-03  0.00D+00 EMaxC= 1.00D-01 BMatC= 5.72D-03 BMatP= 6.75D-02
 IDIUse=3 WtCom= 9.72D-01 WtEn= 2.79D-02
 Coeff-Com: -0.382D-01 0.467D-01 0.321D-01-0.213D-02 0.212D+00 0.750D+00
 Coeff-En:   0.000D+00 0.000D+00 0.000D+00 0.000D+00 0.653D-01 0.935D+00
 Coeff:     -0.371D-01 0.454D-01 0.312D-01-0.207D-02 0.208D+00 0.755D+00
 Gap=     0.189 Goal=   None    Shift=    0.000
 RMSDP=2.20D-04 MaxDP=1.09D-02 DE=-3.27D-02 OVMax= 4.00D-02

 Cycle   7  Pass 0  IDiag  1:
 E= -764.356305944062     Delta-E=       -0.005204693339 Rises=F Damp=F
 DIIS: error= 8.66D-04 at cycle   7 NSaved=   7.
 NSaved= 7 IEnMin= 7 EnMin= -764.356305944062     IErMin= 7 ErrMin= 8.66D-04
 ErrMax= 8.66D-04  0.00D+00 EMaxC= 1.00D-01 BMatC= 3.27D-04 BMatP= 5.72D-03
 IDIUse=3 WtCom= 9.91D-01 WtEn= 8.66D-03
 Coeff-Com: -0.178D-01 0.223D-01-0.391D-02 0.189D-03 0.210D-01 0.259D+00
 Coeff-Com:  0.720D+00
 Coeff-En:   0.000D+00 0.000D+00 0.000D+00 0.000D+00 0.000D+00 0.000D+00
 Coeff-En:   0.100D+01
 Coeff:     -0.176D-01 0.221D-01-0.388D-02 0.188D-03 0.208D-01 0.256D+00
 Coeff:      0.722D+00
 Gap=     0.196 Goal=   None    Shift=    0.000
 RMSDP=7.82D-05 MaxDP=4.83D-03 DE=-5.20D-03 OVMax= 1.33D-02

 Cycle   8  Pass 0  IDiag  1:
 E= -764.356849682551     Delta-E=       -0.000543738489 Rises=F Damp=F
 DIIS: error= 2.81D-04 at cycle   8 NSaved=   8.
 NSaved= 8 IEnMin= 8 EnMin= -764.356849682551     IErMin= 8 ErrMin= 2.81D-04
 ErrMax= 2.81D-04  0.00D+00 EMaxC= 1.00D-01 BMatC= 9.53D-05 BMatP= 3.27D-04
 IDIUse=3 WtCom= 9.97D-01 WtEn= 2.81D-03
 Coeff-Com: -0.418D-03 0.406D-02-0.439D-02 0.140D-03-0.424D-01-0.105D+00
 Coeff-Com:  0.300D+00 0.848D+00
 Coeff-En:   0.000D+00 0.000D+00 0.000D+00 0.000D+00 0.000D+00 0.000D+00
 Coeff-En:   0.000D+00 0.100D+01
 Coeff:     -0.417D-03 0.405D-02-0.438D-02 0.140D-03-0.423D-01-0.104D+00
 Coeff:      0.299D+00 0.848D+00
 Gap=     0.202 Goal=   None    Shift=    0.000
 RMSDP=7.69D-05 MaxDP=3.48D-03 DE=-5.44D-04 OVMax= 1.68D-02

 Cycle   9  Pass 0  IDiag  1:
 E= -764.357142718871     Delta-E=       -0.000293036320 Rises=F Damp=F
 DIIS: error= 1.62D-04 at cycle   9 NSaved=   9.
 NSaved= 9 IEnMin= 9 EnMin= -764.357142718871     IErMin= 9 ErrMin= 1.62D-04
 ErrMax= 1.62D-04  0.00D+00 EMaxC= 1.00D-01 BMatC= 2.98D-05 BMatP= 9.53D-05
 IDIUse=3 WtCom= 9.98D-01 WtEn= 1.62D-03
 Coeff-Com:  0.358D-02-0.251D-02 0.328D-02-0.216D-03-0.117D-01-0.721D-01
 Coeff-Com: -0.511D-01 0.325D+00 0.806D+00
 Coeff-En:   0.000D+00 0.000D+00 0.000D+00 0.000D+00 0.000D+00 0.000D+00
 Coeff-En:   0.000D+00 0.000D+00 0.100D+01
 Coeff:      0.358D-02-0.250D-02 0.328D-02-0.216D-03-0.117D-01-0.719D-01
 Coeff:     -0.511D-01 0.324D+00 0.806D+00
 Gap=     0.203 Goal=   None    Shift=    0.000
 RMSDP=4.40D-05 MaxDP=1.90D-03 DE=-2.93D-04 OVMax= 1.06D-02

 Failed to achieve initial convergence to 1.0D-08 in 10 cycles.
 Switch to full accuracy anyway.
 Cycle  10  Pass 1  IDiag  1:
 E= -764.357195469604     Delta-E=       -0.000052750733 Rises=F Damp=F
 DIIS: error= 1.62D-04 at cycle   1 NSaved=   1.
 NSaved= 1 IEnMin= 1 EnMin= -764.357195469604     IErMin= 1 ErrMin= 1.62D-04
 ErrMax= 1.62D-04  0.00D+00 EMaxC= 1.00D-01 BMatC= 2.83D-05 BMatP= 2.83D-05
 IDIUse=3 WtCom= 9.98D-01 WtEn= 1.62D-03
 Coeff-Com:  0.100D+01
 Coeff-En:   0.100D+01
 Coeff:      0.100D+01
 Gap=     0.207 Goal=   None    Shift=    0.000
 RMSDP=4.40D-05 MaxDP=1.90D-03 DE=-5.28D-05 OVMax= 7.39D-03

 Cycle  11  Pass 1  IDiag  1:
 E= -764.357179116560     Delta-E=        0.000016353044 Rises=F Damp=F
 DIIS: error= 3.38D-04 at cycle   2 NSaved=   2.
 NSaved= 2 IEnMin= 1 EnMin= -764.357195469604     IErMin= 1 ErrMin= 1.62D-04
 ErrMax= 3.38D-04  0.00D+00 EMaxC= 1.00D-01 BMatC= 9.91D-05 BMatP= 2.83D-05
 IDIUse=3 WtCom= 3.52D-01 WtEn= 6.48D-01
 Coeff-Com:  0.663D+00 0.337D+00
 Coeff-En:   0.593D+00 0.407D+00
 Coeff:      0.618D+00 0.382D+00
 Gap=     0.204 Goal=   None    Shift=    0.000
 RMSDP=3.04D-05 MaxDP=1.98D-03 DE= 1.64D-05 OVMax= 4.71D-03

 Cycle  12  Pass 1  IDiag  1:
 E= -764.357254758850     Delta-E=       -0.000075642290 Rises=F Damp=F
 DIIS: error= 1.03D-04 at cycle   3 NSaved=   3.
 NSaved= 3 IEnMin= 3 EnMin= -764.357254758850     IErMin= 3 ErrMin= 1.03D-04
 ErrMax= 1.03D-04  0.00D+00 EMaxC= 1.00D-01 BMatC= 7.05D-06 BMatP= 2.83D-05
 IDIUse=3 WtCom= 9.99D-01 WtEn= 1.03D-03
 Coeff-Com:  0.934D-01 0.203D+00 0.703D+00
 Coeff-En:   0.000D+00 0.000D+00 0.100D+01
 Coeff:      0.933D-01 0.203D+00 0.704D+00
 Gap=     0.204 Goal=   None    Shift=    0.000
 RMSDP=1.43D-05 MaxDP=6.17D-04 DE=-7.56D-05 OVMax= 3.26D-03

 Cycle  13  Pass 1  IDiag  1:
 E= -764.357271249521     Delta-E=       -0.000016490671 Rises=F Damp=F
 DIIS: error= 4.53D-05 at cycle   4 NSaved=   4.
 NSaved= 4 IEnMin= 4 EnMin= -764.357271249521     IErMin= 4 ErrMin= 4.53D-05
 ErrMax= 4.53D-05  0.00D+00 EMaxC= 1.00D-01 BMatC= 1.84D-06 BMatP= 7.05D-06
 IDIUse=1 WtCom= 1.00D+00 WtEn= 0.00D+00
 Coeff-Com: -0.489D+00-0.919D-01 0.502D+00 0.108D+01
 Coeff:     -0.489D+00-0.919D-01 0.502D+00 0.108D+01
 Gap=     0.204 Goal=   None    Shift=    0.000
 RMSDP=2.53D-05 MaxDP=1.25D-03 DE=-1.65D-05 OVMax= 6.83D-03

 Cycle  14  Pass 1  IDiag  1:
 E= -764.357288591613     Delta-E=       -0.000017342091 Rises=F Damp=F
 DIIS: error= 2.67D-05 at cycle   5 NSaved=   5.
 NSaved= 5 IEnMin= 5 EnMin= -764.357288591613     IErMin= 5 ErrMin= 2.67D-05
 ErrMax= 2.67D-05  0.00D+00 EMaxC= 1.00D-01 BMatC= 5.83D-07 BMatP= 1.84D-06
 IDIUse=1 WtCom= 1.00D+00 WtEn= 0.00D+00
 Coeff-Com: -0.260D+00-0.939D-01-0.814D-01 0.495D+00 0.940D+00
 Coeff:     -0.260D+00-0.939D-01-0.814D-01 0.495D+00 0.940D+00
 Gap=     0.204 Goal=   None    Shift=    0.000
 RMSDP=1.58D-05 MaxDP=7.57D-04 DE=-1.73D-05 OVMax= 4.09D-03

 Cycle  15  Pass 1  IDiag  1:
 E= -764.357293570944     Delta-E=       -0.000004979331 Rises=F Damp=F
 DIIS: error= 9.23D-06 at cycle   6 NSaved=   6.
 NSaved= 6 IEnMin= 6 EnMin= -764.357293570944     IErMin= 6 ErrMin= 9.23D-06
 ErrMax= 9.23D-06  0.00D+00 EMaxC= 1.00D-01 BMatC= 1.51D-07 BMatP= 5.83D-07
 IDIUse=1 WtCom= 1.00D+00 WtEn= 0.00D+00
 Coeff-Com:  0.861D-02-0.237D-01-0.190D+00-0.771D-01 0.518D+00 0.764D+00
 Coeff:      0.861D-02-0.237D-01-0.190D+00-0.771D-01 0.518D+00 0.764D+00
 Gap=     0.204 Goal=   None    Shift=    0.000
 RMSDP=6.58D-06 MaxDP=3.09D-04 DE=-4.98D-06 OVMax= 1.65D-03

 Cycle  16  Pass 1  IDiag  1:
 E= -764.357294310165     Delta-E=       -0.000000739221 Rises=F Damp=F
 DIIS: error= 7.48D-06 at cycle   7 NSaved=   7.
 NSaved= 7 IEnMin= 7 EnMin= -764.357294310165     IErMin= 7 ErrMin= 7.48D-06
 ErrMax= 7.48D-06  0.00D+00 EMaxC= 1.00D-01 BMatC= 5.54D-08 BMatP= 1.51D-07
 IDIUse=1 WtCom= 1.00D+00 WtEn= 0.00D+00
 Coeff-Com:  0.695D-01 0.526D-02-0.209D-01-0.159D+00-0.266D-01 0.224D+00
 Coeff-Com:  0.908D+00
 Coeff:      0.695D-01 0.526D-02-0.209D-01-0.159D+00-0.266D-01 0.224D+00
 Coeff:      0.908D+00
 Gap=     0.204 Goal=   None    Shift=    0.000
 RMSDP=1.98D-06 MaxDP=1.05D-04 DE=-7.39D-07 OVMax= 3.74D-04

 Cycle  17  Pass 1  IDiag  1:
 E= -764.357294413502     Delta-E=       -0.000000103337 Rises=F Damp=F
 DIIS: error= 3.62D-06 at cycle   8 NSaved=   8.
 NSaved= 8 IEnMin= 8 EnMin= -764.357294413502     IErMin= 8 ErrMin= 3.62D-06
 ErrMax= 3.62D-06  0.00D+00 EMaxC= 1.00D-01 BMatC= 1.09D-08 BMatP= 5.54D-08
 IDIUse=1 WtCom= 1.00D+00 WtEn= 0.00D+00
 Coeff-Com:  0.103D-01-0.143D-02 0.311D-01-0.142D-01-0.712D-01-0.114D+00
 Coeff-Com: -0.165D-01 0.118D+01
 Coeff:      0.103D-01-0.143D-02 0.311D-01-0.142D-01-0.712D-01-0.114D+00
 Coeff:     -0.165D-01 0.118D+01
 Gap=     0.204 Goal=   None    Shift=    0.000
 RMSDP=1.07D-06 MaxDP=7.01D-05 DE=-1.03D-07 OVMax= 1.71D-04

 Cycle  18  Pass 1  IDiag  1:
 E= -764.357294436303     Delta-E=       -0.000000022801 Rises=F Damp=F
 DIIS: error= 7.48D-07 at cycle   9 NSaved=   9.
 NSaved= 9 IEnMin= 9 EnMin= -764.357294436303     IErMin= 9 ErrMin= 7.48D-07
 ErrMax= 7.48D-07  0.00D+00 EMaxC= 1.00D-01 BMatC= 6.50D-10 BMatP= 1.09D-08
 IDIUse=1 WtCom= 1.00D+00 WtEn= 0.00D+00
 Coeff-Com: -0.112D-02-0.715D-03 0.975D-02 0.498D-02-0.158D-01-0.530D-01
 Coeff-Com: -0.983D-01 0.423D+00 0.731D+00
 Coeff:     -0.112D-02-0.715D-03 0.975D-02 0.498D-02-0.158D-01-0.530D-01
 Coeff:     -0.983D-01 0.423D+00 0.731D+00
 Gap=     0.204 Goal=   None    Shift=    0.000
 RMSDP=1.79D-07 MaxDP=7.26D-06 DE=-2.28D-08 OVMax= 3.46D-05

 Cycle  19  Pass 1  IDiag  1:
 E= -764.357294438087     Delta-E=       -0.000000001783 Rises=F Damp=F
 DIIS: error= 4.70D-07 at cycle  10 NSaved=  10.
 NSaved=10 IEnMin=10 EnMin= -764.357294438087     IErMin=10 ErrMin= 4.70D-07
 ErrMax= 4.70D-07  0.00D+00 EMaxC= 1.00D-01 BMatC= 2.18D-10 BMatP= 6.50D-10
 IDIUse=1 WtCom= 1.00D+00 WtEn= 0.00D+00
 Coeff-Com: -0.308D-02 0.365D-03-0.306D-02 0.564D-02 0.929D-02 0.190D-02
 Coeff-Com: -0.372D-01-0.874D-01 0.293D+00 0.821D+00
 Coeff:     -0.308D-02 0.365D-03-0.306D-02 0.564D-02 0.929D-02 0.190D-02
 Coeff:     -0.372D-01-0.874D-01 0.293D+00 0.821D+00
 Gap=     0.204 Goal=   None    Shift=    0.000
 RMSDP=1.11D-07 MaxDP=4.81D-06 DE=-1.78D-09 OVMax= 2.43D-05

 Cycle  20  Pass 1  IDiag  1:
 E= -764.357294438775     Delta-E=       -0.000000000688 Rises=F Damp=F
 DIIS: error= 2.38D-07 at cycle  11 NSaved=  11.
 NSaved=11 IEnMin=11 EnMin= -764.357294438775     IErMin=11 ErrMin= 2.38D-07
 ErrMax= 2.38D-07  0.00D+00 EMaxC= 1.00D-01 BMatC= 4.89D-11 BMatP= 2.18D-10
 IDIUse=1 WtCom= 1.00D+00 WtEn= 0.00D+00
 Coeff-Com:  0.191D-03 0.650D-03-0.220D-02-0.543D-03 0.174D-02 0.115D-01
 Coeff-Com:  0.321D-01-0.125D+00-0.195D+00 0.256D-01 0.125D+01
 Coeff:      0.191D-03 0.650D-03-0.220D-02-0.543D-03 0.174D-02 0.115D-01
 Coeff:      0.321D-01-0.125D+00-0.195D+00 0.256D-01 0.125D+01
 Gap=     0.204 Goal=   None    Shift=    0.000
 RMSDP=9.87D-08 MaxDP=3.91D-06 DE=-6.88D-10 OVMax= 2.45D-05

 Cycle  21  Pass 1  IDiag  1:
 E= -764.357294439117     Delta-E=       -0.000000000342 Rises=F Damp=F
 DIIS: error= 7.66D-08 at cycle  12 NSaved=  12.
 NSaved=12 IEnMin=12 EnMin= -764.357294439117     IErMin=12 ErrMin= 7.66D-08
 ErrMax= 7.66D-08  0.00D+00 EMaxC= 1.00D-01 BMatC= 6.50D-12 BMatP= 4.89D-11
 IDIUse=1 WtCom= 1.00D+00 WtEn= 0.00D+00
 Coeff-Com:  0.345D-03 0.754D-06 0.217D-03-0.708D-03-0.130D-02 0.156D-02
 Coeff-Com:  0.153D-01-0.159D-01-0.113D+00-0.163D+00 0.347D+00 0.930D+00
 Coeff:      0.345D-03 0.754D-06 0.217D-03-0.708D-03-0.130D-02 0.156D-02
 Coeff:      0.153D-01-0.159D-01-0.113D+00-0.163D+00 0.347D+00 0.930D+00
 Gap=     0.204 Goal=   None    Shift=    0.000
 RMSDP=3.68D-08 MaxDP=1.57D-06 DE=-3.42D-10 OVMax= 9.78D-06

 Cycle  22  Pass 1  IDiag  1:
 E= -764.357294439130     Delta-E=       -0.000000000013 Rises=F Damp=F
 DIIS: error= 3.71D-08 at cycle  13 NSaved=  13.
 NSaved=13 IEnMin=13 EnMin= -764.357294439130     IErMin=13 ErrMin= 3.71D-08
 ErrMax= 3.71D-08  0.00D+00 EMaxC= 1.00D-01 BMatC= 1.39D-12 BMatP= 6.50D-12
 IDIUse=1 WtCom= 1.00D+00 WtEn= 0.00D+00
 Coeff-Com:  0.829D-04-0.687D-04 0.334D-03-0.139D-03-0.666D-03-0.571D-03
 Coeff-Com:  0.316D-02 0.596D-02-0.261D-01-0.667D-01 0.132D-01 0.376D+00
 Coeff-Com:  0.696D+00
 Coeff:      0.829D-04-0.687D-04 0.334D-03-0.139D-03-0.666D-03-0.571D-03
 Coeff:      0.316D-02 0.596D-02-0.261D-01-0.667D-01 0.132D-01 0.376D+00
 Coeff:      0.696D+00
 Gap=     0.204 Goal=   None    Shift=    0.000
 RMSDP=7.53D-09 MaxDP=3.59D-07 DE=-1.30D-11 OVMax= 2.09D-06

 SCF Done:  E(RM062X) =  -764.357294439     A.U. after   22 cycles
            NFock= 22  Conv=0.75D-08     -V/T= 2.0036
 KE= 7.615839748741D+02 PE=-3.050847024299D+03 EE= 9.054106127437D+02
 Leave Link  502 at Sat May 24 02:15:18 2025, MaxMem=  3758096384 cpu:             169.1 elap:              40.0
 (Enter /apps/easybuild-2022/easybuild/software/Compiler/NVHPC/22.11-CUDA-11.7.0/Gaussian/g16c01-CUDA-11.7.0/g16/l508.exe)
 QCSCF skips out because SCF is already converged.
 Leave Link  508 at Sat May 24 02:15:18 2025, MaxMem=  3758096384 cpu:               0.0 elap:               0.0
 (Enter /apps/easybuild-2022/easybuild/software/Compiler/NVHPC/22.11-CUDA-11.7.0/Gaussian/g16c01-CUDA-11.7.0/g16/l801.exe)
 DoSCS=F DFT=T ScalE2(SS,OS)=  1.000000  1.000000
 Range of M.O.s used for correlation:     1   324
 NBasis=   324 NAE=    40 NBE=    40 NFC=     0 NFV=     0
 NROrb=    324 NOA=    40 NOB=    40 NVA=   284 NVB=   284

 **** Warning!!: The largest alpha MO coefficient is  0.17461613D+02

 Leave Link  801 at Sat May 24 02:15:18 2025, MaxMem=  3758096384 cpu:               0.0 elap:               0.0
 (Enter /apps/easybuild-2022/easybuild/software/Compiler/NVHPC/22.11-CUDA-11.7.0/Gaussian/g16c01-CUDA-11.7.0/g16/l1101.exe)
 Using compressed storage, NAtomX=    11.
 Will process     12 centers per pass.
   1 Symmetry operations used in ECPInt.
 ECPInt:  NShTT=    6786 NPrTT=   21959 LenC2=    6475 LenP2D=   15831.
 LDataN:  DoStor=T MaxTD1= 7 Len=  274
 Leave Link 1101 at Sat May 24 02:15:18 2025, MaxMem=  3758096384 cpu:               0.9 elap:               0.2
 (Enter /apps/easybuild-2022/easybuild/software/Compiler/NVHPC/22.11-CUDA-11.7.0/Gaussian/g16c01-CUDA-11.7.0/g16/l1102.exe)
 Symmetrizing basis deriv contribution to polar:
 IMax=3 JMax=2 DiffMx= 0.00D+00
 Leave Link 1102 at Sat May 24 02:15:18 2025, MaxMem=  3758096384 cpu:               0.1 elap:               0.0
 (Enter /apps/easybuild-2022/easybuild/software/Compiler/NVHPC/22.11-CUDA-11.7.0/Gaussian/g16c01-CUDA-11.7.0/g16/l1110.exe)
 Forming Gx(P) for the SCF density, NAtomX=    11.
 Integral derivatives from FoFJK, PRISM(SPDF).
 Do as many integral derivatives as possible in FoFJK.
 G2DrvN: MDV=    3758095115.
 G2DrvN: will do    12 centers at a time, making    1 passes.
 Calling FoFCou, ICntrl=  3107 FMM=F I1Cent=   0 AccDes= 0.00D+00.
 FoFJK:  IHMeth= 1 ICntrl=    3107 DoSepK=F KAlg= 0 I1Cent=           0 FoldK=F
 IRaf=         0 NMat=       1 IRICut=       1 DoRegI=T DoRafI=F ISym2E= 0 IDoP0=0 IntGTp=1.
 FoFCou: FMM=F IPFlag=           0 FMFlag=      100000 FMFlg1=           0
         NFxFlg=           0 DoJE=F BraDBF=F KetDBF=F FulRan=T
         wScrn=  0.000000 ICntrl=      3107 IOpCl=  0 I1Cent=           0 NGrid=           0
         NMat0=    1 NMatS0=      1 NMatT0=    0 NMatD0=    1 NMtDS0=    0 NMtDT0=    0
 Symmetry not used in FoFCou.
 End of G2Drv F.D. properties file   721 does not exist.
 End of G2Drv F.D. properties file   722 does not exist.
 End of G2Drv F.D. properties file   788 does not exist.
 Leave Link 1110 at Sat May 24 02:16:03 2025, MaxMem=  3758096384 cpu:             349.1 elap:              44.2
 (Enter /apps/easybuild-2022/easybuild/software/Compiler/NVHPC/22.11-CUDA-11.7.0/Gaussian/g16c01-CUDA-11.7.0/g16/l1002.exe)
 Minotr:  Closed shell wavefunction.
          IDoAtm=11111111111
          Direct CPHF calculation.
          Differentiating once with respect to electric field.
                with respect to dipole field.
          Differentiating once with respect to nuclear coordinates.
          Requested convergence is 1.0D-08 RMS, and 1.0D-07 maximum.
          Secondary convergence is 1.0D-12 RMS, and 1.0D-12 maximum.
          NewPWx=T KeepS1=F KeepF1=F KeepIn=T MapXYZ=F SortEE=F KeepMc=T.
         3300 words used for storage of precomputed grid.
 Keep R1 ints in memory in canonical form, NReq=1412622530.
 FoFCou: FMM=F IPFlag=           0 FMFlag=           0 FMFlg1=           0
         NFxFlg=           0 DoJE=F BraDBF=F KetDBF=F FulRan=T
         wScrn=  0.000000 ICntrl=       600 IOpCl=  0 I1Cent=           0 NGrid=           0
         NMat0=    1 NMatS0=  52650 NMatT0=    0 NMatD0=    1 NMtDS0=    0 NMtDT0=    0
 Symmetry not used in FoFCou.
 Two-electron integral symmetry not used.
          MDV=    3758096384 using IRadAn=       1.
          Solving linear equations simultaneously, MaxMat=       0.
          There are    36 degrees of freedom in the 1st order CPHF.  IDoFFX=6 NUNeed=     3.
     33 vectors produced by pass  0 Test12= 3.16D-14 2.78D-09 XBig12= 3.95D+01 3.96D+00.
 AX will form    33 AO Fock derivatives at one time.
     33 vectors produced by pass  1 Test12= 3.16D-14 2.78D-09 XBig12= 7.08D+00 5.46D-01.
     33 vectors produced by pass  2 Test12= 3.16D-14 2.78D-09 XBig12= 2.66D-01 9.29D-02.
     33 vectors produced by pass  3 Test12= 3.16D-14 2.78D-09 XBig12= 6.33D-03 1.84D-02.
     33 vectors produced by pass  4 Test12= 3.16D-14 2.78D-09 XBig12= 1.12D-04 1.45D-03.
     33 vectors produced by pass  5 Test12= 3.16D-14 2.78D-09 XBig12= 1.12D-06 1.16D-04.
     33 vectors produced by pass  6 Test12= 3.16D-14 2.78D-09 XBig12= 6.94D-09 1.28D-05.
     19 vectors produced by pass  7 Test12= 3.16D-14 2.78D-09 XBig12= 3.35D-11 5.53D-07.
      4 vectors produced by pass  8 Test12= 3.16D-14 2.78D-09 XBig12= 1.50D-13 3.85D-08.
 InvSVY:  IOpt=1 It=  1 EMax= 4.44D-15
 Solved reduced A of dimension   254 with    36 vectors.
 FullF1:  Do perturbations      1 to       3.
 Isotropic polarizability for W=    0.000000       55.09 Bohr**3.
 End of Minotr F.D. properties file   721 does not exist.
 End of Minotr F.D. properties file   722 does not exist.
 End of Minotr F.D. properties file   788 does not exist.
 Leave Link 1002 at Sat May 24 02:17:08 2025, MaxMem=  3758096384 cpu:             509.6 elap:              65.3
 (Enter /apps/easybuild-2022/easybuild/software/Compiler/NVHPC/22.11-CUDA-11.7.0/Gaussian/g16c01-CUDA-11.7.0/g16/l701.exe)
 ... and contract with generalized density number  0.
 Compute integral second derivatives.
   1 Symmetry operations used in ECPInt.
 ECPInt:  NShTT=    6786 NPrTT=   21959 LenC2=    6475 LenP2D=   15831.
 LDataN:  DoStor=T MaxTD1= 8 Len=  415
 Leave Link  701 at Sat May 24 02:17:08 2025, MaxMem=  3758096384 cpu:               0.8 elap:               0.1
 (Enter /apps/easybuild-2022/easybuild/software/Compiler/NVHPC/22.11-CUDA-11.7.0/Gaussian/g16c01-CUDA-11.7.0/g16/l702.exe)
 L702 exits ... SP integral derivatives will be done elsewhere.
 Leave Link  702 at Sat May 24 02:17:08 2025, MaxMem=  3758096384 cpu:               0.0 elap:               0.0
 (Enter /apps/easybuild-2022/easybuild/software/Compiler/NVHPC/22.11-CUDA-11.7.0/Gaussian/g16c01-CUDA-11.7.0/g16/l703.exe)
 Integral derivatives from FoFJK, PRISM(SPDF).
 Compute integral second derivatives, UseDBF=F ICtDFT=           0.
 Calling FoFJK, ICntrl=    100127 FMM=F ISym2X=0 I1Cent= 0 IOpClX= 0 NMat=1 NMatS=1 NMatT=0.
 FoFJK:  IHMeth= 1 ICntrl=  100127 DoSepK=F KAlg= 0 I1Cent=           0 FoldK=F
 IRaf=         0 NMat=       1 IRICut=       1 DoRegI=T DoRafI=F ISym2E= 0 IDoP0=0 IntGTp=1.
 FoFCou: FMM=F IPFlag=           0 FMFlag=      100000 FMFlg1=         800
         NFxFlg=           0 DoJE=F BraDBF=F KetDBF=F FulRan=T
         wScrn=  0.000000 ICntrl=    100127 IOpCl=  0 I1Cent=           0 NGrid=           0
         NMat0=    1 NMatS0=      1 NMatT0=    0 NMatD0=    1 NMtDS0=    0 NMtDT0=    0
 Symmetry not used in FoFCou.
 Leave Link  703 at Sat May 24 02:18:59 2025, MaxMem=  3758096384 cpu:             872.8 elap:             110.5
 (Enter /apps/easybuild-2022/easybuild/software/Compiler/NVHPC/22.11-CUDA-11.7.0/Gaussian/g16c01-CUDA-11.7.0/g16/l716.exe)
 Dipole        =-3.38573102D-01 1.47706173D+00-1.35047763D+00
 Polarizability= 5.71849531D+01-4.82281123D+00 4.98552935D+01
                 3.80930780D+00-1.96460323D+00 5.82287711D+01
 -------------------------------------------------------------------
 Center     Atomic                   Forces (Hartrees/Bohr)
 Number     Number              X              Y              Z
 -------------------------------------------------------------------
      1        6           0.039903528   -0.003139173    0.013732012
      2        8          -0.023135391    0.002042801   -0.006215573
      3        6           0.031691249   -0.052760905   -0.113010225
      4        6           0.006987769   -0.163516595    0.219991614
      5        9          -0.078590173    0.045524293   -0.126434909
      6        9           0.060233516    0.053325090   -0.035124251
      7        9          -0.031747562    0.092176007    0.007192426
      8        9           0.006090299    0.013556847    0.022708684
      9        9           0.006673217    0.008098854    0.026753636
     10        8          -0.017984055    0.008945039   -0.010295930
     11        1          -0.000122397   -0.004252257    0.000702516
 -------------------------------------------------------------------
 Cartesian Forces:  Max     0.219991614 RMS     0.064596063
 Force constants in Cartesian coordinates: 
                1             2             3             4             5 
      1  0.611865D+00
      2 -0.195683D+00  0.982556D+00
      3  0.376539D-01  0.108782D+00  0.236064D+00
      4 -0.259289D+00  0.295601D+00  0.229479D-01  0.248069D+00
      5  0.290141D+00 -0.663195D+00 -0.539615D-01 -0.324925D+00  0.787027D+00
      6  0.180556D-01 -0.495165D-01 -0.813064D-01 -0.197140D-01  0.747983D-01
      7 -0.936101D-01  0.290215D-03  0.196189D-01 -0.313402D-01  0.299945D-01
      8 -0.670832D-02 -0.432190D-01 -0.664414D-02  0.381411D-01 -0.246636D-01
      9 -0.383360D-01  0.262663D-02 -0.742470D-01  0.148869D-01 -0.130951D-01
     10 -0.223755D-01  0.224686D-01  0.356463D-01 -0.296172D-02 -0.235581D-02
     11  0.318286D-01  0.967620D-02 -0.583310D-02 -0.638103D-02 -0.119375D-02
     12  0.532962D-01 -0.606413D-02  0.228581D-01 -0.183768D-01  0.107433D-01
     13 -0.131359D-02 -0.116618D-02 -0.271547D-02  0.775637D-04  0.111352D-02
     14 -0.102622D-02 -0.212598D-02 -0.141796D-02 -0.849904D-04  0.178493D-02
     15 -0.210864D-02 -0.233204D-03  0.581342D-03  0.111278D-02 -0.882929D-03
     16 -0.128827D-01 -0.217036D-02 -0.906346D-02  0.424070D-02 -0.117695D-02
     17 -0.200866D-03 -0.926166D-02  0.698052D-03 -0.485224D-03  0.336803D-02
     18 -0.601246D-02  0.197831D-02 -0.473768D-03  0.275859D-02 -0.152586D-02
     19 -0.410706D-02  0.627547D-03 -0.522755D-02  0.189650D-02 -0.108988D-02
     20 -0.758700D-02 -0.367258D-02  0.202342D-02  0.168134D-02  0.271730D-03
     21 -0.844092D-02 -0.572086D-03 -0.508512D-02  0.344579D-02 -0.154402D-02
     22  0.126675D-02  0.199621D-01 -0.302550D-01 -0.371872D-02 -0.205606D-03
     23 -0.253990D-02 -0.123948D-01  0.171887D-01  0.445889D-02  0.100343D-02
     24  0.653787D-02  0.169006D-01 -0.148414D-01 -0.835466D-02  0.263318D-02
     25 -0.222945D-01 -0.376067D-01 -0.159398D-01  0.502814D-02 -0.245148D-02
     26  0.694005D-03 -0.178337D-01 -0.409370D-02 -0.174309D-03  0.783873D-02
     27 -0.348954D-02 -0.146172D-01  0.136523D-02  0.658708D-03  0.257181D-02
     28 -0.171499D+00 -0.954594D-01 -0.431372D-01  0.367927D-01  0.235509D-02
     29 -0.629146D-01 -0.249479D+00 -0.407379D-01 -0.132339D-01 -0.110964D+00
     30 -0.438996D-01 -0.609788D-01 -0.823118D-01 -0.328330D-02 -0.218349D-01
     31 -0.257608D-01 -0.686425D-02 -0.952854D-02  0.120452D-02  0.860031D-02
     32 -0.460039D-01  0.895043D-02 -0.160037D-01  0.540154D-02 -0.127634D-02
     33 -0.132565D-01  0.169458D-02 -0.260361D-02  0.391806D-02  0.209766D-02
                6             7             8             9            10 
      6  0.466184D-01
      7 -0.742920D-02  0.385240D+00
      8  0.661188D-03 -0.555600D-02  0.484491D+00
      9  0.148390D-01 -0.482056D-01  0.110916D+00  0.658273D+00
     10 -0.582067D-02 -0.801023D-01  0.531685D-01  0.136306D+00  0.253845D+00
     11  0.106759D-02  0.359017D-01 -0.656732D-01 -0.133741D+00 -0.347504D+00
     12 -0.379828D-02  0.825336D-01 -0.103093D+00 -0.301227D+00 -0.294682D+00
     13  0.814874D-03  0.122849D-02 -0.739594D-02 -0.139439D-02 -0.437943D-01
     14  0.942200D-03 -0.632650D-02 -0.407752D-02  0.306574D-02  0.354700D-01
     15 -0.346074D-03  0.637247D-02  0.134918D-01 -0.689158D-02 -0.134365D-01
     16  0.287501D-02  0.623534D-02 -0.264992D-02  0.497232D-03  0.740604D-02
     17 -0.237720D-02  0.158385D-02  0.306908D-03  0.252867D-02 -0.264752D-01
     18 -0.120194D-02  0.398616D-02 -0.309255D-02 -0.620835D-02  0.436903D-01
     19  0.145614D-02  0.859284D-02  0.178100D-01  0.285742D-02 -0.113277D+00
     20 -0.141787D-02  0.252623D-01 -0.209147D-01 -0.293279D-02  0.275035D+00
     21  0.826610D-03  0.205798D-01 -0.298639D-01  0.788140D-02  0.112063D+00
     22  0.330771D-02 -0.643880D-01  0.143238D-01 -0.297882D-01  0.471893D-03
     23 -0.157723D-02  0.191556D-01 -0.120502D+00  0.885141D-01 -0.144961D-02
     24  0.122398D-02 -0.279233D-01  0.844060D-01 -0.205605D+00  0.215701D-03
     25  0.114200D-02 -0.105409D+00 -0.704204D-01 -0.335712D-01  0.436398D-02
     26  0.231737D-02 -0.909719D-01 -0.199551D+00 -0.600744D-01 -0.629752D-02
     27  0.332186D-03 -0.382213D-01 -0.580526D-01 -0.955138D-01 -0.108888D-01
     28  0.193102D-02 -0.268575D-01 -0.277516D-01 -0.144545D-02 -0.136645D-02
     29 -0.277619D-01 -0.661800D-02 -0.206628D-02  0.277268D-02 -0.853572D-03
     30  0.253556D-01 -0.106993D-01 -0.861502D-02  0.504345D-02 -0.422804D-02
     31  0.338151D-02  0.410852D-03 -0.296135D-02 -0.180714D-02 -0.220934D-02
     32  0.286401D-02 -0.271577D-02 -0.413054D-02 -0.580198D-03 -0.120677D-02
     33 -0.254316D-02 -0.612318D-03 -0.114000D-03  0.365665D-02  0.113455D-02
               11            12            13            14            15 
     11  0.859395D+00
     12  0.458672D+00  0.469519D+00
     13  0.173624D-01  0.110205D-01  0.210039D+00
     14 -0.728712D-02 -0.456488D-01  0.478675D-01  0.393757D-01
     15 -0.545516D-01 -0.207660D-01  0.610350D-01  0.500822D-01  0.727420D-02
     16 -0.129947D-01  0.296679D-01 -0.177544D+00 -0.708437D-01 -0.527566D-01
     17 -0.226250D-01 -0.247715D-01 -0.624161D-01  0.126042D-01 -0.196331D-01
     18 -0.119501D-01  0.223825D-01 -0.646081D-01 -0.252507D-01  0.195706D-01
     19  0.283458D+00  0.121967D+00  0.115796D-01 -0.733982D-02 -0.223828D-02
     20 -0.723112D+00 -0.266032D+00  0.120207D-02 -0.443960D-01  0.101613D-01
     21 -0.252504D+00 -0.124029D+00 -0.804976D-02  0.214560D-01  0.466054D-02
     22 -0.174520D-02  0.190708D-01 -0.455147D-03  0.196408D-03  0.164390D-02
     23 -0.234042D-02  0.535494D-02  0.882551D-03  0.125280D-02 -0.362772D-03
     24  0.328820D-01 -0.459922D-01  0.190897D-03 -0.245656D-02 -0.283888D-02
     25  0.523130D-02  0.570020D-02  0.123219D-02  0.209661D-02 -0.399751D-03
     26 -0.399694D-01 -0.223201D-01  0.203619D-02  0.224736D-02  0.155748D-02
     27 -0.330344D-01 -0.130853D-01  0.182885D-02 -0.237574D-02 -0.724268D-03
     28 -0.576792D-02 -0.104545D-01 -0.158886D-02 -0.431530D-03  0.105309D-02
     29 -0.668619D-02 -0.635523D-02  0.451991D-03  0.604617D-03  0.401914D-03
     30 -0.542120D-03 -0.730906D-02  0.220245D-02  0.209497D-02 -0.488876D-03
     31  0.610512D-03  0.257674D-03  0.539556D-03  0.422189D-03 -0.277504D-03
     32 -0.184177D-03 -0.485072D-03  0.619492D-04  0.169932D-04 -0.311218D-04
     33 -0.464366D-03  0.144761D-02 -0.324802D-03 -0.491318D-03 -0.309845D-04
               16            17            18            19            20 
     16  0.179388D+00
     17  0.755258D-01  0.123770D-01
     18  0.253393D-01  0.306754D-01 -0.237349D-01
     19 -0.960455D-02  0.128208D-01 -0.617678D-02  0.105543D+00
     20  0.126768D-01 -0.834970D-03  0.649836D-02 -0.302329D+00  0.780783D+00
     21 -0.233756D-02  0.798582D-02 -0.431810D-03 -0.114407D+00  0.253949D+00
     22 -0.202282D-03 -0.283657D-03 -0.172596D-02  0.241526D-03 -0.466721D-02
     23  0.181676D-03  0.811078D-03  0.465104D-03 -0.201772D-02  0.521904D-02
     24 -0.392235D-03 -0.424554D-03 -0.170137D-02  0.174254D-03 -0.207709D-02
     25  0.103564D-03  0.271901D-03 -0.986740D-03 -0.224511D-02 -0.180156D-02
     26  0.464198D-03  0.542209D-03 -0.187164D-03 -0.958294D-03  0.318077D-02
     27 -0.137276D-02  0.634190D-03 -0.107642D-02  0.833373D-03  0.218355D-03
     28  0.152393D-02 -0.564886D-03  0.523369D-02  0.682200D-03  0.141747D-02
     29  0.221911D-03  0.343096D-02  0.289748D-02 -0.134395D-02  0.374747D-02
     30  0.100435D-01  0.468637D-02 -0.615854D-02  0.184588D-02 -0.167863D-02
     31  0.133592D-02  0.223561D-03 -0.149801D-02  0.697985D-03 -0.890672D-03
     32  0.765259D-03 -0.718793D-03 -0.508227D-03  0.361914D-03 -0.271580D-03
     33 -0.250033D-02 -0.213882D-05 -0.965942D-03 -0.108411D-02  0.128860D-02
               21            22            23            24            25 
     21  0.114692D+00
     22 -0.403953D-02  0.582972D-01
     23  0.268717D-02 -0.227096D-02  0.207127D+00
     24  0.362248D-02  0.237486D-01 -0.154496D+00  0.256078D+00
     25 -0.937345D-03  0.860769D-02 -0.195066D-01  0.915217D-02  0.121491D+00
     26 -0.344644D-02 -0.249203D-01 -0.841608D-01  0.261137D-01  0.124545D+00
     27 -0.314749D-02  0.161275D-01  0.432476D-01  0.899894D-02  0.385255D-01
     28  0.236131D-02 -0.709063D-03  0.256485D-02 -0.366627D-02 -0.106252D-01
     29  0.182362D-02 -0.964508D-03  0.345328D-02 -0.351984D-02  0.138220D-02
     30  0.909118D-03  0.114818D-02 -0.474708D-03  0.857952D-03 -0.333602D-02
     31 -0.237732D-03  0.588162D-03  0.541236D-03  0.316944D-03 -0.252998D-03
     32  0.294313D-04  0.575070D-03  0.531768D-03  0.382539D-04 -0.174075D-02
     33  0.101414D-03  0.761954D-03 -0.547201D-03  0.198178D-03  0.651016D-03
               26            27            28            29            30 
     26  0.326592D+00
     27  0.614883D-01  0.103484D+00
     28 -0.452609D-02 -0.418819D-02  0.603066D+00
     29  0.180485D-02  0.452153D-03  0.118982D-01  0.417539D+00
     30 -0.129640D-02 -0.624622D-03  0.215062D+00  0.481390D-01  0.135768D+00
     31  0.108543D-03  0.186669D-03 -0.429419D+00  0.719742D-01 -0.164855D+00
     32 -0.690761D-03 -0.532491D-03  0.116266D+00 -0.613841D-01  0.405003D-01
     33 -0.586714D-04 -0.843049D-05 -0.162749D+00  0.218881D-01 -0.710417D-01
               31            32            33 
     31  0.452866D+00
     32 -0.717643D-01  0.591571D-01
     33  0.174062D+00 -0.252912D-01  0.717899D-01
 FormGI is forming the generalized inverse of G from B-inverse, IUseBI=4.
 Force constants in internal coordinates: 
                1             2             3             4             5 
      1  0.944873D+00
      2  0.371067D-01  0.221440D+00
      3  0.906861D-01  0.261304D-01  0.453672D+00
      4 -0.130881D-01  0.364639D-01 -0.600140D-02  0.502705D+00
      5  0.592645D-02  0.141514D-01  0.610681D-02  0.278287D-01  0.387212D+00
      6  0.476819D-02  0.139150D-01  0.444177D-02  0.325553D-01  0.607090D-01
      7  0.559901D-02  0.107896D-02 -0.202336D-02  0.185504D-01  0.213379D-04
      8  0.868797D-03 -0.525380D-02  0.364493D-02  0.173084D-01  0.476642D-02
      9  0.229575D-02 -0.487382D-02  0.513498D-02  0.418162D-02  0.109887D-02
     10 -0.728998D-02 -0.102777D-02  0.895928D-02 -0.528388D-03 -0.213761D-03
     11  0.758489D-03  0.105027D-01 -0.506190D-01 -0.919439D-02  0.969405D-02
     12  0.527311D-01 -0.310635D-01  0.266331D-01  0.923024D-02 -0.635315D-02
     13 -0.534979D-01  0.205097D-01  0.240625D-01 -0.197758D-03 -0.343672D-02
     14 -0.180695D-02  0.344290D-01 -0.155511D-03  0.181715D-01 -0.199451D-01
     15  0.139343D-02 -0.804792D-02  0.111488D-02 -0.219133D-01  0.793036D-02
     16 -0.616406D-02  0.971286D-02  0.258113D-02 -0.207819D-01 -0.620152D-02
     17  0.328521D-02 -0.137638D-01 -0.238839D-02  0.862902D-02  0.123355D-01
     18  0.371861D-02 -0.243847D-01 -0.521561D-03  0.145675D-01 -0.134840D-01
     19 -0.721407D-03  0.348544D-03 -0.361308D-03 -0.287676D-02  0.214055D-01
     20 -0.455314D-02  0.126829D-02  0.512467D-02  0.792395D-02  0.104927D-01
     21  0.472202D-02 -0.170067D-02 -0.130488D-02  0.211370D-02 -0.829699D-02
     22 -0.137858D-03 -0.344575D-03 -0.318574D-02 -0.104184D-01 -0.210946D-02
     23  0.143706D-01 -0.427828D-02 -0.173177D-02  0.526807D-01  0.335818D-02
     24  0.407864D-02  0.573161D-02  0.440016D-01 -0.226541D-02  0.242781D-03
     25 -0.306085D-02 -0.110685D-02  0.997589D-03  0.292024D-02 -0.116551D-01
     26  0.695816D-03 -0.657151D-03 -0.135178D-02  0.116438D-01 -0.446146D-02
     27 -0.262667D-02  0.639660D-03  0.129631D-03 -0.137618D-01  0.216694D-01
     28 -0.264502D-02 -0.363453D-02  0.467453D-02 -0.335627D-02 -0.156103D-01
     29  0.111165D-02 -0.318483D-02  0.232516D-02  0.536730D-02 -0.841673D-02
     30 -0.221084D-02 -0.188802D-02  0.380657D-02 -0.200383D-01  0.177142D-01
     31 -0.250104D-02 -0.180874D-02  0.441083D-02 -0.512382D-02 -0.135751D-02
     32 -0.196284D-02 -0.920712D-04  0.225406D-02  0.139114D-02  0.222866D-02
     33  0.115529D-02 -0.102470D-01  0.455150D-02 -0.636442D-02  0.131495D-01
     34  0.116775D-02 -0.366451D-02 -0.729058D-03 -0.224939D-02  0.120880D-01
     35 -0.144956D-02 -0.160821D-01  0.479947D-02  0.273937D-02  0.951308D-02
     36 -0.143710D-02 -0.949958D-02 -0.481086D-03  0.685440D-02  0.845162D-02
     37 -0.558529D-02  0.111620D-01  0.738503D-02 -0.103216D-01 -0.177769D-01
     38 -0.557283D-02  0.177445D-01  0.210447D-02 -0.620654D-02 -0.188384D-01
     39 -0.331648D-02  0.432120D-02  0.164818D-02  0.104305D-01  0.268211D-02
     40 -0.265991D-02 -0.531402D-03  0.530660D-02  0.824912D-02  0.235360D-02
                6             7             8             9            10 
      6  0.400290D+00
      7  0.256751D-02  0.212285D-01
      8 -0.891162D-03  0.333871D-01  0.984995D+00
      9 -0.106948D-04 -0.240348D-01  0.138085D-01  0.209873D+00
     10 -0.394243D-03 -0.180935D-02 -0.402684D-03 -0.827208D-04  0.532350D+00
     11 -0.147242D-01 -0.254144D-02  0.308210D-02  0.390250D-02  0.293753D-02
     12 -0.276469D-02 -0.129358D-02  0.868432D-04 -0.510590D-02 -0.936550D-02
     13  0.174833D-01  0.366676D-02 -0.318600D-02  0.126623D-02  0.642597D-02
     14 -0.178732D-01  0.231686D-01 -0.202036D-04 -0.110039D-02 -0.732575D-03
     15 -0.732282D-02 -0.128513D-01  0.502281D-02  0.283367D-02  0.939843D-04
     16  0.751988D-02 -0.127071D-02  0.180775D-02 -0.159559D-02 -0.227806D-03
     17 -0.137306D-01  0.777113D-04 -0.796010D-02 -0.221420D-02  0.865428D-04
     18  0.100330D-01 -0.133701D-01  0.165403D-02  0.309831D-02  0.542469D-03
     19  0.234364D-01  0.204928D-02  0.995696D-05 -0.908418D-03  0.279437D-03
     20 -0.577423D-02  0.477113D-02 -0.289607D-01 -0.482901D-03 -0.116374D-02
     21  0.757401D-02 -0.326783D-01  0.117505D-01 -0.380656D-02  0.656114D-03
     22 -0.202761D-02  0.259957D-01  0.176465D-01  0.445275D-02  0.667821D-03
     23  0.420053D-02  0.347445D-01  0.276865D-01 -0.477449D-01 -0.515034D-02
     24  0.261601D-02 -0.653444D-03 -0.581956D-03  0.280873D-03  0.248113D-01
     25  0.134038D-01 -0.431252D-02  0.378741D-02  0.192684D-02  0.479971D-03
     26 -0.198897D-01  0.283717D-02 -0.289118D-02  0.259433D-03  0.166649D-03
     27  0.789242D-02 -0.200766D-02  0.637313D-03 -0.181047D-03  0.426933D-03
     28  0.132117D-01 -0.110234D-01  0.309380D-02  0.433948D-02  0.253297D-03
     29 -0.200818D-01 -0.387369D-02 -0.358479D-02  0.267207D-02 -0.600246D-04
     30  0.770037D-02 -0.871852D-02 -0.562967D-04  0.223159D-02  0.200259D-03
     31  0.542380D-04 -0.421732D-02 -0.189786D-02  0.355095D-02  0.642621D-03
     32  0.475409D-03  0.240495D-02 -0.127362D-02  0.101117D-02  0.638256D-03
     33 -0.153080D-01 -0.128093D-01  0.104855D-02  0.386279D-02  0.122507D-02
     34 -0.127832D-01 -0.125733D-03 -0.326458D-02  0.193409D-02 -0.156804D-03
     35  0.160176D-01 -0.133365D-01 -0.156410D-03  0.249158D-02  0.158242D-02
     36  0.185424D-01 -0.652920D-03 -0.446955D-02  0.562883D-03  0.200542D-03
     37 -0.121433D-01 -0.636903D-02  0.439824D-02  0.303906D-02  0.757880D-03
     38 -0.961856D-02  0.631456D-02  0.851006D-04  0.111036D-02 -0.623996D-03
     39  0.303986D-03  0.974131D-02 -0.704264D-02 -0.175572D-02 -0.187713D-02
     40 -0.331946D-03 -0.478414D-02 -0.307391D-02 -0.110954D-02 -0.840449D-03
               11            12            13            14            15 
     11  0.121932D+00
     12 -0.833652D-01  0.186112D+00
     13 -0.384848D-01 -0.102780D+00  0.141232D+00
     14 -0.217091D-03  0.781148D-02 -0.790449D-02  0.166408D+00
     15  0.705209D-02 -0.357663D-02 -0.338175D-02 -0.729586D-01  0.854677D-01
     16 -0.106002D-01 -0.551868D-02  0.161556D-01 -0.568883D-01  0.117291D-01
     17 -0.292020D-02 -0.220470D-02  0.520751D-02 -0.382603D-01 -0.237771D-01
     18  0.580453D-02  0.406005D-03 -0.605589D-02 -0.534471D-01  0.331822D-01
     19  0.646744D-03  0.208992D-02 -0.276948D-02  0.383595D-01 -0.236574D-01
     20  0.774833D-03 -0.414237D-03 -0.485837D-03  0.455829D-02 -0.593231D-02
     21  0.130051D-02 -0.221429D-02  0.101294D-02 -0.436185D-04  0.486239D-02
     22 -0.129874D-02  0.214770D-02 -0.800996D-03 -0.633610D-02  0.230617D-02
     23 -0.167273D-02 -0.875271D-02  0.998342D-02  0.675703D-01 -0.354561D-01
     24 -0.464774D-04 -0.248113D-01  0.248808D-01 -0.490148D-02 -0.431553D-03
     25  0.780636D-03  0.343963D-04 -0.103953D-02 -0.492627D-02  0.119948D-01
     26  0.148273D-02  0.165600D-03 -0.191459D-02  0.106702D-01 -0.111868D-01
     27  0.389760D-03 -0.206029D-02  0.143274D-02 -0.109819D-01  0.108941D-01
     28  0.226322D-02  0.175815D-02 -0.362294D-02 -0.171713D-01  0.156444D-01
     29  0.296532D-02  0.188935D-02 -0.449800D-02 -0.157482D-02 -0.753718D-02
     30  0.187235D-02 -0.336535D-03 -0.115067D-02 -0.232269D-01  0.145437D-01
     31  0.183722D-02 -0.436860D-03 -0.104669D-02 -0.141925D-01  0.578036D-02
     32 -0.348211D-02  0.286341D-02  0.357826D-03 -0.200847D-02  0.199195D-02
     33  0.111926D-01 -0.207605D-02 -0.894635D-02 -0.207338D-01  0.289431D-01
     34  0.470619D-02  0.176524D-02 -0.648634D-02 -0.468876D-02  0.184681D-01
     35  0.425359D-02 -0.176410D-02 -0.226684D-02 -0.238953D-01 -0.114883D-01
     36 -0.223285D-02  0.207719D-02  0.193179D-03 -0.785022D-02 -0.219633D-01
     37  0.130051D-02 -0.320951D-02  0.200253D-02 -0.775622D-02  0.127382D-01
     38 -0.518594D-02  0.631781D-03  0.446255D-02  0.828881D-02  0.226317D-02
     39 -0.306328D-02  0.249078D-02  0.339764D-03  0.248897D-01 -0.117277D-01
     40  0.173164D-02 -0.605747D-03 -0.121651D-02  0.138544D-01 -0.377454D-02
               16            17            18            19            20 
     16  0.832883D-01
     17  0.218886D-01  0.675468D-01
     18 -0.294207D-01 -0.300697D-03  0.820984D-01
     19 -0.214984D-01 -0.263673D-01 -0.302044D-01  0.606117D-01
     20 -0.113830D-03  0.459222D-02 -0.389037D-03 -0.355462D-02  0.930917D-01
     21 -0.309621D-02 -0.839181D-02  0.449815D-02  0.241864D-02 -0.254240D-01
     22  0.324976D-02  0.365312D-02 -0.301420D-02  0.915054D-03 -0.673047D-01
     23 -0.497323D-02 -0.752137D-02 -0.306995D-01  0.470195D-02  0.196669D-01
     24  0.454513D-02  0.292366D-02 -0.126315D-02 -0.321827D-03 -0.358645D-02
     25 -0.692360D-02 -0.207299D-01  0.226025D-01 -0.138632D-02  0.197483D-02
     26 -0.971252D-02  0.226807D-01  0.819171D-02 -0.237949D-01  0.688823D-02
     27  0.140142D-01 -0.934001D-02 -0.256093D-01  0.244565D-01 -0.415004D-03
     28 -0.548415D-02 -0.174554D-01  0.287427D-01 -0.266759D-02 -0.302552D-02
     29 -0.827308D-02  0.259552D-01  0.143319D-01 -0.250762D-01  0.188788D-02
     30  0.154537D-01 -0.606555D-02 -0.194692D-01  0.231752D-01 -0.541535D-02
     31  0.305823D-02  0.286336D-02  0.535993D-02 -0.152574D-02 -0.291433D-02
     32  0.174615D-02 -0.339682D-03 -0.780185D-03 -0.240516D-03  0.197878D-02
     33 -0.186031D-01 -0.455732D-02  0.187812D-01 -0.208883D-02  0.749276D-04
     34 -0.193482D-01 -0.403703D-02  0.987092D-02 -0.123535D-03  0.261253D-03
     35 -0.640210D-02  0.961426D-02  0.155630D-01  0.173579D-01  0.133100D-02
     36 -0.714720D-02  0.101346D-01  0.665270D-02  0.193232D-01  0.151732D-02
     37  0.273896D-01 -0.445488D-02 -0.417567D-02 -0.212826D-01  0.295962D-02
     38  0.266445D-01 -0.393459D-02 -0.130859D-01 -0.193173D-01  0.314595D-02
     39 -0.278269D-02 -0.469598D-02 -0.106481D-01  0.268550D-02  0.153664D-01
     40 -0.282142D-02 -0.638063D-02 -0.363335D-02  0.160486D-02  0.143761D-01
               21            22            23            24            25 
     21  0.935166D-01
     22 -0.670624D-01  0.133329D+00
     23 -0.299410D-01  0.232907D-02 -0.280925D+00
     24  0.221851D-02  0.154618D-02 -0.184385D-02  0.158927D+00
     25  0.167638D-02 -0.328160D-02 -0.744332D-02 -0.245455D-02  0.209868D-01
     26 -0.565234D-02 -0.145916D-02  0.511164D-02 -0.232302D-02 -0.282068D-03
     27 -0.189960D-02  0.248664D-02 -0.101372D-01 -0.574380D-03  0.667611D-03
     28  0.558996D-02 -0.133361D-02 -0.251732D-01 -0.188826D-02  0.120374D-01
     29 -0.173876D-02  0.488834D-03 -0.126183D-01 -0.175673D-02 -0.923149D-02
     30  0.201399D-02  0.443463D-02 -0.278671D-01 -0.809175D-05 -0.828181D-02
     31  0.255753D-02  0.109568D-02 -0.821361D-02  0.602119D-03 -0.473081D-02
     32 -0.135503D-02 -0.755171D-03  0.908814D-02 -0.406103D-03  0.405246D-02
     33 -0.123298D-02  0.346180D-02 -0.567547D-01 -0.604157D-03  0.247548D-02
     34 -0.181812D-04 -0.846783D-03  0.943090D-02 -0.211367D-02 -0.363889D-03
     35 -0.193453D-02  0.275187D-02 -0.558223D-01  0.161107D-02  0.427440D-02
     36 -0.719735D-03 -0.155671D-02  0.103633D-01  0.101558D-03  0.143503D-02
     37 -0.230197D-02  0.109149D-02 -0.342381D-01  0.833214D-03  0.469417D-02
     38 -0.108717D-02 -0.321709D-02  0.319475D-01 -0.676303D-03  0.185480D-02
     39 -0.881308D-02 -0.782575D-02  0.325971D-01 -0.450169D-02  0.157255D-02
     40  0.608341D-02 -0.195020D-01 -0.182211D-01 -0.319209D-02  0.393474D-02
               26            27            28            29            30 
     26  0.276684D-01
     27 -0.111855D-01  0.305230D-01
     28 -0.108972D-01 -0.883920D-02  0.279286D-01
     29  0.170532D-01 -0.206923D-01  0.499392D-02  0.312786D-01
     30 -0.218007D-01  0.210162D-01  0.705197D-02 -0.646688D-02  0.363500D-01
     31 -0.683415D-02 -0.408193D-02  0.934746D-02  0.724412D-02  0.999634D-02
     32  0.357554D-02  0.521859D-02 -0.628560D-02 -0.676252D-02 -0.511948D-02
     33  0.154505D-02  0.433848D-02  0.917498D-02  0.824455D-02  0.110380D-01
     34  0.323896D-02  0.258173D-02 -0.955879D-03  0.264697D-02  0.198974D-02
     35 -0.674273D-02  0.452575D-02  0.131014D-01  0.208422D-02  0.133527D-01
     36 -0.504882D-02  0.276900D-02  0.297049D-02 -0.351336D-02  0.430446D-02
     37  0.215431D-02 -0.225066D-02  0.836921D-02  0.582934D-02  0.142437D-02
     38  0.384822D-02 -0.400741D-02 -0.176165D-02  0.231758D-03 -0.762387D-02
     39  0.465927D-02  0.361002D-03 -0.765170D-02 -0.456498D-02 -0.886325D-02
     40  0.273671D-02  0.123140D-02  0.306719D-03 -0.891308D-03 -0.239662D-02
               31            32            33            34            35 
     31  0.118083D-01
     32 -0.207441D-02  0.820741D-02
     33  0.599709D-02 -0.841599D-03  0.309578D-01
     34 -0.263440D-03  0.260315D-03  0.109115D-01  0.161411D-01
     35  0.709177D-02 -0.169934D-02  0.120917D-01 -0.661331D-02  0.378958D-01
     36  0.831232D-03 -0.597427D-03 -0.795457D-02 -0.138370D-02  0.191908D-01
     37  0.312651D-02 -0.569696D-03  0.449003D-02 -0.106997D-01 -0.321316D-02
     38 -0.313402D-02  0.532218D-03 -0.155563D-01 -0.547013D-02 -0.219182D-01
     39 -0.685976D-02  0.231230D-02 -0.128173D-01 -0.186790D-02 -0.129192D-01
     40 -0.214387D-02  0.137832D-02  0.968271D-03 -0.551399D-02 -0.146392D-03
               36            37            38            39            40 
     36  0.257617D-01
     37 -0.184029D-01  0.310397D-01
     38 -0.118321D-01  0.158500D-01  0.259361D-01
     39 -0.196977D-02 -0.530669D-02  0.564275D-02  0.373244D-01
     40 -0.662865D-02  0.500934D-02 -0.147292D-02  0.287065D-01  0.348952D-01
 Leave Link  716 at Sat May 24 02:18:59 2025, MaxMem=  3758096384 cpu:               0.1 elap:               0.0
 (Enter /apps/easybuild-2022/easybuild/software/Compiler/NVHPC/22.11-CUDA-11.7.0/Gaussian/g16c01-CUDA-11.7.0/g16/l103.exe)

 GradGradGradGradGradGradGradGradGradGradGradGradGradGradGradGradGradGrad
 Berny optimization.
 Red2BG is reusing G-inverse.
 Internal  Forces:  Max     0.218806039 RMS     0.050989830
 Search for a saddle point.
 Step number   1 out of a maximum of  100
 All quantities printed in internal units (Hartrees-Bohrs-Radians)
 Swapping is turned off.
 Second derivative matrix not updated -- analytic derivatives used.
 ITU=  0
     Eigenvalues ---   -0.33109  -0.00417  -0.00108   0.00698   0.01267
     Eigenvalues ---    0.03511   0.05198   0.05710   0.06457   0.10948
     Eigenvalues ---    0.12136   0.13181   0.13992   0.15453   0.18165
     Eigenvalues ---    0.19906   0.21236   0.22033   0.30057   0.32248
     Eigenvalues ---    0.34662   0.44753   0.46310   0.53669   0.54500
     Eigenvalues ---    0.97171   0.98971
 Eigenvectors required to have negative eigenvalues:
                          A13       D11       D9        A4        R9
   1                    0.95390   0.12467   0.12204  -0.09674   0.08103
                          D13       D14       D15       A11       D16
   1                    0.08074  -0.07300  -0.06091   0.06026   0.05575
 Eigenvalue     2 is  -4.17D-03 should be greater than     0.000000 Eigenvector:
                          R7        A11       D11       D9        A12
   1                   -0.91304  -0.20522  -0.14728  -0.12393   0.11199
                          D13       D8        D7        R9        A10
   1                   -0.10722   0.10273   0.09871  -0.09650   0.07889
 Eigenvalue     3 is  -1.08D-03 should be greater than     0.000000 Eigenvector:
                          D10       D14       D12       D9        D13
   1                    0.39488   0.38122   0.35228   0.29473   0.28107
                          D1        D11       D4        D3        D2
   1                   -0.25226   0.25213  -0.24121  -0.22730  -0.22506
 RFO step:  Lambda0=9.816453340D-02 Lambda=-2.05361171D-01.
 Linear search not attempted -- option 19 set.
 Maximum step size (   0.300) exceeded in Quadratic search.
    -- Step size scaled by   0.246
 Iteration  1 RMS(Cart)=  0.04494417 RMS(Int)=  0.01197938
 Iteration  2 RMS(Cart)=  0.01365072 RMS(Int)=  0.00005209
 Iteration  3 RMS(Cart)=  0.00002656 RMS(Int)=  0.00004884
 Iteration  4 RMS(Cart)=  0.00000000 RMS(Int)=  0.00004884
 ITry= 1 IFail=0 DXMaxC= 1.71D-01 DCOld= 1.00D+10 DXMaxT= 3.00D-01 DXLimC= 3.00D+00 Rises=F
 Variable       Old X    -DE/DX   Delta X   Delta X   Delta X     New X
                                 (Linear)    (Quad)   (Total)
    R1        2.24003  -0.01190   0.00000  -0.00278  -0.00278   2.23725
    R2        2.97614  -0.00228   0.00000   0.00273   0.00273   2.97886
    R3        2.51213  -0.00666   0.00000  -0.00505  -0.00505   2.50709
    R4        2.61922   0.08233   0.00000   0.02732   0.02732   2.64654
    R5        2.58005  -0.01082   0.00000  -0.00908  -0.00908   2.57096
    R6        2.55839  -0.01813   0.00000  -0.00653  -0.00653   2.55186
    R7        3.15584  -0.17554   0.00000  -0.27143  -0.27143   2.88441
    R8        2.20963   0.09466   0.00000   0.02331   0.02331   2.23293
    R9        3.59048   0.06295   0.00000   0.03521   0.03521   3.62569
   R10        1.82302   0.00091   0.00000   0.00088   0.00088   1.82390
    A1        2.19457  -0.01769   0.00000  -0.01369  -0.01369   2.18088
    A2        2.17020   0.02888   0.00000   0.01750   0.01750   2.18769
    A3        1.91808  -0.01130   0.00000  -0.00382  -0.00382   1.91426
    A4        1.87496   0.01851   0.00000   0.00341   0.00341   1.87837
    A5        1.91493  -0.00565   0.00000   0.00427   0.00427   1.91920
    A6        1.91101  -0.00265   0.00000  -0.00129  -0.00132   1.90970
    A7        1.99503  -0.01633   0.00000  -0.00792  -0.00792   1.98711
    A8        1.99230  -0.01652   0.00000  -0.01310  -0.01312   1.97919
    A9        1.77360   0.02199   0.00000   0.01530   0.01527   1.78887
   A10        2.00204  -0.00993   0.00000  -0.00673  -0.00673   1.99531
   A11        2.39798  -0.02120   0.00000  -0.02911  -0.02914   2.36884
   A12        1.87266   0.03042   0.00000   0.03743   0.03744   1.91010
   A13        1.32261  -0.21881   0.00000   0.10098   0.10098   1.42359
   A14        1.93238  -0.00750   0.00000  -0.00362  -0.00362   1.92876
    D1        2.11731   0.00070   0.00000  -0.02708  -0.02709   2.09023
    D2       -1.98760  -0.01094   0.00000  -0.03193  -0.03194  -2.01954
    D3       -0.05514   0.01074   0.00000  -0.01235  -0.01234  -0.06748
    D4       -1.05142  -0.00321   0.00000  -0.02704  -0.02705  -1.07847
    D5        1.12685  -0.01484   0.00000  -0.03190  -0.03190   1.09495
    D6        3.05931   0.00684   0.00000  -0.01231  -0.01230   3.04701
    D7       -0.22683  -0.00317   0.00000  -0.00332  -0.00332  -0.23015
    D8        2.94145   0.00154   0.00000  -0.00277  -0.00277   2.93868
    D9       -1.40618  -0.00384   0.00000   0.04712   0.04706  -1.35912
   D10        1.91618  -0.00110   0.00000   0.02915   0.02919   1.94537
   D11        2.74787   0.00054   0.00000   0.04434   0.04431   2.79217
   D12       -0.21296   0.00328   0.00000   0.02638   0.02644  -0.18652
   D13        0.71621  -0.00453   0.00000   0.03948   0.03944   0.75564
   D14       -2.24462  -0.00179   0.00000   0.02152   0.02157  -2.22306
   D15        1.64359  -0.00603   0.00000  -0.00374  -0.00394   1.63965
   D16       -1.62581  -0.01214   0.00000   0.00332   0.00352  -1.62229
         Item               Value     Threshold  Converged?
 Maximum Force            0.218806     0.000450     NO 
 RMS     Force            0.050990     0.000300     NO 
 Maximum Displacement     0.171380     0.001800     NO 
 RMS     Displacement     0.048901     0.001200     NO 
 Predicted change in Energy=-3.751650D-02
 Lowest energy point so far.  Saving SCF results.
 GradGradGradGradGradGradGradGradGradGradGradGradGradGradGradGradGradGrad

 Leave Link  103 at Sat May 24 02:18:59 2025, MaxMem=  3758096384 cpu:               0.1 elap:               0.0
 (Enter /apps/easybuild-2022/easybuild/software/Compiler/NVHPC/22.11-CUDA-11.7.0/Gaussian/g16c01-CUDA-11.7.0/g16/l202.exe)
                          Input orientation:                          
 ---------------------------------------------------------------------
 Center     Atomic      Atomic             Coordinates (Angstroms)
 Number     Number       Type             X           Y           Z
 ---------------------------------------------------------------------
      1          6           0        1.385809   -0.108270    0.027981
      2          8           0        1.908673   -1.167102   -0.056339
      3          6           0       -0.139956    0.170529   -0.253416
      4          6           0       -0.702585    0.677678    0.924553
      5          9           0       -1.000150   -0.379191    1.984868
      6          9           0        0.741443    0.147573    2.593571
      7          9           0       -1.138562    1.718883    1.273890
      8          9           0       -0.270958    0.997195   -1.325988
      9          9           0       -0.731488   -0.964068   -0.685059
     10          8           0        1.997383    1.027079    0.339547
     11          1           0        2.879889    0.851102    0.688494
 ---------------------------------------------------------------------
                    Distance matrix (angstroms):
                    1          2          3          4          5
     1  C    0.000000
     2  O    1.183901   0.000000
     3  C    1.576347   2.454582   0.000000
     4  C    2.404775   3.344253   1.400487   0.000000
     5  F    3.097677   3.639859   2.460090   1.526363   0.000000
     6  F    2.657614   3.180065   2.980390   2.269769   1.918631
     7  F    3.356073   4.402733   2.393174   1.181618   2.219586
     8  F    2.408353   3.323700   1.360496   2.313726   3.658952
     9  F    2.392438   2.721573   1.350384   2.299350   2.746410
    10  O    1.326693   2.231373   2.377709   2.784625   3.697280
    11  H    1.894453   2.360336   3.235713   3.594429   4.271874
                    6          7          8          9         10
     6  F    0.000000
     7  F    2.782983   0.000000
     8  F    4.136394   2.834244   0.000000
     9  F    3.762271   3.346852   2.114103   0.000000
    10  O    2.726085   3.344509   2.814298   3.530045   0.000000
    11  H    2.949105   4.152551   3.742636   4.268904   0.965168
                   11
    11  H    0.000000
 Symmetry turned off by external request.
 Stoichiometry    C3HF5O2
 Rotational constants (GHZ):           1.5200491           1.3083232           1.0603384
 Leave Link  202 at Sat May 24 02:18:59 2025, MaxMem=  3758096384 cpu:               0.0 elap:               0.0
 (Enter /apps/easybuild-2022/easybuild/software/Compiler/NVHPC/22.11-CUDA-11.7.0/Gaussian/g16c01-CUDA-11.7.0/g16/l301.exe)
 Standard basis: def2TZVPP (5D, 7F)
 Ernie: Thresh=  0.10000D-02 Tol=  0.10000D-05 Strict=F.
   324 basis functions,   527 primitive gaussians,   375 cartesian basis functions
    40 alpha electrons       40 beta electrons
       nuclear repulsion energy       621.9108550372 Hartrees.
 IExCor= 4336 DFT=T Ex+Corr=M062X ExCW=0 ScaHFX=  0.540000
 ScaDFX=  1.000000  1.000000  1.000000  1.000000 ScalE2=  1.000000  1.000000
 IRadAn=      5 IRanWt=     -1 IRanGd=            0 ICorTp=0 IEmpDi=  4
 NAtoms=   11 NActive=   11 NUniq=   11 SFac= 1.00D+00 NAtFMM=   60 NAOKFM=F Big=F
 Integral buffers will be    131072 words long.
 Raffenetti 2 integral format.
 Two-electron integral symmetry is turned off.
 Leave Link  301 at Sat May 24 02:18:59 2025, MaxMem=  3758096384 cpu:               0.0 elap:               0.0
 (Enter /apps/easybuild-2022/easybuild/software/Compiler/NVHPC/22.11-CUDA-11.7.0/Gaussian/g16c01-CUDA-11.7.0/g16/l302.exe)
 NPDir=0 NMtPBC=     1 NCelOv=     1 NCel=       1 NClECP=     1 NCelD=      1
         NCelK=      1 NCelE2=     1 NClLst=     1 CellRange=     0.0.
 One-electron integrals computed using PRISM.
   1 Symmetry operations used in ECPInt.
 ECPInt:  NShTT=    6786 NPrTT=   21959 LenC2=    6482 LenP2D=   15850.
 LDataN:  DoStor=T MaxTD1= 6 Len=  172
 NBasis=   324 RedAO= T EigKep=  1.80D-04  NBF=   324
 NBsUse=   324 1.00D-06 EigRej= -1.00D+00 NBFU=   324
 Precomputing XC quadrature grid using
 IXCGrd= 4 IRadAn=           5 IRanWt=          -1 IRanGd=           0 AccXCQ= 0.00D+00.
 Generated NRdTot=       0 NPtTot=           0 NUsed=           0 NTot=          32
 NSgBfM=   373   373   373   373   373 MxSgAt=    11 MxSgA2=    11.
 Leave Link  302 at Sat May 24 02:18:59 2025, MaxMem=  3758096384 cpu:               0.7 elap:               0.2
 (Enter /apps/easybuild-2022/easybuild/software/Compiler/NVHPC/22.11-CUDA-11.7.0/Gaussian/g16c01-CUDA-11.7.0/g16/l303.exe)
 DipDrv:  MaxL=1.
 Leave Link  303 at Sat May 24 02:18:59 2025, MaxMem=  3758096384 cpu:               0.1 elap:               0.1
 (Enter /apps/easybuild-2022/easybuild/software/Compiler/NVHPC/22.11-CUDA-11.7.0/Gaussian/g16c01-CUDA-11.7.0/g16/l401.exe)
 Initial guess from the checkpoint file:  "1642764945472630600001_r12_insertion_R_5_4_6.chk"
 B after Tr=     0.004264    0.004132   -0.002485
         Rot=    1.000000    0.000132   -0.000328   -0.000374 Ang=   0.06 deg.
 Guess basis will be translated and rotated to current coordinates.
 JPrj=2 DoOrth=T DoCkMO=T.
 Generating alternative initial guess.
 ExpMin= 9.52D-02 ExpMax= 3.55D+04 ExpMxC= 1.21D+03 IAcc=3 IRadAn=         5 AccDes= 0.00D+00
 Harris functional with IExCor= 1009 and IRadAn=       5 diagonalized for initial guess.
 HarFok:  IExCor= 1009 AccDes= 0.00D+00 IRadAn=         5 IDoV= 1 UseB2=F ITyADJ=14
 ICtDFT=  3500011 ScaDFX=  1.000000  1.000000  1.000000  1.000000
 FoFCou: FMM=F IPFlag=           0 FMFlag=      100000 FMFlg1=           0
         NFxFlg=           0 DoJE=T BraDBF=F KetDBF=T FulRan=T
         wScrn=  0.000000 ICntrl=       500 IOpCl=  0 I1Cent=   200000004 NGrid=           0
         NMat0=    1 NMatS0=      1 NMatT0=    0 NMatD0=    1 NMtDS0=    0 NMtDT0=    0
 Symmetry not used in FoFCou.
 Harris En= -764.085051637324    
 Leave Link  401 at Sat May 24 02:19:00 2025, MaxMem=  3758096384 cpu:               3.7 elap:               0.6
 (Enter /apps/easybuild-2022/easybuild/software/Compiler/NVHPC/22.11-CUDA-11.7.0/Gaussian/g16c01-CUDA-11.7.0/g16/l502.exe)
 Keep R1 ints in memory in canonical form, NReq=1412617130.
 FoFCou: FMM=F IPFlag=           0 FMFlag=           0 FMFlg1=           0
         NFxFlg=           0 DoJE=F BraDBF=F KetDBF=F FulRan=T
         wScrn=  0.000000 ICntrl=       600 IOpCl=  0 I1Cent=           0 NGrid=           0
         NMat0=    1 NMatS0=  52650 NMatT0=    0 NMatD0=    1 NMtDS0=    0 NMtDT0=    0
 Symmetry not used in FoFCou.
 Two-electron integral symmetry not used.
 Closed shell SCF:
 Using DIIS extrapolation, IDIIS=  1040.
 NGot=  3758096384 LenX=  2371771924 LenY=  2371630858
 Requested convergence on RMS density matrix=1.00D-08 within  32 cycles.
 Requested convergence on MAX density matrix=1.00D-06.
 Requested convergence on             energy=1.00D-06.
 No special actions if energy rises.
 Integral accuracy reduced to 1.0D-05 until final iterations.

 Cycle   1  Pass 0  IDiag  1:
 E= -764.384896603758    
 DIIS: error= 2.90D-03 at cycle   1 NSaved=   1.
 NSaved= 1 IEnMin= 1 EnMin= -764.384896603758     IErMin= 1 ErrMin= 2.90D-03
 ErrMax= 2.90D-03  0.00D+00 EMaxC= 1.00D-01 BMatC= 6.78D-03 BMatP= 6.78D-03
 IDIUse=3 WtCom= 9.71D-01 WtEn= 2.90D-02
 Coeff-Com:  0.100D+01
 Coeff-En:   0.100D+01
 Coeff:      0.100D+01
 Gap=     0.983 Goal=   None    Shift=    0.000
 GapD=    0.983 DampG=2.000 DampE=1.000 DampFc=2.0000 IDamp=-1.
 RMSDP=4.26D-04 MaxDP=2.16D-02              OVMax= 3.22D-02

 Cycle   2  Pass 0  IDiag  1:
 E= -764.392980813431     Delta-E=       -0.008084209673 Rises=F Damp=F
 DIIS: error= 8.41D-04 at cycle   2 NSaved=   2.
 NSaved= 2 IEnMin= 2 EnMin= -764.392980813431     IErMin= 2 ErrMin= 8.41D-04
 ErrMax= 8.41D-04  0.00D+00 EMaxC= 1.00D-01 BMatC= 6.60D-04 BMatP= 6.78D-03
 IDIUse=3 WtCom= 9.92D-01 WtEn= 8.41D-03
 Coeff-Com:  0.777D-01 0.922D+00
 Coeff-En:   0.000D+00 0.100D+01
 Coeff:      0.771D-01 0.923D+00
 Gap=     0.194 Goal=   None    Shift=    0.000
 RMSDP=1.30D-04 MaxDP=5.63D-03 DE=-8.08D-03 OVMax= 2.19D-02

 Cycle   3  Pass 0  IDiag  1:
[...]
     24 -0.289547D+00 -0.264476D+00  0.552497D+00  0.693119D+00 -0.227431D+00
     25  0.226182D-01  0.179007D-01 -0.411087D-01 -0.830779D-01  0.475338D-01
     26 -0.551724D-01 -0.556896D-01  0.109907D+00  0.208997D+00 -0.748525D-01
     27  0.675607D-01  0.593981D-01 -0.127270D+00 -0.250864D+00  0.892907D-01
     28  0.622783D-01  0.595444D-01 -0.121225D+00 -0.219066D+00  0.873012D-01
     29 -0.155123D-01 -0.140460D-01  0.297907D-01  0.730087D-01 -0.350850D-01
     30  0.107221D+00  0.101042D+00 -0.207386D+00 -0.386852D+00  0.129058D+00
     31  0.605641D-02  0.277866D-02 -0.829755D-02 -0.336073D-01  0.224441D-01
     32 -0.471532D-01 -0.358607D-01  0.817005D-01  0.124976D+00 -0.214891D-01
     33  0.133392D+00  0.117310D+00 -0.250247D+00 -0.501377D+00  0.176367D+00
     34 -0.102608D+00 -0.835544D-01  0.185492D+00  0.388376D+00 -0.113046D+00
     35  0.254070D+00  0.217504D+00 -0.470360D+00 -0.932510D+00  0.286332D+00
     36  0.180701D-01  0.166396D-01 -0.346209D-01 -0.427564D-01 -0.308114D-02
     37  0.215620D-01  0.190785D-01 -0.406607D-01 -0.102956D+00  0.459695D-01
     38 -0.214438D+00 -0.181786D+00  0.395078D+00  0.786797D+00 -0.243444D+00
     39 -0.538534D+00 -0.477921D+00  0.101350D+01  0.211315D+01 -0.666439D+00
     40 -0.305212D+00 -0.280615D+00  0.584000D+00  0.123531D+01 -0.381684D+00
               16            17            18            19            20 
     16  0.429813D+00
     17  0.267013D+00  0.251451D+00
     18  0.262248D+00  0.198093D+00  0.376748D+00
     19 -0.105303D+00 -0.933046D-01 -0.115575D+00  0.743422D-01
     20  0.149303D+00  0.106804D+00  0.140574D+00 -0.448499D-01  0.221181D+00
     21  0.216169D-02  0.387670D-02  0.864267D-02 -0.277905D-02 -0.551989D-01
     22 -0.902628D-01 -0.695969D-01 -0.923147D-01  0.301626D-01 -0.133323D+00
     23 -0.665048D+00 -0.464797D+00 -0.683851D+00  0.193925D+00 -0.388170D+00
     24 -0.202471D+00 -0.135398D+00 -0.197467D+00  0.605616D-01 -0.794659D-01
     25  0.437699D-02 -0.180610D-01  0.570616D-01 -0.709787D-02  0.212522D-01
     26 -0.733566D-01 -0.221674D-01 -0.427251D-01 -0.487338D-02 -0.155270D-01
     27  0.855914D-01  0.380974D-01  0.464450D-01  0.121070D-02  0.413910D-01
     28  0.479521D-01  0.131144D-01  0.919088D-01 -0.187239D-01  0.356342D-01
     29 -0.297815D-01  0.900803D-02 -0.787801D-02 -0.164994D-01 -0.114498D-02
     30  0.129166D+00  0.692728D-01  0.812921D-01 -0.104153D-01  0.557730D-01
     31 -0.271810D-02 -0.992601D-02  0.268023D-01 -0.284233D-02  0.235568D-01
     32 -0.547730D-01 -0.482996D-01 -0.128275D-01  0.106322D-01  0.768256D-02
     33  0.133633D+00  0.911151D-01  0.149616D+00 -0.426422D-01  0.809261D-01
     34 -0.131870D+00 -0.857768D-01 -0.959872D-01  0.324766D-01 -0.481805D-01
     35  0.268324D+00  0.191494D+00  0.265680D+00 -0.669672D-01  0.137333D+00
     36  0.282119D-02  0.146016D-01  0.200769D-01  0.815157D-02  0.822647D-02
     37  0.461296D-01  0.761282D-02  0.259273D-01 -0.205551D-01  0.279909D-01
     38 -0.219373D+00 -0.169279D+00 -0.219676D+00  0.545637D-01 -0.101116D+00
     39 -0.637285D+00 -0.447111D+00 -0.570794D+00  0.180372D+00 -0.270609D+00
     40 -0.376329D+00 -0.271707D+00 -0.327270D+00  0.105632D+00 -0.141648D+00
               21            22            23            24            25 
     21  0.143658D+00
     22 -0.875174D-01  0.200117D+00
     23  0.198299D-01  0.211461D+00  0.206072D+01
     24  0.299893D-02  0.467331D-01  0.175045D+00  0.508362D+00
     25 -0.540349D-02 -0.905762D-02 -0.116932D+00 -0.219490D-01  0.422751D-01
     26 -0.677969D-02  0.125298D-01  0.827563D-01  0.358888D-01  0.706625D-02
     27 -0.733647D-02 -0.190196D-01 -0.192472D+00 -0.455835D-01  0.174933D-01
     28 -0.341925D-02 -0.190035D-01 -0.176156D+00 -0.592197D-01  0.325150D-01
     29 -0.479544D-02  0.258388D-02  0.235319D-01 -0.138189D-02 -0.269379D-02
     30 -0.535222D-02 -0.289655D-01 -0.251696D+00 -0.828542D-01  0.773330D-02
     31 -0.116794D-01 -0.650842D-02 -0.119882D+00 -0.879350D-02  0.245939D-01
     32 -0.150068D-01  0.525782D-02 -0.592120D-01  0.343773D-01  0.418847D-01
     33 -0.111390D-01 -0.378227D-01 -0.404609D+00 -0.823954D-01  0.264101D-01
     34 -0.238126D-02  0.269224D-01  0.278923D+00  0.461707D-01 -0.319643D-02
     35 -0.870971D-02 -0.741962D-01 -0.673711D+00 -0.157287D+00  0.371043D-01
     36  0.480240D-04 -0.945111D-02  0.982072D-02 -0.287207D-01  0.749783D-02
     37 -0.136012D-01 -0.364768D-02 -0.147988D+00 -0.104322D-01  0.199230D-01
     38 -0.484345D-02  0.610974D-01  0.535544D+00  0.118134D+00 -0.968349D-02
     39 -0.221016D-01  0.177008D+00  0.133223D+01  0.262667D+00 -0.345151D-01
     40  0.303915D-02  0.778580D-01  0.666971D+00  0.136571D+00 -0.642944D-02
               26            27            28            29            30 
     26  0.438101D-01
     27 -0.120020D-01  0.489732D-01
     28 -0.119916D-01  0.142769D-01  0.453958D-01
     29  0.247523D-01 -0.152185D-01  0.889192D-03  0.283353D-01
     30 -0.310598D-01  0.457567D-01  0.271576D-01 -0.116355D-01  0.651810D-01
     31  0.956261D-02  0.134463D-01  0.342505D-01  0.192193D-01  0.231029D-01
     32  0.370597D-01  0.228229D-01  0.171669D-01  0.123419D-01 -0.189489D-02
     33 -0.146228D-01  0.454563D-01  0.390327D-01 -0.200022D-02  0.580790D-01
     34  0.280662D-01 -0.202400D-01 -0.183543D-01  0.129083D-01 -0.353979D-01
     35 -0.446518D-01  0.723884D-01  0.671025D-01 -0.146536D-01  0.102387D+00
     36 -0.196271D-02  0.669207D-02  0.971548D-02  0.254940D-03  0.890972D-02
     37  0.497376D-02  0.141987D-01  0.203041D-01  0.535489D-02  0.145798D-01
     38  0.476628D-01 -0.514976D-01 -0.370829D-01  0.202634D-01 -0.788971D-01
     39  0.119003D+00 -0.131203D+00 -0.105366D+00  0.481523D-01 -0.202054D+00
     40  0.762729D-01 -0.682796D-01 -0.496368D-01  0.330656D-01 -0.111487D+00
               31            32            33            34            35 
     31  0.580249D-01
     32  0.422536D-01  0.806374D-01
     33  0.290562D-01  0.162869D-01  0.939277D-01
     34  0.554824D-02  0.249143D-01 -0.461266D-01  0.575995D-01
     35  0.312325D-01 -0.340723D-02  0.137746D+00 -0.992741D-01  0.257382D+00
     36  0.772453D-02  0.522021D-02 -0.230856D-02  0.445192D-02  0.203624D-01
     37  0.235109D-01  0.241925D-01  0.300875D-01 -0.183277D-01  0.352724D-01
     38  0.291795D-05  0.328199D-01 -0.109967D+00  0.853983D-01 -0.201747D+00
     39 -0.720542D-02  0.767836D-01 -0.275674D+00  0.225305D+00 -0.511393D+00
     40  0.138455D-01  0.656628D-01 -0.141153D+00  0.124134D+00 -0.280891D+00
               36            37            38            39            40 
     36  0.271229D-01
     37 -0.131428D-01  0.386740D-01
     38 -0.638236D-02 -0.974123D-02  0.185624D+00
     39 -0.104137D-01 -0.562123D-01  0.444767D+00  0.124650D+01
     40 -0.156048D-01 -0.124018D-01  0.252885D+00  0.750440D+00  0.492025D+00
 Leave Link  716 at Sat May 24 05:46:48 2025, MaxMem=  3758096384 cpu:               0.0 elap:               0.0
 (Enter /apps/easybuild-2022/easybuild/software/Compiler/NVHPC/22.11-CUDA-11.7.0/Gaussian/g16c01-CUDA-11.7.0/g16/l9999.exe)

 ----------------------------------------------------------------------

 Electric dipole moment (input orientation):
 (Debye = 10**-18 statcoulomb cm , SI units = C m)
                  (au)            (Debye)         (10**-30 SI)
   Tot        0.140963D+01      0.358293D+01      0.119514D+02
   x         -0.120037D+01     -0.305104D+01     -0.101772D+02
   y          0.423927D+00      0.107751D+01      0.359420D+01
   z          0.605360D+00      0.153867D+01      0.513245D+01

 Dipole polarizability, Alpha (input orientation).
 (esu units = cm**3 , SI units = C**2 m**2 J**-1)
 Alpha(0;0):
               (au)            (10**-24 esu)      (10**-40 SI)
   iso        0.562367D+02      0.833341D+01      0.927217D+01
   aniso      0.363175D+02      0.538170D+01      0.598795D+01
   xx         0.649248D+02      0.962086D+01      0.107046D+02
   yx        -0.765226D+01     -0.113395D+01     -0.126169D+01
   yy         0.453270D+02      0.671677D+01      0.747342D+01
   zx        -0.118325D+02     -0.175340D+01     -0.195092D+01
   zy         0.118899D+02      0.176190D+01      0.196037D+01
   zz         0.584582D+02      0.866262D+01      0.963846D+01

 ----------------------------------------------------------------------

 Dipole orientation:
     6          1.07553558          0.31746559         -3.21268499
     8         -0.66792987         -0.25920355         -4.46006232
     6         -0.28243341          0.15147036          0.11640433
     6          1.35648722          0.26882446          2.28564237
     9          2.10308902         -1.71560026          3.38864884
     9          4.92062844          0.70338901          0.77669053
     9          1.68309038          2.30329576          3.49811343
     9         -1.87714462          2.12766864          0.11511756
     9         -1.56355116         -2.02916242          0.10434074
     8          3.27337741          1.01714768         -3.30173639
     1          4.44471381          0.91090017         -1.08105855

 Electric dipole moment (dipole orientation):
 (Debye = 10**-18 statcoulomb cm , SI units = C m)
                  (au)            (Debye)         (10**-30 SI)
   Tot        0.140963D+01      0.358293D+01      0.119514D+02
   x          0.000000D+00      0.000000D+00      0.000000D+00
   y          0.000000D+00      0.000000D+00      0.000000D+00
   z          0.140963D+01      0.358293D+01      0.119514D+02

 Dipole polarizability, Alpha (dipole orientation).
 (esu units = cm**3 , SI units = C**2 m**2 J**-1)
 Alpha(0;0):
               (au)            (10**-24 esu)      (10**-40 SI)
   iso        0.562367D+02      0.833341D+01      0.927217D+01
   aniso      0.363175D+02      0.538170D+01      0.598795D+01
   xx         0.519543D+02      0.769883D+01      0.856611D+01
   yx         0.338146D+01      0.501080D+00      0.557527D+00
   yy         0.391513D+02      0.580163D+01      0.645518D+01
   zx         0.664901D+01      0.985281D+00      0.109627D+01
   zy         0.773087D+00      0.114560D+00      0.127465D+00
   zz         0.776044D+02      0.114998D+02      0.127952D+02

 ----------------------------------------------------------------------
 Unable to Open any file for archive entry.
 1\1\GINC-SPARTAN-BM194\Freq\RM062X\def2TZVPP\C3H1F5O2\AKHALILOV\24-May
 -2025\0\\#P M062X/Def2TZVPP Symm(None) scf(xqc) pop(None) opt(NoFreeze
 ,TS,CalcAll,NoEigentest,MaxCycle=999)\\Gaussian input prepared by ASE\
 \0,1\C,1.7582261187,-0.2519429653,-0.295955388\O,1.8110679023,-0.90159
 42251,-1.273293064\C,-0.1117340792,0.0668321954,-0.124922349\C,-0.6507
 882314,0.6255988354,1.0878971303\F,-1.1412926013,-0.1117558865,1.99079
 8289\F,0.9996671688,0.9387682245,2.2818997423\F,-0.9191188184,1.857996
 7846,1.1868374156\F,-0.3395975784,0.8950351133,-1.1583207685\F,-0.6470
 623328,-1.1374736301,-0.3579298244\O,2.43773946,0.2890795153,0.5628499
 126\H,1.7323919916,0.7008650383,1.6122409041\\Version=ES64L-G16RevC.01
 \HF=-764.5522599\RMSD=3.444e-09\RMSF=2.989e-06\ZeroPoint=0.0464638\The
 rmal=0.055821\ETot=-764.4964389\HTot=-764.4954947\GTot=-764.5423429\Di
 pole=-1.2003703,0.4239268,0.6053598\DipoleDeriv=2.8076247,-0.4125844,-
 0.5070903,-0.1840705,0.9712439,0.9741425,-0.0502421,0.903996,1.7200692
 ,-0.9180225,0.2171609,0.301874,0.3255141,-0.6830795,-0.6091433,0.42623
 94,-0.5936713,-1.1754566,-1.2166417,0.8376784,1.2694777,0.7812648,0.81
 42366,-0.583526,1.0924929,-0.5456421,0.2027838,1.6109667,-0.0373973,-0
 .1034916,-0.600833,1.886552,0.2760912,-1.4772763,0.4554882,2.32986,-0.
 4110752,-0.1663792,0.2110672,-0.4460152,-0.323779,0.3344126,0.728065,0
 .1411684,-0.8026109,-0.575326,-0.0540702,-0.145954,0.0131097,-0.439405
 9,-0.2022807,0.0071488,-0.2473554,-0.9715177,-0.2206131,0.1580867,-0.0
 390867,0.7469991,-1.004392,-0.2647659,0.1846893,-0.1722987,-0.3171296,
 0.0021544,-0.0238792,-0.3539264,0.0360921,-0.4383681,0.2825003,-0.2280
 173,0.3223031,-0.5374847,-0.134876,-0.3847487,-0.2601552,-0.3857387,-0
 .617412,0.013259,-0.1500189,-0.0799012,-0.2285674,-1.3496616,-0.000226
 5,-0.0208534,-0.2552112,-0.5340189,-0.4225899,-0.4421824,-0.3817139,-1
 .0183095,0.4054704,-0.1336405,-0.3518614,-0.0311113,0.368423,0.2019002
 ,-0.0908984,0.1976269,0.7983635\Polar=64.9247517,-7.6522615,45.3270231
 ,-11.8325144,11.8898707,58.4582336\PG=Unknown\NImag=1\\0.20829256,0.13
 821166,0.53448836,0.20686515,0.52533619,1.00948192,-0.05373720,0.02239
 133,0.03723409,0.08503296,-0.00239139,-0.30947524,-0.35272197,-0.01589
 956,0.31967684,-0.00144880,-0.34945772,-0.60654235,-0.02042509,0.42958
 562,0.67951909,0.11938208,-0.02234473,-0.01266153,-0.05271964,0.035150
 41,0.04727894,0.12822177,-0.06443564,-0.01342586,0.01915592,0.03036074
 ,-0.01961617,-0.03351419,0.09444463,0.53002170,-0.11333693,0.02764893,
 0.00017884,0.05059856,-0.03959817,-0.04773399,0.08340441,0.01558441,0.
 57769317,0.00625837,0.01443678,0.02508454,-0.00579560,-0.00277477,-0.0
 0543685,-0.06359244,0.02925684,0.06865370,0.24459923,0.05692778,-0.002
 78906,-0.00178521,-0.01597281,0.00684557,0.01026869,-0.03467735,-0.067
 69332,-0.06443719,-0.03336233,0.78760172,0.13849275,-0.00834682,0.0022
 6756,-0.04002332,0.01933244,0.02482618,-0.08899563,-0.04181629,-0.1863
 4964,-0.24346089,-0.04763233,0.62477469,-0.00072062,-0.00340726,-0.004
 83785,0.00046678,0.00133930,0.00182517,0.00042661,-0.01676472,0.017461
 68,-0.11050189,-0.07559579,0.13681121,0.12397291,0.01229469,-0.0034813
 5,-0.00334990,-0.00355361,0.00309912,0.00404356,-0.02857830,0.00745276
 ,0.00744772,-0.06220307,-0.19964929,0.15634829,0.10775966,0.25599074,-
 0.03379821,0.00240908,0.00036487,0.01073803,-0.00557113,-0.00730784,0.
 05593279,0.02227137,-0.02412153,0.12451326,0.15218726,-0.30255485,-0.1
 4682108,-0.20200646,0.32180373,-0.07196131,-0.01115473,-0.01911219,0.0
 1827896,0.00228482,0.00349687,0.03795258,-0.01586083,-0.02527795,0.040
 39748,0.02160910,0.06712703,-0.03210420,-0.01353606,-0.01176939,0.1637
 6556,0.00568339,0.00439278,0.00446439,-0.00092233,-0.00243102,-0.00240
 566,-0.00001923,-0.00067417,-0.00284714,0.00272049,-0.01904833,-0.0009
 1806,-0.01201523,-0.00054232,-0.00242737,-0.05083090,0.04676154,0.0122
 5546,0.00897416,0.01152654,-0.00190761,-0.00575837,-0.00810077,0.00320
 483,-0.00460171,-0.00879985,0.01687673,0.00105474,-0.01389091,-0.00245
 080,-0.00201182,0.00782070,-0.13720947,0.05391862,0.18118218,-0.006584
 29,-0.00138477,-0.00347731,0.00209004,-0.00037525,0.00011732,0.0165851
 2,0.01764826,-0.00093840,-0.07365951,0.08874747,0.03592268,0.01427031,
 -0.01910450,-0.00214791,-0.02898257,0.01207415,-0.01274823,0.07304645,
 -0.03289996,0.00355838,0.00253149,0.00995506,-0.00567246,-0.00777365,0
 .05260624,-0.04016701,-0.00342345,0.06948456,-0.44526682,-0.05721528,-
 0.00538515,-0.06571567,0.02774509,0.00824264,0.00312497,0.00709818,-0.
 09972773,0.54276951,-0.01648774,0.00019077,-0.00281018,0.00529026,-0.0
 0231198,-0.00226612,0.01633264,-0.02544348,0.00730299,0.03547098,-0.05
 056404,-0.09131285,-0.00504069,0.04766306,0.00897730,-0.01993431,0.007
 73783,-0.00061556,-0.02143539,0.03064967,0.08336783,-0.02061521,0.0168
 4317,-0.01831595,0.00473334,-0.00487578,-0.00222155,-0.03214487,0.0252
 5123,-0.07086794,-0.00510212,0.01138983,0.04055418,0.00166388,0.004865
 92,-0.00298193,-0.00714287,-0.00151417,-0.00292907,-0.00199896,-0.0125
 9173,-0.00325679,0.04909925,-0.00092119,-0.00552885,0.01246707,0.00014
 160,0.00218337,-0.00249247,0.02392954,-0.13972445,0.12175569,-0.000218
 20,-0.01021504,0.00077686,0.00200029,0.00007394,0.00300312,0.00088783,
 0.00113545,0.00130113,-0.00011013,0.00932704,-0.00188312,-0.02905503,0
 .19776654,0.01988314,0.00174780,-0.02008544,-0.00423077,0.00273463,0.0
 1350473,-0.05654742,0.11593617,-0.23985188,-0.00822350,0.03781283,-0.0
 5278924,0.00505892,-0.00301278,-0.00869265,-0.00161853,-0.00182056,-0.
 00206571,0.00194285,0.00058349,0.00226039,0.04140754,-0.17227969,0.299
 14631,-0.02178310,-0.02235565,-0.00539717,0.00350106,-0.00108565,-0.00
 457482,-0.07198288,-0.11764521,-0.04487652,-0.00675327,0.01222410,0.03
 305191,0.00122354,0.00805633,-0.01082196,-0.00620311,-0.00051516,-0.00
 412200,0.00010232,-0.00605909,0.00010176,0.00685429,-0.00405267,0.0124
 0232,0.09815475,0.01881669,-0.01741801,-0.01412598,-0.00022990,0.01057
 318,0.00822654,-0.11648775,-0.26557531,-0.06036488,-0.01621082,-0.0510
 4171,-0.01684894,0.00298684,0.00386506,0.00105769,0.00101308,0.0000950
 5,-0.00237136,0.00199987,-0.00245541,-0.00691868,-0.00766646,-0.056499
 07,0.02019262,0.12973042,0.37853580,0.01152889,-0.01024767,-0.00577050
 ,0.00024629,0.00672268,0.00611497,-0.03950192,-0.06102525,-0.08276892,
 -0.01564942,-0.03703618,-0.01102162,0.00004838,-0.00388001,0.00360826,
 -0.00147544,-0.00005412,-0.00135642,0.00510063,-0.00301257,-0.00392582
 ,0.01677632,0.03587800,0.00854113,0.02574551,0.07121195,0.08627307,-0.
 22428952,-0.13959056,-0.21612323,0.01474265,-0.00625960,-0.01185849,-0
 .05269746,0.00842737,0.02151935,0.00158092,-0.01705136,-0.03921920,-0.
 00166221,-0.00462756,0.01054859,-0.00443501,0.01110661,0.03036606,0.00
 055089,0.01154932,0.00464261,0.00044252,0.00726177,-0.01030774,-0.0061
 5931,-0.01236315,-0.00363680,0.31538528,-0.10688133,-0.17759088,-0.172
 99315,-0.03195342,-0.00976310,-0.05882387,-0.01570609,0.01351640,0.005
 73974,-0.01016936,-0.01014884,-0.02399186,0.00241231,-0.00006832,0.004
 68786,0.03932852,0.00070299,-0.02721314,0.00221405,0.00394013,0.003391
 20,-0.00169199,0.00241669,-0.00304015,0.00312694,-0.00067254,0.0016527
 1,0.13574770,0.18720921,-0.15679862,-0.17461394,-0.34615840,-0.0543774
 8,-0.05812669,-0.06244459,-0.03849781,0.00546586,0.02327946,-0.0205946
 6,-0.01855627,-0.05070156,0.00416595,-0.00089768,0.00983572,0.09029615
 ,-0.02556139,-0.05412634,0.00536635,0.00691658,0.00705990,0.00581501,0
 .00212121,-0.00086690,0.00018227,-0.00357014,0.00040178,0.19801304,0.2
 4643313,0.44184001,0.06575825,0.00835476,0.01074145,-0.01659333,-0.005
 11253,-0.00675270,-0.02943085,0.00931734,0.01366004,-0.02743115,-0.014
 23864,-0.04026071,0.00296488,-0.00137349,0.00660781,-0.10956550,0.0342
 3241,0.09866410,0.00458021,0.00482586,0.00431666,0.00421076,0.00013619
 ,0.00023319,0.00304570,-0.00158881,0.00081757,-0.04345875,-0.01642732,
 -0.03357021,0.14591978,-0.02440470,-0.01273026,-0.01897885,0.00568291,
 0.00457991,0.00234317,0.01168265,-0.00411458,-0.00750568,0.00903988,0.
 01140513,0.02031199,-0.00333024,-0.00102468,-0.00335651,0.01801653,-0.
 03351693,-0.03039043,-0.00198140,-0.00344266,-0.00251124,-0.00095498,-
 0.00093562,0.00114564,-0.00142434,0.00059296,-0.00020954,0.00579947,-0
 .00954175,0.02038932,-0.01812577,0.04872849,-0.06715509,-0.02364076,-0
 .04245287,0.01685703,0.00571293,0.01043069,0.03005071,-0.01201282,-0.0
 1882866,0.02276611,0.01868770,0.05675224,-0.00622089,-0.00034397,-0.00
 973372,0.05547723,-0.03008655,-0.11157387,-0.00770259,-0.00409956,-0.0
 0803788,-0.00397982,-0.00064781,0.00089925,-0.00169130,0.00351119,-0.0
 0009593,0.01605582,0.02415753,0.03188092,-0.05445720,0.01876212,0.0907
 5984\\0.00000235,-0.00000063,0.00000283,0.00000152,-0.00000383,0.00000
 390,0.00000022,-0.00000226,0.00000032,-0.00000123,0.00000029,-0.000002
 07,-0.00000027,0.00000269,0.00000043,-0.00000615,0.00000727,0.00000241
 ,-0.00000187,0.00000075,-0.00000511,0.00000019,-0.00000569,-0.00000216
 ,0.00000175,-0.00000358,0.00000363,0.00000001,0.00000127,-0.00000139,0
 .00000347,0.00000373,-0.00000280\\\@
 The archive entry for this job was punched.


 WHAT, THEN, IS TIME?  IF NO ONE ASKS ME, I KNOW WHAT IT IS.
 IF I WISH TO EXPLAIN WHAT IT IS TO HIM WHO ASKS ME, I DO NOT KNOW.
                                   -- ST. AUGUSTINE (FIFTH CENTURY)
 Job cpu time:       1 days  2 hours 24 minutes 34.3 seconds.
 Elapsed time:       0 days  3 hours 31 minutes 58.5 seconds.
 File lengths (MBytes):  RWF=    123 Int=      0 D2E=      0 Chk=      9 Scr=      1
 Normal termination of Gaussian 16 at Sat May 24 05:46:48 2025.
done
