 Entering Gaussian System, Link 0=g16
 Initial command:
 /apps/easybuild-2022/easybuild/software/Compiler/NVHPC/22.11-CUDA-11.7.0/Gaussian/g16c01-CUDA-11.7.0/g16/l1.exe "/tmp/Gau-120433.inp" -scrdir="/tmp/"
 Entering Link 1 = /apps/easybuild-2022/easybuild/software/Compiler/NVHPC/22.11-CUDA-11.7.0/Gaussian/g16c01-CUDA-11.7.0/g16/l1.exe PID=    120434.
  
 Copyright (c) 1988-2019, Gaussian, Inc.  All Rights Reserved.
  
 This is part of the Gaussian(R) 16 program.  It is based on
 the Gaussian(R) 09 system (copyright 2009, Gaussian, Inc.),
 the Gaussian(R) 03 system (copyright 2003, Gaussian, Inc.),
 the Gaussian(R) 98 system (copyright 1998, Gaussian, Inc.),
 the Gaussian(R) 94 system (copyright 1995, Gaussian, Inc.),
 the Gaussian 92(TM) system (copyright 1992, Gaussian, Inc.),
 the Gaussian 90(TM) system (copyright 1990, Gaussian, Inc.),
 the Gaussian 88(TM) system (copyright 1988, Gaussian, Inc.),
 the Gaussian 86(TM) system (copyright 1986, Carnegie Mellon
 University), and the Gaussian 82(TM) system (copyright 1983,
 Carnegie Mellon University). Gaussian is a federally registered
 trademark of Gaussian, Inc.
  
 This software contains proprietary and confidential information,
 including trade secrets, belonging to Gaussian, Inc.
  
 This software is provided under written license and may be
 used, copied, transmitted, or stored only in accord with that
 written license.
  
 The following legend is applicable only to US Government
 contracts under FAR:
  
                    RESTRICTED RIGHTS LEGEND
  
 Use, reproduction and disclosure by the US Government is
 subject to restrictions as set forth in subparagraphs (a)
 and (c) of the Commercial Computer Software - Restricted
 Rights clause in FAR 52.227-19.
  
 Gaussian, Inc.
 340 Quinnipiac St., Bldg. 40, Wallingford CT 06492
  
  
 ---------------------------------------------------------------
 Warning -- This program may not be used in any manner that
 competes with the business of Gaussian, Inc. or will provide
 assistance to any competitor of Gaussian, Inc.  The licensee
 of this program is prohibited from giving any competitor of
 Gaussian, Inc. access to this program.  By using this program,
 the user acknowledges that Gaussian, Inc. is engaged in the
 business of creating and licensing software in the field of
 computational chemistry and represents and warrants to the
 licensee that it is not a competitor of Gaussian, Inc. and that
 it will not use this program in any manner prohibited above.
 ---------------------------------------------------------------
  

 Cite this work as:
 Gaussian 16, Revision C.01,
 M. J. Frisch, G. W. Trucks, H. B. Schlegel, G. E. Scuseria, 
 M. A. Robb, J. R. Cheeseman, G. Scalmani, V. Barone, 
 G. A. Petersson, H. Nakatsuji, X. Li, M. Caricato, A. V. Marenich, 
 J. Bloino, B. G. Janesko, R. Gomperts, B. Mennucci, H. P. Hratchian, 
 J. V. Ortiz, A. F. Izmaylov, J. L. Sonnenberg, D. Williams-Young, 
 F. Ding, F. Lipparini, F. Egidi, J. Goings, B. Peng, A. Petrone, 
 T. Henderson, D. Ranasinghe, V. G. Zakrzewski, J. Gao, N. Rega, 
 G. Zheng, W. Liang, M. Hada, M. Ehara, K. Toyota, R. Fukuda, 
 J. Hasegawa, M. Ishida, T. Nakajima, Y. Honda, O. Kitao, H. Nakai, 
 T. Vreven, K. Throssell, J. A. Montgomery, Jr., J. E. Peralta, 
 F. Ogliaro, M. J. Bearpark, J. J. Heyd, E. N. Brothers, K. N. Kudin, 
 V. N. Staroverov, T. A. Keith, R. Kobayashi, J. Normand, 
 K. Raghavachari, A. P. Rendell, J. C. Burant, S. S. Iyengar, 
 J. Tomasi, M. Cossi, J. M. Millam, M. Klene, C. Adamo, R. Cammi, 
 J. W. Ochterski, R. L. Martin, K. Morokuma, O. Farkas, 
 J. B. Foresman, and D. J. Fox, Gaussian, Inc., Wallingford CT, 2019.
 
 ******************************************
 Gaussian 16:  ES64L-G16RevC.01  3-Jul-2019
                24-May-2025 
 ******************************************
 %mem=28GB
 %chk=1642764945472630600001_r12_insertion_R_8_3_4_IRC_F_prod
 %nprocshared=8
 Will use up to    8 processors via shared memory.
 -----------------------------------------------------------------
 #P M062X/Def2TZVPP Symm(None) scf(xqc) pop(None) freq opt(CalcFC)
 -----------------------------------------------------------------
 1/10=4,18=20,19=15,26=3,38=1/1,3;
 2/9=110,12=2,15=3,17=6,18=5,40=1/2;
 3/5=44,7=202,11=2,25=1,30=1,71=2,74=-55,140=1/1,2,3;
 4//1;
 5/5=2,8=3,13=1,38=5/2,8;
 8/6=4,10=90,11=11/1;
 11/6=1,8=1,9=11,15=111,16=1,31=1/1,2,10;
 10/6=1,13=1,31=1/2;
 7/10=1,25=1,30=1/1,2,3,16;
 1/10=4,18=20,19=15,26=3/3(2);
 2/9=110,15=3/2;
 99//99;
 2/9=110,15=3/2;
 3/5=44,7=202,11=2,25=1,30=1,71=1,74=-55/1,2,3;
 4/5=5,16=3,69=1/1;
 5/5=2,8=3,13=1,38=5/2,8;
 7/30=1/1,2,3,16;
 1/18=20,19=15,26=3/3(-5);
 2/9=110,15=3/2;
 99/9=1/99;
 Leave Link    1 at Sat May 24 04:12:10 2025, MaxMem=  3758096384 cpu:               0.0 elap:               0.0
 (Enter /apps/easybuild-2022/easybuild/software/Compiler/NVHPC/22.11-CUDA-11.7.0/Gaussian/g16c01-CUDA-11.7.0/g16/l101.exe)
 ------------------------------
 Gaussian input prepared by ASE
 ------------------------------
 Symbolic Z-matrix:
 Charge =  0 Multiplicity = 1
 C                     1.57225  -0.11855  -0.70899 
 O                     2.37671  -0.96217  -0.95679 
 C                     0.01596  -0.35415  -0.40216 
 C                    -0.84158   0.23008   0.8778 
 F                    -1.77263   1.127     0.54021 
 F                    -1.51718  -0.75944   1.44209 
 F                    -0.04905   0.87466   1.72462 
 F                    -0.63214   0.3226   -1.35857 
 F                    -0.13415  -1.66772  -0.62301 
 O                     1.77059   1.18278  -0.84471 
 H                     2.67522   1.32753  -1.15474 
 
 ITRead=  0  0  0  0  0  0  0  0  0  0  0
 MicOpt= -1 -1 -1 -1 -1 -1 -1 -1 -1 -1 -1
 NAtoms=     11 NQM=       11 NQMF=       0 NMMI=      0 NMMIF=      0
                NMic=       0 NMicF=      0.
                    Isotopes and Nuclear Properties:
 (Nuclear quadrupole moments (NQMom) in fm**2, nuclear magnetic moments (NMagM)
  in nuclear magnetons)

  Atom         1           2           3           4           5           6           7           8           9          10
 IAtWgt=          12          16          12          12          19          19          19          19          19          16
 AtmWgt=  12.0000000  15.9949146  12.0000000  12.0000000  18.9984032  18.9984032  18.9984032  18.9984032  18.9984032  15.9949146
 NucSpn=           0           0           0           0           1           1           1           1           1           0
 AtZEff=  -0.0000000  -0.0000000  -0.0000000  -0.0000000  -0.0000000  -0.0000000  -0.0000000  -0.0000000  -0.0000000  -0.0000000
 NQMom=    0.0000000   0.0000000   0.0000000   0.0000000   0.0000000   0.0000000   0.0000000   0.0000000   0.0000000   0.0000000
 NMagM=    0.0000000   0.0000000   0.0000000   0.0000000   2.6288670   2.6288670   2.6288670   2.6288670   2.6288670   0.0000000
 AtZNuc=   6.0000000   8.0000000   6.0000000   6.0000000   9.0000000   9.0000000   9.0000000   9.0000000   9.0000000   8.0000000

  Atom        11
 IAtWgt=           1
 AtmWgt=   1.0078250
 NucSpn=           1
 AtZEff=  -0.0000000
 NQMom=    0.0000000
 NMagM=    2.7928460
 AtZNuc=   1.0000000
 Leave Link  101 at Sat May 24 04:12:10 2025, MaxMem=  3758096384 cpu:               0.2 elap:               0.2
 (Enter /apps/easybuild-2022/easybuild/software/Compiler/NVHPC/22.11-CUDA-11.7.0/Gaussian/g16c01-CUDA-11.7.0/g16/l103.exe)

 GradGradGradGradGradGradGradGradGradGradGradGradGradGradGradGradGradGrad
 Berny optimization.
 Initialization pass.
                           ----------------------------
                           !    Initial Parameters    !
                           ! (Angstroms and Degrees)  !
 --------------------------                            --------------------------
 ! Name  Definition              Value          Derivative Info.                !
 --------------------------------------------------------------------------------
 ! R1    R(1,2)                  1.1917         calculate D2E/DX2 analytically  !
 ! R2    R(1,3)                  1.6036         calculate D2E/DX2 analytically  !
 ! R3    R(1,10)                 1.3233         calculate D2E/DX2 analytically  !
 ! R4    R(3,4)                  1.6477         calculate D2E/DX2 analytically  !
 ! R5    R(3,8)                  1.3389         calculate D2E/DX2 analytically  !
 ! R6    R(3,9)                  1.3404         calculate D2E/DX2 analytically  !
 ! R7    R(4,5)                  1.3361         calculate D2E/DX2 analytically  !
 ! R8    R(4,6)                  1.3244         calculate D2E/DX2 analytically  !
 ! R9    R(4,7)                  1.3269         calculate D2E/DX2 analytically  !
 ! R10   R(10,11)                0.9672         calculate D2E/DX2 analytically  !
 ! A1    A(2,1,3)              126.2197         calculate D2E/DX2 analytically  !
 ! A2    A(2,1,10)             125.0028         calculate D2E/DX2 analytically  !
 ! A3    A(3,1,10)             108.0315         calculate D2E/DX2 analytically  !
 ! A4    A(1,3,4)              126.9852         calculate D2E/DX2 analytically  !
 ! A5    A(1,3,8)              105.0001         calculate D2E/DX2 analytically  !
 ! A6    A(1,3,9)              102.7747         calculate D2E/DX2 analytically  !
 ! A7    A(4,3,8)               97.1092         calculate D2E/DX2 analytically  !
 ! A8    A(4,3,9)              114.6556         calculate D2E/DX2 analytically  !
 ! A9    A(8,3,9)              108.8692         calculate D2E/DX2 analytically  !
 ! A10   A(3,4,5)              113.8529         calculate D2E/DX2 analytically  !
 ! A11   A(3,4,6)              109.3632         calculate D2E/DX2 analytically  !
 ! A12   A(3,4,7)              110.9248         calculate D2E/DX2 analytically  !
 ! A13   A(5,4,6)              104.6986         calculate D2E/DX2 analytically  !
 ! A14   A(5,4,7)              104.5569         calculate D2E/DX2 analytically  !
 ! A15   A(6,4,7)              113.3108         calculate D2E/DX2 analytically  !
 ! A16   A(1,10,11)            108.6769         calculate D2E/DX2 analytically  !
 ! D1    D(2,1,3,4)            129.3201         calculate D2E/DX2 analytically  !
 ! D2    D(2,1,3,8)           -119.4441         calculate D2E/DX2 analytically  !
 ! D3    D(2,1,3,9)             -5.6114         calculate D2E/DX2 analytically  !
 ! D4    D(10,1,3,4)           -60.2228         calculate D2E/DX2 analytically  !
 ! D5    D(10,1,3,8)            51.013          calculate D2E/DX2 analytically  !
 ! D6    D(10,1,3,9)           164.8457         calculate D2E/DX2 analytically  !
 ! D7    D(2,1,10,11)           -1.3339         calculate D2E/DX2 analytically  !
 ! D8    D(3,1,10,11)         -171.9364         calculate D2E/DX2 analytically  !
 ! D9    D(1,3,4,5)            113.046          calculate D2E/DX2 analytically  !
 ! D10   D(1,3,4,6)           -130.2455         calculate D2E/DX2 analytically  !
 ! D11   D(1,3,4,7)             -4.553          calculate D2E/DX2 analytically  !
 ! D12   D(8,3,4,5)             -1.8176         calculate D2E/DX2 analytically  !
 ! D13   D(8,3,4,6)            114.891          calculate D2E/DX2 analytically  !
 ! D14   D(8,3,4,7)           -119.4166         calculate D2E/DX2 analytically  !
 ! D15   D(9,3,4,5)           -116.3907         calculate D2E/DX2 analytically  !
 ! D16   D(9,3,4,6)              0.3178         calculate D2E/DX2 analytically  !
 ! D17   D(9,3,4,7)            126.0103         calculate D2E/DX2 analytically  !
 --------------------------------------------------------------------------------
 Trust Radius=3.00D-01 FncErr=1.00D-07 GrdErr=1.00D-06 EigMax=2.50D+02 EigMin=1.00D-04
 Number of steps in this run=     53 maximum allowed number of steps=    100.
 GradGradGradGradGradGradGradGradGradGradGradGradGradGradGradGradGradGrad

 Leave Link  103 at Sat May 24 04:12:10 2025, MaxMem=  3758096384 cpu:               0.0 elap:               0.0
 (Enter /apps/easybuild-2022/easybuild/software/Compiler/NVHPC/22.11-CUDA-11.7.0/Gaussian/g16c01-CUDA-11.7.0/g16/l202.exe)
                          Input orientation:                          
 ---------------------------------------------------------------------
 Center     Atomic      Atomic             Coordinates (Angstroms)
 Number     Number       Type             X           Y           Z
 ---------------------------------------------------------------------
      1          6           0        1.572248   -0.118554   -0.708986
      2          8           0        2.376705   -0.962168   -0.956789
      3          6           0        0.015958   -0.354145   -0.402156
      4          6           0       -0.841579    0.230075    0.877803
      5          9           0       -1.772625    1.126997    0.540210
      6          9           0       -1.517182   -0.759442    1.442093
      7          9           0       -0.049051    0.874661    1.724617
      8          9           0       -0.632140    0.322601   -1.358574
      9          9           0       -0.134151   -1.667722   -0.623010
     10          8           0        1.770585    1.182776   -0.844707
     11          1           0        2.675224    1.327525   -1.154739
 ---------------------------------------------------------------------
                    Distance matrix (angstroms):
                    1          2          3          4          5
     1  C    0.000000
     2  O    1.191739   0.000000
     3  C    1.603648   2.500087   0.000000
     4  C    2.909640   3.891596   1.647719   0.000000
     5  F    3.781542   4.880836   2.506165   1.336145   0.000000
     6  F    3.818698   4.578001   2.432291   1.324389   2.106489
     7  F    3.088286   4.055634   2.457103   1.326908   2.106466
     8  F    2.340066   3.296242   1.338937   2.248068   2.356510
     9  F    2.306320   2.629375   1.340445   2.520819   3.442112
    10  O    1.323336   2.231755   2.374172   3.270792   3.804661
    11  H    1.872537   2.317540   3.235134   4.207556   4.764076
                    6          7          8          9         10
     6  F    0.000000
     7  F    2.214841   0.000000
     8  F    3.130152   3.186037   0.000000
     9  F    2.646204   3.461547   2.179549   0.000000
    10  O    4.450964   3.163453   2.603276   3.435478   0.000000
    11  H    5.354926   3.989668   3.462669   4.140873   0.967183
                   11
    11  H    0.000000
 Symmetry turned off by external request.
 Stoichiometry    C3HF5O2
 Rotational constants (GHZ):           2.0773300           1.0415759           0.9451165
 Leave Link  202 at Sat May 24 04:12:10 2025, MaxMem=  3758096384 cpu:               0.0 elap:               0.0
 (Enter /apps/easybuild-2022/easybuild/software/Compiler/NVHPC/22.11-CUDA-11.7.0/Gaussian/g16c01-CUDA-11.7.0/g16/l301.exe)
 Standard basis: def2TZVPP (5D, 7F)
 Ernie: Thresh=  0.10000D-02 Tol=  0.10000D-05 Strict=F.
   324 basis functions,   527 primitive gaussians,   375 cartesian basis functions
    40 alpha electrons       40 beta electrons
       nuclear repulsion energy       624.9492974138 Hartrees.
 IExCor= 4336 DFT=T Ex+Corr=M062X ExCW=0 ScaHFX=  0.540000
 ScaDFX=  1.000000  1.000000  1.000000  1.000000 ScalE2=  1.000000  1.000000
 IRadAn=      5 IRanWt=     -1 IRanGd=            0 ICorTp=0 IEmpDi=  4
 NAtoms=   11 NActive=   11 NUniq=   11 SFac= 1.00D+00 NAtFMM=   60 NAOKFM=F Big=F
 Integral buffers will be    131072 words long.
 Raffenetti 2 integral format.
 Two-electron integral symmetry is turned off.
 Leave Link  301 at Sat May 24 04:12:10 2025, MaxMem=  3758096384 cpu:               0.0 elap:               0.0
 (Enter /apps/easybuild-2022/easybuild/software/Compiler/NVHPC/22.11-CUDA-11.7.0/Gaussian/g16c01-CUDA-11.7.0/g16/l302.exe)
 NPDir=0 NMtPBC=     1 NCelOv=     1 NCel=       1 NClECP=     1 NCelD=      1
         NCelK=      1 NCelE2=     1 NClLst=     1 CellRange=     0.0.
 One-electron integrals computed using PRISM.
   1 Symmetry operations used in ECPInt.
 ECPInt:  NShTT=    6786 NPrTT=   21959 LenC2=    6420 LenP2D=   15676.
 LDataN:  DoStor=T MaxTD1= 6 Len=  172
 NBasis=   324 RedAO= T EigKep=  4.06D-04  NBF=   324
 NBsUse=   324 1.00D-06 EigRej= -1.00D+00 NBFU=   324
 Precomputing XC quadrature grid using
 IXCGrd= 4 IRadAn=           5 IRanWt=          -1 IRanGd=           0 AccXCQ= 0.00D+00.
 Generated NRdTot=       0 NPtTot=           0 NUsed=           0 NTot=          32
 NSgBfM=   372   372   372   372   372 MxSgAt=    11 MxSgA2=    11.
 Leave Link  302 at Sat May 24 04:12:10 2025, MaxMem=  3758096384 cpu:               0.7 elap:               0.2
 (Enter /apps/easybuild-2022/easybuild/software/Compiler/NVHPC/22.11-CUDA-11.7.0/Gaussian/g16c01-CUDA-11.7.0/g16/l303.exe)
 DipDrv:  MaxL=1.
 Leave Link  303 at Sat May 24 04:12:10 2025, MaxMem=  3758096384 cpu:               0.1 elap:               0.0
 (Enter /apps/easybuild-2022/easybuild/software/Compiler/NVHPC/22.11-CUDA-11.7.0/Gaussian/g16c01-CUDA-11.7.0/g16/l401.exe)
 ExpMin= 9.52D-02 ExpMax= 3.55D+04 ExpMxC= 1.21D+03 IAcc=3 IRadAn=         5 AccDes= 0.00D+00
 Harris functional with IExCor= 1009 and IRadAn=       5 diagonalized for initial guess.
 HarFok:  IExCor= 1009 AccDes= 0.00D+00 IRadAn=         5 IDoV= 1 UseB2=F ITyADJ=14
 ICtDFT=  3500011 ScaDFX=  1.000000  1.000000  1.000000  1.000000
 FoFCou: FMM=F IPFlag=           0 FMFlag=      100000 FMFlg1=           0
         NFxFlg=           0 DoJE=T BraDBF=F KetDBF=T FulRan=T
         wScrn=  0.000000 ICntrl=       500 IOpCl=  0 I1Cent=   200000004 NGrid=           0
         NMat0=    1 NMatS0=      1 NMatT0=    0 NMatD0=    1 NMtDS0=    0 NMtDT0=    0
 Symmetry not used in FoFCou.
 Harris En= -764.179336406056    
 JPrj=0 DoOrth=F DoCkMO=F.
 Leave Link  401 at Sat May 24 04:12:11 2025, MaxMem=  3758096384 cpu:               3.3 elap:               0.5
 (Enter /apps/easybuild-2022/easybuild/software/Compiler/NVHPC/22.11-CUDA-11.7.0/Gaussian/g16c01-CUDA-11.7.0/g16/l502.exe)
 Keep R1 ints in memory in canonical form, NReq=1412617130.
 FoFCou: FMM=F IPFlag=           0 FMFlag=           0 FMFlg1=           0
         NFxFlg=           0 DoJE=F BraDBF=F KetDBF=F FulRan=T
         wScrn=  0.000000 ICntrl=       600 IOpCl=  0 I1Cent=           0 NGrid=           0
         NMat0=    1 NMatS0=  52650 NMatT0=    0 NMatD0=    1 NMtDS0=    0 NMtDT0=    0
 Symmetry not used in FoFCou.
 Two-electron integral symmetry not used.
 Closed shell SCF:
 Using DIIS extrapolation, IDIIS=  1040.
 NGot=  3758096384 LenX=  2371771924 LenY=  2371630858
 Requested convergence on RMS density matrix=1.00D-08 within  32 cycles.
 Requested convergence on MAX density matrix=1.00D-06.
 Requested convergence on             energy=1.00D-06.
 No special actions if energy rises.
 Integral accuracy reduced to 1.0D-05 until final iterations.

 Cycle   1  Pass 0  IDiag  1:
 E= -764.456917893574    
 DIIS: error= 1.84D-02 at cycle   1 NSaved=   1.
 NSaved= 1 IEnMin= 1 EnMin= -764.456917893574     IErMin= 1 ErrMin= 1.84D-02
 ErrMax= 1.84D-02  0.00D+00 EMaxC= 1.00D-01 BMatC= 3.64D-01 BMatP= 3.64D-01
 IDIUse=3 WtCom= 8.16D-01 WtEn= 1.84D-01
 Coeff-Com:  0.100D+01
 Coeff-En:   0.100D+01
 Coeff:      0.100D+01
 Gap=     0.445 Goal=   None    Shift=    0.000
 GapD=    0.445 DampG=2.000 DampE=0.500 DampFc=1.0000 IDamp=-1.
 RMSDP=2.01D-03 MaxDP=9.41D-02              OVMax= 2.02D-01

 Cycle   2  Pass 0  IDiag  1:
 E= -764.340626429510     Delta-E=        0.116291464064 Rises=F Damp=F
 DIIS: error= 1.97D-02 at cycle   2 NSaved=   2.
 NSaved= 2 IEnMin= 1 EnMin= -764.456917893574     IErMin= 1 ErrMin= 1.84D-02
 ErrMax= 1.97D-02  0.00D+00 EMaxC= 1.00D-01 BMatC= 4.73D-01 BMatP= 3.64D-01
 IDIUse=2 WtCom= 0.00D+00 WtEn= 1.00D+00
 Coeff-En:   0.616D+00 0.384D+00
 Coeff:      0.616D+00 0.384D+00
 Gap=     0.412 Goal=   None    Shift=    0.000
 RMSDP=1.01D-03 MaxDP=4.96D-02 DE= 1.16D-01 OVMax= 1.08D-01

 Cycle   3  Pass 0  IDiag  1:
 E= -764.634705910915     Delta-E=       -0.294079481405 Rises=F Damp=F
 DIIS: error= 2.47D-03 at cycle   3 NSaved=   3.
 NSaved= 3 IEnMin= 3 EnMin= -764.634705910915     IErMin= 3 ErrMin= 2.47D-03
 ErrMax= 2.47D-03  0.00D+00 EMaxC= 1.00D-01 BMatC= 6.59D-03 BMatP= 3.64D-01
 IDIUse=3 WtCom= 9.75D-01 WtEn= 2.47D-02
 Coeff-Com:  0.964D-01 0.314D-01 0.872D+00
 Coeff-En:   0.000D+00 0.000D+00 0.100D+01
 Coeff:      0.940D-01 0.307D-01 0.875D+00
 Gap=     0.386 Goal=   None    Shift=    0.000
 RMSDP=2.36D-04 MaxDP=1.41D-02 DE=-2.94D-01 OVMax= 3.78D-02

 Cycle   4  Pass 0  IDiag  1:
 E= -764.635093871324     Delta-E=       -0.000387960409 Rises=F Damp=F
 DIIS: error= 2.75D-03 at cycle   4 NSaved=   4.
 NSaved= 4 IEnMin= 4 EnMin= -764.635093871324     IErMin= 3 ErrMin= 2.47D-03
 ErrMax= 2.75D-03  0.00D+00 EMaxC= 1.00D-01 BMatC= 5.90D-03 BMatP= 6.59D-03
 IDIUse=3 WtCom= 9.72D-01 WtEn= 2.75D-02
 Coeff-Com: -0.765D-03-0.333D-01 0.529D+00 0.506D+00
 Coeff-En:   0.000D+00 0.000D+00 0.476D+00 0.524D+00
 Coeff:     -0.744D-03-0.324D-01 0.527D+00 0.506D+00
 Gap=     0.394 Goal=   None    Shift=    0.000
 RMSDP=1.18D-04 MaxDP=6.66D-03 DE=-3.88D-04 OVMax= 1.98D-02

 Cycle   5  Pass 0  IDiag  1:
 E= -764.638944557157     Delta-E=       -0.003850685833 Rises=F Damp=F
 DIIS: error= 2.58D-04 at cycle   5 NSaved=   5.
 NSaved= 5 IEnMin= 5 EnMin= -764.638944557157     IErMin= 5 ErrMin= 2.58D-04
 ErrMax= 2.58D-04  0.00D+00 EMaxC= 1.00D-01 BMatC= 5.87D-05 BMatP= 5.90D-03
 IDIUse=3 WtCom= 9.97D-01 WtEn= 2.58D-03
 Coeff-Com: -0.329D-02-0.144D-01 0.169D+00 0.179D+00 0.669D+00
 Coeff-En:   0.000D+00 0.000D+00 0.000D+00 0.000D+00 0.100D+01
 Coeff:     -0.328D-02-0.144D-01 0.169D+00 0.179D+00 0.670D+00
 Gap=     0.393 Goal=   None    Shift=    0.000
 RMSDP=1.89D-05 MaxDP=8.41D-04 DE=-3.85D-03 OVMax= 2.44D-03

 Cycle   6  Pass 0  IDiag  1:
 E= -764.638991409715     Delta-E=       -0.000046852558 Rises=F Damp=F
 DIIS: error= 7.28D-05 at cycle   6 NSaved=   6.
 NSaved= 6 IEnMin= 6 EnMin= -764.638991409715     IErMin= 6 ErrMin= 7.28D-05
 ErrMax= 7.28D-05  0.00D+00 EMaxC= 1.00D-01 BMatC= 5.13D-06 BMatP= 5.87D-05
 IDIUse=1 WtCom= 1.00D+00 WtEn= 0.00D+00
 Coeff-Com: -0.847D-03-0.204D-02 0.106D-01 0.583D-02 0.194D+00 0.792D+00
 Coeff:     -0.847D-03-0.204D-02 0.106D-01 0.583D-02 0.194D+00 0.792D+00
 Gap=     0.394 Goal=   None    Shift=    0.000
 RMSDP=7.02D-06 MaxDP=2.57D-04 DE=-4.69D-05 OVMax= 7.38D-04

 Initial convergence to 1.0D-05 achieved.  Increase integral accuracy.
 Cycle   7  Pass 1  IDiag  1:
 E= -764.638901915403     Delta-E=        0.000089494312 Rises=F Damp=F
 DIIS: error= 3.00D-05 at cycle   1 NSaved=   1.
 NSaved= 1 IEnMin= 1 EnMin= -764.638901915403     IErMin= 1 ErrMin= 3.00D-05
 ErrMax= 3.00D-05  0.00D+00 EMaxC= 1.00D-01 BMatC= 1.15D-06 BMatP= 1.15D-06
 IDIUse=1 WtCom= 1.00D+00 WtEn= 0.00D+00
 Coeff-Com:  0.100D+01
 Coeff:      0.100D+01
 Gap=     0.394 Goal=   None    Shift=    0.000
 RMSDP=7.02D-06 MaxDP=2.57D-04 DE= 8.95D-05 OVMax= 2.52D-04

 Cycle   8  Pass 1  IDiag  1:
 E= -764.638902597439     Delta-E=       -0.000000682036 Rises=F Damp=F
 DIIS: error= 1.98D-05 at cycle   2 NSaved=   2.
 NSaved= 2 IEnMin= 2 EnMin= -764.638902597439     IErMin= 2 ErrMin= 1.98D-05
 ErrMax= 1.98D-05  0.00D+00 EMaxC= 1.00D-01 BMatC= 5.36D-07 BMatP= 1.15D-06
 IDIUse=1 WtCom= 1.00D+00 WtEn= 0.00D+00
 Coeff-Com:  0.376D+00 0.624D+00
 Coeff:      0.376D+00 0.624D+00
 Gap=     0.394 Goal=   None    Shift=    0.000
 RMSDP=1.44D-06 MaxDP=5.23D-05 DE=-6.82D-07 OVMax= 2.00D-04

 Cycle   9  Pass 1  IDiag  1:
 E= -764.638902884534     Delta-E=       -0.000000287095 Rises=F Damp=F
 DIIS: error= 1.09D-05 at cycle   3 NSaved=   3.
 NSaved= 3 IEnMin= 3 EnMin= -764.638902884534     IErMin= 3 ErrMin= 1.09D-05
 ErrMax= 1.09D-05  0.00D+00 EMaxC= 1.00D-01 BMatC= 9.32D-08 BMatP= 5.36D-07
 IDIUse=1 WtCom= 1.00D+00 WtEn= 0.00D+00
 Coeff-Com: -0.361D-01 0.269D+00 0.768D+00
 Coeff:     -0.361D-01 0.269D+00 0.768D+00
 Gap=     0.394 Goal=   None    Shift=    0.000
 RMSDP=8.07D-07 MaxDP=2.89D-05 DE=-2.87D-07 OVMax= 8.50D-05

 Cycle  10  Pass 1  IDiag  1:
 E= -764.638902944878     Delta-E=       -0.000000060344 Rises=F Damp=F
 DIIS: error= 5.57D-06 at cycle   4 NSaved=   4.
 NSaved= 4 IEnMin= 4 EnMin= -764.638902944878     IErMin= 4 ErrMin= 5.57D-06
 ErrMax= 5.57D-06  0.00D+00 EMaxC= 1.00D-01 BMatC= 1.05D-08 BMatP= 9.32D-08
 IDIUse=1 WtCom= 1.00D+00 WtEn= 0.00D+00
 Coeff-Com: -0.345D-01 0.103D+00 0.372D+00 0.559D+00
 Coeff:     -0.345D-01 0.103D+00 0.372D+00 0.559D+00
 Gap=     0.394 Goal=   None    Shift=    0.000
 RMSDP=2.20D-07 MaxDP=1.91D-05 DE=-6.03D-08 OVMax= 5.84D-05

 Cycle  11  Pass 1  IDiag  1:
 E= -764.638902953323     Delta-E=       -0.000000008445 Rises=F Damp=F
 DIIS: error= 1.98D-06 at cycle   5 NSaved=   5.
 NSaved= 5 IEnMin= 5 EnMin= -764.638902953323     IErMin= 5 ErrMin= 1.98D-06
 ErrMax= 1.98D-06  0.00D+00 EMaxC= 1.00D-01 BMatC= 1.89D-09 BMatP= 1.05D-08
 IDIUse=1 WtCom= 1.00D+00 WtEn= 0.00D+00
 Coeff-Com: -0.265D-02-0.364D-01-0.908D-01 0.249D+00 0.881D+00
 Coeff:     -0.265D-02-0.364D-01-0.908D-01 0.249D+00 0.881D+00
 Gap=     0.394 Goal=   None    Shift=    0.000
 RMSDP=1.61D-07 MaxDP=6.73D-06 DE=-8.45D-09 OVMax= 1.91D-05

 Cycle  12  Pass 1  IDiag  1:
 E= -764.638902955189     Delta-E=       -0.000000001867 Rises=F Damp=F
 DIIS: error= 2.94D-07 at cycle   6 NSaved=   6.
 NSaved= 6 IEnMin= 6 EnMin= -764.638902955189     IErMin= 6 ErrMin= 2.94D-07
 ErrMax= 2.94D-07  0.00D+00 EMaxC= 1.00D-01 BMatC= 1.10D-10 BMatP= 1.89D-09
 IDIUse=1 WtCom= 1.00D+00 WtEn= 0.00D+00
 Coeff-Com:  0.305D-02-0.250D-01-0.796D-01 0.494D-01 0.308D+00 0.744D+00
 Coeff:      0.305D-02-0.250D-01-0.796D-01 0.494D-01 0.308D+00 0.744D+00
 Gap=     0.394 Goal=   None    Shift=    0.000
 RMSDP=4.07D-08 MaxDP=1.24D-06 DE=-1.87D-09 OVMax= 6.37D-06

 Cycle  13  Pass 1  IDiag  1:
 E= -764.638902955333     Delta-E=       -0.000000000143 Rises=F Damp=F
 DIIS: error= 9.08D-08 at cycle   7 NSaved=   7.
 NSaved= 7 IEnMin= 7 EnMin= -764.638902955333     IErMin= 7 ErrMin= 9.08D-08
 ErrMax= 9.08D-08  0.00D+00 EMaxC= 1.00D-01 BMatC= 9.36D-12 BMatP= 1.10D-10
 IDIUse=1 WtCom= 1.00D+00 WtEn= 0.00D+00
 Coeff-Com:  0.135D-02-0.708D-02-0.251D-01 0.643D-02 0.556D-01 0.268D+00
 Coeff-Com:  0.700D+00
 Coeff:      0.135D-02-0.708D-02-0.251D-01 0.643D-02 0.556D-01 0.268D+00
 Coeff:      0.700D+00
 Gap=     0.394 Goal=   None    Shift=    0.000
 RMSDP=8.59D-09 MaxDP=2.69D-07 DE=-1.43D-10 OVMax= 8.29D-07

 SCF Done:  E(RM062X) =  -764.638902955     A.U. after   13 cycles
            NFock= 13  Conv=0.86D-08     -V/T= 2.0039
 KE= 7.616824836280D+02 PE=-3.062396413521D+03 EE= 9.111257295235D+02
 Leave Link  502 at Sat May 24 04:12:35 2025, MaxMem=  3758096384 cpu:             107.4 elap:              24.6
 (Enter /apps/easybuild-2022/easybuild/software/Compiler/NVHPC/22.11-CUDA-11.7.0/Gaussian/g16c01-CUDA-11.7.0/g16/l508.exe)
 QCSCF skips out because SCF is already converged.
 Leave Link  508 at Sat May 24 04:12:35 2025, MaxMem=  3758096384 cpu:               0.0 elap:               0.0
 (Enter /apps/easybuild-2022/easybuild/software/Compiler/NVHPC/22.11-CUDA-11.7.0/Gaussian/g16c01-CUDA-11.7.0/g16/l801.exe)
 DoSCS=F DFT=T ScalE2(SS,OS)=  1.000000  1.000000
 Range of M.O.s used for correlation:     1   324
 NBasis=   324 NAE=    40 NBE=    40 NFC=     0 NFV=     0
 NROrb=    324 NOA=    40 NOB=    40 NVA=   284 NVB=   284

 **** Warning!!: The largest alpha MO coefficient is  0.16431579D+02

 Leave Link  801 at Sat May 24 04:12:35 2025, MaxMem=  3758096384 cpu:               0.0 elap:               0.0
 (Enter /apps/easybuild-2022/easybuild/software/Compiler/NVHPC/22.11-CUDA-11.7.0/Gaussian/g16c01-CUDA-11.7.0/g16/l1101.exe)
 Using compressed storage, NAtomX=    11.
 Will process     12 centers per pass.
   1 Symmetry operations used in ECPInt.
 ECPInt:  NShTT=    6786 NPrTT=   21959 LenC2=    6420 LenP2D=   15676.
 LDataN:  DoStor=T MaxTD1= 7 Len=  274
 Leave Link 1101 at Sat May 24 04:12:35 2025, MaxMem=  3758096384 cpu:               0.9 elap:               0.2
 (Enter /apps/easybuild-2022/easybuild/software/Compiler/NVHPC/22.11-CUDA-11.7.0/Gaussian/g16c01-CUDA-11.7.0/g16/l1102.exe)
 Symmetrizing basis deriv contribution to polar:
 IMax=3 JMax=2 DiffMx= 0.00D+00
 Leave Link 1102 at Sat May 24 04:12:36 2025, MaxMem=  3758096384 cpu:               0.1 elap:               0.0
 (Enter /apps/easybuild-2022/easybuild/software/Compiler/NVHPC/22.11-CUDA-11.7.0/Gaussian/g16c01-CUDA-11.7.0/g16/l1110.exe)
 Forming Gx(P) for the SCF density, NAtomX=    11.
 Integral derivatives from FoFJK, PRISM(SPDF).
 Do as many integral derivatives as possible in FoFJK.
 G2DrvN: MDV=    3758095115.
 G2DrvN: will do    12 centers at a time, making    1 passes.
 Calling FoFCou, ICntrl=  3107 FMM=F I1Cent=   0 AccDes= 0.00D+00.
 FoFJK:  IHMeth= 1 ICntrl=    3107 DoSepK=F KAlg= 0 I1Cent=           0 FoldK=F
 IRaf=         0 NMat=       1 IRICut=       1 DoRegI=T DoRafI=F ISym2E= 0 IDoP0=0 IntGTp=1.
 FoFCou: FMM=F IPFlag=           0 FMFlag=      100000 FMFlg1=           0
         NFxFlg=           0 DoJE=F BraDBF=F KetDBF=F FulRan=T
         wScrn=  0.000000 ICntrl=      3107 IOpCl=  0 I1Cent=           0 NGrid=           0
         NMat0=    1 NMatS0=      1 NMatT0=    0 NMatD0=    1 NMtDS0=    0 NMtDT0=    0
 Symmetry not used in FoFCou.
 End of G2Drv F.D. properties file   721 does not exist.
 End of G2Drv F.D. properties file   722 does not exist.
 End of G2Drv F.D. properties file   788 does not exist.
 Leave Link 1110 at Sat May 24 04:13:18 2025, MaxMem=  3758096384 cpu:             336.1 elap:              42.3
 (Enter /apps/easybuild-2022/easybuild/software/Compiler/NVHPC/22.11-CUDA-11.7.0/Gaussian/g16c01-CUDA-11.7.0/g16/l1002.exe)
 Minotr:  Closed shell wavefunction.
          IDoAtm=11111111111
          Direct CPHF calculation.
          Differentiating once with respect to nuclear coordinates.
          Requested convergence is 1.0D-08 RMS, and 1.0D-07 maximum.
          Secondary convergence is 1.0D-12 RMS, and 1.0D-12 maximum.
          NewPWx=T KeepS1=F KeepF1=F KeepIn=T MapXYZ=F SortEE=F KeepMc=T.
         3307 words used for storage of precomputed grid.
 Keep R1 ints in memory in canonical form, NReq=1412622537.
 FoFCou: FMM=F IPFlag=           0 FMFlag=           0 FMFlg1=           0
         NFxFlg=           0 DoJE=F BraDBF=F KetDBF=F FulRan=T
         wScrn=  0.000000 ICntrl=       600 IOpCl=  0 I1Cent=           0 NGrid=           0
         NMat0=    1 NMatS0=  52650 NMatT0=    0 NMatD0=    1 NMtDS0=    0 NMtDT0=    0
 Symmetry not used in FoFCou.
 Two-electron integral symmetry not used.
          MDV=    3758096384 using IRadAn=       1.
          Solving linear equations simultaneously, MaxMat=       0.
          There are    36 degrees of freedom in the 1st order CPHF.  IDoFFX=6 NUNeed=     0.
     30 vectors produced by pass  0 Test12= 3.16D-14 2.78D-09 XBig12= 1.37D-01 8.30D-02.
 AX will form    30 AO Fock derivatives at one time.
     30 vectors produced by pass  1 Test12= 3.16D-14 2.78D-09 XBig12= 2.84D-02 6.82D-02.
     30 vectors produced by pass  2 Test12= 3.16D-14 2.78D-09 XBig12= 1.52D-03 9.36D-03.
     30 vectors produced by pass  3 Test12= 3.16D-14 2.78D-09 XBig12= 2.53D-05 9.56D-04.
     30 vectors produced by pass  4 Test12= 3.16D-14 2.78D-09 XBig12= 3.16D-07 8.61D-05.
     30 vectors produced by pass  5 Test12= 3.16D-14 2.78D-09 XBig12= 2.99D-09 8.91D-06.
     30 vectors produced by pass  6 Test12= 3.16D-14 2.78D-09 XBig12= 2.11D-11 7.08D-07.
     12 vectors produced by pass  7 Test12= 3.16D-14 2.78D-09 XBig12= 1.17D-13 3.82D-08.
 InvSVY:  IOpt=1 It=  1 EMax= 9.99D-16
 Solved reduced A of dimension   222 with    30 vectors.
 End of Minotr F.D. properties file   721 does not exist.
 End of Minotr F.D. properties file   722 does not exist.
 End of Minotr F.D. properties file   788 does not exist.
 Leave Link 1002 at Sat May 24 04:14:13 2025, MaxMem=  3758096384 cpu:             432.2 elap:              55.0
 (Enter /apps/easybuild-2022/easybuild/software/Compiler/NVHPC/22.11-CUDA-11.7.0/Gaussian/g16c01-CUDA-11.7.0/g16/l701.exe)
 ... and contract with generalized density number  0.
 Compute integral second derivatives.
   1 Symmetry operations used in ECPInt.
 ECPInt:  NShTT=    6786 NPrTT=   21959 LenC2=    6420 LenP2D=   15676.
 LDataN:  DoStor=T MaxTD1= 8 Len=  415
 Leave Link  701 at Sat May 24 04:14:13 2025, MaxMem=  3758096384 cpu:               0.8 elap:               0.1
 (Enter /apps/easybuild-2022/easybuild/software/Compiler/NVHPC/22.11-CUDA-11.7.0/Gaussian/g16c01-CUDA-11.7.0/g16/l702.exe)
 L702 exits ... SP integral derivatives will be done elsewhere.
 Leave Link  702 at Sat May 24 04:14:13 2025, MaxMem=  3758096384 cpu:               0.0 elap:               0.0
 (Enter /apps/easybuild-2022/easybuild/software/Compiler/NVHPC/22.11-CUDA-11.7.0/Gaussian/g16c01-CUDA-11.7.0/g16/l703.exe)
 Integral derivatives from FoFJK, PRISM(SPDF).
 Compute integral second derivatives, UseDBF=F ICtDFT=           0.
 Calling FoFJK, ICntrl=    100127 FMM=F ISym2X=0 I1Cent= 0 IOpClX= 0 NMat=1 NMatS=1 NMatT=0.
 FoFJK:  IHMeth= 1 ICntrl=  100127 DoSepK=F KAlg= 0 I1Cent=           0 FoldK=F
 IRaf=         0 NMat=       1 IRICut=       1 DoRegI=T DoRafI=F ISym2E= 0 IDoP0=0 IntGTp=1.
 FoFCou: FMM=F IPFlag=           0 FMFlag=      100000 FMFlg1=         800
         NFxFlg=           0 DoJE=F BraDBF=F KetDBF=F FulRan=T
         wScrn=  0.000000 ICntrl=    100127 IOpCl=  0 I1Cent=           0 NGrid=           0
         NMat0=    1 NMatS0=      1 NMatT0=    0 NMatD0=    1 NMtDS0=    0 NMtDT0=    0
 Symmetry not used in FoFCou.
 Leave Link  703 at Sat May 24 04:15:51 2025, MaxMem=  3758096384 cpu:             779.4 elap:              98.0
 (Enter /apps/easybuild-2022/easybuild/software/Compiler/NVHPC/22.11-CUDA-11.7.0/Gaussian/g16c01-CUDA-11.7.0/g16/l716.exe)
 Dipole        = 5.97198165D-01 6.32078349D-01-4.31957258D-02
 Polarizability= 0.00000000D+00 0.00000000D+00 0.00000000D+00
                 0.00000000D+00 0.00000000D+00 0.00000000D+00
 -------------------------------------------------------------------
 Center     Atomic                   Forces (Hartrees/Bohr)
 Number     Number              X              Y              Z
 -------------------------------------------------------------------
      1        6          -0.007126371    0.006070140    0.002626389
      2        8          -0.015132067    0.001424004    0.009743238
      3        6          -0.004548584    0.006434204   -0.004809588
      4        6           0.004386307   -0.002380233   -0.002539381
      5        9           0.011281432   -0.007419799   -0.012235616
      6        9           0.014046390   -0.003378133    0.006634861
      7        9           0.005467575   -0.013831062    0.005424575
      8        9           0.002805921   -0.003243439   -0.025165876
      9        9          -0.012161181    0.009266607    0.015358275
     10        8           0.000757198    0.007084471    0.004394392
     11        1           0.000223379   -0.000026760    0.000568732
 -------------------------------------------------------------------
 Cartesian Forces:  Max     0.025165876 RMS     0.008814988
 Force constants in Cartesian coordinates: 
                1             2             3             4             5 
      1  0.715974D+00
      2 -0.221142D+00  0.877959D+00
      3 -0.138782D+00  0.515491D-01  0.266490D+00
      4 -0.436360D+00  0.322685D+00  0.109933D+00  0.444867D+00
      5  0.329674D+00 -0.445381D+00 -0.995377D-01 -0.389835D+00  0.539880D+00
      6  0.113719D+00 -0.985271D-01 -0.114043D+00 -0.122729D+00  0.115782D+00
      7 -0.108716D+00 -0.210018D-01  0.385282D-01 -0.214587D-01  0.106503D-01
      8 -0.238292D-01 -0.471609D-01  0.251940D-02  0.296863D-01 -0.913317D-02
      9 -0.182502D-01 -0.669062D-02 -0.815993D-01  0.250148D-01 -0.666668D-02
     10 -0.507539D-02  0.723615D-02  0.121108D-01  0.248988D-03 -0.111416D-02
     11  0.110203D-01  0.153205D-01  0.485856D-02 -0.679169D-02 -0.206350D-02
     12  0.219398D-01  0.785157D-02  0.653149D-02 -0.127183D-01  0.199617D-02
     13  0.576095D-02  0.227742D-02  0.121522D-02 -0.271680D-02  0.165694D-03
     14 -0.582619D-02 -0.402114D-02 -0.170035D-02  0.264102D-02  0.392265D-03
     15 -0.323485D-02 -0.124331D-02 -0.113524D-02  0.176175D-02 -0.247054D-03
     16  0.564212D-02  0.156364D-02  0.111926D-02 -0.347930D-02  0.104750D-02
     17  0.270769D-02 -0.159297D-02  0.453591D-03 -0.160967D-02  0.143357D-02
     18 -0.842969D-02 -0.333351D-02 -0.272501D-02  0.515664D-02 -0.109496D-02
     19 -0.863281D-03 -0.337152D-02 -0.257849D-02  0.802064D-03  0.704377D-03
     20 -0.292166D-02 -0.413261D-02  0.142075D-03  0.148974D-02  0.962785D-03
     21 -0.496450D-02 -0.219566D-02  0.334836D-03  0.276073D-02  0.867210D-04
     22 -0.242263D-01  0.242309D-01 -0.429297D-01 -0.721048D-02 -0.569925D-03
     23  0.552072D-02 -0.658413D-02  0.929403D-02  0.185015D-02  0.274175D-02
     24 -0.347381D-02  0.150197D-01 -0.928246D-02 -0.730077D-02 -0.551083D-03
     25 -0.105098D-01 -0.408584D-01 -0.751205D-02 -0.135094D-03 -0.369715D-02
     26 -0.425025D-02 -0.451881D-01 -0.105446D-01 -0.358273D-03  0.895340D-02
     27  0.724310D-02 -0.401496D-02  0.698671D-02 -0.386150D-03  0.344877D-02
     28 -0.132379D+00 -0.585434D-01  0.242979D-01  0.280680D-01  0.449352D-01
     29 -0.347502D-01 -0.326836D+00  0.238666D-01  0.343991D-01 -0.102550D+00
     30  0.249984D-01  0.357695D-01 -0.733637D-01  0.186202D-03 -0.102086D-01
     31 -0.924766D-02 -0.130759D-01  0.459796D-02 -0.262562D-02  0.803987D-02
     32 -0.562033D-01 -0.123827D-01  0.190993D-01  0.584418D-02  0.476408D-02
     33  0.923498D-02  0.581532D-02  0.180492D-02 -0.167959D-02 -0.300789D-02
                6             7             8             9            10 
      6  0.730906D-01
      7  0.260373D-02  0.456781D+00
      8 -0.110066D-01  0.180466D-01  0.548766D+00
      9  0.114994D-01  0.464378D-01 -0.908769D-02  0.455133D+00
     10 -0.107827D-02 -0.778175D-01  0.101476D-01  0.445113D-01  0.547939D+00
     11  0.899566D-03 -0.703838D-02 -0.549161D-01 -0.176774D-01  0.337661D-01
     12  0.106194D-02  0.468817D-02 -0.228414D-01 -0.801744D-01  0.224635D-01
     13  0.366350D-03 -0.170655D-01  0.145033D-01 -0.104459D-01 -0.182197D+00
     14 -0.305006D-03  0.195250D-01 -0.880759D-02  0.861208D-02  0.978945D-01
     15 -0.146287D-03  0.876717D-02 -0.311189D-02 -0.845232D-03 -0.269998D-01
     16  0.585868D-03 -0.143090D-01 -0.257657D-01  0.925724D-02 -0.148351D+00
     17  0.270702D-03 -0.760805D-02 -0.983245D-02  0.854576D-03 -0.882820D-01
     18 -0.587287D-03  0.283660D-01  0.267109D-01 -0.707352D-02  0.677126D-01
     19  0.222805D-03  0.496411D-02  0.199211D-04  0.137726D-02 -0.137684D+00
     20 -0.331309D-03 -0.163836D-01 -0.314208D-02 -0.809622D-02 -0.571505D-01
     21 -0.380351D-03 -0.257501D-01 -0.173728D-01 -0.716409D-02 -0.791340D-01
     22  0.809273D-02 -0.131908D+00  0.467514D-01 -0.103200D+00 -0.336415D-03
     23 -0.173227D-02  0.537451D-01 -0.105557D+00  0.830085D-01  0.100656D-01
     24  0.310271D-02 -0.930906D-01  0.711650D-01 -0.215747D+00 -0.275144D-01
     25  0.254154D-04 -0.846371D-01 -0.371968D-01 -0.719820D-02  0.294791D-02
     26  0.289786D-02 -0.478391D-01 -0.286151D+00 -0.550815D-01 -0.108244D-01
     27 -0.125780D-03 -0.711007D-02 -0.496629D-01 -0.837564D-01 -0.100287D-01
     28 -0.453225D-03 -0.704861D-02 -0.311962D-01  0.107678D-01  0.991463D-03
     29 -0.538492D-02 -0.237106D-02 -0.185476D-01  0.894887D-02 -0.773732D-03
     30  0.317064D-01 -0.187156D-02  0.113427D-01  0.468877D-02 -0.221980D-02
     31 -0.135603D-02  0.121509D-02 -0.116732D-02  0.172765D-02 -0.666392D-03
     32 -0.256324D-02  0.274994D-03 -0.551764D-02  0.187614D-02 -0.965200D-03
     33 -0.517892D-02 -0.156876D-02  0.134531D-02  0.503841D-02  0.176698D-03
               11            12            13            14            15 
     11  0.565436D+00
     12 -0.150909D-01  0.557886D+00
     13  0.974202D-01 -0.237280D-01  0.239859D+00
     14 -0.169266D+00  0.241151D-01 -0.140747D+00  0.238654D+00
     15  0.265851D-01 -0.892059D-01  0.772560D-01 -0.728380D-01  0.124142D+00
     16 -0.851955D-01  0.707204D-01  0.218641D-01  0.214072D-01 -0.130142D-01
     17 -0.187231D+00  0.826363D-01  0.482892D-02 -0.801329D-01  0.482695D-01
     18  0.779392D-01 -0.141992D+00 -0.228428D-02  0.432030D-01 -0.555876D-02
     19 -0.580300D-01 -0.820927D-01 -0.643686D-01  0.405368D-02 -0.599412D-01
     20 -0.134098D+00 -0.882903D-01  0.171424D-01  0.204998D-01  0.168454D-01
     21 -0.852886D-01 -0.202074D+00 -0.509709D-01  0.416766D-02 -0.205183D-01
     22  0.105323D-01  0.178810D-02  0.882646D-03 -0.930760D-03  0.144847D-01
     23 -0.112631D-02  0.825794D-02  0.681259D-03  0.234985D-02 -0.114082D-01
     24  0.279418D-01 -0.567593D-01  0.333753D-02 -0.173995D-02 -0.592034D-02
     25  0.756031D-02  0.353306D-02 -0.567782D-03  0.240485D-03 -0.774262D-04
     26 -0.246611D-01  0.784125D-02  0.544411D-02 -0.218867D-02 -0.381540D-02
     27 -0.195896D-01  0.483173D-02  0.477047D-02 -0.317945D-02 -0.922553D-03
     28 -0.315458D-02 -0.675308D-02 -0.154044D-02  0.177001D-02  0.104627D-02
     29 -0.715361D-02 -0.663754D-02 -0.182620D-02  0.254032D-02  0.985821D-03
     30 -0.518039D-03 -0.232498D-03  0.743316D-03 -0.509480D-03  0.160137D-03
     31 -0.891037D-04  0.159146D-03  0.889831D-04 -0.277734D-04 -0.483373D-04
     32 -0.240821D-03  0.161758D-03  0.109973D-03 -0.199635D-04 -0.219991D-04
     33 -0.596198D-04  0.127198D-03 -0.259777D-03  0.174363D-03 -0.493710D-04
               16            17            18            19            20 
     16  0.160132D+00
     17  0.125524D+00  0.300329D+00
     18 -0.756265D-01 -0.128299D+00  0.140103D+00
     19 -0.246437D-01 -0.386054D-01 -0.121953D-01  0.218746D+00
     20 -0.394425D-01 -0.324570D-01 -0.151464D-01  0.936369D-01  0.150503D+00
     21 -0.238826D-02 -0.413004D-02  0.235688D-01  0.152699D+00  0.107021D+00
     22  0.224400D-02 -0.420997D-03 -0.313529D-02  0.147761D-02  0.133142D-03
     23 -0.111960D-02  0.156040D-02 -0.497239D-03 -0.652912D-03  0.193815D-02
     24  0.103117D-01  0.130384D-02 -0.651543D-02  0.145866D-02 -0.962511D-02
     25  0.190954D-02  0.366963D-02 -0.144739D-02  0.102094D-02  0.221929D-02
     26  0.261329D-02  0.703499D-02 -0.121636D-02  0.458741D-03 -0.269535D-02
     27 -0.113704D-02 -0.146982D-02  0.810435D-03  0.639432D-05 -0.280488D-02
     28 -0.118768D-02 -0.332877D-03  0.202247D-02  0.317084D-03  0.123098D-02
     29 -0.826398D-03  0.804015D-03  0.184456D-02  0.150869D-02  0.250838D-02
     30  0.357971D-03  0.246784D-03 -0.144115D-03  0.124749D-02  0.440671D-03
     31  0.179101D-03  0.128441D-03 -0.139218D-03  0.231440D-03  0.457274D-04
     32  0.193700D-03  0.849523D-04 -0.110031D-03  0.277482D-03  0.112749D-03
     33 -0.186421D-03 -0.136315D-03  0.113523D-03 -0.203962D-03 -0.155077D-03
               21            22            23            24            25 
     21  0.224706D+00
     22  0.183423D-02  0.152195D+00
     23  0.337442D-02 -0.936836D-01  0.160324D+00
     24 -0.101407D-01  0.117340D+00 -0.126037D+00  0.287072D+00
     25  0.334896D-02  0.102979D-01  0.259177D-01 -0.609113D-03  0.893932D-01
     26 -0.802951D-02  0.170242D-01 -0.600682D-01  0.268473D-01  0.484781D-01
     27 -0.748796D-02  0.254650D-02  0.394968D-01  0.105326D-01  0.558969D-02
     28  0.264450D-02 -0.455422D-02 -0.249267D-02 -0.491397D-03 -0.100378D-01
     29  0.243740D-02 -0.404762D-02  0.361790D-02 -0.416763D-02 -0.476762D-02
     30 -0.445031D-03  0.272596D-02 -0.263403D-02  0.364466D-02  0.395707D-02
     31 -0.798562D-04  0.113840D-02  0.168202D-03  0.323065D-04  0.318100D-03
     32 -0.705866D-04  0.980944D-03  0.803927D-03 -0.157352D-03 -0.156556D-02
     33 -0.399655D-03  0.452426D-03 -0.112325D-02  0.126102D-04  0.389968D-03
               26            27            28            29            30 
     26  0.406898D+00
     27  0.375831D-01  0.685585D-01
     28 -0.107818D-01 -0.142918D-02  0.573438D+00
     29 -0.300070D-03  0.501957D-03  0.861370D-01  0.497332D+00
     30  0.319767D-02  0.805557D-03 -0.177218D+00 -0.481689D-01  0.989506D-01
     31  0.354759D-04 -0.650371D-04 -0.446068D+00 -0.726820D-01  0.147093D+00
     32 -0.163466D-02 -0.308911D-03 -0.275716D-01 -0.514157D-01  0.110417D-01
     33  0.320231D-03 -0.232833D-03  0.145566D+00  0.257738D-01 -0.657708D-01
               31            32            33 
     31  0.455436D+00
     32  0.786243D-01  0.654457D-01
     33 -0.151921D+00 -0.289468D-01  0.645349D-01
 FormGI is forming the generalized inverse of G from B-inverse, IUseBI=4.
 GSVD:  received Info=                   1 from GESDD.
 Leave Link  716 at Sat May 24 04:15:51 2025, MaxMem=  3758096384 cpu:               0.0 elap:               0.0
 (Enter /apps/easybuild-2022/easybuild/software/Compiler/NVHPC/22.11-CUDA-11.7.0/Gaussian/g16c01-CUDA-11.7.0/g16/l103.exe)

 GradGradGradGradGradGradGradGradGradGradGradGradGradGradGradGradGradGrad
 Berny optimization.
 Red2BG is reusing G-inverse.
 Internal  Forces:  Max     0.038734250 RMS     0.014051041
 Search for a local minimum.
 Step number   1 out of a maximum of   53
 All quantities printed in internal units (Hartrees-Bohrs-Radians)
 RMS Force = .14051D-01 SwitMx=.10000D-02 MixMth= 1
 Mixed Optimization -- RFO/linear search
 Second derivative matrix not updated -- analytic derivatives used.
 ITU=  0
     Eigenvalues ---   -0.00264   0.00153   0.01844   0.04168   0.04947
     Eigenvalues ---    0.09291   0.10248   0.10795   0.13356   0.14064
     Eigenvalues ---    0.15001   0.17232   0.18707   0.21815   0.23091
     Eigenvalues ---    0.24971   0.28449   0.31971   0.36570   0.39165
     Eigenvalues ---    0.41292   0.42375   0.46902   0.50926   0.53115
     Eigenvalues ---    0.59916   0.94518
 Eigenvalue     1 is  -2.64D-03 should be greater than     0.000000 Eigenvector:
                          D13       D14       D12       D16       D17
   1                   -0.34065  -0.34001  -0.33511  -0.33218  -0.33154
                          D10       D11       D15       D9        D5
   1                   -0.33011  -0.32947  -0.32664  -0.32458   0.03454
 RFO step:  Lambda=-4.13522976D-02 EMin=-2.63787677D-03
 Linear search not attempted -- first point.
 Maximum step size (   0.300) exceeded in Quadratic search.
    -- Step size scaled by   0.705
 Iteration  1 RMS(Cart)=  0.16618382 RMS(Int)=  0.01170501
 Iteration  2 RMS(Cart)=  0.01299712 RMS(Int)=  0.00272629
 Iteration  3 RMS(Cart)=  0.00010359 RMS(Int)=  0.00272437
 Iteration  4 RMS(Cart)=  0.00000009 RMS(Int)=  0.00272437
 ITry= 1 IFail=0 DXMaxC= 4.64D-01 DCOld= 1.00D+10 DXMaxT= 3.00D-01 DXLimC= 3.00D+00 Rises=F
 Variable       Old X    -DE/DX   Delta X   Delta X   Delta X     New X
                                 (Linear)    (Quad)   (Total)
    R1        2.25206  -0.01325   0.00000  -0.00534  -0.00534   2.24672
    R2        3.03046  -0.02183   0.00000  -0.09225  -0.09225   2.93821
    R3        2.50074   0.00658   0.00000   0.00833   0.00833   2.50907
    R4        3.11374  -0.03000   0.00000  -0.12311  -0.12311   2.99063
    R5        2.53022   0.01498   0.00000   0.00990   0.00990   2.54012
    R6        2.53307  -0.01025   0.00000  -0.02219  -0.02219   2.51089
    R7        2.52495  -0.00975   0.00000  -0.02145  -0.02145   2.50350
    R8        2.50273  -0.00181   0.00000  -0.00279  -0.00279   2.49995
    R9        2.50749   0.00001   0.00000   0.00669   0.00669   2.51418
   R10        1.82771   0.00002   0.00000  -0.00016  -0.00016   1.82755
    A1        2.20295  -0.01498   0.00000  -0.03006  -0.03064   2.17231
    A2        2.18171   0.00925   0.00000   0.01934   0.01888   2.20059
    A3        1.88551   0.00654   0.00000   0.01981   0.01929   1.90480
    A4        2.21631  -0.03873   0.00000  -0.16939  -0.17076   2.04555
    A5        1.83260  -0.00710   0.00000   0.03445   0.04093   1.87353
    A6        1.79376   0.03459   0.00000   0.09282   0.08240   1.87615
    A7        1.69487   0.03408   0.00000   0.11410   0.11963   1.81450
    A8        2.00112  -0.01395   0.00000  -0.04202  -0.04523   1.95589
    A9        1.90013  -0.00838   0.00000  -0.00789  -0.00910   1.89102
   A10        1.98711  -0.02159   0.00000  -0.03408  -0.03396   1.95315
   A11        1.90875  -0.00183   0.00000   0.00359   0.00353   1.91228
   A12        1.93600  -0.00355   0.00000  -0.00356  -0.00367   1.93234
   A13        1.82734   0.01688   0.00000   0.04326   0.04344   1.87077
   A14        1.82486   0.01727   0.00000   0.03937   0.03945   1.86431
   A15        1.97765  -0.00632   0.00000  -0.04758  -0.04785   1.92979
   A16        1.89677  -0.00012   0.00000   0.00134   0.00134   1.89811
    D1        2.25706  -0.01557   0.00000  -0.08592  -0.08676   2.17030
    D2       -2.08469   0.00251   0.00000   0.00466   0.00351  -2.08118
    D3       -0.09794   0.00431   0.00000   0.04510   0.04786  -0.05007
    D4       -1.05109  -0.00910   0.00000  -0.02545  -0.02680  -1.07788
    D5        0.89035   0.00898   0.00000   0.06514   0.06347   0.95382
    D6        2.87710   0.01077   0.00000   0.10557   0.10782   2.98492
    D7       -0.02328   0.00121   0.00000   0.01354   0.01434  -0.00894
    D8       -3.00086  -0.00227   0.00000  -0.04011  -0.04092  -3.04178
    D9        1.97302   0.00223   0.00000  -0.12136  -0.12601   1.84701
   D10       -2.27321   0.00889   0.00000  -0.08564  -0.09044  -2.36366
   D11       -0.07947  -0.00306   0.00000  -0.14662  -0.15121  -0.23068
   D12       -0.03172   0.00035   0.00000  -0.18653  -0.18498  -0.21670
   D13        2.00523   0.00701   0.00000  -0.15081  -0.14941   1.85581
   D14       -2.08421  -0.00494   0.00000  -0.21179  -0.21018  -2.29439
   D15       -2.03140  -0.00429   0.00000  -0.22694  -0.22375  -2.25515
   D16        0.00555   0.00237   0.00000  -0.19122  -0.18818  -0.18263
   D17        2.19929  -0.00958   0.00000  -0.25220  -0.24895   1.95035
         Item               Value     Threshold  Converged?
 Maximum Force            0.038734     0.000450     NO 
 RMS     Force            0.014051     0.000300     NO 
 Maximum Displacement     0.464087     0.001800     NO 
 RMS     Displacement     0.172801     0.001200     NO 
 Predicted change in Energy=-2.232083D-02
 Lowest energy point so far.  Saving SCF results.
 GradGradGradGradGradGradGradGradGradGradGradGradGradGradGradGradGradGrad

 Leave Link  103 at Sat May 24 04:15:51 2025, MaxMem=  3758096384 cpu:               0.1 elap:               0.0
 (Enter /apps/easybuild-2022/easybuild/software/Compiler/NVHPC/22.11-CUDA-11.7.0/Gaussian/g16c01-CUDA-11.7.0/g16/l202.exe)
                          Input orientation:                          
 ---------------------------------------------------------------------
 Center     Atomic      Atomic             Coordinates (Angstroms)
 Number     Number       Type             X           Y           Z
 ---------------------------------------------------------------------
      1          6           0        1.472274   -0.077744   -0.673230
      2          8           0        2.316510   -0.904554   -0.804258
      3          6           0       -0.038316   -0.386714   -0.472835
      4          6           0       -0.738361    0.225817    0.807507
      5          9           0       -1.527041    1.244814    0.499750
      6          9           0       -1.495241   -0.694799    1.381705
      7          9           0        0.168793    0.686422    1.664833
      8          9           0       -0.700955    0.168945   -1.501893
      9          9           0       -0.188914   -1.705075   -0.541403
     10          8           0        1.634610    1.233417   -0.805151
     11          1           0        2.560631    1.412075   -1.019264
 ---------------------------------------------------------------------
                    Distance matrix (angstroms):
                    1          2          3          4          5
     1  C    0.000000
     2  O    1.188914   0.000000
     3  C    1.554832   2.433763   0.000000
     4  C    2.677992   3.634248   1.582572   0.000000
     5  F    3.481512   4.592722   2.413319   1.324796   0.000000
     6  F    3.661920   4.399076   2.378417   1.322915   2.130952
     7  F    2.783801   3.638722   2.400862   1.330449   2.131917
     8  F    2.338902   3.277832   1.344175   2.310403   2.417951
     9  F    2.329191   2.643307   1.328705   2.418635   3.402415
    10  O    1.327742   2.244083   2.352433   3.040874   3.420370
    11  H    1.877184   2.339357   3.207609   3.953183   4.363994
                    6          7          8          9         10
     6  F    0.000000
     7  F    2.181042   0.000000
     8  F    3.113210   3.324514   0.000000
     9  F    2.534856   3.273330   2.167182   0.000000
    10  O    4.277420   2.923806   2.659589   3.468362   0.000000
    11  H    5.162719   3.667675   3.523670   4.183895   0.967098
                   11
    11  H    0.000000
 Symmetry turned off by external request.
 Stoichiometry    C3HF5O2
 Rotational constants (GHZ):           1.9670346           1.1483239           1.0462905
 Leave Link  202 at Sat May 24 04:15:51 2025, MaxMem=  3758096384 cpu:               0.0 elap:               0.0
 (Enter /apps/easybuild-2022/easybuild/software/Compiler/NVHPC/22.11-CUDA-11.7.0/Gaussian/g16c01-CUDA-11.7.0/g16/l301.exe)
 Standard basis: def2TZVPP (5D, 7F)
 Ernie: Thresh=  0.10000D-02 Tol=  0.10000D-05 Strict=F.
   324 basis functions,   527 primitive gaussians,   375 cartesian basis functions
    40 alpha electrons       40 beta electrons
       nuclear repulsion energy       635.6537719386 Hartrees.
 IExCor= 4336 DFT=T Ex+Corr=M062X ExCW=0 ScaHFX=  0.540000
 ScaDFX=  1.000000  1.000000  1.000000  1.000000 ScalE2=  1.000000  1.000000
 IRadAn=      5 IRanWt=     -1 IRanGd=            0 ICorTp=0 IEmpDi=  4
 NAtoms=   11 NActive=   11 NUniq=   11 SFac= 1.00D+00 NAtFMM=   60 NAOKFM=F Big=F
 Integral buffers will be    131072 words long.
 Raffenetti 2 integral format.
 Two-electron integral symmetry is turned off.
 Leave Link  301 at Sat May 24 04:15:51 2025, MaxMem=  3758096384 cpu:               0.1 elap:               0.0
 (Enter /apps/easybuild-2022/easybuild/software/Compiler/NVHPC/22.11-CUDA-11.7.0/Gaussian/g16c01-CUDA-11.7.0/g16/l302.exe)
 NPDir=0 NMtPBC=     1 NCelOv=     1 NCel=       1 NClECP=     1 NCelD=      1
         NCelK=      1 NCelE2=     1 NClLst=     1 CellRange=     0.0.
 One-electron integrals computed using PRISM.
   1 Symmetry operations used in ECPInt.
 ECPInt:  NShTT=    6786 NPrTT=   21959 LenC2=    6467 LenP2D=   15874.
 LDataN:  DoStor=T MaxTD1= 6 Len=  172
 NBasis=   324 RedAO= T EigKep=  3.30D-04  NBF=   324
 NBsUse=   324 1.00D-06 EigRej= -1.00D+00 NBFU=   324
 Precomputing XC quadrature grid using
 IXCGrd= 4 IRadAn=           5 IRanWt=          -1 IRanGd=           0 AccXCQ= 0.00D+00.
 Generated NRdTot=       0 NPtTot=           0 NUsed=           0 NTot=          32
 NSgBfM=   374   373   374   374   374 MxSgAt=    11 MxSgA2=    11.
 Leave Link  302 at Sat May 24 04:15:52 2025, MaxMem=  3758096384 cpu:               0.7 elap:               0.1
 (Enter /apps/easybuild-2022/easybuild/software/Compiler/NVHPC/22.11-CUDA-11.7.0/Gaussian/g16c01-CUDA-11.7.0/g16/l303.exe)
 DipDrv:  MaxL=1.
 Leave Link  303 at Sat May 24 04:15:52 2025, MaxMem=  3758096384 cpu:               0.1 elap:               0.0
 (Enter /apps/easybuild-2022/easybuild/software/Compiler/NVHPC/22.11-CUDA-11.7.0/Gaussian/g16c01-CUDA-11.7.0/g16/l401.exe)
 Initial guess from the checkpoint file:  "1642764945472630600001_r12_insertion_R_8_3_4_IRC_F_prod.chk"
 B after Tr=     0.029970   -0.017477   -0.021903
         Rot=    0.999961    0.004996   -0.003866    0.006229 Ang=   1.02 deg.
 Guess basis will be translated and rotated to current coordinates.
 JPrj=2 DoOrth=T DoCkMO=T.
 Generating alternative initial guess.
 ExpMin= 9.52D-02 ExpMax= 3.55D+04 ExpMxC= 1.21D+03 IAcc=3 IRadAn=         5 AccDes= 0.00D+00
 Harris functional with IExCor= 1009 and IRadAn=       5 diagonalized for initial guess.
 HarFok:  IExCor= 1009 AccDes= 0.00D+00 IRadAn=         5 IDoV= 1 UseB2=F ITyADJ=14
 ICtDFT=  3500011 ScaDFX=  1.000000  1.000000  1.000000  1.000000
 FoFCou: FMM=F IPFlag=           0 FMFlag=      100000 FMFlg1=           0
         NFxFlg=           0 DoJE=T BraDBF=F KetDBF=T FulRan=T
         wScrn=  0.000000 ICntrl=       500 IOpCl=  0 I1Cent=   200000004 NGrid=           0
         NMat0=    1 NMatS0=      1 NMatT0=    0 NMatD0=    1 NMtDS0=    0 NMtDT0=    0
 Symmetry not used in FoFCou.
 Harris En= -764.194054809059    
 Leave Link  401 at Sat May 24 04:15:52 2025, MaxMem=  3758096384 cpu:               3.9 elap:               0.6
 (Enter /apps/easybuild-2022/easybuild/software/Compiler/NVHPC/22.11-CUDA-11.7.0/Gaussian/g16c01-CUDA-11.7.0/g16/l502.exe)
 Keep R1 ints in memory in canonical form, NReq=1412617130.
 FoFCou: FMM=F IPFlag=           0 FMFlag=           0 FMFlg1=           0
         NFxFlg=           0 DoJE=F BraDBF=F KetDBF=F FulRan=T
         wScrn=  0.000000 ICntrl=       600 IOpCl=  0 I1Cent=           0 NGrid=           0
         NMat0=    1 NMatS0=  52650 NMatT0=    0 NMatD0=    1 NMtDS0=    0 NMtDT0=    0
 Symmetry not used in FoFCou.
 Two-electron integral symmetry not used.
 Closed shell SCF:
 Using DIIS extrapolation, IDIIS=  1040.
 NGot=  3758096384 LenX=  2371771924 LenY=  2371630858
 Requested convergence on RMS density matrix=1.00D-08 within  32 cycles.
 Requested convergence on MAX density matrix=1.00D-06.
 Requested convergence on             energy=1.00D-06.
 No special actions if energy rises.
 Integral accuracy reduced to 1.0D-05 until final iterations.

 Cycle   1  Pass 0  IDiag  1:
 E= -764.614992631362    
 DIIS: error= 5.43D-03 at cycle   1 NSaved=   1.
 NSaved= 1 IEnMin= 1 EnMin= -764.614992631362     IErMin= 1 ErrMin= 5.43D-03
 ErrMax= 5.43D-03  0.00D+00 EMaxC= 1.00D-01 BMatC= 3.50D-02 BMatP= 3.50D-02
 IDIUse=3 WtCom= 9.46D-01 WtEn= 5.43D-02
 Coeff-Com:  0.100D+01
 Coeff-En:   0.100D+01
 Coeff:      0.100D+01
 Gap=     1.059 Goal=   None    Shift=    0.000
 GapD=    1.059 DampG=2.000 DampE=1.000 DampFc=2.0000 IDamp=-1.
 RMSDP=5.94D-04 MaxDP=1.38D-02              OVMax= 3.99D-02

 Cycle   2  Pass 0  IDiag  1:
 E= -764.657726380232     Delta-E=       -0.042733748870 Rises=F Damp=F
 DIIS: error= 1.54D-03 at cycle   2 NSaved=   2.
 NSaved= 2 IEnMin= 2 EnMin= -764.657726380232     IErMin= 2 ErrMin= 1.54D-03
 ErrMax= 1.54D-03  0.00D+00 EMaxC= 1.00D-01 BMatC= 1.69D-03 BMatP= 3.50D-02
 IDIUse=3 WtCom= 9.85D-01 WtEn= 1.54D-02
 Coeff-Com: -0.950D-01 0.109D+01
 Coeff-En:   0.000D+00 0.100D+01
 Coeff:     -0.935D-01 0.109D+01
 Gap=     0.402 Goal=   None    Shift=    0.000
 RMSDP=1.58D-04 MaxDP=4.49D-03 DE=-4.27D-02 OVMax= 1.41D-02

 Cycle   3  Pass 0  IDiag  1:
 E= -764.659235374048     Delta-E=       -0.001508993816 Rises=F Damp=F
 DIIS: error= 1.39D-03 at cycle   3 NSaved=   3.
 NSaved= 3 IEnMin= 3 EnMin= -764.659235374048     IErMin= 3 ErrMin= 1.39D-03
 ErrMax= 1.39D-03  0.00D+00 EMaxC= 1.00D-01 BMatC= 1.63D-03 BMatP= 1.69D-03
 IDIUse=3 WtCom= 9.86D-01 WtEn= 1.39D-02
 Coeff-Com: -0.897D-01 0.589D+00 0.501D+00
 Coeff-En:   0.000D+00 0.000D+00 0.100D+01
 Coeff:     -0.884D-01 0.580D+00 0.508D+00
 Gap=     0.398 Goal=   None    Shift=    0.000
 RMSDP=7.18D-05 MaxDP=3.89D-03 DE=-1.51D-03 OVMax= 8.83D-03

 Cycle   4  Pass 0  IDiag  1:
 E= -764.660281929317     Delta-E=       -0.001046555268 Rises=F Damp=F
 DIIS: error= 3.94D-04 at cycle   4 NSaved=   4.
 NSaved= 4 IEnMin= 4 EnMin= -764.660281929317     IErMin= 4 ErrMin= 3.94D-04
 ErrMax= 3.94D-04  0.00D+00 EMaxC= 1.00D-01 BMatC= 7.07D-05 BMatP= 1.63D-03
 IDIUse=3 WtCom= 9.96D-01 WtEn= 3.94D-03
 Coeff-Com: -0.144D-01 0.379D-01 0.165D+00 0.812D+00
 Coeff-En:   0.000D+00 0.000D+00 0.000D+00 0.100D+01
 Coeff:     -0.144D-01 0.378D-01 0.164D+00 0.812D+00
 Gap=     0.399 Goal=   None    Shift=    0.000
 RMSDP=2.40D-05 MaxDP=1.15D-03 DE=-1.05D-03 OVMax= 3.03D-03

 Cycle   5  Pass 0  IDiag  1:
 E= -764.660330347851     Delta-E=       -0.000048418534 Rises=F Damp=F
 DIIS: error= 2.08D-04 at cycle   5 NSaved=   5.
 NSaved= 5 IEnMin= 5 EnMin= -764.660330347851     IErMin= 5 ErrMin= 2.08D-04
 ErrMax= 2.08D-04  0.00D+00 EMaxC= 1.00D-01 BMatC= 2.56D-05 BMatP= 7.07D-05
 IDIUse=3 WtCom= 9.98D-01 WtEn= 2.08D-03
 Coeff-Com:  0.419D-02-0.606D-01 0.281D-01 0.470D+00 0.558D+00
 Coeff-En:   0.000D+00 0.000D+00 0.000D+00 0.159D-01 0.984D+00
 Coeff:      0.418D-02-0.605D-01 0.281D-01 0.469D+00 0.559D+00
 Gap=     0.399 Goal=   None    Shift=    0.000
 RMSDP=9.19D-06 MaxDP=5.46D-04 DE=-4.84D-05 OVMax= 1.49D-03

 Initial convergence to 1.0D-05 achieved.  Increase integral accuracy.
 Cycle   6  Pass 1  IDiag  1:
 E= -764.660371827825     Delta-E=       -0.000041479974 Rises=F Damp=F
 DIIS: error= 4.31D-05 at cycle   1 NSaved=   1.
 NSaved= 1 IEnMin= 1 EnMin= -764.660371827825     IErMin= 1 ErrMin= 4.31D-05
 ErrMax= 4.31D-05  0.00D+00 EMaxC= 1.00D-01 BMatC= 1.29D-06 BMatP= 1.29D-06
 IDIUse=1 WtCom= 1.00D+00 WtEn= 0.00D+00
 Coeff-Com:  0.100D+01
 Coeff:      0.100D+01
 Gap=     0.399 Goal=   None    Shift=    0.000
 RMSDP=9.19D-06 MaxDP=5.46D-04 DE=-4.15D-05 OVMax= 6.41D-04

 Cycle   7  Pass 1  IDiag  1:
 E= -764.660372763476     Delta-E=       -0.000000935651 Rises=F Damp=F
 DIIS: error= 4.20D-05 at cycle   2 NSaved=   2.
 NSaved= 2 IEnMin= 2 EnMin= -764.660372763476     IErMin= 2 ErrMin= 4.20D-05
 ErrMax= 4.20D-05  0.00D+00 EMaxC= 1.00D-01 BMatC= 9.04D-07 BMatP= 1.29D-06
 IDIUse=1 WtCom= 1.00D+00 WtEn= 0.00D+00
 Coeff-Com:  0.442D+00 0.558D+00
 Coeff:      0.442D+00 0.558D+00
 Gap=     0.399 Goal=   None    Shift=    0.000
 RMSDP=2.23D-06 MaxDP=1.26D-04 DE=-9.36D-07 OVMax= 3.64D-04

 Cycle   8  Pass 1  IDiag  1:
 E= -764.660373322624     Delta-E=       -0.000000559148 Rises=F Damp=F
 DIIS: error= 2.04D-05 at cycle   3 NSaved=   3.
 NSaved= 3 IEnMin= 3 EnMin= -764.660373322624     IErMin= 3 ErrMin= 2.04D-05
 ErrMax= 2.04D-05  0.00D+00 EMaxC= 1.00D-01 BMatC= 1.61D-07 BMatP= 9.04D-07
 IDIUse=1 WtCom= 1.00D+00 WtEn= 0.00D+00
 Coeff-Com: -0.133D-01 0.273D+00 0.740D+00
 Coeff:     -0.133D-01 0.273D+00 0.740D+00
 Gap=     0.399 Goal=   None    Shift=    0.000
 RMSDP=1.20D-06 MaxDP=4.87D-05 DE=-5.59D-07 OVMax= 2.02D-04

 Cycle   9  Pass 1  IDiag  1:
 E= -764.660373477733     Delta-E=       -0.000000155109 Rises=F Damp=F
 DIIS: error= 5.28D-06 at cycle   4 NSaved=   4.
 NSaved= 4 IEnMin= 4 EnMin= -764.660373477733     IErMin= 4 ErrMin= 5.28D-06
 ErrMax= 5.28D-06  0.00D+00 EMaxC= 1.00D-01 BMatC= 1.98D-08 BMatP= 1.61D-07
 IDIUse=1 WtCom= 1.00D+00 WtEn= 0.00D+00
 Coeff-Com: -0.608D-01 0.539D-01 0.324D+00 0.683D+00
 Coeff:     -0.608D-01 0.539D-01 0.324D+00 0.683D+00
 Gap=     0.399 Goal=   None    Shift=    0.000
 RMSDP=4.19D-07 MaxDP=2.01D-05 DE=-1.55D-07 OVMax= 9.17D-05

 Cycle  10  Pass 1  IDiag  1:
 E= -764.660373502487     Delta-E=       -0.000000024754 Rises=F Damp=F
 DIIS: error= 2.45D-06 at cycle   5 NSaved=   5.
 NSaved= 5 IEnMin= 5 EnMin= -764.660373502487     IErMin= 5 ErrMin= 2.45D-06
 ErrMax= 2.45D-06  0.00D+00 EMaxC= 1.00D-01 BMatC= 2.31D-09 BMatP= 1.98D-08
 IDIUse=1 WtCom= 1.00D+00 WtEn= 0.00D+00
 Coeff-Com: -0.121D-01-0.392D-01-0.669D-01 0.165D+00 0.953D+00
 Coeff:     -0.121D-01-0.392D-01-0.669D-01 0.165D+00 0.953D+00
 Gap=     0.399 Goal=   None    Shift=    0.000
 RMSDP=2.65D-07 MaxDP=1.06D-05 DE=-2.48D-08 OVMax= 7.16D-05

 Cycle  11  Pass 1  IDiag  1:
 E= -764.660373508307     Delta-E=       -0.000000005819 Rises=F Damp=F
 DIIS: error= 9.01D-07 at cycle   6 NSaved=   6.
 NSaved= 6 IEnMin= 6 EnMin= -764.660373508307     IErMin= 6 ErrMin= 9.01D-07
 ErrMax= 9.01D-07  0.00D+00 EMaxC= 1.00D-01 BMatC= 6.16D-10 BMatP= 2.31D-09
 IDIUse=1 WtCom= 1.00D+00 WtEn= 0.00D+00
 Coeff-Com:  0.611D-02-0.257D-01-0.900D-01-0.692D-01 0.438D+00 0.741D+00
 Coeff:      0.611D-02-0.257D-01-0.900D-01-0.692D-01 0.438D+00 0.741D+00
 Gap=     0.399 Goal=   None    Shift=    0.000
 RMSDP=1.07D-07 MaxDP=3.95D-06 DE=-5.82D-09 OVMax= 2.70D-05

 Cycle  12  Pass 1  IDiag  1:
 E= -764.660373509253     Delta-E=       -0.000000000947 Rises=F Damp=F
 DIIS: error= 2.57D-07 at cycle   7 NSaved=   7.
 NSaved= 7 IEnMin= 7 EnMin= -764.660373509253     IErMin= 7 ErrMin= 2.57D-07
 ErrMax= 2.57D-07  0.00D+00 EMaxC= 1.00D-01 BMatC= 2.01D-11 BMatP= 6.16D-10
 IDIUse=1 WtCom= 1.00D+00 WtEn= 0.00D+00
 Coeff-Com:  0.178D-02-0.830D-03-0.755D-02-0.197D-01-0.778D-02 0.915D-01
 Coeff-Com:  0.943D+00
 Coeff:      0.178D-02-0.830D-03-0.755D-02-0.197D-01-0.778D-02 0.915D-01
 Coeff:      0.943D+00
 Gap=     0.399 Goal=   None    Shift=    0.000
 RMSDP=2.75D-08 MaxDP=1.03D-06 DE=-9.47D-10 OVMax= 6.08D-06

 Cycle  13  Pass 1  IDiag  1:
 E= -764.660373509340     Delta-E=       -0.000000000086 Rises=F Damp=F
 DIIS: error= 9.22D-08 at cycle   8 NSaved=   8.
 NSaved= 8 IEnMin= 8 EnMin= -764.660373509340     IErMin= 8 ErrMin= 9.22D-08
 ErrMax= 9.22D-08  0.00D+00 EMaxC= 1.00D-01 BMatC= 4.30D-12 BMatP= 2.01D-11
 IDIUse=1 WtCom= 1.00D+00 WtEn= 0.00D+00
 Coeff-Com: -0.392D-03 0.373D-02 0.119D-01 0.547D-02-0.717D-01-0.903D-01
 Coeff-Com:  0.264D+00 0.877D+00
 Coeff:     -0.392D-03 0.373D-02 0.119D-01 0.547D-02-0.717D-01-0.903D-01
 Coeff:      0.264D+00 0.877D+00
 Gap=     0.399 Goal=   None    Shift=    0.000
 RMSDP=1.06D-08 MaxDP=4.47D-07 DE=-8.64D-11 OVMax= 2.30D-06

 Cycle  14  Pass 1  IDiag  1:
 E= -764.660373509336     Delta-E=        0.000000000004 Rises=F Damp=F
 DIIS: error= 2.46D-08 at cycle   9 NSaved=   9.
 NSaved= 9 IEnMin= 8 EnMin= -764.660373509340     IErMin= 9 ErrMin= 2.46D-08
 ErrMax= 2.46D-08  0.00D+00 EMaxC= 1.00D-01 BMatC= 5.84D-13 BMatP= 4.30D-12
 IDIUse=1 WtCom= 1.00D+00 WtEn= 0.00D+00
 Coeff-Com: -0.328D-03 0.134D-02 0.483D-02 0.358D-02-0.241D-01-0.403D-01
 Coeff-Com: -0.676D-02 0.319D+00 0.743D+00
 Coeff:     -0.328D-03 0.134D-02 0.483D-02 0.358D-02-0.241D-01-0.403D-01
 Coeff:     -0.676D-02 0.319D+00 0.743D+00
 Gap=     0.399 Goal=   None    Shift=    0.000
 RMSDP=2.61D-09 MaxDP=1.04D-07 DE= 3.64D-12 OVMax= 4.87D-07

 SCF Done:  E(RM062X) =  -764.660373509     A.U. after   14 cycles
            NFock= 14  Conv=0.26D-08     -V/T= 2.0037
 KE= 7.618515582306D+02 PE=-3.083829503096D+03 EE= 9.216637994178D+02
 Leave Link  502 at Sat May 24 04:16:20 2025, MaxMem=  3758096384 cpu:             121.7 elap:              27.5
 (Enter /apps/easybuild-2022/easybuild/software/Compiler/NVHPC/22.11-CUDA-11.7.0/Gaussian/g16c01-CUDA-11.7.0/g16/l508.exe)
 QCSCF skips out because SCF is already converged.
 Leave Link  508 at Sat May 24 04:16:20 2025, MaxMem=  3758096384 cpu:               0.0 elap:               0.0
 (Enter /apps/easybuild-2022/easybuild/software/Compiler/NVHPC/22.11-CUDA-11.7.0/Gaussian/g16c01-CUDA-11.7.0/g16/l701.exe)
 ... and contract with generalized density number  0.
 Compute integral first derivatives.
   1 Symmetry operations used in ECPInt.
 ECPInt:  NShTT=    6786 NPrTT=   21959 LenC2=    6467 LenP2D=   15874.
 LDataN:  DoStor=T MaxTD1= 7 Len=  274
 Leave Link  701 at Sat May 24 04:16:20 2025, MaxMem=  3758096384 cpu:               0.5 elap:               0.1
 (Enter /apps/easybuild-2022/easybuild/software/Compiler/NVHPC/22.11-CUDA-11.7.0/Gaussian/g16c01-CUDA-11.7.0/g16/l702.exe)
 L702 exits ... SP integral derivatives will be done elsewhere.
 Leave Link  702 at Sat May 24 04:16:20 2025, MaxMem=  3758096384 cpu:               0.0 elap:               0.0
 (Enter /apps/easybuild-2022/easybuild/software/Compiler/NVHPC/22.11-CUDA-11.7.0/Gaussian/g16c01-CUDA-11.7.0/g16/l703.exe)
 Integral derivatives from FoFJK, PRISM(SPDF).
 Compute integral first derivatives, UseDBF=F ICtDFT=           0.
 Calling FoFJK, ICntrl=      2127 FMM=F ISym2X=0 I1Cent= 0 IOpClX= 0 NMat=1 NMatS=1 NMatT=0.
 FoFJK:  IHMeth= 1 ICntrl=    2127 DoSepK=F KAlg= 0 I1Cent=           0 FoldK=F
 IRaf=         0 NMat=       1 IRICut=       1 DoRegI=T DoRafI=F ISym2E= 0 IDoP0=0 IntGTp=1.
 FoFCou: FMM=F IPFlag=           0 FMFlag=      100000 FMFlg1=         800
         NFxFlg=           0 DoJE=F BraDBF=F KetDBF=F FulRan=T
         wScrn=  0.000000 ICntrl=      2127 IOpCl=  0 I1Cent=           0 NGrid=           0
         NMat0=    1 NMatS0=      1 NMatT0=    0 NMatD0=    1 NMtDS0=    0 NMtDT0=    0
 Symmetry not used in FoFCou.
 Leave Link  703 at Sat May 24 04:16:29 2025, MaxMem=  3758096384 cpu:              74.7 elap:               9.4
 (Enter /apps/easybuild-2022/easybuild/software/Compiler/NVHPC/22.11-CUDA-11.7.0/Gaussian/g16c01-CUDA-11.7.0/g16/l716.exe)
 Dipole        = 5.13689582D-01 6.75056903D-01-8.50302892D-02
 -------------------------------------------------------------------
 Center     Atomic                   Forces (Hartrees/Bohr)
 Number     Number              X              Y              Z
 -------------------------------------------------------------------
      1        6          -0.001646579    0.002780282   -0.004300432
      2        8          -0.004858672    0.000158603    0.004897244
      3        6          -0.003107579    0.006885770   -0.004330385
      4        6           0.000956228   -0.000012683    0.000131363
      5        9           0.003406552   -0.001295905   -0.004870776
      6        9           0.005034663   -0.002076638    0.003935507
      7        9           0.001564320   -0.007789346    0.002607938
      8        9           0.001532610   -0.002936954   -0.008982605
      9        9          -0.003340365    0.001540514    0.007851315
     10        8           0.000292008    0.002708957    0.002266879
     11        1           0.000166815    0.000037400    0.000793953
 -------------------------------------------------------------------
 Cartesian Forces:  Max     0.008982605 RMS     0.003835410
 Leave Link  716 at Sat May 24 04:16:29 2025, MaxMem=  3758096384 cpu:               0.0 elap:               0.0
 (Enter /apps/easybuild-2022/easybuild/software/Compiler/NVHPC/22.11-CUDA-11.7.0/Gaussian/g16c01-CUDA-11.7.0/g16/l103.exe)

 GradGradGradGradGradGradGradGradGradGradGradGradGradGradGradGradGradGrad
 Berny optimization.
 Using GEDIIS/GDIIS optimizer.
 FormGI is forming the generalized inverse of G from B-inverse, IUseBI=4.
 GSVD:  received Info=                   1 from GESDD.
 Internal  Forces:  Max     0.014795981 RMS     0.005332897
 Search for a local minimum.
 Step number   2 out of a maximum of   53
 All quantities printed in internal units (Hartrees-Bohrs-Radians)
 RMS Force = .53329D-02 SwitMx=.10000D-02 MixMth= 1
 Mixed Optimization -- RFO/linear search
 Update second derivatives using D2CorX and points    1    2
 DE= -2.15D-02 DEPred=-2.23D-02 R= 9.62D-01
 TightC=F SS=  1.41D+00  RLast= 6.41D-01 DXNew= 5.0454D-01 1.9225D+00
 Trust test= 9.62D-01 RLast= 6.41D-01 DXMaxT set to 5.05D-01
 ITU=  1  0
 Use linear search instead of GDIIS.
     Eigenvalues ---   -0.00267   0.00153   0.01845   0.04505   0.04925
     Eigenvalues ---    0.09346   0.10295   0.10794   0.13439   0.14544
     Eigenvalues ---    0.15193   0.18127   0.18698   0.20906   0.22892
     Eigenvalues ---    0.24909   0.27997   0.32045   0.36648   0.39337
     Eigenvalues ---    0.41334   0.42356   0.46869   0.50808   0.53092
     Eigenvalues ---    0.59866   0.94473
 Eigenvalue     1 is  -2.67D-03 should be greater than     0.000000 Eigenvector:
                          D13       D14       D12       D16       D17
   1                   -0.34148  -0.33997  -0.33538  -0.33325  -0.33174
                          D10       D11       D15       D9        D5
   1                   -0.32928  -0.32776  -0.32716  -0.32318   0.03518
 RFO step:  Lambda=-3.09220727D-03 EMin=-2.66526218D-03
 Quartic linear search produced a step of  0.56161.
 Iteration  1 RMS(Cart)=  0.14123991 RMS(Int)=  0.02710998
 Iteration  2 RMS(Cart)=  0.04025231 RMS(Int)=  0.00353487
 Iteration  3 RMS(Cart)=  0.00105976 RMS(Int)=  0.00340058
 Iteration  4 RMS(Cart)=  0.00000127 RMS(Int)=  0.00340058
 Iteration  5 RMS(Cart)=  0.00000002 RMS(Int)=  0.00340058
 ITry= 1 IFail=0 DXMaxC= 5.47D-01 DCOld= 1.00D+10 DXMaxT= 5.05D-01 DXLimC= 3.00D+00 Rises=F
 Variable       Old X    -DE/DX   Delta X   Delta X   Delta X     New X
                                 (Linear)    (Quad)   (Total)
    R1        2.24672  -0.00410  -0.00300   0.00057  -0.00243   2.24429
    R2        2.93821  -0.00522  -0.05181   0.02779  -0.02402   2.91418
    R3        2.50907   0.00247   0.00468  -0.00238   0.00230   2.51136
    R4        2.99063  -0.00772  -0.06914   0.02585  -0.04329   2.94734
    R5        2.54012   0.00491   0.00556  -0.01472  -0.00916   2.53097
    R6        2.51089  -0.00155  -0.01246   0.01066  -0.00180   2.50909
    R7        2.50350  -0.00189  -0.01204   0.00371  -0.00833   2.49517
    R8        2.49995   0.00027  -0.00156   0.00205   0.00049   2.50044
    R9        2.51418   0.00005   0.00376  -0.00189   0.00187   2.51606
   R10        1.82755  -0.00001  -0.00009   0.00014   0.00005   1.82760
    A1        2.17231  -0.00524  -0.01721   0.00034  -0.01838   2.15393
    A2        2.20059   0.00312   0.01060   0.00212   0.01124   2.21183
    A3        1.90480   0.00252   0.01083   0.00311   0.01244   1.91724
    A4        2.04555  -0.01444  -0.09590  -0.01360  -0.11183   1.93372
    A5        1.87353  -0.00185   0.02299   0.01633   0.04556   1.91909
    A6        1.87615   0.01168   0.04628  -0.01511   0.01642   1.89258
    A7        1.81450   0.01480   0.06718   0.02104   0.09389   1.90840
    A8        1.95589  -0.00739  -0.02540  -0.02687  -0.05733   1.89856
    A9        1.89102  -0.00224  -0.00511   0.02556   0.02020   1.91122
   A10        1.95315  -0.00740  -0.01907  -0.00337  -0.02248   1.93067
   A11        1.91228   0.00120   0.00198   0.03018   0.03219   1.94447
   A12        1.93234  -0.00269  -0.00206  -0.02550  -0.02767   1.90466
   A13        1.87077   0.00610   0.02439   0.00345   0.02793   1.89870
   A14        1.86431   0.00709   0.02215   0.01178   0.03375   1.89807
   A15        1.92979  -0.00404  -0.02688  -0.01667  -0.04358   1.88621
   A16        1.89811  -0.00003   0.00075  -0.00286  -0.00211   1.89600
    D1        2.17030  -0.00876  -0.04872  -0.19007  -0.23844   1.93186
    D2       -2.08118   0.00005   0.00197  -0.15953  -0.15855  -2.23973
    D3       -0.05007   0.00241   0.02688  -0.12915  -0.10048  -0.15055
    D4       -1.07788  -0.00453  -0.01505  -0.13600  -0.15146  -1.22934
    D5        0.95382   0.00428   0.03565  -0.10545  -0.07157   0.88225
    D6        2.98492   0.00663   0.06055  -0.07507  -0.01349   2.97143
    D7       -0.00894   0.00113   0.00805  -0.00908   0.00010  -0.00884
    D8       -3.04178  -0.00254  -0.02298  -0.06412  -0.08823  -3.13001
    D9        1.84701  -0.00025  -0.07077   0.34584   0.26947   2.11648
   D10       -2.36366   0.00350  -0.05079   0.36775   0.31125  -2.05240
   D11       -0.23068  -0.00254  -0.08492   0.35027   0.25964   0.02896
   D12       -0.21670  -0.00047  -0.10389   0.31785   0.21528  -0.00142
   D13        1.85581   0.00328  -0.08391   0.33976   0.25706   2.11288
   D14       -2.29439  -0.00275  -0.11804   0.32228   0.20545  -2.08894
   D15       -2.25515  -0.00283  -0.12566   0.28842   0.16725  -2.08790
   D16       -0.18263   0.00092  -0.10568   0.31033   0.20903   0.02640
   D17        1.95035  -0.00511  -0.13981   0.29286   0.15742   2.10777
         Item               Value     Threshold  Converged?
 Maximum Force            0.014796     0.000450     NO 
 RMS     Force            0.005333     0.000300     NO 
 Maximum Displacement     0.546937     0.001800     NO 
 RMS     Displacement     0.169607     0.001200     NO 
 Predicted change in Energy=-3.911476D-03
 Lowest energy point so far.  Saving SCF results.
 GradGradGradGradGradGradGradGradGradGradGradGradGradGradGradGradGradGrad

 Leave Link  103 at Sat May 24 04:16:29 2025, MaxMem=  3758096384 cpu:               0.1 elap:               0.0
 (Enter /apps/easybuild-2022/easybuild/software/Compiler/NVHPC/22.11-CUDA-11.7.0/Gaussian/g16c01-CUDA-11.7.0/g16/l202.exe)
                          Input orientation:                          
 ---------------------------------------------------------------------
 Center     Atomic      Atomic             Coordinates (Angstroms)
 Number     Number       Type             X           Y           Z
 ---------------------------------------------------------------------
      1          6           0        1.412084   -0.074430   -0.647572
      2          8           0        2.229704   -0.933409   -0.583438
      3          6           0       -0.105223   -0.338847   -0.570136
      4          6           0       -0.696294    0.214102    0.763071
      5          9           0       -1.640971    1.103788    0.519214
      6          9           0       -1.205814   -0.756095    1.504621
      7          9           0        0.274360    0.800719    1.460524
      8          9           0       -0.724159    0.243784   -1.605156
      9          9           0       -0.305693   -1.650611   -0.615004
     10          8           0        1.635697    1.224597   -0.816843
     11          1           0        2.590299    1.369005   -0.873518
 ---------------------------------------------------------------------
                    Distance matrix (angstroms):
                    1          2          3          4          5
     1  C    0.000000
     2  O    1.187628   0.000000
     3  C    1.542120   2.409474   0.000000
     4  C    2.553120   3.419259   1.559666   0.000000
     5  F    3.474296   4.510891   2.372003   1.320387   0.000000
     6  F    3.456876   4.024203   2.385374   1.323174   2.149315
     7  F    2.550367   3.317883   2.359295   1.331439   2.155553
     8  F    2.362575   3.339910   1.339331   2.368576   2.468420
     9  F    2.331558   2.635073   1.327752   2.351343   3.264373
    10  O    1.328957   2.250402   2.352876   2.992559   3.540649
    11  H    1.876899   2.348465   3.205408   3.848885   4.462476
                    6          7          8          9         10
     6  F    0.000000
     7  F    2.148612   0.000000
     8  F    3.301887   3.271943   0.000000
     9  F    2.470463   3.263939   2.178129   0.000000
    10  O    4.169715   2.686878   2.674388   3.475133   0.000000
    11  H    4.958031   3.336806   3.575898   4.191859   0.967125
                   11
    11  H    0.000000
 Symmetry turned off by external request.
 Stoichiometry    C3HF5O2
 Rotational constants (GHZ):           1.8941963           1.1983648           1.1234987
 Leave Link  202 at Sat May 24 04:16:29 2025, MaxMem=  3758096384 cpu:               0.0 elap:               0.0
 (Enter /apps/easybuild-2022/easybuild/software/Compiler/NVHPC/22.11-CUDA-11.7.0/Gaussian/g16c01-CUDA-11.7.0/g16/l301.exe)
 Standard basis: def2TZVPP (5D, 7F)
 Ernie: Thresh=  0.10000D-02 Tol=  0.10000D-05 Strict=F.
   324 basis functions,   527 primitive gaussians,   375 cartesian basis functions
    40 alpha electrons       40 beta electrons
       nuclear repulsion energy       641.4735974202 Hartrees.
 IExCor= 4336 DFT=T Ex+Corr=M062X ExCW=0 ScaHFX=  0.540000
 ScaDFX=  1.000000  1.000000  1.000000  1.000000 ScalE2=  1.000000  1.000000
 IRadAn=      5 IRanWt=     -1 IRanGd=            0 ICorTp=0 IEmpDi=  4
 NAtoms=   11 NActive=   11 NUniq=   11 SFac= 1.00D+00 NAtFMM=   60 NAOKFM=F Big=F
 Integral buffers will be    131072 words long.
 Raffenetti 2 integral format.
 Two-electron integral symmetry is turned off.
 Leave Link  301 at Sat May 24 04:16:29 2025, MaxMem=  3758096384 cpu:               0.0 elap:               0.0
 (Enter /apps/easybuild-2022/easybuild/software/Compiler/NVHPC/22.11-CUDA-11.7.0/Gaussian/g16c01-CUDA-11.7.0/g16/l302.exe)
 NPDir=0 NMtPBC=     1 NCelOv=     1 NCel=       1 NClECP=     1 NCelD=      1
         NCelK=      1 NCelE2=     1 NClLst=     1 CellRange=     0.0.
 One-electron integrals computed using PRISM.
   1 Symmetry operations used in ECPInt.
 ECPInt:  NShTT=    6786 NPrTT=   21959 LenC2=    6494 LenP2D=   15974.
 LDataN:  DoStor=T MaxTD1= 6 Len=  172
 NBasis=   324 RedAO= T EigKep=  3.20D-04  NBF=   324
 NBsUse=   324 1.00D-06 EigRej= -1.00D+00 NBFU=   324
 Precomputing XC quadrature grid using
 IXCGrd= 4 IRadAn=           5 IRanWt=          -1 IRanGd=           0 AccXCQ= 0.00D+00.
[...]
    R8        2.50052   0.00000   0.00000  -0.00002  -0.00002   2.50050
    R9        2.51093   0.00002   0.00000   0.00001   0.00001   2.51095
   R10        1.82815   0.00000   0.00000   0.00000   0.00000   1.82815
    A1        2.14425   0.00000   0.00000  -0.00004  -0.00004   2.14421
    A2        2.20935  -0.00001   0.00000  -0.00005  -0.00005   2.20929
    A3        1.92955   0.00001   0.00000   0.00009   0.00009   1.92964
    A4        1.96592  -0.00001   0.00000  -0.00008  -0.00008   1.96585
    A5        1.92499  -0.00003   0.00000  -0.00015  -0.00015   1.92483
    A6        1.89969  -0.00003   0.00000  -0.00013  -0.00013   1.89956
    A7        1.88611   0.00004   0.00000   0.00022   0.00022   1.88633
    A8        1.88122   0.00004   0.00000   0.00019   0.00019   1.88142
    A9        1.90469  -0.00001   0.00000  -0.00005  -0.00005   1.90464
   A10        1.93222   0.00003   0.00000   0.00000   0.00000   1.93223
   A11        1.91802   0.00003   0.00000   0.00018   0.00018   1.91820
   A12        1.91052  -0.00002   0.00000  -0.00012  -0.00012   1.91039
   A13        1.90048  -0.00003   0.00000  -0.00010  -0.00010   1.90038
   A14        1.89927  -0.00001   0.00000  -0.00006  -0.00006   1.89921
   A15        1.90298   0.00001   0.00000   0.00009   0.00009   1.90307
   A16        1.89152   0.00000   0.00000  -0.00002  -0.00002   1.89150
    D1        1.84870   0.00000   0.00000  -0.00130  -0.00130   1.84740
    D2       -2.32564   0.00003   0.00000  -0.00117  -0.00117  -2.32681
    D3       -0.23654  -0.00002   0.00000  -0.00140  -0.00140  -0.23794
    D4       -1.28427  -0.00000   0.00000  -0.00148  -0.00148  -1.28575
    D5        0.82458   0.00002   0.00000  -0.00135  -0.00135   0.82322
    D6        2.91368  -0.00003   0.00000  -0.00158  -0.00158   2.91209
    D7       -0.00660  -0.00000   0.00000  -0.00003  -0.00003  -0.00663
    D8        3.12597   0.00001   0.00000   0.00016   0.00016   3.12613
    D9        1.16159  -0.00000   0.00000  -0.00137  -0.00137   1.16022
   D10       -3.02157  -0.00001   0.00000  -0.00137  -0.00137  -3.02294
   D11       -0.93211   0.00001   0.00000  -0.00122  -0.00122  -0.93333
   D12       -0.96936   0.00001   0.00000  -0.00128  -0.00128  -0.97064
   D13        1.13067   0.00001   0.00000  -0.00128  -0.00128   1.12939
   D14       -3.06305   0.00002   0.00000  -0.00113  -0.00113  -3.06419
   D15       -3.02567  -0.00002   0.00000  -0.00145  -0.00145  -3.02713
   D16       -0.92565  -0.00002   0.00000  -0.00145  -0.00145  -0.92710
   D17        1.16382  -0.00001   0.00000  -0.00130  -0.00130   1.16252
         Item               Value     Threshold  Converged?
 Maximum Force            0.000040     0.000450     YES
 RMS     Force            0.000019     0.000300     YES
 Maximum Displacement     0.003069     0.001800     NO 
 RMS     Displacement     0.001097     0.001200     YES
 Predicted change in Energy=-4.686433D-08
                           ----------------------------
                           ! Non-Optimized Parameters !
                           ! (Angstroms and Degrees)  !
 --------------------------                            --------------------------
 ! Name  Definition              Value          Derivative Info.                !
 --------------------------------------------------------------------------------
 ! R1    R(1,2)                  1.1878         -DE/DX =    0.0                 !
 ! R2    R(1,3)                  1.5442         -DE/DX =    0.0                 !
 ! R3    R(1,10)                 1.3291         -DE/DX =    0.0                 !
 ! R4    R(3,4)                  1.5444         -DE/DX =    0.0                 !
 ! R5    R(3,8)                  1.3416         -DE/DX =    0.0                 !
 ! R6    R(3,9)                  1.3328         -DE/DX =    0.0                 !
 ! R7    R(4,5)                  1.3249         -DE/DX =    0.0                 !
 ! R8    R(4,6)                  1.3232         -DE/DX =    0.0                 !
 ! R9    R(4,7)                  1.3287         -DE/DX =    0.0                 !
 ! R10   R(10,11)                0.9674         -DE/DX =    0.0                 !
 ! A1    A(2,1,3)              122.8545         -DE/DX =    0.0                 !
 ! A2    A(2,1,10)             126.5831         -DE/DX =    0.0                 !
 ! A3    A(3,1,10)             110.5605         -DE/DX =    0.0                 !
 ! A4    A(1,3,4)              112.6347         -DE/DX =    0.0                 !
 ! A5    A(1,3,8)              110.2848         -DE/DX =    0.0                 !
 ! A6    A(1,3,9)              108.8368         -DE/DX =    0.0                 !
 ! A7    A(4,3,8)              108.0788         -DE/DX =    0.0                 !
 ! A8    A(4,3,9)              107.7972         -DE/DX =    0.0                 !
 ! A9    A(8,3,9)              109.1281         -DE/DX =    0.0                 !
 ! A10   A(3,4,5)              110.7085         -DE/DX =    0.0                 !
 ! A11   A(3,4,6)              109.9048         -DE/DX =    0.0                 !
 ! A12   A(3,4,7)              109.4574         -DE/DX =    0.0                 !
 ! A13   A(5,4,6)              108.8838         -DE/DX =    0.0                 !
 ! A14   A(5,4,7)              108.8168         -DE/DX =    0.0                 !
 ! A15   A(6,4,7)              109.0378         -DE/DX =    0.0                 !
 ! A16   A(1,10,11)            108.3749         -DE/DX =    0.0                 !
 ! D1    D(2,1,3,4)            105.8485         -DE/DX =    0.0                 !
 ! D2    D(2,1,3,8)           -133.3163         -DE/DX =    0.0                 !
 ! D3    D(2,1,3,9)            -13.633          -DE/DX =    0.0                 !
 ! D4    D(10,1,3,4)           -73.6679         -DE/DX =    0.0                 !
 ! D5    D(10,1,3,8)            47.1672         -DE/DX =    0.0                 !
 ! D6    D(10,1,3,9)           166.8506         -DE/DX =    0.0                 !
 ! D7    D(2,1,10,11)           -0.3799         -DE/DX =    0.0                 !
 ! D8    D(3,1,10,11)          179.1143         -DE/DX =    0.0                 !
 ! D9    D(1,3,4,5)             66.4756         -DE/DX =    0.0                 !
 ! D10   D(1,3,4,6)           -173.2015         -DE/DX =    0.0                 !
 ! D11   D(1,3,4,7)            -53.4756         -DE/DX =    0.0                 !
 ! D12   D(8,3,4,5)            -55.6138         -DE/DX =    0.0                 !
 ! D13   D(8,3,4,6)             64.7091         -DE/DX =    0.0                 !
 ! D14   D(8,3,4,7)           -175.5651         -DE/DX =    0.0                 !
 ! D15   D(9,3,4,5)           -173.4415         -DE/DX =    0.0                 !
 ! D16   D(9,3,4,6)            -53.1186         -DE/DX =    0.0                 !
 ! D17   D(9,3,4,7)             66.6072         -DE/DX =    0.0                 !
 --------------------------------------------------------------------------------
 GradGradGradGradGradGradGradGradGradGradGradGradGradGradGradGradGradGrad

 Leave Link  103 at Sat May 24 04:28:06 2025, MaxMem=  3758096384 cpu:               0.0 elap:               0.0
 (Enter /apps/easybuild-2022/easybuild/software/Compiler/NVHPC/22.11-CUDA-11.7.0/Gaussian/g16c01-CUDA-11.7.0/g16/l9999.exe)

 ----------------------------------------------------------------------

 Electric dipole moment (input orientation):
 (Debye = 10**-18 statcoulomb cm , SI units = C m)
                  (au)            (Debye)         (10**-30 SI)
   Tot        0.908239D+00      0.230851D+01      0.770038D+01
   x          0.412674D+00      0.104891D+01      0.349880D+01
   y          0.756725D+00      0.192340D+01      0.641578D+01
   z         -0.286297D+00     -0.727695D+00     -0.242733D+01

 Dipole polarizability, Alpha (input orientation).
 (esu units = cm**3 , SI units = C**2 m**2 J**-1)
 Alpha(0;0):
               (au)            (10**-24 esu)      (10**-40 SI)
   iso        0.438768D+02      0.650187D+01      0.723431D+01
   aniso      0.105709D+02      0.156645D+01      0.174291D+01
   xx         0.482673D+02      0.715248D+01      0.795820D+01
   yx        -0.608038D+00     -0.901020D-01     -0.100252D+00
   yy         0.450633D+02      0.667770D+01      0.742994D+01
   zx        -0.142088D+01     -0.210552D+00     -0.234271D+00
   zy        -0.299430D+01     -0.443710D+00     -0.493694D+00
   zz         0.382998D+02      0.567544D+01      0.631478D+01

 ----------------------------------------------------------------------

 Dipole orientation:
     6          1.66851520          1.79948083          1.68703027
     8          3.72198674          2.60463092          1.27092561
     6         -0.21891507          1.10654554         -0.42793758
     6         -0.50422268         -1.77665372         -0.77868748
     9         -1.57609313         -2.81144210          1.23328165
     9         -1.91842347         -2.25394463         -2.78488050
     9          1.76128017         -2.80747866         -1.10984848
     9         -2.50824831          2.06621787          0.08743699
     9          0.60844439          2.06814043         -2.60380855
     8          0.66748989          1.34644319          3.94552359
     1          1.90529131          1.77454694          5.22094564

 Electric dipole moment (dipole orientation):
 (Debye = 10**-18 statcoulomb cm , SI units = C m)
                  (au)            (Debye)         (10**-30 SI)
   Tot        0.908239D+00      0.230851D+01      0.770038D+01
   x          0.000000D+00      0.000000D+00      0.000000D+00
   y          0.000000D+00      0.000000D+00      0.000000D+00
   z          0.908239D+00      0.230851D+01      0.770038D+01

 Dipole polarizability, Alpha (dipole orientation).
 (esu units = cm**3 , SI units = C**2 m**2 J**-1)
 Alpha(0;0):
               (au)            (10**-24 esu)      (10**-40 SI)
   iso        0.438768D+02      0.650187D+01      0.723431D+01
   aniso      0.105709D+02      0.156645D+01      0.174291D+01
   xx         0.459338D+02      0.680669D+01      0.757347D+01
   yx         0.436686D+01      0.647102D+00      0.719998D+00
   yy         0.391244D+02      0.579764D+01      0.645074D+01
   zx         0.527435D+00      0.781578D-01      0.869623D-01
   zy         0.927035D+00      0.137372D+00      0.152847D+00
   zz         0.465722D+02      0.690129D+01      0.767872D+01

 ----------------------------------------------------------------------
 Unable to Open any file for archive entry.
 1\1\GINC-SPARTAN-BM154\Freq\RM062X\def2TZVPP\C3H1F5O2\AKHALILOV\24-May
 -2025\0\\#P Geom=AllCheck Guess=TCheck SCRF=Check GenChk RM062X/def2TZ
 VPP Freq\\Gaussian input prepared by ASE\\0,1\C,1.4240668158,0.0400258
 759,-0.6736210052\O,2.3627356127,-0.6573966854,-0.4654629124\C,-0.0320
 094147,-0.4318286412,-0.469127072\C,-0.682781659,0.1774167159,0.791980
 5363\F,-0.8348127146,1.4863205189,0.6548827823\F,-1.8687441522,-0.3724
 433963,0.9970361543\F,0.091251905,-0.0560895888,1.8464294376\F,-0.7832
 192971,-0.0956939254,-1.5286630495\F,-0.03961505,-1.7574644791,-0.3312
 085615\O,1.4515252571,1.3014672468,-1.0913002271\H,2.3755946969,1.5682
 903587,-1.1951840827\\Version=ES64L-G16RevC.01\HF=-764.6682656\RMSD=1.
 157e-09\RMSF=1.943e-05\ZeroPoint=0.0526848\Thermal=0.0616296\ETot=-764
 .606636\HTot=-764.6056919\GTot=-764.6515799\Dipole=0.412674,0.7567251,
 -0.2862974\DipoleDeriv=1.2014035,-0.2448562,-0.0870752,-0.1378154,1.60
 14614,-0.4845307,0.0601189,-0.4321732,0.3946517,-0.9517832,0.3761458,-
 0.0470131,0.122249,-0.7517649,0.1345934,-0.0299098,0.1323327,-0.352974
 5,0.7538315,-0.0397093,0.2475231,0.0417263,1.1411112,-0.1148466,0.3020
 371,-0.0914479,0.9675894,1.6360626,0.0830564,0.07924,-0.0281328,1.5241
 097,-0.066839,-0.0917635,-0.129089,1.4447802,-0.317179,0.1104566,0.020
 3647,0.0914438,-0.8653917,0.0490049,0.0488307,-0.0236664,-0.3219571,-0
 .8825169,-0.2402379,0.1344509,-0.1946583,-0.3698066,0.0104692,0.225290
 9,0.0489699,-0.3574114,-0.4866841,0.0644062,-0.2019684,0.0563928,-0.28
 98563,0.0341604,-0.251591,0.0832745,-0.7439706,-0.5053831,0.084434,-0.
 2452999,0.0327315,-0.2881982,0.061324,-0.2714379,0.1169363,-0.6610532,
 -0.2793009,-0.0525339,0.0213735,-0.0321243,-0.8475771,0.0681854,0.0142
 061,-0.004914,-0.2813326,-0.4344835,-0.2168329,0.1055571,-0.0211961,-1
 .2125692,0.3190455,0.0212748,0.3076287,-0.4395169,0.2660331,0.0756712,
 -0.0271527,0.0693835,0.3584819,-0.0105663,-0.0270563,-0.0078515,0.3511
 95\Polar=48.2672967,-0.6080384,45.0633471,-1.4208751,-2.9943039,38.299
 7927\PG=Unknown\NImag=0\\0.90888734,-0.22575988,0.75871149,0.05184369,
 -0.17335393,0.28653041,-0.58826715,0.31926384,-0.09145244,0.62344649,0
 .33402924,-0.33909067,0.07914091,-0.39959762,0.39902692,-0.09548884,0.
 07991646,-0.09882327,0.11698070,-0.11159917,0.06353467,-0.15876873,-0.
 04051208,0.04142527,-0.03453268,0.00796272,-0.00629446,0.55167393,-0.0
 4993954,-0.07397970,-0.00597516,0.03563421,-0.00058292,0.00471473,0.01
 472783,0.60281855,0.01045354,-0.01788250,-0.09303786,0.00122356,0.0063
 1901,0.02247659,0.02613019,0.00040713,0.53845282,-0.01382121,0.0079465
 3,0.02910272,-0.00227184,-0.00027706,-0.00476098,-0.09086233,0.0263173
 5,0.07251165,0.60714606,0.00659856,0.02942061,0.00719163,-0.00661866,-
 0.00549988,-0.00036988,0.00496104,-0.06587348,-0.04227516,-0.00566250,
 0.60358323,0.02865307,0.00429223,0.00705465,-0.01339573,0.00175222,-0.
 00531863,0.04233289,-0.05731548,-0.14334233,-0.01916554,0.01119113,0.6
 1355799,0.00163736,-0.00175755,-0.00170164,-0.00034330,0.00032276,0.00
 023398,0.00485319,0.01691874,-0.00704320,-0.08501419,0.04085298,0.0061
 4250,0.08696789,-0.00373779,-0.00966445,0.00026092,0.00126612,0.002790
 21,-0.00062225,0.00645870,-0.03628323,0.01327349,0.04324301,-0.3143787
 8,-0.00950022,-0.04125493,0.44405861,-0.00323455,0.00139462,-0.0009320
 0,0.00159923,-0.00060601,0.00066022,0.00170779,-0.02032542,0.00822881,
 0.00379558,0.00110250,-0.08425917,0.00734047,-0.04138497,0.07973655,0.
 00704585,0.00638019,0.00415446,-0.00450361,-0.00012016,-0.00081663,-0.
 04606515,-0.02238127,0.00697702,-0.27841809,-0.07386834,0.06066432,-0.
 00157786,-0.03729587,0.00526254,0.38046982,0.00022228,-0.00260917,-0.0
 0036422,0.00015907,0.00091261,0.00002333,0.00005630,0.00024042,-0.0019
 1259,-0.07949125,-0.10784092,0.01990368,-0.05477976,-0.05797582,0.0173
 0442,0.14023582,0.14705996,-0.00634526,-0.00561159,-0.00530842,0.00454
 030,0.00014953,0.00147739,0.03815029,0.01552129,-0.00445612,0.05488323
 ,0.01560793,-0.09736376,0.00535469,0.01243460,0.01138615,-0.04922250,-
 0.02674058,0.08334418,-0.00304764,0.00116787,-0.00344166,0.00243122,-0
 .00104582,0.00245978,0.00242475,0.00327119,-0.00367025,-0.13510580,0.0
 1458814,-0.09877498,-0.00435342,0.02836095,-0.02306896,-0.06626592,-0.
 00949458,-0.04670491,0.20012983,0.00005949,-0.00347035,0.00046409,0.00
 011069,0.00102244,-0.00058136,-0.00217022,0.00509804,-0.00494054,0.017
 06228,-0.08065283,0.02331645,0.03579911,-0.03157392,0.05201240,-0.0140
 2040,0.01214284,-0.01160284,-0.03546619,0.09149729,-0.00667109,-0.0006
 1200,-0.00158248,0.00455014,-0.00073950,0.00104889,-0.03360788,0.01710
 129,-0.03181792,-0.09069352,0.01727625,-0.25928580,-0.01980487,0.03653
 867,-0.01098096,-0.02973085,-0.00670959,0.00733438,0.17038868,-0.05456
 851,0.30904305,-0.01642625,0.01447194,-0.04653637,-0.01256142,-0.00034
 483,0.00593471,-0.15618727,0.01275599,-0.11838112,-0.00195467,0.005048
 83,-0.00117191,0.00162490,-0.00232252,0.00118748,0.00682844,0.00024834
 ,-0.00083862,0.00175110,-0.00051293,0.00176074,0.17615321,0.00013211,0
 .00205116,-0.00133029,-0.00156022,0.00197193,-0.00037505,0.02479786,-0
 .07466266,0.03405768,-0.00526058,0.00079734,-0.00252263,-0.00138465,0.
 00407115,-0.00157594,0.00082621,0.00091464,-0.00022352,0.00022472,0.00
 050749,-0.00346843,-0.04865314,0.09636577,-0.00566818,0.01155498,-0.00
 963821,-0.00625113,-0.00207524,0.00103687,-0.10943381,0.02088009,-0.23
 232186,-0.03914874,0.01662381,-0.03760601,0.00303721,-0.00347606,0.001
 60357,0.00353665,-0.00082712,0.00256333,0.00144882,-0.00365179,-0.0149
 5221,0.16462326,-0.07232400,0.29635356,-0.00183389,-0.03483549,-0.0002
 5682,0.00255128,-0.00400681,0.00227059,-0.07527983,-0.00842903,0.00005
 389,0.00069930,0.01551005,0.00025137,-0.00117112,0.00406339,0.00246665
 ,0.00380172,0.00276432,-0.00123261,0.00115740,-0.00097217,0.00215837,0
 .00265411,0.03199588,-0.01202006,0.07456732,0.00620403,-0.04202579,0.0
 0576390,-0.00184198,0.00789454,-0.00033051,-0.01882878,-0.33279728,-0.
 00570661,-0.00370933,-0.04782708,0.01289789,0.00482292,-0.00721478,-0.
 00778821,0.00212924,0.00571644,-0.00147768,-0.00107582,0.00378851,-0.0
 0526389,0.02263568,-0.03423318,0.03752726,-0.00014309,0.45018132,0.000
 94765,0.01127194,0.00589687,-0.00021283,-0.00112557,-0.00083761,0.0048
 4648,0.00942991,-0.07285434,-0.00418595,-0.02530283,0.00633039,0.00401
 550,-0.00718343,-0.00411867,-0.00089262,-0.00079112,0.00082008,0.00119
 880,-0.00030339,0.00137311,-0.01098354,0.04984445,-0.01048669,0.003013
 50,-0.03702783,0.07414784,-0.13499869,-0.03454686,0.01293108,0.0178091
 5,0.05669098,-0.01827575,0.00164488,-0.02908871,0.01198961,0.00026977,
 -0.00123805,-0.00585951,-0.00271386,0.00107147,0.00293545,-0.00159425,
 -0.00002314,0.00152688,0.00076644,0.00009293,0.00178421,-0.00247049,-0
 .00147672,-0.00018265,-0.00774972,-0.01066925,0.00217652,0.59862974,-0
 .01248579,-0.29855894,0.07863387,0.04790464,-0.07416184,0.03316114,0.0
 0129839,-0.01960141,0.01487042,0.00084066,-0.01120631,-0.00434371,0.00
 007518,0.00594231,0.00024177,-0.00206648,0.00133881,0.00195012,-0.0006
 9609,0.00168137,0.00063895,-0.00438329,0.00142235,-0.00401293,-0.00492
 670,-0.00202939,0.00089989,0.10593264,0.46445089,0.00664357,0.07948743
 ,-0.09097135,-0.01583540,0.03285793,0.01916696,-0.00324360,0.01164032,
 0.00435327,-0.00246289,-0.00082908,-0.00008428,0.00227979,-0.00026955,
 -0.00107889,0.00054521,0.00021807,0.00002617,0.00049225,-0.00004576,0.
 00014013,0.00382390,-0.00117656,0.00331100,0.00241882,0.00081443,0.000
 04577,-0.04567177,-0.14123861,0.08773832,-0.00040699,-0.01181850,0.003
 93171,-0.00375813,0.00638661,-0.00224308,0.00109925,0.00021323,-0.0002
 4489,-0.00066701,-0.00017205,0.00032352,0.00009041,0.00014748,0.000008
 33,0.00027905,0.00010260,-0.00011148,0.00011205,0.00001742,-0.00013392
 ,0.00058834,0.00035852,0.00005865,0.00060343,0.00047639,0.00007650,-0.
 46959295,-0.13149316,0.05101012,0.47165255,-0.05532269,-0.02078419,0.0
 0956830,0.00527992,0.00571669,-0.00393744,0.00124825,-0.00437632,0.003
 78968,-0.00100910,-0.00052189,0.00032845,0.00038521,0.00022872,-0.0003
 7516,0.00018106,0.00010020,-0.00000727,0.00016562,-0.00004088,-0.00019
 325,0.00105595,0.00079402,-0.00021900,-0.00102037,-0.00145330,0.000287
 96,-0.08674529,-0.06927784,0.01854140,0.13578145,0.08961480,0.01886641
 ,0.00954237,0.00081166,-0.00174638,-0.00407412,-0.00442208,-0.00201316
 ,0.00392130,0.00431895,0.00012445,-0.00021630,0.00031695,0.00014558,-0
 .00007120,-0.00024560,-0.00047760,-0.00010428,0.00017662,-0.00032757,-
 0.00009875,-0.00032019,0.00058148,-0.00090571,0.00013665,0.00087630,0.
 00059126,-0.00031676,0.03664595,0.01919910,-0.02264709,-0.05267547,-0.
 02778368,0.02219090\\0.00002749,-0.00000603,-0.00000483,-0.00001538,0.
 00000552,0.00000721,0.00003703,0.00002116,-0.00005420,0.00000284,0.000
 01591,0.00000581,0.00001143,-0.00001476,-0.00001590,0.00001496,-0.0000
 2582,-0.00000661,-0.00002487,-0.00000500,-0.00000925,-0.00001752,0.000
 00982,0.00003964,-0.00003170,-0.00000931,0.00002845,-0.00000421,0.0000
 0841,0.00000455,-0.00000009,0.00000010,0.00000512\\\@
 The archive entry for this job was punched.


 RESEARCH IS WHAT I AM DOING WHEN I DON'T KNOW WHAT I AM DOING.
     -- WERNER VON BRAUN
 Job cpu time:       0 days  0 hours 28 minutes 36.9 seconds.
 Elapsed time:       0 days  0 hours  3 minutes 38.3 seconds.
 File lengths (MBytes):  RWF=    116 Int=      0 D2E=      0 Chk=      9 Scr=      1
 Normal termination of Gaussian 16 at Sat May 24 04:28:06 2025.
done
