 Entering Gaussian System, Link 0=g16
 Initial command:
 /apps/easybuild-2022/easybuild/software/Compiler/NVHPC/22.11-CUDA-11.7.0/Gaussian/g16c01-CUDA-11.7.0/g16/l1.exe "/tmp/Gau-234370.inp" -scrdir="/tmp/"
 Entering Link 1 = /apps/easybuild-2022/easybuild/software/Compiler/NVHPC/22.11-CUDA-11.7.0/Gaussian/g16c01-CUDA-11.7.0/g16/l1.exe PID=    234371.
  
 Copyright (c) 1988-2019, Gaussian, Inc.  All Rights Reserved.
  
 This is part of the Gaussian(R) 16 program.  It is based on
 the Gaussian(R) 09 system (copyright 2009, Gaussian, Inc.),
 the Gaussian(R) 03 system (copyright 2003, Gaussian, Inc.),
 the Gaussian(R) 98 system (copyright 1998, Gaussian, Inc.),
 the Gaussian(R) 94 system (copyright 1995, Gaussian, Inc.),
 the Gaussian 92(TM) system (copyright 1992, Gaussian, Inc.),
 the Gaussian 90(TM) system (copyright 1990, Gaussian, Inc.),
 the Gaussian 88(TM) system (copyright 1988, Gaussian, Inc.),
 the Gaussian 86(TM) system (copyright 1986, Carnegie Mellon
 University), and the Gaussian 82(TM) system (copyright 1983,
 Carnegie Mellon University). Gaussian is a federally registered
 trademark of Gaussian, Inc.
  
 This software contains proprietary and confidential information,
 including trade secrets, belonging to Gaussian, Inc.
  
 This software is provided under written license and may be
 used, copied, transmitted, or stored only in accord with that
 written license.
  
 The following legend is applicable only to US Government
 contracts under FAR:
  
                    RESTRICTED RIGHTS LEGEND
  
 Use, reproduction and disclosure by the US Government is
 subject to restrictions as set forth in subparagraphs (a)
 and (c) of the Commercial Computer Software - Restricted
 Rights clause in FAR 52.227-19.
  
 Gaussian, Inc.
 340 Quinnipiac St., Bldg. 40, Wallingford CT 06492
  
  
 ---------------------------------------------------------------
 Warning -- This program may not be used in any manner that
 competes with the business of Gaussian, Inc. or will provide
 assistance to any competitor of Gaussian, Inc.  The licensee
 of this program is prohibited from giving any competitor of
 Gaussian, Inc. access to this program.  By using this program,
 the user acknowledges that Gaussian, Inc. is engaged in the
 business of creating and licensing software in the field of
 computational chemistry and represents and warrants to the
 licensee that it is not a competitor of Gaussian, Inc. and that
 it will not use this program in any manner prohibited above.
 ---------------------------------------------------------------
  

 Cite this work as:
 Gaussian 16, Revision C.01,
 M. J. Frisch, G. W. Trucks, H. B. Schlegel, G. E. Scuseria, 
 M. A. Robb, J. R. Cheeseman, G. Scalmani, V. Barone, 
 G. A. Petersson, H. Nakatsuji, X. Li, M. Caricato, A. V. Marenich, 
 J. Bloino, B. G. Janesko, R. Gomperts, B. Mennucci, H. P. Hratchian, 
 J. V. Ortiz, A. F. Izmaylov, J. L. Sonnenberg, D. Williams-Young, 
 F. Ding, F. Lipparini, F. Egidi, J. Goings, B. Peng, A. Petrone, 
 T. Henderson, D. Ranasinghe, V. G. Zakrzewski, J. Gao, N. Rega, 
 G. Zheng, W. Liang, M. Hada, M. Ehara, K. Toyota, R. Fukuda, 
 J. Hasegawa, M. Ishida, T. Nakajima, Y. Honda, O. Kitao, H. Nakai, 
 T. Vreven, K. Throssell, J. A. Montgomery, Jr., J. E. Peralta, 
 F. Ogliaro, M. J. Bearpark, J. J. Heyd, E. N. Brothers, K. N. Kudin, 
 V. N. Staroverov, T. A. Keith, R. Kobayashi, J. Normand, 
 K. Raghavachari, A. P. Rendell, J. C. Burant, S. S. Iyengar, 
 J. Tomasi, M. Cossi, J. M. Millam, M. Klene, C. Adamo, R. Cammi, 
 J. W. Ochterski, R. L. Martin, K. Morokuma, O. Farkas, 
 J. B. Foresman, and D. J. Fox, Gaussian, Inc., Wallingford CT, 2019.
 
 ******************************************
 Gaussian 16:  ES64L-G16RevC.01  3-Jul-2019
                24-May-2025 
 ******************************************
 %mem=28GB
 %chk=1642764945472630600001_r12_insertion_R_8_3_1
 %nprocshared=8
 Will use up to    8 processors via shared memory.
 ----------------------------------------------------------------------
 #P M062X/Def2TZVPP Symm(None) scf(xqc) pop(None) opt(NoFreeze,TS,CalcA
 ll,NoEigentest,MaxCycle=999)
 ----------------------------------------------------------------------
 1/5=1,6=999,10=4,11=1,18=20,26=3,29=2000,38=1/1,3;
 2/9=110,12=2,15=3,17=6,18=5,40=1/2;
 3/5=44,7=202,11=2,25=1,30=1,71=2,74=-55,140=1/1,2,3;
 4//1;
 5/5=2,8=3,13=1,38=5/2,8;
 8/6=4,10=90,11=11/1;
 11/6=1,8=1,9=11,15=111,16=1,31=1/1,2,10;
 10/6=1,31=1/2;
 7/10=1,25=1,30=1/1,2,3,16;
 1/5=1,6=999,10=4,11=1,18=20,26=3/3(3);
 2/9=110,15=3/2;
 7/8=1,9=1,25=1,30=1,44=-1/16;
 99//99;
 2/9=110,15=3/2;
 3/5=44,7=202,11=2,25=1,30=1,71=2,74=-55,140=1/1,2,3;
 4/5=5,16=3,69=1/1;
 5/5=2,8=3,13=1,38=5/2,8;
 8/6=4,10=90,11=11/1;
 11/6=1,8=1,9=11,15=111,16=1,31=1/1,2,10;
 10/6=1,31=1/2;
 7/10=1,25=1,30=1/1,2,3,16;
 1/5=1,6=999,10=4,11=1,18=20,26=3/3(-8);
 2/9=110,15=3/2;
 7/8=1,9=1,25=1,30=1,44=-1/16;
 99//99;
 Leave Link    1 at Sat May 24 02:05:11 2025, MaxMem=  3758096384 cpu:               0.0 elap:               0.0
 (Enter /apps/easybuild-2022/easybuild/software/Compiler/NVHPC/22.11-CUDA-11.7.0/Gaussian/g16c01-CUDA-11.7.0/g16/l101.exe)
 ------------------------------
 Gaussian input prepared by ASE
 ------------------------------
 Symbolic Z-matrix:
 Charge =  0 Multiplicity = 1
 C                     1.93271  -0.07082  -0.4053 
 O                     2.24306  -0.98492  -1.09344 
 C                    -0.09734  -0.39636   0.3776 
 C                    -0.60516   0.38551   1.38286 
 F                    -1.8742    0.87553   1.28143 
 F                    -0.62544  -0.21812   2.60858 
 F                     0.11246   1.51877   1.62833 
 F                     0.23379   0.61364  -0.91048 
 F                    -0.54292  -1.29937  -0.12204 
 O                     2.43129   0.99613   0.20278 
 H                     1.72126   1.55141   0.56177 
 
 Add virtual bond connecting atoms F8         and C3         Dist= 3.16D+00.
 Add virtual bond connecting atoms F7         and H11        Dist= 3.65D+00.
 Add virtual bond connecting atoms F8         and C1         Dist= 3.59D+00.
 ITRead=  0  0  0  0  0  0  0  0  0  0  0
 MicOpt= -1 -1 -1 -1 -1 -1 -1 -1 -1 -1 -1
 NAtoms=     11 NQM=       11 NQMF=       0 NMMI=      0 NMMIF=      0
                NMic=       0 NMicF=      0.
                    Isotopes and Nuclear Properties:
 (Nuclear quadrupole moments (NQMom) in fm**2, nuclear magnetic moments (NMagM)
  in nuclear magnetons)

  Atom         1           2           3           4           5           6           7           8           9          10
 IAtWgt=          12          16          12          12          19          19          19          19          19          16
 AtmWgt=  12.0000000  15.9949146  12.0000000  12.0000000  18.9984032  18.9984032  18.9984032  18.9984032  18.9984032  15.9949146
 NucSpn=           0           0           0           0           1           1           1           1           1           0
 AtZEff=  -0.0000000  -0.0000000  -0.0000000  -0.0000000  -0.0000000  -0.0000000  -0.0000000  -0.0000000  -0.0000000  -0.0000000
 NQMom=    0.0000000   0.0000000   0.0000000   0.0000000   0.0000000   0.0000000   0.0000000   0.0000000   0.0000000   0.0000000
 NMagM=    0.0000000   0.0000000   0.0000000   0.0000000   2.6288670   2.6288670   2.6288670   2.6288670   2.6288670   0.0000000
 AtZNuc=   6.0000000   8.0000000   6.0000000   6.0000000   9.0000000   9.0000000   9.0000000   9.0000000   9.0000000   8.0000000

  Atom        11
 IAtWgt=           1
 AtmWgt=   1.0078250
 NucSpn=           1
 AtZEff=  -0.0000000
 NQMom=    0.0000000
 NMagM=    2.7928460
 AtZNuc=   1.0000000
 Leave Link  101 at Sat May 24 02:05:11 2025, MaxMem=  3758096384 cpu:               0.2 elap:               0.2
 (Enter /apps/easybuild-2022/easybuild/software/Compiler/NVHPC/22.11-CUDA-11.7.0/Gaussian/g16c01-CUDA-11.7.0/g16/l103.exe)

 GradGradGradGradGradGradGradGradGradGradGradGradGradGradGradGradGradGrad
 Berny optimization.
 Initialization pass.
                           ----------------------------
                           !    Initial Parameters    !
                           ! (Angstroms and Degrees)  !
 --------------------------                            --------------------------
 ! Name  Definition              Value          Derivative Info.                !
 --------------------------------------------------------------------------------
 ! R1    R(1,2)                  1.1855         calculate D2E/DX2 analytically  !
 ! R2    R(1,8)                  1.9            calculate D2E/DX2 analytically  !
 ! R3    R(1,10)                 1.3254         calculate D2E/DX2 analytically  !
 ! R4    R(3,4)                  1.371          calculate D2E/DX2 analytically  !
 ! R5    R(3,8)                  1.67           calculate D2E/DX2 analytically  !
 ! R6    R(3,9)                  1.1241         calculate D2E/DX2 analytically  !
 ! R7    R(4,5)                  1.3641         calculate D2E/DX2 analytically  !
 ! R8    R(4,6)                  1.3664         calculate D2E/DX2 analytically  !
 ! R9    R(4,7)                  1.3636         calculate D2E/DX2 analytically  !
 ! R10   R(7,11)                 1.9305         calculate D2E/DX2 analytically  !
 ! R11   R(10,11)                0.9702         calculate D2E/DX2 analytically  !
 ! A1    A(2,1,8)              110.9477         calculate D2E/DX2 analytically  !
 ! A2    A(2,1,10)             142.0477         calculate D2E/DX2 analytically  !
 ! A3    A(8,1,10)              99.6919         calculate D2E/DX2 analytically  !
 ! A4    A(4,3,8)              107.1017         calculate D2E/DX2 analytically  !
 ! A5    A(4,3,9)              129.5826         calculate D2E/DX2 analytically  !
 ! A6    A(8,3,9)              102.8033         calculate D2E/DX2 analytically  !
 ! A7    A(3,4,5)              119.6637         calculate D2E/DX2 analytically  !
 ! A8    A(3,4,6)              114.2847         calculate D2E/DX2 analytically  !
 ! A9    A(3,4,7)              114.2673         calculate D2E/DX2 analytically  !
 ! A10   A(5,4,6)              102.2146         calculate D2E/DX2 analytically  !
 ! A11   A(5,4,7)              101.7958         calculate D2E/DX2 analytically  !
 ! A12   A(6,4,7)              102.3254         calculate D2E/DX2 analytically  !
 ! A13   A(4,7,11)             110.6806         calculate D2E/DX2 analytically  !
 ! A14   A(1,8,3)               75.7796         calculate D2E/DX2 analytically  !
 ! A15   A(1,10,11)            110.8038         calculate D2E/DX2 analytically  !
 ! A16   A(7,11,10)            143.5727         calculate D2E/DX2 analytically  !
 ! D1    D(2,1,8,3)             97.6883         calculate D2E/DX2 analytically  !
 ! D2    D(10,1,8,3)          -105.1014         calculate D2E/DX2 analytically  !
 ! D3    D(2,1,10,11)          170.844          calculate D2E/DX2 analytically  !
 ! D4    D(8,1,10,11)           26.8737         calculate D2E/DX2 analytically  !
 ! D5    D(8,3,4,5)             73.5147         calculate D2E/DX2 analytically  !
 ! D6    D(8,3,4,6)           -164.8777         calculate D2E/DX2 analytically  !
 ! D7    D(8,3,4,7)            -47.4714         calculate D2E/DX2 analytically  !
 ! D8    D(9,3,4,5)            -50.2103         calculate D2E/DX2 analytically  !
 ! D9    D(9,3,4,6)             71.3974         calculate D2E/DX2 analytically  !
 ! D10   D(9,3,4,7)           -171.1963         calculate D2E/DX2 analytically  !
 ! D11   D(4,3,8,1)            116.5359         calculate D2E/DX2 analytically  !
 ! D12   D(9,3,8,1)           -104.5622         calculate D2E/DX2 analytically  !
 ! D13   D(3,4,7,11)            -5.2967         calculate D2E/DX2 analytically  !
 ! D14   D(5,4,7,11)          -135.7432         calculate D2E/DX2 analytically  !
 ! D15   D(6,4,7,11)           118.7788         calculate D2E/DX2 analytically  !
 ! D16   D(4,7,11,10)          -37.4118         calculate D2E/DX2 analytically  !
 ! D17   D(1,10,11,7)           49.6485         calculate D2E/DX2 analytically  !
 --------------------------------------------------------------------------------
 Trust Radius=3.00D-01 FncErr=1.00D-07 GrdErr=1.00D-06 EigMax=2.50D+02 EigMin=1.00D-04
 Number of steps in this run=    100 maximum allowed number of steps=    100.
 Search for a saddle point of order  1.
 GradGradGradGradGradGradGradGradGradGradGradGradGradGradGradGradGradGrad

 Leave Link  103 at Sat May 24 02:05:11 2025, MaxMem=  3758096384 cpu:               0.0 elap:               0.0
 (Enter /apps/easybuild-2022/easybuild/software/Compiler/NVHPC/22.11-CUDA-11.7.0/Gaussian/g16c01-CUDA-11.7.0/g16/l202.exe)
                          Input orientation:                          
 ---------------------------------------------------------------------
 Center     Atomic      Atomic             Coordinates (Angstroms)
 Number     Number       Type             X           Y           Z
 ---------------------------------------------------------------------
      1          6           0        1.932706   -0.070820   -0.405297
      2          8           0        2.243058   -0.984916   -1.093436
      3          6           0       -0.097341   -0.396363    0.377604
      4          6           0       -0.605163    0.385511    1.382860
      5          9           0       -1.874201    0.875530    1.281432
      6          9           0       -0.625443   -0.218120    2.608577
      7          9           0        0.112460    1.518772    1.628325
      8          9           0        0.233790    0.613642   -0.910477
      9          9           0       -0.542924   -1.299373   -0.122039
     10          8           0        2.431293    0.996132    0.202776
     11          1           0        1.721261    1.551406    0.561772
 ---------------------------------------------------------------------
                    Distance matrix (angstroms):
                    1          2          3          4          5
     1  C    0.000000
     2  O    1.185506   0.000000
     3  C    2.200001   2.826273   0.000000
     4  C    3.137917   4.015280   1.371040   0.000000
     5  F    4.270032   5.104222   2.364709   1.364135   0.000000
     6  F    3.955915   4.745648   2.299544   1.366442   2.125272
     7  F    3.158436   4.268007   2.296968   1.363641   2.116818
     8  F    1.900003   2.574106   1.670003   2.452607   3.052323
     9  F    2.778187   2.967186   1.124106   2.259962   2.910710
    10  O    1.325416   2.374900   2.891988   3.314441   4.440194
    11  H    1.900407   3.073258   2.671149   2.728689   3.728547
                    6          7          8          9         10
     6  F    0.000000
     7  F    2.126544   0.000000
     8  F    3.716699   2.698054   0.000000
     9  F    2.938057   3.381604   2.210101   0.000000
    10  O    4.075036   2.771701   2.492920   3.771050   0.000000
    11  H    3.581571   1.930503   2.293357   3.704197   0.970233
                   11
    11  H    0.000000
 Symmetry turned off by external request.
 Stoichiometry    C3HF5O2
 Rotational constants (GHZ):           2.1658981           1.0095351           0.8739237
 Leave Link  202 at Sat May 24 02:05:11 2025, MaxMem=  3758096384 cpu:               0.1 elap:               0.0
 (Enter /apps/easybuild-2022/easybuild/software/Compiler/NVHPC/22.11-CUDA-11.7.0/Gaussian/g16c01-CUDA-11.7.0/g16/l301.exe)
 Standard basis: def2TZVPP (5D, 7F)
 Ernie: Thresh=  0.10000D-02 Tol=  0.10000D-05 Strict=F.
   324 basis functions,   527 primitive gaussians,   375 cartesian basis functions
    40 alpha electrons       40 beta electrons
       nuclear repulsion energy       620.8657279942 Hartrees.
 IExCor= 4336 DFT=T Ex+Corr=M062X ExCW=0 ScaHFX=  0.540000
 ScaDFX=  1.000000  1.000000  1.000000  1.000000 ScalE2=  1.000000  1.000000
 IRadAn=      5 IRanWt=     -1 IRanGd=            0 ICorTp=0 IEmpDi=  4
 NAtoms=   11 NActive=   11 NUniq=   11 SFac= 1.00D+00 NAtFMM=   60 NAOKFM=F Big=F
 Integral buffers will be    131072 words long.
 Raffenetti 2 integral format.
 Two-electron integral symmetry is turned off.
 Leave Link  301 at Sat May 24 02:05:11 2025, MaxMem=  3758096384 cpu:               0.1 elap:               0.0
 (Enter /apps/easybuild-2022/easybuild/software/Compiler/NVHPC/22.11-CUDA-11.7.0/Gaussian/g16c01-CUDA-11.7.0/g16/l302.exe)
 NPDir=0 NMtPBC=     1 NCelOv=     1 NCel=       1 NClECP=     1 NCelD=      1
         NCelK=      1 NCelE2=     1 NClLst=     1 CellRange=     0.0.
 One-electron integrals computed using PRISM.
   1 Symmetry operations used in ECPInt.
 ECPInt:  NShTT=    6786 NPrTT=   21959 LenC2=    6439 LenP2D=   15773.
 LDataN:  DoStor=T MaxTD1= 6 Len=  172
 NBasis=   324 RedAO= T EigKep=  1.69D-04  NBF=   324
 NBsUse=   324 1.00D-06 EigRej= -1.00D+00 NBFU=   324
 Precomputing XC quadrature grid using
 IXCGrd= 4 IRadAn=           5 IRanWt=          -1 IRanGd=           0 AccXCQ= 0.00D+00.
 Generated NRdTot=       0 NPtTot=           0 NUsed=           0 NTot=          32
 NSgBfM=   371   371   371   371   371 MxSgAt=    11 MxSgA2=    11.
 Leave Link  302 at Sat May 24 02:05:11 2025, MaxMem=  3758096384 cpu:               0.8 elap:               0.2
 (Enter /apps/easybuild-2022/easybuild/software/Compiler/NVHPC/22.11-CUDA-11.7.0/Gaussian/g16c01-CUDA-11.7.0/g16/l303.exe)
 DipDrv:  MaxL=1.
 Leave Link  303 at Sat May 24 02:05:11 2025, MaxMem=  3758096384 cpu:               0.1 elap:               0.0
 (Enter /apps/easybuild-2022/easybuild/software/Compiler/NVHPC/22.11-CUDA-11.7.0/Gaussian/g16c01-CUDA-11.7.0/g16/l401.exe)
 ExpMin= 9.52D-02 ExpMax= 3.55D+04 ExpMxC= 1.21D+03 IAcc=3 IRadAn=         5 AccDes= 0.00D+00
 Harris functional with IExCor= 1009 and IRadAn=       5 diagonalized for initial guess.
 HarFok:  IExCor= 1009 AccDes= 0.00D+00 IRadAn=         5 IDoV= 1 UseB2=F ITyADJ=14
 ICtDFT=  3500011 ScaDFX=  1.000000  1.000000  1.000000  1.000000
 FoFCou: FMM=F IPFlag=           0 FMFlag=      100000 FMFlg1=           0
         NFxFlg=           0 DoJE=T BraDBF=F KetDBF=T FulRan=T
         wScrn=  0.000000 ICntrl=       500 IOpCl=  0 I1Cent=   200000004 NGrid=           0
         NMat0=    1 NMatS0=      1 NMatT0=    0 NMatD0=    1 NMtDS0=    0 NMtDT0=    0
 Symmetry not used in FoFCou.
 Harris En= -764.004108498366    
 JPrj=0 DoOrth=F DoCkMO=F.
 Leave Link  401 at Sat May 24 02:05:12 2025, MaxMem=  3758096384 cpu:               2.6 elap:               0.4
 (Enter /apps/easybuild-2022/easybuild/software/Compiler/NVHPC/22.11-CUDA-11.7.0/Gaussian/g16c01-CUDA-11.7.0/g16/l502.exe)
 Keep R1 ints in memory in canonical form, NReq=1412617130.
 FoFCou: FMM=F IPFlag=           0 FMFlag=           0 FMFlg1=           0
         NFxFlg=           0 DoJE=F BraDBF=F KetDBF=F FulRan=T
         wScrn=  0.000000 ICntrl=       600 IOpCl=  0 I1Cent=           0 NGrid=           0
         NMat0=    1 NMatS0=  52650 NMatT0=    0 NMatD0=    1 NMtDS0=    0 NMtDT0=    0
 Symmetry not used in FoFCou.
 Two-electron integral symmetry not used.
 Closed shell SCF:
 Using DIIS extrapolation, IDIIS=  1040.
 NGot=  3758096384 LenX=  2371771924 LenY=  2371630858
 Requested convergence on RMS density matrix=1.00D-08 within  32 cycles.
 Requested convergence on MAX density matrix=1.00D-06.
 Requested convergence on             energy=1.00D-06.
 No special actions if energy rises.
 Integral accuracy reduced to 1.0D-05 until final iterations.

 Cycle   1  Pass 0  IDiag  1:
 E= -764.280422045797    
 DIIS: error= 2.03D-02 at cycle   1 NSaved=   1.
 NSaved= 1 IEnMin= 1 EnMin= -764.280422045797     IErMin= 1 ErrMin= 2.03D-02
 ErrMax= 2.03D-02  0.00D+00 EMaxC= 1.00D-01 BMatC= 3.35D-01 BMatP= 3.35D-01
 IDIUse=3 WtCom= 7.97D-01 WtEn= 2.03D-01
 Coeff-Com:  0.100D+01
 Coeff-En:   0.100D+01
 Coeff:      0.100D+01
 Gap=     0.259 Goal=   None    Shift=    0.000
 GapD=    0.259 DampG=1.000 DampE=0.500 DampFc=0.5000 IDamp=-1.
 Damping current iteration by 5.00D-01
 RMSDP=2.12D-03 MaxDP=1.00D-01              OVMax= 2.43D-01

 Cycle   2  Pass 0  IDiag  1:
 E= -764.331753789231     Delta-E=       -0.051331743435 Rises=F Damp=T
 DIIS: error= 6.17D-03 at cycle   2 NSaved=   2.
 NSaved= 2 IEnMin= 2 EnMin= -764.331753789231     IErMin= 2 ErrMin= 6.17D-03
 ErrMax= 6.17D-03  0.00D+00 EMaxC= 1.00D-01 BMatC= 4.72D-02 BMatP= 3.35D-01
 IDIUse=3 WtCom= 9.38D-01 WtEn= 6.17D-02
 Coeff-Com:  0.101D+00 0.899D+00
 Coeff-En:   0.301D+00 0.699D+00
 Coeff:      0.113D+00 0.887D+00
 Gap=     0.283 Goal=   None    Shift=    0.000
 RMSDP=7.39D-04 MaxDP=2.48D-02 DE=-5.13D-02 OVMax= 1.38D-01

 Cycle   3  Pass 0  IDiag  1:
 E= -764.432207776160     Delta-E=       -0.100453986929 Rises=F Damp=F
 DIIS: error= 5.26D-03 at cycle   3 NSaved=   3.
 NSaved= 3 IEnMin= 3 EnMin= -764.432207776160     IErMin= 3 ErrMin= 5.26D-03
 ErrMax= 5.26D-03  0.00D+00 EMaxC= 1.00D-01 BMatC= 1.91D-02 BMatP= 4.72D-02
 IDIUse=3 WtCom= 9.47D-01 WtEn= 5.26D-02
 Coeff-Com: -0.855D-01 0.365D+00 0.721D+00
 Coeff-En:   0.000D+00 0.000D+00 0.100D+01
 Coeff:     -0.810D-01 0.346D+00 0.735D+00
 Gap=     0.265 Goal=   None    Shift=    0.000
 RMSDP=3.63D-04 MaxDP=1.82D-02 DE=-1.00D-01 OVMax= 4.58D-02

 Cycle   4  Pass 0  IDiag  1:
 E= -764.443105023707     Delta-E=       -0.010897247547 Rises=F Damp=F
 DIIS: error= 3.22D-03 at cycle   4 NSaved=   4.
 NSaved= 4 IEnMin= 4 EnMin= -764.443105023707     IErMin= 4 ErrMin= 3.22D-03
 ErrMax= 3.22D-03  0.00D+00 EMaxC= 1.00D-01 BMatC= 5.00D-03 BMatP= 1.91D-02
 IDIUse=3 WtCom= 9.68D-01 WtEn= 3.22D-02
 Coeff-Com: -0.542D-01 0.110D+00 0.416D+00 0.529D+00
 Coeff-En:   0.000D+00 0.000D+00 0.173D+00 0.827D+00
 Coeff:     -0.525D-01 0.107D+00 0.408D+00 0.538D+00
 Gap=     0.265 Goal=   None    Shift=    0.000
 RMSDP=1.13D-04 MaxDP=6.30D-03 DE=-1.09D-02 OVMax= 1.69D-02

 Cycle   5  Pass 0  IDiag  1:
 E= -764.446266850211     Delta-E=       -0.003161826504 Rises=F Damp=F
 DIIS: error= 4.86D-04 at cycle   5 NSaved=   5.
 NSaved= 5 IEnMin= 5 EnMin= -764.446266850211     IErMin= 5 ErrMin= 4.86D-04
 ErrMax= 4.86D-04  0.00D+00 EMaxC= 1.00D-01 BMatC= 1.64D-04 BMatP= 5.00D-03
 IDIUse=3 WtCom= 9.95D-01 WtEn= 4.86D-03
 Coeff-Com: -0.189D-01 0.306D-01 0.144D+00 0.249D+00 0.595D+00
 Coeff-En:   0.000D+00 0.000D+00 0.000D+00 0.000D+00 0.100D+01
 Coeff:     -0.188D-01 0.305D-01 0.144D+00 0.247D+00 0.597D+00
 Gap=     0.264 Goal=   None    Shift=    0.000
 RMSDP=3.64D-05 MaxDP=2.93D-03 DE=-3.16D-03 OVMax= 3.71D-03

 Cycle   6  Pass 0  IDiag  1:
 E= -764.446380855784     Delta-E=       -0.000114005574 Rises=F Damp=F
 DIIS: error= 1.90D-04 at cycle   6 NSaved=   6.
 NSaved= 6 IEnMin= 6 EnMin= -764.446380855784     IErMin= 6 ErrMin= 1.90D-04
 ErrMax= 1.90D-04  0.00D+00 EMaxC= 1.00D-01 BMatC= 1.51D-05 BMatP= 1.64D-04
 IDIUse=3 WtCom= 9.98D-01 WtEn= 1.90D-03
 Coeff-Com: -0.359D-02 0.427D-02 0.217D-01 0.534D-01 0.265D+00 0.660D+00
 Coeff-En:   0.000D+00 0.000D+00 0.000D+00 0.000D+00 0.000D+00 0.100D+01
 Coeff:     -0.359D-02 0.426D-02 0.217D-01 0.533D-01 0.264D+00 0.660D+00
 Gap=     0.265 Goal=   None    Shift=    0.000
 RMSDP=1.34D-05 MaxDP=5.80D-04 DE=-1.14D-04 OVMax= 2.39D-03

 Cycle   7  Pass 0  IDiag  1:
 E= -764.446392780793     Delta-E=       -0.000011925009 Rises=F Damp=F
 DIIS: error= 9.08D-05 at cycle   7 NSaved=   7.
 NSaved= 7 IEnMin= 7 EnMin= -764.446392780793     IErMin= 7 ErrMin= 9.08D-05
 ErrMax= 9.08D-05  0.00D+00 EMaxC= 1.00D-01 BMatC= 3.33D-06 BMatP= 1.51D-05
 IDIUse=1 WtCom= 1.00D+00 WtEn= 0.00D+00
 Coeff-Com:  0.119D-02-0.286D-02-0.143D-01-0.172D-01 0.314D-01 0.350D+00
 Coeff-Com:  0.651D+00
 Coeff:      0.119D-02-0.286D-02-0.143D-01-0.172D-01 0.314D-01 0.350D+00
 Coeff:      0.651D+00
 Gap=     0.265 Goal=   None    Shift=    0.000
 RMSDP=4.62D-06 MaxDP=1.70D-04 DE=-1.19D-05 OVMax= 3.74D-04

 Initial convergence to 1.0D-05 achieved.  Increase integral accuracy.
 Cycle   8  Pass 1  IDiag  1:
 E= -764.446397764649     Delta-E=       -0.000004983856 Rises=F Damp=F
 DIIS: error= 2.59D-05 at cycle   1 NSaved=   1.
 NSaved= 1 IEnMin= 1 EnMin= -764.446397764649     IErMin= 1 ErrMin= 2.59D-05
 ErrMax= 2.59D-05  0.00D+00 EMaxC= 1.00D-01 BMatC= 6.63D-07 BMatP= 6.63D-07
 IDIUse=1 WtCom= 1.00D+00 WtEn= 0.00D+00
 Coeff-Com:  0.100D+01
 Coeff:      0.100D+01
 Gap=     0.265 Goal=   None    Shift=    0.000
 RMSDP=4.62D-06 MaxDP=1.70D-04 DE=-4.98D-06 OVMax= 3.67D-04

 Cycle   9  Pass 1  IDiag  1:
 E= -764.446398269685     Delta-E=       -0.000000505036 Rises=F Damp=F
 DIIS: error= 2.47D-05 at cycle   2 NSaved=   2.
 NSaved= 2 IEnMin= 2 EnMin= -764.446398269685     IErMin= 2 ErrMin= 2.47D-05
 ErrMax= 2.47D-05  0.00D+00 EMaxC= 1.00D-01 BMatC= 2.63D-07 BMatP= 6.63D-07
 IDIUse=1 WtCom= 1.00D+00 WtEn= 0.00D+00
 Coeff-Com:  0.335D+00 0.665D+00
 Coeff:      0.335D+00 0.665D+00
 Gap=     0.265 Goal=   None    Shift=    0.000
 RMSDP=1.62D-06 MaxDP=6.18D-05 DE=-5.05D-07 OVMax= 1.43D-04

 Cycle  10  Pass 1  IDiag  1:
 E= -764.446398411803     Delta-E=       -0.000000142118 Rises=F Damp=F
 DIIS: error= 1.83D-05 at cycle   3 NSaved=   3.
 NSaved= 3 IEnMin= 3 EnMin= -764.446398411803     IErMin= 3 ErrMin= 1.83D-05
 ErrMax= 1.83D-05  0.00D+00 EMaxC= 1.00D-01 BMatC= 8.66D-08 BMatP= 2.63D-07
 IDIUse=1 WtCom= 1.00D+00 WtEn= 0.00D+00
 Coeff-Com: -0.272D-01 0.354D+00 0.674D+00
 Coeff:     -0.272D-01 0.354D+00 0.674D+00
 Gap=     0.265 Goal=   None    Shift=    0.000
 RMSDP=8.33D-07 MaxDP=3.15D-05 DE=-1.42D-07 OVMax= 1.13D-04

 Cycle  11  Pass 1  IDiag  1:
 E= -764.446398475248     Delta-E=       -0.000000063445 Rises=F Damp=F
 DIIS: error= 3.28D-06 at cycle   4 NSaved=   4.
 NSaved= 4 IEnMin= 4 EnMin= -764.446398475248     IErMin= 4 ErrMin= 3.28D-06
 ErrMax= 3.28D-06  0.00D+00 EMaxC= 1.00D-01 BMatC= 6.67D-09 BMatP= 8.66D-08
 IDIUse=1 WtCom= 1.00D+00 WtEn= 0.00D+00
 Coeff-Com: -0.345D-01 0.113D+00 0.305D+00 0.616D+00
 Coeff:     -0.345D-01 0.113D+00 0.305D+00 0.616D+00
 Gap=     0.265 Goal=   None    Shift=    0.000
 RMSDP=2.40D-07 MaxDP=8.50D-06 DE=-6.34D-08 OVMax= 3.13D-05

 Cycle  12  Pass 1  IDiag  1:
 E= -764.446398482348     Delta-E=       -0.000000007100 Rises=F Damp=F
 DIIS: error= 1.12D-06 at cycle   5 NSaved=   5.
 NSaved= 5 IEnMin= 5 EnMin= -764.446398482348     IErMin= 5 ErrMin= 1.12D-06
 ErrMax= 1.12D-06  0.00D+00 EMaxC= 1.00D-01 BMatC= 9.32D-10 BMatP= 6.67D-09
 IDIUse=1 WtCom= 1.00D+00 WtEn= 0.00D+00
 Coeff-Com: -0.185D-02-0.590D-01-0.751D-01 0.196D+00 0.940D+00
 Coeff:     -0.185D-02-0.590D-01-0.751D-01 0.196D+00 0.940D+00
 Gap=     0.265 Goal=   None    Shift=    0.000
 RMSDP=2.55D-07 MaxDP=8.47D-06 DE=-7.10D-09 OVMax= 5.21D-05

 Cycle  13  Pass 1  IDiag  1:
 E= -764.446398484823     Delta-E=       -0.000000002475 Rises=F Damp=F
 DIIS: error= 8.57D-07 at cycle   6 NSaved=   6.
 NSaved= 6 IEnMin= 6 EnMin= -764.446398484823     IErMin= 6 ErrMin= 8.57D-07
 ErrMax= 8.57D-07  0.00D+00 EMaxC= 1.00D-01 BMatC= 4.74D-10 BMatP= 9.32D-10
 IDIUse=1 WtCom= 1.00D+00 WtEn= 0.00D+00
 Coeff-Com:  0.535D-02-0.585D-01-0.998D-01-0.288D-01 0.552D+00 0.630D+00
 Coeff:      0.535D-02-0.585D-01-0.998D-01-0.288D-01 0.552D+00 0.630D+00
 Gap=     0.265 Goal=   None    Shift=    0.000
 RMSDP=9.59D-08 MaxDP=2.72D-06 DE=-2.48D-09 OVMax= 1.60D-05

 Cycle  14  Pass 1  IDiag  1:
 E= -764.446398485416     Delta-E=       -0.000000000593 Rises=F Damp=F
 DIIS: error= 2.38D-07 at cycle   7 NSaved=   7.
 NSaved= 7 IEnMin= 7 EnMin= -764.446398485416     IErMin= 7 ErrMin= 2.38D-07
 ErrMax= 2.38D-07  0.00D+00 EMaxC= 1.00D-01 BMatC= 3.15D-11 BMatP= 4.74D-10
 IDIUse=1 WtCom= 1.00D+00 WtEn= 0.00D+00
 Coeff-Com:  0.233D-02-0.162D-01-0.277D-01-0.481D-01 0.930D-01 0.192D+00
 Coeff-Com:  0.805D+00
 Coeff:      0.233D-02-0.162D-01-0.277D-01-0.481D-01 0.930D-01 0.192D+00
 Coeff:      0.805D+00
 Gap=     0.265 Goal=   None    Shift=    0.000
 RMSDP=3.98D-08 MaxDP=1.15D-06 DE=-5.93D-10 OVMax= 6.81D-06

 Cycle  15  Pass 1  IDiag  1:
 E= -764.446398485470     Delta-E=       -0.000000000054 Rises=F Damp=F
 DIIS: error= 1.24D-07 at cycle   8 NSaved=   8.
 NSaved= 8 IEnMin= 8 EnMin= -764.446398485470     IErMin= 8 ErrMin= 1.24D-07
 ErrMax= 1.24D-07  0.00D+00 EMaxC= 1.00D-01 BMatC= 9.40D-12 BMatP= 3.15D-11
 IDIUse=1 WtCom= 1.00D+00 WtEn= 0.00D+00
 Coeff-Com:  0.152D-03 0.337D-02 0.678D-02-0.166D-01-0.521D-01-0.404D-01
 Coeff-Com:  0.405D+00 0.694D+00
 Coeff:      0.152D-03 0.337D-02 0.678D-02-0.166D-01-0.521D-01-0.404D-01
 Coeff:      0.405D+00 0.694D+00
 Gap=     0.265 Goal=   None    Shift=    0.000
 RMSDP=1.61D-08 MaxDP=4.42D-07 DE=-5.37D-11 OVMax= 3.09D-06

 Cycle  16  Pass 1  IDiag  1:
 E= -764.446398485528     Delta-E=       -0.000000000059 Rises=F Damp=F
 DIIS: error= 3.98D-08 at cycle   9 NSaved=   9.
 NSaved= 9 IEnMin= 9 EnMin= -764.446398485528     IErMin= 9 ErrMin= 3.98D-08
 ErrMax= 3.98D-08  0.00D+00 EMaxC= 1.00D-01 BMatC= 1.51D-12 BMatP= 9.40D-12
 IDIUse=1 WtCom= 1.00D+00 WtEn= 0.00D+00
 Coeff-Com: -0.365D-03 0.454D-02 0.848D-02 0.113D-02-0.422D-01-0.585D-01
 Coeff-Com:  0.432D-01 0.313D+00 0.731D+00
 Coeff:     -0.365D-03 0.454D-02 0.848D-02 0.113D-02-0.422D-01-0.585D-01
 Coeff:      0.432D-01 0.313D+00 0.731D+00
 Gap=     0.265 Goal=   None    Shift=    0.000
 RMSDP=6.36D-09 MaxDP=1.93D-07 DE=-5.87D-11 OVMax= 1.15D-06

 SCF Done:  E(RM062X) =  -764.446398486     A.U. after   16 cycles
            NFock= 16  Conv=0.64D-08     -V/T= 2.0033
 KE= 7.619697000327D+02 PE=-3.053728477197D+03 EE= 9.064466506844D+02
 Leave Link  502 at Sat May 24 02:05:38 2025, MaxMem=  3758096384 cpu:             103.3 elap:              26.0
 (Enter /apps/easybuild-2022/easybuild/software/Compiler/NVHPC/22.11-CUDA-11.7.0/Gaussian/g16c01-CUDA-11.7.0/g16/l508.exe)
 QCSCF skips out because SCF is already converged.
 Leave Link  508 at Sat May 24 02:05:38 2025, MaxMem=  3758096384 cpu:               0.0 elap:               0.0
 (Enter /apps/easybuild-2022/easybuild/software/Compiler/NVHPC/22.11-CUDA-11.7.0/Gaussian/g16c01-CUDA-11.7.0/g16/l801.exe)
 DoSCS=F DFT=T ScalE2(SS,OS)=  1.000000  1.000000
 Range of M.O.s used for correlation:     1   324
 NBasis=   324 NAE=    40 NBE=    40 NFC=     0 NFV=     0
 NROrb=    324 NOA=    40 NOB=    40 NVA=   284 NVB=   284

 **** Warning!!: The largest alpha MO coefficient is  0.15632222D+02

 Leave Link  801 at Sat May 24 02:05:38 2025, MaxMem=  3758096384 cpu:               0.1 elap:               0.0
 (Enter /apps/easybuild-2022/easybuild/software/Compiler/NVHPC/22.11-CUDA-11.7.0/Gaussian/g16c01-CUDA-11.7.0/g16/l1101.exe)
 Using compressed storage, NAtomX=    11.
 Will process     12 centers per pass.
   1 Symmetry operations used in ECPInt.
 ECPInt:  NShTT=    6786 NPrTT=   21959 LenC2=    6439 LenP2D=   15773.
 LDataN:  DoStor=T MaxTD1= 7 Len=  274
 Leave Link 1101 at Sat May 24 02:05:38 2025, MaxMem=  3758096384 cpu:               1.0 elap:               0.2
 (Enter /apps/easybuild-2022/easybuild/software/Compiler/NVHPC/22.11-CUDA-11.7.0/Gaussian/g16c01-CUDA-11.7.0/g16/l1102.exe)
 Symmetrizing basis deriv contribution to polar:
 IMax=3 JMax=2 DiffMx= 0.00D+00
 Leave Link 1102 at Sat May 24 02:05:38 2025, MaxMem=  3758096384 cpu:               0.1 elap:               0.0
 (Enter /apps/easybuild-2022/easybuild/software/Compiler/NVHPC/22.11-CUDA-11.7.0/Gaussian/g16c01-CUDA-11.7.0/g16/l1110.exe)
 Forming Gx(P) for the SCF density, NAtomX=    11.
 Integral derivatives from FoFJK, PRISM(SPDF).
 Do as many integral derivatives as possible in FoFJK.
 G2DrvN: MDV=    3758095115.
 G2DrvN: will do    12 centers at a time, making    1 passes.
 Calling FoFCou, ICntrl=  3107 FMM=F I1Cent=   0 AccDes= 0.00D+00.
 FoFJK:  IHMeth= 1 ICntrl=    3107 DoSepK=F KAlg= 0 I1Cent=           0 FoldK=F
 IRaf=         0 NMat=       1 IRICut=       1 DoRegI=T DoRafI=F ISym2E= 0 IDoP0=0 IntGTp=1.
 FoFCou: FMM=F IPFlag=           0 FMFlag=      100000 FMFlg1=           0
         NFxFlg=           0 DoJE=F BraDBF=F KetDBF=F FulRan=T
         wScrn=  0.000000 ICntrl=      3107 IOpCl=  0 I1Cent=           0 NGrid=           0
         NMat0=    1 NMatS0=      1 NMatT0=    0 NMatD0=    1 NMtDS0=    0 NMtDT0=    0
 Symmetry not used in FoFCou.
 End of G2Drv F.D. properties file   721 does not exist.
 End of G2Drv F.D. properties file   722 does not exist.
 End of G2Drv F.D. properties file   788 does not exist.
 Leave Link 1110 at Sat May 24 02:06:09 2025, MaxMem=  3758096384 cpu:             241.9 elap:              30.6
 (Enter /apps/easybuild-2022/easybuild/software/Compiler/NVHPC/22.11-CUDA-11.7.0/Gaussian/g16c01-CUDA-11.7.0/g16/l1002.exe)
 Minotr:  Closed shell wavefunction.
          IDoAtm=11111111111
          Direct CPHF calculation.
          Differentiating once with respect to electric field.
                with respect to dipole field.
          Differentiating once with respect to nuclear coordinates.
          Requested convergence is 1.0D-08 RMS, and 1.0D-07 maximum.
          Secondary convergence is 1.0D-12 RMS, and 1.0D-12 maximum.
          NewPWx=T KeepS1=F KeepF1=F KeepIn=T MapXYZ=F SortEE=F KeepMc=T.
         3307 words used for storage of precomputed grid.
 Keep R1 ints in memory in canonical form, NReq=1412622537.
 FoFCou: FMM=F IPFlag=           0 FMFlag=           0 FMFlg1=           0
         NFxFlg=           0 DoJE=F BraDBF=F KetDBF=F FulRan=T
         wScrn=  0.000000 ICntrl=       600 IOpCl=  0 I1Cent=           0 NGrid=           0
         NMat0=    1 NMatS0=  52650 NMatT0=    0 NMatD0=    1 NMtDS0=    0 NMtDT0=    0
 Symmetry not used in FoFCou.
 Two-electron integral symmetry not used.
          MDV=    3758096384 using IRadAn=       1.
          Solving linear equations simultaneously, MaxMat=       0.
          There are    36 degrees of freedom in the 1st order CPHF.  IDoFFX=6 NUNeed=     3.
     33 vectors produced by pass  0 Test12= 3.16D-14 2.78D-09 XBig12= 4.37D+01 4.80D+00.
 AX will form    33 AO Fock derivatives at one time.
     33 vectors produced by pass  1 Test12= 3.16D-14 2.78D-09 XBig12= 5.83D+00 5.47D-01.
     33 vectors produced by pass  2 Test12= 3.16D-14 2.78D-09 XBig12= 2.52D-01 9.25D-02.
     33 vectors produced by pass  3 Test12= 3.16D-14 2.78D-09 XBig12= 5.65D-03 1.21D-02.
     33 vectors produced by pass  4 Test12= 3.16D-14 2.78D-09 XBig12= 8.45D-05 1.53D-03.
     33 vectors produced by pass  5 Test12= 3.16D-14 2.78D-09 XBig12= 8.26D-07 1.35D-04.
     33 vectors produced by pass  6 Test12= 3.16D-14 2.78D-09 XBig12= 4.94D-09 1.21D-05.
     16 vectors produced by pass  7 Test12= 3.16D-14 2.78D-09 XBig12= 2.48D-11 4.58D-07.
      3 vectors produced by pass  8 Test12= 3.16D-14 2.78D-09 XBig12= 1.30D-13 3.36D-08.
 InvSVY:  IOpt=1 It=  1 EMax= 3.55D-15
 Solved reduced A of dimension   250 with    36 vectors.
 FullF1:  Do perturbations      1 to       3.
 Isotropic polarizability for W=    0.000000       55.10 Bohr**3.
 End of Minotr F.D. properties file   721 does not exist.
 End of Minotr F.D. properties file   722 does not exist.
 End of Minotr F.D. properties file   788 does not exist.
 Leave Link 1002 at Sat May 24 02:07:01 2025, MaxMem=  3758096384 cpu:             406.7 elap:              52.1
 (Enter /apps/easybuild-2022/easybuild/software/Compiler/NVHPC/22.11-CUDA-11.7.0/Gaussian/g16c01-CUDA-11.7.0/g16/l701.exe)
 ... and contract with generalized density number  0.
 Compute integral second derivatives.
   1 Symmetry operations used in ECPInt.
 ECPInt:  NShTT=    6786 NPrTT=   21959 LenC2=    6439 LenP2D=   15773.
 LDataN:  DoStor=T MaxTD1= 8 Len=  415
 Leave Link  701 at Sat May 24 02:07:01 2025, MaxMem=  3758096384 cpu:               0.9 elap:               0.2
 (Enter /apps/easybuild-2022/easybuild/software/Compiler/NVHPC/22.11-CUDA-11.7.0/Gaussian/g16c01-CUDA-11.7.0/g16/l702.exe)
 L702 exits ... SP integral derivatives will be done elsewhere.
 Leave Link  702 at Sat May 24 02:07:01 2025, MaxMem=  3758096384 cpu:               0.1 elap:               0.0
 (Enter /apps/easybuild-2022/easybuild/software/Compiler/NVHPC/22.11-CUDA-11.7.0/Gaussian/g16c01-CUDA-11.7.0/g16/l703.exe)
 Integral derivatives from FoFJK, PRISM(SPDF).
 Compute integral second derivatives, UseDBF=F ICtDFT=           0.
 Calling FoFJK, ICntrl=    100127 FMM=F ISym2X=0 I1Cent= 0 IOpClX= 0 NMat=1 NMatS=1 NMatT=0.
 FoFJK:  IHMeth= 1 ICntrl=  100127 DoSepK=F KAlg= 0 I1Cent=           0 FoldK=F
 IRaf=         0 NMat=       1 IRICut=       1 DoRegI=T DoRafI=F ISym2E= 0 IDoP0=0 IntGTp=1.
 FoFCou: FMM=F IPFlag=           0 FMFlag=      100000 FMFlg1=         800
         NFxFlg=           0 DoJE=F BraDBF=F KetDBF=F FulRan=T
         wScrn=  0.000000 ICntrl=    100127 IOpCl=  0 I1Cent=           0 NGrid=           0
         NMat0=    1 NMatS0=      1 NMatT0=    0 NMatD0=    1 NMtDS0=    0 NMtDT0=    0
 Symmetry not used in FoFCou.
 Leave Link  703 at Sat May 24 02:08:10 2025, MaxMem=  3758096384 cpu:             552.2 elap:              69.5
 (Enter /apps/easybuild-2022/easybuild/software/Compiler/NVHPC/22.11-CUDA-11.7.0/Gaussian/g16c01-CUDA-11.7.0/g16/l716.exe)
 Dipole        = 1.75262858D-01 1.12399721D-01 2.13765530D-01
 Polarizability= 6.70274702D+01 1.00570475D-01 4.66524228D+01
                -1.53501186D+01 3.76702889D+00 5.16326562D+01
 -------------------------------------------------------------------
 Center     Atomic                   Forces (Hartrees/Bohr)
 Number     Number              X              Y              Z
 -------------------------------------------------------------------
      1        6          -0.012261161   -0.040429684    0.023810897
      2        8          -0.007665863    0.059492855    0.035294288
      3        6           0.244128133    0.185940175    0.013099258
      4        6          -0.068534397    0.085399740    0.114217734
      5        9           0.000345392   -0.008990637   -0.014801429
      6        9           0.006773629   -0.014205827   -0.027215424
      7        9           0.010175154   -0.008297608   -0.019311152
      8        9          -0.032050507    0.004511934    0.016430864
      9        9          -0.135312576   -0.226754791   -0.111763958
     10        8          -0.001919155   -0.032921754   -0.030870690
     11        1          -0.003678648   -0.003744403    0.001109613
 -------------------------------------------------------------------
 Cartesian Forces:  Max     0.244128133 RMS     0.080531257
 Force constants in Cartesian coordinates: 
                1             2             3             4             5 
      1  0.192990D+00
      2 -0.810961D-01  0.782517D+00
      3 -0.482692D-01  0.468110D+00  0.430245D+00
      4 -0.126733D+00  0.148540D+00  0.993883D-01  0.138121D+00
      5  0.112774D+00 -0.499522D+00 -0.302265D+00 -0.147431D+00  0.537497D+00
      6  0.916304D-01 -0.327709D+00 -0.311751D+00 -0.114399D+00  0.352548D+00
      7  0.550720D-02  0.270142D-01 -0.150870D-01 -0.122226D-01 -0.448170D-02
      8 -0.482500D-01 -0.599088D-03 -0.122017D-01  0.220401D-01 -0.123059D-01
      9 -0.426862D-01 -0.658939D-01  0.968799D-01  0.397530D-01 -0.180006D-01
     10 -0.970695D-02  0.618620D-02  0.138884D-01  0.210814D-02 -0.293330D-02
     11  0.375158D-01  0.263927D-01 -0.237064D-01 -0.142574D-01  0.270803D-02
     12  0.439861D-01  0.236233D-01 -0.367762D-01 -0.197822D-01  0.883277D-02
     13  0.147348D-01  0.889753D-02 -0.181568D-01 -0.720487D-02  0.376316D-02
     14 -0.128259D-01 -0.999714D-02  0.135128D-01  0.605445D-02 -0.213049D-02
     15 -0.102268D-01 -0.647466D-02  0.820619D-02  0.483213D-02 -0.192303D-02
     16  0.416551D-02 -0.310317D-03 -0.273214D-02 -0.119305D-02  0.988723D-03
     17 -0.184422D-02 -0.176353D-02 -0.101325D-02  0.162715D-03  0.629547D-03
     18 -0.101859D-01  0.861154D-03  0.285684D-02  0.333919D-02 -0.251682D-02
     19 -0.105052D-01 -0.983364D-02 -0.805576D-03  0.254981D-02  0.195819D-02
     20 -0.151418D-01 -0.126987D-01  0.853628D-02  0.582745D-02 -0.421360D-03
     21 -0.244361D-02  0.134738D-02  0.192453D-02  0.115113D-02 -0.132311D-02
     22  0.920384D-02 -0.382362D-01  0.471477D-01 -0.741497D-02  0.166497D-01
     23  0.165136D-01 -0.221710D-01  0.638667D-02  0.852634D-02 -0.243400D-02
     24 -0.289012D-01  0.181827D-01 -0.381414D-01  0.602761D-02 -0.446890D-02
     25  0.139792D-01 -0.158737D-01 -0.343236D-01 -0.139057D-02  0.132762D-01
     26  0.275890D-01 -0.647870D-02 -0.252865D-01 -0.104708D-01  0.131533D-01
     27  0.220230D-01  0.506237D-02 -0.301081D-01 -0.108785D-01  0.997021D-02
     28 -0.127020D+00 -0.377634D-01 -0.277760D-01  0.201883D-01  0.110436D-01
     29 -0.528297D-01 -0.217837D+00 -0.114090D+00 -0.174058D-01 -0.398657D-01
     30 -0.193485D-01 -0.916672D-01 -0.107470D+00 -0.102902D-01 -0.403206D-01
     31  0.333860D-01 -0.752424D-02 -0.132740D-01 -0.680808D-02 -0.560736D-02
     32  0.175954D-01 -0.378433D-01 -0.179825D-01 -0.158569D-02  0.269157D-02
     33  0.442198D-02 -0.254421D-01 -0.158656D-01  0.858467D-03 -0.533067D-03
                6             7             8             9            10 
      6  0.330060D+00
      7  0.867730D-02  0.303819D+00
      8 -0.188378D-01  0.377809D+00  0.101488D+01
      9 -0.532164D-01  0.192280D+00  0.777696D+00  0.543511D+00
     10 -0.367240D-02 -0.521382D-01  0.578913D-01  0.131075D+00  0.431422D+00
     11  0.141331D-01  0.336200D-01 -0.148766D+00 -0.175515D+00 -0.423328D-01
     12  0.220249D-01  0.541141D-01 -0.176924D+00 -0.245860D+00 -0.926654D-01
     13  0.935912D-02 -0.627781D-01  0.187135D-01  0.865865D-02 -0.175668D+00
     14 -0.725235D-02  0.532495D-01 -0.699384D-02 -0.961520D-02  0.487978D-01
     15 -0.512063D-02  0.363888D-01 -0.107876D-01  0.105197D-02  0.102050D-02
     16  0.134822D-02 -0.207592D-02  0.122225D-02  0.159173D-01 -0.725372D-01
     17  0.379396D-03 -0.476880D-02  0.836141D-02 -0.546606D-03  0.308298D-02
     18 -0.301454D-02  0.103201D-01  0.161347D-01 -0.396700D-01  0.787549D-02
     19 -0.296232D-03  0.333811D-02 -0.145264D-02 -0.990916D-03 -0.104704D+00
     20 -0.525590D-02 -0.721193D-02 -0.503678D-01 -0.198762D-01 -0.626486D-01
     21 -0.150478D-02 -0.149300D-01 -0.261223D-01 -0.154035D-02 -0.108925D-01
     22 -0.109617D-01 -0.684816D-02  0.539202D-01 -0.106623D+00 -0.999089D-02
     23 -0.382561D-03  0.348629D-03 -0.333712D-03  0.157411D-01  0.117830D-01
     24  0.148771D-01 -0.899510D-02 -0.427016D-01 -0.578185D-01 -0.209961D-01
     25  0.984787D-02 -0.171486D+00 -0.481016D+00 -0.262908D+00 -0.298321D-02
     26  0.162020D-01 -0.470364D+00 -0.801729D+00 -0.532927D+00 -0.130973D-01
     27  0.151366D-01 -0.263661D+00 -0.509563D+00 -0.236842D+00 -0.257416D-01
     28  0.879176D-02 -0.166352D-02 -0.290341D-03  0.187261D-01  0.234424D-02
     29 -0.225596D-01 -0.351237D-02 -0.498589D-03  0.340667D-01 -0.331850D-02
     30 -0.108880D-01  0.200228D-03  0.956459D-02 -0.576645D-02 -0.497229D-02
     31 -0.325484D-03 -0.345247D-02 -0.587552D-03  0.679809D-02 -0.814669D-02
     32 -0.126573D-02 -0.170239D-02 -0.164846D-02 -0.512949D-02 -0.341083D-02
     33  0.339667D-02  0.692831D-03 -0.625788D-02 -0.728782D-03  0.508047D-02
               11            12            13            14            15 
     11  0.563150D+00
     12  0.185160D+00  0.637965D+00
     13  0.487319D-01 -0.167174D-02  0.321075D+00
     14 -0.887330D-01 -0.171312D-02 -0.784695D-01  0.103402D+00
     15 -0.368646D-02 -0.696197D-01  0.439011D-01 -0.198144D-01  0.799834D-01
     16 -0.427440D-02  0.302494D-02 -0.222998D-01  0.383407D-01 -0.512145D-01
     17 -0.966222D-01  0.426360D-01  0.291738D-01 -0.155672D-01  0.392592D-01
     18  0.446884D-01 -0.208360D+00 -0.347902D-01  0.320107D-01 -0.272070D-01
     19 -0.562503D-01 -0.145955D-01 -0.862420D-01 -0.450652D-01 -0.196188D-01
     20 -0.173611D+00 -0.300915D-01 -0.236846D-01  0.485653D-02 -0.554531D-02
     21 -0.380791D-01 -0.858260D-01 -0.162093D-01 -0.549208D-02  0.111388D-01
     22  0.415431D-03  0.315699D-01  0.131335D-01 -0.841188D-02 -0.628766D-02
     23 -0.193215D-01 -0.989474D-02 -0.742311D-02  0.566568D-02  0.258447D-02
     24  0.325328D-01 -0.820549D-02  0.569765D-02 -0.331456D-02  0.621594D-03
     25  0.229210D-01  0.162935D-01  0.103920D-01 -0.869702D-02 -0.405744D-02
     26 -0.475379D-01 -0.248806D-01  0.502346D-02  0.373891D-02  0.200408D-02
     27 -0.410880D-01 -0.101773D-01  0.253941D-02  0.318947D-02  0.192448D-02
     28 -0.918529D-02 -0.145954D-01 -0.550002D-02  0.423987D-02  0.340688D-02
     29 -0.248264D-01 -0.229157D-01 -0.651105D-02  0.782721D-02  0.570818D-02
     30 -0.714311D-02 -0.262723D-02  0.168758D-02  0.546995D-03  0.854899D-03
     31 -0.169040D-01 -0.567821D-02  0.356973D-03  0.278719D-02  0.185591D-02
     32  0.716641D-02  0.616753D-02  0.178494D-02 -0.206870D-02 -0.132445D-02
     33  0.127039D-01  0.746284D-02 -0.101542D-02 -0.205826D-02 -0.183404D-02
               16            17            18            19            20 
     16  0.909730D-01
     17 -0.275874D-02  0.156920D+00
     18  0.319772D-02 -0.129527D+00  0.285276D+00
     19  0.103447D-02 -0.298202D-01  0.166782D-01  0.188170D+00
     20 -0.306032D-01 -0.575084D-01  0.363247D-01  0.124695D+00  0.270774D+00
     21  0.236027D-01  0.502848D-01 -0.318921D-02  0.124439D-01  0.284123D-01
     22  0.172597D-02  0.198107D-02  0.451074D-02  0.886898D-03 -0.388910D-02
     23 -0.328926D-02  0.218831D-02  0.817590D-03  0.236786D-02  0.767474D-02
     24  0.694374D-02 -0.370874D-02 -0.848410D-02 -0.106075D-02 -0.480491D-02
     25  0.640946D-03  0.222096D-02 -0.244899D-02  0.399229D-02 -0.330857D-03
     26  0.857147D-03  0.239065D-02 -0.495193D-03  0.269175D-02  0.488240D-02
     27 -0.167307D-03  0.269486D-02  0.171850D-02  0.338934D-02 -0.375012D-02
     28 -0.969082D-03 -0.550706D-04  0.285463D-02 -0.252245D-02  0.342699D-02
     29 -0.515174D-03  0.214220D-02  0.202857D-02  0.103736D-01  0.122235D-01
     30  0.234863D-03  0.134348D-02  0.532936D-03  0.876918D-02  0.387183D-02
     31  0.535151D-03  0.262549D-02 -0.135096D-02  0.400189D-02  0.956071D-02
     32  0.342278D-03 -0.117128D-02 -0.326359D-03  0.335544D-03 -0.580385D-02
     33 -0.155585D-03 -0.180172D-02 -0.458867D-03 -0.391288D-02 -0.782115D-02
               21            22            23            24            25 
     21  0.919854D-01
     22  0.969125D-04  0.903900D-02
     23 -0.392707D-02 -0.126535D-02  0.825001D-01
     24 -0.329730D-02  0.291144D-01 -0.245788D-01  0.758260D-01
     25  0.210756D-02  0.510457D-02 -0.223084D-01  0.186046D-01  0.157529D+00
     26 -0.243800D-02 -0.277207D-01 -0.648633D-01  0.373676D-01  0.499478D+00
     27 -0.449902D-02  0.317717D-01  0.144466D-01  0.239821D-01  0.251192D+00
     28  0.405644D-02 -0.107887D-01 -0.763123D-02 -0.596061D-02 -0.142190D-01
     29 -0.217178D-03  0.584574D-02  0.110960D-01 -0.500318D-02 -0.135313D-01
     30 -0.140994D-02 -0.214514D-01 -0.656705D-02  0.438261D-02  0.435496D-02
     31  0.101669D-02 -0.405104D-02  0.237788D-02 -0.474240D-03 -0.155974D-02
     32 -0.244558D-02  0.711082D-03 -0.141767D-05  0.497601D-03  0.386099D-02
     33 -0.378211D-02  0.111283D-02  0.537381D-02 -0.374261D-02  0.133716D-02
               26            27            28            29            30 
     26  0.904168D+00
     27  0.527382D+00  0.235351D+00
     28 -0.123189D-01 -0.934259D-02  0.437545D+00
     29 -0.107576D-01 -0.109847D-01 -0.122734D+00  0.424108D+00
     30  0.185048D-03  0.275735D-02 -0.956735D-01  0.232610D+00  0.188187D+00
     31 -0.166765D-02 -0.112464D-02 -0.297395D+00  0.204138D+00  0.136489D+00
     32  0.303396D-02  0.263982D-02  0.171267D+00 -0.163612D+00 -0.102424D+00
     33  0.288639D-02  0.756907D-03  0.115512D+00 -0.986429D-01 -0.685526D-01
               31            32            33 
     31  0.283133D+00
     32 -0.189199D+00  0.199257D+00
     33 -0.123932D+00  0.121593D+00  0.833481D-01
 FormGI is forming the generalized inverse of G from B-inverse, IUseBI=4.
 Leave Link  716 at Sat May 24 02:08:10 2025, MaxMem=  3758096384 cpu:               0.1 elap:               0.0
 (Enter /apps/easybuild-2022/easybuild/software/Compiler/NVHPC/22.11-CUDA-11.7.0/Gaussian/g16c01-CUDA-11.7.0/g16/l103.exe)

 GradGradGradGradGradGradGradGradGradGradGradGradGradGradGradGradGradGrad
 Berny optimization.
 Red2BG is reusing G-inverse.
 Internal  Forces:  Max     0.285468425 RMS     0.051350734
 Search for a saddle point.
 Step number   1 out of a maximum of  100
 All quantities printed in internal units (Hartrees-Bohrs-Radians)
 Swapping is turned off.
 Second derivative matrix not updated -- analytic derivatives used.
 ITU=  0
     Eigenvalues ---   -0.17260  -0.00940  -0.00037   0.00252   0.01222
     Eigenvalues ---    0.02071   0.02838   0.03712   0.05845   0.06941
     Eigenvalues ---    0.08506   0.09100   0.11738   0.15796   0.16554
     Eigenvalues ---    0.18956   0.20002   0.21077   0.22626   0.32650
     Eigenvalues ---    0.33125   0.39577   0.46617   0.51046   0.57730
     Eigenvalues ---    0.86455   1.44719
 Eigenvectors required to have negative eigenvalues:
                          A14       D2        R5        A16       R2
   1                   -0.60920  -0.31756  -0.27653  -0.25189   0.23549
                          A2        D13       A13       D4        D3
   1                   -0.20501  -0.19438  -0.18762   0.18742  -0.17268
 Eigenvalue     2 is  -9.40D-03 should be greater than     0.000000 Eigenvector:
                          R2        R5        R10       A16       D8
   1                   -0.51596   0.43231   0.29649  -0.27640   0.23983
                          A14       D9        D10       D17       D11
   1                   -0.22984   0.22302   0.21237   0.20663   0.20135
 Eigenvalue     3 is  -3.72D-04 should be greater than     0.000000 Eigenvector:
                          D16       D17       A16       D13       D15
   1                   -0.56422   0.37865  -0.30022   0.28055   0.27710
                          D14       D4        D3        D8        D10
   1                    0.27197  -0.18048  -0.17927  -0.17064  -0.16043
 RFO step:  Lambda0=4.837463311D-02 Lambda=-1.11070542D-01.
 Linear search not attempted -- option 19 set.
 Maximum step size (   0.300) exceeded in Quadratic search.
    -- Step size scaled by   0.347
 Iteration  1 RMS(Cart)=  0.06194519 RMS(Int)=  0.00489515
 Iteration  2 RMS(Cart)=  0.00473265 RMS(Int)=  0.00141035
 Iteration  3 RMS(Cart)=  0.00001148 RMS(Int)=  0.00141029
 Iteration  4 RMS(Cart)=  0.00000005 RMS(Int)=  0.00141029
 ITry= 1 IFail=0 DXMaxC= 1.58D-01 DCOld= 1.00D+10 DXMaxT= 3.00D-01 DXLimC= 3.00D+00 Rises=F
 Variable       Old X    -DE/DX   Delta X   Delta X   Delta X     New X
                                 (Linear)    (Quad)   (Total)
    R1        2.24028  -0.06837   0.00000  -0.02757  -0.02757   2.21272
    R2        3.59048  -0.00799   0.00000  -0.21996  -0.21930   3.37119
    R3        2.50467  -0.04133   0.00000  -0.03222  -0.03250   2.47218
    R4        2.59089   0.09411   0.00000   0.05561   0.05662   2.64751
    R5        3.15585  -0.04104   0.00000   0.12055   0.12106   3.27691
    R6        2.12425   0.28547   0.00000   0.06188   0.06188   2.18613
    R7        2.57784  -0.00245   0.00000  -0.01102  -0.01102   2.56682
    R8        2.58220  -0.01823   0.00000  -0.02120  -0.02120   2.56100
    R9        2.57691  -0.01297   0.00000  -0.00887  -0.00891   2.56800
   R10        3.64812  -0.01131   0.00000   0.06242   0.06137   3.70949
   R11        1.83348  -0.00344   0.00000  -0.00150  -0.00253   1.83094
    A1        1.93640   0.00535   0.00000   0.01141   0.01122   1.94762
    A2        2.47920  -0.02612   0.00000  -0.00126  -0.00211   2.47709
    A3        1.73995   0.00332   0.00000   0.02400   0.02319   1.76314
    A4        1.86928  -0.01056   0.00000  -0.04587  -0.04653   1.82275
    A5        2.26164  -0.03499   0.00000  -0.06115  -0.06424   2.19740
    A6        1.79426   0.01522   0.00000  -0.00245  -0.00826   1.78600
    A7        2.08852  -0.01768   0.00000   0.00195   0.00225   2.09077
    A8        1.99464  -0.01697   0.00000  -0.03690  -0.03761   1.95704
    A9        1.99434  -0.01821   0.00000  -0.02473  -0.02383   1.97051
   A10        1.78398   0.01657   0.00000   0.02140   0.02121   1.80519
   A11        1.77667   0.02829   0.00000   0.02108   0.02043   1.79710
   A12        1.78592   0.01912   0.00000   0.02942   0.02872   1.81463
   A13        1.93174  -0.02163   0.00000  -0.00873  -0.00998   1.92176
   A14        1.32260  -0.07745   0.00000   0.02677   0.02682   1.34942
   A15        1.93389  -0.00170   0.00000  -0.00757  -0.01038   1.92351
   A16        2.50582  -0.01856   0.00000   0.04500   0.04410   2.54992
    D1        1.70498  -0.00566   0.00000   0.00292   0.00174   1.70673
    D2       -1.83436  -0.03884   0.00000   0.04965   0.05015  -1.78421
    D3        2.98179  -0.01243   0.00000   0.05191   0.05131   3.03310
    D4        0.46903   0.01916   0.00000  -0.03333  -0.03522   0.43381
    D5        1.28307  -0.01413   0.00000  -0.00199  -0.00004   1.28303
    D6       -2.87766  -0.02175   0.00000  -0.00419  -0.00280  -2.88046
    D7       -0.82853  -0.02254   0.00000  -0.01095  -0.00907  -0.83760
    D8       -0.87633   0.00657   0.00000   0.11330   0.11218  -0.76416
    D9        1.24612  -0.00105   0.00000   0.11110   0.10942   1.35554
   D10       -2.98794  -0.00184   0.00000   0.10435   0.10316  -2.88478
   D11        2.03394   0.02427   0.00000   0.08487   0.08557   2.11951
   D12       -1.82496  -0.01604   0.00000  -0.02588  -0.02550  -1.85045
   D13       -0.09244  -0.01356   0.00000   0.01526   0.01644  -0.07600
   D14       -2.36917  -0.00074   0.00000   0.01282   0.01378  -2.35538
   D15        2.07308  -0.03166   0.00000  -0.02403  -0.02379   2.04929
   D16       -0.65296   0.00183   0.00000   0.11100   0.11156  -0.54140
   D17        0.86653   0.00983   0.00000  -0.00975  -0.01119   0.85534
         Item               Value     Threshold  Converged?
 Maximum Force            0.285468     0.000450     NO 
 RMS     Force            0.051351     0.000300     NO 
 Maximum Displacement     0.157852     0.001800     NO 
 RMS     Displacement     0.062526     0.001200     NO 
 Predicted change in Energy=-2.372319D-02
 Lowest energy point so far.  Saving SCF results.
 GradGradGradGradGradGradGradGradGradGradGradGradGradGradGradGradGradGrad

 Leave Link  103 at Sat May 24 02:08:10 2025, MaxMem=  3758096384 cpu:               0.1 elap:               0.1
 (Enter /apps/easybuild-2022/easybuild/software/Compiler/NVHPC/22.11-CUDA-11.7.0/Gaussian/g16c01-CUDA-11.7.0/g16/l202.exe)
                          Input orientation:                          
 ---------------------------------------------------------------------
 Center     Atomic      Atomic             Coordinates (Angstroms)
 Number     Number       Type             X           Y           Z
 ---------------------------------------------------------------------
      1          6           0        1.920391   -0.039302   -0.467371
      2          8           0        2.209439   -0.932537   -1.167110
      3          6           0       -0.039622   -0.432876    0.446119
      4          6           0       -0.625400    0.399054    1.409217
      5          9           0       -1.892371    0.853783    1.227566
      6          9           0       -0.673665   -0.188089    2.629692
      7          9           0        0.080670    1.540496    1.621956
      8          9           0        0.317321    0.625776   -0.880093
      9          9           0       -0.552467   -1.325578   -0.081499
     10          8           0        2.442586    0.960144    0.195848
     11          1           0        1.742615    1.510531    0.577773
 ---------------------------------------------------------------------
                    Distance matrix (angstroms):
                    1          2          3          4          5
     1  C    0.000000
     2  O    1.170919   0.000000
     3  C    2.197957   2.812551   0.000000
     4  C    3.192928   4.055478   1.401000   0.000000
     5  F    4.267033   5.074471   2.387222   1.358305   0.000000
     6  F    4.042655   4.825162   2.286902   1.355221   2.129952
     7  F    3.200878   4.292602   2.300274   1.358927   2.126031
     8  F    1.783956   2.467959   1.734068   2.486175   3.062182
     9  F    2.813971   2.993519   1.156853   2.280770   2.873780
    10  O    1.308220   2.343981   2.857359   3.346583   4.457309
    11  H    1.877742   3.038276   2.640177   2.744845   3.750556
                    6          7          8          9         10
     6  F    0.000000
     7  F    2.138354   0.000000
     8  F    3.736712   2.674503   0.000000
     9  F    2.942640   3.393671   2.280804   0.000000
    10  O    4.117408   2.819439   2.405452   3.777802   0.000000
    11  H    3.596399   1.962976   2.222527   3.707500   0.968892
                   11
    11  H    0.000000
 Symmetry turned off by external request.
 Stoichiometry    C3HF5O2
 Rotational constants (GHZ):           2.2069917           0.9984298           0.8630662
 Leave Link  202 at Sat May 24 02:08:11 2025, MaxMem=  3758096384 cpu:               0.1 elap:               0.0
 (Enter /apps/easybuild-2022/easybuild/software/Compiler/NVHPC/22.11-CUDA-11.7.0/Gaussian/g16c01-CUDA-11.7.0/g16/l301.exe)
 Standard basis: def2TZVPP (5D, 7F)
 Ernie: Thresh=  0.10000D-02 Tol=  0.10000D-05 Strict=F.
   324 basis functions,   527 primitive gaussians,   375 cartesian basis functions
    40 alpha electrons       40 beta electrons
       nuclear repulsion energy       620.3483832040 Hartrees.
 IExCor= 4336 DFT=T Ex+Corr=M062X ExCW=0 ScaHFX=  0.540000
 ScaDFX=  1.000000  1.000000  1.000000  1.000000 ScalE2=  1.000000  1.000000
 IRadAn=      5 IRanWt=     -1 IRanGd=            0 ICorTp=0 IEmpDi=  4
 NAtoms=   11 NActive=   11 NUniq=   11 SFac= 1.00D+00 NAtFMM=   60 NAOKFM=F Big=F
 Integral buffers will be    131072 words long.
 Raffenetti 2 integral format.
 Two-electron integral symmetry is turned off.
 Leave Link  301 at Sat May 24 02:08:11 2025, MaxMem=  3758096384 cpu:               0.1 elap:               0.0
 (Enter /apps/easybuild-2022/easybuild/software/Compiler/NVHPC/22.11-CUDA-11.7.0/Gaussian/g16c01-CUDA-11.7.0/g16/l302.exe)
 NPDir=0 NMtPBC=     1 NCelOv=     1 NCel=       1 NClECP=     1 NCelD=      1
         NCelK=      1 NCelE2=     1 NClLst=     1 CellRange=     0.0.
 One-electron integrals computed using PRISM.
   1 Symmetry operations used in ECPInt.
 ECPInt:  NShTT=    6786 NPrTT=   21959 LenC2=    6430 LenP2D=   15739.
 LDataN:  DoStor=T MaxTD1= 6 Len=  172
 NBasis=   324 RedAO= T EigKep=  2.16D-04  NBF=   324
 NBsUse=   324 1.00D-06 EigRej= -1.00D+00 NBFU=   324
 Precomputing XC quadrature grid using
 IXCGrd= 4 IRadAn=           5 IRanWt=          -1 IRanGd=           0 AccXCQ= 0.00D+00.
 Generated NRdTot=       0 NPtTot=           0 NUsed=           0 NTot=          32
 NSgBfM=   372   372   372   372   372 MxSgAt=    11 MxSgA2=    11.
 Leave Link  302 at Sat May 24 02:08:11 2025, MaxMem=  3758096384 cpu:               0.6 elap:               0.2
 (Enter /apps/easybuild-2022/easybuild/software/Compiler/NVHPC/22.11-CUDA-11.7.0/Gaussian/g16c01-CUDA-11.7.0/g16/l303.exe)
 DipDrv:  MaxL=1.
 Leave Link  303 at Sat May 24 02:08:11 2025, MaxMem=  3758096384 cpu:               0.1 elap:               0.0
 (Enter /apps/easybuild-2022/easybuild/software/Compiler/NVHPC/22.11-CUDA-11.7.0/Gaussian/g16c01-CUDA-11.7.0/g16/l401.exe)
 Initial guess from the checkpoint file:  "1642764945472630600001_r12_insertion_R_8_3_1.chk"
 B after Tr=    -0.002896    0.001985   -0.003051
         Rot=    0.999997    0.001576    0.000667   -0.001551 Ang=   0.26 deg.
 Guess basis will be translated and rotated to current coordinates.
 JPrj=2 DoOrth=T DoCkMO=T.
 Generating alternative initial guess.
 ExpMin= 9.52D-02 ExpMax= 3.55D+04 ExpMxC= 1.21D+03 IAcc=3 IRadAn=         5 AccDes= 0.00D+00
 Harris functional with IExCor= 1009 and IRadAn=       5 diagonalized for initial guess.
 HarFok:  IExCor= 1009 AccDes= 0.00D+00 IRadAn=         5 IDoV= 1 UseB2=F ITyADJ=14
 ICtDFT=  3500011 ScaDFX=  1.000000  1.000000  1.000000  1.000000
 FoFCou: FMM=F IPFlag=           0 FMFlag=      100000 FMFlg1=           0
         NFxFlg=           0 DoJE=T BraDBF=F KetDBF=T FulRan=T
         wScrn=  0.000000 ICntrl=       500 IOpCl=  0 I1Cent=   200000004 NGrid=           0
         NMat0=    1 NMatS0=      1 NMatT0=    0 NMatD0=    1 NMtDS0=    0 NMtDT0=    0
 Symmetry not used in FoFCou.
 Harris En= -764.023641782634    
 Leave Link  401 at Sat May 24 02:08:12 2025, MaxMem=  3758096384 cpu:               3.3 elap:               0.7
 (Enter /apps/easybuild-2022/easybuild/software/Compiler/NVHPC/22.11-CUDA-11.7.0/Gaussian/g16c01-CUDA-11.7.0/g16/l502.exe)
 Keep R1 ints in memory in canonical form, NReq=1412617130.
 FoFCou: FMM=F IPFlag=           0 FMFlag=           0 FMFlg1=           0
         NFxFlg=           0 DoJE=F BraDBF=F KetDBF=F FulRan=T
         wScrn=  0.000000 ICntrl=       600 IOpCl=  0 I1Cent=           0 NGrid=           0
         NMat0=    1 NMatS0=  52650 NMatT0=    0 NMatD0=    1 NMtDS0=    0 NMtDT0=    0
 Symmetry not used in FoFCou.
 Two-electron integral symmetry not used.
 Closed shell SCF:
 Using DIIS extrapolation, IDIIS=  1040.
 NGot=  3758096384 LenX=  2371771924 LenY=  2371630858
 Requested convergence on RMS density matrix=1.00D-08 within  32 cycles.
 Requested convergence on MAX density matrix=1.00D-06.
 Requested convergence on             energy=1.00D-06.
 No special actions if energy rises.
 Integral accuracy reduced to 1.0D-05 until final iterations.

 Cycle   1  Pass 0  IDiag  1:
 E= -764.452434942973    
 DIIS: error= 2.43D-03 at cycle   1 NSaved=   1.
 NSaved= 1 IEnMin= 1 EnMin= -764.452434942973     IErMin= 1 ErrMin= 2.43D-03
 ErrMax= 2.43D-03  0.00D+00 EMaxC= 1.00D-01 BMatC= 1.25D-02 BMatP= 1.25D-02
 IDIUse=3 WtCom= 9.76D-01 WtEn= 2.43D-02
 Coeff-Com:  0.100D+01
 Coeff-En:   0.100D+01
 Coeff:      0.100D+01
 Gap=     0.840 Goal=   None    Shift=    0.000
 GapD=    0.840 DampG=2.000 DampE=1.000 DampFc=2.0000 IDamp=-1.
 RMSDP=4.86D-04 MaxDP=1.79D-02              OVMax= 5.46D-02

 Cycle   2  Pass 0  IDiag  1:
 E= -764.468861502964     Delta-E=       -0.016426559991 Rises=F Damp=F
 DIIS: error= 7.53D-04 at cycle   2 NSaved=   2.
 NSaved= 2 IEnMin= 2 EnMin= -764.468861502964     IErMin= 2 ErrMin= 7.53D-04
 ErrMax= 7.53D-04  0.00D+00 EMaxC= 1.00D-01 BMatC= 5.14D-04 BMatP= 1.25D-02
 IDIUse=3 WtCom= 9.92D-01 WtEn= 7.53D-03
 Coeff-Com: -0.843D-01 0.108D+01
 Coeff-En:   0.000D+00 0.100D+01
 Coeff:     -0.837D-01 0.108D+01
 Gap=     0.277 Goal=   None    Shift=    0.000
 RMSDP=1.69D-04 MaxDP=7.52D-03 DE=-1.64D-02 OVMax= 2.77D-02

 Cycle   3  Pass 0  IDiag  1:
 E= -764.470172399080     Delta-E=       -0.001310896115 Rises=F Damp=F
 DIIS: error= 5.38D-04 at cycle   3 NSaved=   3.
 NSaved= 3 IEnMin= 3 EnMin= -764.470172399080     IErMin= 3 ErrMin= 5.38D-04
 ErrMax= 5.38D-04  0.00D+00 EMaxC= 1.00D-01 BMatC= 2.07D-04 BMatP= 5.14D-04
 IDIUse=3 WtCom= 9.95D-01 WtEn= 5.38D-03
 Coeff-Com: -0.652D-01 0.386D+00 0.679D+00
 Coeff-En:   0.000D+00 0.000D+00 0.100D+01
 Coeff:     -0.648D-01 0.384D+00 0.681D+00
 Gap=     0.276 Goal=   None    Shift=    0.000
 RMSDP=4.41D-05 MaxDP=1.93D-03 DE=-1.31D-03 OVMax= 4.70D-03

 Cycle   4  Pass 0  IDiag  1:
 E= -764.470394857931     Delta-E=       -0.000222458851 Rises=F Damp=F
 DIIS: error= 2.04D-04 at cycle   4 NSaved=   4.
 NSaved= 4 IEnMin= 4 EnMin= -764.470394857931     IErMin= 4 ErrMin= 2.04D-04
 ErrMax= 2.04D-04  0.00D+00 EMaxC= 1.00D-01 BMatC= 3.30D-05 BMatP= 2.07D-04
 IDIUse=3 WtCom= 9.98D-01 WtEn= 2.04D-03
 Coeff-Com:  0.431D-02-0.127D+00 0.214D+00 0.909D+00
 Coeff-En:   0.000D+00 0.000D+00 0.000D+00 0.100D+01
 Coeff:      0.431D-02-0.126D+00 0.213D+00 0.909D+00
 Gap=     0.277 Goal=   None    Shift=    0.000
 RMSDP=3.90D-05 MaxDP=1.52D-03 DE=-2.22D-04 OVMax= 7.07D-03

 Cycle   5  Pass 0  IDiag  1:
 E= -764.470462259005     Delta-E=       -0.000067401074 Rises=F Damp=F
 DIIS: error= 1.10D-04 at cycle   5 NSaved=   5.
 NSaved= 5 IEnMin= 5 EnMin= -764.470462259005     IErMin= 5 ErrMin= 1.10D-04
 ErrMax= 1.10D-04  0.00D+00 EMaxC= 1.00D-01 BMatC= 7.49D-06 BMatP= 3.30D-05
 IDIUse=3 WtCom= 9.99D-01 WtEn= 1.10D-03
 Coeff-Com:  0.806D-02-0.929D-01 0.550D-02 0.401D+00 0.678D+00
 Coeff-En:   0.000D+00 0.000D+00 0.000D+00 0.000D+00 0.100D+01
 Coeff:      0.806D-02-0.928D-01 0.550D-02 0.401D+00 0.679D+00
 Gap=     0.277 Goal=   None    Shift=    0.000
 RMSDP=1.12D-05 MaxDP=7.46D-04 DE=-6.74D-05 OVMax= 1.55D-03

 Cycle   6  Pass 0  IDiag  1:
 E= -764.470471133563     Delta-E=       -0.000008874558 Rises=F Damp=F
 DIIS: error= 7.09D-05 at cycle   6 NSaved=   6.
 NSaved= 6 IEnMin= 6 EnMin= -764.470471133563     IErMin= 6 ErrMin= 7.09D-05
 ErrMax= 7.09D-05  0.00D+00 EMaxC= 1.00D-01 BMatC= 2.12D-06 BMatP= 7.49D-06
 IDIUse=1 WtCom= 1.00D+00 WtEn= 0.00D+00
 Coeff-Com:  0.327D-02-0.133D-01-0.693D-01-0.243D-01 0.383D+00 0.721D+00
 Coeff:      0.327D-02-0.133D-01-0.693D-01-0.243D-01 0.383D+00 0.721D+00
 Gap=     0.277 Goal=   None    Shift=    0.000
 RMSDP=6.60D-06 MaxDP=4.39D-04 DE=-8.87D-06 OVMax= 9.73D-04

 Initial convergence to 1.0D-05 achieved.  Increase integral accuracy.
 Cycle   7  Pass 1  IDiag  1:
 E= -764.470473957606     Delta-E=       -0.000002824044 Rises=F Damp=F
 DIIS: error= 2.74D-05 at cycle   1 NSaved=   1.
 NSaved= 1 IEnMin= 1 EnMin= -764.470473957606     IErMin= 1 ErrMin= 2.74D-05
 ErrMax= 2.74D-05  0.00D+00 EMaxC= 1.00D-01 BMatC= 5.54D-07 BMatP= 5.54D-07
 IDIUse=1 WtCom= 1.00D+00 WtEn= 0.00D+00
 Coeff-Com:  0.100D+01
 Coeff:      0.100D+01
 Gap=     0.277 Goal=   None    Shift=    0.000
 RMSDP=6.60D-06 MaxDP=4.39D-04 DE=-2.82D-06 OVMax= 3.23D-04

 Cycle   8  Pass 1  IDiag  1:
 E= -764.470474315408     Delta-E=       -0.000000357802 Rises=F Damp=F
 DIIS: error= 2.09D-05 at cycle   2 NSaved=   2.
 NSaved= 2 IEnMin= 2 EnMin= -764.470474315408     IErMin= 2 ErrMin= 2.09D-05
 ErrMax= 2.09D-05  0.00D+00 EMaxC= 1.00D-01 BMatC= 2.50D-07 BMatP= 5.54D-07
 IDIUse=1 WtCom= 1.00D+00 WtEn= 0.00D+00
 Coeff-Com:  0.355D+00 0.645D+00
 Coeff:      0.355D+00 0.645D+00
 Gap=     0.277 Goal=   None    Shift=    0.000
 RMSDP=1.46D-06 MaxDP=5.38D-05 DE=-3.58D-07 OVMax= 1.91D-04

 Cycle   9  Pass 1  IDiag  1:
 E= -764.470474422014     Delta-E=       -0.000000106606 Rises=F Damp=F
 DIIS: error= 1.42D-05 at cycle   3 NSaved=   3.
 NSaved= 3 IEnMin= 3 EnMin= -764.470474422014     IErMin= 3 ErrMin= 1.42D-05
 ErrMax= 1.42D-05  0.00D+00 EMaxC= 1.00D-01 BMatC= 1.09D-07 BMatP= 2.50D-07
 IDIUse=1 WtCom= 1.00D+00 WtEn= 0.00D+00
 Coeff-Com: -0.222D-01 0.393D+00 0.629D+00
 Coeff:     -0.222D-01 0.393D+00 0.629D+00
 Gap=     0.277 Goal=   None    Shift=    0.000
 RMSDP=8.26D-07 MaxDP=3.32D-05 DE=-1.07D-07 OVMax= 9.76D-05

 Cycle  10  Pass 1  IDiag  1:
 E= -764.470474501028     Delta-E=       -0.000000079014 Rises=F Damp=F
 DIIS: error= 2.23D-06 at cycle   4 NSaved=   4.
 NSaved= 4 IEnMin= 4 EnMin= -764.470474501028     IErMin= 4 ErrMin= 2.23D-06
 ErrMax= 2.23D-06  0.00D+00 EMaxC= 1.00D-01 BMatC= 5.39D-09 BMatP= 1.09D-07
 IDIUse=1 WtCom= 1.00D+00 WtEn= 0.00D+00
 Coeff-Com: -0.285D-01 0.128D+00 0.276D+00 0.624D+00
 Coeff:     -0.285D-01 0.128D+00 0.276D+00 0.624D+00
 Gap=     0.277 Goal=   None    Shift=    0.000
 RMSDP=2.29D-07 MaxDP=7.28D-06 DE=-7.90D-08 OVMax= 3.60D-05

 Cycle  11  Pass 1  IDiag  1:
 E= -764.470474507042     Delta-E=       -0.000000006014 Rises=F Damp=F
 DIIS: error= 8.47D-07 at cycle   5 NSaved=   5.
 NSaved= 5 IEnMin= 5 EnMin= -764.470474507042     IErMin= 5 ErrMin= 8.47D-07
 ErrMax= 8.47D-07  0.00D+00 EMaxC= 1.00D-01 BMatC= 7.68D-10 BMatP= 5.39D-09
 IDIUse=1 WtCom= 1.00D+00 WtEn= 0.00D+00
 Coeff-Com: -0.161D-02-0.715D-01-0.829D-01 0.156D+00 0.100D+01
 Coeff:     -0.161D-02-0.715D-01-0.829D-01 0.156D+00 0.100D+01
 Gap=     0.277 Goal=   None    Shift=    0.000
 RMSDP=2.21D-07 MaxDP=7.32D-06 DE=-6.01D-09 OVMax= 4.32D-05

 Cycle  12  Pass 1  IDiag  1:
 E= -764.470474509200     Delta-E=       -0.000000002158 Rises=F Damp=F
 DIIS: error= 3.73D-07 at cycle   6 NSaved=   6.
 NSaved= 6 IEnMin= 6 EnMin= -764.470474509200     IErMin= 6 ErrMin= 3.73D-07
 ErrMax= 3.73D-07  0.00D+00 EMaxC= 1.00D-01 BMatC= 1.61D-10 BMatP= 7.68D-10
 IDIUse=1 WtCom= 1.00D+00 WtEn= 0.00D+00
 Coeff-Com:  0.566D-02-0.571D-01-0.891D-01-0.569D-01 0.408D+00 0.790D+00
 Coeff:      0.566D-02-0.571D-01-0.891D-01-0.569D-01 0.408D+00 0.790D+00
 Gap=     0.277 Goal=   None    Shift=    0.000
 RMSDP=1.00D-07 MaxDP=4.83D-06 DE=-2.16D-09 OVMax= 1.92D-05

 Cycle  13  Pass 1  IDiag  1:
 E= -764.470474509639     Delta-E=       -0.000000000439 Rises=F Damp=F
 DIIS: error= 1.19D-07 at cycle   7 NSaved=   7.
 NSaved= 7 IEnMin= 7 EnMin= -764.470474509639     IErMin= 7 ErrMin= 1.19D-07
 ErrMax= 1.19D-07  0.00D+00 EMaxC= 1.00D-01 BMatC= 1.00D-11 BMatP= 1.61D-10
 IDIUse=1 WtCom= 1.00D+00 WtEn= 0.00D+00
 Coeff-Com:  0.151D-02-0.744D-02-0.137D-01-0.238D-01-0.379D-02 0.146D+00
 Coeff-Com:  0.901D+00
 Coeff:      0.151D-02-0.744D-02-0.137D-01-0.238D-01-0.379D-02 0.146D+00
 Coeff:      0.901D+00
 Gap=     0.277 Goal=   None    Shift=    0.000
 RMSDP=2.82D-08 MaxDP=1.02D-06 DE=-4.39D-10 OVMax= 5.88D-06

 Cycle  14  Pass 1  IDiag  1:
 E= -764.470474509618     Delta-E=        0.000000000020 Rises=F Damp=F
 DIIS: error= 7.66D-08 at cycle   8 NSaved=   8.
 NSaved= 8 IEnMin= 7 EnMin= -764.470474509639     IErMin= 8 ErrMin= 7.66D-08
 ErrMax= 7.66D-08  0.00D+00 EMaxC= 1.00D-01 BMatC= 3.76D-12 BMatP= 1.00D-11
 IDIUse=1 WtCom= 1.00D+00 WtEn= 0.00D+00
 Coeff-Com: -0.375D-03 0.684D-02 0.104D-01 0.135D-02-0.698D-01-0.870D-01
 Coeff-Com:  0.412D+00 0.727D+00
 Coeff:     -0.375D-03 0.684D-02 0.104D-01 0.135D-02-0.698D-01-0.870D-01
 Coeff:      0.412D+00 0.727D+00
 Gap=     0.277 Goal=   None    Shift=    0.000
 RMSDP=1.04D-08 MaxDP=3.62D-07 DE= 2.05D-11 OVMax= 2.14D-06

 Cycle  15  Pass 1  IDiag  1:
 E= -764.470474509626     Delta-E=       -0.000000000008 Rises=F Damp=F
 DIIS: error= 2.85D-08 at cycle   9 NSaved=   9.
 NSaved= 9 IEnMin= 7 EnMin= -764.470474509639     IErMin= 9 ErrMin= 2.85D-08
 ErrMax= 2.85D-08  0.00D+00 EMaxC= 1.00D-01 BMatC= 5.64D-13 BMatP= 3.76D-12
 IDIUse=1 WtCom= 1.00D+00 WtEn= 0.00D+00
 Coeff-Com: -0.335D-03 0.357D-02 0.607D-02 0.406D-02-0.269D-01-0.618D-01
 Coeff-Com:  0.499D-01 0.298D+00 0.727D+00
 Coeff:     -0.335D-03 0.357D-02 0.607D-02 0.406D-02-0.269D-01-0.618D-01
 Coeff:      0.499D-01 0.298D+00 0.727D+00
 Gap=     0.277 Goal=   None    Shift=    0.000
 RMSDP=4.01D-09 MaxDP=1.41D-07 DE=-8.41D-12 OVMax= 7.35D-07

 SCF Done:  E(RM062X) =  -764.470474510     A.U. after   15 cycles
            NFock= 15  Conv=0.40D-08     -V/T= 2.0033
 KE= 7.619303715033D+02 PE=-3.052711300829D+03 EE= 9.059620716117D+02
 Leave Link  502 at Sat May 24 02:08:36 2025, MaxMem=  3758096384 cpu:              98.7 elap:              24.5
 (Enter /apps/easybuild-2022/easybuild/software/Compiler/NVHPC/22.11-CUDA-11.7.0/Gaussian/g16c01-CUDA-11.7.0/g16/l508.exe)
 QCSCF skips out because SCF is already converged.
 Leave Link  508 at Sat May 24 02:08:36 2025, MaxMem=  3758096384 cpu:               0.1 elap:               0.0
 (Enter /apps/easybuild-2022/easybuild/software/Compiler/NVHPC/22.11-CUDA-11.7.0/Gaussian/g16c01-CUDA-11.7.0/g16/l801.exe)
 DoSCS=F DFT=T ScalE2(SS,OS)=  1.000000  1.000000
 Range of M.O.s used for correlation:     1   324
 NBasis=   324 NAE=    40 NBE=    40 NFC=     0 NFV=     0
 NROrb=    324 NOA=    40 NOB=    40 NVA=   284 NVB=   284

 **** Warning!!: The largest alpha MO coefficient is  0.14318133D+02

 Leave Link  801 at Sat May 24 02:08:36 2025, MaxMem=  3758096384 cpu:               0.1 elap:               0.0
 (Enter /apps/easybuild-2022/easybuild/software/Compiler/NVHPC/22.11-CUDA-11.7.0/Gaussian/g16c01-CUDA-11.7.0/g16/l1101.exe)
 Using compressed storage, NAtomX=    11.
 Will process     12 centers per pass.
   1 Symmetry operations used in ECPInt.
 ECPInt:  NShTT=    6786 NPrTT=   21959 LenC2=    6430 LenP2D=   15739.
 LDataN:  DoStor=T MaxTD1= 7 Len=  274
 Leave Link 1101 at Sat May 24 02:08:36 2025, MaxMem=  3758096384 cpu:               0.9 elap:               0.2
 (Enter /apps/easybuild-2022/easybuild/software/Compiler/NVHPC/22.11-CUDA-11.7.0/Gaussian/g16c01-CUDA-11.7.0/g16/l1102.exe)
 Symmetrizing basis deriv contribution to polar:
 IMax=3 JMax=2 DiffMx= 0.00D+00
 Leave Link 1102 at Sat May 24 02:08:36 2025, MaxMem=  3758096384 cpu:               0.1 elap:               0.0
 (Enter /apps/easybuild-2022/easybuild/software/Compiler/NVHPC/22.11-CUDA-11.7.0/Gaussian/g16c01-CUDA-11.7.0/g16/l1110.exe)
 Forming Gx(P) for the SCF density, NAtomX=    11.
 Integral derivatives from FoFJK, PRISM(SPDF).
 Do as many integral derivatives as possible in FoFJK.
 G2DrvN: MDV=    3758095115.
 G2DrvN: will do    12 centers at a time, making    1 passes.
 Calling FoFCou, ICntrl=  3107 FMM=F I1Cent=   0 AccDes= 0.00D+00.
 FoFJK:  IHMeth= 1 ICntrl=    3107 DoSepK=F KAlg= 0 I1Cent=           0 FoldK=F
 IRaf=         0 NMat=       1 IRICut=       1 DoRegI=T DoRafI=F ISym2E= 0 IDoP0=0 IntGTp=1.
 FoFCou: FMM=F IPFlag=           0 FMFlag=      100000 FMFlg1=           0
         NFxFlg=           0 DoJE=F BraDBF=F KetDBF=F FulRan=T
         wScrn=  0.000000 ICntrl=      3107 IOpCl=  0 I1Cent=           0 NGrid=           0
         NMat0=    1 NMatS0=      1 NMatT0=    0 NMatD0=    1 NMtDS0=    0 NMtDT0=    0
 Symmetry not used in FoFCou.
 End of G2Drv F.D. properties file   721 does not exist.
 End of G2Drv F.D. properties file   722 does not exist.
 End of G2Drv F.D. properties file   788 does not exist.
 Leave Link 1110 at Sat May 24 02:09:17 2025, MaxMem=  3758096384 cpu:             243.7 elap:              40.3
 (Enter /apps/easybuild-2022/easybuild/software/Compiler/NVHPC/22.11-CUDA-11.7.0/Gaussian/g16c01-CUDA-11.7.0/g16/l1002.exe)
 Minotr:  Closed shell wavefunction.
          IDoAtm=11111111111
          Direct CPHF calculation.
          Differentiating once with respect to electric field.
                with respect to dipole field.
          Differentiating once with respect to nuclear coordinates.
          Requested convergence is 1.0D-08 RMS, and 1.0D-07 maximum.
          Secondary convergence is 1.0D-12 RMS, and 1.0D-12 maximum.
          NewPWx=T KeepS1=F KeepF1=F KeepIn=T MapXYZ=F SortEE=F KeepMc=T.
         3307 words used for storage of precomputed grid.
 Keep R1 ints in memory in canonical form, NReq=1412622537.
 FoFCou: FMM=F IPFlag=           0 FMFlag=           0 FMFlg1=           0
         NFxFlg=           0 DoJE=F BraDBF=F KetDBF=F FulRan=T
         wScrn=  0.000000 ICntrl=       600 IOpCl=  0 I1Cent=           0 NGrid=           0
         NMat0=    1 NMatS0=  52650 NMatT0=    0 NMatD0=    1 NMtDS0=    0 NMtDT0=    0
 Symmetry not used in FoFCou.
 Two-electron integral symmetry not used.
          MDV=    3758096384 using IRadAn=       1.
          Solving linear equations simultaneously, MaxMat=       0.
          There are    36 degrees of freedom in the 1st order CPHF.  IDoFFX=6 NUNeed=     3.
     33 vectors produced by pass  0 Test12= 3.16D-14 2.78D-09 XBig12= 3.35D+01 3.39D+00.
 AX will form    33 AO Fock derivatives at one time.
     33 vectors produced by pass  1 Test12= 3.16D-14 2.78D-09 XBig12= 5.26D+00 4.42D-01.
     33 vectors produced by pass  2 Test12= 3.16D-14 2.78D-09 XBig12= 2.33D-01 1.11D-01.
     33 vectors produced by pass  3 Test12= 3.16D-14 2.78D-09 XBig12= 5.37D-03 1.05D-02.
     33 vectors produced by pass  4 Test12= 3.16D-14 2.78D-09 XBig12= 8.48D-05 1.03D-03.
     33 vectors produced by pass  5 Test12= 3.16D-14 2.78D-09 XBig12= 8.58D-07 1.10D-04.
     33 vectors produced by pass  6 Test12= 3.16D-14 2.78D-09 XBig12= 5.29D-09 9.14D-06.
     15 vectors produced by pass  7 Test12= 3.16D-14 2.78D-09 XBig12= 2.59D-11 5.20D-07.
      3 vectors produced by pass  8 Test12= 3.16D-14 2.78D-09 XBig12= 1.41D-13 3.31D-08.
      1 vectors produced by pass  9 Test12= 3.16D-14 2.78D-09 XBig12= 7.89D-16 3.81D-09.
 InvSVY:  IOpt=1 It=  1 EMax= 8.88D-16
 Solved reduced A of dimension   250 with    36 vectors.
 FullF1:  Do perturbations      1 to       3.
 Isotropic polarizability for W=    0.000000       53.25 Bohr**3.
 End of Minotr F.D. properties file   721 does not exist.
 End of Minotr F.D. properties file   722 does not exist.
 End of Minotr F.D. properties file   788 does not exist.
 Leave Link 1002 at Sat May 24 02:10:10 2025, MaxMem=  3758096384 cpu:             408.0 elap:              52.8
 (Enter /apps/easybuild-2022/easybuild/software/Compiler/NVHPC/22.11-CUDA-11.7.0/Gaussian/g16c01-CUDA-11.7.0/g16/l701.exe)
 ... and contract with generalized density number  0.
 Compute integral second derivatives.
   1 Symmetry operations used in ECPInt.
 ECPInt:  NShTT=    6786 NPrTT=   21959 LenC2=    6430 LenP2D=   15739.
 LDataN:  DoStor=T MaxTD1= 8 Len=  415
 Leave Link  701 at Sat May 24 02:10:10 2025, MaxMem=  3758096384 cpu:               0.9 elap:               0.3
 (Enter /apps/easybuild-2022/easybuild/software/Compiler/NVHPC/22.11-CUDA-11.7.0/Gaussian/g16c01-CUDA-11.7.0/g16/l702.exe)
 L702 exits ... SP integral derivatives will be done elsewhere.
 Leave Link  702 at Sat May 24 02:10:10 2025, MaxMem=  3758096384 cpu:               0.1 elap:               0.0
 (Enter /apps/easybuild-2022/easybuild/software/Compiler/NVHPC/22.11-CUDA-11.7.0/Gaussian/g16c01-CUDA-11.7.0/g16/l703.exe)
 Integral derivatives from FoFJK, PRISM(SPDF).
 Compute integral second derivatives, UseDBF=F ICtDFT=           0.
 Calling FoFJK, ICntrl=    100127 FMM=F ISym2X=0 I1Cent= 0 IOpClX= 0 NMat=1 NMatS=1 NMatT=0.
 FoFJK:  IHMeth= 1 ICntrl=  100127 DoSepK=F KAlg= 0 I1Cent=           0 FoldK=F
 IRaf=         0 NMat=       1 IRICut=       1 DoRegI=T DoRafI=F ISym2E= 0 IDoP0=0 IntGTp=1.
 FoFCou: FMM=F IPFlag=           0 FMFlag=      100000 FMFlg1=         800
         NFxFlg=           0 DoJE=F BraDBF=F KetDBF=F FulRan=T
         wScrn=  0.000000 ICntrl=    100127 IOpCl=  0 I1Cent=           0 NGrid=           0
         NMat0=    1 NMatS0=      1 NMatT0=    0 NMatD0=    1 NMtDS0=    0 NMtDT0=    0
 Symmetry not used in FoFCou.
 Leave Link  703 at Sat May 24 02:11:20 2025, MaxMem=  3758096384 cpu:             542.9 elap:              70.5
 (Enter /apps/easybuild-2022/easybuild/software/Compiler/NVHPC/22.11-CUDA-11.7.0/Gaussian/g16c01-CUDA-11.7.0/g16/l716.exe)
 Dipole        = 1.99097161D-01 2.10755944D-01 2.24405690D-01
 Polarizability= 6.19728424D+01 6.03121271D-01 4.63011316D+01
                -1.38039343D+01 3.28998357D+00 5.14882713D+01
 -------------------------------------------------------------------
 Center     Atomic                   Forces (Hartrees/Bohr)
 Number     Number              X              Y              Z
 -------------------------------------------------------------------
      1        6          -0.020022484   -0.025199929    0.014633386
      2        8          -0.000495034    0.037210953    0.024660516
      3        6           0.195880421    0.115344018    0.019952692
      4        6          -0.063231863    0.069124302    0.078446142
      5        9           0.002616402   -0.008014660   -0.011800656
      6        9           0.006814764   -0.011102099   -0.020250740
      7        9           0.008927972   -0.008062177   -0.013722439
      8        9          -0.018091145    0.002702239    0.010504400
      9        9          -0.110046933   -0.149256182   -0.082707202
     10        8           0.000761493   -0.021762082   -0.021656971
     11        1          -0.003113594   -0.000984383    0.001940871
 -------------------------------------------------------------------
 Cartesian Forces:  Max     0.195880421 RMS     0.058775060
 Force constants in Cartesian coordinates: 
                1             2             3             4             5 
      1  0.188679D+00
      2 -0.627010D-01  0.835497D+00
      3 -0.423112D-01  0.559749D+00  0.499748D+00
      4 -0.117244D+00  0.154375D+00  0.108468D+00  0.137811D+00
      5  0.115604D+00 -0.541576D+00 -0.353155D+00 -0.159615D+00  0.583937D+00
      6  0.932406D-01 -0.376559D+00 -0.352311D+00 -0.122404D+00  0.405724D+00
      7 -0.964634D-02  0.276050D-01 -0.157607D-01 -0.997769D-02 -0.554751D-02
      8 -0.471831D-01  0.122977D-01 -0.223087D-01  0.186570D-01 -0.112348D-01
      9 -0.266573D-01 -0.707692D-01  0.926935D-01  0.292521D-01 -0.826982D-02
     10 -0.721830D-02  0.998178D-02  0.103123D-01  0.933040D-03 -0.316317D-02
[...]
     32  0.125380D-01 -0.299937D-01 -0.207913D-01 -0.267351D-02  0.323270D-02
     33  0.808429D-02 -0.228284D-01 -0.187950D-01 -0.158475D-02 -0.192163D-02
                6             7             8             9            10 
      6  0.421969D+00
      7  0.131945D-01  0.418563D+00
      8 -0.907209D-02  0.913359D-01  0.348303D+00
      9 -0.405825D-01  0.636566D-01  0.204903D+00  0.219864D+00
     10 -0.616347D-03 -0.113223D+00  0.646804D-01  0.743128D-01  0.598844D+00
     11  0.567445D-02  0.410073D-01 -0.930289D-01 -0.544797D-01 -0.209306D-01
     12  0.820985D-02  0.163603D-01 -0.513463D-01 -0.699271D-01 -0.383866D-02
     13  0.583633D-02 -0.479353D-01  0.798053D-02 -0.114237D-01 -0.274284D+00
     14 -0.344305D-02  0.337120D-01 -0.451348D-02  0.354705D-02  0.695694D-01
     15 -0.376046D-03  0.678624D-02 -0.318570D-02  0.362059D-02 -0.741790D-01
     16  0.726421D-03  0.283165D-02 -0.120148D-01  0.146089D-01 -0.938503D-01
     17  0.979913D-04 -0.996450D-03  0.518290D-02  0.141886D-03 -0.163683D-01
     18 -0.250126D-02  0.126074D-01  0.248317D-01 -0.308827D-01  0.598689D-01
     19  0.474770D-03  0.500575D-02  0.395773D-02  0.154233D-02 -0.113528D+00
     20 -0.134779D-02 -0.267577D-01 -0.315189D-01 -0.616554D-02 -0.692252D-01
     21 -0.908135D-03 -0.130967D-01 -0.169807D-01  0.154483D-02 -0.170755D-01
     22  0.967148D-02  0.154146D-02  0.598999D-01 -0.680897D-01  0.465092D-02
     23 -0.464581D-02  0.921448D-02 -0.704087D-02  0.363134D-01  0.278256D-02
     24  0.132725D-01 -0.163150D-01 -0.114886D-01 -0.382056D-01 -0.135699D-01
     25  0.916934D-02 -0.216463D+00 -0.177318D+00 -0.100382D+00  0.632838D-03
     26  0.574165D-02 -0.146593D+00 -0.226029D+00 -0.128798D+00 -0.365966D-01
     27  0.675360D-02 -0.900232D-01 -0.113666D+00 -0.113718D+00 -0.282971D-01
     28  0.505894D-02 -0.818776D-02 -0.820830D-02  0.325626D-02 -0.426591D-03
     29 -0.445828D-01 -0.106763D-01 -0.140165D-01  0.144935D-01 -0.516067D-02
     30 -0.236116D-01  0.325471D-02  0.126554D-01 -0.316415D-02 -0.472649D-02
     31 -0.346479D-02 -0.171676D-02 -0.357028D-02  0.119629D-02 -0.672452D-02
     32 -0.193362D-02 -0.302389D-02  0.116782D-02 -0.175797D-03 -0.161940D-02
     33  0.296437D-02 -0.811482D-04 -0.211501D-02  0.661531D-03  0.440622D-02
               11            12            13            14            15 
     11  0.582187D+00
     12  0.256239D-01  0.562648D+00
     13  0.762402D-01 -0.722788D-01  0.357533D+00
     14 -0.102185D+00  0.224667D-01 -0.773461D-01  0.101177D+00
     15  0.223601D-01 -0.104378D+00  0.142322D+00 -0.451773D-01  0.144758D+00
     16 -0.180250D-01  0.600291D-01  0.529631D-02  0.219639D-01 -0.462556D-01
     17 -0.106222D+00  0.722784D-01  0.146366D-01 -0.675192D-02  0.368485D-01
     18  0.718681D-01 -0.277864D+00 -0.297690D-01  0.322631D-01 -0.446055D-01
     19 -0.754096D-01 -0.219692D-01 -0.574987D-01 -0.426321D-01 -0.330618D-01
     20 -0.240205D+00 -0.535681D-01 -0.243624D-01  0.847458D-02 -0.108604D-01
     21 -0.554181D-01 -0.902858D-01 -0.289074D-01 -0.165698D-01 -0.130994D-02
     22 -0.797351D-02  0.391746D-02  0.500089D-02 -0.353041D-02  0.313122D-02
     23 -0.128285D-01 -0.343049D-02 -0.589402D-02  0.513038D-02 -0.117939D-02
     24  0.188531D-01 -0.791923D-02  0.483761D-02 -0.315802D-02  0.129846D-02
     25  0.485475D-02  0.639038D-02  0.970322D-02 -0.113971D-02  0.221540D-02
     26 -0.358983D-01 -0.189500D-01  0.155326D-02  0.384780D-02  0.129148D-02
     27 -0.278849D-01 -0.957518D-02  0.132021D-02  0.326849D-02  0.180020D-02
     28 -0.517163D-02 -0.690434D-02 -0.206884D-02  0.178505D-02  0.122675D-02
     29 -0.108783D-01 -0.726479D-02 -0.272743D-02  0.328433D-02  0.119175D-02
     30 -0.538341D-02 -0.383860D-02  0.112771D-02  0.450309D-03  0.124092D-02
     31 -0.794777D-02 -0.821155D-03  0.855667D-03  0.992750D-03  0.719374D-03
     32  0.359354D-02  0.212313D-02  0.689757D-03 -0.903967D-03 -0.298024D-03
     33  0.625946D-02  0.422557D-02 -0.850102D-03 -0.912095D-03 -0.121117D-02
               16            17            18            19            20 
     16  0.908665D-01
     17  0.356457D-01  0.151283D+00
     18 -0.565254D-01 -0.150944D+00  0.350339D+00
     19 -0.584621D-02 -0.354998D-01  0.151688D-01  0.169910D+00
     20 -0.321734D-01 -0.477882D-01  0.296126D-01  0.145100D+00  0.318398D+00
     21  0.213003D-01  0.444294D-01  0.677190D-02  0.345857D-01  0.551473D-01
     22 -0.359301D-02  0.108643D-02  0.607679D-02  0.193680D-02  0.176589D-02
     23 -0.155794D-03  0.236597D-02 -0.267179D-02  0.197117D-02  0.647352D-02
     24  0.440531D-02 -0.305257D-02 -0.164533D-02  0.503132D-03 -0.571860D-02
     25  0.204526D-02  0.112788D-02 -0.400693D-02  0.281945D-02  0.533878D-02
     26  0.584637D-02  0.258298D-02 -0.476946D-02  0.242956D-02 -0.102941D-01
     27  0.229057D-02  0.624214D-03 -0.177496D-02  0.271040D-02 -0.793458D-02
     28 -0.568036D-03  0.492907D-03  0.190060D-02  0.292387D-03  0.335740D-02
     29  0.207651D-03  0.151077D-02  0.108455D-02  0.414750D-02  0.604698D-02
     30  0.167262D-03  0.886903D-03  0.738162D-03  0.463598D-02  0.261590D-02
     31  0.825602D-03  0.160583D-02 -0.108317D-02  0.257590D-02  0.480325D-02
     32  0.142794D-03 -0.811175D-03 -0.172162D-03  0.717350D-03 -0.327214D-02
     33 -0.313856D-03 -0.109922D-02 -0.220385D-03 -0.219901D-02 -0.429127D-02
               21            22            23            24            25 
     21  0.948393D-01
     22  0.147475D-02  0.100559D+00
     23 -0.281755D-02 -0.365866D-01  0.794789D-01
     24 -0.436499D-02  0.404996D-01 -0.221260D-02  0.756625D-01
     25  0.194912D-02  0.188503D-02 -0.155949D-01  0.189601D-01  0.193817D+00
     26 -0.691563D-02 -0.183168D-01 -0.213944D-01  0.143360D-01  0.184666D+00
     27 -0.500632D-02  0.728356D-02 -0.428164D-02  0.188637D-01  0.950098D-01
     28  0.250171D-02 -0.523682D-01 -0.156350D-01 -0.182641D-01 -0.984859D-02
     29  0.103141D-02  0.468952D-02  0.131738D-01  0.115715D-02 -0.848403D-02
     30  0.501118D-04 -0.357424D-01 -0.837540D-02  0.553457D-02  0.500024D-02
     31  0.419877D-03 -0.581924D-02  0.130101D-02 -0.128042D-02 -0.321797D-04
     32 -0.161608D-02  0.352738D-02  0.204822D-03  0.191698D-02  0.323787D-02
     33 -0.246858D-02  0.330978D-02  0.554932D-02 -0.205885D-02  0.943377D-03
               26            27            28            29            30 
     26  0.290187D+00
     27  0.145237D+00  0.114712D+00
     28 -0.344797D-02 -0.209879D-02  0.432842D+00
     29 -0.487624D-03 -0.131721D-02 -0.573812D-01  0.445906D+00
     30  0.483915D-03  0.124562D-02 -0.476167D-01  0.326985D+00  0.311778D+00
     31  0.101208D-02  0.765761D-03 -0.212959D+00  0.193323D+00  0.162119D+00
     32  0.653253D-03  0.665370D-03  0.153621D+00 -0.204019D+00 -0.163818D+00
     33  0.273562D-03  0.287311D-03  0.128839D+00 -0.163015D+00 -0.141890D+00
               31            32            33 
     31  0.201842D+00
     32 -0.167157D+00  0.230148D+00
     33 -0.140554D+00  0.184100D+00  0.158505D+00
 Red2BG is reusing G-inverse.
 Leave Link  716 at Sat May 24 02:29:46 2025, MaxMem=  3758096384 cpu:               0.1 elap:               0.1
 (Enter /apps/easybuild-2022/easybuild/software/Compiler/NVHPC/22.11-CUDA-11.7.0/Gaussian/g16c01-CUDA-11.7.0/g16/l9999.exe)

 ----------------------------------------------------------------------

 Electric dipole moment (input orientation):
 (Debye = 10**-18 statcoulomb cm , SI units = C m)
                  (au)            (Debye)         (10**-30 SI)
   Tot        0.969452D+00      0.246410D+01      0.821936D+01
   x         -0.304570D+00     -0.774140D+00     -0.258225D+01
   y          0.557413D+00      0.141680D+01      0.472594D+01
   z          0.732370D+00      0.186150D+01      0.620929D+01

 Dipole polarizability, Alpha (input orientation).
 (esu units = cm**3 , SI units = C**2 m**2 J**-1)
 Alpha(0;0):
               (au)            (10**-24 esu)      (10**-40 SI)
   iso        0.498243D+02      0.738320D+01      0.821492D+01
   aniso      0.188210D+02      0.278898D+01      0.310316D+01
   xx         0.520716D+02      0.771622D+01      0.858545D+01
   yx         0.200652D+01      0.297335D+00      0.330830D+00
   yy         0.463069D+02      0.686197D+01      0.763497D+01
   zx        -0.992989D+01     -0.147146D+01     -0.163722D+01
   zy         0.243514D+01      0.360850D+00      0.401500D+00
   zz         0.510944D+02      0.757141D+01      0.842433D+01

 ----------------------------------------------------------------------

 Dipole orientation:
     6          2.77948969          1.01301730         -1.81560107
     8          2.76287863          0.54393181         -3.96736122
     6          0.64830345         -1.41880239          0.20284544
     6         -0.19951480         -1.04716209          2.96219744
     9         -2.51314333         -0.14528418          3.22314991
     9         -0.06913376         -3.29621918          4.07457905
     9          1.40787216          0.51294765          4.13233024
     9          0.33834443          2.01102406         -0.63893712
     9         -1.20242735         -2.40369831         -1.02531592
     8          4.63471775          1.74257141         -0.34270594
     1          4.05453040          2.01473573          1.36580693

 Electric dipole moment (dipole orientation):
 (Debye = 10**-18 statcoulomb cm , SI units = C m)
                  (au)            (Debye)         (10**-30 SI)
   Tot        0.969452D+00      0.246410D+01      0.821936D+01
   x          0.000000D+00      0.000000D+00      0.000000D+00
   y          0.000000D+00      0.000000D+00      0.000000D+00
   z          0.969452D+00      0.246410D+01      0.821936D+01

 Dipole polarizability, Alpha (dipole orientation).
 (esu units = cm**3 , SI units = C**2 m**2 J**-1)
 Alpha(0;0):
               (au)            (10**-24 esu)      (10**-40 SI)
   iso        0.498243D+02      0.738320D+01      0.821492D+01
   aniso      0.188210D+02      0.278898D+01      0.310316D+01
   xx         0.465728D+02      0.690138D+01      0.767882D+01
   yx         0.679765D+01      0.100731D+01      0.112078D+01
   yy         0.471879D+02      0.699253D+01      0.778024D+01
   zx        -0.501951D+01     -0.743814D+00     -0.827605D+00
   zy        -0.453637D+01     -0.672221D+00     -0.747947D+00
   zz         0.557121D+02      0.825568D+01      0.918569D+01

 ----------------------------------------------------------------------
 Unable to Open any file for archive entry.
 1\1\GINC-SPARTAN-BM202\Freq\RM062X\def2TZVPP\C3H1F5O2\AKHALILOV\24-May
 -2025\0\\#P M062X/Def2TZVPP Symm(None) scf(xqc) pop(None) opt(NoFreeze
 ,TS,CalcAll,NoEigentest,MaxCycle=999)\\Gaussian input prepared by ASE\
 \0,1\C,1.74514963,0.0340392106,-0.5719497392\O,2.0690406533,-0.8230508
 559,-1.2921847365\C,0.2127967104,-0.5123813261,0.6205624808\C,-0.64912
 93999,0.440651864,1.4696294544\F,-1.7988840062,0.7814392405,0.91489884
 45\F,-0.8914160995,-0.1798023654,2.620305651\F,0.0440566445,1.55430588
 7,1.729950167\F,0.3847075647,0.6877906344,-0.8110587404\F,-0.560951522
 3,-1.4098771186,0.1215708026\O,2.466552695,0.8965696127,0.1033172115\H
 ,1.9075731302,1.5017162168,0.6070556043\\Version=ES64L-G16RevC.01\HF=-
 764.5244308\RMSD=9.573e-09\RMSF=6.639e-06\ZeroPoint=0.048359\Thermal=0
 .0575689\ETot=-764.4668619\HTot=-764.4659178\GTot=-764.5110736\Dipole=
 -0.30457,0.5574127,0.7323703\DipoleDeriv=2.5258262,0.1224155,-0.653832
 ,-0.0149621,1.6734537,0.4673679,-0.5842834,0.5022352,1.8537669,-0.7889
 506,0.0986243,0.3185984,0.318236,-0.7791194,-0.4885756,0.4796228,-0.35
 54007,-0.9636502,0.4511797,0.339071,0.1589136,0.3747106,0.9236748,-0.0
 501786,0.3919843,0.228316,0.114868,1.5687617,0.1780093,0.101736,0.0087
 952,1.4168952,-0.0441171,-0.1000144,-0.1961106,1.7238513,-0.9245621,0.
 16331,-0.0464237,0.2765624,-0.3353011,-0.0394132,-0.1382771,0.0334827,
 -0.3993944,-0.3371657,-0.0547415,0.1702518,-0.0161797,-0.3986647,0.161
 6276,0.1668303,0.2388051,-0.8005863,-0.5042135,-0.1884985,0.0100978,-0
 .2567906,-0.6849332,-0.1481621,-0.0184558,-0.1358706,-0.3655948,-0.977
 0798,0.2296077,-0.0099868,0.0409249,-0.7231149,0.4426662,0.2279376,0.3
 638078,-0.8381313,-0.5855146,-0.5878408,0.009869,-0.3388153,-0.6385834
 ,-0.1267054,-0.2484255,-0.3946476,-0.0692083,-0.7493438,-0.3284706,-0.
 035079,-0.448802,-0.8625325,-0.1997068,-0.1750045,-0.3183447,-0.592235
 5,0.3210626,0.0285137,-0.0241454,0.0563205,0.4082254,0.025197,-0.00191
 43,0.0337275,0.3363146\Polar=52.0716223,2.0065194,46.3068545,-9.929885
 1,2.4351356,51.0943883\PG=Unknown\NImag=1\\0.31085112,-0.05342650,0.77
 909325,-0.03098258,0.57480745,0.56465580,-0.13321052,0.17222620,0.1313
 4760,0.16226283,0.13768524,-0.52716764,-0.37162836,-0.19011640,0.58952
 223,0.11078956,-0.39081433,-0.38518979,-0.15084018,0.44432537,0.421969
 06,-0.03276066,0.01529154,0.00365621,-0.00765578,-0.00251429,0.0131944
 8,0.41856273,-0.03946601,0.03006659,-0.03453596,0.01272318,-0.00857283
 ,-0.00907209,0.09133586,0.34830293,-0.00054295,-0.07106945,0.07078888,
 0.02186531,0.00128965,-0.04058252,0.06365658,0.20490332,0.21986435,-0.
 00114467,0.01764778,0.00371505,-0.00094674,-0.00477931,-0.00061635,-0.
 11322277,0.06468041,0.07431281,0.59884368,0.01936616,0.01685588,-0.007
 47301,-0.00601023,-0.00139040,0.00567445,0.04100726,-0.09302890,-0.054
 47971,-0.02093065,0.58218691,0.02750803,0.01004815,-0.01129602,-0.0083
 9311,0.00201942,0.00820985,0.01636033,-0.05134627,-0.06992713,-0.00383
 866,0.02562390,0.56264849,0.00670577,0.00882851,-0.01221445,-0.0033078
 2,0.00040110,0.00583633,-0.04793526,0.00798053,-0.01142366,-0.27428409
 ,0.07624025,-0.07227885,0.35753281,-0.00570901,-0.00822241,0.00726461,
 0.00233418,0.00066317,-0.00344305,0.03371201,-0.00451348,0.00354705,0.
 06956942,-0.10218543,0.02246666,-0.07734614,0.10117693,-0.00415078,-0.
 00083549,-0.00083750,0.00124664,-0.00015551,-0.00037605,0.00678624,-0.
 00318570,0.00362059,-0.07417901,0.02236005,-0.10437789,0.14232155,-0.0
 4517730,0.14475783,0.00264018,-0.00256573,-0.00043298,-0.00064798,0.00
 112825,0.00072642,0.00283165,-0.01201476,0.01460887,-0.09385031,-0.018
 02500,0.06002913,0.00529631,0.02196392,-0.04625558,0.09086655,-0.00209
 902,-0.00195953,-0.00021160,0.00036830,0.00060710,0.00009799,-0.000996
 45,0.00518290,0.00014189,-0.01636835,-0.10622198,0.07227838,0.01463662
 ,-0.00675192,0.03684851,0.03564568,0.15128305,-0.00674679,0.00069985,0
 .00164469,0.00250871,-0.00180267,-0.00250126,0.01260745,0.02483168,-0.
 03088268,0.05986893,0.07186814,-0.27786403,-0.02976898,0.03226314,-0.0
 4460546,-0.05652542,-0.15094386,0.35033934,-0.00724924,-0.00665754,-0.
 00239113,0.00158190,0.00187609,0.00047477,0.00500575,0.00395773,0.0015
 4233,-0.11352774,-0.07540962,-0.02196919,-0.05749866,-0.04263206,-0.03
 306179,-0.00584621,-0.03549983,0.01516882,0.16990965,-0.01034431,-0.00
 748316,0.00251046,0.00249799,0.00116821,-0.00134779,-0.02675768,-0.031
 51885,-0.00616554,-0.06922515,-0.24020463,-0.05356810,-0.02436243,0.00
 847458,-0.01086037,-0.03217337,-0.04778817,0.02961258,0.14509964,0.318
 39775,-0.00436154,0.00039250,0.00113768,0.00120967,-0.00068273,-0.0009
 0814,-0.01309666,-0.01698068,0.00154483,-0.01707550,-0.05541812,-0.090
 28583,-0.02890736,-0.01656979,-0.00130994,0.02130027,0.04442936,0.0067
 7190,0.03458568,0.05514731,0.09483927,-0.01991161,-0.05602909,0.028467
 50,-0.03388226,0.05146727,0.00967148,0.00154146,0.05989989,-0.06808972
 ,0.00465092,-0.00797351,0.00391746,0.00500089,-0.00353041,0.00313122,-
 0.00359301,0.00108643,0.00607679,0.00193680,0.00176589,0.00147475,0.10
 055918,0.02274223,-0.04753582,-0.01224810,0.03585480,-0.01802781,-0.00
 464581,0.00921448,-0.00704087,0.03631344,0.00278256,-0.01282846,-0.003
 43049,-0.00589402,0.00513038,-0.00117939,-0.00015579,0.00236597,-0.002
 67179,0.00197117,0.00647352,-0.00281755,-0.03658655,0.07947891,-0.0453
 0090,0.00919740,-0.06043775,0.02552455,-0.01983020,0.01327249,-0.01631
 500,-0.01148863,-0.03820559,-0.01356986,0.01885312,-0.00791923,0.00483
 761,-0.00315802,0.00129846,0.00440531,-0.00305257,-0.00164533,0.000503
 13,-0.00571860,-0.00436499,0.04049955,-0.00221260,0.07566250,0.0179458
 5,-0.00584326,-0.03524869,-0.00250495,0.00915487,0.00916934,-0.2164626
 0,-0.17731825,-0.10038213,0.00063284,0.00485475,0.00639038,0.00970322,
 -0.00113971,0.00221540,0.00204526,0.00112788,-0.00400693,0.00281945,0.
 00533878,0.00194912,0.00188503,-0.01559489,0.01896009,0.19381666,0.012
 24837,-0.00946729,-0.00793047,-0.00280162,0.00629949,0.00574165,-0.146
 59257,-0.22602877,-0.12879837,-0.03659665,-0.03589827,-0.01895000,0.00
 155326,0.00384780,0.00129148,0.00584637,0.00258298,-0.00476946,0.00242
 956,-0.01029409,-0.00691563,-0.01831682,-0.02139441,0.01433597,0.18466
 599,0.29018693,0.01505993,0.00130534,-0.01358764,-0.00402111,0.0039835
 4,0.00675360,-0.09002318,-0.11366601,-0.11371812,-0.02829714,-0.027884
 87,-0.00957518,0.00132021,0.00326849,0.00180020,0.00229057,0.00062421,
 -0.00177496,0.00271040,-0.00793458,-0.00500632,0.00728356,-0.00428164,
 0.01886372,0.09500980,0.14523736,0.11471176,-0.16919006,-0.07070686,-0
 .06789982,0.02248264,0.00129451,0.00505894,-0.00818776,-0.00820830,0.0
 0325626,-0.00042659,-0.00517163,-0.00690434,-0.00206884,0.00178505,0.0
 0122675,-0.00056804,0.00049291,0.00190060,0.00029239,0.00335740,0.0025
 0171,-0.05236815,-0.01563499,-0.01826406,-0.00984859,-0.00344797,-0.00
 209879,0.43284192,-0.09353516,-0.19418618,-0.12976369,-0.02440289,-0.0
 4633422,-0.04458279,-0.01067626,-0.01401652,0.01449352,-0.00516067,-0.
 01087827,-0.00726479,-0.00272743,0.00328433,0.00119175,0.00020765,0.00
 151077,0.00108455,0.00414750,0.00604698,0.00103141,0.00468952,0.013173
 77,0.00115715,-0.00848403,-0.00048762,-0.00131721,-0.05738125,0.445906
 34,-0.06935625,-0.11090300,-0.14808335,-0.01886333,-0.05559687,-0.0236
 1163,0.00325471,0.01265537,-0.00316415,-0.00472649,-0.00538341,-0.0038
 3860,0.00112771,0.00045031,0.00124092,0.00016726,0.00088690,0.00073816
 ,0.00463598,0.00261590,0.00005011,-0.03574236,-0.00837540,0.00553457,0
 .00500024,0.00048392,0.00124562,-0.04761668,0.32698461,0.31177814,0.02
 532384,-0.01876507,-0.01801672,-0.00417132,-0.00559733,-0.00346479,-0.
 00171676,-0.00357028,0.00119629,-0.00672452,-0.00794777,-0.00082116,0.
 00085567,0.00099275,0.00071937,0.00082560,0.00160583,-0.00108317,0.002
 57590,0.00480325,0.00041988,-0.00581924,0.00130101,-0.00128042,-0.0000
 3218,0.00101208,0.00076576,-0.21295892,0.19332302,0.16211920,0.2018419
 4,0.01253800,-0.02999369,-0.02079132,-0.00267351,0.00323270,-0.0019336
 2,-0.00302389,0.00116782,-0.00017580,-0.00161940,0.00359354,0.00212313
 ,0.00068976,-0.00090397,-0.00029802,0.00014279,-0.00081118,-0.00017216
 ,0.00071735,-0.00327214,-0.00161608,0.00352738,0.00020482,0.00191698,0
 .00323787,0.00065325,0.00066537,0.15362114,-0.20401938,-0.16381832,-0.
 16715749,0.23014822,0.00808429,-0.02282843,-0.01879499,-0.00158475,-0.
 00192163,0.00296437,-0.00008115,-0.00211501,0.00066153,0.00440622,0.00
 625946,0.00422557,-0.00085010,-0.00091209,-0.00121117,-0.00031386,-0.0
 0109922,-0.00022038,-0.00219901,-0.00429127,-0.00246858,0.00330978,0.0
 0554932,-0.00205885,0.00094338,0.00027356,0.00028731,0.12883945,-0.163
 01452,-0.14188979,-0.14055425,0.18409984,0.15850499\\-0.00000582,0.000
 01542,-0.00000041,-0.00000058,-0.00000728,-0.00000046,0.00000241,0.000
 00176,-0.00000241,-0.00000392,0.00000229,0.00000672,-0.00000083,0.0000
 0432,0.00000525,0.00000312,0.00000159,0.00000352,0.00000930,0.00000310
 ,0.00000047,0.00000422,0.00000045,0.00000312,-0.00000051,-0.00000059,0
 .00000291,-0.00000457,-0.00000730,0.00000472,-0.00000281,-0.00001377,-
 0.00002345\\\@
 The archive entry for this job was punched.


 A DANDELION FROM A LOVER MEANS MORE THAN AN ORCHID FROM A FRIEND.
 Job cpu time:       0 days  2 hours 54 minutes 53.1 seconds.
 Elapsed time:       0 days  0 hours 24 minutes 33.7 seconds.
 File lengths (MBytes):  RWF=    123 Int=      0 D2E=      0 Chk=      9 Scr=      1
 Normal termination of Gaussian 16 at Sat May 24 02:29:46 2025.
done
