 Entering Gaussian System, Link 0=g16
 Initial command:
 /apps/easybuild-2022/easybuild/software/Compiler/NVHPC/22.11-CUDA-11.7.0/Gaussian/g16c01-CUDA-11.7.0/g16/l1.exe "/tmp/Gau-284173.inp" -scrdir="/tmp/"
 Entering Link 1 = /apps/easybuild-2022/easybuild/software/Compiler/NVHPC/22.11-CUDA-11.7.0/Gaussian/g16c01-CUDA-11.7.0/g16/l1.exe PID=    284174.
  
 Copyright (c) 1988-2019, Gaussian, Inc.  All Rights Reserved.
  
 This is part of the Gaussian(R) 16 program.  It is based on
 the Gaussian(R) 09 system (copyright 2009, Gaussian, Inc.),
 the Gaussian(R) 03 system (copyright 2003, Gaussian, Inc.),
 the Gaussian(R) 98 system (copyright 1998, Gaussian, Inc.),
 the Gaussian(R) 94 system (copyright 1995, Gaussian, Inc.),
 the Gaussian 92(TM) system (copyright 1992, Gaussian, Inc.),
 the Gaussian 90(TM) system (copyright 1990, Gaussian, Inc.),
 the Gaussian 88(TM) system (copyright 1988, Gaussian, Inc.),
 the Gaussian 86(TM) system (copyright 1986, Carnegie Mellon
 University), and the Gaussian 82(TM) system (copyright 1983,
 Carnegie Mellon University). Gaussian is a federally registered
 trademark of Gaussian, Inc.
  
 This software contains proprietary and confidential information,
 including trade secrets, belonging to Gaussian, Inc.
  
 This software is provided under written license and may be
 used, copied, transmitted, or stored only in accord with that
 written license.
  
 The following legend is applicable only to US Government
 contracts under FAR:
  
                    RESTRICTED RIGHTS LEGEND
  
 Use, reproduction and disclosure by the US Government is
 subject to restrictions as set forth in subparagraphs (a)
 and (c) of the Commercial Computer Software - Restricted
 Rights clause in FAR 52.227-19.
  
 Gaussian, Inc.
 340 Quinnipiac St., Bldg. 40, Wallingford CT 06492
  
  
 ---------------------------------------------------------------
 Warning -- This program may not be used in any manner that
 competes with the business of Gaussian, Inc. or will provide
 assistance to any competitor of Gaussian, Inc.  The licensee
 of this program is prohibited from giving any competitor of
 Gaussian, Inc. access to this program.  By using this program,
 the user acknowledges that Gaussian, Inc. is engaged in the
 business of creating and licensing software in the field of
 computational chemistry and represents and warrants to the
 licensee that it is not a competitor of Gaussian, Inc. and that
 it will not use this program in any manner prohibited above.
 ---------------------------------------------------------------
  

 Cite this work as:
 Gaussian 16, Revision C.01,
 M. J. Frisch, G. W. Trucks, H. B. Schlegel, G. E. Scuseria, 
 M. A. Robb, J. R. Cheeseman, G. Scalmani, V. Barone, 
 G. A. Petersson, H. Nakatsuji, X. Li, M. Caricato, A. V. Marenich, 
 J. Bloino, B. G. Janesko, R. Gomperts, B. Mennucci, H. P. Hratchian, 
 J. V. Ortiz, A. F. Izmaylov, J. L. Sonnenberg, D. Williams-Young, 
 F. Ding, F. Lipparini, F. Egidi, J. Goings, B. Peng, A. Petrone, 
 T. Henderson, D. Ranasinghe, V. G. Zakrzewski, J. Gao, N. Rega, 
 G. Zheng, W. Liang, M. Hada, M. Ehara, K. Toyota, R. Fukuda, 
 J. Hasegawa, M. Ishida, T. Nakajima, Y. Honda, O. Kitao, H. Nakai, 
 T. Vreven, K. Throssell, J. A. Montgomery, Jr., J. E. Peralta, 
 F. Ogliaro, M. J. Bearpark, J. J. Heyd, E. N. Brothers, K. N. Kudin, 
 V. N. Staroverov, T. A. Keith, R. Kobayashi, J. Normand, 
 K. Raghavachari, A. P. Rendell, J. C. Burant, S. S. Iyengar, 
 J. Tomasi, M. Cossi, J. M. Millam, M. Klene, C. Adamo, R. Cammi, 
 J. W. Ochterski, R. L. Martin, K. Morokuma, O. Farkas, 
 J. B. Foresman, and D. J. Fox, Gaussian, Inc., Wallingford CT, 2019.
 
 ******************************************
 Gaussian 16:  ES64L-G16RevC.01  3-Jul-2019
                24-May-2025 
 ******************************************
 %mem=28GB
 %chk=1642764945472630600001_r12_insertion_R_3_1_10_IRC_R_prod
 %nprocshared=8
 Will use up to    8 processors via shared memory.
 -----------------------------------------------------------------
 #P M062X/Def2TZVPP Symm(None) scf(xqc) pop(None) freq opt(CalcFC)
 -----------------------------------------------------------------
 1/10=4,18=20,19=15,26=3,38=1/1,3;
 2/9=110,12=2,15=3,17=6,18=5,40=1/2;
 3/5=44,7=202,11=2,25=1,30=1,71=2,74=-55,140=1/1,2,3;
 4//1;
 5/5=2,8=3,13=1,38=5/2,8;
 8/6=4,10=90,11=11/1;
 11/6=1,8=1,9=11,15=111,16=1,31=1/1,2,10;
 10/6=1,13=1,31=1/2;
 7/10=1,25=1,30=1/1,2,3,16;
 1/10=4,18=20,19=15,26=3/3(2);
 2/9=110,15=3/2;
 99//99;
 2/9=110,15=3/2;
 3/5=44,7=202,11=2,25=1,30=1,71=1,74=-55/1,2,3;
 4/5=5,16=3,69=1/1;
 5/5=2,8=3,13=1,38=5/2,8;
 7/30=1/1,2,3,16;
 1/18=20,19=15,26=3/3(-5);
 2/9=110,15=3/2;
 99/9=1/99;
 Leave Link    1 at Sat May 24 04:20:57 2025, MaxMem=  3758096384 cpu:               0.0 elap:               0.0
 (Enter /apps/easybuild-2022/easybuild/software/Compiler/NVHPC/22.11-CUDA-11.7.0/Gaussian/g16c01-CUDA-11.7.0/g16/l101.exe)
 ------------------------------
 Gaussian input prepared by ASE
 ------------------------------
 Symbolic Z-matrix:
 Charge =  0 Multiplicity = 1
 C                     1.38434  -0.29415  -0.56963 
 O                     1.99494  -1.29151  -0.76978 
 C                    -0.15506  -0.1985   -0.60154 
 C                    -0.69941   0.25508   0.7765 
 F                    -1.97395  -0.06926   0.91218 
 F                     0.00107  -0.35833   1.73092 
 F                    -0.57213   1.56257   0.92523 
 F                    -0.53217   0.68655  -1.53765 
 F                    -0.6784   -1.38614  -0.89469 
 O                     1.88874   0.90047  -0.26857 
 H                     2.85331   0.82911  -0.2357 
 
 ITRead=  0  0  0  0  0  0  0  0  0  0  0
 MicOpt= -1 -1 -1 -1 -1 -1 -1 -1 -1 -1 -1
 NAtoms=     11 NQM=       11 NQMF=       0 NMMI=      0 NMMIF=      0
                NMic=       0 NMicF=      0.
                    Isotopes and Nuclear Properties:
 (Nuclear quadrupole moments (NQMom) in fm**2, nuclear magnetic moments (NMagM)
  in nuclear magnetons)

  Atom         1           2           3           4           5           6           7           8           9          10
 IAtWgt=          12          16          12          12          19          19          19          19          19          16
 AtmWgt=  12.0000000  15.9949146  12.0000000  12.0000000  18.9984032  18.9984032  18.9984032  18.9984032  18.9984032  15.9949146
 NucSpn=           0           0           0           0           1           1           1           1           1           0
 AtZEff=  -0.0000000  -0.0000000  -0.0000000  -0.0000000  -0.0000000  -0.0000000  -0.0000000  -0.0000000  -0.0000000  -0.0000000
 NQMom=    0.0000000   0.0000000   0.0000000   0.0000000   0.0000000   0.0000000   0.0000000   0.0000000   0.0000000   0.0000000
 NMagM=    0.0000000   0.0000000   0.0000000   0.0000000   2.6288670   2.6288670   2.6288670   2.6288670   2.6288670   0.0000000
 AtZNuc=   6.0000000   8.0000000   6.0000000   6.0000000   9.0000000   9.0000000   9.0000000   9.0000000   9.0000000   8.0000000

  Atom        11
 IAtWgt=           1
 AtmWgt=   1.0078250
 NucSpn=           1
 AtZEff=  -0.0000000
 NQMom=    0.0000000
 NMagM=    2.7928460
 AtZNuc=   1.0000000
 Leave Link  101 at Sat May 24 04:20:57 2025, MaxMem=  3758096384 cpu:               0.2 elap:               0.2
 (Enter /apps/easybuild-2022/easybuild/software/Compiler/NVHPC/22.11-CUDA-11.7.0/Gaussian/g16c01-CUDA-11.7.0/g16/l103.exe)

 GradGradGradGradGradGradGradGradGradGradGradGradGradGradGradGradGradGrad
 Berny optimization.
 Initialization pass.
                           ----------------------------
                           !    Initial Parameters    !
                           ! (Angstroms and Degrees)  !
 --------------------------                            --------------------------
 ! Name  Definition              Value          Derivative Info.                !
 --------------------------------------------------------------------------------
 ! R1    R(1,2)                  1.1864         calculate D2E/DX2 analytically  !
 ! R2    R(1,3)                  1.5427         calculate D2E/DX2 analytically  !
 ! R3    R(1,10)                 1.3312         calculate D2E/DX2 analytically  !
 ! R4    R(3,4)                  1.5495         calculate D2E/DX2 analytically  !
 ! R5    R(3,8)                  1.3423         calculate D2E/DX2 analytically  !
 ! R6    R(3,9)                  1.3305         calculate D2E/DX2 analytically  !
 ! R7    R(4,5)                  1.3221         calculate D2E/DX2 analytically  !
 ! R8    R(4,6)                  1.3334         calculate D2E/DX2 analytically  !
 ! R9    R(4,7)                  1.3221         calculate D2E/DX2 analytically  !
 ! R10   R(10,11)                0.9678         calculate D2E/DX2 analytically  !
 ! A1    A(2,1,3)              124.207          calculate D2E/DX2 analytically  !
 ! A2    A(2,1,10)             126.6924         calculate D2E/DX2 analytically  !
 ! A3    A(3,1,10)             109.0947         calculate D2E/DX2 analytically  !
 ! A4    A(1,3,4)              110.5058         calculate D2E/DX2 analytically  !
 ! A5    A(1,3,8)              109.6115         calculate D2E/DX2 analytically  !
 ! A6    A(1,3,9)              109.981          calculate D2E/DX2 analytically  !
 ! A7    A(4,3,8)              109.178          calculate D2E/DX2 analytically  !
 ! A8    A(4,3,9)              108.6052         calculate D2E/DX2 analytically  !
 ! A9    A(8,3,9)              108.9282         calculate D2E/DX2 analytically  !
 ! A10   A(3,4,5)              110.9842         calculate D2E/DX2 analytically  !
 ! A11   A(3,4,6)              108.503          calculate D2E/DX2 analytically  !
 ! A12   A(3,4,7)              110.8375         calculate D2E/DX2 analytically  !
 ! A13   A(5,4,6)              108.6705         calculate D2E/DX2 analytically  !
 ! A14   A(5,4,7)              108.8972         calculate D2E/DX2 analytically  !
 ! A15   A(6,4,7)              108.8974         calculate D2E/DX2 analytically  !
 ! A16   A(1,10,11)            108.6123         calculate D2E/DX2 analytically  !
 ! D1    D(2,1,3,4)            119.3747         calculate D2E/DX2 analytically  !
 ! D2    D(2,1,3,8)           -120.2551         calculate D2E/DX2 analytically  !
 ! D3    D(2,1,3,9)             -0.5216         calculate D2E/DX2 analytically  !
 ! D4    D(10,1,3,4)           -59.7949         calculate D2E/DX2 analytically  !
 ! D5    D(10,1,3,8)            60.5753         calculate D2E/DX2 analytically  !
 ! D6    D(10,1,3,9)          -179.6912         calculate D2E/DX2 analytically  !
 ! D7    D(2,1,10,11)           -0.0906         calculate D2E/DX2 analytically  !
 ! D8    D(3,1,10,11)          179.053          calculate D2E/DX2 analytically  !
 ! D9    D(1,3,4,5)           -159.5038         calculate D2E/DX2 analytically  !
 ! D10   D(1,3,4,6)            -40.1692         calculate D2E/DX2 analytically  !
 ! D11   D(1,3,4,7)             79.3559         calculate D2E/DX2 analytically  !
 ! D12   D(8,3,4,5)             79.8669         calculate D2E/DX2 analytically  !
 ! D13   D(8,3,4,6)           -160.7985         calculate D2E/DX2 analytically  !
 ! D14   D(8,3,4,7)            -41.2734         calculate D2E/DX2 analytically  !
 ! D15   D(9,3,4,5)            -38.7837         calculate D2E/DX2 analytically  !
 ! D16   D(9,3,4,6)             80.5509         calculate D2E/DX2 analytically  !
 ! D17   D(9,3,4,7)           -159.924          calculate D2E/DX2 analytically  !
 --------------------------------------------------------------------------------
 Trust Radius=3.00D-01 FncErr=1.00D-07 GrdErr=1.00D-06 EigMax=2.50D+02 EigMin=1.00D-04
 Number of steps in this run=     53 maximum allowed number of steps=    100.
 GradGradGradGradGradGradGradGradGradGradGradGradGradGradGradGradGradGrad

 Leave Link  103 at Sat May 24 04:20:57 2025, MaxMem=  3758096384 cpu:               0.0 elap:               0.0
 (Enter /apps/easybuild-2022/easybuild/software/Compiler/NVHPC/22.11-CUDA-11.7.0/Gaussian/g16c01-CUDA-11.7.0/g16/l202.exe)
                          Input orientation:                          
 ---------------------------------------------------------------------
 Center     Atomic      Atomic             Coordinates (Angstroms)
 Number     Number       Type             X           Y           Z
 ---------------------------------------------------------------------
      1          6           0        1.384342   -0.294151   -0.569632
      2          8           0        1.994943   -1.291506   -0.769776
      3          6           0       -0.155062   -0.198504   -0.601541
      4          6           0       -0.699414    0.255076    0.776503
      5          9           0       -1.973946   -0.069258    0.912184
      6          9           0        0.001068   -0.358334    1.730916
      7          9           0       -0.572132    1.562574    0.925231
      8          9           0       -0.532171    0.686550   -1.537653
      9          9           0       -0.678403   -1.386143   -0.894688
     10          8           0        1.888743    0.900465   -0.268572
     11          1           0        2.853308    0.829108   -0.235699
 ---------------------------------------------------------------------
                    Distance matrix (angstroms):
                    1          2          3          4          5
     1  C    0.000000
     2  O    1.186427   0.000000
     3  C    1.542703   2.417742   0.000000
     4  C    2.540820   3.470224   1.549535   0.000000
     5  F    3.677561   4.480509   2.369896   1.322132   0.000000
     6  F    2.685161   3.331637   2.343134   1.333361   2.157445
     7  F    3.083802   4.196272   2.367779   1.322071   2.151309
     8  F    2.360479   3.299795   1.342325   2.359970   2.941371
     9  F    2.356486   2.677935   1.330529   2.342418   2.584067
    10  O    1.331227   2.251049   2.344299   2.864833   4.153903
    11  H    1.879118   2.349262   3.200018   3.738435   5.042527
                    6          7          8          9         10
     6  F    0.000000
     7  F    2.160457   0.000000
     8  F    3.472704   2.614347   0.000000
     9  F    2.900322   3.466746   2.175050   0.000000
    10  O    3.024210   2.814153   2.741742   3.494401   0.000000
    11  H    3.662358   3.690443   3.629997   4.220733   0.967759
                   11
    11  H    0.000000
 Symmetry turned off by external request.
 Stoichiometry    C3HF5O2
 Rotational constants (GHZ):           1.8960749           1.2287953           1.1189661
 Leave Link  202 at Sat May 24 04:20:57 2025, MaxMem=  3758096384 cpu:               0.0 elap:               0.0
 (Enter /apps/easybuild-2022/easybuild/software/Compiler/NVHPC/22.11-CUDA-11.7.0/Gaussian/g16c01-CUDA-11.7.0/g16/l301.exe)
 Standard basis: def2TZVPP (5D, 7F)
 Ernie: Thresh=  0.10000D-02 Tol=  0.10000D-05 Strict=F.
   324 basis functions,   527 primitive gaussians,   375 cartesian basis functions
    40 alpha electrons       40 beta electrons
       nuclear repulsion energy       642.1330548032 Hartrees.
 IExCor= 4336 DFT=T Ex+Corr=M062X ExCW=0 ScaHFX=  0.540000
 ScaDFX=  1.000000  1.000000  1.000000  1.000000 ScalE2=  1.000000  1.000000
 IRadAn=      5 IRanWt=     -1 IRanGd=            0 ICorTp=0 IEmpDi=  4
 NAtoms=   11 NActive=   11 NUniq=   11 SFac= 1.00D+00 NAtFMM=   60 NAOKFM=F Big=F
 Integral buffers will be    131072 words long.
 Raffenetti 2 integral format.
 Two-electron integral symmetry is turned off.
 Leave Link  301 at Sat May 24 04:20:57 2025, MaxMem=  3758096384 cpu:               0.0 elap:               0.0
 (Enter /apps/easybuild-2022/easybuild/software/Compiler/NVHPC/22.11-CUDA-11.7.0/Gaussian/g16c01-CUDA-11.7.0/g16/l302.exe)
 NPDir=0 NMtPBC=     1 NCelOv=     1 NCel=       1 NClECP=     1 NCelD=      1
         NCelK=      1 NCelE2=     1 NClLst=     1 CellRange=     0.0.
 One-electron integrals computed using PRISM.
   1 Symmetry operations used in ECPInt.
 ECPInt:  NShTT=    6786 NPrTT=   21959 LenC2=    6496 LenP2D=   16034.
 LDataN:  DoStor=T MaxTD1= 6 Len=  172
 NBasis=   324 RedAO= T EigKep=  2.90D-04  NBF=   324
 NBsUse=   324 1.00D-06 EigRej= -1.00D+00 NBFU=   324
 Precomputing XC quadrature grid using
 IXCGrd= 4 IRadAn=           5 IRanWt=          -1 IRanGd=           0 AccXCQ= 0.00D+00.
 Generated NRdTot=       0 NPtTot=           0 NUsed=           0 NTot=          32
 NSgBfM=   374   374   374   374   374 MxSgAt=    11 MxSgA2=    11.
 Leave Link  302 at Sat May 24 04:20:57 2025, MaxMem=  3758096384 cpu:               0.6 elap:               0.1
 (Enter /apps/easybuild-2022/easybuild/software/Compiler/NVHPC/22.11-CUDA-11.7.0/Gaussian/g16c01-CUDA-11.7.0/g16/l303.exe)
 DipDrv:  MaxL=1.
 Leave Link  303 at Sat May 24 04:20:57 2025, MaxMem=  3758096384 cpu:               0.1 elap:               0.0
 (Enter /apps/easybuild-2022/easybuild/software/Compiler/NVHPC/22.11-CUDA-11.7.0/Gaussian/g16c01-CUDA-11.7.0/g16/l401.exe)
 ExpMin= 9.52D-02 ExpMax= 3.55D+04 ExpMxC= 1.21D+03 IAcc=3 IRadAn=         5 AccDes= 0.00D+00
 Harris functional with IExCor= 1009 and IRadAn=       5 diagonalized for initial guess.
 HarFok:  IExCor= 1009 AccDes= 0.00D+00 IRadAn=         5 IDoV= 1 UseB2=F ITyADJ=14
 ICtDFT=  3500011 ScaDFX=  1.000000  1.000000  1.000000  1.000000
 FoFCou: FMM=F IPFlag=           0 FMFlag=      100000 FMFlg1=           0
         NFxFlg=           0 DoJE=T BraDBF=F KetDBF=T FulRan=T
         wScrn=  0.000000 ICntrl=       500 IOpCl=  0 I1Cent=   200000004 NGrid=           0
         NMat0=    1 NMatS0=      1 NMatT0=    0 NMatD0=    1 NMtDS0=    0 NMtDT0=    0
 Symmetry not used in FoFCou.
 Harris En= -764.197879616067    
 JPrj=0 DoOrth=F DoCkMO=F.
 Leave Link  401 at Sat May 24 04:20:58 2025, MaxMem=  3758096384 cpu:               3.7 elap:               0.5
 (Enter /apps/easybuild-2022/easybuild/software/Compiler/NVHPC/22.11-CUDA-11.7.0/Gaussian/g16c01-CUDA-11.7.0/g16/l502.exe)
 Keep R1 ints in memory in canonical form, NReq=1412617130.
 FoFCou: FMM=F IPFlag=           0 FMFlag=           0 FMFlg1=           0
         NFxFlg=           0 DoJE=F BraDBF=F KetDBF=F FulRan=T
         wScrn=  0.000000 ICntrl=       600 IOpCl=  0 I1Cent=           0 NGrid=           0
         NMat0=    1 NMatS0=  52650 NMatT0=    0 NMatD0=    1 NMtDS0=    0 NMtDT0=    0
 Symmetry not used in FoFCou.
 Two-electron integral symmetry not used.
 Closed shell SCF:
 Using DIIS extrapolation, IDIIS=  1040.
 NGot=  3758096384 LenX=  2371771924 LenY=  2371630858
 Requested convergence on RMS density matrix=1.00D-08 within  32 cycles.
 Requested convergence on MAX density matrix=1.00D-06.
 Requested convergence on             energy=1.00D-06.
 No special actions if energy rises.
 Integral accuracy reduced to 1.0D-05 until final iterations.

 Cycle   1  Pass 0  IDiag  1:
 E= -764.497247147386    
 DIIS: error= 2.15D-02 at cycle   1 NSaved=   1.
 NSaved= 1 IEnMin= 1 EnMin= -764.497247147386     IErMin= 1 ErrMin= 2.15D-02
 ErrMax= 2.15D-02  0.00D+00 EMaxC= 1.00D-01 BMatC= 3.47D-01 BMatP= 3.47D-01
 IDIUse=3 WtCom= 7.85D-01 WtEn= 2.15D-01
 Coeff-Com:  0.100D+01
 Coeff-En:   0.100D+01
 Coeff:      0.100D+01
 Gap=     0.433 Goal=   None    Shift=    0.000
 GapD=    0.433 DampG=2.000 DampE=0.500 DampFc=1.0000 IDamp=-1.
 RMSDP=2.09D-03 MaxDP=9.45D-02              OVMax= 2.03D-01

 Cycle   2  Pass 0  IDiag  1:
 E= -764.406500219707     Delta-E=        0.090746927679 Rises=F Damp=F
 DIIS: error= 2.12D-02 at cycle   2 NSaved=   2.
 NSaved= 2 IEnMin= 1 EnMin= -764.497247147386     IErMin= 2 ErrMin= 2.12D-02
 ErrMax= 2.12D-02  0.00D+00 EMaxC= 1.00D-01 BMatC= 4.17D-01 BMatP= 3.47D-01
 IDIUse=2 WtCom= 0.00D+00 WtEn= 1.00D+00
 Coeff-En:   0.602D+00 0.398D+00
 Coeff:      0.602D+00 0.398D+00
 Gap=     0.407 Goal=   None    Shift=    0.000
 RMSDP=1.04D-03 MaxDP=5.18D-02 DE= 9.07D-02 OVMax= 1.07D-01

 Cycle   3  Pass 0  IDiag  1:
 E= -764.663817200352     Delta-E=       -0.257316980645 Rises=F Damp=F
 DIIS: error= 2.84D-03 at cycle   3 NSaved=   3.
 NSaved= 3 IEnMin= 3 EnMin= -764.663817200352     IErMin= 3 ErrMin= 2.84D-03
 ErrMax= 2.84D-03  0.00D+00 EMaxC= 1.00D-01 BMatC= 5.39D-03 BMatP= 3.47D-01
 IDIUse=3 WtCom= 9.72D-01 WtEn= 2.84D-02
 Coeff-Com:  0.893D-01 0.467D-01 0.864D+00
 Coeff-En:   0.000D+00 0.000D+00 0.100D+01
 Coeff:      0.867D-01 0.454D-01 0.868D+00
 Gap=     0.392 Goal=   None    Shift=    0.000
 RMSDP=2.38D-04 MaxDP=1.33D-02 DE=-2.57D-01 OVMax= 3.75D-02

 Cycle   4  Pass 0  IDiag  1:
 E= -764.664001460986     Delta-E=       -0.000184260634 Rises=F Damp=F
 DIIS: error= 3.38D-03 at cycle   4 NSaved=   4.
 NSaved= 4 IEnMin= 4 EnMin= -764.664001460986     IErMin= 3 ErrMin= 2.84D-03
 ErrMax= 3.38D-03  0.00D+00 EMaxC= 1.00D-01 BMatC= 5.25D-03 BMatP= 5.39D-03
 IDIUse=3 WtCom= 9.66D-01 WtEn= 3.38D-02
 Coeff-Com: -0.918D-03-0.225D-01 0.516D+00 0.507D+00
 Coeff-En:   0.000D+00 0.000D+00 0.487D+00 0.513D+00
 Coeff:     -0.887D-03-0.218D-01 0.515D+00 0.508D+00
 Gap=     0.400 Goal=   None    Shift=    0.000
 RMSDP=1.18D-04 MaxDP=6.57D-03 DE=-1.84D-04 OVMax= 1.86D-02

 Cycle   5  Pass 0  IDiag  1:
 E= -764.667407522452     Delta-E=       -0.003406061466 Rises=F Damp=F
 DIIS: error= 2.54D-04 at cycle   5 NSaved=   5.
 NSaved= 5 IEnMin= 5 EnMin= -764.667407522452     IErMin= 5 ErrMin= 2.54D-04
 ErrMax= 2.54D-04  0.00D+00 EMaxC= 1.00D-01 BMatC= 6.13D-05 BMatP= 5.25D-03
 IDIUse=3 WtCom= 9.97D-01 WtEn= 2.54D-03
 Coeff-Com: -0.341D-02-0.115D-01 0.168D+00 0.186D+00 0.661D+00
 Coeff-En:   0.000D+00 0.000D+00 0.000D+00 0.000D+00 0.100D+01
 Coeff:     -0.340D-02-0.114D-01 0.167D+00 0.185D+00 0.662D+00
 Gap=     0.400 Goal=   None    Shift=    0.000
 RMSDP=2.02D-05 MaxDP=8.03D-04 DE=-3.41D-03 OVMax= 2.44D-03

 Cycle   6  Pass 0  IDiag  1:
 E= -764.667455899654     Delta-E=       -0.000048377202 Rises=F Damp=F
 DIIS: error= 7.46D-05 at cycle   6 NSaved=   6.
 NSaved= 6 IEnMin= 6 EnMin= -764.667455899654     IErMin= 6 ErrMin= 7.46D-05
 ErrMax= 7.46D-05  0.00D+00 EMaxC= 1.00D-01 BMatC= 4.49D-06 BMatP= 6.13D-05
 IDIUse=1 WtCom= 1.00D+00 WtEn= 0.00D+00
 Coeff-Com: -0.843D-03-0.180D-02 0.771D-02 0.366D-02 0.176D+00 0.815D+00
 Coeff:     -0.843D-03-0.180D-02 0.771D-02 0.366D-02 0.176D+00 0.815D+00
 Gap=     0.400 Goal=   None    Shift=    0.000
 RMSDP=7.03D-06 MaxDP=2.92D-04 DE=-4.84D-05 OVMax= 7.07D-04

 Initial convergence to 1.0D-05 achieved.  Increase integral accuracy.
 Cycle   7  Pass 1  IDiag  1:
 E= -764.667480491551     Delta-E=       -0.000024591897 Rises=F Damp=F
 DIIS: error= 2.64D-05 at cycle   1 NSaved=   1.
 NSaved= 1 IEnMin= 1 EnMin= -764.667480491551     IErMin= 1 ErrMin= 2.64D-05
 ErrMax= 2.64D-05  0.00D+00 EMaxC= 1.00D-01 BMatC= 1.08D-06 BMatP= 1.08D-06
 IDIUse=1 WtCom= 1.00D+00 WtEn= 0.00D+00
 Coeff-Com:  0.100D+01
 Coeff:      0.100D+01
 Gap=     0.400 Goal=   None    Shift=    0.000
 RMSDP=7.03D-06 MaxDP=2.92D-04 DE=-2.46D-05 OVMax= 2.71D-04

 Cycle   8  Pass 1  IDiag  1:
 E= -764.667481123389     Delta-E=       -0.000000631838 Rises=F Damp=F
 DIIS: error= 3.46D-05 at cycle   2 NSaved=   2.
 NSaved= 2 IEnMin= 2 EnMin= -764.667481123389     IErMin= 1 ErrMin= 2.64D-05
 ErrMax= 3.46D-05  0.00D+00 EMaxC= 1.00D-01 BMatC= 6.20D-07 BMatP= 1.08D-06
 IDIUse=1 WtCom= 1.00D+00 WtEn= 0.00D+00
 Coeff-Com:  0.411D+00 0.589D+00
 Coeff:      0.411D+00 0.589D+00
 Gap=     0.400 Goal=   None    Shift=    0.000
 RMSDP=1.56D-06 MaxDP=6.64D-05 DE=-6.32D-07 OVMax= 2.05D-04

 Cycle   9  Pass 1  IDiag  1:
 E= -764.667481460746     Delta-E=       -0.000000337357 Rises=F Damp=F
 DIIS: error= 8.94D-06 at cycle   3 NSaved=   3.
 NSaved= 3 IEnMin= 3 EnMin= -764.667481460746     IErMin= 3 ErrMin= 8.94D-06
 ErrMax= 8.94D-06  0.00D+00 EMaxC= 1.00D-01 BMatC= 7.66D-08 BMatP= 6.20D-07
 IDIUse=1 WtCom= 1.00D+00 WtEn= 0.00D+00
 Coeff-Com: -0.334D-01 0.229D+00 0.804D+00
 Coeff:     -0.334D-01 0.229D+00 0.804D+00
 Gap=     0.400 Goal=   None    Shift=    0.000
 RMSDP=9.21D-07 MaxDP=3.40D-05 DE=-3.37D-07 OVMax= 8.73D-05

 Cycle  10  Pass 1  IDiag  1:
 E= -764.667481510609     Delta-E=       -0.000000049863 Rises=F Damp=F
 DIIS: error= 7.57D-06 at cycle   4 NSaved=   4.
 NSaved= 4 IEnMin= 4 EnMin= -764.667481510609     IErMin= 4 ErrMin= 7.57D-06
 ErrMax= 7.57D-06  0.00D+00 EMaxC= 1.00D-01 BMatC= 1.15D-08 BMatP= 7.66D-08
 IDIUse=1 WtCom= 1.00D+00 WtEn= 0.00D+00
 Coeff-Com: -0.386D-01 0.865D-01 0.398D+00 0.554D+00
 Coeff:     -0.386D-01 0.865D-01 0.398D+00 0.554D+00
 Gap=     0.400 Goal=   None    Shift=    0.000
 RMSDP=2.36D-07 MaxDP=1.98D-05 DE=-4.99D-08 OVMax= 5.85D-05

 Cycle  11  Pass 1  IDiag  1:
 E= -764.667481519668     Delta-E=       -0.000000009059 Rises=F Damp=F
 DIIS: error= 1.44D-06 at cycle   5 NSaved=   5.
 NSaved= 5 IEnMin= 5 EnMin= -764.667481519668     IErMin= 5 ErrMin= 1.44D-06
 ErrMax= 1.44D-06  0.00D+00 EMaxC= 1.00D-01 BMatC= 1.72D-09 BMatP= 1.15D-08
 IDIUse=1 WtCom= 1.00D+00 WtEn= 0.00D+00
 Coeff-Com: -0.441D-02-0.244D-01-0.819D-01 0.226D+00 0.885D+00
 Coeff:     -0.441D-02-0.244D-01-0.819D-01 0.226D+00 0.885D+00
 Gap=     0.400 Goal=   None    Shift=    0.000
 RMSDP=1.60D-07 MaxDP=7.69D-06 DE=-9.06D-09 OVMax= 1.89D-05

 Cycle  12  Pass 1  IDiag  1:
 E= -764.667481521377     Delta-E=       -0.000000001709 Rises=F Damp=F
 DIIS: error= 4.54D-07 at cycle   6 NSaved=   6.
 NSaved= 6 IEnMin= 6 EnMin= -764.667481521377     IErMin= 6 ErrMin= 4.54D-07
 ErrMax= 4.54D-07  0.00D+00 EMaxC= 1.00D-01 BMatC= 1.25D-10 BMatP= 1.72D-09
 IDIUse=1 WtCom= 1.00D+00 WtEn= 0.00D+00
 Coeff-Com:  0.320D-02-0.196D-01-0.841D-01 0.392D-01 0.330D+00 0.731D+00
 Coeff:      0.320D-02-0.196D-01-0.841D-01 0.392D-01 0.330D+00 0.731D+00
 Gap=     0.400 Goal=   None    Shift=    0.000
 RMSDP=4.07D-08 MaxDP=1.47D-06 DE=-1.71D-09 OVMax= 6.41D-06

 Cycle  13  Pass 1  IDiag  1:
 E= -764.667481521551     Delta-E=       -0.000000000174 Rises=F Damp=F
 DIIS: error= 1.06D-07 at cycle   7 NSaved=   7.
 NSaved= 7 IEnMin= 7 EnMin= -764.667481521551     IErMin= 7 ErrMin= 1.06D-07
 ErrMax= 1.06D-07  0.00D+00 EMaxC= 1.00D-01 BMatC= 1.27D-11 BMatP= 1.25D-10
 IDIUse=1 WtCom= 1.00D+00 WtEn= 0.00D+00
 Coeff-Com:  0.146D-02-0.647D-02-0.291D-01 0.471D-02 0.721D-01 0.298D+00
 Coeff-Com:  0.659D+00
 Coeff:      0.146D-02-0.647D-02-0.291D-01 0.471D-02 0.721D-01 0.298D+00
 Coeff:      0.659D+00
 Gap=     0.400 Goal=   None    Shift=    0.000
 RMSDP=9.51D-09 MaxDP=3.20D-07 DE=-1.74D-10 OVMax= 9.89D-07

 SCF Done:  E(RM062X) =  -764.667481522     A.U. after   13 cycles
            NFock= 13  Conv=0.95D-08     -V/T= 2.0036
 KE= 7.618984588840D+02 PE=-3.096745699294D+03 EE= 9.280467040848D+02
 Leave Link  502 at Sat May 24 04:21:23 2025, MaxMem=  3758096384 cpu:             109.6 elap:              24.9
 (Enter /apps/easybuild-2022/easybuild/software/Compiler/NVHPC/22.11-CUDA-11.7.0/Gaussian/g16c01-CUDA-11.7.0/g16/l508.exe)
 QCSCF skips out because SCF is already converged.
 Leave Link  508 at Sat May 24 04:21:23 2025, MaxMem=  3758096384 cpu:               0.0 elap:               0.0
 (Enter /apps/easybuild-2022/easybuild/software/Compiler/NVHPC/22.11-CUDA-11.7.0/Gaussian/g16c01-CUDA-11.7.0/g16/l801.exe)
 DoSCS=F DFT=T ScalE2(SS,OS)=  1.000000  1.000000
 Range of M.O.s used for correlation:     1   324
 NBasis=   324 NAE=    40 NBE=    40 NFC=     0 NFV=     0
 NROrb=    324 NOA=    40 NOB=    40 NVA=   284 NVB=   284

 **** Warning!!: The largest alpha MO coefficient is  0.14861239D+02

 Leave Link  801 at Sat May 24 04:21:23 2025, MaxMem=  3758096384 cpu:               0.0 elap:               0.0
 (Enter /apps/easybuild-2022/easybuild/software/Compiler/NVHPC/22.11-CUDA-11.7.0/Gaussian/g16c01-CUDA-11.7.0/g16/l1101.exe)
 Using compressed storage, NAtomX=    11.
 Will process     12 centers per pass.
   1 Symmetry operations used in ECPInt.
 ECPInt:  NShTT=    6786 NPrTT=   21959 LenC2=    6496 LenP2D=   16034.
 LDataN:  DoStor=T MaxTD1= 7 Len=  274
 Leave Link 1101 at Sat May 24 04:21:23 2025, MaxMem=  3758096384 cpu:               0.9 elap:               0.2
 (Enter /apps/easybuild-2022/easybuild/software/Compiler/NVHPC/22.11-CUDA-11.7.0/Gaussian/g16c01-CUDA-11.7.0/g16/l1102.exe)
 Symmetrizing basis deriv contribution to polar:
 IMax=3 JMax=2 DiffMx= 0.00D+00
 Leave Link 1102 at Sat May 24 04:21:23 2025, MaxMem=  3758096384 cpu:               0.1 elap:               0.0
 (Enter /apps/easybuild-2022/easybuild/software/Compiler/NVHPC/22.11-CUDA-11.7.0/Gaussian/g16c01-CUDA-11.7.0/g16/l1110.exe)
 Forming Gx(P) for the SCF density, NAtomX=    11.
 Integral derivatives from FoFJK, PRISM(SPDF).
 Do as many integral derivatives as possible in FoFJK.
 G2DrvN: MDV=    3758095115.
 G2DrvN: will do    12 centers at a time, making    1 passes.
 Calling FoFCou, ICntrl=  3107 FMM=F I1Cent=   0 AccDes= 0.00D+00.
 FoFJK:  IHMeth= 1 ICntrl=    3107 DoSepK=F KAlg= 0 I1Cent=           0 FoldK=F
 IRaf=         0 NMat=       1 IRICut=       1 DoRegI=T DoRafI=F ISym2E= 0 IDoP0=0 IntGTp=1.
 FoFCou: FMM=F IPFlag=           0 FMFlag=      100000 FMFlg1=           0
         NFxFlg=           0 DoJE=F BraDBF=F KetDBF=F FulRan=T
         wScrn=  0.000000 ICntrl=      3107 IOpCl=  0 I1Cent=           0 NGrid=           0
         NMat0=    1 NMatS0=      1 NMatT0=    0 NMatD0=    1 NMtDS0=    0 NMtDT0=    0
 Symmetry not used in FoFCou.
 End of G2Drv F.D. properties file   721 does not exist.
 End of G2Drv F.D. properties file   722 does not exist.
 End of G2Drv F.D. properties file   788 does not exist.
 Leave Link 1110 at Sat May 24 04:22:08 2025, MaxMem=  3758096384 cpu:             351.4 elap:              44.4
 (Enter /apps/easybuild-2022/easybuild/software/Compiler/NVHPC/22.11-CUDA-11.7.0/Gaussian/g16c01-CUDA-11.7.0/g16/l1002.exe)
 Minotr:  Closed shell wavefunction.
          IDoAtm=11111111111
          Direct CPHF calculation.
          Differentiating once with respect to nuclear coordinates.
          Requested convergence is 1.0D-08 RMS, and 1.0D-07 maximum.
          Secondary convergence is 1.0D-12 RMS, and 1.0D-12 maximum.
          NewPWx=T KeepS1=F KeepF1=F KeepIn=T MapXYZ=F SortEE=F KeepMc=T.
         3300 words used for storage of precomputed grid.
 Keep R1 ints in memory in canonical form, NReq=1412622530.
 FoFCou: FMM=F IPFlag=           0 FMFlag=           0 FMFlg1=           0
         NFxFlg=           0 DoJE=F BraDBF=F KetDBF=F FulRan=T
         wScrn=  0.000000 ICntrl=       600 IOpCl=  0 I1Cent=           0 NGrid=           0
         NMat0=    1 NMatS0=  52650 NMatT0=    0 NMatD0=    1 NMtDS0=    0 NMtDT0=    0
 Symmetry not used in FoFCou.
 Two-electron integral symmetry not used.
          MDV=    3758096384 using IRadAn=       1.
          Solving linear equations simultaneously, MaxMat=       0.
          There are    36 degrees of freedom in the 1st order CPHF.  IDoFFX=6 NUNeed=     0.
     30 vectors produced by pass  0 Test12= 3.16D-14 2.78D-09 XBig12= 1.52D-01 8.12D-02.
 AX will form    30 AO Fock derivatives at one time.
     30 vectors produced by pass  1 Test12= 3.16D-14 2.78D-09 XBig12= 3.64D-02 8.64D-02.
     30 vectors produced by pass  2 Test12= 3.16D-14 2.78D-09 XBig12= 1.56D-03 7.79D-03.
     30 vectors produced by pass  3 Test12= 3.16D-14 2.78D-09 XBig12= 3.19D-05 1.18D-03.
     30 vectors produced by pass  4 Test12= 3.16D-14 2.78D-09 XBig12= 4.41D-07 1.34D-04.
     30 vectors produced by pass  5 Test12= 3.16D-14 2.78D-09 XBig12= 3.53D-09 1.23D-05.
     30 vectors produced by pass  6 Test12= 3.16D-14 2.78D-09 XBig12= 2.46D-11 5.05D-07.
     14 vectors produced by pass  7 Test12= 3.16D-14 2.78D-09 XBig12= 1.29D-13 4.74D-08.
 InvSVY:  IOpt=1 It=  1 EMax= 1.11D-15
 Solved reduced A of dimension   224 with    30 vectors.
 End of Minotr F.D. properties file   721 does not exist.
 End of Minotr F.D. properties file   722 does not exist.
 End of Minotr F.D. properties file   788 does not exist.
 Leave Link 1002 at Sat May 24 04:23:05 2025, MaxMem=  3758096384 cpu:             451.8 elap:              57.5
 (Enter /apps/easybuild-2022/easybuild/software/Compiler/NVHPC/22.11-CUDA-11.7.0/Gaussian/g16c01-CUDA-11.7.0/g16/l701.exe)
 ... and contract with generalized density number  0.
 Compute integral second derivatives.
   1 Symmetry operations used in ECPInt.
 ECPInt:  NShTT=    6786 NPrTT=   21959 LenC2=    6496 LenP2D=   16034.
 LDataN:  DoStor=T MaxTD1= 8 Len=  415
 Leave Link  701 at Sat May 24 04:23:05 2025, MaxMem=  3758096384 cpu:               0.7 elap:               0.1
 (Enter /apps/easybuild-2022/easybuild/software/Compiler/NVHPC/22.11-CUDA-11.7.0/Gaussian/g16c01-CUDA-11.7.0/g16/l702.exe)
 L702 exits ... SP integral derivatives will be done elsewhere.
 Leave Link  702 at Sat May 24 04:23:05 2025, MaxMem=  3758096384 cpu:               0.0 elap:               0.0
 (Enter /apps/easybuild-2022/easybuild/software/Compiler/NVHPC/22.11-CUDA-11.7.0/Gaussian/g16c01-CUDA-11.7.0/g16/l703.exe)
 Integral derivatives from FoFJK, PRISM(SPDF).
 Compute integral second derivatives, UseDBF=F ICtDFT=           0.
 Calling FoFJK, ICntrl=    100127 FMM=F ISym2X=0 I1Cent= 0 IOpClX= 0 NMat=1 NMatS=1 NMatT=0.
 FoFJK:  IHMeth= 1 ICntrl=  100127 DoSepK=F KAlg= 0 I1Cent=           0 FoldK=F
 IRaf=         0 NMat=       1 IRICut=       1 DoRegI=T DoRafI=F ISym2E= 0 IDoP0=0 IntGTp=1.
 FoFCou: FMM=F IPFlag=           0 FMFlag=      100000 FMFlg1=         800
         NFxFlg=           0 DoJE=F BraDBF=F KetDBF=F FulRan=T
         wScrn=  0.000000 ICntrl=    100127 IOpCl=  0 I1Cent=           0 NGrid=           0
         NMat0=    1 NMatS0=      1 NMatT0=    0 NMatD0=    1 NMtDS0=    0 NMtDT0=    0
 Symmetry not used in FoFCou.
 Leave Link  703 at Sat May 24 04:24:52 2025, MaxMem=  3758096384 cpu:             842.7 elap:             106.2
 (Enter /apps/easybuild-2022/easybuild/software/Compiler/NVHPC/22.11-CUDA-11.7.0/Gaussian/g16c01-CUDA-11.7.0/g16/l716.exe)
 Dipole        = 6.49942678D-01 5.70709241D-01 1.20311957D-01
 Polarizability= 0.00000000D+00 0.00000000D+00 0.00000000D+00
                 0.00000000D+00 0.00000000D+00 0.00000000D+00
 -------------------------------------------------------------------
 Center     Atomic                   Forces (Hartrees/Bohr)
 Number     Number              X              Y              Z
 -------------------------------------------------------------------
      1        6           0.000106195    0.001248292   -0.000048783
      2        8          -0.000427288   -0.000939415   -0.000773775
      3        6           0.000189613    0.000411750    0.000370391
      4        6          -0.000197136    0.000041334    0.000112888
      5        9          -0.000456501    0.000135123   -0.001028535
      6        9          -0.001130040   -0.000133181    0.000626603
      7        9          -0.000335098    0.000060530    0.000584667
      8        9          -0.001049943    0.000043766    0.000580209
      9        9           0.001639720   -0.000366667    0.000694187
     10        8           0.002098620   -0.000555906   -0.001034035
     11        1          -0.000438142    0.000054374   -0.000083816
 -------------------------------------------------------------------
 Cartesian Forces:  Max     0.002098620 RMS     0.000734264
 Force constants in Cartesian coordinates: 
                1             2             3             4             5 
      1  0.745831D+00
      2 -0.212403D+00  0.950120D+00
      3 -0.337073D-01  0.154826D+00  0.264826D+00
      4 -0.331820D+00  0.317168D+00  0.624256D-01  0.316328D+00
      5  0.331950D+00 -0.606038D+00 -0.107279D+00 -0.368148D+00  0.714874D+00
      6  0.655684D-01 -0.106888D+00 -0.957885D-01 -0.718530D-01  0.140623D+00
      7 -0.186028D+00 -0.340149D-02  0.159794D-01 -0.149711D-01  0.148089D-01
      8 -0.168127D-02 -0.488304D-01 -0.346058D-02  0.379691D-01 -0.188339D-01
      9 -0.111667D-01 -0.329079D-02 -0.938081D-01  0.180340D-01 -0.123642D-01
     10 -0.120630D-01  0.161714D-01  0.356219D-01 -0.391649D-02 -0.551902D-03
     11  0.121346D-01  0.181158D-01  0.852965D-03 -0.354383D-02 -0.448127D-02
     12  0.294089D-01 -0.649789D-03  0.146532D-01 -0.134672D-01  0.659070D-02
     13  0.714326D-02  0.368098D-03  0.495177D-02 -0.429944D-02  0.263277D-02
     14 -0.466769D-03 -0.218935D-02 -0.670321D-03  0.203887D-03  0.893889D-03
     15 -0.695144D-02 -0.219987D-02 -0.753564D-02  0.458083D-02 -0.186572D-02
     16 -0.233179D-02 -0.532559D-03 -0.306680D-02  0.160432D-02 -0.116955D-02
     17  0.469938D-03 -0.410429D-02  0.572490D-03 -0.862203D-03  0.215170D-02
     18 -0.585433D-02  0.654144D-03 -0.287160D-02  0.337475D-02 -0.141224D-02
     19 -0.734362D-03 -0.393458D-02 -0.278467D-02  0.361819D-03  0.120767D-02
     20 -0.617585D-02 -0.595770D-02 -0.365020D-02  0.209129D-02  0.184170D-02
     21 -0.403891D-02  0.209776D-03 -0.263719D-02  0.190934D-02 -0.663728D-03
     22 -0.118244D-02  0.292530D-01 -0.365145D-01 -0.902421D-02  0.162839D-02
     23  0.233810D-02 -0.150154D-01  0.165722D-01  0.568652D-02  0.110535D-02
     24  0.111704D-03  0.159253D-01 -0.782003D-02 -0.734986D-02  0.161834D-02
     25 -0.150465D-01 -0.433465D-01 -0.138529D-01  0.229388D-02 -0.107791D-02
     26 -0.381166D-02 -0.245042D-01 -0.646591D-02  0.447030D-03  0.855324D-02
     27  0.293777D-03 -0.789775D-02  0.452560D-02 -0.252536D-03  0.251647D-02
     28 -0.176644D+00 -0.886916D-01 -0.252110D-01  0.416240D-01  0.103919D-01
     29 -0.671621D-01 -0.265529D+00 -0.486171D-01  0.157401D-02 -0.101038D+00
     30 -0.196332D-01 -0.506605D-01 -0.772268D-01  0.507901D-03 -0.295609D-01
     31 -0.271245D-01 -0.106509D-01 -0.384146D-02  0.181852D-02  0.832821D-02
     32 -0.551913D-01  0.393228D-02 -0.268096D-02  0.741376D-02  0.971298D-03
     33 -0.140310D-01 -0.287165D-04  0.368342D-02  0.209019D-02  0.179695D-02
                6             7             8             9            10 
      6  0.585254D-01
      7 -0.247823D-02  0.563002D+00
      8 -0.572845D-02  0.269557D-01  0.586586D+00
      9  0.209939D-01  0.409461D-01  0.174627D-01  0.552231D+00
     10 -0.434346D-02 -0.882912D-01  0.207985D-01  0.622576D-01  0.606072D+00
     11 -0.128088D-04  0.112621D-01 -0.524309D-01 -0.393573D-01  0.526764D-03
     12 -0.403059D-02  0.303569D-01 -0.392822D-01 -0.161841D+00 -0.242242D-01
     13 -0.436531D-03 -0.457336D-01 -0.115215D-01  0.348806D-03 -0.305482D+00
     14  0.204711D-03  0.303485D-03  0.127314D-02 -0.288160D-02 -0.505655D-01
     15  0.126595D-02  0.404408D-01  0.511045D-02  0.821565D-03  0.475553D-01
     16  0.135011D-02  0.200846D-02  0.429853D-02 -0.102728D-02 -0.120920D+00
     17 -0.733243D-03  0.436410D-02  0.757176D-03  0.277189D-02  0.410079D-01
     18  0.339762D-03 -0.286801D-01  0.307237D-01 -0.272462D-01 -0.725468D-01
     19  0.480508D-03  0.881983D-02  0.762578D-02 -0.174640D-02 -0.779056D-01
     20  0.746945D-03 -0.299273D-02 -0.361433D-01  0.452141D-02 -0.916174D-02
     21  0.639751D-03 -0.250455D-02 -0.288594D-01  0.308378D-02  0.240174D-02
     22  0.574224D-02 -0.103816D+00  0.466211D-01 -0.651201D-01  0.443635D-02
     23 -0.223492D-02  0.526978D-01 -0.150849D+00  0.114005D+00  0.278695D-02
     24  0.109044D-02 -0.597700D-01  0.967146D-01 -0.208713D+00 -0.233071D-01
     25  0.695679D-03 -0.123388D+00 -0.902022D-01 -0.351236D-01 -0.115228D-02
     26  0.226576D-02 -0.100126D+00 -0.265238D+00 -0.777256D-01 -0.180378D-01
     27 -0.267974D-03 -0.297019D-01 -0.665279D-01 -0.996369D-01 -0.184081D-01
     28  0.304620D-02 -0.127037D-01 -0.380792D-01 -0.654416D-02  0.238233D-03
     29 -0.302116D-01 -0.314776D-02 -0.108537D-01 -0.940957D-03 -0.217554D-02
     30  0.225024D-01 -0.361726D-02 -0.454975D-02  0.923417D-02 -0.457459D-02
     31  0.222803D-02  0.110081D-02 -0.278442D-02 -0.858337D-03 -0.101608D-02
     32  0.196847D-02 -0.723621D-03 -0.543723D-02 -0.220036D-02 -0.798970D-03
     33 -0.527060D-02 -0.971173D-03 -0.160314D-02  0.488030D-02 -0.432385D-03
               11            12            13            14            15 
     11  0.603875D+00
     12  0.163550D-01  0.606566D+00
     13 -0.451143D-01  0.547132D-01  0.430498D+00
     14 -0.867990D-01  0.938582D-02  0.904161D-01  0.106738D+00
     15  0.533837D-02 -0.940829D-01 -0.332279D-01 -0.946574D-02  0.758755D-01
     16  0.404202D-01 -0.800855D-01 -0.679434D-01  0.183081D-01 -0.459412D-01
     17 -0.110749D+00  0.707790D-01  0.102244D-01  0.135122D-01  0.384091D-03
     18  0.654326D-01 -0.230999D+00 -0.296897D-01  0.120735D-02  0.675732D-02
     19 -0.118195D-01  0.203288D-02 -0.234389D-01 -0.631730D-01 -0.577307D-02
     20 -0.314125D+00 -0.606362D-01 -0.463147D-01 -0.403369D-01 -0.383179D-03
     21 -0.487780D-01 -0.965571D-01 -0.102768D-02  0.415226D-02  0.147928D-01
     22 -0.893614D-03  0.435770D-02  0.459824D-02  0.120515D-03 -0.276083D-02
     23 -0.103785D-01  0.529195D-02 -0.225892D-02  0.180994D-02  0.739871D-03
     24  0.371927D-01 -0.286067D-01  0.545853D-02 -0.231801D-02  0.489422D-03
     25 -0.917182D-03  0.449704D-02  0.559297D-02  0.456091D-02  0.405869D-03
     26 -0.355307D-01 -0.355218D-02  0.175749D-02  0.403589D-02  0.100896D-02
     27 -0.339821D-01 -0.564647D-03 -0.788729D-03 -0.113809D-03  0.253345D-03
     28 -0.240128D-02 -0.772608D-02 -0.144040D-02  0.253984D-03  0.180770D-02
     29 -0.726187D-02 -0.426660D-02 -0.568631D-03  0.101044D-02  0.140132D-02
     30 -0.241056D-02 -0.529826D-02 -0.666812D-04  0.452080D-03  0.136590D-02
     31  0.346122D-03  0.136387D-03  0.504933D-03  0.382745D-04 -0.135910D-03
     32 -0.235246D-03 -0.154969D-04  0.379346D-03  0.512855D-04 -0.685443D-04
     33 -0.630875D-03  0.760617D-03 -0.234989D-03  0.472560D-04 -0.328779D-05
               16            17            18            19            20 
     16  0.176839D+00
     17 -0.823984D-01  0.153093D+00
     18  0.132703D+00 -0.120881D+00  0.262854D+00
     19  0.722489D-02  0.283459D-01 -0.551846D-02  0.879735D-01
     20  0.217020D-01 -0.616382D-01  0.288070D-01  0.373698D-01  0.449985D+00
     21 -0.690243D-02  0.444773D-01  0.756928D-02  0.589749D-02  0.386882D-01
     22  0.167667D-02 -0.886142D-03  0.297386D-02  0.561690D-03 -0.136150D-02
     23 -0.373546D-03  0.153843D-02  0.484582D-03 -0.767674D-03  0.703770D-02
     24  0.192689D-03 -0.559455D-03 -0.151356D-01  0.149025D-02 -0.157184D-02
     25  0.109098D-02  0.106075D-03  0.571262D-03  0.508513D-03  0.173831D-02
     26 -0.381090D-03  0.430360D-02 -0.596902D-02  0.267004D-02 -0.489596D-02
     27  0.669877D-03  0.218131D-02 -0.137653D-02  0.314106D-02 -0.803067D-02
     28  0.261126D-03 -0.313003D-03  0.273226D-02 -0.352668D-02  0.308861D-02
     29 -0.154647D-03  0.127108D-02  0.862864D-03  0.187354D-02  0.418640D-02
     30  0.245471D-02  0.767647D-03  0.717938D-03  0.225948D-02  0.127004D-02
     31  0.490066D-03 -0.585437D-04 -0.654498D-04  0.155300D-03  0.164482D-04
     32  0.280887D-03 -0.135679D-03  0.898651D-04  0.601954D-03  0.458742D-04
     33 -0.346798D-03  0.239797D-03 -0.610296D-03  0.520923D-03  0.238484D-03
               21            22            23            24            25 
     21  0.796671D-01
     22  0.300576D-03  0.908581D-01
     23 -0.244870D-02 -0.635446D-01  0.229431D+00
     24  0.547131D-03  0.776108D-01 -0.165285D+00  0.244385D+00
     25  0.274357D-03  0.147397D-01  0.288986D-03  0.795841D-02  0.129050D+00
     26 -0.743214D-02 -0.848205D-02 -0.700244D-01  0.214026D-01  0.132230D+00
     27 -0.745233D-02  0.112286D-01  0.344955D-01  0.129429D-01  0.353890D-01
     28  0.368131D-02 -0.356159D-02  0.265953D-02 -0.260679D-02 -0.136163D-01
     29  0.915220D-03 -0.274265D-02  0.461192D-02 -0.321486D-02 -0.136272D-02
     30  0.642115D-03  0.117290D-02 -0.956462D-03  0.983330D-03 -0.590354D-03
     31  0.876159D-05  0.713266D-03  0.486759D-03  0.211380D-03 -0.734218D-04
     32 -0.260900D-03  0.287577D-03  0.732998D-03  0.954164D-04 -0.201730D-02
     33 -0.295395D-03  0.100884D-02 -0.664140D-03 -0.162404D-03 -0.224775D-03
               26            27            28            29            30 
     26  0.381748D+00
     27  0.768437D-01  0.910489D-01
     28 -0.619071D-02 -0.167113D-02  0.665209D+00
     29  0.245460D-02  0.681482D-03  0.488321D-01  0.418418D+00
     30 -0.130619D-03  0.597138D-03  0.411391D-01  0.900566D-01  0.642915D-01
     31 -0.743316D-04  0.100068D-03 -0.495840D+00  0.250344D-01 -0.190520D-01
     32 -0.902147D-03 -0.166215D-03  0.704497D-01 -0.472698D-01 -0.427755D-02
     33 -0.245524D-03 -0.694722D-04 -0.864741D-02 -0.666636D-02 -0.178094D-01
               31            32            33 
     31  0.519271D+00
     32 -0.206820D-01  0.482463D-01
     33  0.212685D-01  0.751627D-02  0.148965D-01
 FormGI is forming the generalized inverse of G from B-inverse, IUseBI=4.
 Leave Link  716 at Sat May 24 04:24:52 2025, MaxMem=  3758096384 cpu:               0.0 elap:               0.0
 (Enter /apps/easybuild-2022/easybuild/software/Compiler/NVHPC/22.11-CUDA-11.7.0/Gaussian/g16c01-CUDA-11.7.0/g16/l103.exe)

 GradGradGradGradGradGradGradGradGradGradGradGradGradGradGradGradGradGrad
 Berny optimization.
 Red2BG is reusing G-inverse.
 Internal  Forces:  Max     0.007419589 RMS     0.001724769
 Search for a local minimum.
 Step number   1 out of a maximum of   53
 All quantities printed in internal units (Hartrees-Bohrs-Radians)
 RMS Force = .17248D-02 SwitMx=.10000D-02 MixMth= 1
 Mixed Optimization -- RFO/linear search
 Second derivative matrix not updated -- analytic derivatives used.
 ITU=  0
     Eigenvalues ---    0.00219   0.00309   0.01768   0.04807   0.06380
     Eigenvalues ---    0.09921   0.10179   0.11158   0.14647   0.14753
     Eigenvalues ---    0.16549   0.19660   0.22165   0.23578   0.24405
     Eigenvalues ---    0.24736   0.27219   0.32934   0.39799   0.39822
     Eigenvalues ---    0.41458   0.42138   0.45445   0.51597   0.52812
     Eigenvalues ---    0.58700   0.98395
 RFO step:  Lambda=-1.10463359D-03 EMin= 2.18699614D-03
 Linear search not attempted -- first point.
 Iteration  1 RMS(Cart)=  0.07380973 RMS(Int)=  0.00271956
 Iteration  2 RMS(Cart)=  0.00298968 RMS(Int)=  0.00007711
 Iteration  3 RMS(Cart)=  0.00000328 RMS(Int)=  0.00007707
 Iteration  4 RMS(Cart)=  0.00000000 RMS(Int)=  0.00007707
 ITry= 1 IFail=0 DXMaxC= 2.27D-01 DCOld= 1.00D+10 DXMaxT= 3.00D-01 DXLimC= 3.00D+00 Rises=F
 Variable       Old X    -DE/DX   Delta X   Delta X   Delta X     New X
                                 (Linear)    (Quad)   (Total)
    R1        2.24202   0.00070   0.00000   0.00160   0.00160   2.24362
    R2        2.91529   0.00131   0.00000   0.00197   0.00197   2.91726
    R3        2.51565  -0.00006   0.00000  -0.00283  -0.00283   2.51282
    R4        2.92820   0.00103   0.00000  -0.00821  -0.00821   2.91999
    R5        2.53663  -0.00008   0.00000   0.00123   0.00123   2.53786
    R6        2.51434  -0.00047   0.00000   0.00154   0.00154   2.51587
    R7        2.49847   0.00030   0.00000   0.00224   0.00224   2.50071
    R8        2.51969  -0.00008   0.00000  -0.00366  -0.00366   2.51603
    R9        2.49835   0.00009   0.00000   0.00112   0.00112   2.49948
   R10        1.82880  -0.00045   0.00000  -0.00064  -0.00064   1.82817
    A1        2.16782  -0.00288   0.00000  -0.01879  -0.01882   2.14900
    A2        2.21120  -0.00078   0.00000  -0.00161  -0.00165   2.20955
    A3        1.90406   0.00367   0.00000   0.02061   0.02057   1.92463
    A4        1.92869   0.00742   0.00000   0.03875   0.03878   1.96747
    A5        1.91308  -0.00105   0.00000   0.00334   0.00332   1.91640
    A6        1.91953  -0.00339   0.00000  -0.02107  -0.02096   1.89857
    A7        1.90551  -0.00273   0.00000  -0.01423  -0.01448   1.89103
    A8        1.89552  -0.00175   0.00000  -0.01040  -0.01027   1.88525
    A9        1.90116   0.00142   0.00000   0.00307   0.00293   1.90409
   A10        1.93704  -0.00232   0.00000  -0.01577  -0.01576   1.92128
   A11        1.89374   0.00203   0.00000   0.00836   0.00835   1.90209
   A12        1.93448   0.00126   0.00000   0.00487   0.00484   1.93932
   A13        1.89666  -0.00016   0.00000   0.00488   0.00492   1.90158
   A14        1.90061  -0.00006   0.00000  -0.00208  -0.00210   1.89851
   A15        1.90062  -0.00077   0.00000   0.00004  -0.00001   1.90061
   A16        1.89564   0.00002   0.00000  -0.00165  -0.00165   1.89399
    D1        2.08348   0.00011   0.00000  -0.00752  -0.00772   2.07576
    D2       -2.09885   0.00074   0.00000   0.00147   0.00155  -2.09730
    D3       -0.00910  -0.00025   0.00000  -0.00570  -0.00565  -0.01475
    D4       -1.04362  -0.00078   0.00000  -0.02280  -0.02295  -1.06657
    D5        1.05724  -0.00015   0.00000  -0.01381  -0.01368   1.04356
    D6       -3.13620  -0.00114   0.00000  -0.02097  -0.02088   3.12611
    D7       -0.00158  -0.00039   0.00000   0.00160   0.00154  -0.00004
    D8        3.12506   0.00051   0.00000   0.01718   0.01725  -3.14087
    D9       -2.78387   0.00025   0.00000  -0.11192  -0.11194  -2.89580
   D10       -0.70108  -0.00005   0.00000  -0.11013  -0.11018  -0.81127
   D11        1.38502   0.00103   0.00000  -0.10192  -0.10194   1.28308
   D12        1.39394  -0.00135   0.00000  -0.13119  -0.13111   1.26283
   D13       -2.80646  -0.00165   0.00000  -0.12940  -0.12935  -2.93582
   D14       -0.72036  -0.00056   0.00000  -0.12119  -0.12111  -0.84147
   D15       -0.67690  -0.00048   0.00000  -0.12069  -0.12071  -0.79762
   D16        1.40588  -0.00078   0.00000  -0.11890  -0.11896   1.28692
   D17       -2.79120   0.00031   0.00000  -0.11068  -0.11072  -2.90192
         Item               Value     Threshold  Converged?
 Maximum Force            0.007420     0.000450     NO 
 RMS     Force            0.001725     0.000300     NO 
 Maximum Displacement     0.227351     0.001800     NO 
 RMS     Displacement     0.073661     0.001200     NO 
 Predicted change in Energy=-6.239631D-04
 Lowest energy point so far.  Saving SCF results.
 GradGradGradGradGradGradGradGradGradGradGradGradGradGradGradGradGradGrad

 Leave Link  103 at Sat May 24 04:24:52 2025, MaxMem=  3758096384 cpu:               0.1 elap:               0.0
 (Enter /apps/easybuild-2022/easybuild/software/Compiler/NVHPC/22.11-CUDA-11.7.0/Gaussian/g16c01-CUDA-11.7.0/g16/l202.exe)
                          Input orientation:                          
 ---------------------------------------------------------------------
 Center     Atomic      Atomic             Coordinates (Angstroms)
 Number     Number       Type             X           Y           Z
 ---------------------------------------------------------------------
      1          6           0        1.401672   -0.273376   -0.569061
      2          8           0        2.004541   -1.276174   -0.770467
      3          6           0       -0.140381   -0.201124   -0.571175
      4          6           0       -0.718862    0.247719    0.789528
      5          9           0       -2.019131    0.005611    0.832567
      6          9           0       -0.119241   -0.436221    1.761833
      7          9           0       -0.519586    1.539974    0.989055
      8          9           0       -0.554053    0.663132   -1.512200
      9          9           0       -0.625725   -1.409914   -0.846392
     10          8           0        1.918739    0.925184   -0.315541
     11          1           0        2.883304    0.851066   -0.320875
 ---------------------------------------------------------------------
                    Distance matrix (angstroms):
                    1          2          3          4          5
     1  C    0.000000
     2  O    1.187274   0.000000
     3  C    1.543746   2.407518   0.000000
     4  C    2.571764   3.488949   1.545191   0.000000
     5  F    3.707329   4.516928   2.354343   1.323317   0.000000
     6  F    2.787967   3.410062   2.344919   1.331426   2.160633
     7  F    3.067115   4.171070   2.368446   1.322666   2.151138
     8  F    2.364618   3.295069   1.342978   2.344714   2.841957
     9  F    2.340719   2.634758   1.331343   2.330806   2.600807
    10  O    1.329729   2.249511   2.360910   2.938891   4.203640
    11  H    1.876487   2.345103   3.211297   3.817411   5.106770
                    6          7          8          9         10
     6  F    0.000000
     7  F    2.159353   0.000000
     8  F    3.480938   2.650720   0.000000
     9  F    2.829742   3.475913   2.178521   0.000000
    10  O    3.212829   2.832907   2.759595   3.494107   0.000000
    11  H    3.874282   3.710818   3.642801   4.207313   0.967423
                   11
    11  H    0.000000
 Symmetry turned off by external request.
 Stoichiometry    C3HF5O2
 Rotational constants (GHZ):           1.9149284           1.2084959           1.1071314
 Leave Link  202 at Sat May 24 04:24:52 2025, MaxMem=  3758096384 cpu:               0.0 elap:               0.0
 (Enter /apps/easybuild-2022/easybuild/software/Compiler/NVHPC/22.11-CUDA-11.7.0/Gaussian/g16c01-CUDA-11.7.0/g16/l301.exe)
 Standard basis: def2TZVPP (5D, 7F)
 Ernie: Thresh=  0.10000D-02 Tol=  0.10000D-05 Strict=F.
   324 basis functions,   527 primitive gaussians,   375 cartesian basis functions
    40 alpha electrons       40 beta electrons
       nuclear repulsion energy       640.9094309417 Hartrees.
 IExCor= 4336 DFT=T Ex+Corr=M062X ExCW=0 ScaHFX=  0.540000
 ScaDFX=  1.000000  1.000000  1.000000  1.000000 ScalE2=  1.000000  1.000000
 IRadAn=      5 IRanWt=     -1 IRanGd=            0 ICorTp=0 IEmpDi=  4
 NAtoms=   11 NActive=   11 NUniq=   11 SFac= 1.00D+00 NAtFMM=   60 NAOKFM=F Big=F
 Integral buffers will be    131072 words long.
 Raffenetti 2 integral format.
 Two-electron integral symmetry is turned off.
 Leave Link  301 at Sat May 24 04:24:52 2025, MaxMem=  3758096384 cpu:               0.0 elap:               0.0
 (Enter /apps/easybuild-2022/easybuild/software/Compiler/NVHPC/22.11-CUDA-11.7.0/Gaussian/g16c01-CUDA-11.7.0/g16/l302.exe)
 NPDir=0 NMtPBC=     1 NCelOv=     1 NCel=       1 NClECP=     1 NCelD=      1
         NCelK=      1 NCelE2=     1 NClLst=     1 CellRange=     0.0.
 One-electron integrals computed using PRISM.
   1 Symmetry operations used in ECPInt.
 ECPInt:  NShTT=    6786 NPrTT=   21959 LenC2=    6489 LenP2D=   16009.
 LDataN:  DoStor=T MaxTD1= 6 Len=  172
 NBasis=   324 RedAO= T EigKep=  3.03D-04  NBF=   324
 NBsUse=   324 1.00D-06 EigRej= -1.00D+00 NBFU=   324
 Precomputing XC quadrature grid using
 IXCGrd= 4 IRadAn=           5 IRanWt=          -1 IRanGd=           0 AccXCQ= 0.00D+00.
 Generated NRdTot=       0 NPtTot=           0 NUsed=           0 NTot=          32
 NSgBfM=   374   374   374   374   374 MxSgAt=    11 MxSgA2=    11.
 Leave Link  302 at Sat May 24 04:24:52 2025, MaxMem=  3758096384 cpu:               0.6 elap:               0.1
 (Enter /apps/easybuild-2022/easybuild/software/Compiler/NVHPC/22.11-CUDA-11.7.0/Gaussian/g16c01-CUDA-11.7.0/g16/l303.exe)
 DipDrv:  MaxL=1.
 Leave Link  303 at Sat May 24 04:24:52 2025, MaxMem=  3758096384 cpu:               0.1 elap:               0.0
 (Enter /apps/easybuild-2022/easybuild/software/Compiler/NVHPC/22.11-CUDA-11.7.0/Gaussian/g16c01-CUDA-11.7.0/g16/l401.exe)
 Initial guess from the checkpoint file:  "1642764945472630600001_r12_insertion_R_3_1_10_IRC_R_prod.chk"
 B after Tr=    -0.007660   -0.005614    0.013355
         Rot=    0.999984   -0.002445    0.004673    0.002079 Ang=  -0.65 deg.
 Guess basis will be translated and rotated to current coordinates.
 JPrj=2 DoOrth=T DoCkMO=T.
 Generating alternative initial guess.
 ExpMin= 9.52D-02 ExpMax= 3.55D+04 ExpMxC= 1.21D+03 IAcc=3 IRadAn=         5 AccDes= 0.00D+00
 Harris functional with IExCor= 1009 and IRadAn=       5 diagonalized for initial guess.
 HarFok:  IExCor= 1009 AccDes= 0.00D+00 IRadAn=         5 IDoV= 1 UseB2=F ITyADJ=14
 ICtDFT=  3500011 ScaDFX=  1.000000  1.000000  1.000000  1.000000
 FoFCou: FMM=F IPFlag=           0 FMFlag=      100000 FMFlg1=           0
         NFxFlg=           0 DoJE=T BraDBF=F KetDBF=T FulRan=T
         wScrn=  0.000000 ICntrl=       500 IOpCl=  0 I1Cent=   200000004 NGrid=           0
         NMat0=    1 NMatS0=      1 NMatT0=    0 NMatD0=    1 NMtDS0=    0 NMtDT0=    0
 Symmetry not used in FoFCou.
 Harris En= -764.198837234268    
 Leave Link  401 at Sat May 24 04:24:52 2025, MaxMem=  3758096384 cpu:               3.6 elap:               0.5
 (Enter /apps/easybuild-2022/easybuild/software/Compiler/NVHPC/22.11-CUDA-11.7.0/Gaussian/g16c01-CUDA-11.7.0/g16/l502.exe)
 Keep R1 ints in memory in canonical form, NReq=1412617130.
 FoFCou: FMM=F IPFlag=           0 FMFlag=           0 FMFlg1=           0
         NFxFlg=           0 DoJE=F BraDBF=F KetDBF=F FulRan=T
         wScrn=  0.000000 ICntrl=       600 IOpCl=  0 I1Cent=           0 NGrid=           0
         NMat0=    1 NMatS0=  52650 NMatT0=    0 NMatD0=    1 NMtDS0=    0 NMtDT0=    0
 Symmetry not used in FoFCou.
 Two-electron integral symmetry not used.
 Closed shell SCF:
 Using DIIS extrapolation, IDIIS=  1040.
 NGot=  3758096384 LenX=  2371771924 LenY=  2371630858
 Requested convergence on RMS density matrix=1.00D-08 within  32 cycles.
 Requested convergence on MAX density matrix=1.00D-06.
 Requested convergence on             energy=1.00D-06.
 No special actions if energy rises.
 Integral accuracy reduced to 1.0D-05 until final iterations.

 Cycle   1  Pass 0  IDiag  1:
 E= -764.656990873751    
 DIIS: error= 3.18D-03 at cycle   1 NSaved=   1.
 NSaved= 1 IEnMin= 1 EnMin= -764.656990873751     IErMin= 1 ErrMin= 3.18D-03
 ErrMax= 3.18D-03  0.00D+00 EMaxC= 1.00D-01 BMatC= 8.55D-03 BMatP= 8.55D-03
 IDIUse=3 WtCom= 9.68D-01 WtEn= 3.18D-02
 Coeff-Com:  0.100D+01
 Coeff-En:   0.100D+01
 Coeff:      0.100D+01
 Gap=     1.040 Goal=   None    Shift=    0.000
 GapD=    1.040 DampG=2.000 DampE=1.000 DampFc=2.0000 IDamp=-1.
 RMSDP=2.70D-04 MaxDP=5.90D-03              OVMax= 2.53D-02

 Cycle   2  Pass 0  IDiag  1:
 E= -764.667543662607     Delta-E=       -0.010552788856 Rises=F Damp=F
 DIIS: error= 5.51D-04 at cycle   2 NSaved=   2.
 NSaved= 2 IEnMin= 2 EnMin= -764.667543662607     IErMin= 2 ErrMin= 5.51D-04
 ErrMax= 5.51D-04  0.00D+00 EMaxC= 1.00D-01 BMatC= 3.10D-04 BMatP= 8.55D-03
 IDIUse=3 WtCom= 9.94D-01 WtEn= 5.51D-03
 Coeff-Com: -0.138D+00 0.114D+01
 Coeff-En:   0.000D+00 0.100D+01
 Coeff:     -0.138D+00 0.114D+01
 Gap=     0.400 Goal=   None    Shift=    0.000
 RMSDP=6.97D-05 MaxDP=1.60D-03 DE=-1.06D-02 OVMax= 6.32D-03

 Cycle   3  Pass 0  IDiag  1:
 E= -764.668001001617     Delta-E=       -0.000457339010 Rises=F Damp=F
 DIIS: error= 4.13D-04 at cycle   3 NSaved=   3.
 NSaved= 3 IEnMin= 3 EnMin= -764.668001001617     IErMin= 3 ErrMin= 4.13D-04
 ErrMax= 4.13D-04  0.00D+00 EMaxC= 1.00D-01 BMatC= 1.40D-04 BMatP= 3.10D-04
 IDIUse=3 WtCom= 9.96D-01 WtEn= 4.13D-03
 Coeff-Com: -0.829D-01 0.528D+00 0.555D+00
 Coeff-En:   0.000D+00 0.000D+00 0.100D+01
 Coeff:     -0.825D-01 0.526D+00 0.557D+00
 Gap=     0.399 Goal=   None    Shift=    0.000
 RMSDP=2.18D-05 MaxDP=7.61D-04 DE=-4.57D-04 OVMax= 1.90D-03

 Cycle   4  Pass 0  IDiag  1:
 E= -764.668083502697     Delta-E=       -0.000082501080 Rises=F Damp=F
 DIIS: error= 1.25D-04 at cycle   4 NSaved=   4.
 NSaved= 4 IEnMin= 4 EnMin= -764.668083502697     IErMin= 4 ErrMin= 1.25D-04
 ErrMax= 1.25D-04  0.00D+00 EMaxC= 1.00D-01 BMatC= 1.06D-05 BMatP= 1.40D-04
 IDIUse=3 WtCom= 9.99D-01 WtEn= 1.25D-03
 Coeff-Com:  0.133D-02-0.584D-01 0.178D+00 0.879D+00
 Coeff-En:   0.000D+00 0.000D+00 0.000D+00 0.100D+01
 Coeff:      0.133D-02-0.583D-01 0.178D+00 0.879D+00
 Gap=     0.400 Goal=   None    Shift=    0.000
 RMSDP=9.53D-06 MaxDP=3.44D-04 DE=-8.25D-05 OVMax= 1.53D-03

 Initial convergence to 1.0D-05 achieved.  Increase integral accuracy.
 Cycle   5  Pass 1  IDiag  1:
 E= -764.668129911333     Delta-E=       -0.000046408636 Rises=F Damp=F
 DIIS: error= 8.79D-05 at cycle   1 NSaved=   1.
 NSaved= 1 IEnMin= 1 EnMin= -764.668129911333     IErMin= 1 ErrMin= 8.79D-05
 ErrMax= 8.79D-05  0.00D+00 EMaxC= 1.00D-01 BMatC= 3.37D-06 BMatP= 3.37D-06
 IDIUse=1 WtCom= 1.00D+00 WtEn= 0.00D+00
 Coeff-Com:  0.100D+01
 Coeff:      0.100D+01
 Gap=     0.399 Goal=   None    Shift=    0.000
 RMSDP=9.53D-06 MaxDP=3.44D-04 DE=-4.64D-05 OVMax= 1.13D-03

 Cycle   6  Pass 1  IDiag  1:
 E= -764.668128344790     Delta-E=        0.000001566543 Rises=F Damp=F
 DIIS: error= 1.47D-04 at cycle   2 NSaved=   2.
 NSaved= 2 IEnMin= 1 EnMin= -764.668129911333     IErMin= 1 ErrMin= 8.79D-05
 ErrMax= 1.47D-04  0.00D+00 EMaxC= 1.00D-01 BMatC= 6.58D-06 BMatP= 3.37D-06
 IDIUse=3 WtCom= 4.52D-01 WtEn= 5.48D-01
 Coeff-Com:  0.589D+00 0.411D+00
 Coeff-En:   0.614D+00 0.386D+00
 Coeff:      0.602D+00 0.398D+00
 Gap=     0.400 Goal=   None    Shift=    0.000
 RMSDP=4.13D-06 MaxDP=2.73D-04 DE= 1.57D-06 OVMax= 7.54D-04

 Cycle   7  Pass 1  IDiag  1:
 E= -764.668132774888     Delta-E=       -0.000004430098 Rises=F Damp=F
 DIIS: error= 1.06D-05 at cycle   3 NSaved=   3.
 NSaved= 3 IEnMin= 3 EnMin= -764.668132774888     IErMin= 3 ErrMin= 1.06D-05
 ErrMax= 1.06D-05  0.00D+00 EMaxC= 1.00D-01 BMatC= 4.67D-08 BMatP= 3.37D-06
 IDIUse=1 WtCom= 1.00D+00 WtEn= 0.00D+00
 Coeff-Com:  0.446D-02 0.363D-01 0.959D+00
 Coeff:      0.446D-02 0.363D-01 0.959D+00
 Gap=     0.400 Goal=   None    Shift=    0.000
 RMSDP=1.19D-06 MaxDP=4.20D-05 DE=-4.43D-06 OVMax= 2.43D-04

 Cycle   8  Pass 1  IDiag  1:
 E= -764.668132867841     Delta-E=       -0.000000092954 Rises=F Damp=F
 DIIS: error= 5.56D-06 at cycle   4 NSaved=   4.
 NSaved= 4 IEnMin= 4 EnMin= -764.668132867841     IErMin= 4 ErrMin= 5.56D-06
 ErrMax= 5.56D-06  0.00D+00 EMaxC= 1.00D-01 BMatC= 3.04D-08 BMatP= 4.67D-08
 IDIUse=1 WtCom= 1.00D+00 WtEn= 0.00D+00
 Coeff-Com: -0.685D-01-0.298D-01 0.490D+00 0.609D+00
 Coeff:     -0.685D-01-0.298D-01 0.490D+00 0.609D+00
 Gap=     0.400 Goal=   None    Shift=    0.000
 RMSDP=4.72D-07 MaxDP=1.68D-05 DE=-9.30D-08 OVMax= 9.63D-05

 Cycle   9  Pass 1  IDiag  1:
 E= -764.668132901046     Delta-E=       -0.000000033205 Rises=F Damp=F
 DIIS: error= 3.07D-06 at cycle   5 NSaved=   5.
 NSaved= 5 IEnMin= 5 EnMin= -764.668132901046     IErMin= 5 ErrMin= 3.07D-06
 ErrMax= 3.07D-06  0.00D+00 EMaxC= 1.00D-01 BMatC= 1.68D-09 BMatP= 3.04D-08
 IDIUse=1 WtCom= 1.00D+00 WtEn= 0.00D+00
 Coeff-Com:  0.679D-02-0.403D-02-0.260D+00-0.866D-01 0.134D+01
 Coeff:      0.679D-02-0.403D-02-0.260D+00-0.866D-01 0.134D+01
 Gap=     0.400 Goal=   None    Shift=    0.000
 RMSDP=3.99D-07 MaxDP=1.88D-05 DE=-3.32D-08 OVMax= 1.10D-04

 Cycle  10  Pass 1  IDiag  1:
 E= -764.668132909688     Delta-E=       -0.000000008642 Rises=F Damp=F
 DIIS: error= 5.19D-07 at cycle   6 NSaved=   6.
 NSaved= 6 IEnMin= 6 EnMin= -764.668132909688     IErMin= 6 ErrMin= 5.19D-07
 ErrMax= 5.19D-07  0.00D+00 EMaxC= 1.00D-01 BMatC= 2.01D-10 BMatP= 1.68D-09
 IDIUse=1 WtCom= 1.00D+00 WtEn= 0.00D+00
 Coeff-Com:  0.657D-02 0.196D-03-0.123D+00-0.694D-01 0.479D+00 0.707D+00
 Coeff:      0.657D-02 0.196D-03-0.123D+00-0.694D-01 0.479D+00 0.707D+00
 Gap=     0.400 Goal=   None    Shift=    0.000
 RMSDP=6.14D-08 MaxDP=2.41D-06 DE=-8.64D-09 OVMax= 1.43D-05

 Cycle  11  Pass 1  IDiag  1:
 E= -764.668132909964     Delta-E=       -0.000000000276 Rises=F Damp=F
 DIIS: error= 1.69D-07 at cycle   7 NSaved=   7.
 NSaved= 7 IEnMin= 7 EnMin= -764.668132909964     IErMin= 7 ErrMin= 1.69D-07
 ErrMax= 1.69D-07  0.00D+00 EMaxC= 1.00D-01 BMatC= 2.04D-11 BMatP= 2.01D-10
 IDIUse=1 WtCom= 1.00D+00 WtEn= 0.00D+00
 Coeff-Com:  0.932D-03 0.549D-03 0.187D-03-0.682D-02-0.439D-01 0.188D+00
 Coeff-Com:  0.861D+00
 Coeff:      0.932D-03 0.549D-03 0.187D-03-0.682D-02-0.439D-01 0.188D+00
 Coeff:      0.861D+00
 Gap=     0.400 Goal=   None    Shift=    0.000
 RMSDP=2.04D-08 MaxDP=7.20D-07 DE=-2.76D-10 OVMax= 4.12D-06

 Cycle  12  Pass 1  IDiag  1:
 E= -764.668132910001     Delta-E=       -0.000000000037 Rises=F Damp=F
 DIIS: error= 7.81D-08 at cycle   8 NSaved=   8.
 NSaved= 8 IEnMin= 8 EnMin= -764.668132910001     IErMin= 8 ErrMin= 7.81D-08
 ErrMax= 7.81D-08  0.00D+00 EMaxC= 1.00D-01 BMatC= 4.44D-12 BMatP= 2.04D-11
 IDIUse=1 WtCom= 1.00D+00 WtEn= 0.00D+00
 Coeff-Com: -0.488D-03 0.207D-03 0.169D-01 0.627D-02-0.858D-01-0.913D-02
 Coeff-Com:  0.374D+00 0.698D+00
 Coeff:     -0.488D-03 0.207D-03 0.169D-01 0.627D-02-0.858D-01-0.913D-02
 Coeff:      0.374D+00 0.698D+00
 Gap=     0.400 Goal=   None    Shift=    0.000
 RMSDP=5.97D-09 MaxDP=1.86D-07 DE=-3.68D-11 OVMax= 1.02D-06

 SCF Done:  E(RM062X) =  -764.668132910     A.U. after   12 cycles
            NFock= 12  Conv=0.60D-08     -V/T= 2.0036
 KE= 7.618963098518D+02 PE=-3.094301600653D+03 EE= 9.268277269490D+02
 Leave Link  502 at Sat May 24 04:25:16 2025, MaxMem=  3758096384 cpu:             108.1 elap:              23.6
 (Enter /apps/easybuild-2022/easybuild/software/Compiler/NVHPC/22.11-CUDA-11.7.0/Gaussian/g16c01-CUDA-11.7.0/g16/l508.exe)
 QCSCF skips out because SCF is already converged.
 Leave Link  508 at Sat May 24 04:25:16 2025, MaxMem=  3758096384 cpu:               0.0 elap:               0.0
 (Enter /apps/easybuild-2022/easybuild/software/Compiler/NVHPC/22.11-CUDA-11.7.0/Gaussian/g16c01-CUDA-11.7.0/g16/l701.exe)
 ... and contract with generalized density number  0.
 Compute integral first derivatives.
   1 Symmetry operations used in ECPInt.
 ECPInt:  NShTT=    6786 NPrTT=   21959 LenC2=    6489 LenP2D=   16009.
 LDataN:  DoStor=T MaxTD1= 7 Len=  274
 Leave Link  701 at Sat May 24 04:25:16 2025, MaxMem=  3758096384 cpu:               0.5 elap:               0.1
 (Enter /apps/easybuild-2022/easybuild/software/Compiler/NVHPC/22.11-CUDA-11.7.0/Gaussian/g16c01-CUDA-11.7.0/g16/l702.exe)
 L702 exits ... SP integral derivatives will be done elsewhere.
 Leave Link  702 at Sat May 24 04:25:16 2025, MaxMem=  3758096384 cpu:               0.0 elap:               0.0
 (Enter /apps/easybuild-2022/easybuild/software/Compiler/NVHPC/22.11-CUDA-11.7.0/Gaussian/g16c01-CUDA-11.7.0/g16/l703.exe)
 Integral derivatives from FoFJK, PRISM(SPDF).
 Compute integral first derivatives, UseDBF=F ICtDFT=           0.
 Calling FoFJK, ICntrl=      2127 FMM=F ISym2X=0 I1Cent= 0 IOpClX= 0 NMat=1 NMatS=1 NMatT=0.
 FoFJK:  IHMeth= 1 ICntrl=    2127 DoSepK=F KAlg= 0 I1Cent=           0 FoldK=F
 IRaf=         0 NMat=       1 IRICut=       1 DoRegI=T DoRafI=F ISym2E= 0 IDoP0=0 IntGTp=1.
 FoFCou: FMM=F IPFlag=           0 FMFlag=      100000 FMFlg1=         800
         NFxFlg=           0 DoJE=F BraDBF=F KetDBF=F FulRan=T
         wScrn=  0.000000 ICntrl=      2127 IOpCl=  0 I1Cent=           0 NGrid=           0
         NMat0=    1 NMatS0=      1 NMatT0=    0 NMatD0=    1 NMtDS0=    0 NMtDT0=    0
 Symmetry not used in FoFCou.
 Leave Link  703 at Sat May 24 04:25:26 2025, MaxMem=  3758096384 cpu:              74.4 elap:               9.4
 (Enter /apps/easybuild-2022/easybuild/software/Compiler/NVHPC/22.11-CUDA-11.7.0/Gaussian/g16c01-CUDA-11.7.0/g16/l716.exe)
 Dipole        = 6.81132769D-01 5.87152843D-01 9.96766239D-02
 -------------------------------------------------------------------
 Center     Atomic                   Forces (Hartrees/Bohr)
 Number     Number              X              Y              Z
 -------------------------------------------------------------------
      1        6           0.000198565    0.000155904   -0.000104318
      2        8           0.000059572    0.000003217    0.000009527
      3        6           0.000060866    0.000056540   -0.000172608
      4        6          -0.000018105   -0.000148227    0.000312098
      5        9           0.000000521    0.000019485   -0.000005915
      6        9          -0.000502027   -0.000049962    0.000154500
      7        9           0.000165791    0.000087345    0.000111890
      8        9          -0.000013707   -0.000092926   -0.000029683
      9        9          -0.000045637   -0.000076498    0.000004494
     10        8           0.000120808    0.000050385   -0.000283628
     11        1          -0.000026646   -0.000005262    0.000003641
 -------------------------------------------------------------------
 Cartesian Forces:  Max     0.000502027 RMS     0.000143242
 Leave Link  716 at Sat May 24 04:25:26 2025, MaxMem=  3758096384 cpu:               0.0 elap:               0.0
 (Enter /apps/easybuild-2022/easybuild/software/Compiler/NVHPC/22.11-CUDA-11.7.0/Gaussian/g16c01-CUDA-11.7.0/g16/l103.exe)

 GradGradGradGradGradGradGradGradGradGradGradGradGradGradGradGradGradGrad
 Berny optimization.
 Using GEDIIS/GDIIS optimizer.
 FormGI is forming the generalized inverse of G from B-inverse, IUseBI=4.
 Internal  Forces:  Max     0.000755193 RMS     0.000239676
 Search for a local minimum.
 Step number   2 out of a maximum of   53
 All quantities printed in internal units (Hartrees-Bohrs-Radians)
 RMS Force = .23968D-03 SwitMx=.10000D-02 MixMth= 2
 Mixed Optimization -- En-DIIS/RFO-DIIS
 Update second derivatives using D2CorX and points    1    2
 DE= -6.51D-04 DEPred=-6.24D-04 R= 1.04D+00
 TightC=F SS=  1.41D+00  RLast= 3.60D-01 DXNew= 5.0454D-01 1.0805D+00
 Trust test= 1.04D+00 RLast= 3.60D-01 DXMaxT set to 5.05D-01
 ITU=  1  0
 Use linear search instead of GDIIS.
     Eigenvalues ---    0.00220   0.00299   0.01768   0.04764   0.06409
     Eigenvalues ---    0.09883   0.10158   0.11109   0.14646   0.14742
     Eigenvalues ---    0.16784   0.19667   0.21575   0.23603   0.24404
     Eigenvalues ---    0.24812   0.27041   0.32752   0.39501   0.39820
     Eigenvalues ---    0.41411   0.42129   0.45439   0.51605   0.52816
     Eigenvalues ---    0.58699   0.98394
 RFO step:  Lambda=-5.97372712D-05 EMin= 2.19596486D-03
 Quartic linear search produced a step of  0.24753.
 Iteration  1 RMS(Cart)=  0.03985261 RMS(Int)=  0.00081453
 Iteration  2 RMS(Cart)=  0.00088786 RMS(Int)=  0.00002098
 Iteration  3 RMS(Cart)=  0.00000033 RMS(Int)=  0.00002098
 ITry= 1 IFail=0 DXMaxC= 1.01D-01 DCOld= 1.00D+10 DXMaxT= 5.05D-01 DXLimC= 3.00D+00 Rises=F
 Variable       Old X    -DE/DX   Delta X   Delta X   Delta X     New X
                                 (Linear)    (Quad)   (Total)
    R1        2.24362   0.00002   0.00040  -0.00017   0.00023   2.24385
    R2        2.91726   0.00034   0.00049   0.00071   0.00120   2.91845
    R3        2.51282   0.00003  -0.00070   0.00032  -0.00038   2.51244
    R4        2.91999   0.00061  -0.00203   0.00078  -0.00125   2.91873
    R5        2.53786  -0.00003   0.00031  -0.00051  -0.00021   2.53765
    R6        2.51587   0.00009   0.00038   0.00048   0.00086   2.51673
    R7        2.50071  -0.00000   0.00055  -0.00035   0.00020   2.50091
    R8        2.51603  -0.00009  -0.00090  -0.00057  -0.00148   2.51455
    R9        2.49948   0.00013   0.00028   0.00064   0.00092   2.50040
   R10        1.82817  -0.00003  -0.00016   0.00016   0.00000   1.82817
    A1        2.14900   0.00001  -0.00466   0.00289  -0.00178   2.14721
    A2        2.20955  -0.00012  -0.00041  -0.00026  -0.00067   2.20888
    A3        1.92463   0.00010   0.00509  -0.00263   0.00246   1.92709
    A4        1.96747   0.00076   0.00960  -0.00441   0.00520   1.97267
    A5        1.91640  -0.00041   0.00082   0.00028   0.00109   1.91750
    A6        1.89857  -0.00003  -0.00519   0.00418  -0.00097   1.89760
    A7        1.89103  -0.00004  -0.00358   0.00124  -0.00242   1.88861
    A8        1.88525  -0.00036  -0.00254  -0.00078  -0.00329   1.88196
    A9        1.90409   0.00007   0.00073  -0.00048   0.00021   1.90430
   A10        1.92128  -0.00015  -0.00390   0.00114  -0.00275   1.91852
   A11        1.90209   0.00063   0.00207   0.00012   0.00219   1.90428
   A12        1.93932  -0.00002   0.00120  -0.00115   0.00004   1.93936
   A13        1.90158  -0.00035   0.00122  -0.00034   0.00089   1.90247
   A14        1.89851   0.00005  -0.00052   0.00054   0.00002   1.89853
   A15        1.90061  -0.00018  -0.00000  -0.00033  -0.00035   1.90026
   A16        1.89399  -0.00000  -0.00041  -0.00071  -0.00112   1.89286
    D1        2.07576  -0.00009  -0.00191  -0.04051  -0.04247   2.03329
    D2       -2.09730   0.00008   0.00038  -0.04169  -0.04128  -2.13858
    D3       -0.01475  -0.00010  -0.00140  -0.03958  -0.04096  -0.05572
    D4       -1.06657  -0.00025  -0.00568  -0.03647  -0.04219  -1.10875
    D5        1.04356  -0.00008  -0.00339  -0.03765  -0.04100   1.00256
    D6        3.12611  -0.00025  -0.00517  -0.03554  -0.04068   3.08542
    D7       -0.00004  -0.00009   0.00038  -0.00135  -0.00099  -0.00103
    D8       -3.14087   0.00008   0.00427  -0.00557  -0.00128   3.14103
    D9       -2.89580  -0.00020  -0.02771  -0.02662  -0.05433  -2.95013
   D10       -0.81127  -0.00033  -0.02727  -0.02627  -0.05356  -0.86483
   D11        1.28308  -0.00016  -0.02523  -0.02731  -0.05255   1.23053
   D12        1.26283  -0.00015  -0.03245  -0.02497  -0.05740   1.20544
   D13       -2.93582  -0.00028  -0.03202  -0.02463  -0.05663  -2.99245
   D14       -0.84147  -0.00011  -0.02998  -0.02566  -0.05562  -0.89708
   D15       -0.79762  -0.00001  -0.02988  -0.02465  -0.05454  -0.85216
   D16        1.28692  -0.00014  -0.02945  -0.02431  -0.05377   1.23314
   D17       -2.90192   0.00004  -0.02741  -0.02535  -0.05276  -2.95468
         Item               Value     Threshold  Converged?
 Maximum Force            0.000755     0.000450     NO 
 RMS     Force            0.000240     0.000300     YES
 Maximum Displacement     0.100851     0.001800     NO 
 RMS     Displacement     0.039803     0.001200     NO 
 Predicted change in Energy=-5.249712D-05
 Lowest energy point so far.  Saving SCF results.
 GradGradGradGradGradGradGradGradGradGradGradGradGradGradGradGradGradGrad

 Leave Link  103 at Sat May 24 04:25:26 2025, MaxMem=  3758096384 cpu:               0.1 elap:               0.0
 (Enter /apps/easybuild-2022/easybuild/software/Compiler/NVHPC/22.11-CUDA-11.7.0/Gaussian/g16c01-CUDA-11.7.0/g16/l202.exe)
                          Input orientation:                          
 ---------------------------------------------------------------------
 Center     Atomic      Atomic             Coordinates (Angstroms)
 Number     Number       Type             X           Y           Z
 ---------------------------------------------------------------------
      1          6           0        1.406906   -0.265817   -0.563246
      2          8           0        2.013621   -1.273526   -0.725485
      3          6           0       -0.136193   -0.202950   -0.563959
      4          6           0       -0.723437    0.239348    0.794379
      5          9           0       -2.032887    0.047748    0.803446
      6          9           0       -0.172609   -0.486463    1.764121
      7          9           0       -0.478600    1.518926    1.025612
      8          9           0       -0.557330    0.658822   -1.503793
      9          9           0       -0.613356   -1.415516   -0.839062
     10          8           0        1.920218    0.943691   -0.360153
     11          1           0        2.884944    0.871613   -0.364589
 ---------------------------------------------------------------------
                    Distance matrix (angstroms):
                    1          2          3          4          5
     1  C    0.000000
     2  O    1.187393   0.000000
     3  C    1.544379   2.407057   0.000000
     4  C    2.576179   3.477105   1.544527   0.000000
     5  F    3.714613   4.523010   2.351616   1.323425   0.000000
     6  F    2.821381   3.405468   2.345562   1.330644   2.160767
     7  F    3.043832   4.132227   2.368298   1.323153   2.151635
     8  F    2.365969   3.309006   1.342868   2.342038   2.806070
     9  F    2.340799   2.633262   1.331797   2.327837   2.618023
    10  O    1.329528   2.249054   2.363292   2.969504   4.217075
    11  H    1.875582   2.343304   3.212741   3.842314   5.121340
                    6          7          8          9         10
     6  F    0.000000
     7  F    2.158845   0.000000
     8  F    3.484100   2.672801   0.000000
     9  F    2.798922   3.479385   2.178964   0.000000
    10  O    3.307235   2.829412   2.743594   3.494883   0.000000
    11  H    3.965401   3.696634   3.632123   4.206446   0.967425
                   11
    11  H    0.000000
 Symmetry turned off by external request.
 Stoichiometry    C3HF5O2
 Rotational constants (GHZ):           1.9148234           1.2020604           1.1085764
 Leave Link  202 at Sat May 24 04:25:26 2025, MaxMem=  3758096384 cpu:               0.0 elap:               0.0
 (Enter /apps/easybuild-2022/easybuild/software/Compiler/NVHPC/22.11-CUDA-11.7.0/Gaussian/g16c01-CUDA-11.7.0/g16/l301.exe)
 Standard basis: def2TZVPP (5D, 7F)
 Ernie: Thresh=  0.10000D-02 Tol=  0.10000D-05 Strict=F.
   324 basis functions,   527 primitive gaussians,   375 cartesian basis functions
    40 alpha electrons       40 beta electrons
       nuclear repulsion energy       640.6334464634 Hartrees.
 IExCor= 4336 DFT=T Ex+Corr=M062X ExCW=0 ScaHFX=  0.540000
 ScaDFX=  1.000000  1.000000  1.000000  1.000000 ScalE2=  1.000000  1.000000
 IRadAn=      5 IRanWt=     -1 IRanGd=            0 ICorTp=0 IEmpDi=  4
 NAtoms=   11 NActive=   11 NUniq=   11 SFac= 1.00D+00 NAtFMM=   60 NAOKFM=F Big=F
 Integral buffers will be    131072 words long.
 Raffenetti 2 integral format.
 Two-electron integral symmetry is turned off.
 Leave Link  301 at Sat May 24 04:25:26 2025, MaxMem=  3758096384 cpu:               0.0 elap:               0.0
 (Enter /apps/easybuild-2022/easybuild/software/Compiler/NVHPC/22.11-CUDA-11.7.0/Gaussian/g16c01-CUDA-11.7.0/g16/l302.exe)
 NPDir=0 NMtPBC=     1 NCelOv=     1 NCel=       1 NClECP=     1 NCelD=      1
         NCelK=      1 NCelE2=     1 NClLst=     1 CellRange=     0.0.
 One-electron integrals computed using PRISM.
   1 Symmetry operations used in ECPInt.
 ECPInt:  NShTT=    6786 NPrTT=   21959 LenC2=    6488 LenP2D=   15996.
 LDataN:  DoStor=T MaxTD1= 6 Len=  172
 NBasis=   324 RedAO= T EigKep=  3.08D-04  NBF=   324
 NBsUse=   324 1.00D-06 EigRej= -1.00D+00 NBFU=   324
 Precomputing XC quadrature grid using
 IXCGrd= 4 IRadAn=           5 IRanWt=          -1 IRanGd=           0 AccXCQ= 0.00D+00.
 Generated NRdTot=       0 NPtTot=           0 NUsed=           0 NTot=          32
 NSgBfM=   374   374   374   374   374 MxSgAt=    11 MxSgA2=    11.
 Leave Link  302 at Sat May 24 04:25:26 2025, MaxMem=  3758096384 cpu:               0.7 elap:               0.1
 (Enter /apps/easybuild-2022/easybuild/software/Compiler/NVHPC/22.11-CUDA-11.7.0/Gaussian/g16c01-CUDA-11.7.0/g16/l303.exe)
 DipDrv:  MaxL=1.
 Leave Link  303 at Sat May 24 04:25:26 2025, MaxMem=  3758096384 cpu:               0.1 elap:               0.0
 (Enter /apps/easybuild-2022/easybuild/software/Compiler/NVHPC/22.11-CUDA-11.7.0/Gaussian/g16c01-CUDA-11.7.0/g16/l401.exe)
 Initial guess from the checkpoint file:  "1642764945472630600001_r12_insertion_R_3_1_10_IRC_R_prod.chk"
 B after Tr=    -0.000907   -0.003930    0.006648
         Rot=    0.999994   -0.001643    0.002418    0.001927 Ang=  -0.40 deg.
 Guess basis will be translated and rotated to current coordinates.
 JPrj=2 DoOrth=T DoCkMO=T.
 Generating alternative initial guess.
 ExpMin= 9.52D-02 ExpMax= 3.55D+04 ExpMxC= 1.21D+03 IAcc=3 IRadAn=         5 AccDes= 0.00D+00
 Harris functional with IExCor= 1009 and IRadAn=       5 diagonalized for initial guess.
 HarFok:  IExCor= 1009 AccDes= 0.00D+00 IRadAn=         5 IDoV= 1 UseB2=F ITyADJ=14
 ICtDFT=  3500011 ScaDFX=  1.000000  1.000000  1.000000  1.000000
 FoFCou: FMM=F IPFlag=           0 FMFlag=      100000 FMFlg1=           0
         NFxFlg=           0 DoJE=T BraDBF=F KetDBF=T FulRan=T
         wScrn=  0.000000 ICntrl=       500 IOpCl=  0 I1Cent=   200000004 NGrid=           0
         NMat0=    1 NMatS0=      1 NMatT0=    0 NMatD0=    1 NMtDS0=    0 NMtDT0=    0
 Symmetry not used in FoFCou.
 Harris En= -764.199077647394    
 Leave Link  401 at Sat May 24 04:25:26 2025, MaxMem=  3758096384 cpu:               3.6 elap:               0.5
 (Enter /apps/easybuild-2022/easybuild/software/Compiler/NVHPC/22.11-CUDA-11.7.0/Gaussian/g16c01-CUDA-11.7.0/g16/l502.exe)
 Keep R1 ints in memory in canonical form, NReq=1412617130.
 FoFCou: FMM=F IPFlag=           0 FMFlag=           0 FMFlg1=           0
         NFxFlg=           0 DoJE=F BraDBF=F KetDBF=F FulRan=T
         wScrn=  0.000000 ICntrl=       600 IOpCl=  0 I1Cent=           0 NGrid=           0
         NMat0=    1 NMatS0=  52650 NMatT0=    0 NMatD0=    1 NMtDS0=    0 NMtDT0=    0
 Symmetry not used in FoFCou.
[...]
    R8        2.51052  -0.00000   0.00000  -0.00001  -0.00001   2.51051
    R9        2.50396   0.00000   0.00000   0.00001   0.00001   2.50397
   R10        1.82814   0.00000   0.00000   0.00000   0.00000   1.82814
    A1        2.14386  -0.00000   0.00000  -0.00001  -0.00001   2.14385
    A2        2.20931  -0.00000   0.00000   0.00000   0.00000   2.20931
    A3        1.92997   0.00000   0.00000   0.00001   0.00001   1.92999
    A4        1.96511   0.00000   0.00000  -0.00000  -0.00000   1.96511
    A5        1.92536  -0.00000   0.00000   0.00001   0.00001   1.92537
    A6        1.89979  -0.00000   0.00000  -0.00000  -0.00000   1.89979
    A7        1.88608   0.00000   0.00000  -0.00000  -0.00000   1.88608
    A8        1.88158   0.00000   0.00000   0.00000   0.00000   1.88158
    A9        1.90471  -0.00000   0.00000  -0.00000  -0.00000   1.90471
   A10        1.91821   0.00000   0.00000  -0.00000  -0.00000   1.91821
   A11        1.91094   0.00000   0.00000   0.00001   0.00001   1.91096
   A12        1.93146  -0.00000   0.00000  -0.00001  -0.00001   1.93145
   A13        1.90321  -0.00000   0.00000  -0.00000  -0.00000   1.90321
   A14        1.90051  -0.00000   0.00000   0.00000   0.00000   1.90051
   A15        1.89916  -0.00000   0.00000   0.00000   0.00000   1.89916
   A16        1.89127  -0.00000   0.00000  -0.00000  -0.00000   1.89126
    D1        1.83102   0.00000   0.00000  -0.00017  -0.00017   1.83085
    D2       -2.34364   0.00000   0.00000  -0.00017  -0.00017  -2.34381
    D3       -0.25422  -0.00000   0.00000  -0.00017  -0.00017  -0.25439
    D4       -1.30152  -0.00000   0.00000  -0.00017  -0.00017  -1.30169
    D5        0.80701   0.00000   0.00000  -0.00017  -0.00017   0.80684
    D6        2.89643  -0.00000   0.00000  -0.00017  -0.00017   2.89626
    D7       -0.00613  -0.00000   0.00000  -0.00001  -0.00001  -0.00614
    D8        3.12599   0.00000   0.00000  -0.00001  -0.00001   3.12598
    D9       -3.03218  -0.00000   0.00000  -0.00013  -0.00013  -3.03231
   D10       -0.94204  -0.00000   0.00000  -0.00013  -0.00013  -0.94217
   D11        1.15130   0.00000   0.00000  -0.00012  -0.00012   1.15118
   D12        1.12013  -0.00000   0.00000  -0.00013  -0.00013   1.12000
   D13       -3.07292  -0.00000   0.00000  -0.00013  -0.00013  -3.07305
   D14       -0.97957   0.00000   0.00000  -0.00013  -0.00013  -0.97970
   D15       -0.93639  -0.00000   0.00000  -0.00013  -0.00013  -0.93652
   D16        1.15375  -0.00000   0.00000  -0.00013  -0.00013   1.15362
   D17       -3.03609   0.00000   0.00000  -0.00012  -0.00012  -3.03621
         Item               Value     Threshold  Converged?
 Maximum Force            0.000002     0.000450     YES
 RMS     Force            0.000001     0.000300     YES
 Maximum Displacement     0.000356     0.001800     YES
 RMS     Displacement     0.000115     0.001200     YES
 Predicted change in Energy=-9.609721D-11
 Optimization completed.
    -- Stationary point found.
                           ----------------------------
                           !   Optimized Parameters   !
                           ! (Angstroms and Degrees)  !
 --------------------------                            --------------------------
 ! Name  Definition              Value          Derivative Info.                !
 --------------------------------------------------------------------------------
 ! R1    R(1,2)                  1.1879         -DE/DX =    0.0                 !
 ! R2    R(1,3)                  1.5442         -DE/DX =    0.0                 !
 ! R3    R(1,10)                 1.329          -DE/DX =    0.0                 !
 ! R4    R(3,4)                  1.5443         -DE/DX =    0.0                 !
 ! R5    R(3,8)                  1.3415         -DE/DX =    0.0                 !
 ! R6    R(3,9)                  1.3329         -DE/DX =    0.0                 !
 ! R7    R(4,5)                  1.3232         -DE/DX =    0.0                 !
 ! R8    R(4,6)                  1.3285         -DE/DX =    0.0                 !
 ! R9    R(4,7)                  1.325          -DE/DX =    0.0                 !
 ! R10   R(10,11)                0.9674         -DE/DX =    0.0                 !
 ! A1    A(2,1,3)              122.834          -DE/DX =    0.0                 !
 ! A2    A(2,1,10)             126.5843         -DE/DX =    0.0                 !
 ! A3    A(3,1,10)             110.5794         -DE/DX =    0.0                 !
 ! A4    A(1,3,4)              112.5925         -DE/DX =    0.0                 !
 ! A5    A(1,3,8)              110.315          -DE/DX =    0.0                 !
 ! A6    A(1,3,9)              108.8502         -DE/DX =    0.0                 !
 ! A7    A(4,3,8)              108.0646         -DE/DX =    0.0                 !
 ! A8    A(4,3,9)              107.8064         -DE/DX =    0.0                 !
 ! A9    A(8,3,9)              109.132          -DE/DX =    0.0                 !
 ! A10   A(3,4,5)              109.9056         -DE/DX =    0.0                 !
 ! A11   A(3,4,6)              109.4891         -DE/DX =    0.0                 !
 ! A12   A(3,4,7)              110.6646         -DE/DX =    0.0                 !
 ! A13   A(5,4,6)              109.0459         -DE/DX =    0.0                 !
 ! A14   A(5,4,7)              108.891          -DE/DX =    0.0                 !
 ! A15   A(6,4,7)              108.8136         -DE/DX =    0.0                 !
 ! A16   A(1,10,11)            108.3616         -DE/DX =    0.0                 !
 ! D1    D(2,1,3,4)            104.9098         -DE/DX =    0.0                 !
 ! D2    D(2,1,3,8)           -134.2806         -DE/DX =    0.0                 !
 ! D3    D(2,1,3,9)            -14.5657         -DE/DX =    0.0                 !
 ! D4    D(10,1,3,4)           -74.5713         -DE/DX =    0.0                 !
 ! D5    D(10,1,3,8)            46.2383         -DE/DX =    0.0                 !
 ! D6    D(10,1,3,9)           165.9531         -DE/DX =    0.0                 !
 ! D7    D(2,1,10,11)           -0.3513         -DE/DX =    0.0                 !
 ! D8    D(3,1,10,11)          179.1058         -DE/DX =    0.0                 !
 ! D9    D(1,3,4,5)           -173.7309         -DE/DX =    0.0                 !
 ! D10   D(1,3,4,6)            -53.9751         -DE/DX =    0.0                 !
 ! D11   D(1,3,4,7)             65.9649         -DE/DX =    0.0                 !
 ! D12   D(8,3,4,5)             64.1787         -DE/DX =    0.0                 !
 ! D13   D(8,3,4,6)           -176.0655         -DE/DX =    0.0                 !
 ! D14   D(8,3,4,7)            -56.1255         -DE/DX =    0.0                 !
 ! D15   D(9,3,4,5)            -53.651          -DE/DX =    0.0                 !
 ! D16   D(9,3,4,6)             66.1048         -DE/DX =    0.0                 !
 ! D17   D(9,3,4,7)           -173.9552         -DE/DX =    0.0                 !
 --------------------------------------------------------------------------------
 GradGradGradGradGradGradGradGradGradGradGradGradGradGradGradGradGradGrad

 Leave Link  103 at Sat May 24 04:32:11 2025, MaxMem=  3758096384 cpu:               0.0 elap:               0.0
 (Enter /apps/easybuild-2022/easybuild/software/Compiler/NVHPC/22.11-CUDA-11.7.0/Gaussian/g16c01-CUDA-11.7.0/g16/l9999.exe)

 ----------------------------------------------------------------------

 Electric dipole moment (input orientation):
 (Debye = 10**-18 statcoulomb cm , SI units = C m)
                  (au)            (Debye)         (10**-30 SI)
   Tot        0.907491D+00      0.230661D+01      0.769403D+01
   x          0.679658D+00      0.172752D+01      0.576238D+01
   y          0.601252D+00      0.152823D+01      0.509763D+01
   z         -0.100788D-01     -0.256178D-01     -0.854519D-01

 Dipole polarizability, Alpha (input orientation).
 (esu units = cm**3 , SI units = C**2 m**2 J**-1)
 Alpha(0;0):
               (au)            (10**-24 esu)      (10**-40 SI)
   iso        0.438551D+02      0.649865D+01      0.723072D+01
   aniso      0.105413D+02      0.156206D+01      0.173803D+01
   xx         0.479719D+02      0.710871D+01      0.790950D+01
   yx        -0.808562D+00     -0.119817D+00     -0.133314D+00
   yy         0.465436D+02      0.689704D+01      0.767400D+01
   zx        -0.106758D+01     -0.158199D+00     -0.176020D+00
   zy         0.362426D-01      0.537060D-02      0.597560D-02
   zz         0.370497D+02      0.549020D+01      0.610867D+01

 ----------------------------------------------------------------------

 Dipole orientation:
     6          2.14300960         -0.93606009          1.70087089
     8          3.57822766         -2.61089607          1.28385198
     6          0.86775033          0.61839722         -0.41411164
     6         -1.93647639         -0.09455782         -0.79417094
     9         -2.85774097          1.10554478         -2.78496814
     9         -2.12812473         -2.56960288         -1.16852423
     9         -3.28659011          0.52414187          1.22182601
     9          0.98402169          3.09374485          0.12069538
     9          2.07346803          0.18482126         -2.58264948
     8          1.38655159         -0.14053919          3.95972715
     1          2.19861002         -1.16924894          5.23425529

 Electric dipole moment (dipole orientation):
 (Debye = 10**-18 statcoulomb cm , SI units = C m)
                  (au)            (Debye)         (10**-30 SI)
   Tot        0.907491D+00      0.230661D+01      0.769403D+01
   x          0.000000D+00      0.000000D+00      0.000000D+00
   y          0.000000D+00      0.000000D+00      0.000000D+00
   z          0.907491D+00      0.230661D+01      0.769403D+01

 Dipole polarizability, Alpha (dipole orientation).
 (esu units = cm**3 , SI units = C**2 m**2 J**-1)
 Alpha(0;0):
               (au)            (10**-24 esu)      (10**-40 SI)
   iso        0.438551D+02      0.649865D+01      0.723072D+01
   aniso      0.105413D+02      0.156206D+01      0.173803D+01
   xx         0.425563D+02      0.630620D+01      0.701659D+01
   yx        -0.551742D+01     -0.817597D+00     -0.909699D+00
   yy         0.424504D+02      0.629050D+01      0.699913D+01
   zx         0.104219D+01      0.154437D+00      0.171834D+00
   zy        -0.166941D+00     -0.247381D-01     -0.275248D-01
   zz         0.465584D+02      0.689924D+01      0.767644D+01

 ----------------------------------------------------------------------
 Unable to Open any file for archive entry.
 1\1\GINC-SPARTAN-BM193\Freq\RM062X\def2TZVPP\C3H1F5O2\AKHALILOV\24-May
 -2025\0\\#P Geom=AllCheck Guess=TCheck SCRF=Check GenChk RM062X/def2TZ
 VPP Freq\\Gaussian input prepared by ASE\\0,1\C,1.4134403287,-0.248165
 7706,-0.5311342471\O,2.0215808284,-1.2683359132,-0.5102905335\C,-0.129
 5915689,-0.1936212325,-0.5582871073\C,-0.7331341787,0.2079275696,0.805
 2891677\F,-2.0517845307,0.1077365581,0.7613480944\F,-0.2681917744,-0.6
 007866779,1.7512016814\F,-0.4076369442,1.4553076536,1.1116035639\F,-0.
 5482858011,0.6914524359,-1.4753751151\F,-0.5977698687,-1.4016631229,-0
 .8713824838\O,1.924196634,0.9787628292,-0.5235203949\H,2.8884528756,0.
 9072626708,-0.4921796257\\Version=ES64L-G16RevC.01\HF=-764.6682638\RMS
 D=2.276e-09\RMSF=2.573e-06\ZeroPoint=0.0527025\Thermal=0.0616383\ETot=
 -764.6066254\HTot=-764.6056813\GTot=-764.6513834\Dipole=0.6796575,0.60
 12522,-0.0100788\DipoleDeriv=1.1572428,0.0308732,-0.1188455,0.08539,1.
 8011042,0.0098273,0.0600213,-0.0079713,0.2345199,-0.7614107,0.3591555,
 0.0386603,0.1136844,-0.9824115,-0.0225602,-0.0174477,0.0100665,-0.3101
 496,0.7321112,0.0604506,0.1840141,0.1186962,1.1876108,-0.1136051,0.262
 3257,-0.1220542,0.9426113,1.6497539,0.0284188,0.0981752,-0.0222426,1.5
 642818,-0.0593889,-0.1098883,-0.0425637,1.3942311,-1.003092,-0.0250042
 ,0.0163624,-0.0108389,-0.2731862,-0.0188495,0.1214532,-0.0215645,-0.33
 32526,-0.3704186,0.1152626,-0.0855563,0.1261754,-0.4783101,0.2190377,-
 0.111729,0.2824551,-0.6711681,-0.3301122,-0.0903604,0.008069,-0.119739
 9,-0.8052872,-0.1367499,0.0021237,-0.2102397,-0.3704619,-0.3817337,0.1
 502287,-0.1269421,0.1127065,-0.4898031,0.2254813,-0.1436334,0.2939503,
 -0.5817174,-0.3782872,-0.2165519,-0.0393294,-0.1970641,-0.7077704,-0.1
 123653,-0.0638447,-0.180828,-0.3241116,-0.6458149,-0.5050211,0.0317118
 ,-0.2932407,-1.113762,0.0099146,0.0072952,-0.0041145,-0.3266583,0.3317
 614,0.0925483,-0.0063195,0.0864736,0.2975337,-0.000742,-0.006676,0.002
 8639,0.3461572\Polar=47.9719224,-0.8085619,46.5435526,-1.0675786,0.036
 2426,37.0496767\PG=Unknown\NImag=0\\0.74002390,-0.20061408,0.98414596,
 0.00720347,-0.01001983,0.22929902,-0.32752573,0.31778587,-0.00675989,0
 .31509736,0.33301809,-0.62343999,0.01052640,-0.36988674,0.74065007,-0.
 00585095,0.01017556,-0.07510145,0.00892386,-0.01188849,0.03023318,-0.1
 8192692,-0.00706326,0.02168852,-0.01566502,0.01522368,-0.00654733,0.55
 830526,-0.00599150,-0.04594550,-0.00840236,0.03889999,-0.02058020,0.00
 046042,0.01867462,0.58646013,-0.01288102,-0.00760825,-0.09780582,0.008
 31367,-0.00483897,0.02375691,0.03555634,0.00815867,0.54910948,-0.01330
 433,0.01158284,0.03143165,-0.00208710,-0.00021984,-0.00441562,-0.09162
 045,0.02072661,0.07220890,0.60852132,0.01036322,0.02034288,0.00120992,
 -0.00317878,-0.00517365,0.00110867,0.00998809,-0.04781813,-0.03637740,
 -0.00392578,0.59842825,0.02967697,-0.00105372,0.01566226,-0.01298228,0
 .00684049,-0.00588925,0.03353472,-0.03679776,-0.16165323,-0.01701089,0
 .01225948,0.61899237,0.00830890,0.00113551,0.00661528,-0.00422351,0.00
 215463,-0.00110963,-0.05421953,-0.00422559,-0.00385646,-0.32185849,-0.
 00796270,0.02523423,0.45191365,-0.00145134,-0.00236636,-0.00126191,0.0
 0070492,0.00057664,0.00017052,0.00733203,0.00220735,-0.00114478,-0.011
 51298,-0.07689666,-0.00097768,0.02932368,0.08494719,-0.00630397,-0.001
 63557,-0.00675698,0.00368317,-0.00148970,0.00162921,0.03674045,0.00091
 337,0.00181269,0.01678467,-0.00206825,-0.08520367,0.01546776,-0.000028
 58,0.07439961,-0.00113953,0.00157289,-0.00269078,0.00092303,-0.0015937
 5,0.00176533,0.00715133,-0.00094137,0.00107282,-0.09581393,0.03714386,
 -0.04894882,-0.05001283,0.03426378,-0.04928779,0.12273134,0.00153244,-
 0.00475290,0.00112421,-0.00120957,0.00264580,-0.00128943,0.00501063,-0
 .00630021,0.00581119,0.03646603,-0.14692005,0.10371525,0.02447370,0.00
 470572,0.01126367,-0.07509823,0.21666051,-0.00626080,0.00132796,-0.002
 25186,0.00385160,-0.00226359,0.00094157,-0.01854180,0.03722572,-0.0251
 8383,-0.04336297,0.09486437,-0.23352681,-0.03392674,0.01075146,-0.0016
 0032,0.09227110,-0.16178072,0.26259838,-0.00076564,-0.00429558,-0.0027
 7208,0.00028603,0.00125020,0.00032369,0.00873845,0.00458067,-0.0006076
 9,-0.08603713,-0.04103047,-0.01063080,-0.03993466,-0.06083043,-0.01845
 751,0.01401801,0.00994499,0.00117869,0.10434551,-0.00563310,-0.0066005
 2,-0.00176095,0.00169374,0.00218313,0.00005603,-0.00974088,-0.03293583
 ,0.00053701,-0.03745199,-0.28534593,-0.08182177,-0.04416017,-0.0202031
 5,-0.00825885,0.00469978,-0.07504227,0.02257983,0.08599880,0.41135074,
 -0.00445635,0.00000772,-0.00174601,0.00186945,-0.00050972,0.00062463,-
 0.00863914,-0.03198505,0.00115293,-0.00789795,-0.07154258,-0.11145922,
 -0.01150072,-0.00653723,0.01195373,0.00184072,0.03919392,0.01405876,0.
 02373282,0.07864812,0.09426408,-0.00259899,0.02854103,-0.03614554,-0.0
 1110832,0.00322696,0.00457429,-0.10698547,0.04767209,-0.06887591,0.002
 50235,-0.00012234,0.00482358,0.00606616,-0.00130557,-0.00059947,0.0009
 8168,-0.00112781,0.00281808,0.00047380,-0.00047894,0.00012677,0.099654
 82,0.00197999,-0.01449601,0.01568894,0.00599295,0.00116821,-0.00157453
 ,0.05563113,-0.15031381,0.11292213,0.00362356,-0.01088757,0.00706391,-
 0.00220293,0.00208444,-0.00043968,-0.00034097,0.00160834,0.00123558,-0
 .00029011,0.00647484,-0.00035759,-0.07034032,0.22922287,0.00031120,0.0
 1641798,-0.00703513,-0.00702105,0.00099965,0.00025874,-0.06227180,0.09
 573077,-0.20605166,-0.02482202,0.03925749,-0.03037071,0.00302703,-0.00
 251809,0.00222204,0.00278522,0.00107141,-0.01528878,0.00140413,-0.0030
 5711,0.00042311,0.08191145,-0.16450459,0.24007763,-0.01574808,-0.04275
 007,-0.01537347,0.00092979,-0.00204850,0.00184912,-0.11269437,-0.08033
 906,-0.03416296,0.00041486,0.00122625,0.00414341,0.00586694,0.00288157
 ,0.00004380,0.00066298,0.00015827,0.00013573,0.00072024,0.00213860,0.0
 0114908,0.01398172,0.00413217,0.00678634,0.11828440,-0.00433938,-0.027
 60200,-0.00562828,0.00068788,0.00885572,0.00198482,-0.09098190,-0.2675
 3920,-0.08211955,-0.01704866,-0.03749261,-0.00459334,0.00239626,0.0037
 6847,0.00032737,0.00059832,0.00572969,-0.00420410,0.00232792,-0.004379
 48,-0.00794163,-0.00454750,-0.07015425,0.02019895,0.11789773,0.3873792
 6,-0.00025891,-0.00749425,0.00549941,-0.00006519,0.00163323,-0.0002984
 6,-0.02722472,-0.06775588,-0.10080390,-0.01942590,-0.03562427,-0.00358
 306,0.00056045,0.00107532,0.00055152,0.00106763,0.00056143,0.00007570,
 0.00288925,-0.00799228,-0.00878355,0.00936718,0.03280939,0.01428952,0.
 03469902,0.08259069,0.09291008,-0.17758447,-0.09472064,-0.00230620,0.0
 4150534,0.01004952,0.00041254,-0.01200731,-0.03666832,0.00342236,0.000
 35462,-0.00246793,-0.00802932,-0.00233980,0.00057100,0.00198406,0.0002
 7866,-0.00013307,0.00195510,-0.00211799,0.00277269,0.00376440,-0.00398
 907,0.00145220,-0.00235855,-0.01241642,-0.00677129,-0.00177697,0.66522
 102,-0.07171538,-0.28218685,0.00003051,0.00091877,-0.10834990,0.000611
 55,-0.00322927,-0.01163847,0.00407148,-0.00147199,-0.00817442,-0.00455
 361,-0.00113184,0.00117258,0.00138883,-0.00049063,0.00174269,0.0002885
 8,0.00202173,0.00436339,0.00119247,-0.00237035,0.00468546,-0.00365848,
 -0.00144397,0.00246304,0.00050611,0.05459802,0.44469736,-0.00136942,-0
 .00053323,-0.06415464,0.00002078,0.00091250,0.02965698,-0.00282821,0.0
 0133099,0.00995534,-0.00306547,-0.00273525,-0.00319761,-0.00010479,0.0
 0043502,0.00087464,0.00032063,0.00022920,0.00056137,0.00265555,0.00106
 256,-0.00017497,0.00135977,-0.00196551,0.00155908,0.00013732,-0.000588
 62,0.00027954,0.01895812,-0.00017840,0.04094181,-0.02773911,-0.0111745
 3,-0.00089095,0.00186812,0.00882573,0.00007469,0.00092403,-0.00238812,
 -0.00019006,-0.00107173,-0.00003342,0.00018919,0.00043315,0.00002334,-
 0.00005518,0.00021926,-0.00001738,-0.00011798,0.00027337,0.00016148,0.
 00001091,0.00102131,0.00036232,0.00024805,-0.00000205,-0.00021937,0.00
 016817,-0.49690459,0.02431491,-0.01608428,0.52097825,-0.05714899,0.002
 90128,-0.00150664,0.00759098,0.00146416,0.00018487,-0.00084486,-0.0055
 9614,0.00058847,-0.00076779,-0.00006211,-0.00008125,0.00019945,0.00000
 380,0.00002738,0.00018632,-0.00007731,-0.00002508,0.00032227,0.0001350
 8,-0.00016843,0.00085275,0.00060749,0.00006202,-0.00185300,-0.00102863
 ,-0.00030950,0.07131780,-0.04877488,0.00203073,-0.01985496,0.05042726,
 0.00018977,0.00041562,0.00439121,0.00016588,0.00007821,-0.00581205,-0.
 00146703,0.00112110,0.00571108,-0.00042440,-0.00035217,0.00022893,-0.0
 0040640,0.00003597,0.00011753,-0.00019606,0.00009986,-0.00038417,0.000
 28395,0.00000739,-0.00031349,0.00063979,-0.00087806,-0.00008384,0.0005
 9260,-0.00002631,-0.00013681,-0.01602555,0.00030095,-0.01630155,0.0166
 4745,-0.00080257,0.01258317\\0.00000063,0.00000079,0.00000161,0.000004
 17,0.00000252,0.00000477,0.00000096,-0.00000243,0.00000050,-0.00000209
 ,0.00000012,-0.00000258,-0.00000101,-0.00000361,-0.00000313,0.00000056
 ,0.00000186,0.00000051,-0.00000450,-0.00000023,-0.00000358,0.00000018,
 -0.00000390,-0.00000208,0.00000431,-0.00000276,0.00000227,-0.00000187,
 0.00000282,0.00000037,-0.00000135,0.00000481,0.00000135\\\@
 The archive entry for this job was punched.


 SI MONUMENTUM REQUIRIS, CIRCUMSPICE
     -- FROM SIR CHRISTOPHER WREN'S TOMBSTONE
 Job cpu time:       0 days  0 hours 27 minutes 34.4 seconds.
 Elapsed time:       0 days  0 hours  3 minutes 30.7 seconds.
 File lengths (MBytes):  RWF=    116 Int=      0 D2E=      0 Chk=      9 Scr=      1
 Normal termination of Gaussian 16 at Sat May 24 04:32:11 2025.
done
