 Entering Gaussian System, Link 0=g16
 Initial command:
 /apps/easybuild-2022/easybuild/software/Compiler/NVHPC/22.11-CUDA-11.7.0/Gaussian/g16c01-CUDA-11.7.0/g16/l1.exe "/tmp/Gau-259980.inp" -scrdir="/tmp/"
 Entering Link 1 = /apps/easybuild-2022/easybuild/software/Compiler/NVHPC/22.11-CUDA-11.7.0/Gaussian/g16c01-CUDA-11.7.0/g16/l1.exe PID=    259981.
  
 Copyright (c) 1988-2019, Gaussian, Inc.  All Rights Reserved.
  
 This is part of the Gaussian(R) 16 program.  It is based on
 the Gaussian(R) 09 system (copyright 2009, Gaussian, Inc.),
 the Gaussian(R) 03 system (copyright 2003, Gaussian, Inc.),
 the Gaussian(R) 98 system (copyright 1998, Gaussian, Inc.),
 the Gaussian(R) 94 system (copyright 1995, Gaussian, Inc.),
 the Gaussian 92(TM) system (copyright 1992, Gaussian, Inc.),
 the Gaussian 90(TM) system (copyright 1990, Gaussian, Inc.),
 the Gaussian 88(TM) system (copyright 1988, Gaussian, Inc.),
 the Gaussian 86(TM) system (copyright 1986, Carnegie Mellon
 University), and the Gaussian 82(TM) system (copyright 1983,
 Carnegie Mellon University). Gaussian is a federally registered
 trademark of Gaussian, Inc.
  
 This software contains proprietary and confidential information,
 including trade secrets, belonging to Gaussian, Inc.
  
 This software is provided under written license and may be
 used, copied, transmitted, or stored only in accord with that
 written license.
  
 The following legend is applicable only to US Government
 contracts under FAR:
  
                    RESTRICTED RIGHTS LEGEND
  
 Use, reproduction and disclosure by the US Government is
 subject to restrictions as set forth in subparagraphs (a)
 and (c) of the Commercial Computer Software - Restricted
 Rights clause in FAR 52.227-19.
  
 Gaussian, Inc.
 340 Quinnipiac St., Bldg. 40, Wallingford CT 06492
  
  
 ---------------------------------------------------------------
 Warning -- This program may not be used in any manner that
 competes with the business of Gaussian, Inc. or will provide
 assistance to any competitor of Gaussian, Inc.  The licensee
 of this program is prohibited from giving any competitor of
 Gaussian, Inc. access to this program.  By using this program,
 the user acknowledges that Gaussian, Inc. is engaged in the
 business of creating and licensing software in the field of
 computational chemistry and represents and warrants to the
 licensee that it is not a competitor of Gaussian, Inc. and that
 it will not use this program in any manner prohibited above.
 ---------------------------------------------------------------
  

 Cite this work as:
 Gaussian 16, Revision C.01,
 M. J. Frisch, G. W. Trucks, H. B. Schlegel, G. E. Scuseria, 
 M. A. Robb, J. R. Cheeseman, G. Scalmani, V. Barone, 
 G. A. Petersson, H. Nakatsuji, X. Li, M. Caricato, A. V. Marenich, 
 J. Bloino, B. G. Janesko, R. Gomperts, B. Mennucci, H. P. Hratchian, 
 J. V. Ortiz, A. F. Izmaylov, J. L. Sonnenberg, D. Williams-Young, 
 F. Ding, F. Lipparini, F. Egidi, J. Goings, B. Peng, A. Petrone, 
 T. Henderson, D. Ranasinghe, V. G. Zakrzewski, J. Gao, N. Rega, 
 G. Zheng, W. Liang, M. Hada, M. Ehara, K. Toyota, R. Fukuda, 
 J. Hasegawa, M. Ishida, T. Nakajima, Y. Honda, O. Kitao, H. Nakai, 
 T. Vreven, K. Throssell, J. A. Montgomery, Jr., J. E. Peralta, 
 F. Ogliaro, M. J. Bearpark, J. J. Heyd, E. N. Brothers, K. N. Kudin, 
 V. N. Staroverov, T. A. Keith, R. Kobayashi, J. Normand, 
 K. Raghavachari, A. P. Rendell, J. C. Burant, S. S. Iyengar, 
 J. Tomasi, M. Cossi, J. M. Millam, M. Klene, C. Adamo, R. Cammi, 
 J. W. Ochterski, R. L. Martin, K. Morokuma, O. Farkas, 
 J. B. Foresman, and D. J. Fox, Gaussian, Inc., Wallingford CT, 2019.
 
 ******************************************
 Gaussian 16:  ES64L-G16RevC.01  3-Jul-2019
                24-May-2025 
 ******************************************
 %mem=28GB
 %chk=500620380000000000001_well
 %nprocshared=8
 Will use up to    8 processors via shared memory.
 -----------------------------------------------------------------
 #P M062X/Def2TZVPP Symm(None) scf(xqc) pop(None) freq opt(CalcFC)
 -----------------------------------------------------------------
 1/10=4,18=20,19=15,26=3,38=1/1,3;
 2/9=110,12=2,15=3,17=6,18=5,40=1/2;
 3/5=44,7=202,11=2,25=1,30=1,71=2,74=-55,140=1/1,2,3;
 4//1;
 5/5=2,8=3,13=1,38=5/2,8;
 8/6=4,10=90,11=11/1;
 11/6=1,8=1,9=11,15=111,16=1,31=1/1,2,10;
 10/6=1,13=1,31=1/2;
 7/10=1,25=1,30=1/1,2,3,16;
 1/10=4,18=20,19=15,26=3/3(2);
 2/9=110,15=3/2;
 99//99;
 2/9=110,15=3/2;
 3/5=44,7=202,11=2,25=1,30=1,71=1,74=-55/1,2,3;
 4/5=5,16=3,69=1/1;
 5/5=2,8=3,13=1,38=5/2,8;
 7/30=1/1,2,3,16;
 1/18=20,19=15,26=3/3(-5);
 2/9=110,15=3/2;
 99/9=1/99;
 Leave Link    1 at Sat May 24 04:24:51 2025, MaxMem=  3758096384 cpu:               0.0 elap:               0.0
 (Enter /apps/easybuild-2022/easybuild/software/Compiler/NVHPC/22.11-CUDA-11.7.0/Gaussian/g16c01-CUDA-11.7.0/g16/l101.exe)
 ------------------------------
 Gaussian input prepared by ASE
 ------------------------------
 Symbolic Z-matrix:
 Charge =  0 Multiplicity = 1
 C                    -0.79099  -0.68313  -1.74649 
 F                    -1.81065  -0.42603  -2.49557 
 F                    -0.68293  -1.96674  -1.75712 
 
 ITRead=  0  0  0
 MicOpt= -1 -1 -1
 NAtoms=      3 NQM=        3 NQMF=       0 NMMI=      0 NMMIF=      0
                NMic=       0 NMicF=      0.
                    Isotopes and Nuclear Properties:
 (Nuclear quadrupole moments (NQMom) in fm**2, nuclear magnetic moments (NMagM)
  in nuclear magnetons)

  Atom         1           2           3
 IAtWgt=          12          19          19
 AtmWgt=  12.0000000  18.9984032  18.9984032
 NucSpn=           0           1           1
 AtZEff=  -0.0000000  -0.0000000  -0.0000000
 NQMom=    0.0000000   0.0000000   0.0000000
 NMagM=    0.0000000   2.6288670   2.6288670
 AtZNuc=   6.0000000   9.0000000   9.0000000
 Leave Link  101 at Sat May 24 04:24:51 2025, MaxMem=  3758096384 cpu:               0.2 elap:               0.2
 (Enter /apps/easybuild-2022/easybuild/software/Compiler/NVHPC/22.11-CUDA-11.7.0/Gaussian/g16c01-CUDA-11.7.0/g16/l103.exe)

 GradGradGradGradGradGradGradGradGradGradGradGradGradGradGradGradGradGrad
 Berny optimization.
 Initialization pass.
                           ----------------------------
                           !    Initial Parameters    !
                           ! (Angstroms and Degrees)  !
 --------------------------                            --------------------------
 ! Name  Definition              Value          Derivative Info.                !
 --------------------------------------------------------------------------------
 ! R1    R(1,2)                  1.2911         calculate D2E/DX2 analytically  !
 ! R2    R(1,3)                  1.2882         calculate D2E/DX2 analytically  !
 ! A1    A(2,1,3)              105.0633         calculate D2E/DX2 analytically  !
 --------------------------------------------------------------------------------
 Trust Radius=3.00D-01 FncErr=1.00D-07 GrdErr=1.00D-06 EigMax=2.50D+02 EigMin=1.00D-04
 Number of steps in this run=     20 maximum allowed number of steps=    100.
 GradGradGradGradGradGradGradGradGradGradGradGradGradGradGradGradGradGrad

 Leave Link  103 at Sat May 24 04:24:51 2025, MaxMem=  3758096384 cpu:               0.0 elap:               0.0
 (Enter /apps/easybuild-2022/easybuild/software/Compiler/NVHPC/22.11-CUDA-11.7.0/Gaussian/g16c01-CUDA-11.7.0/g16/l202.exe)
                          Input orientation:                          
 ---------------------------------------------------------------------
 Center     Atomic      Atomic             Coordinates (Angstroms)
 Number     Number       Type             X           Y           Z
 ---------------------------------------------------------------------
      1          6           0       -0.790993   -0.683127   -1.746486
      2          9           0       -1.810650   -0.426029   -2.495570
      3          9           0       -0.682926   -1.966737   -1.757121
 ---------------------------------------------------------------------
                    Distance matrix (angstroms):
                    1          2          3
     1  C    0.000000
     2  F    1.291095   0.000000
     3  F    1.288195   2.047156   0.000000
 Symmetry turned off by external request.
 Stoichiometry    CF2
 Rotational constants (GHZ):          90.0376438          12.6948520          11.1261248
 Leave Link  202 at Sat May 24 04:24:51 2025, MaxMem=  3758096384 cpu:               0.0 elap:               0.0
 (Enter /apps/easybuild-2022/easybuild/software/Compiler/NVHPC/22.11-CUDA-11.7.0/Gaussian/g16c01-CUDA-11.7.0/g16/l301.exe)
 Standard basis: def2TZVPP (5D, 7F)
 Ernie: Thresh=  0.10000D-02 Tol=  0.10000D-05 Strict=F.
    93 basis functions,   153 primitive gaussians,   108 cartesian basis functions
    12 alpha electrons       12 beta electrons
       nuclear repulsion energy        65.2534549237 Hartrees.
 IExCor= 4336 DFT=T Ex+Corr=M062X ExCW=0 ScaHFX=  0.540000
 ScaDFX=  1.000000  1.000000  1.000000  1.000000 ScalE2=  1.000000  1.000000
 IRadAn=      5 IRanWt=     -1 IRanGd=            0 ICorTp=0 IEmpDi=  4
 NAtoms=    3 NActive=    3 NUniq=    3 SFac= 1.00D+00 NAtFMM=   60 NAOKFM=F Big=F
 Integral buffers will be    131072 words long.
 Raffenetti 2 integral format.
 Two-electron integral symmetry is turned off.
 Leave Link  301 at Sat May 24 04:24:51 2025, MaxMem=  3758096384 cpu:               0.0 elap:               0.0
 (Enter /apps/easybuild-2022/easybuild/software/Compiler/NVHPC/22.11-CUDA-11.7.0/Gaussian/g16c01-CUDA-11.7.0/g16/l302.exe)
 NPDir=0 NMtPBC=     1 NCelOv=     1 NCel=       1 NClECP=     1 NCelD=      1
         NCelK=      1 NCelE2=     1 NClLst=     1 CellRange=     0.0.
 One-electron integrals computed using PRISM.
   1 Symmetry operations used in ECPInt.
 ECPInt:  NShTT=     561 NPrTT=    1896 LenC2=     557 LenP2D=    1657.
 LDataN:  DoStor=T MaxTD1= 6 Len=  172
 NBasis=    93 RedAO= T EigKep=  2.16D-03  NBF=    93
 NBsUse=    93 1.00D-06 EigRej= -1.00D+00 NBFU=    93
 Precomputing XC quadrature grid using
 IXCGrd= 4 IRadAn=           5 IRanWt=          -1 IRanGd=           0 AccXCQ= 0.00D+00.
 Generated NRdTot=       0 NPtTot=           0 NUsed=           0 NTot=          32
 NSgBfM=   108   108   108   108   108 MxSgAt=     3 MxSgA2=     3.
 Leave Link  302 at Sat May 24 04:24:51 2025, MaxMem=  3758096384 cpu:               0.3 elap:               0.1
 (Enter /apps/easybuild-2022/easybuild/software/Compiler/NVHPC/22.11-CUDA-11.7.0/Gaussian/g16c01-CUDA-11.7.0/g16/l303.exe)
 DipDrv:  MaxL=1.
 Leave Link  303 at Sat May 24 04:24:51 2025, MaxMem=  3758096384 cpu:               0.1 elap:               0.0
 (Enter /apps/easybuild-2022/easybuild/software/Compiler/NVHPC/22.11-CUDA-11.7.0/Gaussian/g16c01-CUDA-11.7.0/g16/l401.exe)
 ExpMin= 9.52D-02 ExpMax= 3.55D+04 ExpMxC= 1.21D+03 IAcc=3 IRadAn=         5 AccDes= 0.00D+00
 Harris functional with IExCor= 1009 and IRadAn=       5 diagonalized for initial guess.
 HarFok:  IExCor= 1009 AccDes= 0.00D+00 IRadAn=         5 IDoV= 1 UseB2=F ITyADJ=14
 ICtDFT=  3500011 ScaDFX=  1.000000  1.000000  1.000000  1.000000
 FoFCou: FMM=F IPFlag=           0 FMFlag=      100000 FMFlg1=           0
         NFxFlg=           0 DoJE=T BraDBF=F KetDBF=T FulRan=T
         wScrn=  0.000000 ICntrl=       500 IOpCl=  0 I1Cent=   200000004 NGrid=           0
         NMat0=    1 NMatS0=      1 NMatT0=    0 NMatD0=    1 NMtDS0=    0 NMtDT0=    0
 Symmetry not used in FoFCou.
 Harris En= -237.566897937772    
 JPrj=0 DoOrth=F DoCkMO=F.
 Leave Link  401 at Sat May 24 04:24:51 2025, MaxMem=  3758096384 cpu:               0.7 elap:               0.1
 (Enter /apps/easybuild-2022/easybuild/software/Compiler/NVHPC/22.11-CUDA-11.7.0/Gaussian/g16c01-CUDA-11.7.0/g16/l502.exe)
 Keep R1 ints in memory in canonical form, NReq=17039264.
 FoFCou: FMM=F IPFlag=           0 FMFlag=           0 FMFlg1=           0
         NFxFlg=           0 DoJE=F BraDBF=F KetDBF=F FulRan=T
         wScrn=  0.000000 ICntrl=       600 IOpCl=  0 I1Cent=           0 NGrid=           0
         NMat0=    1 NMatS0=   4371 NMatT0=    0 NMatD0=    1 NMtDS0=    0 NMtDT0=    0
 Symmetry not used in FoFCou.
 Two-electron integral symmetry not used.
 Closed shell SCF:
 Using DIIS extrapolation, IDIIS=  1040.
 NGot=  3758096384 LenX=  3748516330 LenY=  3748504225
 Requested convergence on RMS density matrix=1.00D-08 within  32 cycles.
 Requested convergence on MAX density matrix=1.00D-06.
 Requested convergence on             energy=1.00D-06.
 No special actions if energy rises.
 Integral accuracy reduced to 1.0D-05 until final iterations.

 Cycle   1  Pass 0  IDiag  1:
 E= -237.705283786331    
 DIIS: error= 2.04D-02 at cycle   1 NSaved=   1.
 NSaved= 1 IEnMin= 1 EnMin= -237.705283786331     IErMin= 1 ErrMin= 2.04D-02
 ErrMax= 2.04D-02  0.00D+00 EMaxC= 1.00D-01 BMatC= 4.98D-02 BMatP= 4.98D-02
 IDIUse=3 WtCom= 7.96D-01 WtEn= 2.04D-01
 Coeff-Com:  0.100D+01
 Coeff-En:   0.100D+01
 Coeff:      0.100D+01
 Gap=     0.331 Goal=   None    Shift=    0.000
 GapD=    0.331 DampG=1.000 DampE=0.500 DampFc=0.5000 IDamp=-1.
 Damping current iteration by 5.00D-01
 RMSDP=1.67D-03 MaxDP=2.36D-02              OVMax= 3.91D-02

 Cycle   2  Pass 0  IDiag  1:
 E= -237.713798699105     Delta-E=       -0.008514912774 Rises=F Damp=T
 DIIS: error= 1.01D-02 at cycle   2 NSaved=   2.
 NSaved= 2 IEnMin= 2 EnMin= -237.713798699105     IErMin= 2 ErrMin= 1.01D-02
 ErrMax= 1.01D-02  0.00D+00 EMaxC= 1.00D-01 BMatC= 8.18D-03 BMatP= 4.98D-02
 IDIUse=3 WtCom= 8.99D-01 WtEn= 1.01D-01
 Coeff-Com: -0.281D+00 0.128D+01
 Coeff-En:   0.000D+00 0.100D+01
 Coeff:     -0.253D+00 0.125D+01
 Gap=     0.337 Goal=   None    Shift=    0.000
 RMSDP=7.14D-04 MaxDP=1.37D-02 DE=-8.51D-03 OVMax= 4.06D-02

 Cycle   3  Pass 0  IDiag  1:
 E= -237.721523339775     Delta-E=       -0.007724640670 Rises=F Damp=F
 DIIS: error= 5.88D-03 at cycle   3 NSaved=   3.
 NSaved= 3 IEnMin= 3 EnMin= -237.721523339775     IErMin= 3 ErrMin= 5.88D-03
 ErrMax= 5.88D-03  0.00D+00 EMaxC= 1.00D-01 BMatC= 2.99D-03 BMatP= 8.18D-03
 IDIUse=3 WtCom= 9.41D-01 WtEn= 5.88D-02
 Coeff-Com: -0.270D+00 0.561D+00 0.709D+00
 Coeff-En:   0.000D+00 0.000D+00 0.100D+01
 Coeff:     -0.254D+00 0.528D+00 0.727D+00
 Gap=     0.341 Goal=   None    Shift=    0.000
 RMSDP=2.83D-04 MaxDP=6.15D-03 DE=-7.72D-03 OVMax= 1.05D-02

 Cycle   4  Pass 0  IDiag  1:
 E= -237.723195290681     Delta-E=       -0.001671950905 Rises=F Damp=F
 DIIS: error= 6.34D-04 at cycle   4 NSaved=   4.
 NSaved= 4 IEnMin= 4 EnMin= -237.723195290681     IErMin= 4 ErrMin= 6.34D-04
 ErrMax= 6.34D-04  0.00D+00 EMaxC= 1.00D-01 BMatC= 3.84D-05 BMatP= 2.99D-03
 IDIUse=3 WtCom= 9.94D-01 WtEn= 6.34D-03
 Coeff-Com: -0.394D-01 0.717D-01 0.177D+00 0.791D+00
 Coeff-En:   0.000D+00 0.000D+00 0.000D+00 0.100D+01
 Coeff:     -0.391D-01 0.713D-01 0.176D+00 0.792D+00
 Gap=     0.340 Goal=   None    Shift=    0.000
 RMSDP=3.04D-05 MaxDP=8.93D-04 DE=-1.67D-03 OVMax= 1.84D-03

 Cycle   5  Pass 0  IDiag  1:
 E= -237.723219084378     Delta-E=       -0.000023793698 Rises=F Damp=F
 DIIS: error= 7.81D-05 at cycle   5 NSaved=   5.
 NSaved= 5 IEnMin= 5 EnMin= -237.723219084378     IErMin= 5 ErrMin= 7.81D-05
 ErrMax= 7.81D-05  0.00D+00 EMaxC= 1.00D-01 BMatC= 3.19D-07 BMatP= 3.84D-05
 IDIUse=1 WtCom= 1.00D+00 WtEn= 0.00D+00
 Coeff-Com:  0.329D-02-0.693D-02-0.165D-01-0.225D-01 0.104D+01
 Coeff:      0.329D-02-0.693D-02-0.165D-01-0.225D-01 0.104D+01
 Gap=     0.341 Goal=   None    Shift=    0.000
 RMSDP=7.70D-06 MaxDP=2.28D-04 DE=-2.38D-05 OVMax= 4.08D-04

 Initial convergence to 1.0D-05 achieved.  Increase integral accuracy.
 Cycle   6  Pass 1  IDiag  1:
 E= -237.723216666391     Delta-E=        0.000002417987 Rises=F Damp=F
 DIIS: error= 3.17D-05 at cycle   1 NSaved=   1.
 NSaved= 1 IEnMin= 1 EnMin= -237.723216666391     IErMin= 1 ErrMin= 3.17D-05
 ErrMax= 3.17D-05  0.00D+00 EMaxC= 1.00D-01 BMatC= 2.09D-07 BMatP= 2.09D-07
 IDIUse=1 WtCom= 1.00D+00 WtEn= 0.00D+00
 Coeff-Com:  0.100D+01
 Coeff:      0.100D+01
 Gap=     0.341 Goal=   None    Shift=    0.000
 RMSDP=7.70D-06 MaxDP=2.28D-04 DE= 2.42D-06 OVMax= 1.40D-04

 Cycle   7  Pass 1  IDiag  1:
 E= -237.723216741359     Delta-E=       -0.000000074968 Rises=F Damp=F
 DIIS: error= 4.23D-05 at cycle   2 NSaved=   2.
 NSaved= 2 IEnMin= 2 EnMin= -237.723216741359     IErMin= 1 ErrMin= 3.17D-05
 ErrMax= 4.23D-05  0.00D+00 EMaxC= 1.00D-01 BMatC= 1.71D-07 BMatP= 2.09D-07
 IDIUse=1 WtCom= 1.00D+00 WtEn= 0.00D+00
 Coeff-Com:  0.469D+00 0.531D+00
 Coeff:      0.469D+00 0.531D+00
 Gap=     0.341 Goal=   None    Shift=    0.000
 RMSDP=2.18D-06 MaxDP=4.92D-05 DE=-7.50D-08 OVMax= 1.02D-04

 Cycle   8  Pass 1  IDiag  1:
 E= -237.723216836002     Delta-E=       -0.000000094642 Rises=F Damp=F
 DIIS: error= 9.77D-06 at cycle   3 NSaved=   3.
 NSaved= 3 IEnMin= 3 EnMin= -237.723216836002     IErMin= 3 ErrMin= 9.77D-06
 ErrMax= 9.77D-06  0.00D+00 EMaxC= 1.00D-01 BMatC= 1.07D-08 BMatP= 1.71D-07
 IDIUse=1 WtCom= 1.00D+00 WtEn= 0.00D+00
 Coeff-Com: -0.493D-01 0.170D+00 0.879D+00
 Coeff:     -0.493D-01 0.170D+00 0.879D+00
 Gap=     0.341 Goal=   None    Shift=    0.000
 RMSDP=6.92D-07 MaxDP=1.19D-05 DE=-9.46D-08 OVMax= 2.06D-05

 Cycle   9  Pass 1  IDiag  1:
 E= -237.723216843203     Delta-E=       -0.000000007201 Rises=F Damp=F
 DIIS: error= 1.87D-06 at cycle   4 NSaved=   4.
 NSaved= 4 IEnMin= 4 EnMin= -237.723216843203     IErMin= 4 ErrMin= 1.87D-06
 ErrMax= 1.87D-06  0.00D+00 EMaxC= 1.00D-01 BMatC= 3.11D-10 BMatP= 1.07D-08
 IDIUse=1 WtCom= 1.00D+00 WtEn= 0.00D+00
 Coeff-Com: -0.266D-01 0.303D-01 0.194D+00 0.803D+00
 Coeff:     -0.266D-01 0.303D-01 0.194D+00 0.803D+00
 Gap=     0.341 Goal=   None    Shift=    0.000
 RMSDP=1.97D-07 MaxDP=4.22D-06 DE=-7.20D-09 OVMax= 7.82D-06

 Cycle  10  Pass 1  IDiag  1:
 E= -237.723216843483     Delta-E=       -0.000000000280 Rises=F Damp=F
 DIIS: error= 1.22D-06 at cycle   5 NSaved=   5.
 NSaved= 5 IEnMin= 5 EnMin= -237.723216843483     IErMin= 5 ErrMin= 1.22D-06
 ErrMax= 1.22D-06  0.00D+00 EMaxC= 1.00D-01 BMatC= 8.54D-11 BMatP= 3.11D-10
 IDIUse=1 WtCom= 1.00D+00 WtEn= 0.00D+00
 Coeff-Com: -0.414D-02-0.964D-02-0.464D-01 0.326D+00 0.735D+00
 Coeff:     -0.414D-02-0.964D-02-0.464D-01 0.326D+00 0.735D+00
 Gap=     0.341 Goal=   None    Shift=    0.000
 RMSDP=7.17D-08 MaxDP=1.43D-06 DE=-2.80D-10 OVMax= 4.91D-06

 Cycle  11  Pass 1  IDiag  1:
 E= -237.723216843554     Delta-E=       -0.000000000071 Rises=F Damp=F
 DIIS: error= 3.68D-07 at cycle   6 NSaved=   6.
 NSaved= 6 IEnMin= 6 EnMin= -237.723216843554     IErMin= 6 ErrMin= 3.68D-07
 ErrMax= 3.68D-07  0.00D+00 EMaxC= 1.00D-01 BMatC= 1.39D-11 BMatP= 8.54D-11
 IDIUse=1 WtCom= 1.00D+00 WtEn= 0.00D+00
 Coeff-Com:  0.288D-02-0.949D-02-0.551D-01 0.497D-02 0.316D+00 0.741D+00
 Coeff:      0.288D-02-0.949D-02-0.551D-01 0.497D-02 0.316D+00 0.741D+00
 Gap=     0.341 Goal=   None    Shift=    0.000
 RMSDP=2.88D-08 MaxDP=6.82D-07 DE=-7.06D-11 OVMax= 1.25D-06

 Cycle  12  Pass 1  IDiag  1:
 E= -237.723216843564     Delta-E=       -0.000000000010 Rises=F Damp=F
 DIIS: error= 2.61D-08 at cycle   7 NSaved=   7.
 NSaved= 7 IEnMin= 7 EnMin= -237.723216843564     IErMin= 7 ErrMin= 2.61D-08
 ErrMax= 2.61D-08  0.00D+00 EMaxC= 1.00D-01 BMatC= 1.06D-13 BMatP= 1.39D-11
 IDIUse=1 WtCom= 1.00D+00 WtEn= 0.00D+00
 Coeff-Com:  0.856D-05 0.395D-03 0.289D-02-0.161D-01-0.276D-01-0.169D-01
 Coeff-Com:  0.106D+01
 Coeff:      0.856D-05 0.395D-03 0.289D-02-0.161D-01-0.276D-01-0.169D-01
 Coeff:      0.106D+01
 Gap=     0.341 Goal=   None    Shift=    0.000
 RMSDP=6.29D-09 MaxDP=1.18D-07 DE=-1.03D-11 OVMax= 3.41D-07

 SCF Done:  E(RM062X) =  -237.723216844     A.U. after   12 cycles
            NFock= 12  Conv=0.63D-08     -V/T= 2.0034
 KE= 2.369192558869D+02 PE=-6.950821698239D+02 EE= 1.551862421697D+02
 Leave Link  502 at Sat May 24 04:24:52 2025, MaxMem=  3758096384 cpu:               5.0 elap:               0.8
 (Enter /apps/easybuild-2022/easybuild/software/Compiler/NVHPC/22.11-CUDA-11.7.0/Gaussian/g16c01-CUDA-11.7.0/g16/l508.exe)
 QCSCF skips out because SCF is already converged.
 Leave Link  508 at Sat May 24 04:24:52 2025, MaxMem=  3758096384 cpu:               0.0 elap:               0.0
 (Enter /apps/easybuild-2022/easybuild/software/Compiler/NVHPC/22.11-CUDA-11.7.0/Gaussian/g16c01-CUDA-11.7.0/g16/l801.exe)
 DoSCS=F DFT=T ScalE2(SS,OS)=  1.000000  1.000000
 Range of M.O.s used for correlation:     1    93
 NBasis=    93 NAE=    12 NBE=    12 NFC=     0 NFV=     0
 NROrb=     93 NOA=    12 NOB=    12 NVA=    81 NVB=    81
 Leave Link  801 at Sat May 24 04:24:52 2025, MaxMem=  3758096384 cpu:               0.0 elap:               0.0
 (Enter /apps/easybuild-2022/easybuild/software/Compiler/NVHPC/22.11-CUDA-11.7.0/Gaussian/g16c01-CUDA-11.7.0/g16/l1101.exe)
 Using compressed storage, NAtomX=     3.
 Will process      4 centers per pass.
   1 Symmetry operations used in ECPInt.
 ECPInt:  NShTT=     561 NPrTT=    1896 LenC2=     557 LenP2D=    1657.
 LDataN:  DoStor=T MaxTD1= 7 Len=  274
 Leave Link 1101 at Sat May 24 04:24:52 2025, MaxMem=  3758096384 cpu:               0.4 elap:               0.1
 (Enter /apps/easybuild-2022/easybuild/software/Compiler/NVHPC/22.11-CUDA-11.7.0/Gaussian/g16c01-CUDA-11.7.0/g16/l1102.exe)
 Symmetrizing basis deriv contribution to polar:
 IMax=3 JMax=2 DiffMx= 0.00D+00
 Leave Link 1102 at Sat May 24 04:24:52 2025, MaxMem=  3758096384 cpu:               0.0 elap:               0.0
 (Enter /apps/easybuild-2022/easybuild/software/Compiler/NVHPC/22.11-CUDA-11.7.0/Gaussian/g16c01-CUDA-11.7.0/g16/l1110.exe)
 Forming Gx(P) for the SCF density, NAtomX=     3.
 Integral derivatives from FoFJK, PRISM(SPDF).
 Do as many integral derivatives as possible in FoFJK.
 G2DrvN: MDV=    3758095951.
 G2DrvN: will do     4 centers at a time, making    1 passes.
 Calling FoFCou, ICntrl=  3107 FMM=F I1Cent=   0 AccDes= 0.00D+00.
 FoFJK:  IHMeth= 1 ICntrl=    3107 DoSepK=F KAlg= 0 I1Cent=           0 FoldK=F
 IRaf=         0 NMat=       1 IRICut=       1 DoRegI=T DoRafI=F ISym2E= 0 IDoP0=0 IntGTp=1.
 FoFCou: FMM=F IPFlag=           0 FMFlag=      100000 FMFlg1=           0
         NFxFlg=           0 DoJE=F BraDBF=F KetDBF=F FulRan=T
         wScrn=  0.000000 ICntrl=      3107 IOpCl=  0 I1Cent=           0 NGrid=           0
         NMat0=    1 NMatS0=      1 NMatT0=    0 NMatD0=    1 NMtDS0=    0 NMtDT0=    0
 Symmetry not used in FoFCou.
 End of G2Drv F.D. properties file   721 does not exist.
 End of G2Drv F.D. properties file   722 does not exist.
 End of G2Drv F.D. properties file   788 does not exist.
 Leave Link 1110 at Sat May 24 04:24:53 2025, MaxMem=  3758096384 cpu:               5.6 elap:               0.8
 (Enter /apps/easybuild-2022/easybuild/software/Compiler/NVHPC/22.11-CUDA-11.7.0/Gaussian/g16c01-CUDA-11.7.0/g16/l1002.exe)
 Minotr:  Closed shell wavefunction.
          IDoAtm=111
          Direct CPHF calculation.
          Differentiating once with respect to nuclear coordinates.
          Requested convergence is 1.0D-08 RMS, and 1.0D-07 maximum.
          Secondary convergence is 1.0D-12 RMS, and 1.0D-12 maximum.
          NewPWx=T KeepS1=F KeepF1=F KeepIn=T MapXYZ=F SortEE=F KeepMc=T.
          895 words used for storage of precomputed grid.
 Keep R1 ints in memory in canonical form, NReq=17014286.
 FoFCou: FMM=F IPFlag=           0 FMFlag=           0 FMFlg1=           0
         NFxFlg=           0 DoJE=F BraDBF=F KetDBF=F FulRan=T
         wScrn=  0.000000 ICntrl=       600 IOpCl=  0 I1Cent=           0 NGrid=           0
         NMat0=    1 NMatS0=   4371 NMatT0=    0 NMatD0=    1 NMtDS0=    0 NMtDT0=    0
 Symmetry not used in FoFCou.
 Two-electron integral symmetry not used.
          MDV=    3758096384 using IRadAn=       1.
          Solving linear equations simultaneously, MaxMat=       0.
          There are    12 degrees of freedom in the 1st order CPHF.  IDoFFX=6 NUNeed=     0.
      6 vectors produced by pass  0 Test12= 8.10D-15 8.33D-09 XBig12= 8.57D-02 1.54D-01.
 AX will form     6 AO Fock derivatives at one time.
      6 vectors produced by pass  1 Test12= 8.10D-15 8.33D-09 XBig12= 8.67D-03 4.96D-02.
      6 vectors produced by pass  2 Test12= 8.10D-15 8.33D-09 XBig12= 8.11D-04 8.73D-03.
      6 vectors produced by pass  3 Test12= 8.10D-15 8.33D-09 XBig12= 3.05D-05 2.59D-03.
      6 vectors produced by pass  4 Test12= 8.10D-15 8.33D-09 XBig12= 9.33D-07 3.37D-04.
      6 vectors produced by pass  5 Test12= 8.10D-15 8.33D-09 XBig12= 1.29D-08 2.73D-05.
      6 vectors produced by pass  6 Test12= 8.10D-15 8.33D-09 XBig12= 1.19D-10 2.51D-06.
      6 vectors produced by pass  7 Test12= 8.10D-15 8.33D-09 XBig12= 9.69D-13 3.01D-07.
      3 vectors produced by pass  8 Test12= 8.10D-15 8.33D-09 XBig12= 6.83D-15 2.65D-08.
 InvSVY:  IOpt=1 It=  1 EMax= 6.66D-16
 Solved reduced A of dimension    51 with     6 vectors.
 End of Minotr F.D. properties file   721 does not exist.
 End of Minotr F.D. properties file   722 does not exist.
 End of Minotr F.D. properties file   788 does not exist.
 Leave Link 1002 at Sat May 24 04:24:54 2025, MaxMem=  3758096384 cpu:               8.7 elap:               1.1
 (Enter /apps/easybuild-2022/easybuild/software/Compiler/NVHPC/22.11-CUDA-11.7.0/Gaussian/g16c01-CUDA-11.7.0/g16/l701.exe)
 ... and contract with generalized density number  0.
 Compute integral second derivatives.
   1 Symmetry operations used in ECPInt.
 ECPInt:  NShTT=     561 NPrTT=    1896 LenC2=     557 LenP2D=    1657.
 LDataN:  DoStor=T MaxTD1= 8 Len=  415
 Leave Link  701 at Sat May 24 04:24:54 2025, MaxMem=  3758096384 cpu:               0.5 elap:               0.1
 (Enter /apps/easybuild-2022/easybuild/software/Compiler/NVHPC/22.11-CUDA-11.7.0/Gaussian/g16c01-CUDA-11.7.0/g16/l702.exe)
 L702 exits ... SP integral derivatives will be done elsewhere.
 Leave Link  702 at Sat May 24 04:24:54 2025, MaxMem=  3758096384 cpu:               0.0 elap:               0.0
 (Enter /apps/easybuild-2022/easybuild/software/Compiler/NVHPC/22.11-CUDA-11.7.0/Gaussian/g16c01-CUDA-11.7.0/g16/l703.exe)
 Integral derivatives from FoFJK, PRISM(SPDF).
 Compute integral second derivatives, UseDBF=F ICtDFT=           0.
 Calling FoFJK, ICntrl=    100127 FMM=F ISym2X=0 I1Cent= 0 IOpClX= 0 NMat=1 NMatS=1 NMatT=0.
 FoFJK:  IHMeth= 1 ICntrl=  100127 DoSepK=F KAlg= 0 I1Cent=           0 FoldK=F
 IRaf=         0 NMat=       1 IRICut=       1 DoRegI=T DoRafI=F ISym2E= 0 IDoP0=0 IntGTp=1.
 FoFCou: FMM=F IPFlag=           0 FMFlag=      100000 FMFlg1=         800
         NFxFlg=           0 DoJE=F BraDBF=F KetDBF=F FulRan=T
         wScrn=  0.000000 ICntrl=    100127 IOpCl=  0 I1Cent=           0 NGrid=           0
         NMat0=    1 NMatS0=      1 NMatT0=    0 NMatD0=    1 NMtDS0=    0 NMtDT0=    0
 Symmetry not used in FoFCou.
 Leave Link  703 at Sat May 24 04:24:56 2025, MaxMem=  3758096384 cpu:              15.4 elap:               2.0
 (Enter /apps/easybuild-2022/easybuild/software/Compiler/NVHPC/22.11-CUDA-11.7.0/Gaussian/g16c01-CUDA-11.7.0/g16/l716.exe)
 Dipole        =-1.32414031D-01-1.58267817D-01-1.11008484D-01
 Polarizability= 0.00000000D+00 0.00000000D+00 0.00000000D+00
                 0.00000000D+00 0.00000000D+00 0.00000000D+00
 -------------------------------------------------------------------
 Center     Atomic                   Forces (Hartrees/Bohr)
 Number     Number              X              Y              Z
 -------------------------------------------------------------------
      1        6           0.003102517    0.005568133    0.002730851
      2        9          -0.002084222   -0.001197352   -0.001650082
      3        9          -0.001018295   -0.004370781   -0.001080769
 -------------------------------------------------------------------
 Cartesian Forces:  Max     0.005568133 RMS     0.002941964
 Force constants in Cartesian coordinates: 
                1             2             3             4             5 
      1  0.300594D+00
      2  0.135238D-01  0.471806D+00
      3  0.230588D+00  0.443906D-01  0.171924D+00
      4 -0.254369D+00  0.894592D-02 -0.192165D+00  0.274404D+00
      5  0.139979D-02 -0.714607D-01 -0.425043D-02 -0.855408D-01  0.121247D+00
      6 -0.192740D+00  0.141257D-02 -0.142926D+00  0.201205D+00 -0.555249D-01
      7 -0.462250D-01 -0.224697D-01 -0.384226D-01 -0.200345D-01  0.841410D-01
      8 -0.149236D-01 -0.400345D+00 -0.401402D-01  0.765949D-01 -0.497868D-01
      9 -0.378484D-01 -0.458032D-01 -0.289983D-01 -0.903910D-02  0.597753D-01
                6             7             8             9 
      6  0.146329D+00
      7 -0.846491D-02  0.662595D-01
      8  0.541123D-01 -0.616713D-01  0.450132D+00
      9 -0.340329D-02  0.468875D-01 -0.139721D-01  0.324016D-01
 FormGI is forming the generalized inverse of G from B-inverse, IUseBI=4.
 Force constants in internal coordinates: 
                1             2             3 
      1  0.449274D+00
      2  0.104450D+00  0.457407D+00
      3  0.878749D-01  0.881473D-01  0.563051D+00
 Leave Link  716 at Sat May 24 04:24:56 2025, MaxMem=  3758096384 cpu:               0.0 elap:               0.0
 (Enter /apps/easybuild-2022/easybuild/software/Compiler/NVHPC/22.11-CUDA-11.7.0/Gaussian/g16c01-CUDA-11.7.0/g16/l103.exe)

 GradGradGradGradGradGradGradGradGradGradGradGradGradGradGradGradGradGrad
 Berny optimization.
 Red2BG is reusing G-inverse.
 Internal  Forces:  Max     0.004273702 RMS     0.003716039
 Search for a local minimum.
 Step number   1 out of a maximum of   20
 All quantities printed in internal units (Hartrees-Bohrs-Radians)
 RMS Force = .37160D-02 SwitMx=.10000D-02 MixMth= 1
 Mixed Optimization -- RFO/linear search
 Second derivative matrix not updated -- analytic derivatives used.
 The second derivative matrix:
                          R1        R2        A1
           R1           0.44927
           R2           0.10445   0.45741
           A1           0.08787   0.08815   0.56305
 ITU=  0
     Eigenvalues ---    0.34878   0.43601   0.68494
 RFO step:  Lambda=-9.56626241D-05 EMin= 3.48776054D-01
 Linear search not attempted -- first point.
 Iteration  1 RMS(Cart)=  0.00683698 RMS(Int)=  0.00002910
 Iteration  2 RMS(Cart)=  0.00003841 RMS(Int)=  0.00000000
 Iteration  3 RMS(Cart)=  0.00000000 RMS(Int)=  0.00000000
 ITry= 1 IFail=0 DXMaxC= 7.52D-03 DCOld= 1.00D+10 DXMaxT= 3.00D-01 DXLimC= 3.00D+00 Rises=F
 Variable       Old X    -DE/DX   Delta X   Delta X   Delta X     New X
                                 (Linear)    (Quad)   (Total)
    R1        2.43982   0.00237   0.00000   0.00483   0.00483   2.44465
    R2        2.43434   0.00427   0.00000   0.01012   0.01012   2.44446
    A1        1.83370  -0.00419   0.00000  -0.00978  -0.00978   1.82392
         Item               Value     Threshold  Converged?
 Maximum Force            0.004274     0.000450     NO 
 RMS     Force            0.003716     0.000300     NO 
 Maximum Displacement     0.007523     0.001800     NO 
 RMS     Displacement     0.006852     0.001200     NO 
 Predicted change in Energy=-4.784190D-05
 Lowest energy point so far.  Saving SCF results.
 GradGradGradGradGradGradGradGradGradGradGradGradGradGradGradGradGradGrad

 Leave Link  103 at Sat May 24 04:24:56 2025, MaxMem=  3758096384 cpu:               0.0 elap:               0.0
 (Enter /apps/easybuild-2022/easybuild/software/Compiler/NVHPC/22.11-CUDA-11.7.0/Gaussian/g16c01-CUDA-11.7.0/g16/l202.exe)
                          Input orientation:                          
 ---------------------------------------------------------------------
 Center     Atomic      Atomic             Coordinates (Angstroms)
 Number     Number       Type             X           Y           Z
 ---------------------------------------------------------------------
      1          6           0       -0.788666   -0.679146   -1.744449
      2          9           0       -1.811198   -0.428311   -2.496146
      3          9           0       -0.684706   -1.968435   -1.758582
 ---------------------------------------------------------------------
                    Distance matrix (angstroms):
                    1          2          3
     1  C    0.000000
     2  F    1.293653   0.000000
     3  F    1.293551   2.045719   0.000000
 Symmetry turned off by external request.
 Stoichiometry    CF2
 Rotational constants (GHZ):          88.3587625          12.7127126          11.1137149
 Leave Link  202 at Sat May 24 04:24:56 2025, MaxMem=  3758096384 cpu:               0.0 elap:               0.0
 (Enter /apps/easybuild-2022/easybuild/software/Compiler/NVHPC/22.11-CUDA-11.7.0/Gaussian/g16c01-CUDA-11.7.0/g16/l301.exe)
 Standard basis: def2TZVPP (5D, 7F)
 Ernie: Thresh=  0.10000D-02 Tol=  0.10000D-05 Strict=F.
    93 basis functions,   153 primitive gaussians,   108 cartesian basis functions
    12 alpha electrons       12 beta electrons
       nuclear repulsion energy        65.1325616194 Hartrees.
 IExCor= 4336 DFT=T Ex+Corr=M062X ExCW=0 ScaHFX=  0.540000
 ScaDFX=  1.000000  1.000000  1.000000  1.000000 ScalE2=  1.000000  1.000000
 IRadAn=      5 IRanWt=     -1 IRanGd=            0 ICorTp=0 IEmpDi=  4
 NAtoms=    3 NActive=    3 NUniq=    3 SFac= 1.00D+00 NAtFMM=   60 NAOKFM=F Big=F
 Integral buffers will be    131072 words long.
 Raffenetti 2 integral format.
 Two-electron integral symmetry is turned off.
 Leave Link  301 at Sat May 24 04:24:56 2025, MaxMem=  3758096384 cpu:               0.0 elap:               0.0
 (Enter /apps/easybuild-2022/easybuild/software/Compiler/NVHPC/22.11-CUDA-11.7.0/Gaussian/g16c01-CUDA-11.7.0/g16/l302.exe)
 NPDir=0 NMtPBC=     1 NCelOv=     1 NCel=       1 NClECP=     1 NCelD=      1
         NCelK=      1 NCelE2=     1 NClLst=     1 CellRange=     0.0.
 One-electron integrals computed using PRISM.
   1 Symmetry operations used in ECPInt.
 ECPInt:  NShTT=     561 NPrTT=    1896 LenC2=     557 LenP2D=    1657.
 LDataN:  DoStor=T MaxTD1= 6 Len=  172
 NBasis=    93 RedAO= T EigKep=  2.21D-03  NBF=    93
 NBsUse=    93 1.00D-06 EigRej= -1.00D+00 NBFU=    93
 Precomputing XC quadrature grid using
 IXCGrd= 4 IRadAn=           5 IRanWt=          -1 IRanGd=           0 AccXCQ= 0.00D+00.
 Generated NRdTot=       0 NPtTot=           0 NUsed=           0 NTot=          32
 NSgBfM=   108   108   108   108   108 MxSgAt=     3 MxSgA2=     3.
 Leave Link  302 at Sat May 24 04:24:56 2025, MaxMem=  3758096384 cpu:               0.4 elap:               0.1
 (Enter /apps/easybuild-2022/easybuild/software/Compiler/NVHPC/22.11-CUDA-11.7.0/Gaussian/g16c01-CUDA-11.7.0/g16/l303.exe)
 DipDrv:  MaxL=1.
 Leave Link  303 at Sat May 24 04:24:56 2025, MaxMem=  3758096384 cpu:               0.0 elap:               0.0
 (Enter /apps/easybuild-2022/easybuild/software/Compiler/NVHPC/22.11-CUDA-11.7.0/Gaussian/g16c01-CUDA-11.7.0/g16/l401.exe)
 Initial guess from the checkpoint file:  "500620380000000000001_well.chk"
 B after Tr=    -0.000402   -0.001265   -0.000393
         Rot=    1.000000   -0.000024   -0.000002    0.000032 Ang=  -0.00 deg.
 Guess basis will be translated and rotated to current coordinates.
 JPrj=2 DoOrth=T DoCkMO=T.
 Leave Link  401 at Sat May 24 04:24:56 2025, MaxMem=  3758096384 cpu:               0.1 elap:               0.1
 (Enter /apps/easybuild-2022/easybuild/software/Compiler/NVHPC/22.11-CUDA-11.7.0/Gaussian/g16c01-CUDA-11.7.0/g16/l502.exe)
 Keep R1 ints in memory in canonical form, NReq=17039264.
 FoFCou: FMM=F IPFlag=           0 FMFlag=           0 FMFlg1=           0
         NFxFlg=           0 DoJE=F BraDBF=F KetDBF=F FulRan=T
         wScrn=  0.000000 ICntrl=       600 IOpCl=  0 I1Cent=           0 NGrid=           0
         NMat0=    1 NMatS0=   4371 NMatT0=    0 NMatD0=    1 NMtDS0=    0 NMtDT0=    0
 Symmetry not used in FoFCou.
 Two-electron integral symmetry not used.
 Closed shell SCF:
 Using DIIS extrapolation, IDIIS=  1040.
 NGot=  3758096384 LenX=  3748516330 LenY=  3748504225
 Requested convergence on RMS density matrix=1.00D-08 within  32 cycles.
 Requested convergence on MAX density matrix=1.00D-06.
 Requested convergence on             energy=1.00D-06.
 No special actions if energy rises.

 Cycle   1  Pass 1  IDiag  1:
 E= -237.723225310961    
 DIIS: error= 5.58D-04 at cycle   1 NSaved=   1.
 NSaved= 1 IEnMin= 1 EnMin= -237.723225310961     IErMin= 1 ErrMin= 5.58D-04
 ErrMax= 5.58D-04  0.00D+00 EMaxC= 1.00D-01 BMatC= 4.02D-05 BMatP= 4.02D-05
 IDIUse=3 WtCom= 9.94D-01 WtEn= 5.58D-03
 Coeff-Com:  0.100D+01
 Coeff-En:   0.100D+01
 Coeff:      0.100D+01
 Gap=     1.458 Goal=   None    Shift=    0.000
 RMSDP=6.43D-05 MaxDP=1.21D-03              OVMax= 2.10D-03

 Cycle   2  Pass 1  IDiag  1:
 E= -237.723262400293     Delta-E=       -0.000037089331 Rises=F Damp=F
 DIIS: error= 1.66D-04 at cycle   2 NSaved=   2.
 NSaved= 2 IEnMin= 2 EnMin= -237.723262400293     IErMin= 2 ErrMin= 1.66D-04
 ErrMax= 1.66D-04  0.00D+00 EMaxC= 1.00D-01 BMatC= 3.06D-06 BMatP= 4.02D-05
 IDIUse=3 WtCom= 9.98D-01 WtEn= 1.66D-03
 Coeff-Com:  0.495D-01 0.950D+00
 Coeff-En:   0.000D+00 0.100D+01
 Coeff:      0.494D-01 0.951D+00
 Gap=     0.341 Goal=   None    Shift=    0.000
 RMSDP=1.93D-05 MaxDP=5.35D-04 DE=-3.71D-05 OVMax= 5.59D-04

 Cycle   3  Pass 1  IDiag  1:
 E= -237.723263926716     Delta-E=       -0.000001526423 Rises=F Damp=F
 DIIS: error= 1.43D-04 at cycle   3 NSaved=   3.
 NSaved= 3 IEnMin= 3 EnMin= -237.723263926716     IErMin= 3 ErrMin= 1.43D-04
 ErrMax= 1.43D-04  0.00D+00 EMaxC= 1.00D-01 BMatC= 1.94D-06 BMatP= 3.06D-06
 IDIUse=3 WtCom= 9.99D-01 WtEn= 1.43D-03
 Coeff-Com: -0.563D-01 0.444D+00 0.612D+00
 Coeff-En:   0.000D+00 0.638D-01 0.936D+00
 Coeff:     -0.562D-01 0.443D+00 0.613D+00
 Gap=     0.341 Goal=   None    Shift=    0.000
 RMSDP=6.90D-06 MaxDP=1.62D-04 DE=-1.53D-06 OVMax= 2.35D-04

 Cycle   4  Pass 1  IDiag  1:
 E= -237.723264927519     Delta-E=       -0.000001000803 Rises=F Damp=F
 DIIS: error= 2.72D-05 at cycle   4 NSaved=   4.
 NSaved= 4 IEnMin= 4 EnMin= -237.723264927519     IErMin= 4 ErrMin= 2.72D-05
 ErrMax= 2.72D-05  0.00D+00 EMaxC= 1.00D-01 BMatC= 9.76D-08 BMatP= 1.94D-06
 IDIUse=1 WtCom= 1.00D+00 WtEn= 0.00D+00
 Coeff-Com: -0.218D-01 0.649D-01 0.223D+00 0.734D+00
 Coeff:     -0.218D-01 0.649D-01 0.223D+00 0.734D+00
 Gap=     0.341 Goal=   None    Shift=    0.000
 RMSDP=2.24D-06 MaxDP=6.21D-05 DE=-1.00D-06 OVMax= 7.89D-05

 Cycle   5  Pass 1  IDiag  1:
 E= -237.723264996397     Delta-E=       -0.000000068879 Rises=F Damp=F
 DIIS: error= 6.24D-06 at cycle   5 NSaved=   5.
 NSaved= 5 IEnMin= 5 EnMin= -237.723264996397     IErMin= 5 ErrMin= 6.24D-06
 ErrMax= 6.24D-06  0.00D+00 EMaxC= 1.00D-01 BMatC= 5.25D-09 BMatP= 9.76D-08
 IDIUse=1 WtCom= 1.00D+00 WtEn= 0.00D+00
 Coeff-Com:  0.335D-03-0.287D-01-0.996D-02 0.196D+00 0.842D+00
 Coeff:      0.335D-03-0.287D-01-0.996D-02 0.196D+00 0.842D+00
 Gap=     0.341 Goal=   None    Shift=    0.000
 RMSDP=6.32D-07 MaxDP=1.63D-05 DE=-6.89D-08 OVMax= 2.05D-05

 Cycle   6  Pass 1  IDiag  1:
 E= -237.723265000078     Delta-E=       -0.000000003681 Rises=F Damp=F
 DIIS: error= 2.44D-06 at cycle   6 NSaved=   6.
 NSaved= 6 IEnMin= 6 EnMin= -237.723265000078     IErMin= 6 ErrMin= 2.44D-06
 ErrMax= 2.44D-06  0.00D+00 EMaxC= 1.00D-01 BMatC= 8.41D-10 BMatP= 5.25D-09
 IDIUse=1 WtCom= 1.00D+00 WtEn= 0.00D+00
 Coeff-Com:  0.123D-02-0.165D-01-0.168D-01 0.623D-01 0.402D+00 0.568D+00
 Coeff:      0.123D-02-0.165D-01-0.168D-01 0.623D-01 0.402D+00 0.568D+00
 Gap=     0.341 Goal=   None    Shift=    0.000
 RMSDP=1.52D-07 MaxDP=3.33D-06 DE=-3.68D-09 OVMax= 6.85D-06

 Cycle   7  Pass 1  IDiag  1:
 E= -237.723265000560     Delta-E=       -0.000000000482 Rises=F Damp=F
 DIIS: error= 6.13D-07 at cycle   7 NSaved=   7.
 NSaved= 7 IEnMin= 7 EnMin= -237.723265000560     IErMin= 7 ErrMin= 6.13D-07
 ErrMax= 6.13D-07  0.00D+00 EMaxC= 1.00D-01 BMatC= 4.30D-11 BMatP= 8.41D-10
 IDIUse=1 WtCom= 1.00D+00 WtEn= 0.00D+00
 Coeff-Com:  0.121D-03 0.673D-03-0.256D-02-0.109D-01-0.419D-01 0.145D+00
 Coeff-Com:  0.909D+00
 Coeff:      0.121D-03 0.673D-03-0.256D-02-0.109D-01-0.419D-01 0.145D+00
 Coeff:      0.909D+00
 Gap=     0.341 Goal=   None    Shift=    0.000
 RMSDP=4.78D-08 MaxDP=8.59D-07 DE=-4.82D-10 OVMax= 1.91D-06

 Cycle   8  Pass 1  IDiag  1:
 E= -237.723265000592     Delta-E=       -0.000000000032 Rises=F Damp=F
 DIIS: error= 8.05D-08 at cycle   8 NSaved=   8.
 NSaved= 8 IEnMin= 8 EnMin= -237.723265000592     IErMin= 8 ErrMin= 8.05D-08
 ErrMax= 8.05D-08  0.00D+00 EMaxC= 1.00D-01 BMatC= 4.49D-13 BMatP= 4.30D-11
 IDIUse=1 WtCom= 1.00D+00 WtEn= 0.00D+00
 Coeff-Com: -0.267D-04 0.560D-03 0.466D-03-0.199D-02-0.151D-01-0.154D-01
 Coeff-Com:  0.521D-01 0.979D+00
 Coeff:     -0.267D-04 0.560D-03 0.466D-03-0.199D-02-0.151D-01-0.154D-01
 Coeff:      0.521D-01 0.979D+00
 Gap=     0.341 Goal=   None    Shift=    0.000
 RMSDP=8.55D-09 MaxDP=2.64D-07 DE=-3.17D-11 OVMax= 4.04D-07

 SCF Done:  E(RM062X) =  -237.723265001     A.U. after    8 cycles
            NFock=  8  Conv=0.86D-08     -V/T= 2.0035
 KE= 2.369036531311D+02 PE=-6.948480641870D+02 EE= 1.550885844359D+02
 Leave Link  502 at Sat May 24 04:24:57 2025, MaxMem=  3758096384 cpu:               4.7 elap:               0.7
 (Enter /apps/easybuild-2022/easybuild/software/Compiler/NVHPC/22.11-CUDA-11.7.0/Gaussian/g16c01-CUDA-11.7.0/g16/l508.exe)
 QCSCF skips out because SCF is already converged.
 Leave Link  508 at Sat May 24 04:24:57 2025, MaxMem=  3758096384 cpu:               0.0 elap:               0.0
 (Enter /apps/easybuild-2022/easybuild/software/Compiler/NVHPC/22.11-CUDA-11.7.0/Gaussian/g16c01-CUDA-11.7.0/g16/l701.exe)
 ... and contract with generalized density number  0.
 Compute integral first derivatives.
   1 Symmetry operations used in ECPInt.
 ECPInt:  NShTT=     561 NPrTT=    1896 LenC2=     557 LenP2D=    1657.
 LDataN:  DoStor=T MaxTD1= 7 Len=  274
 Leave Link  701 at Sat May 24 04:24:57 2025, MaxMem=  3758096384 cpu:               0.4 elap:               0.1
 (Enter /apps/easybuild-2022/easybuild/software/Compiler/NVHPC/22.11-CUDA-11.7.0/Gaussian/g16c01-CUDA-11.7.0/g16/l702.exe)
 L702 exits ... SP integral derivatives will be done elsewhere.
 Leave Link  702 at Sat May 24 04:24:57 2025, MaxMem=  3758096384 cpu:               0.0 elap:               0.0
 (Enter /apps/easybuild-2022/easybuild/software/Compiler/NVHPC/22.11-CUDA-11.7.0/Gaussian/g16c01-CUDA-11.7.0/g16/l703.exe)
 Integral derivatives from FoFJK, PRISM(SPDF).
 Compute integral first derivatives, UseDBF=F ICtDFT=           0.
 Calling FoFJK, ICntrl=      2127 FMM=F ISym2X=0 I1Cent= 0 IOpClX= 0 NMat=1 NMatS=1 NMatT=0.
 FoFJK:  IHMeth= 1 ICntrl=    2127 DoSepK=F KAlg= 0 I1Cent=           0 FoldK=F
 IRaf=         0 NMat=       1 IRICut=       1 DoRegI=T DoRafI=F ISym2E= 0 IDoP0=0 IntGTp=1.
 FoFCou: FMM=F IPFlag=           0 FMFlag=      100000 FMFlg1=         800
         NFxFlg=           0 DoJE=F BraDBF=F KetDBF=F FulRan=T
         wScrn=  0.000000 ICntrl=      2127 IOpCl=  0 I1Cent=           0 NGrid=           0
         NMat0=    1 NMatS0=      1 NMatT0=    0 NMatD0=    1 NMtDS0=    0 NMtDT0=    0
 Symmetry not used in FoFCou.
 Leave Link  703 at Sat May 24 04:24:58 2025, MaxMem=  3758096384 cpu:               2.6 elap:               0.4
 (Enter /apps/easybuild-2022/easybuild/software/Compiler/NVHPC/22.11-CUDA-11.7.0/Gaussian/g16c01-CUDA-11.7.0/g16/l716.exe)
 Dipole        =-1.27338522D-01-1.44226010D-01-1.06182950D-01
 -------------------------------------------------------------------
 Center     Atomic                   Forces (Hartrees/Bohr)
 Number     Number              X              Y              Z
 -------------------------------------------------------------------
      1        6           0.000018258    0.000074345    0.000015573
      2        9          -0.000020477    0.000021880   -0.000008975
      3        9           0.000002219   -0.000096225   -0.000006598
 -------------------------------------------------------------------
 Cartesian Forces:  Max     0.000096225 RMS     0.000042674
 Leave Link  716 at Sat May 24 04:24:58 2025, MaxMem=  3758096384 cpu:               0.0 elap:               0.0
 (Enter /apps/easybuild-2022/easybuild/software/Compiler/NVHPC/22.11-CUDA-11.7.0/Gaussian/g16c01-CUDA-11.7.0/g16/l103.exe)

 GradGradGradGradGradGradGradGradGradGradGradGradGradGradGradGradGradGrad
 Berny optimization.
 Using GEDIIS/GDIIS optimizer.
 FormGI is forming the generalized inverse of G from B-inverse, IUseBI=4.
 Internal  Forces:  Max     0.000090729 RMS     0.000055794
 Search for a local minimum.
 Step number   2 out of a maximum of   20
 All quantities printed in internal units (Hartrees-Bohrs-Radians)
 RMS Force = .55794D-04 SwitMx=.10000D-02 MixMth= 2
 Mixed Optimization -- En-DIIS/RFO-DIIS
 Update second derivatives using D2CorX and points    1    2
 DE= -4.82D-05 DEPred=-4.78D-05 R= 1.01D+00
 TightC=F SS=  1.41D+00  RLast= 1.49D-02 DXNew= 5.0454D-01 4.4637D-02
 Trust test= 1.01D+00 RLast= 1.49D-02 DXMaxT set to 3.00D-01
 The second derivative matrix:
                          R1        R2        A1
           R1           0.44833
           R2           0.10189   0.45127
           A1           0.08789   0.08971   0.56599
 ITU=  1  0
 Use linear search instead of GDIIS.
     Eigenvalues ---    0.34789   0.43306   0.68464
 RFO step:  Lambda= 0.00000000D+00 EMin= 3.47894950D-01
 Quartic linear search produced a step of  0.01015.
 Iteration  1 RMS(Cart)=  0.00008831 RMS(Int)=  0.00000000
 Iteration  2 RMS(Cart)=  0.00000000 RMS(Int)=  0.00000000
 ITry= 1 IFail=0 DXMaxC= 1.15D-04 DCOld= 1.00D+10 DXMaxT= 3.00D-01 DXLimC= 3.00D+00 Rises=F
 Variable       Old X    -DE/DX   Delta X   Delta X   Delta X     New X
                                 (Linear)    (Quad)   (Total)
    R1        2.44465   0.00003   0.00005  -0.00002   0.00003   2.44468
    R2        2.44446   0.00009   0.00010   0.00010   0.00020   2.44466
    A1        1.82392   0.00001  -0.00010   0.00008  -0.00002   1.82391
         Item               Value     Threshold  Converged?
 Maximum Force            0.000091     0.000450     YES
 RMS     Force            0.000056     0.000300     YES
 Maximum Displacement     0.000115     0.001800     YES
 RMS     Displacement     0.000088     0.001200     YES
 Predicted change in Energy=-9.308733D-09
 Optimization completed.
    -- Stationary point found.
                           ----------------------------
                           !   Optimized Parameters   !
                           ! (Angstroms and Degrees)  !
 --------------------------                            --------------------------
 ! Name  Definition              Value          Derivative Info.                !
 --------------------------------------------------------------------------------
 ! R1    R(1,2)                  1.2937         -DE/DX =    0.0                 !
 ! R2    R(1,3)                  1.2936         -DE/DX =    0.0001              !
 ! A1    A(2,1,3)              104.5032         -DE/DX =    0.0                 !
 --------------------------------------------------------------------------------
 Lowest energy point so far.  Saving SCF results.
 Largest change from initial coordinates is atom    1       0.003 Angstoms.
 GradGradGradGradGradGradGradGradGradGradGradGradGradGradGradGradGradGrad

 Leave Link  103 at Sat May 24 04:24:58 2025, MaxMem=  3758096384 cpu:               0.0 elap:               0.0
 (Enter /apps/easybuild-2022/easybuild/software/Compiler/NVHPC/22.11-CUDA-11.7.0/Gaussian/g16c01-CUDA-11.7.0/g16/l202.exe)
                          Input orientation:                          
 ---------------------------------------------------------------------
 Center     Atomic      Atomic             Coordinates (Angstroms)
 Number     Number       Type             X           Y           Z
 ---------------------------------------------------------------------
      1          6           0       -0.788666   -0.679146   -1.744449
      2          9           0       -1.811198   -0.428311   -2.496146
      3          9           0       -0.684706   -1.968435   -1.758582
 ---------------------------------------------------------------------
                    Distance matrix (angstroms):
                    1          2          3
     1  C    0.000000
     2  F    1.293653   0.000000
     3  F    1.293551   2.045719   0.000000
 Symmetry turned off by external request.
 Stoichiometry    CF2
 Rotational constants (GHZ):          88.3587625          12.7127126          11.1137149
 Leave Link  202 at Sat May 24 04:24:58 2025, MaxMem=  3758096384 cpu:               0.0 elap:               0.0
 (Enter /apps/easybuild-2022/easybuild/software/Compiler/NVHPC/22.11-CUDA-11.7.0/Gaussian/g16c01-CUDA-11.7.0/g16/l9999.exe)
 Unable to Open any file for archive entry.
 1\1\GINC-SPARTAN-BM167\FOpt\RM062X\def2TZVPP\C1F2\AKHALILOV\24-May-202
 5\0\\#P M062X/Def2TZVPP Symm(None) scf(xqc) pop(None) freq opt(CalcFC)
 \\Gaussian input prepared by ASE\\0,1\C,-0.7886656879,-0.6791461282,-1
 .7444489549\F,-1.8111975447,-0.4283114388,-2.4961456928\F,-0.684705767
 4,-1.968435433,-1.7585823523\\Version=ES64L-G16RevC.01\HF=-237.723265\
 RMSD=8.552e-09\RMSF=4.267e-05\Dipole=-0.1273385,-0.144226,-0.106183\PG
 =Unknown\\@
 The archive entry for this job was punched.


 WHERE THERE IS MUCH DESIRE TO LEARN, THERE OF NECESSITY WILL BE
 MUCH ARGUING, MUCH WRITING, MANY OPINIONS; FOR OPINION IN GOOD MEN
 IS BUT KNOWLEDGE IN THE MAKING. -- JOHN MILTON.
 Leave Link 9999 at Sat May 24 04:24:58 2025, MaxMem=  3758096384 cpu:               0.0 elap:               0.0
 Job cpu time:       0 days  0 hours  0 minutes 45.9 seconds.
 Elapsed time:       0 days  0 hours  0 minutes  6.9 seconds.
 File lengths (MBytes):  RWF=     10 Int=      0 D2E=      0 Chk=      2 Scr=      1
 Normal termination of Gaussian 16 at Sat May 24 04:24:58 2025.
 (Enter /apps/easybuild-2022/easybuild/software/Compiler/NVHPC/22.11-CUDA-11.7.0/Gaussian/g16c01-CUDA-11.7.0/g16/l1.exe)
 Link1:  Proceeding to internal job step number  2.
 ---------------------------------------------------------------------
 #P Geom=AllCheck Guess=TCheck SCRF=Check GenChk RM062X/def2TZVPP Freq
 ---------------------------------------------------------------------
 1/10=4,29=7,30=1,38=1,40=1/1,3;
 2/12=2,15=3,40=1/2;
 3/5=44,7=202,11=2,14=-4,25=1,30=1,70=2,71=2,74=-55,116=1,140=1/1,2,3;
 4/5=101/1;
 5/5=2,8=3,13=1,38=6,98=1/2,8;
 8/6=4,10=90,11=11/1;
 11/6=1,8=1,9=11,15=111,16=1,31=1/1,2,10;
 10/6=1,31=1/2;
 7/8=1,10=1,25=1,30=1/1,2,3,16;
 1/10=4,30=1/3;
 99//99;
 Leave Link    1 at Sat May 24 04:24:58 2025, MaxMem=  3758096384 cpu:               0.0 elap:               0.0
 (Enter /apps/easybuild-2022/easybuild/software/Compiler/NVHPC/22.11-CUDA-11.7.0/Gaussian/g16c01-CUDA-11.7.0/g16/l101.exe)
 Structure from the checkpoint file:  "500620380000000000001_well.chk"
 ------------------------------
 Gaussian input prepared by ASE
 ------------------------------
 Charge =  0 Multiplicity = 1
 Redundant internal coordinates found in file.  (old form).
 C,0,-0.7886656879,-0.6791461282,-1.7444489549
 F,0,-1.8111975447,-0.4283114388,-2.4961456928
 F,0,-0.6847057674,-1.968435433,-1.7585823523
 Recover connectivity data from disk.
 ITRead=  0  0  0
 MicOpt= -1 -1 -1
 NAtoms=      3 NQM=        3 NQMF=       0 NMMI=      0 NMMIF=      0
                NMic=       0 NMicF=      0.
                    Isotopes and Nuclear Properties:
 (Nuclear quadrupole moments (NQMom) in fm**2, nuclear magnetic moments (NMagM)
  in nuclear magnetons)

  Atom         1           2           3
 IAtWgt=          12          19          19
 AtmWgt=  12.0000000  18.9984032  18.9984032
 NucSpn=           0           1           1
 AtZEff=   3.6000000   6.7500000   6.7500000
 NQMom=    0.0000000   0.0000000   0.0000000
 NMagM=    0.0000000   2.6288670   2.6288670
 AtZNuc=   6.0000000   9.0000000   9.0000000
 Leave Link  101 at Sat May 24 04:24:58 2025, MaxMem=  3758096384 cpu:               0.2 elap:               0.2
 (Enter /apps/easybuild-2022/easybuild/software/Compiler/NVHPC/22.11-CUDA-11.7.0/Gaussian/g16c01-CUDA-11.7.0/g16/l103.exe)

 GradGradGradGradGradGradGradGradGradGradGradGradGradGradGradGradGradGrad
 Berny optimization.
 Initialization pass.
                           ----------------------------
                           !    Initial Parameters    !
                           ! (Angstroms and Degrees)  !
 --------------------------                            --------------------------
 ! Name  Definition              Value          Derivative Info.                !
 --------------------------------------------------------------------------------
 ! R1    R(1,2)                  1.2937         calculate D2E/DX2 analytically  !
 ! R2    R(1,3)                  1.2936         calculate D2E/DX2 analytically  !
 ! A1    A(2,1,3)              104.5032         calculate D2E/DX2 analytically  !
 --------------------------------------------------------------------------------
 Trust Radius=3.00D-01 FncErr=1.00D-07 GrdErr=1.00D-07 EigMax=2.50D+02 EigMin=1.00D-04
 Number of steps in this run=      2 maximum allowed number of steps=      2.
 GradGradGradGradGradGradGradGradGradGradGradGradGradGradGradGradGradGrad

 Leave Link  103 at Sat May 24 04:24:58 2025, MaxMem=  3758096384 cpu:               0.0 elap:               0.0
 (Enter /apps/easybuild-2022/easybuild/software/Compiler/NVHPC/22.11-CUDA-11.7.0/Gaussian/g16c01-CUDA-11.7.0/g16/l202.exe)
                          Input orientation:                          
 ---------------------------------------------------------------------
 Center     Atomic      Atomic             Coordinates (Angstroms)
 Number     Number       Type             X           Y           Z
 ---------------------------------------------------------------------
      1          6           0       -0.788666   -0.679146   -1.744449
      2          9           0       -1.811198   -0.428311   -2.496146
      3          9           0       -0.684706   -1.968435   -1.758582
 ---------------------------------------------------------------------
                    Distance matrix (angstroms):
                    1          2          3
     1  C    0.000000
     2  F    1.293653   0.000000
     3  F    1.293551   2.045719   0.000000
 Symmetry turned off by external request.
 Stoichiometry    CF2
 Rotational constants (GHZ):          88.3587625          12.7127126          11.1137149
 Leave Link  202 at Sat May 24 04:24:58 2025, MaxMem=  3758096384 cpu:               0.0 elap:               0.0
 (Enter /apps/easybuild-2022/easybuild/software/Compiler/NVHPC/22.11-CUDA-11.7.0/Gaussian/g16c01-CUDA-11.7.0/g16/l301.exe)
 Standard basis: def2TZVPP (5D, 7F)
 Ernie: Thresh=  0.10000D-02 Tol=  0.10000D-05 Strict=F.
    93 basis functions,   153 primitive gaussians,   108 cartesian basis functions
    12 alpha electrons       12 beta electrons
       nuclear repulsion energy        65.1325616194 Hartrees.
 IExCor= 4336 DFT=T Ex+Corr=M062X ExCW=0 ScaHFX=  0.540000
 ScaDFX=  1.000000  1.000000  1.000000  1.000000 ScalE2=  1.000000  1.000000
 IRadAn=      5 IRanWt=     -1 IRanGd=            0 ICorTp=0 IEmpDi=  4
 NAtoms=    3 NActive=    3 NUniq=    3 SFac= 1.00D+00 NAtFMM=   60 NAOKFM=F Big=F
 Integral buffers will be    131072 words long.
 Raffenetti 2 integral format.
 Two-electron integral symmetry is turned off.
 Leave Link  301 at Sat May 24 04:24:58 2025, MaxMem=  3758096384 cpu:               0.1 elap:               0.0
 (Enter /apps/easybuild-2022/easybuild/software/Compiler/NVHPC/22.11-CUDA-11.7.0/Gaussian/g16c01-CUDA-11.7.0/g16/l302.exe)
 NPDir=0 NMtPBC=     1 NCelOv=     1 NCel=       1 NClECP=     1 NCelD=      1
         NCelK=      1 NCelE2=     1 NClLst=     1 CellRange=     0.0.
 One-electron integrals computed using PRISM.
   1 Symmetry operations used in ECPInt.
 ECPInt:  NShTT=     561 NPrTT=    1896 LenC2=     557 LenP2D=    1657.
 LDataN:  DoStor=T MaxTD1= 6 Len=  172
 NBasis=    93 RedAO= T EigKep=  2.21D-03  NBF=    93
 NBsUse=    93 1.00D-06 EigRej= -1.00D+00 NBFU=    93
 Precomputing XC quadrature grid using
 IXCGrd= 4 IRadAn=           5 IRanWt=          -1 IRanGd=           0 AccXCQ= 0.00D+00.
 Generated NRdTot=       0 NPtTot=           0 NUsed=           0 NTot=          32
 NSgBfM=   108   108   108   108   108 MxSgAt=     3 MxSgA2=     3.
 Leave Link  302 at Sat May 24 04:24:58 2025, MaxMem=  3758096384 cpu:               0.3 elap:               0.1
 (Enter /apps/easybuild-2022/easybuild/software/Compiler/NVHPC/22.11-CUDA-11.7.0/Gaussian/g16c01-CUDA-11.7.0/g16/l303.exe)
 DipDrv:  MaxL=1.
 Leave Link  303 at Sat May 24 04:24:58 2025, MaxMem=  3758096384 cpu:               0.1 elap:               0.0
 (Enter /apps/easybuild-2022/easybuild/software/Compiler/NVHPC/22.11-CUDA-11.7.0/Gaussian/g16c01-CUDA-11.7.0/g16/l401.exe)
 Initial guess from the checkpoint file:  "500620380000000000001_well.chk"
 B after Tr=     0.000000    0.000000    0.000000
         Rot=    1.000000    0.000000    0.000000    0.000000 Ang=   0.00 deg.
 Guess basis will be translated and rotated to current coordinates.
 JPrj=2 DoOrth=T DoCkMO=T.
 Leave Link  401 at Sat May 24 04:24:58 2025, MaxMem=  3758096384 cpu:               0.1 elap:               0.1
 (Enter /apps/easybuild-2022/easybuild/software/Compiler/NVHPC/22.11-CUDA-11.7.0/Gaussian/g16c01-CUDA-11.7.0/g16/l502.exe)
 Keep R1 ints in memory in canonical form, NReq=17039264.
 FoFCou: FMM=F IPFlag=           0 FMFlag=           0 FMFlg1=           0
         NFxFlg=           0 DoJE=F BraDBF=F KetDBF=F FulRan=T
         wScrn=  0.000000 ICntrl=       600 IOpCl=  0 I1Cent=           0 NGrid=           0
         NMat0=    1 NMatS0=   4371 NMatT0=    0 NMatD0=    1 NMtDS0=    0 NMtDT0=    0
 Symmetry not used in FoFCou.
 Two-electron integral symmetry not used.
 Closed shell SCF:
 Using DIIS extrapolation, IDIIS=  1040.
 NGot=  3758096384 LenX=  3748516330 LenY=  3748504225
 Requested convergence on RMS density matrix=1.00D-08 within  32 cycles.
 Requested convergence on MAX density matrix=1.00D-06.
 Requested convergence on             energy=1.00D-06.
 No special actions if energy rises.

 Cycle   1  Pass 1  IDiag  1:
 E= -237.723265000589    
 DIIS: error= 1.51D-08 at cycle   1 NSaved=   1.
 NSaved= 1 IEnMin= 1 EnMin= -237.723265000589     IErMin= 1 ErrMin= 1.51D-08
 ErrMax= 1.51D-08  0.00D+00 EMaxC= 1.00D-01 BMatC= 2.01D-14 BMatP= 2.01D-14
 IDIUse=1 WtCom= 1.00D+00 WtEn= 0.00D+00
 Coeff-Com:  0.100D+01
 Coeff:      0.100D+01
 Gap=     0.341 Goal=   None    Shift=    0.000
 RMSDP=1.88D-09 MaxDP=5.67D-08              OVMax= 8.21D-08

 SCF Done:  E(RM062X) =  -237.723265001     A.U. after    1 cycles
            NFock=  1  Conv=0.19D-08     -V/T= 2.0035
 KE= 2.369036531484D+02 PE=-6.948480645820D+02 EE= 1.550885848136D+02
 Leave Link  502 at Sat May 24 04:24:58 2025, MaxMem=  3758096384 cpu:               1.2 elap:               0.2
 (Enter /apps/easybuild-2022/easybuild/software/Compiler/NVHPC/22.11-CUDA-11.7.0/Gaussian/g16c01-CUDA-11.7.0/g16/l508.exe)
 QCSCF skips out because SCF is already converged.
 Leave Link  508 at Sat May 24 04:24:58 2025, MaxMem=  3758096384 cpu:               0.0 elap:               0.0
 (Enter /apps/easybuild-2022/easybuild/software/Compiler/NVHPC/22.11-CUDA-11.7.0/Gaussian/g16c01-CUDA-11.7.0/g16/l801.exe)
 DoSCS=F DFT=T ScalE2(SS,OS)=  1.000000  1.000000
 Range of M.O.s used for correlation:     1    93
 NBasis=    93 NAE=    12 NBE=    12 NFC=     0 NFV=     0
 NROrb=     93 NOA=    12 NOB=    12 NVA=    81 NVB=    81
 Leave Link  801 at Sat May 24 04:24:59 2025, MaxMem=  3758096384 cpu:               0.0 elap:               0.0
 (Enter /apps/easybuild-2022/easybuild/software/Compiler/NVHPC/22.11-CUDA-11.7.0/Gaussian/g16c01-CUDA-11.7.0/g16/l1101.exe)
 Using compressed storage, NAtomX=     3.
 Will process      4 centers per pass.
   1 Symmetry operations used in ECPInt.
 ECPInt:  NShTT=     561 NPrTT=    1896 LenC2=     557 LenP2D=    1657.
 LDataN:  DoStor=T MaxTD1= 7 Len=  274
 Leave Link 1101 at Sat May 24 04:24:59 2025, MaxMem=  3758096384 cpu:               0.4 elap:               0.1
 (Enter /apps/easybuild-2022/easybuild/software/Compiler/NVHPC/22.11-CUDA-11.7.0/Gaussian/g16c01-CUDA-11.7.0/g16/l1102.exe)
 Symmetrizing basis deriv contribution to polar:
 IMax=3 JMax=2 DiffMx= 0.00D+00
 Leave Link 1102 at Sat May 24 04:24:59 2025, MaxMem=  3758096384 cpu:               0.1 elap:               0.0
 (Enter /apps/easybuild-2022/easybuild/software/Compiler/NVHPC/22.11-CUDA-11.7.0/Gaussian/g16c01-CUDA-11.7.0/g16/l1110.exe)
 Forming Gx(P) for the SCF density, NAtomX=     3.
 Integral derivatives from FoFJK, PRISM(SPDF).
 Do as many integral derivatives as possible in FoFJK.
 G2DrvN: MDV=    3758095951.
 G2DrvN: will do     4 centers at a time, making    1 passes.
 Calling FoFCou, ICntrl=  3107 FMM=F I1Cent=   0 AccDes= 0.00D+00.
 FoFJK:  IHMeth= 1 ICntrl=    3107 DoSepK=F KAlg= 0 I1Cent=           0 FoldK=F
 IRaf=         0 NMat=       1 IRICut=       1 DoRegI=T DoRafI=F ISym2E= 0 IDoP0=0 IntGTp=1.
 FoFCou: FMM=F IPFlag=           0 FMFlag=      100000 FMFlg1=           0
         NFxFlg=           0 DoJE=F BraDBF=F KetDBF=F FulRan=T
         wScrn=  0.000000 ICntrl=      3107 IOpCl=  0 I1Cent=           0 NGrid=           0
         NMat0=    1 NMatS0=      1 NMatT0=    0 NMatD0=    1 NMtDS0=    0 NMtDT0=    0
 Symmetry not used in FoFCou.
 End of G2Drv F.D. properties file   721 does not exist.
 End of G2Drv F.D. properties file   722 does not exist.
 End of G2Drv F.D. properties file   788 does not exist.
 Leave Link 1110 at Sat May 24 04:24:59 2025, MaxMem=  3758096384 cpu:               6.1 elap:               0.8
 (Enter /apps/easybuild-2022/easybuild/software/Compiler/NVHPC/22.11-CUDA-11.7.0/Gaussian/g16c01-CUDA-11.7.0/g16/l1002.exe)
 Minotr:  Closed shell wavefunction.
          IDoAtm=111
          Direct CPHF calculation.
          Differentiating once with respect to electric field.
                with respect to dipole field.
          Differentiating once with respect to nuclear coordinates.
          Requested convergence is 1.0D-08 RMS, and 1.0D-07 maximum.
          Secondary convergence is 1.0D-12 RMS, and 1.0D-12 maximum.
          NewPWx=T KeepS1=F KeepF1=F KeepIn=T MapXYZ=F SortEE=F KeepMc=T.
          895 words used for storage of precomputed grid.
 Keep R1 ints in memory in canonical form, NReq=17014286.
 FoFCou: FMM=F IPFlag=           0 FMFlag=           0 FMFlg1=           0
         NFxFlg=           0 DoJE=F BraDBF=F KetDBF=F FulRan=T
         wScrn=  0.000000 ICntrl=       600 IOpCl=  0 I1Cent=           0 NGrid=           0
         NMat0=    1 NMatS0=   4371 NMatT0=    0 NMatD0=    1 NMtDS0=    0 NMtDT0=    0
 Symmetry not used in FoFCou.
 Two-electron integral symmetry not used.
          MDV=    3758096384 using IRadAn=       1.
          Solving linear equations simultaneously, MaxMat=       0.
          There are    12 degrees of freedom in the 1st order CPHF.  IDoFFX=6 NUNeed=     3.
      9 vectors produced by pass  0 Test12= 8.10D-15 8.33D-09 XBig12= 5.68D+00 1.42D+00.
 AX will form     9 AO Fock derivatives at one time.
      9 vectors produced by pass  1 Test12= 8.10D-15 8.33D-09 XBig12= 9.94D-01 3.79D-01.
      9 vectors produced by pass  2 Test12= 8.10D-15 8.33D-09 XBig12= 2.60D-02 5.18D-02.
      9 vectors produced by pass  3 Test12= 8.10D-15 8.33D-09 XBig12= 5.62D-04 5.58D-03.
      9 vectors produced by pass  4 Test12= 8.10D-15 8.33D-09 XBig12= 8.15D-06 6.86D-04.
      9 vectors produced by pass  5 Test12= 8.10D-15 8.33D-09 XBig12= 8.91D-08 8.08D-05.
      9 vectors produced by pass  6 Test12= 8.10D-15 8.33D-09 XBig12= 4.83D-10 5.57D-06.
      5 vectors produced by pass  7 Test12= 8.10D-15 8.33D-09 XBig12= 2.45D-12 3.25D-07.
      2 vectors produced by pass  8 Test12= 8.10D-15 8.33D-09 XBig12= 8.69D-15 2.13D-08.
 InvSVY:  IOpt=1 It=  1 EMax= 6.66D-16
 Solved reduced A of dimension    70 with     9 vectors.
 FullF1:  Do perturbations      1 to       3.
 Isotropic polarizability for W=    0.000000       14.28 Bohr**3.
 End of Minotr F.D. properties file   721 does not exist.
 End of Minotr F.D. properties file   722 does not exist.
 End of Minotr F.D. properties file   788 does not exist.
 Leave Link 1002 at Sat May 24 04:25:01 2025, MaxMem=  3758096384 cpu:              10.1 elap:               1.3
 (Enter /apps/easybuild-2022/easybuild/software/Compiler/NVHPC/22.11-CUDA-11.7.0/Gaussian/g16c01-CUDA-11.7.0/g16/l701.exe)
 ... and contract with generalized density number  0.
 Compute integral second derivatives.
   1 Symmetry operations used in ECPInt.
 ECPInt:  NShTT=     561 NPrTT=    1896 LenC2=     557 LenP2D=    1657.
 LDataN:  DoStor=T MaxTD1= 8 Len=  415
 Leave Link  701 at Sat May 24 04:25:01 2025, MaxMem=  3758096384 cpu:               0.7 elap:               0.1
 (Enter /apps/easybuild-2022/easybuild/software/Compiler/NVHPC/22.11-CUDA-11.7.0/Gaussian/g16c01-CUDA-11.7.0/g16/l702.exe)
 L702 exits ... SP integral derivatives will be done elsewhere.
 Leave Link  702 at Sat May 24 04:25:01 2025, MaxMem=  3758096384 cpu:               0.0 elap:               0.0
 (Enter /apps/easybuild-2022/easybuild/software/Compiler/NVHPC/22.11-CUDA-11.7.0/Gaussian/g16c01-CUDA-11.7.0/g16/l703.exe)
 Integral derivatives from FoFJK, PRISM(SPDF).
 Compute integral second derivatives, UseDBF=F ICtDFT=           0.
 Calling FoFJK, ICntrl=    100127 FMM=F ISym2X=0 I1Cent= 0 IOpClX= 0 NMat=1 NMatS=1 NMatT=0.
 FoFJK:  IHMeth= 1 ICntrl=  100127 DoSepK=F KAlg= 0 I1Cent=           0 FoldK=F
 IRaf=         0 NMat=       1 IRICut=       1 DoRegI=T DoRafI=F ISym2E= 0 IDoP0=0 IntGTp=1.
 FoFCou: FMM=F IPFlag=           0 FMFlag=      100000 FMFlg1=         800
         NFxFlg=           0 DoJE=F BraDBF=F KetDBF=F FulRan=T
         wScrn=  0.000000 ICntrl=    100127 IOpCl=  0 I1Cent=           0 NGrid=           0
         NMat0=    1 NMatS0=      1 NMatT0=    0 NMatD0=    1 NMtDS0=    0 NMtDT0=    0
 Symmetry not used in FoFCou.
 Leave Link  703 at Sat May 24 04:25:03 2025, MaxMem=  3758096384 cpu:              15.4 elap:               2.0
 (Enter /apps/easybuild-2022/easybuild/software/Compiler/NVHPC/22.11-CUDA-11.7.0/Gaussian/g16c01-CUDA-11.7.0/g16/l716.exe)
 Dipole        =-1.27338524D-01-1.44226111D-01-1.06182958D-01
 Polarizability= 1.41376889D+01-1.56159165D+00 1.53469722D+01
                 1.01587112D+00-9.73421051D-01 1.33520060D+01
 Full mass-weighted force constant matrix:
 Low frequencies ---  -21.8168   -0.0017   -0.0016   -0.0012    9.7887   19.7519
 Low frequencies ---  692.4182 1183.0682 1287.1777
 Diagonal vibrational polarizability:
        3.0926883       5.3202061       1.5384990
 Harmonic frequencies (cm**-1), IR intensities (KM/Mole), Raman scattering
 activities (A**4/AMU), depolarization ratios for plane and unpolarized
 incident light, reduced masses (AMU), force constants (mDyne/A),
 and normal coordinates:
                      1                      2                      3
                      A                      A                      A
 Frequencies --    692.4182              1183.0681              1287.1777
 Red. masses --     17.7049                13.6928                13.8658
 Frc consts  --      5.0013                11.2918                13.5354
 IR Inten    --      4.4244               395.3108               129.4355
  Atom  AN      X      Y      Z        X      Y      Z        X      Y      Z
     1   6    -0.25  -0.28  -0.21    -0.48   0.66  -0.31     0.50   0.56   0.41
     2   9    -0.26   0.56  -0.16     0.27  -0.07   0.20    -0.29   0.01  -0.22
     3   9     0.42  -0.38   0.29     0.03  -0.35  -0.00    -0.02  -0.36  -0.04

 -------------------
 - Thermochemistry -
 -------------------
 Temperature   298.150 Kelvin.  Pressure   1.00000 Atm.
 Atom     1 has atomic number  6 and mass  12.00000
 Atom     2 has atomic number  9 and mass  18.99840
 Atom     3 has atomic number  9 and mass  18.99840
 Molecular mass:    49.99681 amu.
 Principal axes and moments of inertia in atomic units:
                           1         2         3
     Eigenvalues --    20.42515 141.96350 162.38865
           X           -0.55067   0.57990  -0.60040
           Y            0.75284   0.65571  -0.05716
           Z           -0.36055   0.48348   0.79765
 This molecule is an asymmetric top.
 Rotational symmetry number  1.
 Rotational temperatures (Kelvin)      4.24055     0.61011     0.53337
 Rotational constants (GHZ):          88.35876    12.71271    11.11371
 Zero-point vibrational energy      18916.9 (Joules/Mol)
                                    4.52126 (Kcal/Mol)
 Vibrational temperatures:    996.24  1702.17  1851.96
          (Kelvin)
 
 Zero-point correction=                           0.007205 (Hartree/Particle)
 Thermal correction to Energy=                    0.010183
 Thermal correction to Enthalpy=                  0.011127
 Thermal correction to Gibbs Free Energy=        -0.016821
 Sum of electronic and zero-point Energies=           -237.716060
 Sum of electronic and thermal Energies=              -237.713082
 Sum of electronic and thermal Enthalpies=            -237.712138
 Sum of electronic and thermal Free Energies=         -237.740086
 
                     E (Thermal)             CV                S
                      KCal/Mol        Cal/Mol-Kelvin    Cal/Mol-Kelvin
 Total                    6.390              7.176             58.822
 Electronic               0.000              0.000              0.000
 Translational            0.889              2.981             37.652
 Rotational               0.889              2.981             20.782
 Vibrational              4.613              1.214              0.388
                       Q            Log10(Q)             Ln(Q)
 Total Bot       0.545783D+08          7.737020         17.815148
 Total V=0       0.112492D+12         11.051123         25.446152
 Vib (Bot)       0.505660D-03         -3.296141         -7.589646
 Vib (V=0)       0.104223D+01          0.017962          0.041358
 Electronic      0.100000D+01          0.000000          0.000000
 Translational   0.138953D+08          7.142867         16.447060
 Rotational      0.776774D+04          3.890294          8.957734
 
                                                    Gaussian input prepared by AS
 E
                                                             IR Spectrum
 
     1          1                                                                                                                    
     2          1                                               6                                                                    
     8          8                                               9                                                                    
     7          3                                               2                                                                    
 
     X          X                                               X                                                                    
     X          X                                                                                                                    
     X          X                                                                                                                    
     X          X                                                                                                                    
     X          X                                                                                                                    
     X          X                                                                                                                    
     X          X                                                                                                                    
                X                                                                                                                    
                X                                                                                                                    
                X                                                                                                                    
                X                                                                                                                    
                X                                                                                                                    
                X                                                                                                                    
                X                                                                                                                    
                X                                                                                                                    
                X                                                                                                                    
                X                                                                                                                    
                X                                                                                                                    
                X                                                                                                                    
                X                                                                                                                    
 
 -------------------------------------------------------------------
 Center     Atomic                   Forces (Hartrees/Bohr)
 Number     Number              X              Y              Z
 -------------------------------------------------------------------
      1        6           0.000018233    0.000074350    0.000015555
      2        9          -0.000020457    0.000021875   -0.000008960
      3        9           0.000002224   -0.000096225   -0.000006595
 -------------------------------------------------------------------
 Cartesian Forces:  Max     0.000096225 RMS     0.000042671
 Force constants in Cartesian coordinates: 
                1             2             3             4             5 
      1  0.297926D+00
      2  0.168790D-01  0.456399D+00
      3  0.225392D+00  0.454801D-01  0.172614D+00
      4 -0.250326D+00  0.727709D-02 -0.187818D+00  0.270560D+00
      5 -0.400291D-03 -0.714898D-01 -0.546496D-02 -0.839422D-01  0.121932D+00
      6 -0.188403D+00  0.302633D-03 -0.141617D+00  0.197556D+00 -0.543653D-01
      7 -0.476002D-01 -0.241561D-01 -0.375738D-01 -0.202345D-01  0.843425D-01
      8 -0.164787D-01 -0.384909D+00 -0.400152D-01  0.766651D-01 -0.504420D-01
      9 -0.369893D-01 -0.457828D-01 -0.309967D-01 -0.973823D-02  0.598303D-01
                6             7             8             9 
      6  0.144814D+00
      7 -0.915369D-02  0.678347D-01
      8  0.540627D-01 -0.601863D-01  0.435351D+00
      9 -0.319663D-02  0.467275D-01 -0.140475D-01  0.341933D-01
 FormGI is forming the generalized inverse of G from B-inverse, IUseBI=4.
 Force constants in internal coordinates: 
                1             2             3 
      1  0.441886D+00
      2  0.104296D+00  0.442177D+00
      3  0.898844D-01  0.902367D-01  0.568765D+00
 Leave Link  716 at Sat May 24 04:25:03 2025, MaxMem=  3758096384 cpu:               0.0 elap:               0.0
 (Enter /apps/easybuild-2022/easybuild/software/Compiler/NVHPC/22.11-CUDA-11.7.0/Gaussian/g16c01-CUDA-11.7.0/g16/l103.exe)

 GradGradGradGradGradGradGradGradGradGradGradGradGradGradGradGradGradGrad
 Berny optimization.
 Red2BG is reusing G-inverse.
 Internal  Forces:  Max     0.000090730 RMS     0.000055790
 Search for a local minimum.
 Step number   1 out of a maximum of    2
 All quantities printed in internal units (Hartrees-Bohrs-Radians)
 Second derivative matrix not updated -- analytic derivatives used.
 The second derivative matrix:
                          R1        R2        A1
           R1           0.44189
           R2           0.10430   0.44218
           A1           0.08988   0.09024   0.56877
 ITU=  0
     Eigenvalues ---    0.33773   0.42969   0.68540
 Angle between quadratic step and forces=  16.26 degrees.
 Linear search not attempted -- first point.
 Iteration  1 RMS(Cart)=  0.00008959 RMS(Int)=  0.00000000
 Iteration  2 RMS(Cart)=  0.00000000 RMS(Int)=  0.00000000
 ITry= 1 IFail=0 DXMaxC= 1.17D-04 DCOld= 1.00D+10 DXMaxT= 3.00D-01 DXLimC= 3.00D+00 Rises=F
 Variable       Old X    -DE/DX   Delta X   Delta X   Delta X     New X
                                 (Linear)    (Quad)   (Total)
    R1        2.44465   0.00003   0.00000   0.00003   0.00003   2.44468
    R2        2.44446   0.00009   0.00000   0.00020   0.00020   2.44466
    A1        1.82392   0.00001   0.00000  -0.00002  -0.00002   1.82391
         Item               Value     Threshold  Converged?
 Maximum Force            0.000091     0.000450     YES
 RMS     Force            0.000056     0.000300     YES
 Maximum Displacement     0.000117     0.001800     YES
 RMS     Displacement     0.000090     0.001200     YES
 Predicted change in Energy=-9.482117D-09
 Optimization completed.
    -- Stationary point found.
                           ----------------------------
                           !   Optimized Parameters   !
                           ! (Angstroms and Degrees)  !
 --------------------------                            --------------------------
 ! Name  Definition              Value          Derivative Info.                !
 --------------------------------------------------------------------------------
 ! R1    R(1,2)                  1.2937         -DE/DX =    0.0                 !
 ! R2    R(1,3)                  1.2936         -DE/DX =    0.0001              !
 ! A1    A(2,1,3)              104.5032         -DE/DX =    0.0                 !
 --------------------------------------------------------------------------------
 GradGradGradGradGradGradGradGradGradGradGradGradGradGradGradGradGradGrad

 Leave Link  103 at Sat May 24 04:25:03 2025, MaxMem=  3758096384 cpu:               0.0 elap:               0.0
 (Enter /apps/easybuild-2022/easybuild/software/Compiler/NVHPC/22.11-CUDA-11.7.0/Gaussian/g16c01-CUDA-11.7.0/g16/l9999.exe)

 ----------------------------------------------------------------------

 Electric dipole moment (input orientation):
 (Debye = 10**-18 statcoulomb cm , SI units = C m)
                  (au)            (Debye)         (10**-30 SI)
   Tot        0.219752D+00      0.558555D+00      0.186314D+01
   x         -0.127339D+00     -0.323662D+00     -0.107962D+01
   y         -0.144226D+00     -0.366586D+00     -0.122280D+01
   z         -0.106183D+00     -0.269890D+00     -0.900257D+00

 Dipole polarizability, Alpha (input orientation).
 (esu units = cm**3 , SI units = C**2 m**2 J**-1)
 Alpha(0;0):
               (au)            (10**-24 esu)      (10**-40 SI)
   iso        0.142789D+02      0.211591D+01      0.235427D+01
   aniso      0.403536D+01      0.597978D+00      0.665341D+00
   xx         0.141377D+02      0.209499D+01      0.233099D+01
   yx        -0.156159D+01     -0.231404D+00     -0.257472D+00
   yy         0.153470D+02      0.227419D+01      0.253037D+01
   zx         0.101587D+01      0.150537D+00      0.167495D+00
   zy        -0.973421D+00     -0.144246D+00     -0.160495D+00
   zz         0.133520D+02      0.197856D+01      0.220145D+01

 ----------------------------------------------------------------------

 Dipole orientation:
     6          1.08633872         -1.63502180          3.29878498
     9          0.29307276         -3.39912882          4.79376531
     9          1.87851939          0.12665219          4.79689234

 Electric dipole moment (dipole orientation):
 (Debye = 10**-18 statcoulomb cm , SI units = C m)
                  (au)            (Debye)         (10**-30 SI)
   Tot        0.219752D+00      0.558555D+00      0.186314D+01
   x          0.000000D+00      0.000000D+00      0.000000D+00
   y          0.000000D+00      0.000000D+00      0.000000D+00
   z          0.219752D+00      0.558555D+00      0.186314D+01

 Dipole polarizability, Alpha (dipole orientation).
 (esu units = cm**3 , SI units = C**2 m**2 J**-1)
 Alpha(0;0):
               (au)            (10**-24 esu)      (10**-40 SI)
   iso        0.142789D+02      0.211591D+01      0.235427D+01
   aniso      0.403536D+01      0.597978D+00      0.665341D+00
   xx         0.133729D+02      0.198165D+01      0.220489D+01
   yx         0.160713D+01      0.238152D+00      0.264980D+00
   yy         0.162250D+02      0.240429D+01      0.267514D+01
   zx         0.149299D-01      0.221238D-02      0.246160D-02
   zy         0.637215D-02      0.944256D-03      0.105063D-02
   zz         0.132388D+02      0.196180D+01      0.218279D+01

 ----------------------------------------------------------------------
 Unable to Open any file for archive entry.
 1\1\GINC-SPARTAN-BM167\Freq\RM062X\def2TZVPP\C1F2\AKHALILOV\24-May-202
 5\0\\#P Geom=AllCheck Guess=TCheck SCRF=Check GenChk RM062X/def2TZVPP 
 Freq\\Gaussian input prepared by ASE\\0,1\C,-0.7886656879,-0.679146128
 2,-1.7444489549\F,-1.8111975447,-0.4283114388,-2.4961456928\F,-0.68470
 57674,-1.968435433,-1.7585823523\\Version=ES64L-G16RevC.01\HF=-237.723
 265\RMSD=1.879e-09\RMSF=4.267e-05\ZeroPoint=0.0072051\Thermal=0.010183
 1\ETot=-237.7130819\HTot=-237.7121377\GTot=-237.7400858\Dipole=-0.1273
 385,-0.1442261,-0.106183\DipoleDeriv=0.8519912,-0.3281938,0.7294738,-0
 .3296407,1.476332,-0.1313747,0.7284303,-0.1313373,0.3918683,-0.7491124
 ,0.3936951,-0.5915284,0.0116455,-0.2383772,-0.0136561,-0.6182802,0.274
 0999,-0.3723015,-0.1028788,-0.0655013,-0.1379453,0.3179952,-1.2379548,
 0.1450308,-0.11015,-0.1427626,-0.0195668\Polar=14.1376889,-1.5615916,1
 5.3469722,1.0158711,-0.9734211,13.352006\PG=Unknown\NImag=0\\0.2979257
 4,0.01687904,0.45639877,0.22539184,0.04548012,0.17261408,-0.25032552,0
 .00727709,-0.18781800,0.27056005,-0.00040029,-0.07148978,-0.00546496,-
 0.08394217,0.12193183,-0.18840254,0.00030263,-0.14161740,0.19755624,-0
 .05436529,0.14481403,-0.04760022,-0.02415612,-0.03757384,-0.02023453,0
 .08434246,-0.00915369,0.06783475,-0.01647875,-0.38490900,-0.04001516,0
 .07666509,-0.05044205,0.05406265,-0.06018634,0.43535105,-0.03698930,-0
 .04578276,-0.03099668,-0.00973823,0.05983025,-0.00319663,0.04672753,-0
 .01404749,0.03419331\\-0.00001823,-0.00007435,-0.00001555,0.00002046,-
 0.00002187,0.00000896,-0.00000222,0.00009622,0.00000659\\\@
 The archive entry for this job was punched.


      THE ONE-EYED VIEW OF OUR UNIVERSE SAYS YOU MUST NOT LOOK
      FAR AFIELD FOR PROBLEMS.  SUCH PROBLEMS MAY NEVER ARRIVE. 
      INSTEAD, TEND TO THE WOLF WITHIN YOUR FENCES.
      THE PACKS RANGING OUTSIDE MAY NOT EVEN EXIST.

                              -- THE AZHAR BOOK SHAMRA I:4
                                 CHILDREN OF DUNE, BY FRANK HERBERT
 Job cpu time:       0 days  0 hours  0 minutes 35.1 seconds.
 Elapsed time:       0 days  0 hours  0 minutes  5.1 seconds.
 File lengths (MBytes):  RWF=     10 Int=      0 D2E=      0 Chk=      2 Scr=      1
 Normal termination of Gaussian 16 at Sat May 24 04:25:03 2025.
done
