 Entering Gaussian System, Link 0=g16
 Input=./gaussian_jobs/CF3SO3H_geom.gjf
 Output=./gaussian_jobs/CF3SO3H_geom.log
 Initial command:
 /apps/easybuild-2022/easybuild/software/Compiler/NVHPC/22.11-CUDA-11.7.0/Gaussian/g16c01-CUDA-11.7.0/g16/l1.exe "/tmp/Gau-127639.inp" -scrdir="/tmp/"
 Entering Link 1 = /apps/easybuild-2022/easybuild/software/Compiler/NVHPC/22.11-CUDA-11.7.0/Gaussian/g16c01-CUDA-11.7.0/g16/l1.exe PID=    127640.
  
 Copyright (c) 1988-2019, Gaussian, Inc.  All Rights Reserved.
  
 This is part of the Gaussian(R) 16 program.  It is based on
 the Gaussian(R) 09 system (copyright 2009, Gaussian, Inc.),
 the Gaussian(R) 03 system (copyright 2003, Gaussian, Inc.),
 the Gaussian(R) 98 system (copyright 1998, Gaussian, Inc.),
 the Gaussian(R) 94 system (copyright 1995, Gaussian, Inc.),
 the Gaussian 92(TM) system (copyright 1992, Gaussian, Inc.),
 the Gaussian 90(TM) system (copyright 1990, Gaussian, Inc.),
 the Gaussian 88(TM) system (copyright 1988, Gaussian, Inc.),
 the Gaussian 86(TM) system (copyright 1986, Carnegie Mellon
 University), and the Gaussian 82(TM) system (copyright 1983,
 Carnegie Mellon University). Gaussian is a federally registered
 trademark of Gaussian, Inc.
  
 This software contains proprietary and confidential information,
 including trade secrets, belonging to Gaussian, Inc.
  
 This software is provided under written license and may be
 used, copied, transmitted, or stored only in accord with that
 written license.
  
 The following legend is applicable only to US Government
 contracts under FAR:
  
                    RESTRICTED RIGHTS LEGEND
  
 Use, reproduction and disclosure by the US Government is
 subject to restrictions as set forth in subparagraphs (a)
 and (c) of the Commercial Computer Software - Restricted
 Rights clause in FAR 52.227-19.
  
 Gaussian, Inc.
 340 Quinnipiac St., Bldg. 40, Wallingford CT 06492
  
  
 ---------------------------------------------------------------
 Warning -- This program may not be used in any manner that
 competes with the business of Gaussian, Inc. or will provide
 assistance to any competitor of Gaussian, Inc.  The licensee
 of this program is prohibited from giving any competitor of
 Gaussian, Inc. access to this program.  By using this program,
 the user acknowledges that Gaussian, Inc. is engaged in the
 business of creating and licensing software in the field of
 computational chemistry and represents and warrants to the
 licensee that it is not a competitor of Gaussian, Inc. and that
 it will not use this program in any manner prohibited above.
 ---------------------------------------------------------------
  

 Cite this work as:
 Gaussian 16, Revision C.01,
 M. J. Frisch, G. W. Trucks, H. B. Schlegel, G. E. Scuseria, 
 M. A. Robb, J. R. Cheeseman, G. Scalmani, V. Barone, 
 G. A. Petersson, H. Nakatsuji, X. Li, M. Caricato, A. V. Marenich, 
 J. Bloino, B. G. Janesko, R. Gomperts, B. Mennucci, H. P. Hratchian, 
 J. V. Ortiz, A. F. Izmaylov, J. L. Sonnenberg, D. Williams-Young, 
 F. Ding, F. Lipparini, F. Egidi, J. Goings, B. Peng, A. Petrone, 
 T. Henderson, D. Ranasinghe, V. G. Zakrzewski, J. Gao, N. Rega, 
 G. Zheng, W. Liang, M. Hada, M. Ehara, K. Toyota, R. Fukuda, 
 J. Hasegawa, M. Ishida, T. Nakajima, Y. Honda, O. Kitao, H. Nakai, 
 T. Vreven, K. Throssell, J. A. Montgomery, Jr., J. E. Peralta, 
 F. Ogliaro, M. J. Bearpark, J. J. Heyd, E. N. Brothers, K. N. Kudin, 
 V. N. Staroverov, T. A. Keith, R. Kobayashi, J. Normand, 
 K. Raghavachari, A. P. Rendell, J. C. Burant, S. S. Iyengar, 
 J. Tomasi, M. Cossi, J. M. Millam, M. Klene, C. Adamo, R. Cammi, 
 J. W. Ochterski, R. L. Martin, K. Morokuma, O. Farkas, 
 J. B. Foresman, and D. J. Fox, Gaussian, Inc., Wallingford CT, 2019.
 
 ******************************************
 Gaussian 16:  ES64L-G16RevC.01  3-Jul-2019
                16-May-2025 
 ******************************************
 %chk=gaussian_jobs/CF3SO3H.chk
 %mem=800MB
 %nprocshared=8
 Will use up to    8 processors via shared memory.
 ----------------------------------------------------------------------
 # opt=(maxcyc=999,noeigen) M062X/6-31G(2df,p) NOSYM int=ultrafine scf=
 (tight,xqc)
 ----------------------------------------------------------------------
 1/6=999,11=1,18=20,19=15,26=4,38=1/1,3;
 2/9=110,12=2,15=1,17=6,18=5,40=1/2;
 3/5=1,6=6,7=104,11=2,25=1,30=1,71=1,74=-55,75=-5/1,2,3;
 4//1;
 5/5=2,8=3,13=1,32=2,38=5/2,8;
 6/7=2,8=2,9=2,10=2,28=1/1;
 7/30=1/1,2,3,16;
 1/6=999,11=1,18=20,19=15,26=4/3(2);
 2/9=110,15=1/2;
 99//99;
 2/9=110,15=1/2;
 3/5=1,6=6,7=104,11=2,25=1,30=1,71=1,74=-55,75=-5/1,2,3;
 4/5=5,16=3,69=1/1;
 5/5=2,8=3,13=1,32=2,38=5/2,8;
 7/30=1/1,2,3,16;
 1/6=999,11=1,18=20,19=15,26=4/3(-5);
 2/9=110,15=1/2;
 6/7=2,8=2,9=2,10=2,19=2,28=1/1;
 99/9=1/99;
 --------------------------------------------------
 CF3SO3H - M062X/6-31G(2df,p) Geometry Optimization
 --------------------------------------------------
 Symbolic Z-matrix:
 Charge =  0 Multiplicity = 1
 C                    -1.07631  -0.2068   -0.30803 
 F                    -1.21467  -0.01737  -1.65066 
 F                    -1.69683   0.84598   0.30051 
 F                    -1.79151  -1.32188   0.01169 
 S                     0.70385  -0.34283   0.20973 
 O                     0.83171  -0.365     1.65578 
 O                     1.42568  -1.29926  -0.60661 
 O                     1.24373   1.13093  -0.21163 
 H                     1.57436   1.57623   0.59922 
 

 GradGradGradGradGradGradGradGradGradGradGradGradGradGradGradGradGradGrad
 Berny optimization.
 Initialization pass.
                           ----------------------------
                           !    Initial Parameters    !
                           ! (Angstroms and Degrees)  !
 --------------------------                            --------------------------
 ! Name  Definition              Value          Derivative Info.                !
 --------------------------------------------------------------------------------
 ! R1    R(1,2)                  1.363          estimate D2E/DX2                !
 ! R2    R(1,3)                  1.3652         estimate D2E/DX2                !
 ! R3    R(1,4)                  1.3628         estimate D2E/DX2                !
 ! R4    R(1,5)                  1.8589         estimate D2E/DX2                !
 ! R5    R(5,6)                  1.4519         estimate D2E/DX2                !
 ! R6    R(5,7)                  1.4499         estimate D2E/DX2                !
 ! R7    R(5,8)                  1.6251         estimate D2E/DX2                !
 ! R8    R(8,9)                  0.9824         estimate D2E/DX2                !
 ! A1    A(2,1,3)              106.6055         estimate D2E/DX2                !
 ! A2    A(2,1,4)              106.9509         estimate D2E/DX2                !
 ! A3    A(2,1,5)              112.443          estimate D2E/DX2                !
 ! A4    A(3,1,4)              106.7308         estimate D2E/DX2                !
 ! A5    A(3,1,5)              111.5651         estimate D2E/DX2                !
 ! A6    A(4,1,5)              112.1702         estimate D2E/DX2                !
 ! A7    A(1,5,6)              111.2763         estimate D2E/DX2                !
 ! A8    A(1,5,7)              111.6049         estimate D2E/DX2                !
 ! A9    A(1,5,8)              100.3438         estimate D2E/DX2                !
 ! A10   A(6,5,7)              120.4557         estimate D2E/DX2                !
 ! A11   A(6,5,8)              104.0538         estimate D2E/DX2                !
 ! A12   A(7,5,8)              106.6689         estimate D2E/DX2                !
 ! A13   A(5,8,9)              107.991          estimate D2E/DX2                !
 ! D1    D(2,1,5,6)            172.385          estimate D2E/DX2                !
 ! D2    D(2,1,5,7)            -49.9462         estimate D2E/DX2                !
 ! D3    D(2,1,5,8)             62.7531         estimate D2E/DX2                !
 ! D4    D(3,1,5,6)             52.6679         estimate D2E/DX2                !
 ! D5    D(3,1,5,7)           -169.6633         estimate D2E/DX2                !
 ! D6    D(3,1,5,8)            -56.9639         estimate D2E/DX2                !
 ! D7    D(4,1,5,6)            -67.0219         estimate D2E/DX2                !
 ! D8    D(4,1,5,7)             70.6469         estimate D2E/DX2                !
 ! D9    D(4,1,5,8)           -176.6537         estimate D2E/DX2                !
 ! D10   D(1,5,8,9)            119.6993         estimate D2E/DX2                !
 ! D11   D(6,5,8,9)              4.4897         estimate D2E/DX2                !
 ! D12   D(7,5,8,9)           -123.8546         estimate D2E/DX2                !
 --------------------------------------------------------------------------------
 Trust Radius=3.00D-01 FncErr=1.00D-07 GrdErr=1.00D-06 EigMax=2.50D+02 EigMin=1.00D-04
 Number of steps in this run=    100 maximum allowed number of steps=    100.
 GradGradGradGradGradGradGradGradGradGradGradGradGradGradGradGradGradGrad

                          Input orientation:                          
 ---------------------------------------------------------------------
 Center     Atomic      Atomic             Coordinates (Angstroms)
 Number     Number       Type             X           Y           Z
 ---------------------------------------------------------------------
      1          6           0       -1.076305   -0.206801   -0.308028
      2          9           0       -1.214674   -0.017372   -1.650659
      3          9           0       -1.696829    0.845977    0.300506
      4          9           0       -1.791510   -1.321884    0.011693
      5         16           0        0.703851   -0.342832    0.209734
      6          8           0        0.831706   -0.364997    1.655778
      7          8           0        1.425678   -1.299256   -0.606614
      8          8           0        1.243728    1.130932   -0.211628
      9          1           0        1.574356    1.576231    0.599219
 ---------------------------------------------------------------------
                    Distance matrix (angstroms):
                    1          2          3          4          5
     1  C    0.000000
     2  F    1.362970   0.000000
     3  F    1.365176   2.187439   0.000000
     4  F    1.362773   2.190412   2.189063   0.000000
     5  S    1.858908   2.692160   2.680442   2.687860   0.000000
     6  O    2.742639   3.903977   3.113954   3.240357   1.451854
     7  O    2.746367   3.115239   3.895503   3.276143   1.449898
     8  O    2.679809   3.071344   2.998392   3.908817   1.625113
     9  H    3.320889   3.921761   3.364989   4.480325   2.142961
                    6          7          8          9
     6  O    0.000000
     7  O    2.518742   0.000000
     8  O    2.427915   2.468792   0.000000
     9  H    2.331569   3.121628   0.982384   0.000000
 Symmetry turned off by external request.
 Stoichiometry    CHF3O3S
 Framework group  C1[X(CHF3O3S)]
 Deg. of freedom    21
 Full point group                 C1      NOp   1
 Rotational constants (GHZ):           2.6261855           1.4603611           1.4409615
 Standard basis: 6-31G(2df,p) (6D, 7F)
   233 basis functions,   383 primitive gaussians,   257 cartesian basis functions
    37 alpha electrons       37 beta electrons
       nuclear repulsion energy       556.5105964690 Hartrees.
 NAtoms=    9 NActive=    9 NUniq=    9 SFac= 1.00D+00 NAtFMM=   60 NAOKFM=F Big=F
 Integral buffers will be    131072 words long.
 Raffenetti 2 integral format.
 Two-electron integral symmetry is turned off.
 One-electron integrals computed using PRISM.
 NBasis=   233 RedAO= T EigKep=  1.52D-03  NBF=   233
 NBsUse=   233 1.00D-06 EigRej= -1.00D+00 NBFU=   233
 ExpMin= 1.17D-01 ExpMax= 2.19D+04 ExpMxC= 3.30D+03 IAcc=3 IRadAn=         5 AccDes= 0.00D+00
 Harris functional with IExCor= 1009 and IRadAn=       5 diagonalized for initial guess.
 HarFok:  IExCor= 1009 AccDes= 0.00D+00 IRadAn=         5 IDoV= 1 UseB2=F ITyADJ=14
 ICtDFT=  3500011 ScaDFX=  1.000000  1.000000  1.000000  1.000000
 FoFCou: FMM=F IPFlag=           0 FMFlag=      100000 FMFlg1=           0
         NFxFlg=           0 DoJE=T BraDBF=F KetDBF=T FulRan=T
         wScrn=  0.000000 ICntrl=       500 IOpCl=  0 I1Cent=   200000004 NGrid=           0
         NMat0=    1 NMatS0=      1 NMatT0=    0 NMatD0=    1 NMtDS0=    0 NMtDT0=    0
 Symmetry not used in FoFCou.
 Requested convergence on RMS density matrix=1.00D-08 within  32 cycles.
 Requested convergence on MAX density matrix=1.00D-06.
 Requested convergence on             energy=1.00D-06.
 No special actions if energy rises.
 Integral accuracy reduced to 1.0D-05 until final iterations.
 Initial convergence to 1.0D-05 achieved.  Increase integral accuracy.
 SCF Done:  E(RM062X) =  -961.842110155     A.U. after   14 cycles
            NFock= 14  Conv=0.93D-08     -V/T= 2.0044
 QCSCF skips out because SCF is already converged.

 **********************************************************************

            Population analysis using the SCF Density.

 **********************************************************************

 Alpha  occ. eigenvalues --  -90.19697 -25.32057 -25.31906 -25.31865 -19.72046
 Alpha  occ. eigenvalues --  -19.67488 -19.67289 -10.85912  -8.50658  -6.42919
 Alpha  occ. eigenvalues --   -6.42757  -6.42618  -1.48199  -1.39491  -1.39353
 Alpha  occ. eigenvalues --   -1.30081  -1.18697  -1.16372  -0.88870  -0.78894
 Alpha  occ. eigenvalues --   -0.71710  -0.70996  -0.70295  -0.64035  -0.60131
 Alpha  occ. eigenvalues --   -0.59189  -0.58694  -0.57894  -0.55379  -0.55331
 Alpha  occ. eigenvalues --   -0.54471  -0.53646  -0.48308  -0.45136  -0.43522
 Alpha  occ. eigenvalues --   -0.42825  -0.41232
 Alpha virt. eigenvalues --    0.02858   0.04608   0.07130   0.11111   0.15024
 Alpha virt. eigenvalues --    0.19945   0.22777   0.24069   0.27816   0.30769
 Alpha virt. eigenvalues --    0.32360   0.35321   0.42722   0.44883   0.45615
 Alpha virt. eigenvalues --    0.51399   0.52997   0.62023   0.63044   0.65122
 Alpha virt. eigenvalues --    0.67449   0.71040   0.73966   0.74723   0.82555
 Alpha virt. eigenvalues --    0.83308   0.85701   0.86178   0.88536   0.89785
 Alpha virt. eigenvalues --    0.91996   0.93892   0.95634   0.95880   0.96675
 Alpha virt. eigenvalues --    0.98153   0.99233   1.00613   1.01462   1.02442
 Alpha virt. eigenvalues --    1.03673   1.04437   1.04841   1.07864   1.09678
 Alpha virt. eigenvalues --    1.10540   1.13948   1.14790   1.16396   1.18838
 Alpha virt. eigenvalues --    1.20139   1.22209   1.22957   1.24141   1.26599
 Alpha virt. eigenvalues --    1.30872   1.34310   1.35080   1.36268   1.37795
 Alpha virt. eigenvalues --    1.40290   1.40760   1.46267   1.47430   1.49170
 Alpha virt. eigenvalues --    1.52206   1.60420   1.62469   1.70499   1.71606
 Alpha virt. eigenvalues --    1.75448   1.79313   1.79531   1.86923   1.87695
 Alpha virt. eigenvalues --    1.93821   1.93972   1.95299   2.02460   2.06181
 Alpha virt. eigenvalues --    2.07536   2.11230   2.12949   2.21296   2.22287
 Alpha virt. eigenvalues --    2.25511   2.29081   2.29637   2.50491   2.54157
 Alpha virt. eigenvalues --    2.56944   2.61286   2.65475   2.69853   2.84517
 Alpha virt. eigenvalues --    2.92250   2.94912   3.12830   3.13245   3.20719
 Alpha virt. eigenvalues --    3.21551   3.26940   3.29627   3.43253   3.77990
 Alpha virt. eigenvalues --    3.80353   3.82884   3.97081   4.08427   4.11795
 Alpha virt. eigenvalues --    4.14005   4.15509   4.15616   4.17210   4.19667
 Alpha virt. eigenvalues --    4.20064   4.20385   4.21220   4.22000   4.23814
 Alpha virt. eigenvalues --    4.24349   4.26473   4.27946   4.28193   4.29267
 Alpha virt. eigenvalues --    4.31312   4.32025   4.34120   4.35899   4.37937
 Alpha virt. eigenvalues --    4.41418   4.42183   4.54005   4.55091   4.58606
 Alpha virt. eigenvalues --    4.59138   4.61530   4.70135   4.71416   4.73765
 Alpha virt. eigenvalues --    4.75614   4.76526   4.76911   4.96943   5.01208
 Alpha virt. eigenvalues --    5.02096   5.02502   5.04933   5.07009   5.15331
 Alpha virt. eigenvalues --    5.16663   5.20760   5.25048   5.28982   5.33901
 Alpha virt. eigenvalues --    5.36348   5.51330   5.54200   5.65497   5.67149
 Alpha virt. eigenvalues --    5.70853   5.78451   5.82923   5.83158   5.84412
 Alpha virt. eigenvalues --    6.55917   6.58762   6.61760   6.61934   6.61967
 Alpha virt. eigenvalues --    6.62330   6.62651   6.62999   6.64425   6.64787
 Alpha virt. eigenvalues --    6.64867   6.73127   6.74036   6.80853   6.89955
 Alpha virt. eigenvalues --    7.08540   7.09070   7.09747   7.33370   7.33926
 Alpha virt. eigenvalues --    7.34437   7.34592   7.41452   7.45708   9.67013
 Alpha virt. eigenvalues --    9.68831   9.74484  11.89221  12.85458  12.92622
 Alpha virt. eigenvalues --   13.07792
          Condensed to atoms (all electrons):
               1          2          3          4          5          6
     1  C    4.333536   0.359955   0.348217   0.370695   0.278871  -0.023478
     2  F    0.359955   8.820058  -0.036062  -0.037054   0.008365   0.000153
     3  F    0.348217  -0.036062   8.833812  -0.036061   0.011856  -0.000423
     4  F    0.370695  -0.037054  -0.036061   8.813701   0.005060  -0.000170
     5  S    0.278871   0.008365   0.011856   0.005060  13.507929   0.639643
     6  O   -0.023478   0.000153  -0.000423  -0.000170   0.639643   7.767142
     7  O   -0.026048  -0.000094   0.000157  -0.000138   0.647873  -0.025880
     8  O   -0.017010  -0.000608  -0.000146   0.000126   0.327254  -0.046585
     9  H    0.001331  -0.000023  -0.000297  -0.000007  -0.019851   0.005257
               7          8          9
     1  C   -0.026048  -0.017010   0.001331
     2  F   -0.000094  -0.000608  -0.000023
     3  F    0.000157  -0.000146  -0.000297
     4  F   -0.000138   0.000126  -0.000007
     5  S    0.647873   0.327254  -0.019851
     6  O   -0.025880  -0.046585   0.005257
     7  O    7.710846  -0.039311   0.000975
     8  O   -0.039311   7.886830   0.296709
     9  H    0.000975   0.296709   0.339642
 Mulliken charges:
               1
     1  C    0.373931
     2  F   -0.114690
     3  F   -0.121053
     4  F   -0.116152
     5  S    0.592999
     6  O   -0.315659
     7  O   -0.268381
     8  O   -0.407260
     9  H    0.376263
 Sum of Mulliken charges =  -0.00000
 Mulliken charges with hydrogens summed into heavy atoms:
               1
     1  C    0.373931
     2  F   -0.114690
     3  F   -0.121053
     4  F   -0.116152
     5  S    0.592999
     6  O   -0.315659
     7  O   -0.268381
     8  O   -0.030996
 Electronic spatial extent (au):  <R**2>=            908.2415
 Charge=             -0.0000 electrons
 Dipole moment (field-independent basis, Debye):
    X=             -0.3036    Y=              2.1987    Z=              0.3697  Tot=              2.2502
 Quadrupole moment (field-independent basis, Debye-Ang):
   XX=            -48.5702   YY=            -47.7517   ZZ=            -52.2591
   XY=              4.9084   XZ=              1.9598   YZ=              1.9205
 Traceless Quadrupole moment (field-independent basis, Debye-Ang):
   XX=              0.9568   YY=              1.7753   ZZ=             -2.7321
   XY=              4.9084   XZ=              1.9598   YZ=              1.9205
 Octapole moment (field-independent basis, Debye-Ang**2):
  XXX=              2.8256  YYY=             36.6815  ZZZ=             -3.2154  XYY=              3.0940
  XXY=             17.9298  XXZ=              4.9031  XZZ=             -2.1025  YZZ=             12.7690
  YYZ=              5.8904  XYZ=              3.0427
 Hexadecapole moment (field-independent basis, Debye-Ang**3):
 XXXX=           -456.9683 YYYY=           -212.1042 ZZZZ=           -233.5185 XXXY=             12.9424
 XXXZ=            -27.4244 YYYX=             13.7624 YYYZ=              1.9294 ZZZX=            -41.8182
 ZZZY=              0.3879 XXYY=           -109.8884 XXZZ=           -116.0486 YYZZ=            -72.5736
 XXYZ=              3.7791 YYXZ=             -4.2066 ZZXY=              4.1250
 N-N= 5.565105964690D+02 E-N=-3.393396178995D+03  KE= 9.576047762147D+02
 Calling FoFJK, ICntrl=      2127 FMM=F ISym2X=0 I1Cent= 0 IOpClX= 0 NMat=1 NMatS=1 NMatT=0.
 -------------------------------------------------------------------
 Center     Atomic                   Forces (Hartrees/Bohr)
 Number     Number              X              Y              Z
 -------------------------------------------------------------------
      1        6          -0.069548657    0.008414018   -0.021409915
      2        9           0.017995233   -0.007061095    0.041966288
      3        9           0.031249582   -0.031057253   -0.012605174
      4        9           0.035417519    0.030204971   -0.004948903
      5       16           0.067464077    0.004015293    0.016887833
      6        8          -0.020739715   -0.006082213   -0.032233234
      7        8          -0.039095687    0.024624307    0.017285553
      8        8          -0.014224123   -0.014215584    0.003880328
      9        1          -0.008518229   -0.008842444   -0.008822776
 -------------------------------------------------------------------
 Cartesian Forces:  Max     0.069548657 RMS     0.028042807

 GradGradGradGradGradGradGradGradGradGradGradGradGradGradGradGradGradGrad
 Berny optimization.
 FormGI is forming the generalized inverse of G from B-inverse, IUseBI=4.
 Internal  Forces:  Max     0.045437752 RMS     0.021228290
 Search for a local minimum.
 Step number   1 out of a maximum of  100
 All quantities printed in internal units (Hartrees-Bohrs-Radians)
 Mixed Optimization -- RFO/linear search
 Second derivative matrix not updated -- first step.
 ITU=  0
     Eigenvalues ---    0.00230   0.02287   0.07369   0.08012   0.08176
     Eigenvalues ---    0.10040   0.16000   0.17183   0.20201   0.21976
     Eigenvalues ---    0.25000   0.25000   0.25000   0.25000   0.46653
     Eigenvalues ---    0.50925   0.51915   0.52352   0.52391   0.95116
     Eigenvalues ---    0.95985
 RFO step:  Lambda=-3.66365729D-02 EMin= 2.30000000D-03
 Linear search not attempted -- first point.
 Maximum step size (   0.300) exceeded in Quadratic search.
    -- Step size scaled by   0.973
 Iteration  1 RMS(Cart)=  0.11152220 RMS(Int)=  0.00485082
 Iteration  2 RMS(Cart)=  0.00418065 RMS(Int)=  0.00331458
 Iteration  3 RMS(Cart)=  0.00001395 RMS(Int)=  0.00331457
 Iteration  4 RMS(Cart)=  0.00000016 RMS(Int)=  0.00331457
 Variable       Old X    -DE/DX   Delta X   Delta X   Delta X     New X
                                 (Linear)    (Quad)   (Total)
    R1        2.57564  -0.04415   0.00000  -0.07665  -0.07665   2.49899
    R2        2.57981  -0.04377   0.00000  -0.07660  -0.07660   2.50321
    R3        2.57527  -0.04446   0.00000  -0.07714  -0.07714   2.49813
    R4        3.51283  -0.01527   0.00000  -0.05793  -0.05793   3.45489
    R5        2.74361  -0.03384   0.00000  -0.03332  -0.03332   2.71029
    R6        2.73991  -0.04544   0.00000  -0.04435  -0.04435   2.69557
    R7        3.07102  -0.02718   0.00000  -0.05254  -0.05254   3.01848
    R8        1.85644  -0.01415   0.00000  -0.02522  -0.02522   1.83122
    A1        1.86062   0.01772   0.00000   0.06330   0.06214   1.92276
    A2        1.86665   0.01803   0.00000   0.05890   0.05705   1.92370
    A3        1.96250  -0.01556   0.00000  -0.05234  -0.05380   1.90870
    A4        1.86280   0.01790   0.00000   0.05987   0.05812   1.92093
    A5        1.94718  -0.01556   0.00000  -0.05153  -0.05294   1.89424
    A6        1.95774  -0.01806   0.00000  -0.06302  -0.06477   1.89297
    A7        1.94214  -0.01438   0.00000  -0.07368  -0.07372   1.86842
    A8        1.94787  -0.01544   0.00000  -0.08610  -0.08716   1.86071
    A9        1.75133  -0.02344   0.00000  -0.07966  -0.07913   1.67220
   A10        2.10235   0.01476   0.00000   0.06326   0.05122   2.15357
   A11        1.81608   0.02125   0.00000   0.10989   0.10429   1.92037
   A12        1.86172   0.01588   0.00000   0.06987   0.06235   1.92408
   A13        1.88480  -0.00818   0.00000  -0.04045  -0.04045   1.84434
    D1        3.00869   0.00596   0.00000   0.04595   0.04490   3.05359
    D2       -0.87173  -0.00247   0.00000  -0.02263  -0.02251  -0.89424
    D3        1.09525  -0.00191   0.00000  -0.01488  -0.01451   1.08073
    D4        0.91923   0.00488   0.00000   0.03698   0.03629   0.95552
    D5       -2.96118  -0.00356   0.00000  -0.03159  -0.03112  -2.99231
    D6       -0.99421  -0.00299   0.00000  -0.02385  -0.02312  -1.01733
    D7       -1.16975   0.00518   0.00000   0.03943   0.03860  -1.13116
    D8        1.23302  -0.00326   0.00000  -0.02914  -0.02882   1.20420
    D9       -3.08319  -0.00269   0.00000  -0.02140  -0.02082  -3.10401
   D10        2.08915  -0.00036   0.00000  -0.01824  -0.01881   2.07033
   D11        0.07836   0.01687   0.00000   0.05504   0.06272   0.14108
   D12       -2.16167  -0.02174   0.00000  -0.12234  -0.12944  -2.29112
         Item               Value     Threshold  Converged?
 Maximum Force            0.045438     0.000450     NO 
 RMS     Force            0.021228     0.000300     NO 
 Maximum Displacement     0.245908     0.001800     NO 
 RMS     Displacement     0.111074     0.001200     NO 
 Predicted change in Energy=-2.069219D-02
 GradGradGradGradGradGradGradGradGradGradGradGradGradGradGradGradGradGrad

                          Input orientation:                          
 ---------------------------------------------------------------------
 Center     Atomic      Atomic             Coordinates (Angstroms)
 Number     Number       Type             X           Y           Z
 ---------------------------------------------------------------------
      1          6           0       -1.031388   -0.183731   -0.297001
      2          9           0       -1.088936    0.002041   -1.605030
      3          9           0       -1.566700    0.850018    0.335046
      4          9           0       -1.664692   -1.295643    0.034862
      5         16           0        0.716363   -0.337551    0.217004
      6          8           0        0.728212   -0.416713    1.648992
      7          8           0        1.304790   -1.324125   -0.628652
      8          8           0        1.152671    1.125149   -0.253680
      9          1           0        1.449681    1.580553    0.548462
 ---------------------------------------------------------------------
                    Distance matrix (angstroms):
                    1          2          3          4          5
     1  C    0.000000
     2  F    1.322408   0.000000
     3  F    1.324643   2.170534   0.000000
     4  F    1.321951   2.169038   2.168773   0.000000
     5  S    1.828250   2.587323   2.576166   2.573042   0.000000
     6  O    2.633888   3.750473   2.932181   3.017271   1.434224
     7  O    2.620729   2.905505   3.728413   3.042842   1.426432
     8  O    2.546598   2.848214   2.795939   3.725725   1.597309
     9  H    3.159622   3.684265   3.110914   4.270318   2.080082
                    6          7          8          9
     6  O    0.000000
     7  O    2.518630   0.000000
     8  O    2.485491   2.482476   0.000000
     9  H    2.391811   3.137474   0.969040   0.000000
 Symmetry turned off by external request.
 Stoichiometry    CHF3O3S
 Framework group  C1[X(CHF3O3S)]
 Deg. of freedom    21
 Full point group                 C1      NOp   1
 Rotational constants (GHZ):           2.6237785           1.6205836           1.6071662
 Standard basis: 6-31G(2df,p) (6D, 7F)
   233 basis functions,   383 primitive gaussians,   257 cartesian basis functions
    37 alpha electrons       37 beta electrons
       nuclear repulsion energy       573.0145783672 Hartrees.
 NAtoms=    9 NActive=    9 NUniq=    9 SFac= 1.00D+00 NAtFMM=   60 NAOKFM=F Big=F
 Integral buffers will be    131072 words long.
 Raffenetti 2 integral format.
 Two-electron integral symmetry is turned off.
 One-electron integrals computed using PRISM.
 NBasis=   233 RedAO= T EigKep=  1.49D-03  NBF=   233
 NBsUse=   233 1.00D-06 EigRej= -1.00D+00 NBFU=   233
 Initial guess from the checkpoint file:  "gaussian_jobs/CF3SO3H.chk"
 B after Tr=     0.035585   -0.001922    0.014439
         Rot=    0.999986   -0.002434    0.000216    0.004678 Ang=  -0.60 deg.
 ExpMin= 1.17D-01 ExpMax= 2.19D+04 ExpMxC= 3.30D+03 IAcc=3 IRadAn=         5 AccDes= 0.00D+00
 Harris functional with IExCor= 1009 and IRadAn=       5 diagonalized for initial guess.
 HarFok:  IExCor= 1009 AccDes= 0.00D+00 IRadAn=         5 IDoV= 1 UseB2=F ITyADJ=14
 ICtDFT=  3500011 ScaDFX=  1.000000  1.000000  1.000000  1.000000
 FoFCou: FMM=F IPFlag=           0 FMFlag=      100000 FMFlg1=           0
         NFxFlg=           0 DoJE=T BraDBF=F KetDBF=T FulRan=T
         wScrn=  0.000000 ICntrl=       500 IOpCl=  0 I1Cent=   200000004 NGrid=           0
         NMat0=    1 NMatS0=      1 NMatT0=    0 NMatD0=    1 NMtDS0=    0 NMtDT0=    0
 Symmetry not used in FoFCou.
 Requested convergence on RMS density matrix=1.00D-08 within  32 cycles.
 Requested convergence on MAX density matrix=1.00D-06.
 Requested convergence on             energy=1.00D-06.
 No special actions if energy rises.
 Integral accuracy reduced to 1.0D-05 until final iterations.
 Initial convergence to 1.0D-05 achieved.  Increase integral accuracy.
 SCF Done:  E(RM062X) =  -961.859630984     A.U. after   13 cycles
            NFock= 13  Conv=0.63D-08     -V/T= 2.0038
 QCSCF skips out because SCF is already converged.
 Calling FoFJK, ICntrl=      2127 FMM=F ISym2X=0 I1Cent= 0 IOpClX= 0 NMat=1 NMatS=1 NMatT=0.
 -------------------------------------------------------------------
 Center     Atomic                   Forces (Hartrees/Bohr)
 Number     Number              X              Y              Z
 -------------------------------------------------------------------
      1        6          -0.003900497    0.000093352   -0.000930518
      2        9          -0.001475706   -0.000789974    0.008391376
      3        9           0.000366833   -0.006215968   -0.004593195
      4        9           0.002355631    0.006689678   -0.002530610
      5       16          -0.004994500   -0.008446043   -0.002220463
      6        8           0.004929960    0.004464058   -0.013645549
      7        8          -0.001590797    0.011314038    0.008148532
      8        8           0.004788055   -0.011119412    0.008927103
      9        1          -0.000478979    0.004010271   -0.001546676
 -------------------------------------------------------------------
 Cartesian Forces:  Max     0.013645549 RMS     0.006022874

 GradGradGradGradGradGradGradGradGradGradGradGradGradGradGradGradGradGrad
 Berny optimization.
 Using GEDIIS/GDIIS optimizer.
 FormGI is forming the generalized inverse of G from B-inverse, IUseBI=4.
 Internal  Forces:  Max     0.013833886 RMS     0.005521268
 Search for a local minimum.
 Step number   2 out of a maximum of  100
 All quantities printed in internal units (Hartrees-Bohrs-Radians)
 Mixed Optimization -- RFO/linear search
 Update second derivatives using D2CorX and points    1    2
 DE= -1.75D-02 DEPred=-2.07D-02 R= 8.47D-01
 TightC=F SS=  1.41D+00  RLast= 3.40D-01 DXNew= 5.0454D-01 1.0199D+00
 Trust test= 8.47D-01 RLast= 3.40D-01 DXMaxT set to 5.05D-01
 ITU=  1  0
 Use linear search instead of GDIIS.
     Eigenvalues ---    0.00230   0.02287   0.08963   0.09124   0.09246
     Eigenvalues ---    0.11104   0.15873   0.18833   0.19518   0.22222
     Eigenvalues ---    0.24541   0.25000   0.25000   0.31185   0.43227
     Eigenvalues ---    0.48523   0.51037   0.52070   0.52379   0.90852
     Eigenvalues ---    0.95556
 RFO step:  Lambda=-2.76094266D-03 EMin= 2.29977741D-03
 Quartic linear search produced a step of -0.04829.
 Iteration  1 RMS(Cart)=  0.02875788 RMS(Int)=  0.00071332
 Iteration  2 RMS(Cart)=  0.00060467 RMS(Int)=  0.00013774
 Iteration  3 RMS(Cart)=  0.00000073 RMS(Int)=  0.00013774
 Variable       Old X    -DE/DX   Delta X   Delta X   Delta X     New X
                                 (Linear)    (Quad)   (Total)
    R1        2.49899  -0.00835   0.00370  -0.02718  -0.02348   2.47551
    R2        2.50321  -0.00719   0.00370  -0.02519  -0.02149   2.48172
    R3        2.49813  -0.00739   0.00373  -0.02551  -0.02179   2.47634
    R4        3.45489   0.00242   0.00280   0.00065   0.00345   3.45834
    R5        2.71029  -0.01383   0.00161  -0.01893  -0.01732   2.69297
    R6        2.69557  -0.01331   0.00214  -0.02000  -0.01786   2.67770
    R7        3.01848  -0.00750   0.00254  -0.02353  -0.02099   2.99749
    R8        1.83122   0.00046   0.00122  -0.00315  -0.00193   1.82929
    A1        1.92276  -0.00302  -0.00300  -0.00006  -0.00303   1.91973
    A2        1.92370  -0.00200  -0.00276   0.00011  -0.00255   1.92115
    A3        1.90870   0.00221   0.00260  -0.00097   0.00169   1.91039
    A4        1.92093  -0.00266  -0.00281  -0.00045  -0.00316   1.91777
    A5        1.89424   0.00436   0.00256   0.00808   0.01070   1.90494
    A6        1.89297   0.00131   0.00313  -0.00668  -0.00346   1.88951
    A7        1.86842   0.00336   0.00356   0.01429   0.01796   1.88638
    A8        1.86071   0.00289   0.00421   0.01183   0.01611   1.87682
    A9        1.67220   0.01027   0.00382   0.02736   0.03122   1.70342
   A10        2.15357  -0.00088  -0.00247   0.00296   0.00010   2.15367
   A11        1.92037  -0.00683  -0.00504  -0.02669  -0.03202   1.88836
   A12        1.92408  -0.00480  -0.00301  -0.01892  -0.02216   1.90191
   A13        1.84434   0.00737   0.00195   0.03599   0.03794   1.88229
    D1        3.05359  -0.00196  -0.00217  -0.04350  -0.04562   3.00797
    D2       -0.89424   0.00137   0.00109  -0.02123  -0.02013  -0.91437
    D3        1.08073   0.00069   0.00070  -0.02859  -0.02790   1.05284
    D4        0.95552  -0.00224  -0.00175  -0.04770  -0.04945   0.90607
    D5       -2.99231   0.00109   0.00150  -0.02544  -0.02396  -3.01627
    D6       -1.01733   0.00042   0.00112  -0.03280  -0.03172  -1.04906
    D7       -1.13116  -0.00230  -0.00186  -0.04796  -0.04980  -1.18095
    D8        1.20420   0.00103   0.00139  -0.02570  -0.02431   1.17989
    D9       -3.10401   0.00036   0.00101  -0.03306  -0.03207  -3.13608
   D10        2.07033  -0.00090   0.00091  -0.04099  -0.04012   2.03021
   D11        0.14108  -0.00728  -0.00303  -0.06175  -0.06438   0.07669
   D12       -2.29112   0.00551   0.00625  -0.02089  -0.01500  -2.30611
         Item               Value     Threshold  Converged?
 Maximum Force            0.013834     0.000450     NO 
 RMS     Force            0.005521     0.000300     NO 
 Maximum Displacement     0.066842     0.001800     NO 
 RMS     Displacement     0.028933     0.001200     NO 
 Predicted change in Energy=-1.467906D-03
 GradGradGradGradGradGradGradGradGradGradGradGradGradGradGradGradGradGrad

                          Input orientation:                          
 ---------------------------------------------------------------------
 Center     Atomic      Atomic             Coordinates (Angstroms)
 Number     Number       Type             X           Y           Z
 ---------------------------------------------------------------------
      1          6           0       -1.045170   -0.184629   -0.298459
      2          9           0       -1.102526    0.022390   -1.590710
      3          9           0       -1.595204    0.821174    0.342248
      4          9           0       -1.663700   -1.298932    0.006428
      5         16           0        0.703925   -0.340124    0.216964
      6          8           0        0.743191   -0.384322    1.640794
      7          8           0        1.307437   -1.319208   -0.610685
      8          8           0        1.188042    1.097218   -0.247489
      9          1           0        1.464006    1.586432    0.540910
 ---------------------------------------------------------------------
                    Distance matrix (angstroms):
                    1          2          3          4          5
     1  C    0.000000
     2  F    1.309984   0.000000
     3  F    1.313272   2.148747   0.000000
     4  F    1.310423   2.147477   2.147631   0.000000
     5  S    1.830075   2.581157   2.578819   2.563063   0.000000
     6  O    2.645527   3.743621   2.933860   3.049719   1.425056
     7  O    2.630497   2.927159   3.730234   3.034617   1.416980
     8  O    2.575455   2.864647   2.858400   3.733423   1.586203
     9  H    3.183891   3.684714   3.159724   4.288770   2.096254
                    6          7          8          9
     6  O    0.000000
     7  O    2.502307   0.000000
     8  O    2.440997   2.446483   0.000000
     9  H    2.369217   3.129445   0.968019   0.000000
 Symmetry turned off by external request.
 Stoichiometry    CHF3O3S
 Framework group  C1[X(CHF3O3S)]
 Deg. of freedom    21
 Full point group                 C1      NOp   1
 Rotational constants (GHZ):           2.6818728           1.6125353           1.5966436
 Standard basis: 6-31G(2df,p) (6D, 7F)
   233 basis functions,   383 primitive gaussians,   257 cartesian basis functions
    37 alpha electrons       37 beta electrons
       nuclear repulsion energy       574.9517439457 Hartrees.
 NAtoms=    9 NActive=    9 NUniq=    9 SFac= 1.00D+00 NAtFMM=   60 NAOKFM=F Big=F
 Integral buffers will be    131072 words long.
 Raffenetti 2 integral format.
 Two-electron integral symmetry is turned off.
 One-electron integrals computed using PRISM.
 NBasis=   233 RedAO= T EigKep=  1.48D-03  NBF=   233
 NBsUse=   233 1.00D-06 EigRej= -1.00D+00 NBFU=   233
 Initial guess from the checkpoint file:  "gaussian_jobs/CF3SO3H.chk"
 B after Tr=    -0.054492    0.018467   -0.001438
         Rot=    0.999920   -0.000085    0.002626   -0.012341 Ang=  -1.45 deg.
 ExpMin= 1.17D-01 ExpMax= 2.19D+04 ExpMxC= 3.30D+03 IAcc=3 IRadAn=         5 AccDes= 0.00D+00
 Harris functional with IExCor= 1009 and IRadAn=       5 diagonalized for initial guess.
 HarFok:  IExCor= 1009 AccDes= 0.00D+00 IRadAn=         5 IDoV= 1 UseB2=F ITyADJ=14
 ICtDFT=  3500011 ScaDFX=  1.000000  1.000000  1.000000  1.000000
 FoFCou: FMM=F IPFlag=           0 FMFlag=      100000 FMFlg1=           0
         NFxFlg=           0 DoJE=T BraDBF=F KetDBF=T FulRan=T
         wScrn=  0.000000 ICntrl=       500 IOpCl=  0 I1Cent=   200000004 NGrid=           0
         NMat0=    1 NMatS0=      1 NMatT0=    0 NMatD0=    1 NMtDS0=    0 NMtDT0=    0
 Symmetry not used in FoFCou.
 Requested convergence on RMS density matrix=1.00D-08 within  32 cycles.
 Requested convergence on MAX density matrix=1.00D-06.
 Requested convergence on             energy=1.00D-06.
 No special actions if energy rises.
 Integral accuracy reduced to 1.0D-05 until final iterations.
 Initial convergence to 1.0D-05 achieved.  Increase integral accuracy.
 SCF Done:  E(RM062X) =  -961.860953427     A.U. after   13 cycles
            NFock= 13  Conv=0.98D-08     -V/T= 2.0036
 QCSCF skips out because SCF is already converged.
 Calling FoFJK, ICntrl=      2127 FMM=F ISym2X=0 I1Cent= 0 IOpClX= 0 NMat=1 NMatS=1 NMatT=0.
 -------------------------------------------------------------------
 Center     Atomic                   Forces (Hartrees/Bohr)
 Number     Number              X              Y              Z
 -------------------------------------------------------------------
      1        6           0.002893576   -0.000100448    0.001228686
      2        9          -0.000309963    0.001071779   -0.004948294
      3        9          -0.001869712    0.003487934    0.002039880
      4        9          -0.002631478   -0.004883041    0.001301895
      5       16           0.003950347    0.003025618    0.000919614
      6        8          -0.000527523   -0.000783180   -0.000245016
      7        8          -0.001373942   -0.000178679   -0.000507533
      8        8           0.001362060   -0.002691375    0.000451553
      9        1          -0.001493366    0.001051392   -0.000240786
 -------------------------------------------------------------------
 Cartesian Forces:  Max     0.004948294 RMS     0.002188688

 GradGradGradGradGradGradGradGradGradGradGradGradGradGradGradGradGradGrad
 Berny optimization.
 Using GEDIIS/GDIIS optimizer.
 FormGI is forming the generalized inverse of G from B-inverse, IUseBI=4.
 Internal  Forces:  Max     0.005698824 RMS     0.001707706
 Search for a local minimum.
 Step number   3 out of a maximum of  100
 All quantities printed in internal units (Hartrees-Bohrs-Radians)
 Mixed Optimization -- RFO/linear search
 Update second derivatives using D2CorX and points    1    2    3
 DE= -1.32D-03 DEPred=-1.47D-03 R= 9.01D-01
 TightC=F SS=  1.41D+00  RLast= 1.57D-01 DXNew= 8.4853D-01 4.7053D-01
 Trust test= 9.01D-01 RLast= 1.57D-01 DXMaxT set to 5.05D-01
 ITU=  1  1  0
 Use linear search instead of GDIIS.
     Eigenvalues ---    0.00232   0.02095   0.08896   0.09006   0.09092
     Eigenvalues ---    0.10816   0.15442   0.19732   0.20258   0.22129
     Eigenvalues ---    0.24197   0.25000   0.25006   0.31272   0.43751
     Eigenvalues ---    0.50951   0.51997   0.52350   0.58944   0.88016
     Eigenvalues ---    0.95554
 RFO step:  Lambda=-3.11865330D-04 EMin= 2.31653820D-03
 Quartic linear search produced a step of -0.07973.
 Iteration  1 RMS(Cart)=  0.01712217 RMS(Int)=  0.00033128
 Iteration  2 RMS(Cart)=  0.00031832 RMS(Int)=  0.00002274
 Iteration  3 RMS(Cart)=  0.00000017 RMS(Int)=  0.00002274
 Variable       Old X    -DE/DX   Delta X   Delta X   Delta X     New X
                                 (Linear)    (Quad)   (Total)
    R1        2.47551   0.00506   0.00187   0.00519   0.00706   2.48257
    R2        2.48172   0.00445   0.00171   0.00454   0.00626   2.48798
    R3        2.47634   0.00570   0.00174   0.00657   0.00830   2.48464
    R4        3.45834   0.00190  -0.00028   0.00863   0.00836   3.46670
    R5        2.69297  -0.00024   0.00138  -0.00293  -0.00154   2.69142
    R6        2.67770  -0.00016   0.00142  -0.00288  -0.00145   2.67625
    R7        2.99749  -0.00158   0.00167  -0.00629  -0.00462   2.99287
    R8        1.82929  -0.00009   0.00015  -0.00035  -0.00020   1.82909
    A1        1.91973  -0.00023   0.00024  -0.00230  -0.00206   1.91767
    A2        1.92115   0.00005   0.00020  -0.00008   0.00012   1.92127
    A3        1.91039   0.00017  -0.00013   0.00104   0.00090   1.91129
    A4        1.91777   0.00007   0.00025  -0.00032  -0.00007   1.91770
    A5        1.90494   0.00004  -0.00085   0.00197   0.00111   1.90606
    A6        1.88951  -0.00008   0.00028  -0.00024   0.00003   1.88954
    A7        1.88638  -0.00086  -0.00143  -0.00200  -0.00347   1.88291
    A8        1.87682  -0.00141  -0.00128  -0.00590  -0.00720   1.86962
    A9        1.70342   0.00046  -0.00249   0.00780   0.00531   1.70874
   A10        2.15367   0.00062  -0.00001   0.00055   0.00058   2.15425
   A11        1.88836   0.00088   0.00255   0.00260   0.00520   1.89356
   A12        1.90191   0.00024   0.00177  -0.00135   0.00048   1.90239
   A13        1.88229   0.00115  -0.00303   0.01306   0.01003   1.89232
    D1        3.00797   0.00049   0.00364  -0.02460  -0.02097   2.98700
    D2       -0.91437  -0.00047   0.00161  -0.03005  -0.02843  -0.94280
    D3        1.05284  -0.00042   0.00222  -0.03004  -0.02782   1.02502
    D4        0.90607   0.00065   0.00394  -0.02362  -0.01969   0.88639
    D5       -3.01627  -0.00031   0.00191  -0.02907  -0.02715  -3.04342
    D6       -1.04906  -0.00026   0.00253  -0.02907  -0.02654  -1.07559
    D7       -1.18095   0.00059   0.00397  -0.02423  -0.02027  -1.20122
    D8        1.17989  -0.00036   0.00194  -0.02968  -0.02773   1.15216
    D9       -3.13608  -0.00031   0.00256  -0.02967  -0.02712   3.11998
   D10        2.03021  -0.00074   0.00320  -0.04499  -0.04178   1.98843
   D11        0.07669  -0.00024   0.00513  -0.04671  -0.04165   0.03504
   D12       -2.30611  -0.00203   0.00120  -0.04853  -0.04728  -2.35339
         Item               Value     Threshold  Converged?
 Maximum Force            0.005699     0.000450     NO 
 RMS     Force            0.001708     0.000300     NO 
 Maximum Displacement     0.042347     0.001800     NO 
 RMS     Displacement     0.017231     0.001200     NO 
 Predicted change in Energy=-1.643367D-04
 GradGradGradGradGradGradGradGradGradGradGradGradGradGradGradGradGradGrad

                          Input orientation:                          
 ---------------------------------------------------------------------
 Center     Atomic      Atomic             Coordinates (Angstroms)
 Number     Number       Type             X           Y           Z
 ---------------------------------------------------------------------
      1          6           0       -1.043858   -0.183614   -0.296905
      2          9           0       -1.100593    0.044799   -1.589372
      3          9           0       -1.601600    0.812692    0.358598
      4          9           0       -1.660821   -1.308631   -0.009784
      5         16           0        0.708956   -0.340786    0.221090
      6          8           0        0.742610   -0.379199    1.644413
      7          8           0        1.299179   -1.332031   -0.600326
      8          8           0        1.205442    1.085854   -0.254825
      9          1           0        1.450687    1.600914    0.527113
 ---------------------------------------------------------------------
                    Distance matrix (angstroms):
                    1          2          3          4          5
     1  C    0.000000
     2  F    1.313721   0.000000
     3  F    1.316582   2.152965   0.000000
     4  F    1.314817   2.154235   2.153886   0.000000
     5  S    1.834497   2.588612   2.586134   2.570189   0.000000
     6  O    2.645456   3.746269   2.927327   3.062138   1.424239
     7  O    2.626927   2.938159   3.732813   3.018424   1.416211
     8  O    2.583151   2.860526   2.886241   3.742869   1.583759
     9  H    3.175894   3.661971   3.156921   4.293622   2.100955
                    6          7          8          9
     6  O    0.000000
     7  O    2.501301   0.000000
     8  O    2.442887   2.444244   0.000000
     9  H    2.381297   3.145828   0.967914   0.000000
 Symmetry turned off by external request.
 Stoichiometry    CHF3O3S
 Framework group  C1[X(CHF3O3S)]
 Deg. of freedom    21
 Full point group                 C1      NOp   1
 Rotational constants (GHZ):           2.6747154           1.6071610           1.5923600
 Standard basis: 6-31G(2df,p) (6D, 7F)
   233 basis functions,   383 primitive gaussians,   257 cartesian basis functions
    37 alpha electrons       37 beta electrons
       nuclear repulsion energy       574.2284497404 Hartrees.
 NAtoms=    9 NActive=    9 NUniq=    9 SFac= 1.00D+00 NAtFMM=   60 NAOKFM=F Big=F
 Integral buffers will be    131072 words long.
 Raffenetti 2 integral format.
 Two-electron integral symmetry is turned off.
 One-electron integrals computed using PRISM.
 NBasis=   233 RedAO= T EigKep=  1.48D-03  NBF=   233
 NBsUse=   233 1.00D-06 EigRej= -1.00D+00 NBFU=   233
 Initial guess from the checkpoint file:  "gaussian_jobs/CF3SO3H.chk"
 B after Tr=     0.003852   -0.003159    0.004381
         Rot=    0.999999   -0.001374    0.000390    0.000852 Ang=  -0.19 deg.
 ExpMin= 1.17D-01 ExpMax= 2.19D+04 ExpMxC= 3.30D+03 IAcc=3 IRadAn=         5 AccDes= 0.00D+00
 Harris functional with IExCor= 1009 and IRadAn=       5 diagonalized for initial guess.
 HarFok:  IExCor= 1009 AccDes= 0.00D+00 IRadAn=         5 IDoV= 1 UseB2=F ITyADJ=14
 ICtDFT=  3500011 ScaDFX=  1.000000  1.000000  1.000000  1.000000
 FoFCou: FMM=F IPFlag=           0 FMFlag=      100000 FMFlg1=           0
         NFxFlg=           0 DoJE=T BraDBF=F KetDBF=T FulRan=T
         wScrn=  0.000000 ICntrl=       500 IOpCl=  0 I1Cent=   200000004 NGrid=           0
         NMat0=    1 NMatS0=      1 NMatT0=    0 NMatD0=    1 NMtDS0=    0 NMtDT0=    0
 Symmetry not used in FoFCou.
 Requested convergence on RMS density matrix=1.00D-08 within  32 cycles.
 Requested convergence on MAX density matrix=1.00D-06.
 Requested convergence on             energy=1.00D-06.
 No special actions if energy rises.
 Integral accuracy reduced to 1.0D-05 until final iterations.
 Initial convergence to 1.0D-05 achieved.  Increase integral accuracy.
 SCF Done:  E(RM062X) =  -961.861185015     A.U. after   10 cycles
            NFock= 10  Conv=0.88D-08     -V/T= 2.0037
 QCSCF skips out because SCF is already converged.
 Calling FoFJK, ICntrl=      2127 FMM=F ISym2X=0 I1Cent= 0 IOpClX= 0 NMat=1 NMatS=1 NMatT=0.
 -------------------------------------------------------------------
 Center     Atomic                   Forces (Hartrees/Bohr)
 Number     Number              X              Y              Z
 -------------------------------------------------------------------
      1        6           0.001389217   -0.000308690    0.000700960
      2        9          -0.000203033    0.000093010   -0.000987187
      3        9          -0.000441595    0.000786812    0.000410350
      4        9          -0.000378728   -0.000604359    0.000090990
      5       16          -0.000387926    0.001613440    0.000490358
      6        8           0.000047174   -0.000151183    0.000508196
      7        8          -0.000068237   -0.000167766   -0.001149818
      8        8           0.001521336   -0.001723666   -0.000105145
      9        1          -0.001478207    0.000462402    0.000041297
 -------------------------------------------------------------------
 Cartesian Forces:  Max     0.001723666 RMS     0.000802079

 GradGradGradGradGradGradGradGradGradGradGradGradGradGradGradGradGradGrad
 Berny optimization.
 Using GEDIIS/GDIIS optimizer.
 FormGI is forming the generalized inverse of G from B-inverse, IUseBI=4.
 Internal  Forces:  Max     0.001181896 RMS     0.000497818
 Search for a local minimum.
 Step number   4 out of a maximum of  100
 All quantities printed in internal units (Hartrees-Bohrs-Radians)
 Mixed Optimization -- En-DIIS/RFO-DIIS
 Update second derivatives using D2CorX and points    1    2    3    4
 DE= -2.32D-04 DEPred=-1.64D-04 R= 1.41D+00
 TightC=F SS=  1.41D+00  RLast= 1.09D-01 DXNew= 8.4853D-01 3.2812D-01
 Trust test= 1.41D+00 RLast= 1.09D-01 DXMaxT set to 5.05D-01
 ITU=  1  1  1  0
 Use linear search instead of GDIIS.
     Eigenvalues ---    0.00252   0.00887   0.08890   0.09077   0.09487
     Eigenvalues ---    0.10620   0.16019   0.19803   0.19990   0.23524
     Eigenvalues ---    0.24265   0.24996   0.25017   0.31420   0.43513
     Eigenvalues ---    0.50961   0.51862   0.52325   0.60438   0.92129
     Eigenvalues ---    0.95605
 RFO step:  Lambda=-2.27924738D-04 EMin= 2.52432082D-03
 Quartic linear search produced a step of  0.72901.
 Iteration  1 RMS(Cart)=  0.02330185 RMS(Int)=  0.00146604
 Iteration  2 RMS(Cart)=  0.00134610 RMS(Int)=  0.00001315
 Iteration  3 RMS(Cart)=  0.00000310 RMS(Int)=  0.00001298
 Iteration  4 RMS(Cart)=  0.00000000 RMS(Int)=  0.00001298
 Variable       Old X    -DE/DX   Delta X   Delta X   Delta X     New X
                                 (Linear)    (Quad)   (Total)
    R1        2.48257   0.00099   0.00515  -0.00032   0.00483   2.48741
    R2        2.48798   0.00099   0.00456   0.00000   0.00456   2.49254
    R3        2.48464   0.00072   0.00605  -0.00108   0.00498   2.48962
    R4        3.46670  -0.00041   0.00609  -0.00343   0.00266   3.46935
    R5        2.69142   0.00051  -0.00113  -0.00150  -0.00262   2.68880
    R6        2.67625   0.00076  -0.00106  -0.00116  -0.00222   2.67403
    R7        2.99287  -0.00110  -0.00337  -0.00725  -0.01061   2.98226
    R8        1.82909  -0.00010  -0.00014  -0.00073  -0.00087   1.82822
    A1        1.91767  -0.00013  -0.00150  -0.00084  -0.00234   1.91533
    A2        1.92127  -0.00018   0.00009  -0.00180  -0.00171   1.91957
    A3        1.91129   0.00025   0.00066   0.00175   0.00241   1.91370
    A4        1.91770  -0.00003  -0.00005  -0.00024  -0.00029   1.91741
    A5        1.90606   0.00004   0.00081   0.00169   0.00250   1.90855
    A6        1.88954   0.00005   0.00003  -0.00051  -0.00049   1.88906
    A7        1.88291  -0.00024  -0.00253   0.00083  -0.00174   1.88117
    A8        1.86962  -0.00032  -0.00525  -0.00175  -0.00700   1.86262
    A9        1.70874   0.00018   0.00387   0.00398   0.00785   1.71659
   A10        2.15425   0.00043   0.00042   0.00519   0.00558   2.15983
   A11        1.89356   0.00025   0.00379   0.00013   0.00392   1.89749
   A12        1.90239  -0.00036   0.00035  -0.00837  -0.00800   1.89439
   A13        1.89232  -0.00004   0.00731   0.00429   0.01160   1.90392
    D1        2.98700   0.00011  -0.01529   0.01610   0.00080   2.98780
    D2       -0.94280   0.00023  -0.02073   0.02211   0.00140  -0.94141
    D3        1.02502  -0.00017  -0.02028   0.01411  -0.00617   1.01884
    D4        0.88639   0.00008  -0.01435   0.01502   0.00066   0.88704
    D5       -3.04342   0.00021  -0.01979   0.02103   0.00125  -3.04216
    D6       -1.07559  -0.00020  -0.01935   0.01303  -0.00632  -1.08191
    D7       -1.20122   0.00006  -0.01478   0.01464  -0.00015  -1.20137
    D8        1.15216   0.00019  -0.02022   0.02065   0.00045   1.15261
    D9        3.11998  -0.00021  -0.01977   0.01265  -0.00712   3.11286
   D10        1.98843  -0.00081  -0.03046  -0.07338  -0.10381   1.88462
   D11        0.03504  -0.00069  -0.03036  -0.07597  -0.10635  -0.07130
   D12       -2.35339  -0.00118  -0.03447  -0.07597  -0.11045  -2.46384
         Item               Value     Threshold  Converged?
 Maximum Force            0.001182     0.000450     NO 
 RMS     Force            0.000498     0.000300     NO 
 Maximum Displacement     0.100922     0.001800     NO 
 RMS     Displacement     0.023400     0.001200     NO 
 Predicted change in Energy=-1.619832D-04
 GradGradGradGradGradGradGradGradGradGradGradGradGradGradGradGradGradGrad

                          Input orientation:                          
 ---------------------------------------------------------------------
 Center     Atomic      Atomic             Coordinates (Angstroms)
 Number     Number       Type             X           Y           Z
 ---------------------------------------------------------------------
      1          6           0       -1.036995   -0.179511   -0.294242
      2          9           0       -1.096451    0.051172   -1.588783
      3          9           0       -1.592806    0.820294    0.362428
      4          9           0       -1.660398   -1.304350   -0.008266
      5         16           0        0.716555   -0.347000    0.223012
      6          8           0        0.748180   -0.387975    1.644922
      7          8           0        1.292230   -1.339595   -0.605048
      8          8           0        1.232405    1.065939   -0.254524
      9          1           0        1.397281    1.621023    0.520502
 ---------------------------------------------------------------------
                    Distance matrix (angstroms):
                    1          2          3          4          5
     1  C    0.000000
     2  F    1.316278   0.000000
     3  F    1.318997   2.155259   0.000000
     4  F    1.317450   2.157200   2.157798   0.000000
     5  S    1.835903   2.593864   2.591363   2.572919   0.000000
     6  O    2.643986   3.748648   2.930003   3.061702   1.422852
     7  O    2.620626   2.933899   3.731563   3.012541   1.415037
     8  O    2.588996   2.869420   2.902205   3.747963   1.578144
     9  H    3.135512   3.623840   3.099481   4.264599   2.103570
                    6          7          8          9
     6  O    0.000000
     7  O    2.502785   0.000000
     8  O    2.440539   2.431674   0.000000
     9  H    2.392013   3.169094   0.967454   0.000000
 Symmetry turned off by external request.
 Stoichiometry    CHF3O3S
 Framework group  C1[X(CHF3O3S)]
 Deg. of freedom    21
 Full point group                 C1      NOp   1
 Rotational constants (GHZ):           2.6741494           1.6047596           1.5910697
 Standard basis: 6-31G(2df,p) (6D, 7F)
   233 basis functions,   383 primitive gaussians,   257 cartesian basis functions
    37 alpha electrons       37 beta electrons
       nuclear repulsion energy       574.1121192081 Hartrees.
 NAtoms=    9 NActive=    9 NUniq=    9 SFac= 1.00D+00 NAtFMM=   60 NAOKFM=F Big=F
 Integral buffers will be    131072 words long.
 Raffenetti 2 integral format.
 Two-electron integral symmetry is turned off.
 One-electron integrals computed using PRISM.
 NBasis=   233 RedAO= T EigKep=  1.48D-03  NBF=   233
 NBsUse=   233 1.00D-06 EigRej= -1.00D+00 NBFU=   233
 Initial guess from the checkpoint file:  "gaussian_jobs/CF3SO3H.chk"
 B after Tr=     0.013327   -0.005718    0.001714
         Rot=    0.999995   -0.000399   -0.000463    0.003045 Ang=  -0.36 deg.
 ExpMin= 1.17D-01 ExpMax= 2.19D+04 ExpMxC= 3.30D+03 IAcc=3 IRadAn=         5 AccDes= 0.00D+00
 Harris functional with IExCor= 1009 and IRadAn=       5 diagonalized for initial guess.
 HarFok:  IExCor= 1009 AccDes= 0.00D+00 IRadAn=         5 IDoV= 1 UseB2=F ITyADJ=14
 ICtDFT=  3500011 ScaDFX=  1.000000  1.000000  1.000000  1.000000
 FoFCou: FMM=F IPFlag=           0 FMFlag=      100000 FMFlg1=           0
         NFxFlg=           0 DoJE=T BraDBF=F KetDBF=T FulRan=T
         wScrn=  0.000000 ICntrl=       500 IOpCl=  0 I1Cent=   200000004 NGrid=           0
         NMat0=    1 NMatS0=      1 NMatT0=    0 NMatD0=    1 NMtDS0=    0 NMtDT0=    0
 Symmetry not used in FoFCou.
 Requested convergence on RMS density matrix=1.00D-08 within  32 cycles.
 Requested convergence on MAX density matrix=1.00D-06.
 Requested convergence on             energy=1.00D-06.
 No special actions if energy rises.
 Integral accuracy reduced to 1.0D-05 until final iterations.
 Initial convergence to 1.0D-05 achieved.  Increase integral accuracy.
 SCF Done:  E(RM062X) =  -961.861420183     A.U. after   11 cycles
            NFock= 11  Conv=0.79D-08     -V/T= 2.0037
 QCSCF skips out because SCF is already converged.
 Calling FoFJK, ICntrl=      2127 FMM=F ISym2X=0 I1Cent= 0 IOpClX= 0 NMat=1 NMatS=1 NMatT=0.
 -------------------------------------------------------------------
 Center     Atomic                   Forces (Hartrees/Bohr)
 Number     Number              X              Y              Z
 -------------------------------------------------------------------
      1        6          -0.000265013   -0.000888240   -0.000021094
      2        9           0.000202366   -0.000367301    0.001626430
      3        9           0.000560383   -0.000624503   -0.000377384
      4        9           0.000696767    0.001742738   -0.000345490
      5       16          -0.003151462    0.000204850   -0.000384003
      6        8           0.000041573   -0.000193710    0.001788524
      7        8           0.001060637   -0.001236228   -0.001415573
      8        8           0.002014610    0.001225373   -0.001296219
      9        1          -0.001159862    0.000137021    0.000424809
 -------------------------------------------------------------------
 Cartesian Forces:  Max     0.003151462 RMS     0.001138068

 GradGradGradGradGradGradGradGradGradGradGradGradGradGradGradGradGradGrad
 Berny optimization.
 Using GEDIIS/GDIIS optimizer.
 FormGI is forming the generalized inverse of G from B-inverse, IUseBI=4.
 Internal  Forces:  Max     0.002128445 RMS     0.000845523
 Search for a local minimum.
 Step number   5 out of a maximum of  100
 All quantities printed in internal units (Hartrees-Bohrs-Radians)
 Mixed Optimization -- En-DIIS/RFO-DIIS
 Swapping is turned off.
 Update second derivatives using D2CorX and points    1    2    3    4    5
 DE= -2.35D-04 DEPred=-1.62D-04 R= 1.45D+00
 TightC=F SS=  1.41D+00  RLast= 1.87D-01 DXNew= 8.4853D-01 5.6124D-01
 Trust test= 1.45D+00 RLast= 1.87D-01 DXMaxT set to 5.61D-01
 ITU=  1  1  1  1  0
     Eigenvalues ---    0.00264   0.00388   0.08871   0.09073   0.09563
     Eigenvalues ---    0.10700   0.16604   0.19909   0.20243   0.23646
     Eigenvalues ---    0.24713   0.25031   0.25483   0.31777   0.46114
     Eigenvalues ---    0.50938   0.51860   0.52438   0.64929   0.95510
     Eigenvalues ---    1.09900
 En-DIIS/RFO-DIIS/Sim-DIIS IScMMF=       -3 using points:     5    4
 RFO step:  Lambda=-2.41111674D-04.
 DidBck=F Rises=F RFO-DIIS coefs:    2.25944   -1.25944
 Iteration  1 RMS(Cart)=  0.03228918 RMS(Int)=  0.00237359
 Iteration  2 RMS(Cart)=  0.00215753 RMS(Int)=  0.00001860
 Iteration  3 RMS(Cart)=  0.00000773 RMS(Int)=  0.00001786
 Iteration  4 RMS(Cart)=  0.00000000 RMS(Int)=  0.00001786
 Variable       Old X    -DE/DX   Delta X   Delta X   Delta X     New X
                                 (Linear)    (Quad)   (Total)
    R1        2.48741  -0.00168   0.00609  -0.00573   0.00036   2.48776
    R2        2.49254  -0.00090   0.00575  -0.00368   0.00206   2.49461
    R3        2.48962  -0.00189   0.00627  -0.00516   0.00111   2.49073
    R4        3.46935  -0.00140   0.00335  -0.00462  -0.00128   3.46808
    R5        2.68880   0.00179  -0.00330   0.00151  -0.00180   2.68700
    R6        2.67403   0.00213  -0.00279   0.00164  -0.00116   2.67287
    R7        2.98226   0.00177  -0.01336   0.00766  -0.00571   2.97655
    R8        1.82822   0.00022  -0.00110   0.00078  -0.00032   1.82791
    A1        1.91533   0.00022  -0.00295   0.00076  -0.00220   1.91313
    A2        1.91957  -0.00002  -0.00215   0.00251   0.00036   1.91992
    A3        1.91370  -0.00020   0.00303  -0.00258   0.00045   1.91415
    A4        1.91741  -0.00004  -0.00037  -0.00015  -0.00051   1.91690
    A5        1.90855  -0.00041   0.00314  -0.00333  -0.00019   1.90836
    A6        1.88906   0.00044  -0.00061   0.00277   0.00216   1.89121
    A7        1.88117  -0.00047  -0.00219  -0.00364  -0.00588   1.87529
    A8        1.86262   0.00062  -0.00882   0.00575  -0.00305   1.85957
    A9        1.71659   0.00007   0.00989   0.00162   0.01152   1.72811
   A10        2.15983   0.00001   0.00702  -0.00324   0.00376   2.16359
   A11        1.89749   0.00012   0.00494  -0.00107   0.00389   1.90138
   A12        1.89439  -0.00032  -0.01007   0.00174  -0.00830   1.88610
   A13        1.90392  -0.00087   0.01461  -0.00495   0.00966   1.91358
    D1        2.98780  -0.00004   0.00101   0.01596   0.01696   3.00476
    D2       -0.94141   0.00008   0.00176   0.01340   0.01517  -0.92623
    D3        1.01884  -0.00006  -0.00778   0.01753   0.00975   1.02860
    D4        0.88704   0.00006   0.00083   0.01868   0.01950   0.90654
    D5       -3.04216   0.00019   0.00158   0.01612   0.01772  -3.02445
    D6       -1.08191   0.00004  -0.00796   0.02025   0.01230  -1.06962
    D7       -1.20137   0.00008  -0.00018   0.01915   0.01895  -1.18242
    D8        1.15261   0.00021   0.00056   0.01659   0.01717   1.16978
    D9        3.11286   0.00006  -0.00897   0.02072   0.01175   3.12461
   D10        1.88462  -0.00100  -0.13074  -0.00576  -0.13645   1.74817
   D11       -0.07130  -0.00055  -0.13394  -0.00214  -0.13612  -0.20742
   D12       -2.46384  -0.00038  -0.13910   0.00169  -0.13744  -2.60127
         Item               Value     Threshold  Converged?
 Maximum Force            0.002128     0.000450     NO 
 RMS     Force            0.000846     0.000300     NO 
 Maximum Displacement     0.139944     0.001800     NO 
 RMS     Displacement     0.032159     0.001200     NO 
 Predicted change in Energy=-1.271977D-04
 GradGradGradGradGradGradGradGradGradGradGradGradGradGradGradGradGradGrad

                          Input orientation:                          
 ---------------------------------------------------------------------
 Center     Atomic      Atomic             Coordinates (Angstroms)
 Number     Number       Type             X           Y           Z
 ---------------------------------------------------------------------
      1          6           0       -1.027944   -0.175428   -0.290869
      2          9           0       -1.090339    0.047322   -1.586854
      3          9           0       -1.571623    0.836604    0.359390
      4          9           0       -1.663926   -1.291054    0.005993
      5         16           0        0.725119   -0.355596    0.221348
      6          8           0        0.750766   -0.409564    1.641993
      7          8           0        1.290203   -1.344484   -0.617328
      8          8           0        1.264519    1.048296   -0.246787
      9          1           0        1.323226    1.643902    0.513114
 ---------------------------------------------------------------------
                    Distance matrix (angstroms):
                    1          2          3          4          5
     1  C    0.000000
     2  F    1.316468   0.000000
     3  F    1.320088   2.154638   0.000000
     4  F    1.318037   2.158105   2.158782   0.000000
     5  S    1.835227   2.593805   2.591413   2.574684   0.000000
     6  O    2.637155   3.744845   2.931126   3.047009   1.421901
     7  O    2.616691   2.923026   3.728428   3.019647   1.414424
     8  O    2.599006   2.888439   2.907915   3.756628   1.575124
     9  H    3.079668   3.575503   3.009238   4.218320   2.107333
                    6          7          8          9
     6  O    0.000000
     7  O    2.503917   0.000000
     8  O    2.440654   2.421437   0.000000
     9  H    2.412219   3.195221   0.967286   0.000000
 Symmetry turned off by external request.
 Stoichiometry    CHF3O3S
 Framework group  C1[X(CHF3O3S)]
 Deg. of freedom    21
 Full point group                 C1      NOp   1
 Rotational constants (GHZ):           2.6747942           1.6046316           1.5923018
 Standard basis: 6-31G(2df,p) (6D, 7F)
   233 basis functions,   383 primitive gaussians,   257 cartesian basis functions
    37 alpha electrons       37 beta electrons
       nuclear repulsion energy       574.2664705028 Hartrees.
 NAtoms=    9 NActive=    9 NUniq=    9 SFac= 1.00D+00 NAtFMM=   60 NAOKFM=F Big=F
 Integral buffers will be    131072 words long.
 Raffenetti 2 integral format.
 Two-electron integral symmetry is turned off.
 One-electron integrals computed using PRISM.
 NBasis=   233 RedAO= T EigKep=  1.48D-03  NBF=   233
 NBsUse=   233 1.00D-06 EigRej= -1.00D+00 NBFU=   233
 Initial guess from the checkpoint file:  "gaussian_jobs/CF3SO3H.chk"
 B after Tr=     0.018265   -0.006782    0.000995
         Rot=    0.999991   -0.000164   -0.000821    0.004183 Ang=  -0.49 deg.
 ExpMin= 1.17D-01 ExpMax= 2.19D+04 ExpMxC= 3.30D+03 IAcc=3 IRadAn=         5 AccDes= 0.00D+00
 Harris functional with IExCor= 1009 and IRadAn=       5 diagonalized for initial guess.
 HarFok:  IExCor= 1009 AccDes= 0.00D+00 IRadAn=         5 IDoV= 1 UseB2=F ITyADJ=14
 ICtDFT=  3500011 ScaDFX=  1.000000  1.000000  1.000000  1.000000
 FoFCou: FMM=F IPFlag=           0 FMFlag=      100000 FMFlg1=           0
         NFxFlg=           0 DoJE=T BraDBF=F KetDBF=T FulRan=T
         wScrn=  0.000000 ICntrl=       500 IOpCl=  0 I1Cent=   200000004 NGrid=           0
         NMat0=    1 NMatS0=      1 NMatT0=    0 NMatD0=    1 NMtDS0=    0 NMtDT0=    0
 Symmetry not used in FoFCou.
 Requested convergence on RMS density matrix=1.00D-08 within  32 cycles.
 Requested convergence on MAX density matrix=1.00D-06.
 Requested convergence on             energy=1.00D-06.
 No special actions if energy rises.
 Integral accuracy reduced to 1.0D-05 until final iterations.
 Initial convergence to 1.0D-05 achieved.  Increase integral accuracy.
 SCF Done:  E(RM062X) =  -961.861581307     A.U. after   11 cycles
            NFock= 11  Conv=0.99D-08     -V/T= 2.0037
 QCSCF skips out because SCF is already converged.
 Calling FoFJK, ICntrl=      2127 FMM=F ISym2X=0 I1Cent= 0 IOpClX= 0 NMat=1 NMatS=1 NMatT=0.
 -------------------------------------------------------------------
 Center     Atomic                   Forces (Hartrees/Bohr)
 Number     Number              X              Y              Z
 -------------------------------------------------------------------
      1        6          -0.000752784   -0.000854898   -0.000381425
      2        9           0.000139688   -0.000549282    0.001744920
      3        9           0.000644047   -0.000631747   -0.000197475
      4        9           0.001174077    0.002391502   -0.000536753
      5       16          -0.003982473   -0.001139952   -0.000067039
      6        8           0.000057227   -0.000120296    0.002512481
      7        8           0.001795418   -0.001500067   -0.001553396
      8        8           0.001656828    0.002686455   -0.002257794
      9        1          -0.000732027   -0.000281714    0.000736480
 -------------------------------------------------------------------
 Cartesian Forces:  Max     0.003982473 RMS     0.001498719

 GradGradGradGradGradGradGradGradGradGradGradGradGradGradGradGradGradGrad
 Berny optimization.
 Using GEDIIS/GDIIS optimizer.
 FormGI is forming the generalized inverse of G from B-inverse, IUseBI=4.
 Internal  Forces:  Max     0.002918005 RMS     0.001138949
 Search for a local minimum.
 Step number   6 out of a maximum of  100
 All quantities printed in internal units (Hartrees-Bohrs-Radians)
 Mixed Optimization -- RFO/linear search
 Update second derivatives using D2CorX and points    2    3    4    5    6
 DE= -1.61D-04 DEPred=-1.27D-04 R= 1.27D+00
 TightC=F SS=  1.41D+00  RLast= 2.42D-01 DXNew= 9.4390D-01 7.2689D-01
 Trust test= 1.27D+00 RLast= 2.42D-01 DXMaxT set to 7.27D-01
 ITU=  1  1  1  1  1  0
 Use linear search instead of GDIIS.
     Eigenvalues ---    0.00232   0.00341   0.08870   0.09056   0.09646
     Eigenvalues ---    0.10653   0.16924   0.19836   0.20698   0.23566
     Eigenvalues ---    0.24841   0.25139   0.25554   0.31983   0.46342
     Eigenvalues ---    0.50937   0.51902   0.52502   0.69170   0.95547
     Eigenvalues ---    1.13408
 RFO step:  Lambda=-7.93706707D-05 EMin= 2.32353277D-03
 Quartic linear search produced a step of  0.37464.
 Iteration  1 RMS(Cart)=  0.02226513 RMS(Int)=  0.00066562
 Iteration  2 RMS(Cart)=  0.00059051 RMS(Int)=  0.00000476
 Iteration  3 RMS(Cart)=  0.00000048 RMS(Int)=  0.00000475
 Variable       Old X    -DE/DX   Delta X   Delta X   Delta X     New X
                                 (Linear)    (Quad)   (Total)
    R1        2.48776  -0.00182   0.00013  -0.00053  -0.00040   2.48736
    R2        2.49461  -0.00084   0.00077   0.00075   0.00152   2.49613
    R3        2.49073  -0.00271   0.00042  -0.00179  -0.00138   2.48935
    R4        3.46808  -0.00129  -0.00048  -0.00109  -0.00157   3.46651
    R5        2.68700   0.00251  -0.00067   0.00142   0.00075   2.68776
    R6        2.67287   0.00269  -0.00043   0.00149   0.00105   2.67393
    R7        2.97655   0.00292  -0.00214   0.00366   0.00152   2.97807
    R8        1.82791   0.00036  -0.00012   0.00051   0.00039   1.82830
    A1        1.91313   0.00038  -0.00082   0.00104   0.00022   1.91334
    A2        1.91992  -0.00008   0.00013   0.00001   0.00014   1.92006
    A3        1.91415   0.00000   0.00017   0.00092   0.00109   1.91523
    A4        1.91690   0.00008  -0.00019  -0.00025  -0.00044   1.91645
    A5        1.90836  -0.00068  -0.00007  -0.00212  -0.00219   1.90617
    A6        1.89121   0.00030   0.00081   0.00038   0.00119   1.89240
    A7        1.87529  -0.00025  -0.00220  -0.00128  -0.00349   1.87180
    A8        1.85957   0.00138  -0.00114   0.00487   0.00373   1.86330
    A9        1.72811  -0.00089   0.00432  -0.00265   0.00168   1.72979
   A10        2.16359  -0.00026   0.00141   0.00056   0.00196   2.16555
   A11        1.90138   0.00024   0.00146   0.00069   0.00216   1.90354
   A12        1.88610  -0.00034  -0.00311  -0.00281  -0.00591   1.88018
   A13        1.91358  -0.00162   0.00362  -0.00518  -0.00156   1.91202
    D1        3.00476  -0.00016   0.00635   0.01520   0.02155   3.02631
    D2       -0.92623   0.00034   0.00569   0.01857   0.02425  -0.90198
    D3        1.02860   0.00002   0.00365   0.01593   0.01958   1.04818
    D4        0.90654  -0.00020   0.00731   0.01467   0.02197   0.92852
    D5       -3.02445   0.00030   0.00664   0.01804   0.02468  -2.99977
    D6       -1.06962  -0.00002   0.00461   0.01540   0.02001  -1.04961
    D7       -1.18242  -0.00007   0.00710   0.01599   0.02308  -1.15933
    D8        1.16978   0.00042   0.00643   0.01935   0.02579   1.19557
    D9        3.12461   0.00011   0.00440   0.01671   0.02112  -3.13745
   D10        1.74817  -0.00082  -0.05112  -0.02170  -0.07280   1.67537
   D11       -0.20742  -0.00023  -0.05100  -0.01935  -0.07035  -0.27778
   D12       -2.60127   0.00022  -0.05149  -0.01829  -0.06978  -2.67106
         Item               Value     Threshold  Converged?
 Maximum Force            0.002918     0.000450     NO 
 RMS     Force            0.001139     0.000300     NO 
 Maximum Displacement     0.088847     0.001800     NO 
 RMS     Displacement     0.022192     0.001200     NO 
 Predicted change in Energy=-5.254584D-05
 GradGradGradGradGradGradGradGradGradGradGradGradGradGradGradGradGradGrad

                          Input orientation:                          
 ---------------------------------------------------------------------
 Center     Atomic      Atomic             Coordinates (Angstroms)
 Number     Number       Type             X           Y           Z
 ---------------------------------------------------------------------
      1          6           0       -1.022261   -0.172506   -0.289700
      2          9           0       -1.088184    0.035554   -1.587736
      3          9           0       -1.552353    0.853428    0.351568
      4          9           0       -1.668732   -1.276788    0.023248
      5         16           0        0.729931   -0.362434    0.218980
      6          8           0        0.751820   -0.428509    1.639575
      7          8           0        1.297024   -1.342885   -0.629134
      8          8           0        1.276544    1.042773   -0.239452
      9          1           0        1.276210    1.651365    0.512650
 ---------------------------------------------------------------------
                    Distance matrix (angstroms):
                    1          2          3          4          5
     1  C    0.000000
     2  F    1.316257   0.000000
     3  F    1.320895   2.155289   0.000000
     4  F    1.317307   2.157440   2.158508   0.000000
     5  S    1.834396   2.593870   2.589347   2.574478   0.000000
     6  O    2.633440   3.743862   2.934542   3.031693   1.422299
     7  O    2.619940   2.916887   3.728876   3.037380   1.414982
     8  O    2.600757   2.902464   2.896173   3.758195   1.575929
     9  H    3.041915   3.551454   2.943369   4.181660   2.107143
                    6          7          8          9
     6  O    0.000000
     7  O    2.506066   0.000000
     8  O    2.443511   2.417361   0.000000
     9  H    2.422978   3.204628   0.967493   0.000000
 Symmetry turned off by external request.
 Stoichiometry    CHF3O3S
 Framework group  C1[X(CHF3O3S)]
 Deg. of freedom    21
 Full point group                 C1      NOp   1
 Rotational constants (GHZ):           2.6735193           1.6050051           1.5934070
 Standard basis: 6-31G(2df,p) (6D, 7F)
   233 basis functions,   383 primitive gaussians,   257 cartesian basis functions
    37 alpha electrons       37 beta electrons
       nuclear repulsion energy       574.2888759788 Hartrees.
 NAtoms=    9 NActive=    9 NUniq=    9 SFac= 1.00D+00 NAtFMM=   60 NAOKFM=F Big=F
 Integral buffers will be    131072 words long.
 Raffenetti 2 integral format.
 Two-electron integral symmetry is turned off.
 One-electron integrals computed using PRISM.
 NBasis=   233 RedAO= T EigKep=  1.48D-03  NBF=   233
 NBsUse=   233 1.00D-06 EigRej= -1.00D+00 NBFU=   233
 Initial guess from the checkpoint file:  "gaussian_jobs/CF3SO3H.chk"
 B after Tr=     0.011503   -0.003091   -0.000774
         Rot=    0.999996    0.000441   -0.000706    0.002575 Ang=   0.31 deg.
 ExpMin= 1.17D-01 ExpMax= 2.19D+04 ExpMxC= 3.30D+03 IAcc=3 IRadAn=         5 AccDes= 0.00D+00
 Harris functional with IExCor= 1009 and IRadAn=       5 diagonalized for initial guess.
 HarFok:  IExCor= 1009 AccDes= 0.00D+00 IRadAn=         5 IDoV= 1 UseB2=F ITyADJ=14
 ICtDFT=  3500011 ScaDFX=  1.000000  1.000000  1.000000  1.000000
 FoFCou: FMM=F IPFlag=           0 FMFlag=      100000 FMFlg1=           0
         NFxFlg=           0 DoJE=T BraDBF=F KetDBF=T FulRan=T
         wScrn=  0.000000 ICntrl=       500 IOpCl=  0 I1Cent=   200000004 NGrid=           0
         NMat0=    1 NMatS0=      1 NMatT0=    0 NMatD0=    1 NMtDS0=    0 NMtDT0=    0
 Symmetry not used in FoFCou.
 Requested convergence on RMS density matrix=1.00D-08 within  32 cycles.
 Requested convergence on MAX density matrix=1.00D-06.
 Requested convergence on             energy=1.00D-06.
 No special actions if energy rises.
 Integral accuracy reduced to 1.0D-05 until final iterations.
 Initial convergence to 1.0D-05 achieved.  Increase integral accuracy.
 SCF Done:  E(RM062X) =  -961.861655659     A.U. after   11 cycles
            NFock= 11  Conv=0.48D-08     -V/T= 2.0037
 QCSCF skips out because SCF is already converged.
 Calling FoFJK, ICntrl=      2127 FMM=F ISym2X=0 I1Cent= 0 IOpClX= 0 NMat=1 NMatS=1 NMatT=0.
 -------------------------------------------------------------------
 Center     Atomic                   Forces (Hartrees/Bohr)
 Number     Number              X              Y              Z
 -------------------------------------------------------------------
      1        6          -0.000864796   -0.000703009   -0.000519169
      2        9           0.000115703   -0.000371367    0.001762918
      3        9           0.000697464   -0.000650315   -0.000330352
      4        9           0.000892998    0.001892649   -0.000468148
      5       16          -0.002697049   -0.001183297   -0.000179064
      6        8          -0.000033600   -0.000105099    0.001563282
      7        8           0.001208386   -0.001040514   -0.000766363
      8        8           0.000979698    0.002403950   -0.001651232
      9        1          -0.000298804   -0.000242997    0.000588127
 -------------------------------------------------------------------
 Cartesian Forces:  Max     0.002697049 RMS     0.001132682

 GradGradGradGradGradGradGradGradGradGradGradGradGradGradGradGradGradGrad
 Berny optimization.
 Using GEDIIS/GDIIS optimizer.
 FormGI is forming the generalized inverse of G from B-inverse, IUseBI=4.
 Internal  Forces:  Max     0.002478964 RMS     0.000878984
 Search for a local minimum.
 Step number   7 out of a maximum of  100
 All quantities printed in internal units (Hartrees-Bohrs-Radians)
 Mixed Optimization -- En-DIIS/RFO-DIIS
 Update second derivatives using D2CorX and points    4    5    6    7
 DE= -7.44D-05 DEPred=-5.25D-05 R= 1.41D+00
 TightC=F SS=  1.41D+00  RLast= 1.41D-01 DXNew= 1.2225D+00 4.2198D-01
 Trust test= 1.41D+00 RLast= 1.41D-01 DXMaxT set to 7.27D-01
 ITU=  1  1  1  1  1  1  0
 Use linear search instead of GDIIS.
     Eigenvalues ---    0.00198   0.00450   0.08900   0.09037   0.09660
     Eigenvalues ---    0.10780   0.16417   0.19546   0.20242   0.23435
     Eigenvalues ---    0.24724   0.25007   0.25167   0.31547   0.44649
     Eigenvalues ---    0.50943   0.51861   0.52625   0.64080   0.94925
     Eigenvalues ---    0.95880
 RFO step:  Lambda=-4.33666706D-05 EMin= 1.98060820D-03
 Quartic linear search produced a step of  0.57246.
 Iteration  1 RMS(Cart)=  0.01648058 RMS(Int)=  0.00016259
 Iteration  2 RMS(Cart)=  0.00014964 RMS(Int)=  0.00000174
 Iteration  3 RMS(Cart)=  0.00000001 RMS(Int)=  0.00000174
 Variable       Old X    -DE/DX   Delta X   Delta X   Delta X     New X
                                 (Linear)    (Quad)   (Total)
    R1        2.48736  -0.00181  -0.00023  -0.00199  -0.00221   2.48515
    R2        2.49613  -0.00095   0.00087  -0.00099  -0.00012   2.49601
    R3        2.48935  -0.00213  -0.00079  -0.00184  -0.00263   2.48672
[...]
 Initial guess from the checkpoint file:  "gaussian_jobs/CF3SO3H.chk"
 B after Tr=    -0.000692    0.000228   -0.000150
         Rot=    1.000000    0.000017    0.000016   -0.000156 Ang=   0.02 deg.
 Requested convergence on RMS density matrix=1.00D-08 within  32 cycles.
 Requested convergence on MAX density matrix=1.00D-06.
 Requested convergence on             energy=1.00D-06.
 No special actions if energy rises.
 SCF Done:  E(RM062X) =  -961.861710832     A.U. after    7 cycles
            NFock=  7  Conv=0.86D-08     -V/T= 2.0037
 QCSCF skips out because SCF is already converged.
 Calling FoFJK, ICntrl=      2127 FMM=F ISym2X=0 I1Cent= 0 IOpClX= 0 NMat=1 NMatS=1 NMatT=0.
 -------------------------------------------------------------------
 Center     Atomic                   Forces (Hartrees/Bohr)
 Number     Number              X              Y              Z
 -------------------------------------------------------------------
      1        6          -0.000035971   -0.000000766   -0.000029742
      2        9           0.000018920   -0.000012877   -0.000062709
      3        9           0.000006698    0.000046610    0.000053274
      4        9           0.000020786    0.000007791    0.000015770
      5       16          -0.000013959   -0.000048430    0.000002584
      6        8           0.000005865    0.000022838   -0.000012595
      7        8          -0.000010819    0.000045823    0.000032914
      8        8          -0.000003334   -0.000050724    0.000002235
      9        1           0.000011813   -0.000010266   -0.000001731
 -------------------------------------------------------------------
 Cartesian Forces:  Max     0.000062709 RMS     0.000028435

 GradGradGradGradGradGradGradGradGradGradGradGradGradGradGradGradGradGrad
 Berny optimization.
 Using GEDIIS/GDIIS optimizer.
 FormGI is forming the generalized inverse of G from B-inverse, IUseBI=4.
 Internal  Forces:  Max     0.000057245 RMS     0.000027196
 Search for a local minimum.
 Step number  10 out of a maximum of  100
 All quantities printed in internal units (Hartrees-Bohrs-Radians)
 Mixed Optimization -- En-DIIS/RFO-DIIS
 Swapping is turned off.
 Update second derivatives using D2CorX and points    5    6    7    8    9
                                                     10
 DE= -3.23D-07 DEPred=-3.21D-07 R= 1.01D+00
 Trust test= 1.01D+00 RLast= 9.67D-03 DXMaxT set to 7.27D-01
 ITU=  0  1  1  1  1  1  1  1  1  0
     Eigenvalues ---    0.00197   0.00397   0.08146   0.09135   0.09796
     Eigenvalues ---    0.10747   0.14286   0.18116   0.21013   0.23372
     Eigenvalues ---    0.23631   0.25141   0.25242   0.31425   0.42945
     Eigenvalues ---    0.50852   0.51133   0.53718   0.59093   0.92247
     Eigenvalues ---    0.95273
 En-DIIS/RFO-DIIS/Sim-DIIS IScMMF=       -3 using points:    10    9    8    7
 RFO step:  Lambda=-8.29308764D-08.
 DidBck=F Rises=F RFO-DIIS coefs:    0.85718    0.20375   -0.10957    0.04865
 Iteration  1 RMS(Cart)=  0.00023402 RMS(Int)=  0.00000018
 Iteration  2 RMS(Cart)=  0.00000006 RMS(Int)=  0.00000017
 Variable       Old X    -DE/DX   Delta X   Delta X   Delta X     New X
                                 (Linear)    (Quad)   (Total)
    R1        2.48337   0.00006   0.00007  -0.00001   0.00006   2.48343
    R2        2.49576   0.00006   0.00001   0.00006   0.00007   2.49583
    R3        2.48481  -0.00001   0.00003  -0.00004  -0.00002   2.48479
    R4        3.46395  -0.00000   0.00003  -0.00003  -0.00000   3.46395
    R5        2.68993  -0.00002  -0.00002   0.00001  -0.00002   2.68991
    R6        2.67591  -0.00006  -0.00003  -0.00004  -0.00006   2.67585
    R7        2.98689  -0.00005  -0.00011   0.00004  -0.00006   2.98682
    R8        1.82924  -0.00000  -0.00002   0.00001  -0.00000   1.82924
    A1        1.91413   0.00005   0.00010   0.00013   0.00023   1.91437
    A2        1.92101   0.00003  -0.00000   0.00008   0.00007   1.92108
    A3        1.91676  -0.00001  -0.00002   0.00001  -0.00001   1.91675
    A4        1.91633   0.00003  -0.00001   0.00004   0.00003   1.91636
    A5        1.89888  -0.00005   0.00005  -0.00021  -0.00016   1.89872
    A6        1.89650  -0.00005  -0.00013  -0.00005  -0.00017   1.89633
    A7        1.86747   0.00001   0.00015  -0.00006   0.00008   1.86755
    A8        1.87334   0.00002  -0.00005   0.00014   0.00009   1.87344
    A9        1.72524   0.00000  -0.00005   0.00002  -0.00003   1.72521
   A10        2.16488   0.00000   0.00000   0.00006   0.00006   2.16494
   A11        1.90349  -0.00001  -0.00004  -0.00009  -0.00013   1.90336
   A12        1.87896  -0.00002  -0.00002  -0.00007  -0.00009   1.87886
   A13        1.90203  -0.00001   0.00004  -0.00011  -0.00006   1.90197
    D1        3.05577  -0.00000  -0.00015  -0.00012  -0.00027   3.05550
    D2       -0.86913   0.00002  -0.00007   0.00001  -0.00006  -0.86918
    D3        1.08085   0.00001  -0.00013  -0.00001  -0.00014   1.08070
    D4        0.96058  -0.00003  -0.00029  -0.00016  -0.00045   0.96013
    D5       -2.96431   0.00000  -0.00021  -0.00002  -0.00024  -2.96455
    D6       -1.01434  -0.00002  -0.00028  -0.00005  -0.00032  -1.01466
    D7       -1.12529  -0.00001  -0.00024  -0.00006  -0.00030  -1.12558
    D8        1.23300   0.00002  -0.00016   0.00008  -0.00008   1.23292
    D9       -3.10021   0.00000  -0.00022   0.00005  -0.00017  -3.10038
   D10        1.64971   0.00000   0.00081  -0.00010   0.00071   1.65042
   D11       -0.29668  -0.00001   0.00068  -0.00001   0.00067  -0.29601
   D12       -2.68797   0.00002   0.00073   0.00004   0.00077  -2.68720
         Item               Value     Threshold  Converged?
 Maximum Force            0.000057     0.000450     YES
 RMS     Force            0.000027     0.000300     YES
 Maximum Displacement     0.000740     0.001800     YES
 RMS     Displacement     0.000234     0.001200     YES
 Predicted change in Energy=-4.092651D-08
 Optimization completed.
    -- Stationary point found.
                           ----------------------------
                           !   Optimized Parameters   !
                           ! (Angstroms and Degrees)  !
 --------------------------                            --------------------------
 ! Name  Definition              Value          Derivative Info.                !
 --------------------------------------------------------------------------------
 ! R1    R(1,2)                  1.3141         -DE/DX =    0.0001              !
 ! R2    R(1,3)                  1.3207         -DE/DX =    0.0001              !
 ! R3    R(1,4)                  1.3149         -DE/DX =    0.0                 !
 ! R4    R(1,5)                  1.833          -DE/DX =    0.0                 !
 ! R5    R(5,6)                  1.4234         -DE/DX =    0.0                 !
 ! R6    R(5,7)                  1.416          -DE/DX =   -0.0001              !
 ! R7    R(5,8)                  1.5806         -DE/DX =    0.0                 !
 ! R8    R(8,9)                  0.968          -DE/DX =    0.0                 !
 ! A1    A(2,1,3)              109.6717         -DE/DX =    0.0                 !
 ! A2    A(2,1,4)              110.0656         -DE/DX =    0.0                 !
 ! A3    A(2,1,5)              109.8223         -DE/DX =    0.0                 !
 ! A4    A(3,1,4)              109.7977         -DE/DX =    0.0                 !
 ! A5    A(3,1,5)              108.7976         -DE/DX =    0.0                 !
 ! A6    A(4,1,5)              108.6616         -DE/DX =    0.0                 !
 ! A7    A(1,5,6)              106.9982         -DE/DX =    0.0                 !
 ! A8    A(1,5,7)              107.3347         -DE/DX =    0.0                 !
 ! A9    A(1,5,8)               98.8489         -DE/DX =    0.0                 !
 ! A10   A(6,5,7)              124.0385         -DE/DX =    0.0                 !
 ! A11   A(6,5,8)              109.0618         -DE/DX =    0.0                 !
 ! A12   A(7,5,8)              107.6563         -DE/DX =    0.0                 !
 ! A13   A(5,8,9)              108.9782         -DE/DX =    0.0                 !
 ! D1    D(2,1,5,6)            175.0827         -DE/DX =    0.0                 !
 ! D2    D(2,1,5,7)            -49.7972         -DE/DX =    0.0                 !
 ! D3    D(2,1,5,8)             61.9281         -DE/DX =    0.0                 !
 ! D4    D(3,1,5,6)             55.0372         -DE/DX =    0.0                 !
 ! D5    D(3,1,5,7)           -169.8427         -DE/DX =    0.0                 !
 ! D6    D(3,1,5,8)            -58.1173         -DE/DX =    0.0                 !
 ! D7    D(4,1,5,6)            -64.4741         -DE/DX =    0.0                 !
 ! D8    D(4,1,5,7)             70.646          -DE/DX =    0.0                 !
 ! D9    D(4,1,5,8)           -177.6287         -DE/DX =    0.0                 !
 ! D10   D(1,5,8,9)             94.5214         -DE/DX =    0.0                 !
 ! D11   D(6,5,8,9)            -16.9983         -DE/DX =    0.0                 !
 ! D12   D(7,5,8,9)           -154.0093         -DE/DX =    0.0                 !
 --------------------------------------------------------------------------------
 GradGradGradGradGradGradGradGradGradGradGradGradGradGradGradGradGradGrad

                          Input orientation:                          
 ---------------------------------------------------------------------
 Center     Atomic      Atomic             Coordinates (Angstroms)
 Number     Number       Type             X           Y           Z
 ---------------------------------------------------------------------
      1          6           0       -1.018960   -0.172486   -0.290986
      2          9           0       -1.091270    0.011598   -1.590161
      3          9           0       -1.527641    0.873165    0.335196
      4          9           0       -1.677933   -1.258639    0.048126
      5         16           0        0.732689   -0.367934    0.212583
      6          8           0        0.750802   -0.446825    1.633729
      7          8           0        1.311929   -1.336688   -0.642486
      8          8           0        1.273242    1.049037   -0.232687
      9          1           0        1.247144    1.648770    0.526687
 ---------------------------------------------------------------------
                    Distance matrix (angstroms):
                    1          2          3          4          5
     1  C    0.000000
     2  F    1.314143   0.000000
     3  F    1.320700   2.154001   0.000000
     4  F    1.314903   2.154451   2.156290   0.000000
     5  S    1.833045   2.592442   2.581560   2.575169   0.000000
     6  O    2.629040   3.741236   2.935961   3.011965   1.423450
     7  O    2.629061   2.913988   3.728602   3.069578   1.416032
     8  O    2.598020   2.917178   2.863280   3.756815   1.580592
     9  H    3.020065   3.553809   2.887502   4.151882   2.104857
                    6          7          8          9
     6  O    0.000000
     7  O    2.507564   0.000000
     8  O    2.448277   2.420974   0.000000
     9  H    2.421449   3.206887   0.967993   0.000000
 Symmetry turned off by external request.
 Stoichiometry    CHF3O3S
 Framework group  C1[X(CHF3O3S)]
 Deg. of freedom    21
 Full point group                 C1      NOp   1
 Rotational constants (GHZ):           2.6723405           1.6067973           1.5953717

 **********************************************************************

            Population analysis using the SCF Density.

 **********************************************************************

 Alpha  occ. eigenvalues --  -90.17652 -25.31852 -25.31651 -25.31616 -19.72540
 Alpha  occ. eigenvalues --  -19.66587 -19.66373 -10.83408  -8.48861  -6.41137
 Alpha  occ. eigenvalues --   -6.40918  -6.40859  -1.50493  -1.40983  -1.40922
 Alpha  occ. eigenvalues --   -1.31650  -1.20350  -1.17476  -0.87910  -0.79183
 Alpha  occ. eigenvalues --   -0.73470  -0.72559  -0.72137  -0.64115  -0.60995
 Alpha  occ. eigenvalues --   -0.59773  -0.58891  -0.57970  -0.56180  -0.56109
 Alpha  occ. eigenvalues --   -0.54340  -0.53861  -0.48707  -0.45820  -0.43972
 Alpha  occ. eigenvalues --   -0.41869  -0.40942
 Alpha virt. eigenvalues --    0.07223   0.09173   0.12427   0.13068   0.14884
 Alpha virt. eigenvalues --    0.23653   0.25581   0.27869   0.29464   0.31634
 Alpha virt. eigenvalues --    0.33279   0.36869   0.44022   0.45306   0.46761
 Alpha virt. eigenvalues --    0.50039   0.53233   0.61156   0.63887   0.66852
 Alpha virt. eigenvalues --    0.68464   0.70771   0.74023   0.76094   0.82918
 Alpha virt. eigenvalues --    0.84707   0.88067   0.88363   0.88943   0.91164
 Alpha virt. eigenvalues --    0.92929   0.93748   0.95078   0.96157   0.98067
 Alpha virt. eigenvalues --    0.98594   1.01214   1.01675   1.02170   1.03254
 Alpha virt. eigenvalues --    1.04426   1.05340   1.06619   1.10033   1.10382
 Alpha virt. eigenvalues --    1.12309   1.15445   1.17518   1.19059   1.20792
 Alpha virt. eigenvalues --    1.22088   1.23794   1.25444   1.26505   1.29843
 Alpha virt. eigenvalues --    1.34452   1.39531   1.39881   1.40672   1.42551
 Alpha virt. eigenvalues --    1.43204   1.44992   1.46666   1.49584   1.53214
 Alpha virt. eigenvalues --    1.54196   1.66353   1.66863   1.71910   1.74145
 Alpha virt. eigenvalues --    1.77352   1.82633   1.85394   1.89104   1.93741
 Alpha virt. eigenvalues --    1.96535   2.04314   2.05216   2.06429   2.10405
 Alpha virt. eigenvalues --    2.11678   2.13890   2.14201   2.24268   2.27028
 Alpha virt. eigenvalues --    2.34261   2.35347   2.39195   2.50364   2.60444
 Alpha virt. eigenvalues --    2.64213   2.66510   2.71234   2.73480   2.88923
 Alpha virt. eigenvalues --    2.96179   2.99054   3.14339   3.21253   3.24990
 Alpha virt. eigenvalues --    3.25995   3.32413   3.36164   3.56413   3.81426
 Alpha virt. eigenvalues --    3.83976   3.85313   4.02490   4.10482   4.13131
 Alpha virt. eigenvalues --    4.14119   4.15414   4.15946   4.18125   4.19562
 Alpha virt. eigenvalues --    4.20362   4.21468   4.21662   4.23691   4.24199
 Alpha virt. eigenvalues --    4.25748   4.26180   4.28434   4.28822   4.30617
 Alpha virt. eigenvalues --    4.31238   4.36045   4.37042   4.38401   4.40153
 Alpha virt. eigenvalues --    4.42766   4.44425   4.56758   4.62809   4.62928
 Alpha virt. eigenvalues --    4.64733   4.68367   4.74043   4.74846   4.77989
 Alpha virt. eigenvalues --    4.83613   4.88735   4.90312   4.98023   5.02346
 Alpha virt. eigenvalues --    5.02572   5.02952   5.04650   5.11208   5.20593
 Alpha virt. eigenvalues --    5.22703   5.24618   5.31476   5.36313   5.41929
 Alpha virt. eigenvalues --    5.50156   5.56117   5.61121   5.69565   5.72005
 Alpha virt. eigenvalues --    5.80181   5.84672   5.89873   5.92759   6.00408
 Alpha virt. eigenvalues --    6.57554   6.60993   6.61347   6.61481   6.61705
 Alpha virt. eigenvalues --    6.62225   6.62384   6.63134   6.66579   6.67096
 Alpha virt. eigenvalues --    6.69983   6.79573   6.81235   6.88356   6.94512
 Alpha virt. eigenvalues --    7.14901   7.18773   7.19978   7.39089   7.39387
 Alpha virt. eigenvalues --    7.45363   7.46291   7.56045   7.61592   9.72792
 Alpha virt. eigenvalues --    9.74938   9.87564  12.23842  12.92061  12.95491
 Alpha virt. eigenvalues --   13.14101
          Condensed to atoms (all electrons):
               1          2          3          4          5          6
     1  C    4.363056   0.376569   0.362415   0.385356   0.302469  -0.033677
     2  F    0.376569   8.769704  -0.035907  -0.036524   0.010086   0.000272
     3  F    0.362415  -0.035907   8.799777  -0.036472   0.012628  -0.000405
     4  F    0.385356  -0.036524  -0.036472   8.766538   0.007644   0.000155
     5  S    0.302469   0.010086   0.012628   0.007644  13.430137   0.679041
     6  O   -0.033677   0.000272  -0.000405   0.000155   0.679041   7.716513
     7  O   -0.033729   0.000148   0.000280  -0.000093   0.687320  -0.019268
     8  O   -0.027814  -0.000276   0.000489   0.000237   0.339289  -0.037450
     9  H    0.001160  -0.000038  -0.000103  -0.000003  -0.018866   0.001864
               7          8          9
     1  C   -0.033729  -0.027814   0.001160
     2  F    0.000148  -0.000276  -0.000038
     3  F    0.000280   0.000489  -0.000103
     4  F   -0.000093   0.000237  -0.000003
     5  S    0.687320   0.339289  -0.018866
     6  O   -0.019268  -0.037450   0.001864
     7  O    7.669582  -0.035484   0.001612
     8  O   -0.035484   7.829933   0.304634
     9  H    0.001612   0.304634   0.339643
 Mulliken charges:
               1
     1  C    0.304196
     2  F   -0.084033
     3  F   -0.102702
     4  F   -0.086838
     5  S    0.550253
     6  O   -0.307047
     7  O   -0.270367
     8  O   -0.373558
     9  H    0.370097
 Sum of Mulliken charges =  -0.00000
 Mulliken charges with hydrogens summed into heavy atoms:
               1
     1  C    0.304196
     2  F   -0.084033
     3  F   -0.102702
     4  F   -0.086838
     5  S    0.550253
     6  O   -0.307047
     7  O   -0.270367
     8  O   -0.003461
 Electronic spatial extent (au):  <R**2>=            845.2633
 Charge=              0.0000 electrons
 Dipole moment (field-independent basis, Debye):
    X=             -0.6541    Y=              2.7096    Z=              0.3122  Tot=              2.8048
 Quadrupole moment (field-independent basis, Debye-Ang):
   XX=            -48.8393   YY=            -46.7452   ZZ=            -52.1177
   XY=              4.1309   XZ=              1.7444   YZ=              1.8521
 Traceless Quadrupole moment (field-independent basis, Debye-Ang):
   XX=              0.3948   YY=              2.4889   ZZ=             -2.8837
   XY=              4.1309   XZ=              1.7444   YZ=              1.8521
 Octapole moment (field-independent basis, Debye-Ang**2):
  XXX=             -5.6160  YYY=             40.7392  ZZZ=             -4.2973  XYY=              0.6874
  XXY=             15.1379  XXZ=              3.0733  XZZ=             -4.0310  YZZ=             13.4048
  YYZ=              5.6008  XYZ=              1.9701
 Hexadecapole moment (field-independent basis, Debye-Ang**3):
 XXXX=           -410.8353 YYYY=           -204.6305 ZZZZ=           -226.8734 XXXY=             10.7156
 XXXZ=            -22.0277 YYYX=             18.9206 YYYZ=              3.9760 ZZZX=            -34.0940
 ZZZY=              2.9397 XXYY=           -104.9700 XXZZ=           -107.0050 YYZZ=            -71.3994
 XXYZ=              1.7998 YYXZ=             -2.5522 ZZXY=              5.4337
 N-N= 5.743824233426D+02 E-N=-3.429768710826D+03  KE= 9.583463255731D+02
 Unable to Open any file for archive entry.
 1\1\GINC-SPARTAN-BM161\FOpt\RM062X\6-31G(2df,p)\C1H1F3O3S1\AKHALILOV\1
 6-May-2025\0\\# opt=(maxcyc=999,noeigen) M062X/6-31G(2df,p) NOSYM int=
 ultrafine scf=(tight,xqc)\\CF3SO3H - M062X/6-31G(2df,p) Geometry Optim
 ization\\0,1\C,-1.0189601991,-0.1724858082,-0.2909861696\F,-1.09126977
 44,0.0115982817,-1.5901609354\F,-1.5276414358,0.8731653718,0.335196295
 8\F,-1.6779328009,-1.258638863,0.048125976\S,0.7326885759,-0.367934400
 1,0.212582681\O,0.750801835,-0.4468253048,1.6337291644\O,1.311928792,-
 1.3366881397,-0.6424860382\O,1.2732420348,1.049037,-0.2326872488\H,1.2
 471439725,1.6487698623,0.5266872747\\Version=ES64L-G16RevC.01\HF=-961.
 8617108\RMSD=8.578e-09\RMSF=2.843e-05\Dipole=-0.2573573,1.0660256,0.12
 28276\Quadrupole=0.2934898,1.8504364,-2.1439262,3.0712098,1.2968909,1.
 3769953\PG=C01 [X(C1H1F3O3S1)]\\@
 The archive entry for this job was punched.


 Experience is what you get when you don't get what you want.
 -- Dan Stanford
 Job cpu time:       0 days  0 hours 17 minutes 28.5 seconds.
 Elapsed time:       0 days  0 hours  8 minutes 56.8 seconds.
 File lengths (MBytes):  RWF=     40 Int=      0 D2E=      0 Chk=      5 Scr=      1
 Normal termination of Gaussian 16 at Fri May 16 03:21:56 2025.
     5 Scr=      1
 Normal termination of Gaussian 16 at Fri May 16 03:16:10 2025.
16:06 2025.
