 Entering Gaussian System, Link 0=g16
 Initial command:
 /apps/easybuild-2022/easybuild/software/Compiler/NVHPC/22.11-CUDA-11.7.0/Gaussian/g16c01-CUDA-11.7.0/g16/l1.exe "/tmp/Gau-225582.inp" -scrdir="/tmp/"
 Entering Link 1 = /apps/easybuild-2022/easybuild/software/Compiler/NVHPC/22.11-CUDA-11.7.0/Gaussian/g16c01-CUDA-11.7.0/g16/l1.exe PID=    225585.
  
 Copyright (c) 1988-2019, Gaussian, Inc.  All Rights Reserved.
  
 This is part of the Gaussian(R) 16 program.  It is based on
 the Gaussian(R) 09 system (copyright 2009, Gaussian, Inc.),
 the Gaussian(R) 03 system (copyright 2003, Gaussian, Inc.),
 the Gaussian(R) 98 system (copyright 1998, Gaussian, Inc.),
 the Gaussian(R) 94 system (copyright 1995, Gaussian, Inc.),
 the Gaussian 92(TM) system (copyright 1992, Gaussian, Inc.),
 the Gaussian 90(TM) system (copyright 1990, Gaussian, Inc.),
 the Gaussian 88(TM) system (copyright 1988, Gaussian, Inc.),
 the Gaussian 86(TM) system (copyright 1986, Carnegie Mellon
 University), and the Gaussian 82(TM) system (copyright 1983,
 Carnegie Mellon University). Gaussian is a federally registered
 trademark of Gaussian, Inc.
  
 This software contains proprietary and confidential information,
 including trade secrets, belonging to Gaussian, Inc.
  
 This software is provided under written license and may be
 used, copied, transmitted, or stored only in accord with that
 written license.
  
 The following legend is applicable only to US Government
 contracts under FAR:
  
                    RESTRICTED RIGHTS LEGEND
  
 Use, reproduction and disclosure by the US Government is
 subject to restrictions as set forth in subparagraphs (a)
 and (c) of the Commercial Computer Software - Restricted
 Rights clause in FAR 52.227-19.
  
 Gaussian, Inc.
 340 Quinnipiac St., Bldg. 40, Wallingford CT 06492
  
  
 ---------------------------------------------------------------
 Warning -- This program may not be used in any manner that
 competes with the business of Gaussian, Inc. or will provide
 assistance to any competitor of Gaussian, Inc.  The licensee
 of this program is prohibited from giving any competitor of
 Gaussian, Inc. access to this program.  By using this program,
 the user acknowledges that Gaussian, Inc. is engaged in the
 business of creating and licensing software in the field of
 computational chemistry and represents and warrants to the
 licensee that it is not a competitor of Gaussian, Inc. and that
 it will not use this program in any manner prohibited above.
 ---------------------------------------------------------------
  

 Cite this work as:
 Gaussian 16, Revision C.01,
 M. J. Frisch, G. W. Trucks, H. B. Schlegel, G. E. Scuseria, 
 M. A. Robb, J. R. Cheeseman, G. Scalmani, V. Barone, 
 G. A. Petersson, H. Nakatsuji, X. Li, M. Caricato, A. V. Marenich, 
 J. Bloino, B. G. Janesko, R. Gomperts, B. Mennucci, H. P. Hratchian, 
 J. V. Ortiz, A. F. Izmaylov, J. L. Sonnenberg, D. Williams-Young, 
 F. Ding, F. Lipparini, F. Egidi, J. Goings, B. Peng, A. Petrone, 
 T. Henderson, D. Ranasinghe, V. G. Zakrzewski, J. Gao, N. Rega, 
 G. Zheng, W. Liang, M. Hada, M. Ehara, K. Toyota, R. Fukuda, 
 J. Hasegawa, M. Ishida, T. Nakajima, Y. Honda, O. Kitao, H. Nakai, 
 T. Vreven, K. Throssell, J. A. Montgomery, Jr., J. E. Peralta, 
 F. Ogliaro, M. J. Bearpark, J. J. Heyd, E. N. Brothers, K. N. Kudin, 
 V. N. Staroverov, T. A. Keith, R. Kobayashi, J. Normand, 
 K. Raghavachari, A. P. Rendell, J. C. Burant, S. S. Iyengar, 
 J. Tomasi, M. Cossi, J. M. Millam, M. Klene, C. Adamo, R. Cammi, 
 J. W. Ochterski, R. L. Martin, K. Morokuma, O. Farkas, 
 J. B. Foresman, and D. J. Fox, Gaussian, Inc., Wallingford CT, 2019.
 
 ******************************************
 Gaussian 16:  ES64L-G16RevC.01  3-Jul-2019
                24-May-2025 
 ******************************************
 %mem=28GB
 %chk=1502984803620600000001_well
 %nprocshared=8
 Will use up to    8 processors via shared memory.
 ----------------------------------------------------------------------
 #P M062X/Def2TZVPP Symm(None) scf(xqc) pop(None) freq opt(CalcFC, Tigh
 t)
 ----------------------------------------------------------------------
 1/7=10,10=4,18=20,19=15,26=3,38=1/1,3;
 2/9=110,12=2,15=3,17=6,18=5,40=1/2;
 3/5=44,7=202,11=2,25=1,30=1,71=2,74=-55,140=1/1,2,3;
 4//1;
 5/5=2,8=3,13=1,38=5/2,8;
 8/6=4,10=90,11=11/1;
 11/6=1,8=1,9=11,15=111,16=1,31=1/1,2,10;
 10/6=1,13=1,31=1/2;
 7/10=1,25=1,30=1/1,2,3,16;
 1/7=10,10=4,18=20,19=15,26=3/3(2);
 2/9=110,15=3/2;
 99//99;
 2/9=110,15=3/2;
 3/5=44,7=202,11=2,25=1,30=1,71=1,74=-55/1,2,3;
 4/5=5,16=3,69=1/1;
 5/5=2,8=3,13=1,38=5/2,8;
 7/30=1/1,2,3,16;
 1/7=10,18=20,19=15,26=3/3(-5);
 2/9=110,15=3/2;
 99/9=1/99;
 Leave Link    1 at Sat May 24 06:11:22 2025, MaxMem=  3758096384 cpu:               0.1 elap:               0.0
 (Enter /apps/easybuild-2022/easybuild/software/Compiler/NVHPC/22.11-CUDA-11.7.0/Gaussian/g16c01-CUDA-11.7.0/g16/l101.exe)
 ------------------------------
 Gaussian input prepared by ASE
 ------------------------------
 Symbolic Z-matrix:
 Charge =  0 Multiplicity = 1
 C                     0.2957    0.15892   0.12622 
 F                    -0.57012   0.6776   -0.73433 
 F                     0.09169   0.67302   1.3206 
 S                     2.00542   0.53532  -0.44404 
 O                     2.88417   0.17495   0.60027 
 O                     2.11354   0.04307  -1.77082 
 O                     1.92266   2.10591  -0.47871 
 F                     0.14532  -1.15171   0.16733 
 H                     1.6527    2.40451  -1.35903 
 
 ITRead=  0  0  0  0  0  0  0  0  0
 MicOpt= -1 -1 -1 -1 -1 -1 -1 -1 -1
 NAtoms=      9 NQM=        9 NQMF=       0 NMMI=      0 NMMIF=      0
                NMic=       0 NMicF=      0.
                    Isotopes and Nuclear Properties:
 (Nuclear quadrupole moments (NQMom) in fm**2, nuclear magnetic moments (NMagM)
  in nuclear magnetons)

  Atom         1           2           3           4           5           6           7           8           9
 IAtWgt=          12          19          19          32          16          16          16          19           1
 AtmWgt=  12.0000000  18.9984032  18.9984032  31.9720718  15.9949146  15.9949146  15.9949146  18.9984032   1.0078250
 NucSpn=           0           1           1           0           0           0           0           1           1
 AtZEff=  -0.0000000  -0.0000000  -0.0000000  -0.0000000  -0.0000000  -0.0000000  -0.0000000  -0.0000000  -0.0000000
 NQMom=    0.0000000   0.0000000   0.0000000   0.0000000   0.0000000   0.0000000   0.0000000   0.0000000   0.0000000
 NMagM=    0.0000000   2.6288670   2.6288670   0.0000000   0.0000000   0.0000000   0.0000000   2.6288670   2.7928460
 AtZNuc=   6.0000000   9.0000000   9.0000000  16.0000000   8.0000000   8.0000000   8.0000000   9.0000000   1.0000000
 Leave Link  101 at Sat May 24 06:11:23 2025, MaxMem=  3758096384 cpu:               0.2 elap:               0.2
 (Enter /apps/easybuild-2022/easybuild/software/Compiler/NVHPC/22.11-CUDA-11.7.0/Gaussian/g16c01-CUDA-11.7.0/g16/l103.exe)

 GradGradGradGradGradGradGradGradGradGradGradGradGradGradGradGradGradGrad
 Berny optimization.
 Initialization pass.
                           ----------------------------
                           !    Initial Parameters    !
                           ! (Angstroms and Degrees)  !
 --------------------------                            --------------------------
 ! Name  Definition              Value          Derivative Info.                !
 --------------------------------------------------------------------------------
 ! R1    R(1,2)                  1.3263         calculate D2E/DX2 analytically  !
 ! R2    R(1,3)                  1.3162         calculate D2E/DX2 analytically  !
 ! R3    R(1,4)                  1.8412         calculate D2E/DX2 analytically  !
 ! R4    R(1,8)                  1.3199         calculate D2E/DX2 analytically  !
 ! R5    R(4,5)                  1.4116         calculate D2E/DX2 analytically  !
 ! R6    R(4,6)                  1.4193         calculate D2E/DX2 analytically  !
 ! R7    R(4,7)                  1.5732         calculate D2E/DX2 analytically  !
 ! R8    R(7,9)                  0.968          calculate D2E/DX2 analytically  !
 ! A1    A(2,1,3)              109.5621         calculate D2E/DX2 analytically  !
 ! A2    A(2,1,4)              108.9818         calculate D2E/DX2 analytically  !
 ! A3    A(2,1,8)              109.5211         calculate D2E/DX2 analytically  !
 ! A4    A(3,1,4)              110.1897         calculate D2E/DX2 analytically  !
 ! A5    A(3,1,8)              109.9943         calculate D2E/DX2 analytically  !
 ! A6    A(4,1,8)              108.569          calculate D2E/DX2 analytically  !
 ! A7    A(1,4,5)              107.262          calculate D2E/DX2 analytically  !
 ! A8    A(1,4,6)              106.8205         calculate D2E/DX2 analytically  !
 ! A9    A(1,4,7)               99.3273         calculate D2E/DX2 analytically  !
 ! A10   A(5,4,6)              123.7531         calculate D2E/DX2 analytically  !
 ! A11   A(5,4,7)              107.694          calculate D2E/DX2 analytically  !
 ! A12   A(6,4,7)              109.2488         calculate D2E/DX2 analytically  !
 ! A13   A(4,7,9)              110.0404         calculate D2E/DX2 analytically  !
 ! D1    D(2,1,4,5)            170.1312         calculate D2E/DX2 analytically  !
 ! D2    D(2,1,4,6)            -55.3            calculate D2E/DX2 analytically  !
 ! D3    D(2,1,4,7)             58.1953         calculate D2E/DX2 analytically  !
 ! D4    D(3,1,4,5)             49.8827         calculate D2E/DX2 analytically  !
 ! D5    D(3,1,4,6)           -175.5484         calculate D2E/DX2 analytically  !
 ! D6    D(3,1,4,7)            -62.0532         calculate D2E/DX2 analytically  !
 ! D7    D(8,1,4,5)            -70.6381         calculate D2E/DX2 analytically  !
 ! D8    D(8,1,4,6)             63.9308         calculate D2E/DX2 analytically  !
 ! D9    D(8,1,4,7)            177.426          calculate D2E/DX2 analytically  !
 ! D10   D(1,4,7,9)            -91.8679         calculate D2E/DX2 analytically  !
 ! D11   D(5,4,7,9)            156.5367         calculate D2E/DX2 analytically  !
 ! D12   D(6,4,7,9)             19.7225         calculate D2E/DX2 analytically  !
 --------------------------------------------------------------------------------
 Trust Radius=3.00D-01 FncErr=1.00D-07 GrdErr=1.00D-06 EigMax=2.50D+02 EigMin=1.00D-04
 Number of steps in this run=     43 maximum allowed number of steps=    100.
 GradGradGradGradGradGradGradGradGradGradGradGradGradGradGradGradGradGrad

 Leave Link  103 at Sat May 24 06:11:23 2025, MaxMem=  3758096384 cpu:               0.0 elap:               0.0
 (Enter /apps/easybuild-2022/easybuild/software/Compiler/NVHPC/22.11-CUDA-11.7.0/Gaussian/g16c01-CUDA-11.7.0/g16/l202.exe)
                          Input orientation:                          
 ---------------------------------------------------------------------
 Center     Atomic      Atomic             Coordinates (Angstroms)
 Number     Number       Type             X           Y           Z
 ---------------------------------------------------------------------
      1          6           0        0.295696    0.158923    0.126222
      2          9           0       -0.570115    0.677601   -0.734328
      3          9           0        0.091686    0.673023    1.320603
      4         16           0        2.005420    0.535322   -0.444040
      5          8           0        2.884174    0.174945    0.600266
      6          8           0        2.113540    0.043072   -1.770822
      7          8           0        1.922661    2.105911   -0.478712
      8          9           0        0.145315   -1.151707    0.167333
      9          1           0        1.652699    2.404505   -1.359030
 ---------------------------------------------------------------------
                    Distance matrix (angstroms):
                    1          2          3          4          5
     1  C    0.000000
     2  F    1.326349   0.000000
     3  F    1.316231   2.158875   0.000000
     4  S    1.841204   2.595745   2.606780   0.000000
     5  O    2.631576   3.737100   2.926595   1.411614   0.000000
     6  O    2.629972   2.946006   3.747218   1.419278   2.496663
     7  O    2.608395   2.884327   2.939927   1.573150   2.411914
     8  F    1.319870   2.161296   2.159293   2.584538   3.073888
     9  H    3.014974   2.883288   3.551792   2.110797   3.213458
                    6          7          8          9
     6  O    0.000000
     7  O    2.441575   0.000000
     8  F    3.009626   3.766750   0.000000
     9  H    2.440966   0.967986   4.153148   0.000000
 Symmetry turned off by external request.
 Stoichiometry    CHF3O3S
 Rotational constants (GHZ):           2.6757195           1.5956972           1.5853537
 Leave Link  202 at Sat May 24 06:11:23 2025, MaxMem=  3758096384 cpu:               0.1 elap:               0.0
 (Enter /apps/easybuild-2022/easybuild/software/Compiler/NVHPC/22.11-CUDA-11.7.0/Gaussian/g16c01-CUDA-11.7.0/g16/l301.exe)
 Standard basis: def2TZVPP (5D, 7F)
 Ernie: Thresh=  0.10000D-02 Tol=  0.10000D-05 Strict=F.
   273 basis functions,   443 primitive gaussians,   315 cartesian basis functions
    37 alpha electrons       37 beta electrons
       nuclear repulsion energy       573.6796434133 Hartrees.
 IExCor= 4336 DFT=T Ex+Corr=M062X ExCW=0 ScaHFX=  0.540000
 ScaDFX=  1.000000  1.000000  1.000000  1.000000 ScalE2=  1.000000  1.000000
 IRadAn=      5 IRanWt=     -1 IRanGd=            0 ICorTp=0 IEmpDi=  4
 NAtoms=    9 NActive=    9 NUniq=    9 SFac= 1.00D+00 NAtFMM=   60 NAOKFM=F Big=F
 Integral buffers will be    131072 words long.
 Raffenetti 2 integral format.
 Two-electron integral symmetry is turned off.
 Leave Link  301 at Sat May 24 06:11:23 2025, MaxMem=  3758096384 cpu:               0.1 elap:               0.0
 (Enter /apps/easybuild-2022/easybuild/software/Compiler/NVHPC/22.11-CUDA-11.7.0/Gaussian/g16c01-CUDA-11.7.0/g16/l302.exe)
 NPDir=0 NMtPBC=     1 NCelOv=     1 NCel=       1 NClECP=     1 NCelD=      1
         NCelK=      1 NCelE2=     1 NClLst=     1 CellRange=     0.0.
 One-electron integrals computed using PRISM.
   1 Symmetry operations used in ECPInt.
 ECPInt:  NShTT=    4753 NPrTT=   15592 LenC2=    4602 LenP2D=   11602.
 LDataN:  DoStor=T MaxTD1= 6 Len=  172
 NBasis=   273 RedAO= T EigKep=  9.68D-04  NBF=   273
 NBsUse=   273 1.00D-06 EigRej= -1.00D+00 NBFU=   273
 Precomputing XC quadrature grid using
 IXCGrd= 4 IRadAn=           5 IRanWt=          -1 IRanGd=           0 AccXCQ= 0.00D+00.
 Generated NRdTot=       0 NPtTot=           0 NUsed=           0 NTot=          32
 NSgBfM=   311   311   311   311   311 MxSgAt=     9 MxSgA2=     9.
 Leave Link  302 at Sat May 24 06:11:23 2025, MaxMem=  3758096384 cpu:               0.8 elap:               0.2
 (Enter /apps/easybuild-2022/easybuild/software/Compiler/NVHPC/22.11-CUDA-11.7.0/Gaussian/g16c01-CUDA-11.7.0/g16/l303.exe)
 DipDrv:  MaxL=1.
 Leave Link  303 at Sat May 24 06:11:23 2025, MaxMem=  3758096384 cpu:               0.1 elap:               0.1
 (Enter /apps/easybuild-2022/easybuild/software/Compiler/NVHPC/22.11-CUDA-11.7.0/Gaussian/g16c01-CUDA-11.7.0/g16/l401.exe)
 ExpMin= 9.52D-02 ExpMax= 6.07D+04 ExpMxC= 2.07D+03 IAcc=3 IRadAn=         5 AccDes= 0.00D+00
 Harris functional with IExCor= 1009 and IRadAn=       5 diagonalized for initial guess.
 HarFok:  IExCor= 1009 AccDes= 0.00D+00 IRadAn=         5 IDoV= 1 UseB2=F ITyADJ=14
 ICtDFT=  3500011 ScaDFX=  1.000000  1.000000  1.000000  1.000000
 FoFCou: FMM=F IPFlag=           0 FMFlag=      100000 FMFlg1=           0
         NFxFlg=           0 DoJE=T BraDBF=F KetDBF=T FulRan=T
         wScrn=  0.000000 ICntrl=       500 IOpCl=  0 I1Cent=   200000004 NGrid=           0
         NMat0=    1 NMatS0=      1 NMatT0=    0 NMatD0=    1 NMtDS0=    0 NMtDT0=    0
 Symmetry not used in FoFCou.
 Harris En= -961.691786056753    
 JPrj=0 DoOrth=F DoCkMO=F.
 Leave Link  401 at Sat May 24 06:11:24 2025, MaxMem=  3758096384 cpu:               3.0 elap:               0.5
 (Enter /apps/easybuild-2022/easybuild/software/Compiler/NVHPC/22.11-CUDA-11.7.0/Gaussian/g16c01-CUDA-11.7.0/g16/l502.exe)
 Keep R1 ints in memory in canonical form, NReq=715214082.
 FoFCou: FMM=F IPFlag=           0 FMFlag=           0 FMFlg1=           0
         NFxFlg=           0 DoJE=F BraDBF=F KetDBF=F FulRan=T
         wScrn=  0.000000 ICntrl=       600 IOpCl=  0 I1Cent=           0 NGrid=           0
         NMat0=    1 NMatS0=  37401 NMatT0=    0 NMatD0=    1 NMtDS0=    0 NMtDT0=    0
 Symmetry not used in FoFCou.
 Two-electron integral symmetry not used.
 Closed shell SCF:
 Using DIIS extrapolation, IDIIS=  1040.
 NGot=  3758096384 LenX=  3058457086 LenY=  3058357420
 Requested convergence on RMS density matrix=1.00D-08 within  32 cycles.
 Requested convergence on MAX density matrix=1.00D-06.
 Requested convergence on             energy=1.00D-06.
 No special actions if energy rises.
 Integral accuracy reduced to 1.0D-05 until final iterations.

 Cycle   1  Pass 0  IDiag  1:
 E= -961.834278326635    
 DIIS: error= 2.91D-02 at cycle   1 NSaved=   1.
 NSaved= 1 IEnMin= 1 EnMin= -961.834278326635     IErMin= 1 ErrMin= 2.91D-02
 ErrMax= 2.91D-02  0.00D+00 EMaxC= 1.00D-01 BMatC= 5.46D-01 BMatP= 5.46D-01
 IDIUse=3 WtCom= 7.09D-01 WtEn= 2.91D-01
 Coeff-Com:  0.100D+01
 Coeff-En:   0.100D+01
 Coeff:      0.100D+01
 Gap=     0.488 Goal=   None    Shift=    0.000
 GapD=    0.488 DampG=2.000 DampE=0.500 DampFc=1.0000 IDamp=-1.
 RMSDP=3.11D-03 MaxDP=2.56D-01              OVMax= 2.44D-01

 Cycle   2  Pass 0  IDiag  1:
 E= -961.536986602425     Delta-E=        0.297291724210 Rises=F Damp=F
 DIIS: error= 4.04D-02 at cycle   2 NSaved=   2.
 NSaved= 2 IEnMin= 1 EnMin= -961.834278326635     IErMin= 1 ErrMin= 2.91D-02
 ErrMax= 4.04D-02  0.00D+00 EMaxC= 1.00D-01 BMatC= 9.20D-01 BMatP= 5.46D-01
 IDIUse=2 WtCom= 0.00D+00 WtEn= 1.00D+00
 Coeff-En:   0.654D+00 0.346D+00
 Coeff:      0.654D+00 0.346D+00
 Gap=     0.470 Goal=   None    Shift=    0.000
 RMSDP=1.61D-03 MaxDP=1.51D-01 DE= 2.97D-01 OVMax= 1.21D-01

 Cycle   3  Pass 0  IDiag  1:
 E= -962.116645385553     Delta-E=       -0.579658783128 Rises=F Damp=F
 DIIS: error= 4.97D-03 at cycle   3 NSaved=   3.
 NSaved= 3 IEnMin= 3 EnMin= -962.116645385553     IErMin= 3 ErrMin= 4.97D-03
 ErrMax= 4.97D-03  0.00D+00 EMaxC= 1.00D-01 BMatC= 1.64D-02 BMatP= 5.46D-01
 IDIUse=3 WtCom= 9.50D-01 WtEn= 4.97D-02
 Coeff-Com:  0.860D-01-0.531D-01 0.967D+00
 Coeff-En:   0.000D+00 0.000D+00 0.100D+01
 Coeff:      0.818D-01-0.505D-01 0.969D+00
 Gap=     0.455 Goal=   None    Shift=    0.000
 RMSDP=2.53D-04 MaxDP=1.41D-02 DE=-5.80D-01 OVMax= 2.06D-02

 Cycle   4  Pass 0  IDiag  1:
 E= -962.123931961441     Delta-E=       -0.007286575888 Rises=F Damp=F
 DIIS: error= 3.15D-03 at cycle   4 NSaved=   4.
 NSaved= 4 IEnMin= 4 EnMin= -962.123931961441     IErMin= 4 ErrMin= 3.15D-03
 ErrMax= 3.15D-03  0.00D+00 EMaxC= 1.00D-01 BMatC= 3.05D-03 BMatP= 1.64D-02
 IDIUse=3 WtCom= 9.68D-01 WtEn= 3.15D-02
 Coeff-Com:  0.101D-01-0.520D-01 0.503D+00 0.539D+00
 Coeff-En:   0.000D+00 0.000D+00 0.238D-01 0.976D+00
 Coeff:      0.982D-02-0.503D-01 0.488D+00 0.553D+00
 Gap=     0.457 Goal=   None    Shift=    0.000
 RMSDP=1.05D-04 MaxDP=6.42D-03 DE=-7.29D-03 OVMax= 1.08D-02

 Cycle   5  Pass 0  IDiag  1:
 E= -962.125801444368     Delta-E=       -0.001869482927 Rises=F Damp=F
 DIIS: error= 5.63D-04 at cycle   5 NSaved=   5.
 NSaved= 5 IEnMin= 5 EnMin= -962.125801444368     IErMin= 5 ErrMin= 5.63D-04
 ErrMax= 5.63D-04  0.00D+00 EMaxC= 1.00D-01 BMatC= 1.23D-04 BMatP= 3.05D-03
 IDIUse=3 WtCom= 9.94D-01 WtEn= 5.63D-03
 Coeff-Com: -0.675D-03-0.153D-01 0.115D+00 0.218D+00 0.683D+00
 Coeff-En:   0.000D+00 0.000D+00 0.000D+00 0.000D+00 0.100D+01
 Coeff:     -0.671D-03-0.152D-01 0.114D+00 0.217D+00 0.685D+00
 Gap=     0.454 Goal=   None    Shift=    0.000
 RMSDP=2.65D-05 MaxDP=1.34D-03 DE=-1.87D-03 OVMax= 2.11D-03

 Cycle   6  Pass 0  IDiag  1:
 E= -962.125883852225     Delta-E=       -0.000082407857 Rises=F Damp=F
 DIIS: error= 6.96D-05 at cycle   6 NSaved=   6.
 NSaved= 6 IEnMin= 6 EnMin= -962.125883852225     IErMin= 6 ErrMin= 6.96D-05
 ErrMax= 6.96D-05  0.00D+00 EMaxC= 1.00D-01 BMatC= 3.77D-06 BMatP= 1.23D-04
 IDIUse=1 WtCom= 1.00D+00 WtEn= 0.00D+00
 Coeff-Com: -0.688D-03-0.264D-02 0.142D-01 0.418D-01 0.222D+00 0.725D+00
 Coeff:     -0.688D-03-0.264D-02 0.142D-01 0.418D-01 0.222D+00 0.725D+00
 Gap=     0.454 Goal=   None    Shift=    0.000
 RMSDP=6.12D-06 MaxDP=1.73D-04 DE=-8.24D-05 OVMax= 3.70D-04

 Initial convergence to 1.0D-05 achieved.  Increase integral accuracy.
 Cycle   7  Pass 1  IDiag  1:
 E= -962.125867137892     Delta-E=        0.000016714333 Rises=F Damp=F
 DIIS: error= 3.09D-05 at cycle   1 NSaved=   1.
 NSaved= 1 IEnMin= 1 EnMin= -962.125867137892     IErMin= 1 ErrMin= 3.09D-05
 ErrMax= 3.09D-05  0.00D+00 EMaxC= 1.00D-01 BMatC= 7.40D-07 BMatP= 7.40D-07
 IDIUse=1 WtCom= 1.00D+00 WtEn= 0.00D+00
 Coeff-Com:  0.100D+01
 Coeff:      0.100D+01
 Gap=     0.454 Goal=   None    Shift=    0.000
 RMSDP=6.12D-06 MaxDP=1.73D-04 DE= 1.67D-05 OVMax= 2.61D-04

 Cycle   8  Pass 1  IDiag  1:
 E= -962.125867490410     Delta-E=       -0.000000352517 Rises=F Damp=F
 DIIS: error= 2.22D-05 at cycle   2 NSaved=   2.
 NSaved= 2 IEnMin= 2 EnMin= -962.125867490410     IErMin= 2 ErrMin= 2.22D-05
 ErrMax= 2.22D-05  0.00D+00 EMaxC= 1.00D-01 BMatC= 3.83D-07 BMatP= 7.40D-07
 IDIUse=1 WtCom= 1.00D+00 WtEn= 0.00D+00
 Coeff-Com:  0.385D+00 0.615D+00
 Coeff:      0.385D+00 0.615D+00
 Gap=     0.454 Goal=   None    Shift=    0.000
 RMSDP=1.79D-06 MaxDP=7.37D-05 DE=-3.53D-07 OVMax= 1.89D-04

 Cycle   9  Pass 1  IDiag  1:
 E= -962.125867672938     Delta-E=       -0.000000182528 Rises=F Damp=F
 DIIS: error= 1.29D-05 at cycle   3 NSaved=   3.
 NSaved= 3 IEnMin= 3 EnMin= -962.125867672938     IErMin= 3 ErrMin= 1.29D-05
 ErrMax= 1.29D-05  0.00D+00 EMaxC= 1.00D-01 BMatC= 1.18D-07 BMatP= 3.83D-07
 IDIUse=1 WtCom= 1.00D+00 WtEn= 0.00D+00
 Coeff-Com: -0.386D-01 0.351D+00 0.688D+00
 Coeff:     -0.386D-01 0.351D+00 0.688D+00
 Gap=     0.454 Goal=   None    Shift=    0.000
 RMSDP=7.96D-07 MaxDP=2.81D-05 DE=-1.83D-07 OVMax= 8.15D-05

 Cycle  10  Pass 1  IDiag  1:
 E= -962.125867753442     Delta-E=       -0.000000080504 Rises=F Damp=F
 DIIS: error= 2.00D-06 at cycle   4 NSaved=   4.
 NSaved= 4 IEnMin= 4 EnMin= -962.125867753442     IErMin= 4 ErrMin= 2.00D-06
 ErrMax= 2.00D-06  0.00D+00 EMaxC= 1.00D-01 BMatC= 2.07D-09 BMatP= 1.18D-07
 IDIUse=1 WtCom= 1.00D+00 WtEn= 0.00D+00
 Coeff-Com: -0.236D-01 0.129D+00 0.277D+00 0.617D+00
 Coeff:     -0.236D-01 0.129D+00 0.277D+00 0.617D+00
 Gap=     0.454 Goal=   None    Shift=    0.000
 RMSDP=1.05D-07 MaxDP=3.57D-06 DE=-8.05D-08 OVMax= 6.87D-06

 Cycle  11  Pass 1  IDiag  1:
 E= -962.125867754663     Delta-E=       -0.000000001221 Rises=F Damp=F
 DIIS: error= 5.53D-07 at cycle   5 NSaved=   5.
 NSaved= 5 IEnMin= 5 EnMin= -962.125867754663     IErMin= 5 ErrMin= 5.53D-07
 ErrMax= 5.53D-07  0.00D+00 EMaxC= 1.00D-01 BMatC= 2.30D-10 BMatP= 2.07D-09
 IDIUse=1 WtCom= 1.00D+00 WtEn= 0.00D+00
 Coeff-Com: -0.181D-02-0.171D-01-0.241D-01 0.213D+00 0.830D+00
 Coeff:     -0.181D-02-0.171D-01-0.241D-01 0.213D+00 0.830D+00
 Gap=     0.454 Goal=   None    Shift=    0.000
 RMSDP=5.20D-08 MaxDP=1.87D-06 DE=-1.22D-09 OVMax= 4.05D-06

 Cycle  12  Pass 1  IDiag  1:
 E= -962.125867754861     Delta-E=       -0.000000000198 Rises=F Damp=F
 DIIS: error= 1.72D-07 at cycle   6 NSaved=   6.
 NSaved= 6 IEnMin= 6 EnMin= -962.125867754861     IErMin= 6 ErrMin= 1.72D-07
 ErrMax= 1.72D-07  0.00D+00 EMaxC= 1.00D-01 BMatC= 1.97D-11 BMatP= 2.30D-10
 IDIUse=1 WtCom= 1.00D+00 WtEn= 0.00D+00
 Coeff-Com:  0.168D-02-0.178D-01-0.342D-01 0.650D-02 0.277D+00 0.767D+00
 Coeff:      0.168D-02-0.178D-01-0.342D-01 0.650D-02 0.277D+00 0.767D+00
 Gap=     0.454 Goal=   None    Shift=    0.000
 RMSDP=1.79D-08 MaxDP=1.06D-06 DE=-1.98D-10 OVMax= 1.09D-06

 Cycle  13  Pass 1  IDiag  1:
 E= -962.125867754889     Delta-E=       -0.000000000028 Rises=F Damp=F
 DIIS: error= 5.97D-08 at cycle   7 NSaved=   7.
 NSaved= 7 IEnMin= 7 EnMin= -962.125867754889     IErMin= 7 ErrMin= 5.97D-08
 ErrMax= 5.97D-08  0.00D+00 EMaxC= 1.00D-01 BMatC= 1.44D-12 BMatP= 1.97D-11
 IDIUse=1 WtCom= 1.00D+00 WtEn= 0.00D+00
 Coeff-Com:  0.645D-03-0.491D-02-0.981D-02-0.776D-02 0.501D-01 0.257D+00
 Coeff-Com:  0.714D+00
 Coeff:      0.645D-03-0.491D-02-0.981D-02-0.776D-02 0.501D-01 0.257D+00
 Coeff:      0.714D+00
 Gap=     0.454 Goal=   None    Shift=    0.000
 RMSDP=3.76D-09 MaxDP=1.83D-07 DE=-2.82D-11 OVMax= 3.75D-07

 SCF Done:  E(RM062X) =  -962.125867755     A.U. after   13 cycles
            NFock= 13  Conv=0.38D-08     -V/T= 2.0027
 KE= 9.595609369576D+02 PE=-3.429249898052D+03 EE= 9.338834499262D+02
 Leave Link  502 at Sat May 24 06:11:38 2025, MaxMem=  3758096384 cpu:              67.5 elap:              14.9
 (Enter /apps/easybuild-2022/easybuild/software/Compiler/NVHPC/22.11-CUDA-11.7.0/Gaussian/g16c01-CUDA-11.7.0/g16/l508.exe)
 QCSCF skips out because SCF is already converged.
 Leave Link  508 at Sat May 24 06:11:39 2025, MaxMem=  3758096384 cpu:               0.1 elap:               0.0
 (Enter /apps/easybuild-2022/easybuild/software/Compiler/NVHPC/22.11-CUDA-11.7.0/Gaussian/g16c01-CUDA-11.7.0/g16/l801.exe)
 DoSCS=F DFT=T ScalE2(SS,OS)=  1.000000  1.000000
 Range of M.O.s used for correlation:     1   273
 NBasis=   273 NAE=    37 NBE=    37 NFC=     0 NFV=     0
 NROrb=    273 NOA=    37 NOB=    37 NVA=   236 NVB=   236

 **** Warning!!: The largest alpha MO coefficient is  0.12612388D+02

 Leave Link  801 at Sat May 24 06:11:39 2025, MaxMem=  3758096384 cpu:               0.1 elap:               0.0
 (Enter /apps/easybuild-2022/easybuild/software/Compiler/NVHPC/22.11-CUDA-11.7.0/Gaussian/g16c01-CUDA-11.7.0/g16/l1101.exe)
 Using compressed storage, NAtomX=     9.
 Will process     10 centers per pass.
   1 Symmetry operations used in ECPInt.
 ECPInt:  NShTT=    4753 NPrTT=   15592 LenC2=    4602 LenP2D=   11602.
 LDataN:  DoStor=T MaxTD1= 7 Len=  274
 Leave Link 1101 at Sat May 24 06:11:39 2025, MaxMem=  3758096384 cpu:               1.3 elap:               0.3
 (Enter /apps/easybuild-2022/easybuild/software/Compiler/NVHPC/22.11-CUDA-11.7.0/Gaussian/g16c01-CUDA-11.7.0/g16/l1102.exe)
 Symmetrizing basis deriv contribution to polar:
 IMax=3 JMax=2 DiffMx= 0.00D+00
 Leave Link 1102 at Sat May 24 06:11:39 2025, MaxMem=  3758096384 cpu:               0.1 elap:               0.1
 (Enter /apps/easybuild-2022/easybuild/software/Compiler/NVHPC/22.11-CUDA-11.7.0/Gaussian/g16c01-CUDA-11.7.0/g16/l1110.exe)
 Forming Gx(P) for the SCF density, NAtomX=     9.
 Integral derivatives from FoFJK, PRISM(SPDF).
 Do as many integral derivatives as possible in FoFJK.
 G2DrvN: MDV=    3758095321.
 G2DrvN: will do    10 centers at a time, making    1 passes.
 Calling FoFCou, ICntrl=  3107 FMM=F I1Cent=   0 AccDes= 0.00D+00.
 FoFJK:  IHMeth= 1 ICntrl=    3107 DoSepK=F KAlg= 0 I1Cent=           0 FoldK=F
 IRaf=         0 NMat=       1 IRICut=       1 DoRegI=T DoRafI=F ISym2E= 0 IDoP0=0 IntGTp=1.
 FoFCou: FMM=F IPFlag=           0 FMFlag=      100000 FMFlg1=           0
         NFxFlg=           0 DoJE=F BraDBF=F KetDBF=F FulRan=T
         wScrn=  0.000000 ICntrl=      3107 IOpCl=  0 I1Cent=           0 NGrid=           0
         NMat0=    1 NMatS0=      1 NMatT0=    0 NMatD0=    1 NMtDS0=    0 NMtDT0=    0
 Symmetry not used in FoFCou.
 End of G2Drv F.D. properties file   721 does not exist.
 End of G2Drv F.D. properties file   722 does not exist.
 End of G2Drv F.D. properties file   788 does not exist.
 Leave Link 1110 at Sat May 24 06:12:03 2025, MaxMem=  3758096384 cpu:             180.2 elap:              23.6
 (Enter /apps/easybuild-2022/easybuild/software/Compiler/NVHPC/22.11-CUDA-11.7.0/Gaussian/g16c01-CUDA-11.7.0/g16/l1002.exe)
 Minotr:  Closed shell wavefunction.
          IDoAtm=111111111
          Direct CPHF calculation.
          Differentiating once with respect to nuclear coordinates.
          Requested convergence is 1.0D-08 RMS, and 1.0D-07 maximum.
          Secondary convergence is 1.0D-12 RMS, and 1.0D-12 maximum.
          NewPWx=T KeepS1=F KeepF1=F KeepIn=T MapXYZ=F SortEE=F KeepMc=T.
         2683 words used for storage of precomputed grid.
 Keep R1 ints in memory in canonical form, NReq=715218544.
 FoFCou: FMM=F IPFlag=           0 FMFlag=           0 FMFlg1=           0
         NFxFlg=           0 DoJE=F BraDBF=F KetDBF=F FulRan=T
         wScrn=  0.000000 ICntrl=       600 IOpCl=  0 I1Cent=           0 NGrid=           0
         NMat0=    1 NMatS0=  37401 NMatT0=    0 NMatD0=    1 NMtDS0=    0 NMtDT0=    0
 Symmetry not used in FoFCou.
 Two-electron integral symmetry not used.
          MDV=    3758096384 using IRadAn=       1.
          Solving linear equations simultaneously, MaxMat=       0.
          There are    30 degrees of freedom in the 1st order CPHF.  IDoFFX=6 NUNeed=     0.
     24 vectors produced by pass  0 Test12= 2.91D-14 3.33D-09 XBig12= 2.02D-01 9.35D-02.
 AX will form    24 AO Fock derivatives at one time.
     24 vectors produced by pass  1 Test12= 2.91D-14 3.33D-09 XBig12= 2.17D-02 2.85D-02.
     24 vectors produced by pass  2 Test12= 2.91D-14 3.33D-09 XBig12= 1.39D-03 1.01D-02.
     24 vectors produced by pass  3 Test12= 2.91D-14 3.33D-09 XBig12= 2.51D-05 8.11D-04.
     24 vectors produced by pass  4 Test12= 2.91D-14 3.33D-09 XBig12= 3.77D-07 9.69D-05.
     24 vectors produced by pass  5 Test12= 2.91D-14 3.33D-09 XBig12= 4.30D-09 1.13D-05.
     24 vectors produced by pass  6 Test12= 2.91D-14 3.33D-09 XBig12= 3.84D-11 8.84D-07.
     16 vectors produced by pass  7 Test12= 2.91D-14 3.33D-09 XBig12= 2.39D-13 5.06D-08.
      4 vectors produced by pass  8 Test12= 2.91D-14 3.33D-09 XBig12= 1.45D-15 6.10D-09.
 InvSVY:  IOpt=1 It=  1 EMax= 2.22D-15
 Solved reduced A of dimension   188 with    24 vectors.
 End of Minotr F.D. properties file   721 does not exist.
 End of Minotr F.D. properties file   722 does not exist.
 End of Minotr F.D. properties file   788 does not exist.
 Leave Link 1002 at Sat May 24 06:12:34 2025, MaxMem=  3758096384 cpu:             246.0 elap:              31.9
 (Enter /apps/easybuild-2022/easybuild/software/Compiler/NVHPC/22.11-CUDA-11.7.0/Gaussian/g16c01-CUDA-11.7.0/g16/l701.exe)
 ... and contract with generalized density number  0.
 Compute integral second derivatives.
   1 Symmetry operations used in ECPInt.
 ECPInt:  NShTT=    4753 NPrTT=   15592 LenC2=    4602 LenP2D=   11602.
 LDataN:  DoStor=T MaxTD1= 8 Len=  415
 Leave Link  701 at Sat May 24 06:12:35 2025, MaxMem=  3758096384 cpu:               0.9 elap:               0.2
 (Enter /apps/easybuild-2022/easybuild/software/Compiler/NVHPC/22.11-CUDA-11.7.0/Gaussian/g16c01-CUDA-11.7.0/g16/l702.exe)
 L702 exits ... SP integral derivatives will be done elsewhere.
 Leave Link  702 at Sat May 24 06:12:35 2025, MaxMem=  3758096384 cpu:               0.1 elap:               0.0
 (Enter /apps/easybuild-2022/easybuild/software/Compiler/NVHPC/22.11-CUDA-11.7.0/Gaussian/g16c01-CUDA-11.7.0/g16/l703.exe)
 Integral derivatives from FoFJK, PRISM(SPDF).
 Compute integral second derivatives, UseDBF=F ICtDFT=           0.
 Calling FoFJK, ICntrl=    100127 FMM=F ISym2X=0 I1Cent= 0 IOpClX= 0 NMat=1 NMatS=1 NMatT=0.
 FoFJK:  IHMeth= 1 ICntrl=  100127 DoSepK=F KAlg= 0 I1Cent=           0 FoldK=F
 IRaf=         0 NMat=       1 IRICut=       1 DoRegI=T DoRafI=F ISym2E= 0 IDoP0=0 IntGTp=1.
 FoFCou: FMM=F IPFlag=           0 FMFlag=      100000 FMFlg1=         800
         NFxFlg=           0 DoJE=F BraDBF=F KetDBF=F FulRan=T
         wScrn=  0.000000 ICntrl=    100127 IOpCl=  0 I1Cent=           0 NGrid=           0
         NMat0=    1 NMatS0=      1 NMatT0=    0 NMatD0=    1 NMtDS0=    0 NMtDT0=    0
 Symmetry not used in FoFCou.
 Leave Link  703 at Sat May 24 06:13:23 2025, MaxMem=  3758096384 cpu:             384.0 elap:              48.7
 (Enter /apps/easybuild-2022/easybuild/software/Compiler/NVHPC/22.11-CUDA-11.7.0/Gaussian/g16c01-CUDA-11.7.0/g16/l716.exe)
 Dipole        =-6.02634502D-01 8.52065634D-01-4.23929026D-01
 Polarizability= 0.00000000D+00 0.00000000D+00 0.00000000D+00
                 0.00000000D+00 0.00000000D+00 0.00000000D+00
 -------------------------------------------------------------------
 Center     Atomic                   Forces (Hartrees/Bohr)
 Number     Number              X              Y              Z
 -------------------------------------------------------------------
      1        6           0.002788736   -0.001050042   -0.002707473
      2        9          -0.000629930   -0.000162596    0.000980237
      3        9          -0.001278811    0.000143988    0.001080126
      4       16           0.000767834    0.000118589   -0.000372994
      5        8          -0.000379509    0.000031882   -0.000020784
      6        8          -0.000291055    0.000068238    0.000426803
      7        8          -0.000192539   -0.000216960    0.000137107
      8        9          -0.000822168    0.000992241    0.000569779
      9        1           0.000037443    0.000074661   -0.000092801
 -------------------------------------------------------------------
 Cartesian Forces:  Max     0.002788736 RMS     0.000936510
 Force constants in Cartesian coordinates: 
                1             2             3             4             5 
      1  0.539139D+00
      2 -0.543716D-02  0.580470D+00
      3  0.328642D-02  0.942288D-02  0.584510D+00
      4 -0.211709D+00  0.616712D-01 -0.103135D+00  0.225722D+00
      5  0.578919D-01 -0.102016D+00  0.483780D-01 -0.942524D-01  0.134332D+00
      6 -0.997484D-01  0.494709D-01 -0.156084D+00  0.157056D+00 -0.889849D-01
      7 -0.971811D-01  0.220906D-01  0.629866D-01  0.112051D-01 -0.580991D-02
      8  0.203466D-01 -0.106430D+00 -0.820224D-01 -0.347821D-02  0.161968D-01
      9  0.612958D-01 -0.849968D-01 -0.291766D+00 -0.206013D-01 -0.197578D-02
     10 -0.175708D+00 -0.302758D-01  0.499616D-01 -0.175239D-01  0.184046D-02
     11 -0.413380D-01 -0.282946D-01  0.129614D-01  0.254690D-01 -0.391273D-02
     12  0.515390D-01  0.106181D-01 -0.397843D-01 -0.388900D-01  0.647025D-02
     13  0.128195D-01  0.165793D-01 -0.331188D-01 -0.168432D-01  0.115505D-02
     14 -0.123352D-02  0.153453D-02  0.195047D-02 -0.136361D-02  0.118981D-02
     15  0.892881D-02  0.535586D-02 -0.105056D-01 -0.540128D-03 -0.887740D-03
     16  0.152536D-01  0.117263D-01  0.129380D-01 -0.476641D-03 -0.537787D-03
     17 -0.372659D-02 -0.719076D-03 -0.151010D-02 -0.162208D-02  0.141425D-02
     18 -0.270674D-01 -0.164919D-01 -0.132561D-01  0.930181D-02 -0.898643D-03
     19  0.715326D-02 -0.123186D-01 -0.234458D-02  0.188597D-02 -0.246135D-02
     20  0.293914D-01 -0.221145D-01 -0.610665D-02 -0.811543D-02  0.522468D-02
     21 -0.669352D-02  0.850328D-02  0.345873D-02  0.481840D-02 -0.197454D-02
     22 -0.941766D-01 -0.595339D-01  0.694929D-02  0.985509D-02  0.401830D-01
     23 -0.546613D-01 -0.320066D+00  0.163450D-01  0.222732D-01 -0.529910D-01
     24  0.624987D-02  0.179781D-01 -0.760906D-01 -0.708417D-02  0.402250D-01
     25  0.440820D-02 -0.450209D-02  0.247685D-02 -0.211604D-02  0.199099D-02
     26 -0.123338D-02 -0.236545D-02  0.581395D-03 -0.581738D-03  0.561576D-03
     27  0.220947D-02  0.139584D-03 -0.481991D-03 -0.925616D-03 -0.351668D-03
                6             7             8             9            10 
      6  0.231435D+00
      7 -0.398406D-01  0.778412D-01
      8  0.565243D-02 -0.260640D-01  0.138696D+00
      9 -0.734022D-01 -0.497031D-01  0.136810D+00  0.398358D+00
     10 -0.317538D-02  0.544595D-02 -0.155655D-02 -0.813659D-02  0.720866D+00
     11  0.802651D-02  0.163507D-01 -0.214098D-02 -0.202240D-01 -0.990431D-01
     12 -0.110382D-01  0.260381D-01 -0.583190D-02 -0.313107D-01  0.215633D+00
     13 -0.229466D-02 -0.259208D-02  0.256296D-04  0.573787D-02 -0.360345D+00
     14 -0.971324D-03 -0.119289D-02  0.938502D-03  0.169270D-02  0.956022D-01
     15  0.256525D-02 -0.238753D-02  0.124616D-02  0.894960D-02 -0.295647D+00
     16  0.841162D-03 -0.861083D-02  0.110095D-02  0.100369D-01 -0.106232D+00
     17 -0.614101D-03 -0.276741D-03  0.121534D-02  0.144886D-02  0.160867D-01
     18  0.667333D-02  0.886744D-02  0.220579D-03 -0.546596D-02  0.504140D-01
     19  0.164034D-02 -0.721725D-03  0.395424D-03  0.167495D-02 -0.723519D-01
     20 -0.323211D-02 -0.614951D-02  0.427148D-02  0.711537D-02 -0.447383D-02
     21  0.232668D-02 -0.691092D-03  0.756313D-03  0.199805D-02 -0.480189D-02
     22 -0.125754D-01  0.153532D-01  0.914422D-02 -0.390022D-04  0.825453D-02
     23  0.314517D-01  0.139514D-03 -0.528760D-01 -0.388261D-01  0.925468D-02
     24 -0.213588D-02 -0.491824D-02 -0.567836D-01 -0.760758D-02 -0.167758D-02
     25 -0.190343D-02 -0.739715D-03  0.859529D-04 -0.265548D-03 -0.240677D-02
     26 -0.799147D-03  0.912273D-03  0.128324D-03 -0.104390D-02  0.125653D-01
     27 -0.340131D-03 -0.351620D-03 -0.472820D-04  0.247259D-03 -0.257025D-02
               11            12            13            14            15 
     11  0.659612D+00
     12  0.365607D-01  0.124918D+01
     13  0.987259D-01 -0.300129D+00  0.342425D+00
     14 -0.122472D+00  0.114194D+00 -0.118776D+00  0.115939D+00
     15  0.114527D+00 -0.443626D+00  0.329668D+00 -0.133915D+00  0.453407D+00
     16  0.202039D-01  0.561028D-01  0.197925D-01 -0.495284D-02 -0.299588D-01
     17 -0.162498D+00 -0.192436D+00  0.591452D-02  0.167511D-01  0.118971D-01
     18 -0.190157D+00 -0.630772D+00  0.596387D-02 -0.151775D-01 -0.136454D-01
     19  0.404672D-02 -0.265709D-02  0.674193D-02  0.264763D-01 -0.848251D-02
     20 -0.281779D+00 -0.875416D-02  0.295055D-02 -0.141511D-01  0.513980D-02
     21  0.207557D-01 -0.973660D-01 -0.117744D-01  0.380288D-01 -0.302008D-02
     22 -0.270803D-01 -0.193411D-02 -0.351468D-02  0.234378D-02 -0.119052D-02
     23 -0.337451D-01 -0.342861D-02 -0.767375D-02  0.533011D-02 -0.323979D-02
     24  0.866319D-02  0.216515D-02  0.343748D-02 -0.146317D-02  0.210605D-02
     25  0.266518D-02 -0.570321D-02  0.151590D-02  0.309691D-02 -0.390379D-03
     26 -0.247694D-01  0.426073D-01  0.109910D-02 -0.505990D-02 -0.124193D-03
     27  0.888618D-02  0.255688D-02  0.250920D-02 -0.433927D-02  0.376895D-02
               16            17            18            19            20 
     16  0.677666D-01
     17 -0.246168D-01  0.154928D+00
     18 -0.517142D-01  0.225886D+00  0.655433D+00
     19  0.162525D-01  0.809988D-02 -0.120886D-02  0.884599D-01
     20  0.220039D-02 -0.235947D-01 -0.690530D-02 -0.511663D-01  0.410156D+00
     21  0.864689D-03 -0.400523D-01  0.460252D-02  0.139860D+00 -0.135292D+00
     22 -0.217750D-02  0.270701D-02  0.387480D-02 -0.530528D-02 -0.916800D-02
     23 -0.343854D-02  0.628457D-02  0.667165D-02 -0.700802D-02 -0.556320D-02
     24 -0.151410D-04  0.310947D-03  0.143477D-02  0.191119D-02  0.275547D-02
     25 -0.156875D-02 -0.256589D-02  0.156855D-02 -0.421147D-01  0.445307D-01
     26 -0.168556D-02  0.621902D-02 -0.314758D-02  0.339359D-01 -0.724497D-01
     27  0.904583D-03 -0.493058D-02 -0.500407D-02 -0.130393D+00  0.145279D+00
               21            22            23            24            25 
     21  0.519763D+00
     22  0.403404D-02  0.731377D-01
     23  0.386166D-02  0.413488D-01  0.453390D+00
     24 -0.845582D-03  0.201575D-02 -0.116166D-01  0.806777D-01
     25 -0.125616D+00 -0.142644D-02 -0.234646D-03  0.808416D-04  0.444483D-01
     26  0.105413D+00  0.552928D-04  0.236461D-03 -0.693543D-04 -0.450671D-01
     27 -0.430917D+00 -0.113487D-02 -0.121893D-02  0.295923D-03  0.129752D+00
               26            27 
     26  0.974991D-01
     27 -0.143417D+00  0.429875D+00
 FormGI is forming the generalized inverse of G from B-inverse, IUseBI=4.
 Force constants in internal coordinates: 
                1             2             3             4             5 
      1  0.440474D+00
      2  0.541219D-01  0.465145D+00
      3  0.175708D-01  0.158277D-01  0.200841D+00
      4  0.539758D-01  0.545099D-01  0.162127D-01  0.458135D+00
      5  0.626923D-02  0.964223D-02 -0.345651D-02  0.902822D-02  0.780306D+00
      6  0.933289D-02  0.602180D-02 -0.346313D-02  0.911305D-02 -0.110911D-02
      7  0.106366D-01  0.789248D-02 -0.111417D-02  0.603275D-02  0.119225D-01
      8 -0.124668D-02 -0.532568D-03 -0.301586D-03 -0.142413D-02 -0.431089D-02
      9  0.212561D-01  0.232636D-01 -0.166512D-01  0.286942D-02 -0.632413D-02
     10  0.145573D-01 -0.303833D-01  0.181989D-01 -0.284942D-01  0.150531D-01
     11  0.198029D-01  0.323033D-02 -0.144274D-01  0.209854D-01 -0.646343D-02
     12 -0.303810D-01  0.971437D-02  0.162108D-01 -0.286093D-01  0.304143D-03
     13  0.348907D-02  0.219722D-01 -0.141985D-01  0.206923D-01 -0.561951D-02
     14 -0.287802D-01 -0.287453D-01  0.112539D-01  0.124278D-01  0.328074D-02
     15  0.161403D-01 -0.414074D-02 -0.348025D-04 -0.101208D-02  0.920313D-02
     16 -0.274560D-02  0.174765D-01  0.856684D-03 -0.330734D-02 -0.836812D-02
     17  0.890699D-03 -0.252018D-02  0.658175D-02  0.204548D-01 -0.946583D-02
     18 -0.353850D-02 -0.350938D-02 -0.185795D-02 -0.316167D-02  0.296068D-02
     19 -0.390711D-02 -0.341460D-02 -0.167626D-02 -0.383375D-02  0.927978D-02
     20 -0.526471D-02 -0.344460D-02 -0.177954D-02 -0.338908D-02 -0.648165D-02
     21  0.263610D-02 -0.165238D-02  0.142413D-02  0.371744D-03  0.635131D-02
     22 -0.586125D-03  0.111192D-01  0.150689D-02 -0.123146D-01  0.123316D-02
     23  0.467042D-02  0.164412D-01 -0.261889D-03 -0.195180D-01  0.559362D-02
     24 -0.156274D-02  0.171030D-01  0.704186D-03 -0.160355D-01 -0.786505D-02
     25 -0.172153D-01 -0.439582D-02  0.643348D-03  0.195305D-01 -0.607882D-03
     26 -0.119587D-01  0.926245D-03 -0.112543D-02  0.123271D-01  0.375258D-02
     27 -0.181919D-01  0.158805D-02 -0.159360D-03  0.158096D-01 -0.970609D-02
     28  0.149257D-01 -0.192672D-01  0.118372D-02  0.375168D-02  0.404759D-02
     29  0.201822D-01 -0.139451D-01 -0.585057D-03 -0.345177D-02  0.840805D-02
     30  0.139490D-01 -0.132833D-01  0.381018D-03  0.307665D-04 -0.505062D-02
     31  0.525355D-02 -0.778018D-02 -0.623851D-03  0.587653D-03  0.908949D-02
     32 -0.115595D-01 -0.119354D-02 -0.276421D-02 -0.549338D-02  0.872735D-04
     33  0.954548D-03  0.933688D-02  0.266206D-02  0.487717D-02 -0.636803D-02
                6             7             8             9            10 
      6  0.746950D+00
      7  0.151330D-01  0.364875D+00
      8 -0.548831D-02  0.664010D-02  0.522312D+00
      9 -0.619794D-02 -0.534710D-02  0.773750D-03  0.120397D+00
     10  0.124820D-02  0.437857D-03 -0.471491D-03 -0.919787D-01  0.182198D+00
     11 -0.538881D-02 -0.577398D-02  0.131413D-02  0.360278D-01 -0.889147D-01
     12  0.148393D-01  0.214492D-02 -0.893251D-03 -0.873454D-01  0.560220D-02
     13 -0.614038D-02 -0.640000D-02  0.126702D-02  0.356640D-01 -0.148625D-01
     14  0.169181D-02  0.151056D-01 -0.201407D-02 -0.148194D-01  0.101544D-01
     15 -0.806027D-02 -0.127551D-01  0.729621D-03 -0.600761D-02  0.223456D-01
     16  0.904599D-02 -0.118366D-01  0.219246D-02 -0.629375D-02 -0.521239D-02
     17 -0.128749D-01  0.210805D-01 -0.230873D-03  0.179936D-02 -0.903834D-02
     18  0.796720D-03 -0.224972D-02  0.982735D-03  0.432973D-02 -0.570776D-02
     19 -0.682636D-02  0.973654D-02  0.147115D-02  0.242984D-02 -0.281462D-02
     20  0.143374D-01  0.812005D-03 -0.524500D-02  0.289740D-02 -0.234157D-04
     21  0.473053D-02  0.469206D-01  0.229241D-01  0.694644D-03  0.204252D-03
     22 -0.323005D-02  0.957387D-02 -0.575099D-03  0.201328D-01 -0.152041D-02
     23 -0.146090D-02 -0.113031D-01  0.282177D-02  0.166532D-01  0.368860D-02
     24  0.118105D-01 -0.563948D-02 -0.230639D-02  0.185783D-01 -0.158013D-02
     25 -0.548514D-02  0.145574D-01 -0.683560D-03 -0.167265D-01 -0.601184D-02
     26 -0.371599D-02 -0.631957D-02  0.271330D-02 -0.202062D-01 -0.802832D-03
     27  0.955540D-02 -0.655946D-03 -0.241485D-02 -0.182811D-01 -0.607156D-02
     28 -0.801731D-02  0.116634D-01 -0.436474D-03  0.180316D-02  0.246659D-02
     29 -0.624816D-02 -0.921354D-02  0.296039D-02 -0.167649D-02  0.767560D-02
     30  0.702323D-02 -0.354992D-02 -0.216777D-02  0.248623D-03  0.240687D-02
     31 -0.693003D-02  0.433175D-03 -0.303600D-03  0.329760D-03  0.105708D-01
     32  0.919816D-02  0.281520D-02 -0.145213D-02  0.542261D-02 -0.930021D-02
     33  0.190779D-02 -0.310402D-02  0.366123D-03 -0.492004D-02  0.821965D-03
               11            12            13            14            15 
     11  0.116128D+00
     12 -0.141618D-01  0.176236D+00
     13  0.351300D-01 -0.872651D-01  0.119060D+00
     14 -0.853133D-01  0.809428D-02 -0.893429D-01  0.172699D+00
     15 -0.541988D-02 -0.595526D-02  0.194799D-02 -0.671908D-02  0.101600D+00
     16  0.195811D-02  0.214815D-01 -0.559818D-02 -0.636242D-02 -0.386309D-02
     17 -0.912960D-02 -0.592077D-02 -0.938746D-02  0.318110D-01 -0.191409D-01
     18  0.267356D-02 -0.501670D-02  0.268017D-02  0.960000D-03 -0.410618D-01
     19  0.379063D-02 -0.840914D-03  0.316041D-02 -0.581188D-02 -0.303147D-01
     20  0.305565D-02 -0.386858D-02  0.412851D-02 -0.626258D-02 -0.573564D-04
     21 -0.475657D-03 -0.257776D-02  0.631528D-03  0.152638D-02 -0.241889D-02
     22 -0.205561D-01  0.106046D-02 -0.384165D-03  0.854843D-03 -0.900202D-02
     23 -0.196643D-01  0.607218D-02  0.351750D-03 -0.749722D-02  0.995002D-02
     24 -0.193873D-01  0.615173D-02 -0.651740D-03 -0.354080D-02  0.101177D-02
     25 -0.475269D-03 -0.306349D-02  0.185520D-01  0.775032D-02 -0.119645D-01
     26  0.416498D-03  0.194823D-02  0.192880D-01 -0.601737D-03  0.698760D-02
     27  0.693461D-03  0.202779D-02  0.182845D-01  0.335468D-02 -0.195066D-02
     28  0.183574D-01 -0.805592D-02 -0.186496D-01  0.446217D-02 -0.654069D-02
     29  0.192492D-01 -0.304420D-02 -0.179137D-01 -0.388989D-02  0.124114D-01
     30  0.195261D-01 -0.296464D-02 -0.189172D-01  0.665345D-04  0.347310D-02
     31 -0.239202D-02 -0.100393D-01  0.316658D-02 -0.156430D-02  0.345277D-01
     32  0.610688D-02 -0.862128D-03  0.391228D-02 -0.544597D-02 -0.594751D-01
     33 -0.328822D-02  0.987168D-02 -0.585525D-02  0.344751D-02  0.218086D-01
               16            17            18            19            20 
     16  0.100242D+00
     17 -0.198541D-01  0.189102D+00
     18 -0.401631D-01  0.152327D-01  0.632004D-01
     19  0.330066D-03 -0.607054D-01 -0.375578D-02  0.743756D-01
     20 -0.310741D-01 -0.591589D-01 -0.409691D-02  0.310959D-02  0.750670D-01
     21 -0.862226D-03  0.622468D-02  0.134771D-02  0.110347D-01 -0.140772D-01
     22 -0.770426D-02  0.119554D-02 -0.111506D-01  0.249725D-01  0.312234D-02
     23  0.117703D-01 -0.790978D-02  0.100689D-01 -0.172358D-02 -0.249578D-01
     24  0.106767D-02 -0.271298D-02 -0.758428D-03 -0.225771D-01  0.234814D-01
     25 -0.986471D-02  0.827169D-02 -0.982410D-02  0.242640D-01  0.194597D-02
     26  0.960981D-02 -0.833637D-03  0.113954D-01 -0.243208D-02 -0.261342D-01
     27 -0.109278D-02  0.436317D-02  0.568120D-03 -0.232856D-01  0.223050D-01
     28 -0.120587D-01  0.349512D-02 -0.106663D-01  0.245311D-01  0.314477D-02
     29  0.741585D-02 -0.561021D-02  0.105532D-01 -0.216496D-02 -0.249354D-01
     30 -0.328673D-02 -0.413405D-03 -0.274109D-03 -0.230185D-01  0.235038D-01
     31 -0.333965D-01 -0.409204D-02 -0.676757D-03 -0.569326D-03  0.366480D-02
     32 -0.211732D-01 -0.419684D-01  0.391039D-01  0.347942D-01  0.269296D-01
     33  0.588425D-01  0.386510D-01 -0.396367D-01 -0.259687D-01 -0.331012D-01
               21            22            23            24            25 
     21  0.149660D+00
     22  0.457728D-02  0.340499D-01
     23  0.389827D-02  0.758306D-02  0.363455D-01
     24 -0.921541D-02  0.907319D-02  0.962754D-02  0.344626D-01
     25  0.517482D-02  0.960847D-02 -0.189143D-01 -0.165393D-01  0.358077D-01
     26  0.449581D-02 -0.168584D-01  0.984819D-02 -0.159849D-01  0.728501D-02
     27 -0.861787D-02 -0.153682D-01 -0.168698D-01  0.885013D-02  0.966001D-02
     28  0.501070D-02  0.890186D-02 -0.183448D-01 -0.172600D-01  0.100762D-01
     29  0.433168D-02 -0.175650D-01  0.104177D-01 -0.167057D-01 -0.184465D-01
     30 -0.878200D-02 -0.160748D-01 -0.163003D-01  0.812935D-02 -0.160715D-01
     31  0.123721D-02  0.272332D-02  0.256768D-02 -0.544923D-02  0.184819D-02
     32 -0.200329D-02  0.450524D-02 -0.455237D-02  0.139184D-02  0.419323D-02
     33 -0.140523D-02 -0.428030D-02  0.423202D-02  0.192793D-02 -0.479579D-02
               26            27            28            29            30 
     26  0.339916D-01
     27  0.815844D-02  0.338784D-01
     28 -0.171704D-01 -0.160857D-01  0.350424D-01
     29  0.953614D-02 -0.175873D-01  0.779578D-02  0.357785D-01
     30 -0.162970D-01  0.813265D-02  0.888049D-02  0.865504D-02  0.330847D-01
     31  0.169256D-02 -0.632435D-02  0.503454D-02  0.487891D-02 -0.313800D-02
     32 -0.486438D-02  0.107983D-02  0.332267D-02 -0.573493D-02  0.209273D-03
     33  0.371653D-02  0.141245D-02 -0.576063D-02  0.275169D-02  0.447604D-03
               31            32            33 
     31  0.255527D-01
     32 -0.103261D-01  0.612382D-01
     33 -0.119998D-01 -0.437333D-01  0.596281D-01
 Leave Link  716 at Sat May 24 06:13:23 2025, MaxMem=  3758096384 cpu:               0.1 elap:               0.0
 (Enter /apps/easybuild-2022/easybuild/software/Compiler/NVHPC/22.11-CUDA-11.7.0/Gaussian/g16c01-CUDA-11.7.0/g16/l103.exe)

 GradGradGradGradGradGradGradGradGradGradGradGradGradGradGradGradGradGrad
 Berny optimization.
 Red2BG is reusing G-inverse.
 Internal  Forces:  Max     0.001550865 RMS     0.000665896
 Search for a local minimum.
 Step number   1 out of a maximum of   43
 All quantities printed in internal units (Hartrees-Bohrs-Radians)
 RMS Force = .66590D-03 SwitMx=.10000D-02 MixMth= 2
 Mixed Optimization -- En-DIIS/RFO-DIIS
 Second derivative matrix not updated -- analytic derivatives used.
 ITU=  0
     Eigenvalues ---    0.00236   0.00447   0.09392   0.09939   0.11073
     Eigenvalues ---    0.11336   0.13636   0.16870   0.17782   0.19144
     Eigenvalues ---    0.22337   0.23137   0.27622   0.36934   0.39559
     Eigenvalues ---    0.41223   0.42650   0.52447   0.58543   0.75116
     Eigenvalues ---    0.78362
 RFO step:  Lambda=-4.70107867D-05 EMin= 2.35969675D-03
 Linear search not attempted -- first point.
 Iteration  1 RMS(Cart)=  0.00262450 RMS(Int)=  0.00001190
 Iteration  2 RMS(Cart)=  0.00001108 RMS(Int)=  0.00000573
 Iteration  3 RMS(Cart)=  0.00000000 RMS(Int)=  0.00000573
 ITry= 1 IFail=0 DXMaxC= 6.44D-03 DCOld= 1.00D+10 DXMaxT= 3.00D-01 DXLimC= 3.00D+00 Rises=F
 Variable       Old X    -DE/DX   Delta X   Delta X   Delta X     New X
                                 (Linear)    (Quad)   (Total)
    R1        2.50644  -0.00029   0.00000  -0.00017  -0.00017   2.50626
    R2        2.48732   0.00124   0.00000   0.00461   0.00461   2.49193
    R3        3.47937  -0.00006   0.00000  -0.00218  -0.00218   3.47719
    R4        2.49419  -0.00087   0.00000  -0.00199  -0.00199   2.49220
    R5        2.66756  -0.00026   0.00000  -0.00058  -0.00058   2.66698
    R6        2.68205  -0.00044   0.00000  -0.00072  -0.00072   2.68132
    R7        2.97282  -0.00013   0.00000  -0.00109  -0.00109   2.97173
    R8        1.82923   0.00010   0.00000   0.00020   0.00020   1.82943
    A1        1.91222  -0.00155   0.00000  -0.00577  -0.00577   1.90645
    A2        1.90209   0.00139   0.00000   0.00440   0.00438   1.90648
    A3        1.91150  -0.00109   0.00000  -0.00122  -0.00125   1.91026
    A4        1.92317   0.00133   0.00000   0.00210   0.00209   1.92527
    A5        1.91976  -0.00145   0.00000  -0.00464  -0.00465   1.91512
    A6        1.89489   0.00141   0.00000   0.00531   0.00530   1.90018
    A7        1.87208  -0.00027   0.00000  -0.00155  -0.00155   1.87053
    A8        1.86437  -0.00022   0.00000  -0.00125  -0.00125   1.86311
    A9        1.73359  -0.00017   0.00000  -0.00093  -0.00093   1.73266
   A10        2.15990   0.00025   0.00000   0.00143   0.00142   2.16132
   A11        1.87961   0.00014   0.00000   0.00085   0.00085   1.88047
   A12        1.90675   0.00017   0.00000   0.00083   0.00083   1.90758
   A13        1.92057   0.00008   0.00000   0.00092   0.00092   1.92149
    D1        2.96935  -0.00017   0.00000  -0.00371  -0.00372   2.96563
    D2       -0.96517  -0.00022   0.00000  -0.00394  -0.00394  -0.96911
    D3        1.01570  -0.00017   0.00000  -0.00380  -0.00381   1.01189
    D4        0.87062   0.00005   0.00000  -0.00066  -0.00066   0.86996
    D5       -3.06390   0.00000   0.00000  -0.00089  -0.00089  -3.06478
    D6       -1.08303   0.00005   0.00000  -0.00075  -0.00075  -1.08378
    D7       -1.23287   0.00014   0.00000   0.00044   0.00045  -1.23242
    D8        1.11580   0.00009   0.00000   0.00021   0.00022   1.11602
    D9        3.09667   0.00014   0.00000   0.00035   0.00036   3.09703
   D10       -1.60340  -0.00005   0.00000  -0.00621  -0.00621  -1.60961
   D11        2.73208   0.00027   0.00000  -0.00440  -0.00440   2.72768
   D12        0.34422  -0.00032   0.00000  -0.00775  -0.00775   0.33647
         Item               Value     Threshold  Converged?
 Maximum Force            0.001551     0.000015     NO 
 RMS     Force            0.000666     0.000010     NO 
 Maximum Displacement     0.006439     0.000060     NO 
 RMS     Displacement     0.002623     0.000040     NO 
 Predicted change in Energy=-2.351276D-05
 Lowest energy point so far.  Saving SCF results.
 GradGradGradGradGradGradGradGradGradGradGradGradGradGradGradGradGradGrad

 Leave Link  103 at Sat May 24 06:13:24 2025, MaxMem=  3758096384 cpu:               0.1 elap:               0.0
 (Enter /apps/easybuild-2022/easybuild/software/Compiler/NVHPC/22.11-CUDA-11.7.0/Gaussian/g16c01-CUDA-11.7.0/g16/l202.exe)
                          Input orientation:                          
 ---------------------------------------------------------------------
 Center     Atomic      Atomic             Coordinates (Angstroms)
 Number     Number       Type             X           Y           Z
 ---------------------------------------------------------------------
      1          6           0        0.298243    0.157866    0.124274
      2          9           0       -0.572155    0.677492   -0.730921
      3          9           0        0.090415    0.670915    1.321136
      4         16           0        2.006731    0.536005   -0.444818
      5          8           0        2.883517    0.175988    0.600847
      6          8           0        2.114402    0.043259   -1.771044
      7          8           0        1.920810    2.105854   -0.479089
      8          9           0        0.143051   -1.151059    0.167929
      9          1           0        1.656062    2.405276   -1.360823
 ---------------------------------------------------------------------
                    Distance matrix (angstroms):
                    1          2          3          4          5
     1  C    0.000000
     2  F    1.326258   0.000000
     3  F    1.318670   2.156381   0.000000
     4  S    1.840051   2.598562   2.609418   0.000000
     5  O    2.628896   3.737215   2.926634   1.411305   0.000000
     6  O    2.627508   2.949863   3.748606   1.418896   2.497002
     7  O    2.606037   2.884183   2.941123   1.572572   2.411939
     8  F    1.318816   2.159410   2.156907   2.587459   3.075487
     9  H    3.016627   2.889111   3.556988   2.110973   3.213179
                    6          7          8          9
     6  O    0.000000
     7  O    2.441500   0.000000
     8  F    3.012015   3.766502   0.000000
     9  H    2.440795   0.968091   4.156176   0.000000
 Symmetry turned off by external request.
 Stoichiometry    CHF3O3S
 Rotational constants (GHZ):           2.6782496           1.5943911           1.5839714
 Leave Link  202 at Sat May 24 06:13:24 2025, MaxMem=  3758096384 cpu:               0.1 elap:               0.0
 (Enter /apps/easybuild-2022/easybuild/software/Compiler/NVHPC/22.11-CUDA-11.7.0/Gaussian/g16c01-CUDA-11.7.0/g16/l301.exe)
 Standard basis: def2TZVPP (5D, 7F)
 Ernie: Thresh=  0.10000D-02 Tol=  0.10000D-05 Strict=F.
   273 basis functions,   443 primitive gaussians,   315 cartesian basis functions
    37 alpha electrons       37 beta electrons
       nuclear repulsion energy       573.6596270347 Hartrees.
 IExCor= 4336 DFT=T Ex+Corr=M062X ExCW=0 ScaHFX=  0.540000
 ScaDFX=  1.000000  1.000000  1.000000  1.000000 ScalE2=  1.000000  1.000000
 IRadAn=      5 IRanWt=     -1 IRanGd=            0 ICorTp=0 IEmpDi=  4
 NAtoms=    9 NActive=    9 NUniq=    9 SFac= 1.00D+00 NAtFMM=   60 NAOKFM=F Big=F
 Integral buffers will be    131072 words long.
 Raffenetti 2 integral format.
 Two-electron integral symmetry is turned off.
 Leave Link  301 at Sat May 24 06:13:24 2025, MaxMem=  3758096384 cpu:               0.1 elap:               0.0
 (Enter /apps/easybuild-2022/easybuild/software/Compiler/NVHPC/22.11-CUDA-11.7.0/Gaussian/g16c01-CUDA-11.7.0/g16/l302.exe)
 NPDir=0 NMtPBC=     1 NCelOv=     1 NCel=       1 NClECP=     1 NCelD=      1
         NCelK=      1 NCelE2=     1 NClLst=     1 CellRange=     0.0.
 One-electron integrals computed using PRISM.
   1 Symmetry operations used in ECPInt.
 ECPInt:  NShTT=    4753 NPrTT=   15592 LenC2=    4602 LenP2D=   11601.
 LDataN:  DoStor=T MaxTD1= 6 Len=  172
 NBasis=   273 RedAO= T EigKep=  9.66D-04  NBF=   273
 NBsUse=   273 1.00D-06 EigRej= -1.00D+00 NBFU=   273
 Precomputing XC quadrature grid using
 IXCGrd= 4 IRadAn=           5 IRanWt=          -1 IRanGd=           0 AccXCQ= 0.00D+00.
 Generated NRdTot=       0 NPtTot=           0 NUsed=           0 NTot=          32
 NSgBfM=   311   311   311   311   311 MxSgAt=     9 MxSgA2=     9.
 Leave Link  302 at Sat May 24 06:13:24 2025, MaxMem=  3758096384 cpu:               0.9 elap:               0.2
 (Enter /apps/easybuild-2022/easybuild/software/Compiler/NVHPC/22.11-CUDA-11.7.0/Gaussian/g16c01-CUDA-11.7.0/g16/l303.exe)
 DipDrv:  MaxL=1.
 Leave Link  303 at Sat May 24 06:13:24 2025, MaxMem=  3758096384 cpu:               0.1 elap:               0.0
 (Enter /apps/easybuild-2022/easybuild/software/Compiler/NVHPC/22.11-CUDA-11.7.0/Gaussian/g16c01-CUDA-11.7.0/g16/l401.exe)
 Initial guess from the checkpoint file:  "1502984803620600000001_well.chk"
 B after Tr=    -0.000318   -0.000620    0.000711
         Rot=    1.000000   -0.000091   -0.000108   -0.000127 Ang=  -0.02 deg.
 Guess basis will be translated and rotated to current coordinates.
 JPrj=2 DoOrth=T DoCkMO=T.
 Leave Link  401 at Sat May 24 06:13:24 2025, MaxMem=  3758096384 cpu:               0.2 elap:               0.1
 (Enter /apps/easybuild-2022/easybuild/software/Compiler/NVHPC/22.11-CUDA-11.7.0/Gaussian/g16c01-CUDA-11.7.0/g16/l502.exe)
 Keep R1 ints in memory in canonical form, NReq=715214082.
 FoFCou: FMM=F IPFlag=           0 FMFlag=           0 FMFlg1=           0
         NFxFlg=           0 DoJE=F BraDBF=F KetDBF=F FulRan=T
         wScrn=  0.000000 ICntrl=       600 IOpCl=  0 I1Cent=           0 NGrid=           0
         NMat0=    1 NMatS0=  37401 NMatT0=    0 NMatD0=    1 NMtDS0=    0 NMtDT0=    0
 Symmetry not used in FoFCou.
 Two-electron integral symmetry not used.
 Closed shell SCF:
 Using DIIS extrapolation, IDIIS=  1040.
 NGot=  3758096384 LenX=  3058457086 LenY=  3058357420
 Requested convergence on RMS density matrix=1.00D-08 within  32 cycles.
 Requested convergence on MAX density matrix=1.00D-06.
 Requested convergence on             energy=1.00D-06.
 No special actions if energy rises.

 Cycle   1  Pass 1  IDiag  1:
 E= -962.125853564729    
 DIIS: error= 2.22D-04 at cycle   1 NSaved=   1.
 NSaved= 1 IEnMin= 1 EnMin= -962.125853564729     IErMin= 1 ErrMin= 2.22D-04
 ErrMax= 2.22D-04  0.00D+00 EMaxC= 1.00D-01 BMatC= 3.28D-05 BMatP= 3.28D-05
 IDIUse=3 WtCom= 9.98D-01 WtEn= 2.22D-03
 Coeff-Com:  0.100D+01
 Coeff-En:   0.100D+01
 Coeff:      0.100D+01
 Gap=     1.042 Goal=   None    Shift=    0.000
 RMSDP=1.99D-05 MaxDP=5.77D-04              OVMax= 1.24D-03

 Cycle   2  Pass 1  IDiag  1:
 E= -962.125889066025     Delta-E=       -0.000035501296 Rises=F Damp=F
 DIIS: error= 6.66D-05 at cycle   2 NSaved=   2.
 NSaved= 2 IEnMin= 2 EnMin= -962.125889066025     IErMin= 2 ErrMin= 6.66D-05
 ErrMax= 6.66D-05  0.00D+00 EMaxC= 1.00D-01 BMatC= 1.92D-06 BMatP= 3.28D-05
 IDIUse=1 WtCom= 1.00D+00 WtEn= 0.00D+00
 Coeff-Com: -0.418D-01 0.104D+01
 Coeff:     -0.418D-01 0.104D+01
 Gap=     0.455 Goal=   None    Shift=    0.000
 RMSDP=5.10D-06 MaxDP=2.18D-04 DE=-3.55D-05 OVMax= 4.19D-04

 Cycle   3  Pass 1  IDiag  1:
 E= -962.125890507632     Delta-E=       -0.000001441608 Rises=F Damp=F
 DIIS: error= 5.22D-05 at cycle   3 NSaved=   3.
 NSaved= 3 IEnMin= 3 EnMin= -962.125890507632     IErMin= 3 ErrMin= 5.22D-05
 ErrMax= 5.22D-05  0.00D+00 EMaxC= 1.00D-01 BMatC= 1.39D-06 BMatP= 1.92D-06
 IDIUse=1 WtCom= 1.00D+00 WtEn= 0.00D+00
 Coeff-Com: -0.761D-01 0.501D+00 0.576D+00
 Coeff:     -0.761D-01 0.501D+00 0.576D+00
 Gap=     0.455 Goal=   None    Shift=    0.000
 RMSDP=2.10D-06 MaxDP=1.28D-04 DE=-1.44D-06 OVMax= 1.74D-04

 Cycle   4  Pass 1  IDiag  1:
 E= -962.125891281465     Delta-E=       -0.000000773832 Rises=F Damp=F
 DIIS: error= 9.67D-06 at cycle   4 NSaved=   4.
 NSaved= 4 IEnMin= 4 EnMin= -962.125891281465     IErMin= 4 ErrMin= 9.67D-06
 ErrMax= 9.67D-06  0.00D+00 EMaxC= 1.00D-01 BMatC= 4.33D-08 BMatP= 1.39D-06
 IDIUse=1 WtCom= 1.00D+00 WtEn= 0.00D+00
 Coeff-Com: -0.680D-02-0.292D-01 0.122D+00 0.914D+00
 Coeff:     -0.680D-02-0.292D-01 0.122D+00 0.914D+00
 Gap=     0.455 Goal=   None    Shift=    0.000
 RMSDP=6.10D-07 MaxDP=2.04D-05 DE=-7.74D-07 OVMax= 4.53D-05

 Cycle   5  Pass 1  IDiag  1:
 E= -962.125891316273     Delta-E=       -0.000000034809 Rises=F Damp=F
 DIIS: error= 2.12D-06 at cycle   5 NSaved=   5.
 NSaved= 5 IEnMin= 5 EnMin= -962.125891316273     IErMin= 5 ErrMin= 2.12D-06
 ErrMax= 2.12D-06  0.00D+00 EMaxC= 1.00D-01 BMatC= 3.76D-09 BMatP= 4.33D-08
 IDIUse=1 WtCom= 1.00D+00 WtEn= 0.00D+00
 Coeff-Com:  0.120D-02-0.374D-01 0.115D-01 0.324D+00 0.700D+00
 Coeff:      0.120D-02-0.374D-01 0.115D-01 0.324D+00 0.700D+00
 Gap=     0.455 Goal=   None    Shift=    0.000
 RMSDP=1.81D-07 MaxDP=7.01D-06 DE=-3.48D-08 OVMax= 1.46D-05

 Cycle   6  Pass 1  IDiag  1:
 E= -962.125891318460     Delta-E=       -0.000000002186 Rises=F Damp=F
 DIIS: error= 1.14D-06 at cycle   6 NSaved=   6.
 NSaved= 6 IEnMin= 6 EnMin= -962.125891318460     IErMin= 6 ErrMin= 1.14D-06
 ErrMax= 1.14D-06  0.00D+00 EMaxC= 1.00D-01 BMatC= 1.12D-09 BMatP= 3.76D-09
 IDIUse=1 WtCom= 1.00D+00 WtEn= 0.00D+00
 Coeff-Com:  0.151D-02-0.161D-01-0.126D-01 0.449D-01 0.383D+00 0.600D+00
 Coeff:      0.151D-02-0.161D-01-0.126D-01 0.449D-01 0.383D+00 0.600D+00
 Gap=     0.455 Goal=   None    Shift=    0.000
 RMSDP=7.45D-08 MaxDP=2.90D-06 DE=-2.19D-09 OVMax= 7.46D-06

 Cycle   7  Pass 1  IDiag  1:
 E= -962.125891319211     Delta-E=       -0.000000000751 Rises=F Damp=F
 DIIS: error= 2.56D-07 at cycle   7 NSaved=   7.
 NSaved= 7 IEnMin= 7 EnMin= -962.125891319211     IErMin= 7 ErrMin= 2.56D-07
 ErrMax= 2.56D-07  0.00D+00 EMaxC= 1.00D-01 BMatC= 4.65D-11 BMatP= 1.12D-09
 IDIUse=1 WtCom= 1.00D+00 WtEn= 0.00D+00
 Coeff-Com:  0.408D-03-0.231D-02-0.535D-02-0.913D-02 0.760D-01 0.209D+00
 Coeff-Com:  0.731D+00
 Coeff:      0.408D-03-0.231D-02-0.535D-02-0.913D-02 0.760D-01 0.209D+00
 Coeff:      0.731D+00
 Gap=     0.455 Goal=   None    Shift=    0.000
 RMSDP=2.01D-08 MaxDP=8.31D-07 DE=-7.51D-10 OVMax= 1.70D-06

 Cycle   8  Pass 1  IDiag  1:
 E= -962.125891319255     Delta-E=       -0.000000000045 Rises=F Damp=F
 DIIS: error= 1.01D-07 at cycle   8 NSaved=   8.
 NSaved= 8 IEnMin= 8 EnMin= -962.125891319255     IErMin= 8 ErrMin= 1.01D-07
 ErrMax= 1.01D-07  0.00D+00 EMaxC= 1.00D-01 BMatC= 9.79D-12 BMatP= 4.65D-11
 IDIUse=1 WtCom= 1.00D+00 WtEn= 0.00D+00
 Coeff-Com: -0.113D-05 0.105D-02-0.671D-03-0.933D-02-0.171D-01 0.126D-01
 Coeff-Com:  0.344D+00 0.670D+00
 Coeff:     -0.113D-05 0.105D-02-0.671D-03-0.933D-02-0.171D-01 0.126D-01
 Coeff:      0.344D+00 0.670D+00
 Gap=     0.455 Goal=   None    Shift=    0.000
 RMSDP=7.32D-09 MaxDP=2.85D-07 DE=-4.46D-11 OVMax= 5.59D-07

 SCF Done:  E(RM062X) =  -962.125891319     A.U. after    8 cycles
            NFock=  8  Conv=0.73D-08     -V/T= 2.0027
 KE= 9.595632342219D+02 PE=-3.429213248512D+03 EE= 9.338644959363D+02
 Leave Link  502 at Sat May 24 06:13:36 2025, MaxMem=  3758096384 cpu:              59.7 elap:              11.9
 (Enter /apps/easybuild-2022/easybuild/software/Compiler/NVHPC/22.11-CUDA-11.7.0/Gaussian/g16c01-CUDA-11.7.0/g16/l508.exe)
 QCSCF skips out because SCF is already converged.
 Leave Link  508 at Sat May 24 06:13:36 2025, MaxMem=  3758096384 cpu:               0.1 elap:               0.0
 (Enter /apps/easybuild-2022/easybuild/software/Compiler/NVHPC/22.11-CUDA-11.7.0/Gaussian/g16c01-CUDA-11.7.0/g16/l701.exe)
 ... and contract with generalized density number  0.
 Compute integral first derivatives.
   1 Symmetry operations used in ECPInt.
 ECPInt:  NShTT=    4753 NPrTT=   15592 LenC2=    4602 LenP2D=   11601.
 LDataN:  DoStor=T MaxTD1= 7 Len=  274
 Leave Link  701 at Sat May 24 06:13:36 2025, MaxMem=  3758096384 cpu:               0.7 elap:               0.2
 (Enter /apps/easybuild-2022/easybuild/software/Compiler/NVHPC/22.11-CUDA-11.7.0/Gaussian/g16c01-CUDA-11.7.0/g16/l702.exe)
 L702 exits ... SP integral derivatives will be done elsewhere.
 Leave Link  702 at Sat May 24 06:13:36 2025, MaxMem=  3758096384 cpu:               0.1 elap:               0.0
 (Enter /apps/easybuild-2022/easybuild/software/Compiler/NVHPC/22.11-CUDA-11.7.0/Gaussian/g16c01-CUDA-11.7.0/g16/l703.exe)
 Integral derivatives from FoFJK, PRISM(SPDF).
 Compute integral first derivatives, UseDBF=F ICtDFT=           0.
 Calling FoFJK, ICntrl=      2127 FMM=F ISym2X=0 I1Cent= 0 IOpClX= 0 NMat=1 NMatS=1 NMatT=0.
 FoFJK:  IHMeth= 1 ICntrl=    2127 DoSepK=F KAlg= 0 I1Cent=           0 FoldK=F
 IRaf=         0 NMat=       1 IRICut=       1 DoRegI=T DoRafI=F ISym2E= 0 IDoP0=0 IntGTp=1.
 FoFCou: FMM=F IPFlag=           0 FMFlag=      100000 FMFlg1=         800
         NFxFlg=           0 DoJE=F BraDBF=F KetDBF=F FulRan=T
         wScrn=  0.000000 ICntrl=      2127 IOpCl=  0 I1Cent=           0 NGrid=           0
         NMat0=    1 NMatS0=      1 NMatT0=    0 NMatD0=    1 NMtDS0=    0 NMtDT0=    0
 Symmetry not used in FoFCou.
 Leave Link  703 at Sat May 24 06:13:42 2025, MaxMem=  3758096384 cpu:              40.7 elap:               5.5
 (Enter /apps/easybuild-2022/easybuild/software/Compiler/NVHPC/22.11-CUDA-11.7.0/Gaussian/g16c01-CUDA-11.7.0/g16/l716.exe)
 Dipole        =-5.83195126D-01 8.52647221D-01-4.36875954D-01
 -------------------------------------------------------------------
 Center     Atomic                   Forces (Hartrees/Bohr)
 Number     Number              X              Y              Z
 -------------------------------------------------------------------
      1        6           0.000012562   -0.000001202   -0.000019282
      2        9          -0.000006632   -0.000000186   -0.000007538
      3        9          -0.000010246    0.000007827    0.000017207
      4       16           0.000002076    0.000001368    0.000001340
      5        8           0.000002171    0.000000925    0.000006840
      6        8           0.000005018   -0.000001178    0.000000915
      7        8          -0.000001065    0.000001383    0.000000844
      8        9          -0.000006406   -0.000009047   -0.000000185
      9        1           0.000002522    0.000000111   -0.000000141
 -------------------------------------------------------------------
 Cartesian Forces:  Max     0.000019282 RMS     0.000006979
 Leave Link  716 at Sat May 24 06:13:42 2025, MaxMem=  3758096384 cpu:               0.1 elap:               0.1
 (Enter /apps/easybuild-2022/easybuild/software/Compiler/NVHPC/22.11-CUDA-11.7.0/Gaussian/g16c01-CUDA-11.7.0/g16/l103.exe)

 GradGradGradGradGradGradGradGradGradGradGradGradGradGradGradGradGradGrad
 Berny optimization.
 Using GEDIIS/GDIIS optimizer.
 FormGI is forming the generalized inverse of G from B-inverse, IUseBI=4.
 Internal  Forces:  Max     0.000021975 RMS     0.000005139
 Search for a local minimum.
 Step number   2 out of a maximum of   43
 All quantities printed in internal units (Hartrees-Bohrs-Radians)
 RMS Force = .51395D-05 SwitMx=.10000D-02 MixMth= 2
 Mixed Optimization -- En-DIIS/RFO-DIIS
 Swapping is turned off.
 Update second derivatives using D2CorX and points    1    2
 DE= -2.36D-05 DEPred=-2.35D-05 R= 1.00D+00
 TightC=F SS=  1.41D+00  RLast= 1.77D-02 DXNew= 5.0454D-01 5.3099D-02
 Trust test= 1.00D+00 RLast= 1.77D-02 DXMaxT set to 3.00D-01
 ITU=  1  0
     Eigenvalues ---    0.00236   0.00447   0.09391   0.09937   0.11072
     Eigenvalues ---    0.11337   0.13634   0.16870   0.17798   0.19147
     Eigenvalues ---    0.22336   0.23135   0.27611   0.36869   0.39455
     Eigenvalues ---    0.41215   0.42633   0.52447   0.58622   0.75122
     Eigenvalues ---    0.78366
 En-DIIS/RFO-DIIS/Sim-DIIS IScMMF=       -3 using points:     2    1
 RFO step:  Lambda=-1.82478633D-09.
 NNeg= 0 NGDIIS= 2 SimSw=  2.50D-03 Rises=F DC= -2.36D-05 SmlDif=  1.00D-05
 NRisDI= 0 DoIntr=F SqrtH=F CThrHd= 10.0 CDAdj=  3.0
 RMS Error=  0.2623101859D-04 NUsed= 2 OKEnD=T EnDIS=F
 InvSVX:  RCond= 7.83D-05 Info=           0 Equed=N FErr=  9.01D-16 BErr=  2.92D-17
 DidBck=F Rises=F RFO-DIIS coefs:    1.00666   -0.00666
 Iteration  1 RMS(Cart)=  0.00002592 RMS(Int)=  0.00000004
 Iteration  2 RMS(Cart)=  0.00000000 RMS(Int)=  0.00000004
 ITry= 1 IFail=0 DXMaxC= 7.24D-05 DCOld= 1.00D+10 DXMaxT= 3.00D-01 DXLimC= 3.00D+00 Rises=F
 Variable       Old X    -DE/DX   Delta X   Delta X   Delta X     New X
                                 (Linear)    (Quad)   (Total)
    R1        2.50626   0.00001  -0.00000   0.00001   0.00001   2.50627
    R2        2.49193   0.00002   0.00003   0.00002   0.00005   2.49197
    R3        3.47719   0.00001  -0.00001   0.00004   0.00002   3.47721
    R4        2.49220   0.00001  -0.00001   0.00003   0.00001   2.49221
    R5        2.66698   0.00000  -0.00000   0.00001   0.00000   2.66698
    R6        2.68132   0.00000  -0.00000   0.00001   0.00000   2.68133
    R7        2.97173   0.00000  -0.00001   0.00001   0.00000   2.97173
    R8        1.82943   0.00000   0.00000  -0.00000   0.00000   1.82943
    A1        1.90645  -0.00000  -0.00004   0.00003  -0.00001   1.90644
    A2        1.90648   0.00000   0.00003  -0.00001   0.00001   1.90649
    A3        1.91026  -0.00001  -0.00001  -0.00001  -0.00001   1.91024
    A4        1.92527   0.00000   0.00001  -0.00002  -0.00000   1.92526
    A5        1.91512  -0.00000  -0.00003   0.00001  -0.00002   1.91510
    A6        1.90018   0.00001   0.00004  -0.00000   0.00003   1.90022
    A7        1.87053   0.00000  -0.00001   0.00002   0.00001   1.87054
    A8        1.86311   0.00000  -0.00001   0.00001  -0.00000   1.86311
    A9        1.73266  -0.00000  -0.00001  -0.00001  -0.00001   1.73265
   A10        2.16132  -0.00000   0.00001  -0.00001  -0.00000   2.16132
   A11        1.88047  -0.00000   0.00001  -0.00000   0.00000   1.88047
   A12        1.90758  -0.00000   0.00001  -0.00000   0.00000   1.90758
   A13        1.92149   0.00000   0.00001  -0.00000   0.00000   1.92149
    D1        2.96563  -0.00000  -0.00002   0.00000  -0.00002   2.96561
    D2       -0.96911   0.00000  -0.00003   0.00001  -0.00002  -0.96913
    D3        1.01189  -0.00000  -0.00003   0.00000  -0.00002   1.01187
    D4        0.86996  -0.00000  -0.00000  -0.00001  -0.00002   0.86995
    D5       -3.06478   0.00000  -0.00001  -0.00001  -0.00001  -3.06480
    D6       -1.08378   0.00000  -0.00000  -0.00001  -0.00002  -1.08380
    D7       -1.23242  -0.00000   0.00000  -0.00002  -0.00001  -1.23243
    D8        1.11602   0.00000   0.00000  -0.00001  -0.00001   1.11601
    D9        3.09703  -0.00000   0.00000  -0.00002  -0.00001   3.09701
   D10       -1.60961   0.00000  -0.00004  -0.00002  -0.00006  -1.60967
   D11        2.72768  -0.00000  -0.00003  -0.00004  -0.00007   2.72761
   D12        0.33647   0.00000  -0.00005  -0.00002  -0.00007   0.33640
         Item               Value     Threshold  Converged?
 Maximum Force            0.000022     0.000015     NO 
 RMS     Force            0.000005     0.000010     YES
 Maximum Displacement     0.000072     0.000060     NO 
 RMS     Displacement     0.000026     0.000040     YES
 Predicted change in Energy=-1.066303D-09
 Lowest energy point so far.  Saving SCF results.
 GradGradGradGradGradGradGradGradGradGradGradGradGradGradGradGradGradGrad

 Leave Link  103 at Sat May 24 06:13:42 2025, MaxMem=  3758096384 cpu:               0.1 elap:               0.1
 (Enter /apps/easybuild-2022/easybuild/software/Compiler/NVHPC/22.11-CUDA-11.7.0/Gaussian/g16c01-CUDA-11.7.0/g16/l202.exe)
                          Input orientation:                          
 ---------------------------------------------------------------------
 Center     Atomic      Atomic             Coordinates (Angstroms)
 Number     Number       Type             X           Y           Z
 ---------------------------------------------------------------------
      1          6           0        0.298242    0.157857    0.124269
      2          9           0       -0.572173    0.677493   -0.730909
      3          9           0        0.090410    0.670903    1.321160
      4         16           0        2.006741    0.536008   -0.444820
      5          8           0        2.883540    0.176006    0.600843
      6          8           0        2.114420    0.043262   -1.771045
      7          8           0        1.920788    2.105856   -0.479091
      8          9           0        0.143013   -1.151071    0.167926
      9          1           0        1.656095    2.405280   -1.360841
 ---------------------------------------------------------------------
                    Distance matrix (angstroms):
                    1          2          3          4          5
     1  C    0.000000
     2  F    1.326263   0.000000
     3  F    1.318696   2.156397   0.000000
     4  S    1.840062   2.598589   2.609446   0.000000
     5  O    2.628919   3.737246   2.926662   1.411307   0.000000
     6  O    2.627518   2.949901   3.748638   1.418897   2.497003
     7  O    2.606032   2.884179   2.941136   1.572573   2.411943
     8  F    1.318823   2.159408   2.156921   2.587504   3.075555
     9  H    3.016658   2.889159   3.557044   2.110977   3.213174
                    6          7          8          9
     6  O    0.000000
     7  O    2.441502   0.000000
     8  F    3.012057   3.766523   0.000000
     9  H    2.440790   0.968091   4.156221   0.000000
 Symmetry turned off by external request.
 Stoichiometry    CHF3O3S
 Rotational constants (GHZ):           2.6782370           1.5943592           1.5839417
 Leave Link  202 at Sat May 24 06:13:42 2025, MaxMem=  3758096384 cpu:               0.1 elap:               0.0
 (Enter /apps/easybuild-2022/easybuild/software/Compiler/NVHPC/22.11-CUDA-11.7.0/Gaussian/g16c01-CUDA-11.7.0/g16/l301.exe)
 Standard basis: def2TZVPP (5D, 7F)
 Ernie: Thresh=  0.10000D-02 Tol=  0.10000D-05 Strict=F.
   273 basis functions,   443 primitive gaussians,   315 cartesian basis functions
    37 alpha electrons       37 beta electrons
       nuclear repulsion energy       573.6560731466 Hartrees.
 IExCor= 4336 DFT=T Ex+Corr=M062X ExCW=0 ScaHFX=  0.540000
 ScaDFX=  1.000000  1.000000  1.000000  1.000000 ScalE2=  1.000000  1.000000
 IRadAn=      5 IRanWt=     -1 IRanGd=            0 ICorTp=0 IEmpDi=  4
 NAtoms=    9 NActive=    9 NUniq=    9 SFac= 1.00D+00 NAtFMM=   60 NAOKFM=F Big=F
 Integral buffers will be    131072 words long.
 Raffenetti 2 integral format.
 Two-electron integral symmetry is turned off.
 Leave Link  301 at Sat May 24 06:13:42 2025, MaxMem=  3758096384 cpu:               0.1 elap:               0.0
 (Enter /apps/easybuild-2022/easybuild/software/Compiler/NVHPC/22.11-CUDA-11.7.0/Gaussian/g16c01-CUDA-11.7.0/g16/l302.exe)
 NPDir=0 NMtPBC=     1 NCelOv=     1 NCel=       1 NClECP=     1 NCelD=      1
         NCelK=      1 NCelE2=     1 NClLst=     1 CellRange=     0.0.
 One-electron integrals computed using PRISM.
   1 Symmetry operations used in ECPInt.
 ECPInt:  NShTT=    4753 NPrTT=   15592 LenC2=    4602 LenP2D=   11601.
 LDataN:  DoStor=T MaxTD1= 6 Len=  172
 NBasis=   273 RedAO= T EigKep=  9.66D-04  NBF=   273
 NBsUse=   273 1.00D-06 EigRej= -1.00D+00 NBFU=   273
 Precomputing XC quadrature grid using
 IXCGrd= 4 IRadAn=           5 IRanWt=          -1 IRanGd=           0 AccXCQ= 0.00D+00.
 Generated NRdTot=       0 NPtTot=           0 NUsed=           0 NTot=          32
 NSgBfM=   311   311   311   311   311 MxSgAt=     9 MxSgA2=     9.
 Leave Link  302 at Sat May 24 06:13:42 2025, MaxMem=  3758096384 cpu:               0.9 elap:               0.2
 (Enter /apps/easybuild-2022/easybuild/software/Compiler/NVHPC/22.11-CUDA-11.7.0/Gaussian/g16c01-CUDA-11.7.0/g16/l303.exe)
 DipDrv:  MaxL=1.
 Leave Link  303 at Sat May 24 06:13:42 2025, MaxMem=  3758096384 cpu:               0.1 elap:               0.1
 (Enter /apps/easybuild-2022/easybuild/software/Compiler/NVHPC/22.11-CUDA-11.7.0/Gaussian/g16c01-CUDA-11.7.0/g16/l401.exe)
 Initial guess from the checkpoint file:  "1502984803620600000001_well.chk"
 B after Tr=    -0.000003   -0.000006    0.000006
         Rot=    1.000000   -0.000001   -0.000001   -0.000001 Ang=  -0.00 deg.
 Guess basis will be translated and rotated to current coordinates.
 JPrj=2 DoOrth=T DoCkMO=T.
 Leave Link  401 at Sat May 24 06:13:42 2025, MaxMem=  3758096384 cpu:               0.2 elap:               0.1
 (Enter /apps/easybuild-2022/easybuild/software/Compiler/NVHPC/22.11-CUDA-11.7.0/Gaussian/g16c01-CUDA-11.7.0/g16/l502.exe)
 Keep R1 ints in memory in canonical form, NReq=715214082.
 FoFCou: FMM=F IPFlag=           0 FMFlag=           0 FMFlg1=           0
         NFxFlg=           0 DoJE=F BraDBF=F KetDBF=F FulRan=T
         wScrn=  0.000000 ICntrl=       600 IOpCl=  0 I1Cent=           0 NGrid=           0
         NMat0=    1 NMatS0=  37401 NMatT0=    0 NMatD0=    1 NMtDS0=    0 NMtDT0=    0
 Symmetry not used in FoFCou.
 Two-electron integral symmetry not used.
 Closed shell SCF:
 Using DIIS extrapolation, IDIIS=  1040.
 NGot=  3758096384 LenX=  3058457086 LenY=  3058357420
 Requested convergence on RMS density matrix=1.00D-08 within  32 cycles.
 Requested convergence on MAX density matrix=1.00D-06.
 Requested convergence on             energy=1.00D-06.
 No special actions if energy rises.

 Cycle   1  Pass 1  IDiag  1:
 E= -962.125891318578    
 DIIS: error= 1.71D-06 at cycle   1 NSaved=   1.
 NSaved= 1 IEnMin= 1 EnMin= -962.125891318578     IErMin= 1 ErrMin= 1.71D-06
 ErrMax= 1.71D-06  0.00D+00 EMaxC= 1.00D-01 BMatC= 1.66D-09 BMatP= 1.66D-09
 IDIUse=1 WtCom= 1.00D+00 WtEn= 0.00D+00
 Coeff-Com:  0.100D+01
 Coeff:      0.100D+01
 Gap=     1.042 Goal=   None    Shift=    0.000
 RMSDP=1.40D-07 MaxDP=6.17D-06              OVMax= 8.79D-06

 Cycle   2  Pass 1  IDiag  1:
 E= -962.125891320200     Delta-E=       -0.000000001622 Rises=F Damp=F
 DIIS: error= 3.07D-07 at cycle   2 NSaved=   2.
 NSaved= 2 IEnMin= 2 EnMin= -962.125891320200     IErMin= 2 ErrMin= 3.07D-07
 ErrMax= 3.07D-07  0.00D+00 EMaxC= 1.00D-01 BMatC= 8.00D-11 BMatP= 1.66D-09
 IDIUse=1 WtCom= 1.00D+00 WtEn= 0.00D+00
 Coeff-Com: -0.284D-01 0.103D+01
 Coeff:     -0.284D-01 0.103D+01
 Gap=     0.455 Goal=   None    Shift=    0.000
 RMSDP=3.72D-08 MaxDP=1.25D-06 DE=-1.62D-09 OVMax= 2.66D-06

 Cycle   3  Pass 1  IDiag  1:
 E= -962.125891320306     Delta-E=       -0.000000000106 Rises=F Damp=F
 DIIS: error= 2.72D-07 at cycle   3 NSaved=   3.
 NSaved= 3 IEnMin= 3 EnMin= -962.125891320306     IErMin= 3 ErrMin= 2.72D-07
 ErrMax= 2.72D-07  0.00D+00 EMaxC= 1.00D-01 BMatC= 4.28D-11 BMatP= 8.00D-11
 IDIUse=1 WtCom= 1.00D+00 WtEn= 0.00D+00
 Coeff-Com: -0.601D-01 0.437D+00 0.623D+00
 Coeff:     -0.601D-01 0.437D+00 0.623D+00
[...]
     25 -0.990999D-02  0.833494D-02 -0.986390D-02  0.242649D-01  0.192761D-02
     26  0.963902D-02 -0.928711D-03  0.114159D-01 -0.241011D-02 -0.261151D-01
     27 -0.106945D-02  0.434095D-02  0.554468D-03 -0.232933D-01  0.223193D-01
     28 -0.121369D-01  0.360330D-02 -0.106900D-01  0.245149D-01  0.312041D-02
     29  0.741209D-02 -0.566035D-02  0.105898D-01 -0.216013D-02 -0.249223D-01
     30 -0.329638D-02 -0.390689D-03 -0.271618D-03 -0.230433D-01  0.235121D-01
     31 -0.334494D-01 -0.413901D-02 -0.713445D-03 -0.542978D-03  0.365916D-02
     32 -0.212281D-01 -0.421474D-01  0.390257D-01  0.348162D-01  0.269594D-01
     33  0.590074D-01  0.387452D-01 -0.395801D-01 -0.259663D-01 -0.330791D-01
               21            22            23            24            25 
     21  0.149433D+00
     22  0.455953D-02  0.341462D-01
     23  0.390903D-02  0.767535D-02  0.364246D-01
     24 -0.921091D-02  0.916913D-02  0.972022D-02  0.345579D-01
     25  0.516573D-02  0.953757D-02 -0.189742D-01 -0.166094D-01  0.359230D-01
     26  0.451522D-02 -0.169333D-01  0.977503D-02 -0.160583D-01  0.741121D-02
     27 -0.860471D-02 -0.154395D-01 -0.169294D-01  0.877946D-02  0.977609D-02
     28  0.499629D-02  0.888575D-02 -0.183630D-01 -0.172758D-01  0.100145D-01
     29  0.434579D-02 -0.175851D-01  0.103863D-01 -0.167247D-01 -0.184973D-01
     30 -0.877415D-02 -0.160914D-01 -0.163181D-01  0.811305D-02 -0.161324D-01
     31  0.130917D-02  0.270726D-02  0.254282D-02 -0.545758D-02  0.184953D-02
     32 -0.201303D-02  0.455418D-02 -0.458558D-02  0.139248D-02  0.422477D-02
     33 -0.126097D-02 -0.429635D-02  0.426796D-02  0.193808D-02 -0.482328D-02
               26            27            28            29            30 
     26  0.341196D-01
     27  0.828627D-02  0.339951D-01
     28 -0.172342D-01 -0.161470D-01  0.351204D-01
     29  0.947415D-02 -0.176368D-01  0.787168D-02  0.358431D-01
     30 -0.163591D-01  0.807202D-02  0.895890D-02  0.873216D-02  0.331633D-01
     31  0.168510D-02 -0.631531D-02  0.505398D-02  0.488954D-02 -0.311086D-02
     32 -0.491499D-02  0.106307D-02  0.335997D-02 -0.577979D-02  0.198265D-03
     33  0.374103D-02  0.141115D-02 -0.579044D-02  0.277387D-02  0.443994D-03
               31            32            33 
     31  0.255830D-01
     32 -0.103932D-01  0.615101D-01
     33 -0.120524D-01 -0.439701D-01  0.598499D-01
 Leave Link  716 at Sat May 24 06:15:49 2025, MaxMem=  3758096384 cpu:               0.1 elap:               0.0
 (Enter /apps/easybuild-2022/easybuild/software/Compiler/NVHPC/22.11-CUDA-11.7.0/Gaussian/g16c01-CUDA-11.7.0/g16/l103.exe)

 GradGradGradGradGradGradGradGradGradGradGradGradGradGradGradGradGradGrad
 Berny optimization.
 Red2BG is reusing G-inverse.
 Internal  Forces:  Max     0.000000315 RMS     0.000000075
 Search for a local minimum.
 Step number   1 out of a maximum of    2
 All quantities printed in internal units (Hartrees-Bohrs-Radians)
 Second derivative matrix not updated -- analytic derivatives used.
 ITU=  0
     Eigenvalues ---    0.00235   0.00441   0.09395   0.09880   0.11068
     Eigenvalues ---    0.11353   0.13650   0.16864   0.17829   0.19246
     Eigenvalues ---    0.22329   0.23171   0.27611   0.36830   0.39430
     Eigenvalues ---    0.41142   0.42445   0.52414   0.58630   0.75299
     Eigenvalues ---    0.78514
 Angle between quadratic step and forces=  76.34 degrees.
 Linear search not attempted -- first point.
 Iteration  1 RMS(Cart)=  0.00000092 RMS(Int)=  0.00000000
 ITry= 1 IFail=0 DXMaxC= 2.41D-06 DCOld= 1.00D+10 DXMaxT= 3.00D-01 DXLimC= 3.00D+00 Rises=F
 Variable       Old X    -DE/DX   Delta X   Delta X   Delta X     New X
                                 (Linear)    (Quad)   (Total)
    R1        2.50627   0.00000   0.00000   0.00000   0.00000   2.50627
    R2        2.49197   0.00000   0.00000   0.00000   0.00000   2.49198
    R3        3.47721  -0.00000   0.00000  -0.00000  -0.00000   3.47721
    R4        2.49221   0.00000   0.00000   0.00000   0.00000   2.49221
    R5        2.66698  -0.00000   0.00000  -0.00000  -0.00000   2.66698
    R6        2.68133  -0.00000   0.00000  -0.00000  -0.00000   2.68133
    R7        2.97173  -0.00000   0.00000  -0.00000  -0.00000   2.97173
    R8        1.82943   0.00000   0.00000   0.00000   0.00000   1.82943
    A1        1.90644  -0.00000   0.00000  -0.00000  -0.00000   1.90644
    A2        1.90649   0.00000   0.00000   0.00000   0.00000   1.90649
    A3        1.91024  -0.00000   0.00000  -0.00000  -0.00000   1.91024
    A4        1.92526   0.00000   0.00000   0.00000   0.00000   1.92526
    A5        1.91510  -0.00000   0.00000  -0.00000  -0.00000   1.91510
    A6        1.90022   0.00000   0.00000   0.00000   0.00000   1.90022
    A7        1.87054   0.00000   0.00000  -0.00000  -0.00000   1.87054
    A8        1.86311  -0.00000   0.00000  -0.00000  -0.00000   1.86311
    A9        1.73265   0.00000   0.00000   0.00000   0.00000   1.73265
   A10        2.16132   0.00000   0.00000   0.00000   0.00000   2.16132
   A11        1.88047   0.00000   0.00000   0.00000   0.00000   1.88047
   A12        1.90758  -0.00000   0.00000  -0.00000  -0.00000   1.90758
   A13        1.92149   0.00000   0.00000   0.00000   0.00000   1.92149
    D1        2.96561   0.00000   0.00000   0.00000   0.00000   2.96561
    D2       -0.96913   0.00000   0.00000   0.00000   0.00000  -0.96913
    D3        1.01187  -0.00000   0.00000   0.00000   0.00000   1.01187
    D4        0.86995   0.00000   0.00000   0.00000   0.00000   0.86995
    D5       -3.06480   0.00000   0.00000   0.00000   0.00000  -3.06479
    D6       -1.08380  -0.00000   0.00000   0.00000   0.00000  -1.08380
    D7       -1.23243   0.00000   0.00000   0.00000   0.00000  -1.23243
    D8        1.11601   0.00000   0.00000   0.00000   0.00000   1.11601
    D9        3.09701  -0.00000   0.00000   0.00000   0.00000   3.09701
   D10       -1.60967   0.00000   0.00000  -0.00000  -0.00000  -1.60968
   D11        2.72761  -0.00000   0.00000  -0.00000  -0.00000   2.72761
   D12        0.33640  -0.00000   0.00000  -0.00000  -0.00000   0.33640
         Item               Value     Threshold  Converged?
 Maximum Force            0.000000     0.000015     YES
 RMS     Force            0.000000     0.000010     YES
 Maximum Displacement     0.000002     0.000060     YES
 RMS     Displacement     0.000001     0.000040     YES
 Predicted change in Energy=-2.678328D-13
 Optimization completed.
    -- Stationary point found.
                           ----------------------------
                           !   Optimized Parameters   !
                           ! (Angstroms and Degrees)  !
 --------------------------                            --------------------------
 ! Name  Definition              Value          Derivative Info.                !
 --------------------------------------------------------------------------------
 ! R1    R(1,2)                  1.3263         -DE/DX =    0.0                 !
 ! R2    R(1,3)                  1.3187         -DE/DX =    0.0                 !
 ! R3    R(1,4)                  1.8401         -DE/DX =    0.0                 !
 ! R4    R(1,8)                  1.3188         -DE/DX =    0.0                 !
 ! R5    R(4,5)                  1.4113         -DE/DX =    0.0                 !
 ! R6    R(4,6)                  1.4189         -DE/DX =    0.0                 !
 ! R7    R(4,7)                  1.5726         -DE/DX =    0.0                 !
 ! R8    R(7,9)                  0.9681         -DE/DX =    0.0                 !
 ! A1    A(2,1,3)              109.2309         -DE/DX =    0.0                 !
 ! A2    A(2,1,4)              109.2339         -DE/DX =    0.0                 !
 ! A3    A(2,1,8)              109.4487         -DE/DX =    0.0                 !
 ! A4    A(3,1,4)              110.3094         -DE/DX =    0.0                 !
 ! A5    A(3,1,8)              109.7271         -DE/DX =    0.0                 !
 ! A6    A(4,1,8)              108.8743         -DE/DX =    0.0                 !
 ! A7    A(1,4,5)              107.1741         -DE/DX =    0.0                 !
 ! A8    A(1,4,6)              106.7485         -DE/DX =    0.0                 !
 ! A9    A(1,4,7)               99.2733         -DE/DX =    0.0                 !
 ! A10   A(5,4,6)              123.8345         -DE/DX =    0.0                 !
 ! A11   A(5,4,7)              107.7429         -DE/DX =    0.0                 !
 ! A12   A(6,4,7)              109.2961         -DE/DX =    0.0                 !
 ! A13   A(4,7,9)              110.0933         -DE/DX =    0.0                 !
 ! D1    D(2,1,4,5)            169.917          -DE/DX =    0.0                 !
 ! D2    D(2,1,4,6)            -55.5271         -DE/DX =    0.0                 !
 ! D3    D(2,1,4,7)             57.9758         -DE/DX =    0.0                 !
 ! D4    D(3,1,4,5)             49.8442         -DE/DX =    0.0                 !
 ! D5    D(3,1,4,6)           -175.5999         -DE/DX =    0.0                 !
 ! D6    D(3,1,4,7)            -62.097          -DE/DX =    0.0                 !
 ! D7    D(8,1,4,5)            -70.6131         -DE/DX =    0.0                 !
 ! D8    D(8,1,4,6)             63.9428         -DE/DX =    0.0                 !
 ! D9    D(8,1,4,7)            177.4457         -DE/DX =    0.0                 !
 ! D10   D(1,4,7,9)            -92.2276         -DE/DX =    0.0                 !
 ! D11   D(5,4,7,9)            156.2804         -DE/DX =    0.0                 !
 ! D12   D(6,4,7,9)             19.2745         -DE/DX =    0.0                 !
 --------------------------------------------------------------------------------
 GradGradGradGradGradGradGradGradGradGradGradGradGradGradGradGradGradGrad

 Leave Link  103 at Sat May 24 06:15:49 2025, MaxMem=  3758096384 cpu:               0.1 elap:               0.0
 (Enter /apps/easybuild-2022/easybuild/software/Compiler/NVHPC/22.11-CUDA-11.7.0/Gaussian/g16c01-CUDA-11.7.0/g16/l9999.exe)

 ----------------------------------------------------------------------

 Electric dipole moment (input orientation):
 (Debye = 10**-18 statcoulomb cm , SI units = C m)
                  (au)            (Debye)         (10**-30 SI)
   Tot        0.112157D+01      0.285076D+01      0.950910D+01
   x         -0.583110D+00     -0.148212D+01     -0.494382D+01
   y          0.852641D+00      0.216720D+01      0.722899D+01
   z         -0.436938D+00     -0.111059D+01     -0.370452D+01

 Dipole polarizability, Alpha (input orientation).
 (esu units = cm**3 , SI units = C**2 m**2 J**-1)
 Alpha(0;0):
               (au)            (10**-24 esu)      (10**-40 SI)
   iso        0.412119D+02      0.610698D+01      0.679493D+01
   aniso      0.284452D+01      0.421514D+00      0.468998D+00
   xx         0.412608D+02      0.611421D+01      0.680298D+01
   yx         0.146353D+00      0.216873D-01      0.241303D-01
   yy         0.400211D+02      0.593052D+01      0.659859D+01
   zx         0.284046D+00      0.420912D-01      0.468328D-01
   zy        -0.111030D+01     -0.164530D+00     -0.183064D+00
   zz         0.423539D+02      0.627620D+01      0.698321D+01

 ----------------------------------------------------------------------

 Dipole orientation:
     6          0.41672206         -0.51306903         -0.15772352
     9          0.21132567          0.60976480          2.07352430
     9         -0.79978156         -2.68710834         -0.09763044
    16          3.77966381         -1.03122703         -0.87407024
     8          3.89343247         -2.60734452         -3.02249145
     8          4.98169970          1.36003943         -0.71138620
     8          4.52629413         -2.66856011          1.49085546
     9         -0.56599653          0.95241785         -1.91776519
     1          5.15063160         -1.59005999          2.83020009

 Electric dipole moment (dipole orientation):
 (Debye = 10**-18 statcoulomb cm , SI units = C m)
                  (au)            (Debye)         (10**-30 SI)
   Tot        0.112157D+01      0.285076D+01      0.950910D+01
   x          0.000000D+00      0.000000D+00      0.000000D+00
   y          0.000000D+00      0.000000D+00      0.000000D+00
   z          0.112157D+01      0.285076D+01      0.950910D+01

 Dipole polarizability, Alpha (dipole orientation).
 (esu units = cm**3 , SI units = C**2 m**2 J**-1)
 Alpha(0;0):
               (au)            (10**-24 esu)      (10**-40 SI)
   iso        0.412119D+02      0.610698D+01      0.679493D+01
   aniso      0.284452D+01      0.421514D+00      0.468998D+00
   xx         0.416135D+02      0.616648D+01      0.686114D+01
   yx         0.328283D+00      0.486465D-01      0.541265D-01
   yy         0.406550D+02      0.602445D+01      0.670311D+01
   zx         0.570850D+00      0.845913D-01      0.941205D-01
   zy         0.141975D+01      0.210386D+00      0.234086D+00
   zz         0.413673D+02      0.613000D+01      0.682054D+01

 ----------------------------------------------------------------------
 Unable to Open any file for archive entry.
 1\1\GINC-SPARTAN-BM177\Freq\RM062X\def2TZVPP\C1H1F3O3S1\AKHALILOV\24-M
 ay-2025\0\\#P Geom=AllCheck Guess=TCheck SCRF=Check GenChk RM062X/def2
 TZVPP Freq\\Gaussian input prepared by ASE\\0,1\C,0.2982420344,0.15785
 68087,0.1242688807\F,-0.5721732363,0.6774934229,-0.7309089289\F,0.0904
 098853,0.6709032928,1.321160341\S,2.0067412519,0.5360082904,-0.4448195
 481\O,2.8835395794,0.1760060575,0.6008433397\O,2.114420022,0.043262459
 5,-1.7710454518\O,1.9207884905,2.1058562709,-0.4790910261\F,0.14301314
 76,-1.1510713157,0.1679256017\H,1.6560948253,2.4052797131,-1.360841208
 \\Version=ES64L-G16RevC.01\HF=-962.1258913\RMSD=2.216e-09\RMSF=2.116e-
 06\ZeroPoint=0.0405244\Thermal=0.0479947\ETot=-962.0778966\HTot=-962.0
 769524\GTot=-962.1179533\Dipole=-0.5831104,0.8526406,-0.4369381\Dipole
 Deriv=1.5289951,0.04292,-0.0405731,0.0446229,1.5313876,-0.0152428,-0.0
 291922,-0.0089849,1.5048445,-0.7864479,0.1394766,-0.2602419,0.137967,-
 0.3505743,0.1532474,-0.2432189,0.1465718,-0.492527,-0.4298831,0.031828
 8,0.2426586,0.028996,-0.3349728,-0.1991391,0.2128833,-0.1938169,-0.832
 9519,1.7991937,-0.1375681,0.1241174,-0.0926615,2.2452656,-0.0747331,0.
 1161624,0.0159819,2.1369142,-0.9024978,0.0819245,-0.2151603,0.0744722,
 -0.5410781,0.0722714,-0.3102974,0.1226172,-0.8030509,-0.6206902,0.0145
 905,0.0825409,0.046043,-0.6391544,-0.1223709,0.1845385,-0.2202449,-1.0
 975996,-0.5143102,0.0669765,0.0247664,-0.0662947,-1.3812193,0.191199,0
 .0403047,0.2033727,-0.4750661,-0.3986276,-0.2129303,0.0587121,-0.16859
 9,-0.9144555,0.0610662,0.052057,0.0652138,-0.2621072,0.324268,-0.02721
 85,-0.01682,-0.0045459,0.3848011,-0.0662982,-0.0232373,-0.1307107,0.32
 15441\Polar=41.2607532,0.1463529,40.021138,0.2840455,-1.1103027,42.353
 8903\PG=Unknown\NImag=0\\0.54229284,-0.00373258,0.58197548,0.00326172,
 0.00634008,0.57826494,-0.21270426,0.06185659,-0.10289795,0.22641908,0.
 05822316,-0.10207127,0.04819284,-0.09476536,0.13488586,-0.09964695,0.0
 4932876,-0.15509481,0.15711390,-0.08904933,0.23105596,-0.09749638,0.02
 163197,0.06234468,0.01106038,-0.00572424,-0.04017622,0.07807512,0.0199
 0934,-0.10535954,-0.07928113,-0.00336155,0.01625206,0.00575047,-0.0256
 2661,0.13819494,0.06068539,-0.08226096,-0.28631833,-0.02096260,-0.0018
 8649,-0.07417314,-0.04848643,0.13426332,0.39363187,-0.17677159,-0.0306
 9573,0.05019509,-0.01713919,0.00178826,-0.00302804,0.00554473,-0.00152
 680,-0.00827772,0.72064251,-0.04166563,-0.02859076,0.01303568,0.025445
 43,-0.00393031,0.00789006,0.01628732,-0.00214634,-0.02003437,-0.099183
 40,0.66090137,0.05180437,0.01070814,-0.03998674,-0.03871257,0.00641445
 ,-0.01079191,0.02576084,-0.00569926,-0.03100048,0.21601759,0.03682154,
 1.25219064,0.01253006,0.01657028,-0.03320651,-0.01679323,0.00112833,-0
 .00219246,-0.00258508,0.00001475,0.00567187,-0.35992813,0.09862593,-0.
 30071152,0.34215102,-0.00122064,0.00161180,0.00193983,-0.00138451,0.00
 119012,-0.00096460,-0.00118698,0.00093864,0.00167748,0.09557011,-0.122
 46179,0.11455969,-0.11870069,0.11586444,0.00884299,0.00539166,-0.01053
 485,-0.00054524,-0.00089314,0.00256331,-0.00234518,0.00121167,0.008901
 73,-0.29636152,0.11489705,-0.44548417,0.33031886,-0.13424496,0.4552108
 5,0.01517269,0.01176947,0.01313007,-0.00046947,-0.00053557,0.00080147,
 -0.00858945,0.00106056,0.00996667,-0.10614385,0.02021093,0.05612831,0.
 01986657,-0.00495673,-0.02986960,0.06766101,-0.00370844,-0.00065856,-0
 .00153179,-0.00162115,0.00140883,-0.00059792,-0.00028747,0.00121534,0.
 00145201,0.01611626,-0.16282664,-0.19323368,0.00592456,0.01674229,0.01
 192090,-0.02473095,0.15518110,-0.02686646,-0.01654403,-0.01341859,0.00
 929903,-0.00088690,0.00659966,0.00883997,0.00025125,-0.00539407,0.0504
 8896,-0.19095330,-0.63221019,0.00598428,-0.01521025,-0.01350969,-0.051
 95583,0.22670682,0.65688883,0.00703922,-0.01235519,-0.00231797,0.00187
 974,-0.00249052,0.00163535,-0.00070735,0.00037784,0.00167495,-0.072222
 76,0.00455330,-0.00249897,0.00682743,0.02634839,-0.00841895,0.01625956
 ,0.00810848,-0.00125775,0.08669488,0.02926249,-0.02224998,-0.00603921,
 -0.00809330,0.00521085,-0.00317869,-0.00613278,0.00423184,0.00704238,-
 0.00381465,-0.28279296,-0.00872487,0.00296551,-0.01416183,0.00508362,0
 .00227397,-0.02354200,-0.00686336,-0.05111119,0.41138983,-0.00667773,0
 .00859644,0.00349481,0.00480749,-0.00197672,0.00229535,-0.00067843,0.0
 0074895,0.00197701,-0.00473284,0.02082943,-0.09749239,-0.01183948,0.03
 805252,-0.00302667,0.00092741,-0.04005842,0.00462614,0.13727307,-0.135
 83807,0.52092852,-0.09446402,-0.06052367,0.00702657,0.00985039,0.04038
 943,-0.01262271,0.01543192,0.00906990,0.00000143,0.00845309,-0.0269440
 2,-0.00201534,-0.00353934,0.00235913,-0.00120452,-0.00217579,0.0027275
 8,0.00388779,-0.00528823,-0.00916966,0.00405357,0.07316402,-0.05584491
 ,-0.32225978,0.01678776,0.02249754,-0.05350485,0.03160737,0.00012799,-
 0.05346429,-0.03921807,0.00940700,-0.03331613,-0.00349080,-0.00763896,
 0.00528734,-0.00322476,-0.00342084,0.00624160,0.00665127,-0.00693786,-
 0.00549402,0.00383604,0.04204494,0.45628307,0.00638564,0.01833052,-0.0
 7592447,-0.00717189,0.04042828,-0.00211491,-0.00490548,-0.05719829,-0.
 00787333,-0.00175240,0.00865213,0.00218899,0.00345340,-0.00146353,0.00
 211179,-0.00002542,0.00028816,0.00142042,0.00191704,0.00276426,-0.0008
 5653,0.00201526,-0.01173658,0.08074790,0.00440143,-0.00452113,0.002464
 30,-0.00210343,0.00198650,-0.00188434,-0.00073390,0.00008257,-0.000273
 54,-0.00243480,0.00267014,-0.00577270,0.00147070,0.00317192,-0.0004168
 3,-0.00158126,-0.00252889,0.00158002,-0.04048250,0.04381961,-0.1231330
 6,-0.00143204,-0.00023491,0.00008385,0.04289579,-0.00122279,-0.0023974
 0,0.00055592,-0.00057369,0.00055871,-0.00078612,0.00091080,0.00013735,
 -0.00103530,0.01233895,-0.02483644,0.04264479,0.00111028,-0.00501102,-
 0.00014204,-0.00167083,0.00623806,-0.00315150,0.03350675,-0.07259173,0
 .10580983,0.00004635,0.00022707,-0.00006494,-0.04444582,0.09767539,0.0
 0221104,0.00010937,-0.00048197,-0.00093017,-0.00034298,-0.00033950,-0.
 00035376,-0.00004698,0.00024873,-0.00254911,0.00886179,0.00258626,0.00
 252158,-0.00434619,0.00376770,0.00089691,-0.00494608,-0.00500250,-0.12
 800677,0.14575394,-0.43194623,-0.00114204,-0.00121224,0.00030014,0.127
 35232,-0.14383064,0.43086737\\0.00000056,0.00000019,0.00000218,-0.0000
 0105,0.00000112,0.00000454,0.00000427,-0.00000060,0.00000269,-0.000000
 58,-0.00000031,-0.00000253,0.00000227,-0.00000148,-0.00000449,-0.00000
 411,0.00000050,-0.00000285,0.00000020,-0.00000010,-0.00000094,0.000000
 38,0.00000021,0.00000144,-0.00000193,0.00000046,-0.00000004\\\@
 The archive entry for this job was punched.


 OPTIMIST - A PESSIMIST WHO LACKS EXPERIENCE
 Job cpu time:       0 days  0 hours 14 minutes 25.5 seconds.
 Elapsed time:       0 days  0 hours  1 minutes 53.0 seconds.
 File lengths (MBytes):  RWF=     75 Int=      0 D2E=      0 Chk=      6 Scr=      1
 Normal termination of Gaussian 16 at Sat May 24 06:15:49 2025.
done
