 Entering Gaussian System, Link 0=g16
 Initial command:
 /apps/easybuild-2022/easybuild/software/Compiler/NVHPC/22.11-CUDA-11.7.0/Gaussian/g16c01-CUDA-11.7.0/g16/l1.exe "/tmp/Gau-235454.inp" -scrdir="/tmp/"
 Entering Link 1 = /apps/easybuild-2022/easybuild/software/Compiler/NVHPC/22.11-CUDA-11.7.0/Gaussian/g16c01-CUDA-11.7.0/g16/l1.exe PID=    235455.
  
 Copyright (c) 1988-2019, Gaussian, Inc.  All Rights Reserved.
  
 This is part of the Gaussian(R) 16 program.  It is based on
 the Gaussian(R) 09 system (copyright 2009, Gaussian, Inc.),
 the Gaussian(R) 03 system (copyright 2003, Gaussian, Inc.),
 the Gaussian(R) 98 system (copyright 1998, Gaussian, Inc.),
 the Gaussian(R) 94 system (copyright 1995, Gaussian, Inc.),
 the Gaussian 92(TM) system (copyright 1992, Gaussian, Inc.),
 the Gaussian 90(TM) system (copyright 1990, Gaussian, Inc.),
 the Gaussian 88(TM) system (copyright 1988, Gaussian, Inc.),
 the Gaussian 86(TM) system (copyright 1986, Carnegie Mellon
 University), and the Gaussian 82(TM) system (copyright 1983,
 Carnegie Mellon University). Gaussian is a federally registered
 trademark of Gaussian, Inc.
  
 This software contains proprietary and confidential information,
 including trade secrets, belonging to Gaussian, Inc.
  
 This software is provided under written license and may be
 used, copied, transmitted, or stored only in accord with that
 written license.
  
 The following legend is applicable only to US Government
 contracts under FAR:
  
                    RESTRICTED RIGHTS LEGEND
  
 Use, reproduction and disclosure by the US Government is
 subject to restrictions as set forth in subparagraphs (a)
 and (c) of the Commercial Computer Software - Restricted
 Rights clause in FAR 52.227-19.
  
 Gaussian, Inc.
 340 Quinnipiac St., Bldg. 40, Wallingford CT 06492
  
  
 ---------------------------------------------------------------
 Warning -- This program may not be used in any manner that
 competes with the business of Gaussian, Inc. or will provide
 assistance to any competitor of Gaussian, Inc.  The licensee
 of this program is prohibited from giving any competitor of
 Gaussian, Inc. access to this program.  By using this program,
 the user acknowledges that Gaussian, Inc. is engaged in the
 business of creating and licensing software in the field of
 computational chemistry and represents and warrants to the
 licensee that it is not a competitor of Gaussian, Inc. and that
 it will not use this program in any manner prohibited above.
 ---------------------------------------------------------------
  

 Cite this work as:
 Gaussian 16, Revision C.01,
 M. J. Frisch, G. W. Trucks, H. B. Schlegel, G. E. Scuseria, 
 M. A. Robb, J. R. Cheeseman, G. Scalmani, V. Barone, 
 G. A. Petersson, H. Nakatsuji, X. Li, M. Caricato, A. V. Marenich, 
 J. Bloino, B. G. Janesko, R. Gomperts, B. Mennucci, H. P. Hratchian, 
 J. V. Ortiz, A. F. Izmaylov, J. L. Sonnenberg, D. Williams-Young, 
 F. Ding, F. Lipparini, F. Egidi, J. Goings, B. Peng, A. Petrone, 
 T. Henderson, D. Ranasinghe, V. G. Zakrzewski, J. Gao, N. Rega, 
 G. Zheng, W. Liang, M. Hada, M. Ehara, K. Toyota, R. Fukuda, 
 J. Hasegawa, M. Ishida, T. Nakajima, Y. Honda, O. Kitao, H. Nakai, 
 T. Vreven, K. Throssell, J. A. Montgomery, Jr., J. E. Peralta, 
 F. Ogliaro, M. J. Bearpark, J. J. Heyd, E. N. Brothers, K. N. Kudin, 
 V. N. Staroverov, T. A. Keith, R. Kobayashi, J. Normand, 
 K. Raghavachari, A. P. Rendell, J. C. Burant, S. S. Iyengar, 
 J. Tomasi, M. Cossi, J. M. Millam, M. Klene, C. Adamo, R. Cammi, 
 J. W. Ochterski, R. L. Martin, K. Morokuma, O. Farkas, 
 J. B. Foresman, and D. J. Fox, Gaussian, Inc., Wallingford CT, 2019.
 
 ******************************************
 Gaussian 16:  ES64L-G16RevC.01  3-Jul-2019
                24-May-2025 
 ******************************************
 %mem=28GB
 %chk=2003846667223680600001_r12_insertion_R_6_5_7
 %nprocshared=8
 Will use up to    8 processors via shared memory.
 ----------------------------------------------------------------------
 #P M062X/Def2TZVPP Symm(None) scf(xqc) pop(None) opt(NoFreeze,TS,CalcA
 ll,NoEigentest,MaxCycle=999)
 ----------------------------------------------------------------------
 1/5=1,6=999,10=4,11=1,18=20,26=3,29=2000,38=1/1,3;
 2/9=110,12=2,15=3,17=6,18=5,40=1/2;
 3/5=44,7=202,11=2,25=1,30=1,71=2,74=-55,140=1/1,2,3;
 4//1;
 5/5=2,8=3,13=1,38=5/2,8;
 8/6=4,10=90,11=11/1;
 11/6=1,8=1,9=11,15=111,16=1,31=1/1,2,10;
 10/6=1,31=1/2;
 7/10=1,25=1,30=1/1,2,3,16;
 1/5=1,6=999,10=4,11=1,18=20,26=3/3(3);
 2/9=110,15=3/2;
 7/8=1,9=1,25=1,30=1,44=-1/16;
 99//99;
 2/9=110,15=3/2;
 3/5=44,7=202,11=2,25=1,30=1,71=2,74=-55,140=1/1,2,3;
 4/5=5,16=3,69=1/1;
 5/5=2,8=3,13=1,38=5/2,8;
 8/6=4,10=90,11=11/1;
 11/6=1,8=1,9=11,15=111,16=1,31=1/1,2,10;
 10/6=1,31=1/2;
 7/10=1,25=1,30=1/1,2,3,16;
 1/5=1,6=999,10=4,11=1,18=20,26=3/3(-8);
 2/9=110,15=3/2;
 7/8=1,9=1,25=1,30=1,44=-1/16;
 99//99;
 Leave Link    1 at Sat May 24 02:44:16 2025, MaxMem=  3758096384 cpu:               0.0 elap:               0.0
 (Enter /apps/easybuild-2022/easybuild/software/Compiler/NVHPC/22.11-CUDA-11.7.0/Gaussian/g16c01-CUDA-11.7.0/g16/l101.exe)
 ------------------------------
 Gaussian input prepared by ASE
 ------------------------------
 Symbolic Z-matrix:
 Charge =  0 Multiplicity = 1
 C                    -0.60896  -1.29494   0.3159 
 C                    -0.02      0.05796  -0.15256 
 F                    -0.57999   0.35474  -1.37948 
 F                    -0.52692   1.05275   0.63424 
 S                     1.65545   0.17705  -0.35638 
 O                     2.25164  -0.54593   1.02592 
 O                     2.77949  -1.1907   -0.68161 
 O                     2.25327   1.43687  -0.26733 
 F                    -0.62368  -2.20875  -0.63534 
 F                     0.03349  -1.83072   1.3379 
 F                    -1.86384  -1.1824    0.72058 
 H                     2.69798   2.05367   0.33236 
 
 ITRead=  0  0  0  0  0  0  0  0  0  0  0  0
 MicOpt= -1 -1 -1 -1 -1 -1 -1 -1 -1 -1 -1 -1
 NAtoms=     12 NQM=       12 NQMF=       0 NMMI=      0 NMMIF=      0
                NMic=       0 NMicF=      0.
                    Isotopes and Nuclear Properties:
 (Nuclear quadrupole moments (NQMom) in fm**2, nuclear magnetic moments (NMagM)
  in nuclear magnetons)

  Atom         1           2           3           4           5           6           7           8           9          10
 IAtWgt=          12          12          19          19          32          16          16          16          19          19
 AtmWgt=  12.0000000  12.0000000  18.9984032  18.9984032  31.9720718  15.9949146  15.9949146  15.9949146  18.9984032  18.9984032
 NucSpn=           0           0           1           1           0           0           0           0           1           1
 AtZEff=  -0.0000000  -0.0000000  -0.0000000  -0.0000000  -0.0000000  -0.0000000  -0.0000000  -0.0000000  -0.0000000  -0.0000000
 NQMom=    0.0000000   0.0000000   0.0000000   0.0000000   0.0000000   0.0000000   0.0000000   0.0000000   0.0000000   0.0000000
 NMagM=    0.0000000   0.0000000   2.6288670   2.6288670   0.0000000   0.0000000   0.0000000   0.0000000   2.6288670   2.6288670
 AtZNuc=   6.0000000   6.0000000   9.0000000   9.0000000  16.0000000   8.0000000   8.0000000   8.0000000   9.0000000   9.0000000

  Atom        11          12
 IAtWgt=          19           1
 AtmWgt=  18.9984032   1.0078250
 NucSpn=           1           1
 AtZEff=  -0.0000000  -0.0000000
 NQMom=    0.0000000   0.0000000
 NMagM=    2.6288670   2.7928460
 AtZNuc=   9.0000000   1.0000000
 Leave Link  101 at Sat May 24 02:44:16 2025, MaxMem=  3758096384 cpu:               0.2 elap:               0.2
 (Enter /apps/easybuild-2022/easybuild/software/Compiler/NVHPC/22.11-CUDA-11.7.0/Gaussian/g16c01-CUDA-11.7.0/g16/l103.exe)

 GradGradGradGradGradGradGradGradGradGradGradGradGradGradGradGradGradGrad
 Berny optimization.
 Initialization pass.
                           ----------------------------
                           !    Initial Parameters    !
                           ! (Angstroms and Degrees)  !
 --------------------------                            --------------------------
 ! Name  Definition              Value          Derivative Info.                !
 --------------------------------------------------------------------------------
 ! R1    R(1,2)                  1.5481         calculate D2E/DX2 analytically  !
 ! R2    R(1,9)                  1.3191         calculate D2E/DX2 analytically  !
 ! R3    R(1,10)                 1.3207         calculate D2E/DX2 analytically  !
 ! R4    R(1,11)                 1.3233         calculate D2E/DX2 analytically  !
 ! R5    R(2,3)                  1.3809         calculate D2E/DX2 analytically  !
 ! R6    R(2,4)                  1.3659         calculate D2E/DX2 analytically  !
 ! R7    R(2,5)                  1.692          calculate D2E/DX2 analytically  !
 ! R8    R(5,6)                  1.67           calculate D2E/DX2 analytically  !
 ! R9    R(5,7)                  1.8            calculate D2E/DX2 analytically  !
 ! R10   R(5,8)                  1.3973         calculate D2E/DX2 analytically  !
 ! R11   R(8,12)                 0.9684         calculate D2E/DX2 analytically  !
 ! A1    A(2,1,9)              113.043          calculate D2E/DX2 analytically  !
 ! A2    A(2,1,10)             113.8043         calculate D2E/DX2 analytically  !
 ! A3    A(2,1,11)             112.2704         calculate D2E/DX2 analytically  !
 ! A4    A(9,1,10)             106.4046         calculate D2E/DX2 analytically  !
 ! A5    A(9,1,11)             105.5957         calculate D2E/DX2 analytically  !
 ! A6    A(10,1,11)            105.0194         calculate D2E/DX2 analytically  !
 ! A7    A(1,2,3)              107.6011         calculate D2E/DX2 analytically  !
 ! A8    A(1,2,4)              108.7218         calculate D2E/DX2 analytically  !
 ! A9    A(1,2,5)              118.3383         calculate D2E/DX2 analytically  !
 ! A10   A(3,2,4)              101.8159         calculate D2E/DX2 analytically  !
 ! A11   A(3,2,5)              106.2243         calculate D2E/DX2 analytically  !
 ! A12   A(4,2,5)              112.6827         calculate D2E/DX2 analytically  !
 ! A13   A(2,5,6)              102.9048         calculate D2E/DX2 analytically  !
 ! A14   A(2,5,7)              125.9191         calculate D2E/DX2 analytically  !
 ! A15   A(2,5,8)              118.6487         calculate D2E/DX2 analytically  !
 ! A16   A(6,5,7)               66.2754         calculate D2E/DX2 analytically  !
 ! A17   A(6,5,8)              100.6518         calculate D2E/DX2 analytically  !
 ! A18   A(7,5,8)              115.432          calculate D2E/DX2 analytically  !
 ! A19   A(5,8,12)             144.1127         calculate D2E/DX2 analytically  !
 ! D1    D(9,1,2,3)             45.5092         calculate D2E/DX2 analytically  !
 ! D2    D(9,1,2,4)            155.0416         calculate D2E/DX2 analytically  !
 ! D3    D(9,1,2,5)            -74.7638         calculate D2E/DX2 analytically  !
 ! D4    D(10,1,2,3)           167.0488         calculate D2E/DX2 analytically  !
 ! D5    D(10,1,2,4)           -83.4188         calculate D2E/DX2 analytically  !
 ! D6    D(10,1,2,5)            46.7758         calculate D2E/DX2 analytically  !
 ! D7    D(11,1,2,3)           -73.8252         calculate D2E/DX2 analytically  !
 ! D8    D(11,1,2,4)            35.7072         calculate D2E/DX2 analytically  !
 ! D9    D(11,1,2,5)           165.9018         calculate D2E/DX2 analytically  !
 ! D10   D(1,2,5,6)            -45.7184         calculate D2E/DX2 analytically  !
 ! D11   D(1,2,5,7)             24.1783         calculate D2E/DX2 analytically  !
 ! D12   D(1,2,5,8)           -155.6719         calculate D2E/DX2 analytically  !
 ! D13   D(3,2,5,6)           -166.6986         calculate D2E/DX2 analytically  !
 ! D14   D(3,2,5,7)            -96.8018         calculate D2E/DX2 analytically  !
 ! D15   D(3,2,5,8)             83.3479         calculate D2E/DX2 analytically  !
 ! D16   D(4,2,5,6)             82.6454         calculate D2E/DX2 analytically  !
 ! D17   D(4,2,5,7)            152.5421         calculate D2E/DX2 analytically  !
 ! D18   D(4,2,5,8)            -27.3081         calculate D2E/DX2 analytically  !
 ! D19   D(2,5,8,12)            94.0712         calculate D2E/DX2 analytically  !
 ! D20   D(6,5,8,12)           -17.1336         calculate D2E/DX2 analytically  !
 ! D21   D(7,5,8,12)           -85.7945         calculate D2E/DX2 analytically  !
 --------------------------------------------------------------------------------
 Trust Radius=3.00D-01 FncErr=1.00D-07 GrdErr=1.00D-06 EigMax=2.50D+02 EigMin=1.00D-04
 Number of steps in this run=    100 maximum allowed number of steps=    100.
 Search for a saddle point of order  1.
 GradGradGradGradGradGradGradGradGradGradGradGradGradGradGradGradGradGrad

 Leave Link  103 at Sat May 24 02:44:16 2025, MaxMem=  3758096384 cpu:               0.0 elap:               0.0
 (Enter /apps/easybuild-2022/easybuild/software/Compiler/NVHPC/22.11-CUDA-11.7.0/Gaussian/g16c01-CUDA-11.7.0/g16/l202.exe)
                          Input orientation:                          
 ---------------------------------------------------------------------
 Center     Atomic      Atomic             Coordinates (Angstroms)
 Number     Number       Type             X           Y           Z
 ---------------------------------------------------------------------
      1          6           0       -0.608955   -1.294943    0.315897
      2          6           0       -0.019995    0.057955   -0.152561
      3          9           0       -0.579987    0.354737   -1.379481
      4          9           0       -0.526920    1.052752    0.634244
      5         16           0        1.655448    0.177047   -0.356376
      6          8           0        2.251641   -0.545933    1.025922
      7          8           0        2.779489   -1.190704   -0.681610
      8          8           0        2.253273    1.436874   -0.267334
      9          9           0       -0.623682   -2.208752   -0.635338
     10          9           0        0.033494   -1.830717    1.337897
     11          9           0       -1.863839   -1.182399    0.720577
     12          1           0        2.697977    2.053673    0.332361
 ---------------------------------------------------------------------
                    Distance matrix (angstroms):
                    1          2          3          4          5
     1  C    0.000000
     2  C    1.548115   0.000000
     3  F    2.365711   1.380943   0.000000
     4  F    2.370600   1.365890   2.131931   0.000000
     5  S    2.783204   1.691991   2.464850   2.551650   0.000000
     6  O    3.041079   2.629417   3.822995   3.229490   1.669998
     7  O    3.533757   3.110652   3.763176   4.206769   1.799997
     8  O    3.999416   2.661266   3.230364   2.947858   1.397314
     9  F    1.319133   2.394885   2.669669   3.501230   3.311237
    10  F    1.320711   2.406534   3.540722   3.020527   3.087460
    11  F    1.323316   2.387595   2.901949   2.605898   3.923430
    12  H    4.706304   3.406672   4.069623   3.390123   2.254540
                    6          7          8          9         10
     6  O    0.000000
     7  O    1.900005   0.000000
     8  O    2.367285   2.711585   0.000000
     9  F    3.713790   3.552483   4.658636   0.000000
    10  F    2.582281   3.468215   4.263958   2.113870   0.000000
    11  F    4.175584   4.850432   4.978672   2.104732   2.097921
    12  H    2.727305   3.400112   0.968420   5.489820   4.816540
                   11         12
    11  F    0.000000
    12  H    5.606518   0.000000
 Symmetry turned off by external request.
 Stoichiometry    C2HF5O3S
 Rotational constants (GHZ):           1.5221860           0.8572596           0.7314040
 Leave Link  202 at Sat May 24 02:44:17 2025, MaxMem=  3758096384 cpu:               0.0 elap:               0.0
 (Enter /apps/easybuild-2022/easybuild/software/Compiler/NVHPC/22.11-CUDA-11.7.0/Gaussian/g16c01-CUDA-11.7.0/g16/l301.exe)
 Standard basis: def2TZVPP (5D, 7F)
 Ernie: Thresh=  0.10000D-02 Tol=  0.10000D-05 Strict=F.
   366 basis functions,   596 primitive gaussians,   423 cartesian basis functions
    49 alpha electrons       49 beta electrons
       nuclear repulsion energy       914.3809639956 Hartrees.
 IExCor= 4336 DFT=T Ex+Corr=M062X ExCW=0 ScaHFX=  0.540000
 ScaDFX=  1.000000  1.000000  1.000000  1.000000 ScalE2=  1.000000  1.000000
 IRadAn=      5 IRanWt=     -1 IRanGd=            0 ICorTp=0 IEmpDi=  4
 NAtoms=   12 NActive=   12 NUniq=   12 SFac= 1.00D+00 NAtFMM=   60 NAOKFM=F Big=F
 Integral buffers will be    131072 words long.
 Raffenetti 2 integral format.
 Two-electron integral symmetry is turned off.
 Leave Link  301 at Sat May 24 02:44:17 2025, MaxMem=  3758096384 cpu:               0.0 elap:               0.0
 (Enter /apps/easybuild-2022/easybuild/software/Compiler/NVHPC/22.11-CUDA-11.7.0/Gaussian/g16c01-CUDA-11.7.0/g16/l302.exe)
 NPDir=0 NMtPBC=     1 NCelOv=     1 NCel=       1 NClECP=     1 NCelD=      1
         NCelK=      1 NCelE2=     1 NClLst=     1 CellRange=     0.0.
 One-electron integrals computed using PRISM.
   1 Symmetry operations used in ECPInt.
 ECPInt:  NShTT=    8515 NPrTT=   27988 LenC2=    7953 LenP2D=   19234.
 LDataN:  DoStor=T MaxTD1= 6 Len=  172
 NBasis=   366 RedAO= T EigKep=  5.22D-04  NBF=   366
 NBsUse=   366 1.00D-06 EigRej= -1.00D+00 NBFU=   366
 Precomputing XC quadrature grid using
 IXCGrd= 4 IRadAn=           5 IRanWt=          -1 IRanGd=           0 AccXCQ= 0.00D+00.
 Generated NRdTot=       0 NPtTot=           0 NUsed=           0 NTot=          32
 NSgBfM=   419   419   419   419   419 MxSgAt=    12 MxSgA2=    12.
 Leave Link  302 at Sat May 24 02:44:17 2025, MaxMem=  3758096384 cpu:               0.7 elap:               0.2
 (Enter /apps/easybuild-2022/easybuild/software/Compiler/NVHPC/22.11-CUDA-11.7.0/Gaussian/g16c01-CUDA-11.7.0/g16/l303.exe)
 DipDrv:  MaxL=1.
 Leave Link  303 at Sat May 24 02:44:17 2025, MaxMem=  3758096384 cpu:               0.1 elap:               0.0
 (Enter /apps/easybuild-2022/easybuild/software/Compiler/NVHPC/22.11-CUDA-11.7.0/Gaussian/g16c01-CUDA-11.7.0/g16/l401.exe)
 ExpMin= 9.52D-02 ExpMax= 6.07D+04 ExpMxC= 2.07D+03 IAcc=3 IRadAn=         5 AccDes= 0.00D+00
 Harris functional with IExCor= 1009 and IRadAn=       5 diagonalized for initial guess.
 HarFok:  IExCor= 1009 AccDes= 0.00D+00 IRadAn=         5 IDoV= 1 UseB2=F ITyADJ=14
 ICtDFT=  3500011 ScaDFX=  1.000000  1.000000  1.000000  1.000000
 FoFCou: FMM=F IPFlag=           0 FMFlag=      100000 FMFlg1=           0
         NFxFlg=           0 DoJE=T BraDBF=F KetDBF=T FulRan=T
         wScrn=  0.000000 ICntrl=       500 IOpCl=  0 I1Cent=   200000004 NGrid=           0
         NMat0=    1 NMatS0=      1 NMatT0=    0 NMatD0=    1 NMtDS0=    0 NMtDT0=    0
 Symmetry not used in FoFCou.
 Harris En= -1199.09781058063    
 JPrj=0 DoOrth=F DoCkMO=F.
 Leave Link  401 at Sat May 24 02:44:17 2025, MaxMem=  3758096384 cpu:               4.0 elap:               0.6
 (Enter /apps/easybuild-2022/easybuild/software/Compiler/NVHPC/22.11-CUDA-11.7.0/Gaussian/g16c01-CUDA-11.7.0/g16/l502.exe)
 Keep R1 ints in memory in canonical form, NReq=2293446996.
 FoFCou: FMM=F IPFlag=           0 FMFlag=           0 FMFlg1=           0
         NFxFlg=           0 DoJE=F BraDBF=F KetDBF=F FulRan=T
         wScrn=  0.000000 ICntrl=       600 IOpCl=  0 I1Cent=           0 NGrid=           0
         NMat0=    1 NMatS0=  67161 NMatT0=    0 NMatD0=    1 NMtDS0=    0 NMtDT0=    0
 Symmetry not used in FoFCou.
 Two-electron integral symmetry not used.
 Closed shell SCF:
 Using DIIS extrapolation, IDIIS=  1040.
 NGot=  3758096384 LenX=  1502398672 LenY=  1502219302
 Requested convergence on RMS density matrix=1.00D-08 within  32 cycles.
 Requested convergence on MAX density matrix=1.00D-06.
 Requested convergence on             energy=1.00D-06.
 No special actions if energy rises.
 Integral accuracy reduced to 1.0D-05 until final iterations.

 Cycle   1  Pass 0  IDiag  1:
 E= -1198.79037648905    
 DIIS: error= 3.03D-02 at cycle   1 NSaved=   1.
 NSaved= 1 IEnMin= 1 EnMin= -1198.79037648905     IErMin= 1 ErrMin= 3.03D-02
 ErrMax= 3.03D-02  0.00D+00 EMaxC= 1.00D-01 BMatC= 1.01D+00 BMatP= 1.01D+00
 IDIUse=3 WtCom= 6.97D-01 WtEn= 3.03D-01
 Coeff-Com:  0.100D+01
 Coeff-En:   0.100D+01
 Coeff:      0.100D+01
 Gap=    -0.380 Goal=   None    Shift=    0.000
 GapD=   -0.380 DampG=0.250 DampE=0.500 DampFc=0.2500 IDamp=-1.
 Damping current iteration by 2.50D-01
 RMSDP=1.38D-02 MaxDP=1.96D+00              OVMax= 8.06D-01

 Cycle   2  Pass 0  IDiag  1:
 E= -1198.81273065533     Delta-E=       -0.022354166276 Rises=F Damp=T
 DIIS: error= 1.43D-02 at cycle   2 NSaved=   2.
 NSaved= 2 IEnMin= 2 EnMin= -1198.81273065533     IErMin= 2 ErrMin= 1.43D-02
 ErrMax= 1.43D-02  0.00D+00 EMaxC= 1.00D-01 BMatC= 1.62D-01 BMatP= 1.01D+00
 IDIUse=3 WtCom= 8.57D-01 WtEn= 1.43D-01
 Coeff-Com:  0.178D-01 0.982D+00
 Coeff-En:   0.485D+00 0.515D+00
 Coeff:      0.845D-01 0.915D+00
 Gap=     0.166 Goal=   None    Shift=    0.000
 RMSDP=3.26D-03 MaxDP=4.55D-01 DE=-2.24D-02 OVMax= 9.84D-01

 Cycle   3  Pass 0  IDiag  1:
 E= -1199.27251896954     Delta-E=       -0.459788314213 Rises=F Damp=F
 DIIS: error= 1.85D-02 at cycle   3 NSaved=   3.
 NSaved= 3 IEnMin= 3 EnMin= -1199.27251896954     IErMin= 2 ErrMin= 1.43D-02
 ErrMax= 1.85D-02  0.00D+00 EMaxC= 1.00D-01 BMatC= 2.88D-01 BMatP= 1.62D-01
 IDIUse=2 WtCom= 0.00D+00 WtEn= 1.00D+00
 Coeff-En:   0.000D+00 0.000D+00 0.100D+01
 Coeff:      0.000D+00 0.000D+00 0.100D+01
 Gap=    -0.125 Goal=   None    Shift=    0.000
 RMSDP=7.65D-03 MaxDP=6.49D-01 DE=-4.60D-01 OVMax= 8.34D-01

 Cycle   4  Pass 0  IDiag  1:
 E= -1195.14134506319     Delta-E=        4.131173906347 Rises=F Damp=F
 DIIS: error= 8.63D-02 at cycle   4 NSaved=   4.
 NSaved= 4 IEnMin= 3 EnMin= -1199.27251896954     IErMin= 2 ErrMin= 1.43D-02
 ErrMax= 8.63D-02  0.00D+00 EMaxC= 1.00D-01 BMatC= 4.56D+00 BMatP= 1.62D-01
 IDIUse=2 WtCom= 0.00D+00 WtEn= 1.00D+00
 Coeff-En:   0.000D+00 0.000D+00 0.894D+00 0.106D+00
 Coeff:      0.000D+00 0.000D+00 0.894D+00 0.106D+00
 Gap=     0.042 Goal=   None    Shift=    0.000
 RMSDP=5.93D-03 MaxDP=5.12D-01 DE= 4.13D+00 OVMax= 7.69D-01

 Cycle   5  Pass 0  IDiag  1:
 E= -1199.13124097879     Delta-E=       -3.989895915595 Rises=F Damp=F
 DIIS: error= 2.38D-02 at cycle   5 NSaved=   5.
 NSaved= 5 IEnMin= 3 EnMin= -1199.27251896954     IErMin= 2 ErrMin= 1.43D-02
 ErrMax= 2.38D-02  0.00D+00 EMaxC= 1.00D-01 BMatC= 5.39D-01 BMatP= 1.62D-01
 IDIUse=2 WtCom= 0.00D+00 WtEn= 1.00D+00
 Coeff-En:   0.000D+00 0.000D+00 0.576D+00 0.000D+00 0.424D+00
 Coeff:      0.000D+00 0.000D+00 0.576D+00 0.000D+00 0.424D+00
 Gap=     0.082 Goal=   None    Shift=    0.000
 RMSDP=2.24D-03 MaxDP=1.11D-01 DE=-3.99D+00 OVMax= 4.32D-01

 Cycle   6  Pass 0  IDiag  1:
 E= -1199.55483211958     Delta-E=       -0.423591140791 Rises=F Damp=F
 DIIS: error= 3.13D-03 at cycle   6 NSaved=   6.
 NSaved= 6 IEnMin= 6 EnMin= -1199.55483211958     IErMin= 6 ErrMin= 3.13D-03
 ErrMax= 3.13D-03  0.00D+00 EMaxC= 1.00D-01 BMatC= 1.15D-02 BMatP= 1.62D-01
 IDIUse=3 WtCom= 9.69D-01 WtEn= 3.13D-02
 Coeff-Com: -0.107D+00 0.161D+00 0.176D+00-0.206D-01 0.691D-01 0.721D+00
 Coeff-En:   0.000D+00 0.000D+00 0.000D+00 0.000D+00 0.000D+00 0.100D+01
 Coeff:     -0.103D+00 0.156D+00 0.171D+00-0.199D-01 0.669D-01 0.729D+00
 Gap=     0.125 Goal=   None    Shift=    0.000
 RMSDP=3.84D-04 MaxDP=2.19D-02 DE=-4.24D-01 OVMax= 7.76D-02

 Cycle   7  Pass 0  IDiag  1:
 E= -1199.56649993584     Delta-E=       -0.011667816265 Rises=F Damp=F
 DIIS: error= 1.79D-03 at cycle   7 NSaved=   7.
 NSaved= 7 IEnMin= 7 EnMin= -1199.56649993584     IErMin= 7 ErrMin= 1.79D-03
 ErrMax= 1.79D-03  0.00D+00 EMaxC= 1.00D-01 BMatC= 2.96D-03 BMatP= 1.15D-02
 IDIUse=3 WtCom= 9.82D-01 WtEn= 1.79D-02
 Coeff-Com: -0.603D-01 0.834D-01 0.599D-01-0.616D-02-0.626D-02 0.396D+00
 Coeff-Com:  0.534D+00
 Coeff-En:   0.000D+00 0.000D+00 0.000D+00 0.000D+00 0.000D+00 0.000D+00
 Coeff-En:   0.100D+01
 Coeff:     -0.592D-01 0.819D-01 0.588D-01-0.605D-02-0.615D-02 0.389D+00
 Coeff:      0.542D+00
 Gap=     0.143 Goal=   None    Shift=    0.000
 RMSDP=1.88D-04 MaxDP=1.02D-02 DE=-1.17D-02 OVMax= 4.12D-02

 Cycle   8  Pass 0  IDiag  1:
 E= -1199.57134139112     Delta-E=       -0.004841455278 Rises=F Damp=F
 DIIS: error= 1.22D-03 at cycle   8 NSaved=   8.
 NSaved= 8 IEnMin= 8 EnMin= -1199.57134139112     IErMin= 8 ErrMin= 1.22D-03
 ErrMax= 1.22D-03  0.00D+00 EMaxC= 1.00D-01 BMatC= 8.60D-04 BMatP= 2.96D-03
 IDIUse=3 WtCom= 9.88D-01 WtEn= 1.22D-02
 Coeff-Com: -0.959D-02 0.207D-01 0.527D-02-0.109D-02-0.195D-01 0.996D-01
 Coeff-Com:  0.153D+00 0.752D+00
 Coeff-En:   0.000D+00 0.000D+00 0.000D+00 0.000D+00 0.000D+00 0.000D+00
 Coeff-En:   0.000D+00 0.100D+01
 Coeff:     -0.948D-02 0.205D-01 0.521D-02-0.107D-02-0.192D-01 0.984D-01
 Coeff:      0.151D+00 0.755D+00
 Gap=     0.153 Goal=   None    Shift=    0.000
 RMSDP=2.24D-04 MaxDP=8.38D-03 DE=-4.84D-03 OVMax= 6.58D-02

 Cycle   9  Pass 0  IDiag  1:
 E= -1199.57431757109     Delta-E=       -0.002976179969 Rises=F Damp=F
 DIIS: error= 1.42D-03 at cycle   9 NSaved=   9.
 NSaved= 9 IEnMin= 9 EnMin= -1199.57431757109     IErMin= 8 ErrMin= 1.22D-03
 ErrMax= 1.42D-03  0.00D+00 EMaxC= 1.00D-01 BMatC= 1.80D-03 BMatP= 8.60D-04
 IDIUse=3 WtCom= 9.88D-01 WtEn= 1.22D-02
 Coeff-Com:  0.169D-01-0.142D-01-0.565D-02 0.112D-02-0.210D-01 0.229D-02
 Coeff-Com: -0.135D+00 0.638D+00 0.517D+00
 Coeff-En:   0.000D+00 0.000D+00 0.000D+00 0.000D+00 0.000D+00 0.000D+00
 Coeff-En:   0.000D+00 0.000D+00 0.100D+01
 Coeff:      0.167D-01-0.140D-01-0.559D-02 0.111D-02-0.207D-01 0.227D-02
 Coeff:     -0.133D+00 0.630D+00 0.523D+00
 Gap=     0.161 Goal=   None    Shift=    0.000
 RMSDP=1.77D-04 MaxDP=1.08D-02 DE=-2.98D-03 OVMax= 4.68D-02

 Failed to achieve initial convergence to 1.0D-08 in 10 cycles.
 Switch to full accuracy anyway.
 Cycle  10  Pass 1  IDiag  1:
 E= -1199.57688679637     Delta-E=       -0.002569225281 Rises=F Damp=F
 DIIS: error= 1.35D-03 at cycle   1 NSaved=   1.
 NSaved= 1 IEnMin= 1 EnMin= -1199.57688679637     IErMin= 1 ErrMin= 1.35D-03
 ErrMax= 1.35D-03  0.00D+00 EMaxC= 1.00D-01 BMatC= 1.66D-03 BMatP= 1.66D-03
 IDIUse=3 WtCom= 9.87D-01 WtEn= 1.35D-02
 Coeff-Com:  0.100D+01
 Coeff-En:   0.100D+01
 Coeff:      0.100D+01
 Gap=     0.165 Goal=   None    Shift=    0.000
 RMSDP=1.77D-04 MaxDP=1.08D-02 DE=-2.57D-03 OVMax= 3.23D-02

 Cycle  11  Pass 1  IDiag  1:
 E= -1199.57626192249     Delta-E=        0.000624873884 Rises=F Damp=F
 DIIS: error= 2.51D-03 at cycle   2 NSaved=   2.
 NSaved= 2 IEnMin= 1 EnMin= -1199.57688679637     IErMin= 1 ErrMin= 1.35D-03
 ErrMax= 2.51D-03  0.00D+00 EMaxC= 1.00D-01 BMatC= 4.47D-03 BMatP= 1.66D-03
 IDIUse=3 WtCom= 1.66D-01 WtEn= 8.34D-01
 Coeff-Com:  0.633D+00 0.367D+00
 Coeff-En:   0.567D+00 0.433D+00
 Coeff:      0.578D+00 0.422D+00
 Gap=     0.166 Goal=   None    Shift=    0.000
 RMSDP=2.41D-04 MaxDP=1.34D-02 DE= 6.25D-04 OVMax= 5.89D-02

 Cycle  12  Pass 1  IDiag  1:
 E= -1199.58067082442     Delta-E=       -0.004408901937 Rises=F Damp=F
 DIIS: error= 1.18D-03 at cycle   3 NSaved=   3.
 NSaved= 3 IEnMin= 3 EnMin= -1199.58067082442     IErMin= 3 ErrMin= 1.18D-03
 ErrMax= 1.18D-03  0.00D+00 EMaxC= 1.00D-01 BMatC= 1.22D-03 BMatP= 1.66D-03
 IDIUse=3 WtCom= 9.88D-01 WtEn= 1.18D-02
 Coeff-Com: -0.800D+00 0.288D+00 0.151D+01
 Coeff-En:   0.000D+00 0.751D-01 0.925D+00
 Coeff:     -0.791D+00 0.286D+00 0.151D+01
 Gap=     0.169 Goal=   None    Shift=    0.000
 RMSDP=2.96D-04 MaxDP=1.26D-02 DE=-4.41D-03 OVMax= 8.08D-02

 Cycle  13  Pass 1  IDiag  1:
 E= -1199.58445809044     Delta-E=       -0.003787266017 Rises=F Damp=F
 DIIS: error= 4.97D-04 at cycle   4 NSaved=   4.
 NSaved= 4 IEnMin= 4 EnMin= -1199.58445809044     IErMin= 4 ErrMin= 4.97D-04
 ErrMax= 4.97D-04  0.00D+00 EMaxC= 1.00D-01 BMatC= 3.10D-04 BMatP= 1.22D-03
 IDIUse=3 WtCom= 9.95D-01 WtEn= 4.97D-03
 Coeff-Com: -0.115D+01 0.680D-01 0.103D+01 0.105D+01
 Coeff-En:   0.000D+00 0.000D+00 0.000D+00 0.100D+01
 Coeff:     -0.114D+01 0.677D-01 0.102D+01 0.105D+01
 Gap=     0.175 Goal=   None    Shift=    0.000
 RMSDP=3.40D-04 MaxDP=1.42D-02 DE=-3.79D-03 OVMax= 9.42D-02

 Cycle  14  Pass 1  IDiag  1:
 E= -1199.58686264550     Delta-E=       -0.002404555062 Rises=F Damp=F
 DIIS: error= 4.00D-04 at cycle   5 NSaved=   5.
 NSaved= 5 IEnMin= 5 EnMin= -1199.58686264550     IErMin= 5 ErrMin= 4.00D-04
 ErrMax= 4.00D-04  0.00D+00 EMaxC= 1.00D-01 BMatC= 8.21D-05 BMatP= 3.10D-04
 IDIUse=3 WtCom= 9.96D-01 WtEn= 4.00D-03
 Coeff-Com: -0.303D+00 0.222D-01 0.923D-01 0.542D+00 0.647D+00
 Coeff-En:   0.000D+00 0.000D+00 0.000D+00 0.000D+00 0.100D+01
 Coeff:     -0.302D+00 0.221D-01 0.919D-01 0.540D+00 0.648D+00
 Gap=     0.173 Goal=   None    Shift=    0.000
 RMSDP=6.37D-05 MaxDP=2.33D-03 DE=-2.40D-03 OVMax= 1.75D-02

 Cycle  15  Pass 1  IDiag  1:
 E= -1199.58712384674     Delta-E=       -0.000261201242 Rises=F Damp=F
 DIIS: error= 4.57D-04 at cycle   6 NSaved=   6.
 NSaved= 6 IEnMin= 6 EnMin= -1199.58712384674     IErMin= 5 ErrMin= 4.00D-04
 ErrMax= 4.57D-04  0.00D+00 EMaxC= 1.00D-01 BMatC= 9.14D-05 BMatP= 8.21D-05
 IDIUse=3 WtCom= 9.96D-01 WtEn= 4.00D-03
 Coeff-Com:  0.339D+00-0.115D-01-0.525D+00-0.937D-01 0.697D+00 0.594D+00
 Coeff-En:   0.000D+00 0.000D+00 0.000D+00 0.000D+00 0.000D+00 0.100D+01
 Coeff:      0.338D+00-0.115D-01-0.523D+00-0.933D-01 0.694D+00 0.596D+00
 Gap=     0.169 Goal=   None    Shift=    0.000
 RMSDP=9.51D-05 MaxDP=3.53D-03 DE=-2.61D-04 OVMax= 2.62D-02

 Cycle  16  Pass 1  IDiag  1:
 E= -1199.58748585275     Delta-E=       -0.000362006009 Rises=F Damp=F
 DIIS: error= 1.62D-04 at cycle   7 NSaved=   7.
 NSaved= 7 IEnMin= 7 EnMin= -1199.58748585275     IErMin= 7 ErrMin= 1.62D-04
 ErrMax= 1.62D-04  0.00D+00 EMaxC= 1.00D-01 BMatC= 1.97D-05 BMatP= 8.21D-05
 IDIUse=3 WtCom= 9.98D-01 WtEn= 1.62D-03
 Coeff-Com:  0.296D+00-0.178D-01-0.343D+00-0.414D+00 0.395D-02 0.171D+00
 Coeff-Com:  0.130D+01
 Coeff-En:   0.000D+00 0.000D+00 0.000D+00 0.000D+00 0.000D+00 0.000D+00
 Coeff-En:   0.100D+01
 Coeff:      0.296D+00-0.178D-01-0.342D+00-0.413D+00 0.394D-02 0.170D+00
 Coeff:      0.130D+01
 Gap=     0.168 Goal=   None    Shift=    0.000
 RMSDP=1.78D-04 MaxDP=6.00D-03 DE=-3.62D-04 OVMax= 5.03D-02

 Cycle  17  Pass 1  IDiag  1:
 E= -1199.58778756365     Delta-E=       -0.000301710900 Rises=F Damp=F
 DIIS: error= 4.64D-05 at cycle   8 NSaved=   8.
 NSaved= 8 IEnMin= 8 EnMin= -1199.58778756365     IErMin= 8 ErrMin= 4.64D-05
 ErrMax= 4.64D-05  0.00D+00 EMaxC= 1.00D-01 BMatC= 1.88D-06 BMatP= 1.97D-05
 IDIUse=1 WtCom= 1.00D+00 WtEn= 0.00D+00
 Coeff-Com:  0.109D-01-0.372D-02 0.147D-02-0.863D-01-0.143D+00-0.431D-01
 Coeff-Com:  0.446D+00 0.818D+00
 Coeff:      0.109D-01-0.372D-02 0.147D-02-0.863D-01-0.143D+00-0.431D-01
 Coeff:      0.446D+00 0.818D+00
 Gap=     0.168 Goal=   None    Shift=    0.000
 RMSDP=3.04D-05 MaxDP=1.13D-03 DE=-3.02D-04 OVMax= 8.58D-03

 Cycle  18  Pass 1  IDiag  1:
 E= -1199.58780089980     Delta-E=       -0.000013336146 Rises=F Damp=F
 DIIS: error= 2.31D-05 at cycle   9 NSaved=   9.
 NSaved= 9 IEnMin= 9 EnMin= -1199.58780089980     IErMin= 9 ErrMin= 2.31D-05
 ErrMax= 2.31D-05  0.00D+00 EMaxC= 1.00D-01 BMatC= 4.20D-07 BMatP= 1.88D-06
 IDIUse=1 WtCom= 1.00D+00 WtEn= 0.00D+00
 Coeff-Com: -0.496D-01 0.516D-02 0.828D-01 0.306D-01-0.926D-01-0.507D-01
 Coeff-Com: -0.753D-01 0.230D+00 0.920D+00
 Coeff:     -0.496D-01 0.516D-02 0.828D-01 0.306D-01-0.926D-01-0.507D-01
 Coeff:     -0.753D-01 0.230D+00 0.920D+00
 Gap=     0.167 Goal=   None    Shift=    0.000
 RMSDP=1.24D-05 MaxDP=5.22D-04 DE=-1.33D-05 OVMax= 3.46D-03

 Cycle  19  Pass 1  IDiag  1:
 E= -1199.58780322059     Delta-E=       -0.000002320788 Rises=F Damp=F
 DIIS: error= 1.49D-05 at cycle  10 NSaved=  10.
 NSaved=10 IEnMin=10 EnMin= -1199.58780322059     IErMin=10 ErrMin= 1.49D-05
 ErrMax= 1.49D-05  0.00D+00 EMaxC= 1.00D-01 BMatC= 2.52D-07 BMatP= 4.20D-07
 IDIUse=1 WtCom= 1.00D+00 WtEn= 0.00D+00
 Coeff-Com: -0.131D-01 0.284D-02 0.167D-01 0.120D-01-0.733D-03-0.192D-01
 Coeff-Com: -0.719D-01-0.541D-01 0.362D+00 0.765D+00
 Coeff:     -0.131D-01 0.284D-02 0.167D-01 0.120D-01-0.733D-03-0.192D-01
 Coeff:     -0.719D-01-0.541D-01 0.362D+00 0.765D+00
 Gap=     0.167 Goal=   None    Shift=    0.000
 RMSDP=8.03D-06 MaxDP=2.91D-04 DE=-2.32D-06 OVMax= 2.23D-03

 Cycle  20  Pass 1  IDiag  1:
 E= -1199.58780378431     Delta-E=       -0.000000563726 Rises=F Damp=F
 DIIS: error= 3.04D-06 at cycle  11 NSaved=  11.
 NSaved=11 IEnMin=11 EnMin= -1199.58780378431     IErMin=11 ErrMin= 3.04D-06
 ErrMax= 3.04D-06  0.00D+00 EMaxC= 1.00D-01 BMatC= 8.67D-09 BMatP= 2.52D-07
 IDIUse=1 WtCom= 1.00D+00 WtEn= 0.00D+00
 Coeff-Com:  0.295D-02 0.445D-04-0.562D-02-0.248D-02 0.897D-02 0.186D-02
 Coeff-Com:  0.850D-02-0.346D-02-0.836D-01-0.703D-01 0.114D+01
 Coeff:      0.295D-02 0.445D-04-0.562D-02-0.248D-02 0.897D-02 0.186D-02
 Coeff:      0.850D-02-0.346D-02-0.836D-01-0.703D-01 0.114D+01
 Gap=     0.167 Goal=   None    Shift=    0.000
 RMSDP=6.68D-07 MaxDP=2.39D-05 DE=-5.64D-07 OVMax= 1.02D-04

 Cycle  21  Pass 1  IDiag  1:
 E= -1199.58780381352     Delta-E=       -0.000000029204 Rises=F Damp=F
 DIIS: error= 1.57D-06 at cycle  12 NSaved=  12.
 NSaved=12 IEnMin=12 EnMin= -1199.58780381352     IErMin=12 ErrMin= 1.57D-06
 ErrMax= 1.57D-06  0.00D+00 EMaxC= 1.00D-01 BMatC= 2.39D-09 BMatP= 8.67D-09
 IDIUse=1 WtCom= 1.00D+00 WtEn= 0.00D+00
 Coeff-Com:  0.123D-02-0.158D-03-0.117D-02-0.334D-03 0.295D-02 0.291D-02
 Coeff-Com:  0.441D-02 0.658D-02-0.830D-01-0.190D+00 0.391D+00 0.865D+00
 Coeff:      0.123D-02-0.158D-03-0.117D-02-0.334D-03 0.295D-02 0.291D-02
 Coeff:      0.441D-02 0.658D-02-0.830D-01-0.190D+00 0.391D+00 0.865D+00
 Gap=     0.167 Goal=   None    Shift=    0.000
 RMSDP=4.46D-07 MaxDP=1.57D-05 DE=-2.92D-08 OVMax= 8.49D-05

 Cycle  22  Pass 1  IDiag  1:
 E= -1199.58780382191     Delta-E=       -0.000000008388 Rises=F Damp=F
 DIIS: error= 1.00D-06 at cycle  13 NSaved=  13.
 NSaved=13 IEnMin=13 EnMin= -1199.58780382191     IErMin=13 ErrMin= 1.00D-06
 ErrMax= 1.00D-06  0.00D+00 EMaxC= 1.00D-01 BMatC= 1.32D-09 BMatP= 2.39D-09
 IDIUse=1 WtCom= 1.00D+00 WtEn= 0.00D+00
 Coeff-Com:  0.404D-03-0.110D-03-0.369D-03 0.230D-03 0.840D-03 0.516D-03
 Coeff-Com: -0.614D-05 0.479D-02-0.163D-01-0.790D-01-0.639D-01 0.373D+00
 Coeff-Com:  0.779D+00
 Coeff:      0.404D-03-0.110D-03-0.369D-03 0.230D-03 0.840D-03 0.516D-03
 Coeff:     -0.614D-05 0.479D-02-0.163D-01-0.790D-01-0.639D-01 0.373D+00
 Coeff:      0.779D+00
 Gap=     0.167 Goal=   None    Shift=    0.000
 RMSDP=1.69D-07 MaxDP=7.83D-06 DE=-8.39D-09 OVMax= 3.62D-05

 Cycle  23  Pass 1  IDiag  1:
 E= -1199.58780382403     Delta-E=       -0.000000002121 Rises=F Damp=F
 DIIS: error= 3.34D-07 at cycle  14 NSaved=  14.
 NSaved=14 IEnMin=14 EnMin= -1199.58780382403     IErMin=14 ErrMin= 3.34D-07
 ErrMax= 3.34D-07  0.00D+00 EMaxC= 1.00D-01 BMatC= 1.12D-10 BMatP= 1.32D-09
 IDIUse=1 WtCom= 1.00D+00 WtEn= 0.00D+00
 Coeff-Com: -0.231D-04 0.674D-04 0.963D-04 0.159D-03-0.790D-04-0.535D-03
 Coeff-Com: -0.253D-02-0.136D-02 0.239D-01 0.331D-01-0.113D+00-0.124D+00
 Coeff-Com:  0.865D-01 0.110D+01
 Coeff:     -0.231D-04 0.674D-04 0.963D-04 0.159D-03-0.790D-04-0.535D-03
 Coeff:     -0.253D-02-0.136D-02 0.239D-01 0.331D-01-0.113D+00-0.124D+00
 Coeff:      0.865D-01 0.110D+01
 Gap=     0.167 Goal=   None    Shift=    0.000
 RMSDP=1.96D-07 MaxDP=8.95D-06 DE=-2.12D-09 OVMax= 5.15D-05

 Cycle  24  Pass 1  IDiag  1:
 E= -1199.58780382476     Delta-E=       -0.000000000738 Rises=F Damp=F
 DIIS: error= 2.52D-07 at cycle  15 NSaved=  15.
 NSaved=15 IEnMin=15 EnMin= -1199.58780382476     IErMin=15 ErrMin= 2.52D-07
 ErrMax= 2.52D-07  0.00D+00 EMaxC= 1.00D-01 BMatC= 2.86D-11 BMatP= 1.12D-10
 IDIUse=1 WtCom= 1.00D+00 WtEn= 0.00D+00
 Coeff-Com: -0.144D-03 0.450D-04 0.265D-03 0.104D-03-0.155D-03-0.109D-03
 Coeff-Com: -0.155D-02-0.196D-02 0.989D-02 0.237D-01-0.109D-01-0.938D-01
 Coeff-Com: -0.162D+00 0.184D+00 0.105D+01
 Coeff:     -0.144D-03 0.450D-04 0.265D-03 0.104D-03-0.155D-03-0.109D-03
 Coeff:     -0.155D-02-0.196D-02 0.989D-02 0.237D-01-0.109D-01-0.938D-01
 Coeff:     -0.162D+00 0.184D+00 0.105D+01
 Gap=     0.167 Goal=   None    Shift=    0.000
 RMSDP=7.61D-08 MaxDP=3.98D-06 DE=-7.38D-10 OVMax= 1.71D-05

 Cycle  25  Pass 1  IDiag  1:
 E= -1199.58780382501     Delta-E=       -0.000000000242 Rises=F Damp=F
 DIIS: error= 1.48D-07 at cycle  16 NSaved=  16.
 NSaved=16 IEnMin=16 EnMin= -1199.58780382501     IErMin=16 ErrMin= 1.48D-07
 ErrMax= 1.48D-07  0.00D+00 EMaxC= 1.00D-01 BMatC= 9.41D-12 BMatP= 2.86D-11
 IDIUse=1 WtCom= 1.00D+00 WtEn= 0.00D+00
 Coeff-Com:  0.207D-04-0.302D-04-0.785D-04-0.566D-04 0.284D-04 0.209D-03
 Coeff-Com:  0.570D-03-0.155D-03-0.607D-02-0.424D-02 0.387D-01 0.145D-01
 Coeff-Com: -0.841D-01-0.386D+00 0.338D+00 0.109D+01
 Coeff:      0.207D-04-0.302D-04-0.785D-04-0.566D-04 0.284D-04 0.209D-03
 Coeff:      0.570D-03-0.155D-03-0.607D-02-0.424D-02 0.387D-01 0.145D-01
 Coeff:     -0.841D-01-0.386D+00 0.338D+00 0.109D+01
 Gap=     0.167 Goal=   None    Shift=    0.000
 RMSDP=4.34D-08 MaxDP=2.06D-06 DE=-2.42D-10 OVMax= 1.53D-05

 Cycle  26  Pass 1  IDiag  1:
 E= -1199.58780382510     Delta-E=       -0.000000000094 Rises=F Damp=F
 DIIS: error= 8.50D-08 at cycle  17 NSaved=  17.
 NSaved=17 IEnMin=17 EnMin= -1199.58780382510     IErMin=17 ErrMin= 8.50D-08
 ErrMax= 8.50D-08  0.00D+00 EMaxC= 1.00D-01 BMatC= 4.54D-12 BMatP= 9.41D-12
 IDIUse=1 WtCom= 1.00D+00 WtEn= 0.00D+00
 Coeff-Com: -0.302D-04-0.167D-04 0.515D-05 0.159D-04-0.620D-04 0.606D-04
 Coeff-Com:  0.523D-03 0.575D-03-0.400D-02-0.601D-02 0.116D-01 0.249D-01
 Coeff-Com:  0.352D-01-0.133D+00-0.232D+00 0.279D+00 0.102D+01
 Coeff:     -0.302D-04-0.167D-04 0.515D-05 0.159D-04-0.620D-04 0.606D-04
 Coeff:      0.523D-03 0.575D-03-0.400D-02-0.601D-02 0.116D-01 0.249D-01
 Coeff:      0.352D-01-0.133D+00-0.232D+00 0.279D+00 0.102D+01
 Gap=     0.167 Goal=   None    Shift=    0.000
 RMSDP=1.79D-08 MaxDP=9.42D-07 DE=-9.37D-11 OVMax= 5.69D-06

 Cycle  27  Pass 1  IDiag  1:
 E= -1199.58780382518     Delta-E=       -0.000000000077 Rises=F Damp=F
 DIIS: error= 2.78D-08 at cycle  18 NSaved=  18.
 NSaved=18 IEnMin=18 EnMin= -1199.58780382518     IErMin=18 ErrMin= 2.78D-08
 ErrMax= 2.78D-08  0.00D+00 EMaxC= 1.00D-01 BMatC= 4.81D-13 BMatP= 4.54D-12
 IDIUse=1 WtCom= 1.00D+00 WtEn= 0.00D+00
 Coeff-Com:  0.136D-05 0.131D-05 0.177D-05-0.698D-05-0.543D-04-0.251D-04
 Coeff-Com:  0.620D-04 0.203D-03 0.211D-03 0.201D-03-0.683D-02-0.139D-02
 Coeff-Com:  0.262D-01 0.536D-01-0.101D+00-0.134D+00 0.102D+00 0.106D+01
 Coeff:      0.136D-05 0.131D-05 0.177D-05-0.698D-05-0.543D-04-0.251D-04
 Coeff:      0.620D-04 0.203D-03 0.211D-03 0.201D-03-0.683D-02-0.139D-02
 Coeff:      0.262D-01 0.536D-01-0.101D+00-0.134D+00 0.102D+00 0.106D+01
 Gap=     0.167 Goal=   None    Shift=    0.000
 RMSDP=1.12D-08 MaxDP=4.65D-07 DE=-7.69D-11 OVMax= 2.70D-06

 Cycle  28  Pass 1  IDiag  1:
 E= -1199.58780382521     Delta-E=       -0.000000000035 Rises=F Damp=F
 DIIS: error= 6.81D-09 at cycle  19 NSaved=  19.
 NSaved=19 IEnMin=19 EnMin= -1199.58780382521     IErMin=19 ErrMin= 6.81D-09
 ErrMax= 6.81D-09  0.00D+00 EMaxC= 1.00D-01 BMatC= 5.48D-14 BMatP= 4.81D-13
 IDIUse=1 WtCom= 1.00D+00 WtEn= 0.00D+00
 Coeff-Com:  0.465D-05 0.164D-05-0.426D-05-0.504D-05-0.105D-04-0.114D-04
 Coeff-Com: -0.168D-04 0.202D-04 0.366D-03 0.559D-03-0.348D-02-0.242D-02
 Coeff-Com:  0.672D-02 0.319D-01-0.117D-01-0.759D-01-0.934D-01 0.383D+00
 Coeff-Com:  0.764D+00
 Coeff:      0.465D-05 0.164D-05-0.426D-05-0.504D-05-0.105D-04-0.114D-04
 Coeff:     -0.168D-04 0.202D-04 0.366D-03 0.559D-03-0.348D-02-0.242D-02
 Coeff:      0.672D-02 0.319D-01-0.117D-01-0.759D-01-0.934D-01 0.383D+00
 Coeff:      0.764D+00
 Gap=     0.167 Goal=   None    Shift=    0.000
 RMSDP=3.20D-09 MaxDP=1.06D-07 DE=-3.50D-11 OVMax= 8.21D-07

 SCF Done:  E(RM062X) =  -1199.58780383     A.U. after   28 cycles
            NFock= 28  Conv=0.32D-08     -V/T= 2.0025
 KE= 1.196566777534D+03 PE=-4.675826787939D+03 EE= 1.365291242584D+03
 Leave Link  502 at Sat May 24 02:45:31 2025, MaxMem=  3758096384 cpu:             279.2 elap:              73.6
 (Enter /apps/easybuild-2022/easybuild/software/Compiler/NVHPC/22.11-CUDA-11.7.0/Gaussian/g16c01-CUDA-11.7.0/g16/l508.exe)
 QCSCF skips out because SCF is already converged.
 Leave Link  508 at Sat May 24 02:45:31 2025, MaxMem=  3758096384 cpu:               0.0 elap:               0.0
 (Enter /apps/easybuild-2022/easybuild/software/Compiler/NVHPC/22.11-CUDA-11.7.0/Gaussian/g16c01-CUDA-11.7.0/g16/l801.exe)
 DoSCS=F DFT=T ScalE2(SS,OS)=  1.000000  1.000000
 Range of M.O.s used for correlation:     1   366
 NBasis=   366 NAE=    49 NBE=    49 NFC=     0 NFV=     0
 NROrb=    366 NOA=    49 NOB=    49 NVA=   317 NVB=   317

 **** Warning!!: The largest alpha MO coefficient is  0.17126810D+02

 Leave Link  801 at Sat May 24 02:45:31 2025, MaxMem=  3758096384 cpu:               0.0 elap:               0.0
 (Enter /apps/easybuild-2022/easybuild/software/Compiler/NVHPC/22.11-CUDA-11.7.0/Gaussian/g16c01-CUDA-11.7.0/g16/l1101.exe)
 Using compressed storage, NAtomX=    12.
 Will process     13 centers per pass.
   1 Symmetry operations used in ECPInt.
 ECPInt:  NShTT=    8515 NPrTT=   27988 LenC2=    7953 LenP2D=   19234.
 LDataN:  DoStor=T MaxTD1= 7 Len=  274
 Leave Link 1101 at Sat May 24 02:45:31 2025, MaxMem=  3758096384 cpu:               1.0 elap:               0.2
 (Enter /apps/easybuild-2022/easybuild/software/Compiler/NVHPC/22.11-CUDA-11.7.0/Gaussian/g16c01-CUDA-11.7.0/g16/l1102.exe)
 Symmetrizing basis deriv contribution to polar:
 IMax=3 JMax=2 DiffMx= 0.00D+00
 Leave Link 1102 at Sat May 24 02:45:31 2025, MaxMem=  3758096384 cpu:               0.1 elap:               0.0
 (Enter /apps/easybuild-2022/easybuild/software/Compiler/NVHPC/22.11-CUDA-11.7.0/Gaussian/g16c01-CUDA-11.7.0/g16/l1110.exe)
 Forming Gx(P) for the SCF density, NAtomX=    12.
 Integral derivatives from FoFJK, PRISM(SPDF).
 Do as many integral derivatives as possible in FoFJK.
 G2DrvN: MDV=    3758095012.
 G2DrvN: will do    13 centers at a time, making    1 passes.
 Calling FoFCou, ICntrl=  3107 FMM=F I1Cent=   0 AccDes= 0.00D+00.
 FoFJK:  IHMeth= 1 ICntrl=    3107 DoSepK=F KAlg= 0 I1Cent=           0 FoldK=F
 IRaf=         0 NMat=       1 IRICut=       1 DoRegI=T DoRafI=F ISym2E= 0 IDoP0=0 IntGTp=1.
 FoFCou: FMM=F IPFlag=           0 FMFlag=      100000 FMFlg1=           0
         NFxFlg=           0 DoJE=F BraDBF=F KetDBF=F FulRan=T
         wScrn=  0.000000 ICntrl=      3107 IOpCl=  0 I1Cent=           0 NGrid=           0
         NMat0=    1 NMatS0=      1 NMatT0=    0 NMatD0=    1 NMtDS0=    0 NMtDT0=    0
 Symmetry not used in FoFCou.
 End of G2Drv F.D. properties file   721 does not exist.
 End of G2Drv F.D. properties file   722 does not exist.
 End of G2Drv F.D. properties file   788 does not exist.
 Leave Link 1110 at Sat May 24 02:46:26 2025, MaxMem=  3758096384 cpu:             433.7 elap:              54.7
 (Enter /apps/easybuild-2022/easybuild/software/Compiler/NVHPC/22.11-CUDA-11.7.0/Gaussian/g16c01-CUDA-11.7.0/g16/l1002.exe)
 Minotr:  Closed shell wavefunction.
          IDoAtm=111111111111
          Direct CPHF calculation.
          Differentiating once with respect to electric field.
                with respect to dipole field.
          Differentiating once with respect to nuclear coordinates.
          Requested convergence is 1.0D-08 RMS, and 1.0D-07 maximum.
          Secondary convergence is 1.0D-12 RMS, and 1.0D-12 maximum.
          NewPWx=T KeepS1=F KeepF1=F KeepIn=T MapXYZ=F SortEE=F KeepMc=T.
         3605 words used for storage of precomputed grid.
 Keep R1 ints in memory in canonical form, NReq=2293452911.
 FoFCou: FMM=F IPFlag=           0 FMFlag=           0 FMFlg1=           0
         NFxFlg=           0 DoJE=F BraDBF=F KetDBF=F FulRan=T
         wScrn=  0.000000 ICntrl=       600 IOpCl=  0 I1Cent=           0 NGrid=           0
         NMat0=    1 NMatS0=  67161 NMatT0=    0 NMatD0=    1 NMtDS0=    0 NMtDT0=    0
 Symmetry not used in FoFCou.
 Two-electron integral symmetry not used.
          MDV=    3758096384 using IRadAn=       1.
          Solving linear equations simultaneously, MaxMat=       0.
          There are    39 degrees of freedom in the 1st order CPHF.  IDoFFX=6 NUNeed=     3.
     36 vectors produced by pass  0 Test12= 3.98D-14 2.56D-09 XBig12= 4.42D+01 3.62D+00.
 AX will form    36 AO Fock derivatives at one time.
     36 vectors produced by pass  1 Test12= 3.98D-14 2.56D-09 XBig12= 2.32D+01 8.82D-01.
     36 vectors produced by pass  2 Test12= 3.98D-14 2.56D-09 XBig12= 1.11D+00 2.07D-01.
     36 vectors produced by pass  3 Test12= 3.98D-14 2.56D-09 XBig12= 3.53D-02 3.91D-02.
     36 vectors produced by pass  4 Test12= 3.98D-14 2.56D-09 XBig12= 4.98D-04 3.81D-03.
     36 vectors produced by pass  5 Test12= 3.98D-14 2.56D-09 XBig12= 5.81D-06 2.96D-04.
     36 vectors produced by pass  6 Test12= 3.98D-14 2.56D-09 XBig12= 4.62D-08 2.82D-05.
     22 vectors produced by pass  7 Test12= 3.98D-14 2.56D-09 XBig12= 2.44D-10 2.13D-06.
      4 vectors produced by pass  8 Test12= 3.98D-14 2.56D-09 XBig12= 1.38D-12 1.25D-07.
      2 vectors produced by pass  9 Test12= 3.98D-14 2.56D-09 XBig12= 7.95D-15 1.01D-08.
 InvSVY:  IOpt=1 It=  1 EMax= 1.93D-15
 Solved reduced A of dimension   280 with    39 vectors.
 FullF1:  Do perturbations      1 to       3.
 Isotropic polarizability for W=    0.000000       65.55 Bohr**3.
 End of Minotr F.D. properties file   721 does not exist.
 End of Minotr F.D. properties file   722 does not exist.
 End of Minotr F.D. properties file   788 does not exist.
 Leave Link 1002 at Sat May 24 02:48:06 2025, MaxMem=  3758096384 cpu:             788.9 elap:             100.4
 (Enter /apps/easybuild-2022/easybuild/software/Compiler/NVHPC/22.11-CUDA-11.7.0/Gaussian/g16c01-CUDA-11.7.0/g16/l701.exe)
 ... and contract with generalized density number  0.
 Compute integral second derivatives.
   1 Symmetry operations used in ECPInt.
 ECPInt:  NShTT=    8515 NPrTT=   27988 LenC2=    7953 LenP2D=   19234.
 LDataN:  DoStor=T MaxTD1= 8 Len=  415
 Leave Link  701 at Sat May 24 02:48:07 2025, MaxMem=  3758096384 cpu:               0.9 elap:               0.2
 (Enter /apps/easybuild-2022/easybuild/software/Compiler/NVHPC/22.11-CUDA-11.7.0/Gaussian/g16c01-CUDA-11.7.0/g16/l702.exe)
 L702 exits ... SP integral derivatives will be done elsewhere.
 Leave Link  702 at Sat May 24 02:48:07 2025, MaxMem=  3758096384 cpu:               0.0 elap:               0.0
 (Enter /apps/easybuild-2022/easybuild/software/Compiler/NVHPC/22.11-CUDA-11.7.0/Gaussian/g16c01-CUDA-11.7.0/g16/l703.exe)
 Integral derivatives from FoFJK, PRISM(SPDF).
 Compute integral second derivatives, UseDBF=F ICtDFT=           0.
 Calling FoFJK, ICntrl=    100127 FMM=F ISym2X=0 I1Cent= 0 IOpClX= 0 NMat=1 NMatS=1 NMatT=0.
 FoFJK:  IHMeth= 1 ICntrl=  100127 DoSepK=F KAlg= 0 I1Cent=           0 FoldK=F
 IRaf=         0 NMat=       1 IRICut=       1 DoRegI=T DoRafI=F ISym2E= 0 IDoP0=0 IntGTp=1.
 FoFCou: FMM=F IPFlag=           0 FMFlag=      100000 FMFlg1=         800
         NFxFlg=           0 DoJE=F BraDBF=F KetDBF=F FulRan=T
         wScrn=  0.000000 ICntrl=    100127 IOpCl=  0 I1Cent=           0 NGrid=           0
         NMat0=    1 NMatS0=      1 NMatT0=    0 NMatD0=    1 NMtDS0=    0 NMtDT0=    0
 Symmetry not used in FoFCou.
 Leave Link  703 at Sat May 24 02:50:08 2025, MaxMem=  3758096384 cpu:             966.7 elap:             121.8
 (Enter /apps/easybuild-2022/easybuild/software/Compiler/NVHPC/22.11-CUDA-11.7.0/Gaussian/g16c01-CUDA-11.7.0/g16/l716.exe)
 Dipole        = 2.77167150D-01 1.79039479D+00 1.80204872D-01
 Polarizability= 7.30538703D+01-5.11417652D+00 6.59548357D+01
                 1.21740798D+00-2.20391227D-01 5.76495631D+01
 -------------------------------------------------------------------
 Center     Atomic                   Forces (Hartrees/Bohr)
 Number     Number              X              Y              Z
 -------------------------------------------------------------------
      1        6          -0.010288860   -0.038511023    0.016380466
      2        6          -0.102991361    0.039995608    0.026256831
      3        9           0.013680674   -0.013406137    0.014281878
      4        9          -0.000256367   -0.006494319    0.008840789
      5       16           0.085261317   -0.239388910   -0.016430281
      6        8          -0.031260229    0.021397703   -0.081809300
      7        8          -0.018232702    0.028200021    0.038672681
      8        8           0.059810561    0.182899639   -0.006541976
      9        9           0.009573521    0.004985627   -0.018233688
     10        9           0.009448788    0.008454373    0.004247098
     11        9          -0.007585756    0.021449252   -0.003965386
     12        1          -0.007159585   -0.009581834    0.018300889
 -------------------------------------------------------------------
 Cartesian Forces:  Max     0.239388910 RMS     0.060035610
 Force constants in Cartesian coordinates: 
                1             2             3             4             5 
      1  0.582131D+00
      2  0.187420D-01  0.608640D+00
      3 -0.406034D-02 -0.150942D-02  0.594292D+00
      4 -0.922936D-01 -0.174224D-01  0.131429D-01  0.507201D+00
      5 -0.741400D-01 -0.141481D+00  0.348504D-01 -0.163533D-01  0.444232D+00
      6  0.290874D-01  0.253911D-01 -0.479486D-01 -0.340742D-01 -0.156595D-01
      7  0.855177D-03 -0.572515D-02 -0.232896D-02 -0.764637D-01  0.248292D-01
      8  0.170790D-01 -0.413860D-02  0.293739D-01  0.433502D-02 -0.858988D-01
      9 -0.184879D-01  0.260017D-02 -0.333411D-01 -0.418427D-01  0.504943D-01
     10  0.952706D-03 -0.184598D-02 -0.415456D-03 -0.888700D-01  0.819160D-01
     11  0.230713D-01 -0.313809D-01 -0.303328D-01  0.479615D-01 -0.178419D+00
     12  0.205081D-02 -0.568890D-02 -0.322478D-02  0.387209D-01 -0.795551D-01
     13 -0.188816D-01 -0.653550D-02 -0.103400D-01 -0.223952D+00 -0.810460D-03
     14 -0.172887D-01 -0.135739D-01  0.169805D-01 -0.273503D-01 -0.303208D-03
     15 -0.123308D-01  0.368296D-01 -0.126132D-01 -0.225577D-01 -0.412448D-01
     16  0.124386D-01 -0.153218D-01  0.160945D-01 -0.100182D-01  0.273958D-01
     17 -0.493266D-02  0.131534D-01 -0.109450D-01  0.801127D-02 -0.110192D-01
     18 -0.107596D-01  0.233662D-01 -0.203542D-01  0.165971D-01 -0.314927D-02
     19  0.234163D-02 -0.644969D-02  0.380155D-02  0.138473D-03 -0.205319D-01
     20 -0.232148D-02  0.508738D-02 -0.545328D-02 -0.348511D-02  0.657340D-02
     21  0.158400D-01 -0.328755D-01  0.244203D-01 -0.414108D-02  0.216133D-01
     22  0.198148D-02  0.619018D-02 -0.690217D-03  0.658644D-02 -0.225564D-01
     23  0.817532D-02  0.221180D-02 -0.400914D-03  0.212083D-01 -0.975305D-02
     24  0.826599D-02 -0.946296D-02  0.481390D-02  0.236434D-01  0.221417D-01
     25 -0.763880D-01 -0.164937D-01 -0.617540D-02  0.904004D-02 -0.343700D-02
     26 -0.137150D-01 -0.221973D+00 -0.122120D+00 -0.264830D-02 -0.242217D-01
     27 -0.793631D-02 -0.126242D+00 -0.187852D+00 -0.256666D-02 -0.603966D-02
     28 -0.122345D+00  0.460552D-01 -0.822645D-01  0.653623D-02  0.129919D-02
     29  0.441541D-01 -0.135732D+00  0.888943D-01  0.151029D-01 -0.473139D-02
     30 -0.786994D-01  0.905289D-01 -0.220811D+00 -0.130525D-01  0.731533D-02
     31 -0.291703D+00  0.362940D-03  0.725299D-01 -0.450488D-01 -0.641202D-03
     32  0.375382D-03 -0.778466D-01 -0.260341D-03 -0.315480D-01 -0.300564D-02
     33  0.747695D-01  0.503011D-04 -0.986759D-01  0.246944D-01  0.121295D-02
     34  0.910594D-03 -0.155602D-02  0.706024D-03  0.714429D-02  0.303002D-02
     35  0.800744D-03 -0.296688D-02  0.922222D-03  0.218843D-02  0.802747D-02
     36  0.226052D-02 -0.298759D-02  0.129464D-02  0.143613D-02  0.802034D-02
                6             7             8             9            10 
      6  0.375199D+00
      7 -0.626616D-01  0.112263D+00
      8  0.391552D-01 -0.244587D-01  0.817814D-01
      9 -0.182111D+00  0.875455D-01 -0.341668D-01  0.298525D+00
     10  0.523806D-01  0.142787D-01 -0.467852D-02 -0.871961D-02  0.913051D-01
     11 -0.710750D-01 -0.361460D-02  0.533677D-02 -0.265104D-01 -0.786567D-01
     12 -0.109167D+00  0.475039D-02 -0.426369D-01 -0.825453D-01 -0.568778D-01
     13  0.108067D+00 -0.295371D-01  0.843521D-02 -0.115966D-01 -0.580392D-01
     14 -0.397819D-01 -0.659261D-04  0.471411D-02 -0.356014D-02  0.449873D-01
     15  0.437518D-01 -0.104059D-01 -0.186255D-02  0.375549D-02  0.199335D-01
     16 -0.531385D-01 -0.133186D-01 -0.669336D-03 -0.772358D-02  0.125417D-01
     17  0.404829D-01  0.794809D-02  0.102621D-02  0.522197D-02 -0.175375D-01
     18  0.407321D-01  0.613056D-02  0.484320D-03  0.472933D-02 -0.273687D-01
     19 -0.259434D-01 -0.868999D-02  0.246439D-03 -0.103147D-02  0.176009D-01
     20  0.158370D-01  0.841102D-02 -0.133398D-02  0.209694D-02 -0.664218D-02
     21 -0.684023D-01 -0.161425D-01 -0.260501D-03 -0.959164D-02  0.316948D-01
     22 -0.713857D-02 -0.433266D-02  0.344881D-02 -0.475958D-02  0.477670D-02
     23 -0.213878D-02 -0.794865D-02  0.541750D-02 -0.543094D-02 -0.834559D-02
     24 -0.206079D-01 -0.781953D-02  0.272878D-02 -0.301189D-02 -0.527259D-02
     25 -0.114104D-01  0.704242D-03 -0.176559D-03  0.193186D-02 -0.625931D-03
     26 -0.303350D-01  0.168968D-03  0.812728D-03  0.104928D-02 -0.323978D-02
     27 -0.683720D-02  0.191565D-02  0.208332D-02  0.527100D-02 -0.938774D-03
     28 -0.294482D-02  0.731043D-03 -0.106685D-02  0.137024D-02  0.178403D-02
     29  0.304542D-01 -0.454696D-03 -0.737591D-02  0.677657D-02 -0.162333D-02
     30 -0.207617D-01  0.108957D-02  0.513598D-02 -0.296499D-02  0.147020D-02
     31  0.137901D-01  0.501636D-02 -0.324585D-02  0.337970D-02  0.611260D-02
     32  0.895510D-02  0.186000D-02 -0.107812D-03  0.111196D-02 -0.337972D-02
     33 -0.452533D-02 -0.101071D-02 -0.389345D-03  0.209011D-02 -0.372475D-02
     34 -0.601333D-02 -0.150653D-02  0.751322D-03 -0.658369D-04 -0.181734D-02
     35 -0.128549D-02 -0.949561D-03 -0.233672D-03  0.317149D-03 -0.953993D-03
     36  0.678427D-03 -0.106246D-02  0.354677D-03 -0.804290D-03 -0.216152D-02
               11            12            13            14            15 
     11  0.213046D+00
     12  0.131759D+00  0.186391D+00
     13  0.308251D-01  0.281604D-01  0.262947D+00
     14 -0.278097D-01 -0.231487D-01  0.627329D+00  0.658245D+00
     15 -0.745080D-02  0.632649D-02 -0.184432D+00  0.286918D+00 -0.240276D+00
     16 -0.897044D-02 -0.545936D-02  0.978230D-01 -0.126549D+00  0.165761D+00
     17  0.119957D-01  0.861273D-02 -0.170511D+00  0.565863D-01 -0.173251D+00
     18  0.155135D-01  0.128434D-01 -0.243618D+00  0.208817D+00 -0.257997D+00
     19 -0.633679D-02 -0.845970D-02  0.101054D+00 -0.100384D+00  0.318922D-01
     20  0.214445D-02  0.598229D-02 -0.149825D+00  0.103411D+00 -0.539072D-01
     21 -0.195599D-01 -0.165574D-01  0.299378D+00 -0.241325D+00  0.327197D+00
     22 -0.192225D-03 -0.181352D-02 -0.126367D+00 -0.394952D+00  0.111235D-01
     23  0.121202D-01  0.421548D-02 -0.335051D+00 -0.748007D+00 -0.201439D-01
     24  0.237989D-02 -0.686340D-04 -0.101141D-01 -0.183012D+00  0.108506D+00
     25 -0.437635D-02  0.105568D-03 -0.373920D-03  0.163087D-02  0.176159D-02
     26 -0.862438D-02  0.450440D-04 -0.137016D-02  0.191757D-02 -0.770168D-02
     27 -0.239888D-04  0.140205D-02  0.290183D-02 -0.206710D-02 -0.168240D-02
     28 -0.164494D-02 -0.333853D-03  0.471829D-02 -0.214705D-02  0.636714D-02
     29 -0.573566D-03 -0.177581D-02 -0.108853D-03  0.121571D-02 -0.383248D-02
     30  0.453799D-02  0.246604D-02  0.422610D-02 -0.488185D-02  0.700805D-02
     31  0.391510D-03 -0.208366D-02  0.663410D-02  0.463899D-02 -0.720538D-02
     32  0.237638D-02  0.243590D-02  0.105648D-02  0.218051D-02 -0.916009D-02
     33  0.258705D-03  0.236008D-02 -0.929441D-03 -0.363687D-02  0.575144D-02
     34  0.154268D-02  0.123978D-02 -0.160263D-01 -0.984836D-02  0.933979D-04
     35 -0.211330D-03 -0.245505D-03 -0.343374D-02 -0.385753D-01 -0.519277D-02
     36  0.503280D-03 -0.226100D-03  0.182969D-01 -0.113023D-01  0.102722D-01
               16            17            18            19            20 
     16 -0.171108D-01
     17  0.896870D-01  0.201532D-01
     18  0.103248D+00 -0.141866D+00  0.401058D-01
     19 -0.493153D-01  0.608240D-01  0.126588D+00 -0.652777D-01
     20  0.648166D-01 -0.715363D-01 -0.134923D+00  0.715192D-01 -0.731405D-01
     21 -0.163711D+00  0.161831D+00  0.123665D+00 -0.114540D+00  0.134717D+00
     22 -0.137456D-01  0.311758D-01  0.240872D-01 -0.926360D-03  0.224981D-01
     23 -0.277051D-01 -0.197639D-01  0.380868D-01 -0.243746D-02  0.236529D-01
     24 -0.374199D-01  0.888690D-01  0.332989D-01 -0.957152D-02  0.275683D-01
     25 -0.401443D-03 -0.364756D-04  0.164118D-03 -0.496860D-03 -0.315132D-03
     26  0.351851D-02 -0.400078D-02 -0.581915D-02  0.157658D-02 -0.238652D-03
     27 -0.162235D-02  0.448747D-03  0.180260D-02 -0.923653D-04  0.871997D-03
     28 -0.188525D-01 -0.542632D-02  0.980986D-02 -0.220291D-02  0.237888D-02
     29 -0.516312D-02 -0.535138D-02 -0.339874D-02  0.114567D-02 -0.368142D-03
     30 -0.428593D-02  0.556002D-02  0.986502D-02 -0.245622D-02  0.243576D-02
     31  0.822364D-03 -0.262865D-02 -0.180878D-02 -0.658213D-03 -0.831014D-03
     32  0.396405D-02 -0.305557D-02 -0.539838D-02  0.108780D-02 -0.135671D-02
     33 -0.295057D-02  0.263857D-02  0.395226D-02 -0.191980D-03  0.101025D-02
     34 -0.863118D-03  0.342634D-02 -0.307007D-02  0.643196D-02 -0.620379D-02
     35 -0.500273D-02  0.118122D-01  0.828737D-02 -0.259473D-03  0.710538D-02
     36 -0.879216D-02  0.123976D-01  0.735691D-02  0.511045D-05  0.376381D-02
               21            22            23            24            25 
     21 -0.267217D+00
     22 -0.435765D-01  0.234086D+00
     23 -0.320375D-01  0.494989D+00  0.921449D+00
     24 -0.812748D-01  0.169851D+00  0.218171D+00  0.158428D+00
     25 -0.441721D-03 -0.394521D-03 -0.130725D-02 -0.705025D-03  0.837993D-01
     26  0.863582D-02 -0.125624D-02 -0.895306D-03  0.247454D-02 -0.919579D-02
     27 -0.100054D-02 -0.554665D-03 -0.236578D-03  0.603148D-03 -0.202730D-02
     28 -0.929965D-02 -0.373652D-03 -0.238127D-02 -0.180758D-02  0.493432D-02
     29  0.587480D-02 -0.918214D-03 -0.566197D-03  0.436180D-03 -0.121563D-01
     30 -0.101980D-01  0.156241D-03 -0.659143D-03 -0.169803D-02 -0.364781D-01
     31  0.381993D-02 -0.230871D-02 -0.278275D-02  0.262193D-02 -0.197838D-01
     32  0.780612D-02 -0.123985D-02  0.105781D-03  0.312055D-02  0.458706D-01
     33 -0.553142D-02  0.826432D-03  0.717153D-03 -0.209255D-02  0.535384D-01
     34  0.111946D-02 -0.989821D-01 -0.136414D+00 -0.131672D+00 -0.134051D-04
     35 -0.144202D-01 -0.137187D+00 -0.185972D+00 -0.175415D+00 -0.693364D-05
     36 -0.155094D-01 -0.147512D+00 -0.200143D+00 -0.196897D+00 -0.263519D-03
               26            27            28            29            30 
     26  0.247107D+00
     27  0.197865D+00  0.306998D+00
     28 -0.512458D-02 -0.297871D-01  0.207504D+00
     29  0.196784D-01 -0.288560D-01 -0.716503D-01  0.128232D+00
     30 -0.108047D-01 -0.857231D-01  0.154633D+00 -0.106054D+00  0.312239D+00
     31  0.305556D-01  0.404548D-01 -0.823353D-01  0.315519D-01 -0.264593D-01
     32 -0.101562D-01 -0.379611D-01  0.398355D-01  0.525916D-02  0.726731D-02
     33 -0.336965D-01 -0.329753D-01 -0.450188D-01  0.111475D-01  0.112719D-01
     34  0.730160D-03  0.253191D-03 -0.981589D-04  0.120253D-03 -0.143835D-03
     35  0.594501D-03  0.157608D-03 -0.127498D-03  0.313324D-03 -0.381496D-03
     36  0.407260D-03 -0.603902D-05 -0.724238D-03  0.333584D-03 -0.692661D-03
               31            32            33            34            35 
     31  0.422670D+00
     32 -0.584622D-01  0.848111D-01
     33 -0.996052D-01  0.212854D-01  0.118883D+00
     34  0.582584D-03  0.579871D-03 -0.397274D-03  0.104237D+00
     35  0.109068D-02  0.795567D-03 -0.598016D-03  0.143841D+00  0.199311D+00
     36  0.565917D-03  0.797573D-03 -0.508633D-03  0.137951D+00  0.187855D+00
               36 
     36  0.195042D+00
 FormGI is forming the generalized inverse of G from B-inverse, IUseBI=4.
 Leave Link  716 at Sat May 24 02:50:08 2025, MaxMem=  3758096384 cpu:               0.1 elap:               0.0
 (Enter /apps/easybuild-2022/easybuild/software/Compiler/NVHPC/22.11-CUDA-11.7.0/Gaussian/g16c01-CUDA-11.7.0/g16/l103.exe)

 GradGradGradGradGradGradGradGradGradGradGradGradGradGradGradGradGradGrad
 Berny optimization.
 Red2BG is reusing G-inverse.
 Internal  Forces:  Max     0.179538285 RMS     0.034939533
 Search for a saddle point.
 Step number   1 out of a maximum of  100
 All quantities printed in internal units (Hartrees-Bohrs-Radians)
 Swapping is turned off.
 Second derivative matrix not updated -- analytic derivatives used.
 ITU=  0
     Eigenvalues ---   -1.14005  -0.12739  -0.03143  -0.00609  -0.00029
     Eigenvalues ---    0.00621   0.03325   0.03785   0.06771   0.08518
     Eigenvalues ---    0.09359   0.10487   0.12030   0.13900   0.15404
     Eigenvalues ---    0.16890   0.21784   0.23077   0.24143   0.24647
     Eigenvalues ---    0.29459   0.31735   0.34969   0.41145   0.42457
     Eigenvalues ---    0.43932   0.49097   0.52723   0.65412   0.93984
 Eigenvectors required to have negative eigenvalues:
                          A16       D20       D21       A13       D14
   1                    0.53762   0.30920  -0.29928  -0.28446   0.27183
                          D17       D11       R9        D10       D16
   1                    0.27147   0.26823  -0.26287  -0.20077  -0.19752
 Eigenvalue     2 is  -1.27D-01 should be greater than     0.000000 Eigenvector:
                          A14       R9        A18       R8        A15
   1                   -0.58894  -0.49071   0.40301   0.27904   0.18550
                          A17       D18       D12       D15       D21
   1                   -0.16618   0.12433   0.12412   0.10761   0.10487
 Eigenvalue     3 is  -3.14D-02 should be greater than     0.000000 Eigenvector:
                          R9        A14       A18       R8        D21
   1                    0.63986  -0.45915   0.45727  -0.23232  -0.15091
                          D11       D18       D14       D15       D17
   1                    0.12288  -0.10853   0.10217  -0.09289   0.08652
 Eigenvalue     4 is  -6.09D-03 should be greater than     0.000000 Eigenvector:
                          D12       D10       D11       D18       D16
   1                   -0.32985  -0.32719  -0.32673  -0.31307  -0.31041
                          D17       D15       D13       D14       D5
   1                   -0.30994  -0.28755  -0.28489  -0.28442  -0.14179
 Eigenvalue     5 is  -2.86D-04 should be greater than     0.000000 Eigenvector:
                          D6        D3        D5        D9        D4
   1                   -0.33210  -0.32061  -0.31753  -0.31502  -0.31381
                          D2        D1        D8        D7        D17
   1                   -0.30604  -0.30232  -0.30045  -0.29673   0.13140
 RFO step:  Lambda0=1.903996590D-03 Lambda=-1.35594354D-01.
 Linear search not attempted -- option 19 set.
 Maximum step size (   0.300) exceeded in Quadratic search.
    -- Step size scaled by   0.278
 Iteration  1 RMS(Cart)=  0.09489064 RMS(Int)=  0.00682332
 Iteration  2 RMS(Cart)=  0.00672882 RMS(Int)=  0.00152534
 Iteration  3 RMS(Cart)=  0.00001296 RMS(Int)=  0.00152532
 Iteration  4 RMS(Cart)=  0.00000009 RMS(Int)=  0.00152532
 ITry= 1 IFail=0 DXMaxC= 4.48D-01 DCOld= 1.00D+10 DXMaxT= 3.00D-01 DXLimC= 3.00D+00 Rises=F
 Variable       Old X    -DE/DX   Delta X   Delta X   Delta X     New X
                                 (Linear)    (Quad)   (Total)
    R1        2.92551   0.00225   0.00000  -0.00030  -0.00030   2.92521
    R2        2.49280   0.00958   0.00000   0.00431   0.00431   2.49711
    R3        2.49578   0.00446   0.00000   0.00090   0.00090   2.49668
    R4        2.50071   0.00781   0.00000   0.00030   0.00030   2.50100
    R5        2.60960  -0.02112   0.00000  -0.01657  -0.01657   2.59303
    R6        2.58116   0.00046   0.00000   0.00088   0.00088   2.58203
    R7        3.19740   0.09216   0.00000   0.07035   0.07035   3.26775
    R8        3.15584  -0.08814   0.00000  -0.11389  -0.11389   3.04194
    R9        3.40150  -0.03980   0.00000  -0.01890  -0.01890   3.38260
   R10        2.64054   0.17954   0.00000   0.03777   0.03777   2.67832
   R11        1.83005   0.00194   0.00000  -0.00405  -0.00405   1.82599
    A1        1.97297  -0.02187   0.00000  -0.01305  -0.01310   1.95987
    A2        1.98626  -0.00872   0.00000  -0.00204  -0.00205   1.98421
    A3        1.95949  -0.02805   0.00000  -0.01335  -0.01340   1.94609
    A4        1.85711   0.01898   0.00000   0.00887   0.00886   1.86597
    A5        1.84299   0.02533   0.00000   0.01293   0.01284   1.85583
    A6        1.83293   0.02141   0.00000   0.01009   0.01008   1.84302
    A7        1.87799  -0.00413   0.00000   0.00371   0.00364   1.88163
    A8        1.89755  -0.00787   0.00000  -0.01183  -0.01184   1.88571
    A9        2.06539   0.00633   0.00000  -0.00094  -0.00097   2.06442
   A10        1.77702   0.00773   0.00000   0.00953   0.00962   1.78664
   A11        1.85396  -0.00661   0.00000  -0.01775  -0.01773   1.83623
   A12        1.96668   0.00451   0.00000   0.01823   0.01828   1.98496
   A13        1.79603  -0.00336   0.00000  -0.02618  -0.02218   1.77385
   A14        2.19770   0.03115   0.00000   0.20085   0.20046   2.39816
   A15        2.07081  -0.05096   0.00000  -0.09245  -0.09274   1.97807
   A16        1.15672  -0.02073   0.00000   0.01334   0.02170   1.17842
   A17        1.75671   0.01929   0.00000   0.04817   0.04609   1.80280
   A18        2.01467   0.01976   0.00000  -0.10841  -0.10774   1.90693
   A19        2.51524  -0.03779   0.00000  -0.06698  -0.06698   2.44826
    D1        0.79429  -0.00380   0.00000   0.01072   0.01074   0.80502
    D2        2.70599  -0.00045   0.00000   0.01804   0.01807   2.72406
    D3       -1.30488   0.00398   0.00000   0.03188   0.03190  -1.27297
    D4        2.91555  -0.00217   0.00000   0.01085   0.01084   2.92639
    D5       -1.45593   0.00118   0.00000   0.01816   0.01817  -1.43776
    D6        0.81639   0.00560   0.00000   0.03200   0.03200   0.84839
    D7       -1.28849  -0.00102   0.00000   0.01278   0.01275  -1.27574
    D8        0.62321   0.00233   0.00000   0.02009   0.02008   0.64329
    D9        2.89553   0.00676   0.00000   0.03393   0.03391   2.92944
   D10       -0.79794   0.00619   0.00000   0.01388   0.01618  -0.78176
   D11        0.42199  -0.02237   0.00000   0.00811   0.00639   0.42838
   D12       -2.71699   0.00738   0.00000   0.01328   0.01275  -2.70424
   D13       -2.90944   0.01273   0.00000   0.02389   0.02612  -2.88332
   D14       -1.68951  -0.01583   0.00000   0.01812   0.01634  -1.67318
   D15        1.45470   0.01392   0.00000   0.02328   0.02269   1.47738
   D16        1.44243   0.00516   0.00000   0.01396   0.01628   1.45871
   D17        2.66236  -0.02340   0.00000   0.00819   0.00649   2.66886
   D18       -0.47662   0.00635   0.00000   0.01336   0.01285  -0.46377
   D19        1.64185  -0.01549   0.00000  -0.01378  -0.01312   1.62873
   D20       -0.29904  -0.00305   0.00000   0.02446   0.02323  -0.27581
   D21       -1.49740   0.01115   0.00000  -0.00961  -0.00903  -1.50643
         Item               Value     Threshold  Converged?
 Maximum Force            0.179538     0.000450     NO 
 RMS     Force            0.034940     0.000300     NO 
 Maximum Displacement     0.447785     0.001800     NO 
 RMS     Displacement     0.094835     0.001200     NO 
 Predicted change in Energy=-3.935685D-02
 Lowest energy point so far.  Saving SCF results.
 GradGradGradGradGradGradGradGradGradGradGradGradGradGradGradGradGradGrad

 Leave Link  103 at Sat May 24 02:50:08 2025, MaxMem=  3758096384 cpu:               0.1 elap:               0.0
 (Enter /apps/easybuild-2022/easybuild/software/Compiler/NVHPC/22.11-CUDA-11.7.0/Gaussian/g16c01-CUDA-11.7.0/g16/l202.exe)
                          Input orientation:                          
 ---------------------------------------------------------------------
 Center     Atomic      Atomic             Coordinates (Angstroms)
 Number     Number       Type             X           Y           Z
 ---------------------------------------------------------------------
      1          6           0       -0.645679   -1.284097    0.343952
      2          6           0       -0.022299    0.044335   -0.148830
      3          9           0       -0.566212    0.333805   -1.374890
      4          9           0       -0.507339    1.054907    0.632453
      5         16           0        1.689465    0.108017   -0.385496
      6          8           0        2.228440   -0.620283    0.945033
      7          8           0        3.016447   -1.044163   -0.725622
      8          8           0        2.222589    1.416925   -0.279246
      9          9           0       -0.662314   -2.210033   -0.598648
     10          9           0       -0.024543   -1.807516    1.385950
     11          9           0       -1.902219   -1.118366    0.725037
     12          1           0        2.621608    2.006059    0.374505
 ---------------------------------------------------------------------
                    Distance matrix (angstroms):
                    1          2          3          4          5
     1  C    0.000000
     2  C    1.547957   0.000000
     3  F    2.361852   1.372172   0.000000
     4  F    2.360786   1.366353   2.133748   0.000000
     5  S    2.814778   1.729220   2.473450   2.599763   0.000000
     6  O    3.010400   2.589224   3.755317   3.223113   1.609728
     7  O    3.822659   3.278947   3.893043   4.320594   1.789996
     8  O    3.988841   2.634489   3.186062   2.900820   1.417304
     9  F    1.321412   2.386238   2.661372   3.492773   3.309026
    10  F    1.321188   2.405184   3.535661   2.999053   3.121716
    11  F    1.323475   2.376892   2.881564   2.584062   3.954427
    12  H    4.636941   3.333539   4.002376   3.280478   2.247011
                    6          7          8          9         10
     6  O    0.000000
     7  O    1.895183   0.000000
     8  O    2.376786   2.624198   0.000000
     9  F    3.642350   3.861172   4.645375   0.000000
    10  F    2.584543   3.780088   4.268430   2.123064   0.000000
    11  F    4.166393   5.128664   4.944727   2.116895   2.106514
    12  H    2.716203   3.266502   0.966274   5.431998   4.750631
                   11         12
    11  F    0.000000
    12  H    5.509076   0.000000
 Symmetry turned off by external request.
 Stoichiometry    C2HF5O3S
 Rotational constants (GHZ):           1.5527093           0.8315953           0.7149296
 Leave Link  202 at Sat May 24 02:50:08 2025, MaxMem=  3758096384 cpu:               0.0 elap:               0.0
 (Enter /apps/easybuild-2022/easybuild/software/Compiler/NVHPC/22.11-CUDA-11.7.0/Gaussian/g16c01-CUDA-11.7.0/g16/l301.exe)
 Standard basis: def2TZVPP (5D, 7F)
 Ernie: Thresh=  0.10000D-02 Tol=  0.10000D-05 Strict=F.
   366 basis functions,   596 primitive gaussians,   423 cartesian basis functions
    49 alpha electrons       49 beta electrons
       nuclear repulsion energy       911.9868232542 Hartrees.
 IExCor= 4336 DFT=T Ex+Corr=M062X ExCW=0 ScaHFX=  0.540000
 ScaDFX=  1.000000  1.000000  1.000000  1.000000 ScalE2=  1.000000  1.000000
 IRadAn=      5 IRanWt=     -1 IRanGd=            0 ICorTp=0 IEmpDi=  4
 NAtoms=   12 NActive=   12 NUniq=   12 SFac= 1.00D+00 NAtFMM=   60 NAOKFM=F Big=F
 Integral buffers will be    131072 words long.
 Raffenetti 2 integral format.
 Two-electron integral symmetry is turned off.
 Leave Link  301 at Sat May 24 02:50:09 2025, MaxMem=  3758096384 cpu:               0.0 elap:               0.0
 (Enter /apps/easybuild-2022/easybuild/software/Compiler/NVHPC/22.11-CUDA-11.7.0/Gaussian/g16c01-CUDA-11.7.0/g16/l302.exe)
 NPDir=0 NMtPBC=     1 NCelOv=     1 NCel=       1 NClECP=     1 NCelD=      1
         NCelK=      1 NCelE2=     1 NClLst=     1 CellRange=     0.0.
 One-electron integrals computed using PRISM.
   1 Symmetry operations used in ECPInt.
 ECPInt:  NShTT=    8515 NPrTT=   27988 LenC2=    7941 LenP2D=   19203.
 LDataN:  DoStor=T MaxTD1= 6 Len=  172
 NBasis=   366 RedAO= T EigKep=  5.58D-04  NBF=   366
 NBsUse=   366 1.00D-06 EigRej= -1.00D+00 NBFU=   366
 Precomputing XC quadrature grid using
 IXCGrd= 4 IRadAn=           5 IRanWt=          -1 IRanGd=           0 AccXCQ= 0.00D+00.
 Generated NRdTot=       0 NPtTot=           0 NUsed=           0 NTot=          32
 NSgBfM=   419   419   419   419   419 MxSgAt=    12 MxSgA2=    12.
 Leave Link  302 at Sat May 24 02:50:09 2025, MaxMem=  3758096384 cpu:               0.7 elap:               0.2
 (Enter /apps/easybuild-2022/easybuild/software/Compiler/NVHPC/22.11-CUDA-11.7.0/Gaussian/g16c01-CUDA-11.7.0/g16/l303.exe)
 DipDrv:  MaxL=1.
 Leave Link  303 at Sat May 24 02:50:09 2025, MaxMem=  3758096384 cpu:               0.1 elap:               0.0
 (Enter /apps/easybuild-2022/easybuild/software/Compiler/NVHPC/22.11-CUDA-11.7.0/Gaussian/g16c01-CUDA-11.7.0/g16/l401.exe)
 Initial guess from the checkpoint file:  "2003846667223680600001_r12_insertion_R_6_5_7.chk"
 B after Tr=     0.018654    0.001701   -0.011805
         Rot=    0.999991    0.003105   -0.001279    0.002418 Ang=   0.47 deg.
 Guess basis will be translated and rotated to current coordinates.
 JPrj=2 DoOrth=T DoCkMO=T.
 Generating alternative initial guess.
 ExpMin= 9.52D-02 ExpMax= 6.07D+04 ExpMxC= 2.07D+03 IAcc=3 IRadAn=         5 AccDes= 0.00D+00
 Harris functional with IExCor= 1009 and IRadAn=       5 diagonalized for initial guess.
 HarFok:  IExCor= 1009 AccDes= 0.00D+00 IRadAn=         5 IDoV= 1 UseB2=F ITyADJ=14
 ICtDFT=  3500011 ScaDFX=  1.000000  1.000000  1.000000  1.000000
 FoFCou: FMM=F IPFlag=           0 FMFlag=      100000 FMFlg1=           0
         NFxFlg=           0 DoJE=T BraDBF=F KetDBF=T FulRan=T
         wScrn=  0.000000 ICntrl=       500 IOpCl=  0 I1Cent=   200000004 NGrid=           0
         NMat0=    1 NMatS0=      1 NMatT0=    0 NMatD0=    1 NMtDS0=    0 NMtDT0=    0
 Symmetry not used in FoFCou.
 Harris En= -1199.11880532773    
 Leave Link  401 at Sat May 24 02:50:09 2025, MaxMem=  3758096384 cpu:               4.7 elap:               0.7
 (Enter /apps/easybuild-2022/easybuild/software/Compiler/NVHPC/22.11-CUDA-11.7.0/Gaussian/g16c01-CUDA-11.7.0/g16/l502.exe)
 Keep R1 ints in memory in canonical form, NReq=2293446996.
 FoFCou: FMM=F IPFlag=           0 FMFlag=           0 FMFlg1=           0
         NFxFlg=           0 DoJE=F BraDBF=F KetDBF=F FulRan=T
         wScrn=  0.000000 ICntrl=       600 IOpCl=  0 I1Cent=           0 NGrid=           0
         NMat0=    1 NMatS0=  67161 NMatT0=    0 NMatD0=    1 NMtDS0=    0 NMtDT0=    0
 Symmetry not used in FoFCou.
 Two-electron integral symmetry not used.
 Closed shell SCF:
 Using DIIS extrapolation, IDIIS=  1040.
 NGot=  3758096384 LenX=  1502398672 LenY=  1502219302
 Requested convergence on RMS density matrix=1.00D-08 within  32 cycles.
 Requested convergence on MAX density matrix=1.00D-06.
 Requested convergence on             energy=1.00D-06.
 No special actions if energy rises.
 Integral accuracy reduced to 1.0D-05 until final iterations.

 Cycle   1  Pass 0  IDiag  1:
 E= -1199.59966964429    
 DIIS: error= 4.39D-03 at cycle   1 NSaved=   1.
 NSaved= 1 IEnMin= 1 EnMin= -1199.59966964429     IErMin= 1 ErrMin= 4.39D-03
 ErrMax= 4.39D-03  0.00D+00 EMaxC= 1.00D-01 BMatC= 1.53D-02 BMatP= 1.53D-02
 IDIUse=3 WtCom= 9.56D-01 WtEn= 4.39D-02
 Coeff-Com:  0.100D+01
 Coeff-En:   0.100D+01
 Coeff:      0.100D+01
 Gap=     0.973 Goal=   None    Shift=    0.000
 GapD=    0.973 DampG=2.000 DampE=1.000 DampFc=2.0000 IDamp=-1.
 RMSDP=4.89D-04 MaxDP=1.61D-02              OVMax= 7.18D-02

 Cycle   2  Pass 0  IDiag  1:
 E= -1199.62225717395     Delta-E=       -0.022587529666 Rises=F Damp=F
 DIIS: error= 1.70D-03 at cycle   2 NSaved=   2.
 NSaved= 2 IEnMin= 2 EnMin= -1199.62225717395     IErMin= 2 ErrMin= 1.70D-03
 ErrMax= 1.70D-03  0.00D+00 EMaxC= 1.00D-01 BMatC= 2.98D-03 BMatP= 1.53D-02
 IDIUse=3 WtCom= 9.83D-01 WtEn= 1.70D-02
 Coeff-Com:  0.135D+00 0.865D+00
 Coeff-En:   0.000D+00 0.100D+01
 Coeff:      0.133D+00 0.867D+00
 Gap=     0.176 Goal=   None    Shift=    0.000
 RMSDP=2.51D-04 MaxDP=1.26D-02 DE=-2.26D-02 OVMax= 5.27D-02

 Cycle   3  Pass 0  IDiag  1:
 E= -1199.61816051069     Delta-E=        0.004096663267 Rises=F Damp=F
 DIIS: error= 4.25D-03 at cycle   3 NSaved=   3.
 NSaved= 3 IEnMin= 2 EnMin= -1199.62225717395     IErMin= 2 ErrMin= 1.70D-03
 ErrMax= 4.25D-03  0.00D+00 EMaxC= 1.00D-01 BMatC= 1.05D-02 BMatP= 2.98D-03
 IDIUse=3 WtCom= 1.33D-01 WtEn= 8.67D-01
 Coeff-Com: -0.869D-01 0.713D+00 0.374D+00
 Coeff-En:   0.000D+00 0.678D+00 0.322D+00
 Coeff:     -0.116D-01 0.682D+00 0.329D+00
 Gap=     0.175 Goal=   None    Shift=    0.000
 RMSDP=1.49D-04 MaxDP=9.06D-03 DE= 4.10D-03 OVMax= 3.55D-02

 Cycle   4  Pass 0  IDiag  1:
 E= -1199.62608887279     Delta-E=       -0.007928362103 Rises=F Damp=F
 DIIS: error= 3.45D-04 at cycle   4 NSaved=   4.
 NSaved= 4 IEnMin= 4 EnMin= -1199.62608887279     IErMin= 4 ErrMin= 3.45D-04
 ErrMax= 3.45D-04  0.00D+00 EMaxC= 1.00D-01 BMatC= 1.03D-04 BMatP= 2.98D-03
 IDIUse=3 WtCom= 9.97D-01 WtEn= 3.45D-03
 Coeff-Com: -0.398D-01 0.118D+00 0.961D-01 0.825D+00
 Coeff-En:   0.000D+00 0.000D+00 0.000D+00 0.100D+01
 Coeff:     -0.397D-01 0.118D+00 0.958D-01 0.826D+00
 Gap=     0.174 Goal=   None    Shift=    0.000
 RMSDP=5.63D-05 MaxDP=2.18D-03 DE=-7.93D-03 OVMax= 1.16D-02

 Cycle   5  Pass 0  IDiag  1:
 E= -1199.62631727655     Delta-E=       -0.000228403763 Rises=F Damp=F
 DIIS: error= 3.03D-04 at cycle   5 NSaved=   5.
 NSaved= 5 IEnMin= 5 EnMin= -1199.62631727655     IErMin= 5 ErrMin= 3.03D-04
 ErrMax= 3.03D-04  0.00D+00 EMaxC= 1.00D-01 BMatC= 5.51D-05 BMatP= 1.03D-04
 IDIUse=3 WtCom= 9.97D-01 WtEn= 3.03D-03
 Coeff-Com: -0.177D-02-0.101D+00-0.314D-01 0.453D+00 0.681D+00
 Coeff-En:   0.000D+00 0.000D+00 0.000D+00 0.000D+00 0.100D+01
 Coeff:     -0.176D-02-0.100D+00-0.313D-01 0.451D+00 0.682D+00
 Gap=     0.176 Goal=   None    Shift=    0.000
 RMSDP=2.76D-05 MaxDP=8.59D-04 DE=-2.28D-04 OVMax= 5.25D-03

 Cycle   6  Pass 0  IDiag  1:
 E= -1199.62639471803     Delta-E=       -0.000077441483 Rises=F Damp=F
 DIIS: error= 1.11D-04 at cycle   6 NSaved=   6.
 NSaved= 6 IEnMin= 6 EnMin= -1199.62639471803     IErMin= 6 ErrMin= 1.11D-04
 ErrMax= 1.11D-04  0.00D+00 EMaxC= 1.00D-01 BMatC= 9.84D-06 BMatP= 5.51D-05
 IDIUse=3 WtCom= 9.99D-01 WtEn= 1.11D-03
 Coeff-Com:  0.720D-02-0.756D-01-0.349D-01 0.786D-01 0.349D+00 0.676D+00
 Coeff-En:   0.000D+00 0.000D+00 0.000D+00 0.000D+00 0.000D+00 0.100D+01
 Coeff:      0.720D-02-0.755D-01-0.349D-01 0.785D-01 0.349D+00 0.676D+00
 Gap=     0.175 Goal=   None    Shift=    0.000
 RMSDP=1.41D-05 MaxDP=6.87D-04 DE=-7.74D-05 OVMax= 2.81D-03

 Cycle   7  Pass 0  IDiag  1:
 E= -1199.62641225776     Delta-E=       -0.000017539724 Rises=F Damp=F
 DIIS: error= 6.10D-05 at cycle   7 NSaved=   7.
 NSaved= 7 IEnMin= 7 EnMin= -1199.62641225776     IErMin= 7 ErrMin= 6.10D-05
 ErrMax= 6.10D-05  0.00D+00 EMaxC= 1.00D-01 BMatC= 1.80D-06 BMatP= 9.84D-06
 IDIUse=1 WtCom= 1.00D+00 WtEn= 0.00D+00
 Coeff-Com:  0.336D-02-0.826D-02-0.734D-02-0.804D-01-0.263D-01 0.299D+00
 Coeff-Com:  0.820D+00
 Coeff:      0.336D-02-0.826D-02-0.734D-02-0.804D-01-0.263D-01 0.299D+00
 Coeff:      0.820D+00
 Gap=     0.176 Goal=   None    Shift=    0.000
 RMSDP=7.78D-06 MaxDP=2.47D-04 DE=-1.75D-05 OVMax= 1.80D-03

 Initial convergence to 1.0D-05 achieved.  Increase integral accuracy.
 Cycle   8  Pass 1  IDiag  1:
 E= -1199.62642598989     Delta-E=       -0.000013732131 Rises=F Damp=F
 DIIS: error= 2.15D-05 at cycle   1 NSaved=   1.
 NSaved= 1 IEnMin= 1 EnMin= -1199.62642598989     IErMin= 1 ErrMin= 2.15D-05
[...]
     19  0.419883D-02  0.440415D-03 -0.240278D+00  0.932508D-01  0.215223D-01
     20  0.205102D-01  0.371332D-02 -0.212794D+00  0.125125D+00 -0.533666D-01
     21 -0.432872D-02 -0.828589D-03  0.783809D-01 -0.602303D-01 -0.419590D-01
     22 -0.235204D-02 -0.465318D-03 -0.495418D-01 -0.238168D-01 -0.520256D-01
     23  0.421743D-02  0.130927D-02  0.768513D-03 -0.547456D-01 -0.507766D-01
     24  0.501521D-02  0.237382D-02 -0.516690D-02 -0.890178D-01 -0.240537D+00
     25 -0.355552D-02  0.109530D-02  0.755805D-02 -0.394211D-02  0.126806D-02
     26 -0.918880D-02  0.757721D-02 -0.100562D-01  0.737464D-02 -0.220518D-02
     27  0.615852D-02 -0.159005D-02 -0.170673D-02 -0.393991D-03 -0.278364D-02
     28 -0.139387D-02  0.405400D-03  0.265105D-02 -0.202970D-02 -0.426750D-02
     29  0.300083D-02  0.632777D-03 -0.164455D-02  0.269304D-03 -0.264321D-02
     30  0.496987D-02  0.187647D-02  0.249246D-02 -0.693485D-02 -0.578599D-02
     31 -0.749715D-03 -0.799340D-03 -0.267136D-02  0.515225D-02  0.280678D-02
     32  0.448703D-02  0.701954D-03 -0.505764D-02  0.421846D-02  0.139403D-02
     33 -0.108140D-03  0.524054D-03  0.460516D-02 -0.510274D-02 -0.387448D-02
     34 -0.234291D-03 -0.480324D-04 -0.162757D-02 -0.201301D-02 -0.364688D-02
     35 -0.578653D-04  0.436863D-03 -0.101771D-01 -0.521983D-05 -0.803344D-02
     36 -0.137592D-03  0.491805D-03 -0.335774D-01 -0.502238D-02 -0.327876D-01
               16            17            18            19            20 
     16 -0.144920D+00
     17 -0.108067D-01  0.466411D+00
     18  0.345995D-01 -0.347849D-01  0.325068D-01
     19 -0.673754D-01 -0.834668D-01  0.213510D-01  0.330553D+00
     20  0.166721D+00 -0.145342D-01 -0.317657D-01 -0.111101D-01 -0.125086D+00
     21 -0.449265D-01  0.127272D-01  0.536139D-02 -0.660510D-01  0.675762D-01
     22 -0.218725D-01 -0.104713D-01  0.124394D-01 -0.688112D-02  0.420801D-01
     23  0.118697D-01 -0.127636D-01 -0.305115D-01  0.294565D-02 -0.144914D-01
     24 -0.457785D-02 -0.101866D-01  0.110739D-01  0.151437D-01 -0.304695D-02
     25 -0.117543D-01 -0.350697D-02  0.359768D-02  0.112540D-02  0.577686D-02
     26  0.114638D-01  0.232076D-02 -0.161151D-02 -0.387999D-02 -0.111459D-01
     27  0.250532D-02  0.115618D-02 -0.642776D-03  0.283479D-03 -0.225396D-03
     28 -0.270395D-02 -0.451261D-03  0.131169D-02  0.469440D-03  0.277254D-02
     29  0.235529D-02  0.104591D-02 -0.514553D-03 -0.942402D-03 -0.185185D-02
     30 -0.612957D-02 -0.764455D-03  0.172808D-02  0.216178D-02  0.633150D-02
     31  0.816146D-02  0.150084D-02 -0.791811D-03 -0.401418D-02 -0.684500D-02
     32  0.763698D-02  0.164013D-02 -0.138369D-02 -0.276866D-02 -0.643378D-02
     33 -0.776732D-02 -0.157859D-02  0.144587D-02  0.283730D-02  0.680771D-02
     34  0.240879D-02  0.349998D-02 -0.127126D-02 -0.447891D-02 -0.133810D-02
     35 -0.566661D-02 -0.174011D-02  0.215309D-02  0.195184D-02  0.412484D-02
     36 -0.266164D-02 -0.181956D-02  0.422021D-02  0.826302D-03  0.644837D-02
               21            22            23            24            25 
     21  0.427428D-01
     22  0.310232D-01  0.538896D+00
     23 -0.118366D-01 -0.642766D-01  0.966792D-01
     24 -0.149783D-01  0.169198D+00  0.949303D-01  0.329475D+00
     25 -0.211908D-02 -0.843164D-03 -0.597012D-04 -0.738281D-03  0.110941D+00
     26  0.310802D-02  0.491546D-03 -0.533174D-03  0.388834D-03 -0.867374D-01
     27  0.882888D-03  0.284964D-03  0.267291D-04  0.205516D-02 -0.232988D-01
     28 -0.124071D-03 -0.202352D-02 -0.189168D-02  0.387018D-02  0.138632D-01
     29  0.978846D-03 -0.185872D-02 -0.991603D-03  0.207933D-02 -0.106717D-01
     30 -0.394752D-03  0.128060D-02  0.105027D-02  0.594155D-02 -0.448342D-02
     31  0.954529D-03  0.190648D-03 -0.139128D-02 -0.181906D-02 -0.420641D-01
     32  0.138845D-02  0.432778D-03 -0.451531D-03 -0.111980D-02  0.617863D-01
     33 -0.938254D-03 -0.433928D-03  0.534689D-03  0.293490D-02  0.147374D-01
     34  0.487512D-02 -0.448270D+00  0.513662D-01 -0.167265D+00  0.151874D-03
     35  0.262548D-03  0.688929D-01 -0.149972D-01  0.120952D-01 -0.126760D-04
     36  0.462934D-02 -0.133169D+00  0.283288D-02 -0.769838D-01  0.925080D-04
               26            27            28            29            30 
     26  0.403409D+00
     27  0.884641D-01  0.101166D+00
     28 -0.528905D-02 -0.767328D-03  0.133789D+00
     29 -0.303286D-01 -0.618713D-01  0.282798D-01  0.936584D-01
     30 -0.454310D-01 -0.312267D-01  0.125287D+00  0.740547D-01  0.377606D+00
     31  0.420499D-01  0.135845D-01 -0.542375D-01 -0.751304D-02 -0.394079D-01
     32 -0.184270D-01 -0.125673D-01 -0.873170D-02  0.120893D-01 -0.354663D-02
     33 -0.827357D-02  0.962021D-02 -0.583328D-01 -0.512292D-02 -0.692368D-02
     34  0.135378D-03  0.401944D-04  0.311886D-03  0.720457D-04  0.305730D-03
     35  0.104623D-03  0.154155D-03  0.328260D-03 -0.767330D-04  0.619345D-03
     36  0.501895D-03 -0.288677D-03 -0.556050D-04  0.280989D-03 -0.916423D-03
               31            32            33            34            35 
     31  0.432077D+00
     32 -0.234331D-01  0.799171D-01
     33 -0.146185D-01  0.607808D-02  0.765157D-01
     34  0.460768D-03  0.633514D-04 -0.516646D-05  0.450689D+00
     35  0.272107D-03 -0.362379D-05  0.105677D-03 -0.524480D-01  0.159797D-01
     36  0.636849D-03  0.370568D-03 -0.558239D-03  0.167107D+00 -0.236197D-02
               36 
     36  0.103364D+00
 Red2BG is reusing G-inverse.
 Leave Link  716 at Sat May 24 03:56:23 2025, MaxMem=  3758096384 cpu:               0.1 elap:               0.0
 (Enter /apps/easybuild-2022/easybuild/software/Compiler/NVHPC/22.11-CUDA-11.7.0/Gaussian/g16c01-CUDA-11.7.0/g16/l9999.exe)

 ----------------------------------------------------------------------

 Electric dipole moment (input orientation):
 (Debye = 10**-18 statcoulomb cm , SI units = C m)
                  (au)            (Debye)         (10**-30 SI)
   Tot        0.901195D+00      0.229061D+01      0.764065D+01
   x          0.666538D+00      0.169417D+01      0.565114D+01
   y          0.540940D+00      0.137493D+01      0.458628D+01
   z          0.274341D+00      0.697306D+00      0.232596D+01

 Dipole polarizability, Alpha (input orientation).
 (esu units = cm**3 , SI units = C**2 m**2 J**-1)
 Alpha(0;0):
               (au)            (10**-24 esu)      (10**-40 SI)
   iso        0.667320D+02      0.988866D+01      0.110026D+02
   aniso      0.428494D+02      0.634963D+01      0.706492D+01
   xx         0.942556D+02      0.139672D+02      0.155406D+02
   yx         0.150322D+01      0.222754D+00      0.247847D+00
   yy         0.548970D+02      0.813490D+01      0.905129D+01
   zx        -0.591000D+01     -0.875772D+00     -0.974428D+00
   zy         0.172167D+01      0.255126D+00      0.283866D+00
   zz         0.510434D+02      0.756385D+01      0.841592D+01

 ----------------------------------------------------------------------

 Dipole orientation:
     6         -0.93641535         -1.64318048         -1.72478361
     6          0.45982203          0.56435966         -0.46045310
     9          1.91467551          1.71098635         -2.17840903
     9         -1.26208749          2.21814210          0.37754041
    16          2.75836058          0.05640569          2.57389825
     8          3.73430791         -2.24467865          1.15534047
     8          4.97195927         -1.16681488          4.13797374
     8          0.39934708         -0.78364248          4.25628604
     9          0.68246387         -3.18203117         -2.85417797
     9         -2.24505525         -2.94023053         -0.02444157
     9         -2.53377596         -0.76624692         -3.45792043
     1          0.98567959         -1.89554207          5.58383014

 Electric dipole moment (dipole orientation):
 (Debye = 10**-18 statcoulomb cm , SI units = C m)
                  (au)            (Debye)         (10**-30 SI)
   Tot        0.901195D+00      0.229061D+01      0.764065D+01
   x          0.000000D+00      0.000000D+00      0.000000D+00
   y          0.000000D+00      0.000000D+00      0.000000D+00
   z          0.901195D+00      0.229061D+01      0.764065D+01

 Dipole polarizability, Alpha (dipole orientation).
 (esu units = cm**3 , SI units = C**2 m**2 J**-1)
 Alpha(0;0):
               (au)            (10**-24 esu)      (10**-40 SI)
   iso        0.667320D+02      0.988866D+01      0.110026D+02
   aniso      0.428494D+02      0.634963D+01      0.706492D+01
   xx         0.714068D+02      0.105814D+02      0.117734D+02
   yx        -0.868066D+01     -0.128634D+01     -0.143125D+01
   yy         0.534164D+02      0.791549D+01      0.880717D+01
   zx         0.191611D+02      0.283938D+01      0.315924D+01
   zy        -0.571063D+01     -0.846228D+00     -0.941555D+00
   zz         0.753728D+02      0.111691D+02      0.124273D+02

 ----------------------------------------------------------------------
 Unable to Open any file for archive entry.
 1\1\GINC-SPARTAN-BM193\Freq\RM062X\def2TZVPP\C2H1F5O3S1\AKHALILOV\24-M
 ay-2025\0\\#P M062X/Def2TZVPP Symm(None) scf(xqc) pop(None) opt(NoFree
 ze,TS,CalcAll,NoEigentest,MaxCycle=999)\\Gaussian input prepared by AS
 E\\0,1\C,-0.6668382337,-1.0085621595,0.6105885704\C,-0.1405746438,-0.0
 129161669,-0.433405765\F,-0.572457393,-0.3814554312,-1.6437779584\F,-0
 .6395149084,1.1968006496,-0.1497810868\S,1.8447602622,0.3423822593,-0.
 6828706597\O,2.003853235,-1.1653177982,-0.5624517502\O,3.3573704704,-0
 .027991637,-0.9087451495\O,1.9296964349,0.9798886543,0.7782680126\F,-0
 .3343050305,-2.2482625936,0.2838397271\F,-0.1698324482,-0.7295650928,1
 .8086772343\F,-1.9939058955,-0.9355066505,0.6780344315\H,2.8296921507,
 0.8700959666,1.1158223937\\Version=ES64L-G16RevC.01\HF=-1199.7408891\R
 MSD=7.864e-09\RMSF=2.281e-06\ZeroPoint=0.048211\Thermal=0.0589379\ETot
 =-1199.6819512\HTot=-1199.681007\GTot=-1199.7299225\Dipole=0.6665377,0
 .5409404,0.2743414\DipoleDeriv=1.4966248,0.0070021,0.07961,0.5875712,1
 .4018439,0.0510529,-0.5686401,0.0640787,1.5050396,1.615224,-0.2604174,
 0.1001688,-0.4851341,0.9292736,0.2919372,0.8944783,0.1724675,0.8943473
 ,-0.6161986,-0.0826681,-0.2202756,-0.1862873,-0.2862676,-0.0851652,-0.
 5869709,-0.1442465,-0.7442168,-0.7630706,0.2667469,0.0966588,0.582776,
 -0.7636942,-0.1607133,0.1169989,-0.0441488,-0.2871769,-0.706363,0.4096
 981,-0.0201585,1.2493399,0.702394,0.3102089,-0.0874988,0.551121,1.3577
 883,1.7908721,-0.4115052,-0.1108442,0.4030659,-0.5929669,-0.1528964,-0
 .3889265,0.1675025,-0.2013974,-1.0199895,0.2615181,0.2113873,-1.657496
 1,0.1920191,0.0133703,0.3821741,-0.2067635,-0.3313403,-0.2589012,-0.19
 82863,-0.2589909,-0.2005745,-0.4818571,-0.1929872,-0.2214632,-0.494675
 4,-1.0553857,-0.2894966,0.0312885,0.0566084,-0.0847211,-0.805769,-0.10
 83305,0.078924,-0.0352747,-0.3230931,-0.3397223,-0.0691512,-0.1413244,
 -0.0912103,-0.29701,-0.0310848,-0.0492212,-0.0934362,-0.81877,-1.19980
 97,-0.0326852,0.1008454,-0.1951866,-0.3028732,0.0588752,0.2935485,0.04
 80057,-0.340113,0.2908307,0.0784598,0.1063148,0.0778569,0.3049075,0.00
 57329,0.136597,0.0153696,0.344318\Polar=94.2555782,1.5032165,54.897013
 ,-5.9100043,1.7216733,51.0434172\PG=Unknown\NImag=1\\0.56607993,0.0072
 6347,0.60762370,-0.00898647,-0.00888580,0.60530131,-0.06784306,-0.0332
 5472,0.02774071,0.35660396,-0.05514921,-0.10521902,0.06702654,-0.03657
 737,0.51255840,0.05779810,0.06515111,-0.10851405,0.01196835,-0.0063166
 6,0.53645596,-0.00174686,-0.00124926,0.00269740,-0.09730988,-0.0212826
 2,-0.09476595,0.08731000,0.00779026,0.00684608,0.00858573,-0.01654509,
 -0.07696461,-0.04489555,0.02602091,0.09968808,-0.02769578,-0.01727870,
 -0.04749139,-0.07564706,-0.03530746,-0.27875049,0.10267596,0.08906843,
 0.36370682,-0.00428844,0.00133234,0.00283235,-0.09881238,0.11037077,0.
 01635455,0.01559427,-0.01026524,0.00220879,0.10068237,0.02759956,-0.04
 867433,-0.01487555,0.08107018,-0.27291377,-0.02058156,0.00192120,-0.03
 004918,-0.04106662,-0.11467591,0.35931111,-0.00932012,0.01180236,0.008
 14731,0.01476535,-0.02968677,-0.07407765,0.01294047,-0.05495110,-0.024
 50752,-0.02347062,0.06876225,0.08719466,-0.01975565,0.02254927,-0.0142
 4478,0.02701897,0.00934600,0.07013833,-0.00748424,-0.01135886,-0.02312
 946,-0.03557748,0.02740835,0.00564502,0.04300983,0.00119195,-0.0187974
 9,0.02168895,-0.05137119,-0.02141562,-0.02345914,0.00522929,0.00547726
 ,0.01455941,0.04297478,-0.03097224,-0.00968690,0.08883764,0.42226353,0
 .01312340,0.00421815,0.01564800,0.01054566,0.02105639,-0.02547897,-0.0
 2398138,-0.00864871,-0.01413330,0.00458982,-0.00611025,-0.00100820,-0.
 00526226,0.07301277,0.40313262,0.01319974,-0.03222795,0.02455298,-0.07
 546318,0.01277859,-0.05202590,0.00806633,0.00857677,0.02229184,0.01555
 524,-0.01923678,-0.00118854,0.27669772,-0.15346393,0.03532762,-0.14491
 990,0.00393274,-0.00780292,0.00356731,-0.00691431,0.00172473,-0.004422
 95,0.00376003,0.00216099,0.00461497,0.00074552,0.00032959,-0.00061123,
 0.10217826,-0.43879247,0.03210267,-0.01080672,0.46641117,-0.00306346,0
 .00567418,-0.00499319,0.01854303,0.00003507,0.00223492,-0.00513691,-0.
 00018004,-0.00390659,-0.00340449,0.00230258,0.00140390,-0.07817437,0.0
 9058699,-0.05043254,0.03459955,-0.03478493,0.03250683,-0.00409180,0.01
 047728,-0.00788727,0.00190180,-0.00881089,0.01589211,-0.00352367,-0.00
 184558,-0.00652013,-0.00340720,0.00419883,0.00044041,-0.24027757,0.093
 25085,0.02152228,-0.06737539,-0.08346683,0.02135098,0.33055320,-0.0126
 8977,0.02791920,-0.02266439,0.05867291,0.00354297,0.04080087,-0.009980
 28,-0.00767946,-0.02060891,-0.02126624,0.02051021,0.00371332,-0.212793
 75,0.12512549,-0.05336660,0.16672083,-0.01453418,-0.03176569,-0.011110
 10,-0.12508605,0.00210686,-0.00761207,0.00230467,-0.01545833,-0.004772
 76,-0.00396201,0.00575676,0.00273920,0.00713984,0.00558152,-0.00432872
 ,-0.00082859,0.07838094,-0.06023032,-0.04195896,-0.04492648,0.01272723
 ,0.00536139,-0.06605095,0.06757616,0.04274279,0.00331220,-0.00068784,0
 .00116385,-0.00348175,-0.00592896,-0.02812278,-0.00974443,-0.00250508,
 -0.00117399,0.00025912,-0.00235204,-0.00046532,-0.04954177,-0.02381680
 ,-0.05202563,-0.02187252,-0.01047127,0.01243938,-0.00688112,0.04208008
 ,0.03102320,0.53889586,0.00138126,0.00191950,-0.00144700,0.00584029,-0
 .00321307,-0.00328405,-0.00335491,-0.00062882,-0.00282845,-0.00319745,
 0.00421743,0.00130927,0.00076851,-0.05474564,-0.05077660,0.01186968,-0
 .01276359,-0.03051149,0.00294565,-0.01449144,-0.01183658,-0.06427655,0
 .09667916,-0.00311749,0.00101532,-0.01338921,0.00361763,-0.01112989,-0
 .00765865,-0.00409635,-0.00102313,-0.00030721,-0.00504903,0.00501521,0
 .00237382,-0.00516690,-0.08901779,-0.24053690,-0.00457785,-0.01018663,
 0.01107389,0.01514370,-0.00304695,-0.01497834,0.16919817,0.09493034,0.
 32947477,-0.08588274,0.04543972,0.01057779,0.00291736,-0.00471697,-0.0
 0285778,0.00113500,0.00020012,0.00212866,0.00285250,-0.00355552,0.0010
 9530,0.00755805,-0.00394211,0.00126806,-0.01175435,-0.00350697,0.00359
 768,0.00112540,0.00577686,-0.00211908,-0.00084316,-0.00005970,-0.00073
 828,0.11094093,0.03864485,-0.30295019,-0.02943951,0.01644618,-0.042965
 67,-0.01563941,0.00013920,0.00233026,0.00256014,-0.00340834,-0.0091888
 0,0.00757721,-0.01005616,0.00737464,-0.00220518,0.01146384,0.00232076,
 -0.00161151,-0.00387999,-0.01114594,0.00310802,0.00049155,-0.00053317,
 0.00038883,-0.08673740,0.40340905,0.01178238,-0.03595485,-0.08714090,-
 0.00285524,0.01267541,0.00681598,0.00061150,0.00237779,0.00313297,-0.0
 0046424,0.00615852,-0.00159005,-0.00170673,-0.00039399,-0.00278364,0.0
 0250532,0.00115618,-0.00064278,0.00028348,-0.00022540,0.00088289,0.000
 28496,0.00002673,0.00205516,-0.02329883,0.08846413,0.10116557,-0.09913
 348,-0.01150240,-0.06938998,0.00406931,0.00023785,-0.00065663,0.001935
 64,-0.00032878,0.00271989,0.00100850,-0.00139387,0.00040540,0.00265105
 ,-0.00202970,-0.00426750,-0.00270395,-0.00045126,0.00131169,0.00046944
 ,0.00277254,-0.00012407,-0.00202352,-0.00189168,0.00387018,0.01386322,
 -0.00528905,-0.00076733,0.13378940,-0.01336652,-0.08389306,-0.02560202
 ,0.00662649,0.00852932,0.01160088,-0.00039682,-0.00145120,0.00612648,-
 0.00093989,0.00300083,0.00063278,-0.00164455,0.00026930,-0.00264321,0.
 00235529,0.00104591,-0.00051455,-0.00094240,-0.00185185,0.00097885,-0.
 00185872,-0.00099160,0.00207933,-0.01067165,-0.03032859,-0.06187135,0.
 02827978,0.09365840,-0.06330832,-0.01983960,-0.29118472,-0.02211118,-0
 .01756371,-0.04011320,0.00339132,0.00705455,-0.01060626,0.00052177,0.0
 0496987,0.00187647,0.00249246,-0.00693485,-0.00578599,-0.00612957,-0.0
 0076445,0.00172808,0.00216178,0.00633150,-0.00039475,0.00128060,0.0010
 5027,0.00594155,-0.00448342,-0.04543103,-0.03122674,0.12528678,0.07405
 475,0.37760566,-0.29898285,-0.00780276,0.03130692,-0.05010847,-0.00148
 513,0.00609834,0.00529795,0.00024484,0.00204875,0.00589038,-0.00074971
 ,-0.00079934,-0.00267136,0.00515225,0.00280678,0.00816146,0.00150084,-
 0.00079181,-0.00401418,-0.00684500,0.00095453,0.00019065,-0.00139128,-
 0.00181906,-0.04206409,0.04204995,0.01358452,-0.05423751,-0.00751304,-
 0.03940794,0.43207725,-0.00610539,-0.07697582,0.00279021,-0.02155364,-
 0.00059509,0.00531844,0.00088342,0.00053477,0.00057573,-0.00315273,0.0
 0448703,0.00070195,-0.00505764,0.00421846,0.00139403,0.00763698,0.0016
 4013,-0.00138369,-0.00276866,-0.00643378,0.00138845,0.00043278,-0.0004
 5153,-0.00111980,0.06178629,-0.01842697,-0.01256733,-0.00873170,0.0120
 8927,-0.00354663,-0.02343307,0.07991715,0.03091136,0.00315118,-0.08081
 461,0.02880134,0.00349393,-0.00258246,0.00017090,0.00001469,0.00465098
 ,-0.00090569,-0.00010814,0.00052405,0.00460516,-0.00510274,-0.00387448
 ,-0.00776732,-0.00157859,0.00144587,0.00283730,0.00680771,-0.00093825,
 -0.00043393,0.00053469,0.00293490,0.01473739,-0.00827357,0.00962021,-0
 .05833281,-0.00512292,-0.00692368,-0.01461853,0.00607808,0.07651571,-0
 .00086700,-0.00033715,-0.00036349,0.00050731,0.00121795,0.00017924,0.0
 0046988,0.00001572,0.00009253,0.00024311,-0.00023429,-0.00004803,-0.00
 162757,-0.00201301,-0.00364688,0.00240879,0.00349998,-0.00127126,-0.00
 447891,-0.00133810,0.00487512,-0.44826956,0.05136618,-0.16726471,0.000
 15187,0.00013538,0.00004019,0.00031189,0.00007205,0.00030573,0.0004607
 7,0.00006335,-0.00000517,0.45068942,-0.00049319,0.00000436,-0.00074446
 ,-0.00243973,-0.00306857,-0.00427198,-0.00169016,-0.00026415,-0.000415
 00,0.00148239,-0.00005787,0.00043686,-0.01017706,-0.00000522,-0.008033
 44,-0.00566661,-0.00174011,0.00215309,0.00195184,0.00412484,0.00026255
 ,0.06889286,-0.01499722,0.01209517,-0.00001268,0.00010462,0.00015415,0
 .00032826,-0.00007673,0.00061934,0.00027211,-0.00000362,0.00010568,-0.
 05244804,0.01597967,-0.00023047,-0.00144128,0.00212677,0.00008974,0.00
 048992,-0.00436939,-0.00026372,-0.00014185,0.00107216,0.00120526,-0.00
 013759,0.00049181,-0.03357741,-0.00502238,-0.03278762,-0.00266164,-0.0
 0181956,0.00422021,0.00082630,0.00644837,0.00462934,-0.13316853,0.0028
 3288,-0.07698377,0.00009251,0.00050189,-0.00028868,-0.00005560,0.00028
 099,-0.00091642,0.00063685,0.00037057,-0.00055824,0.16710672,-0.002361
 97,0.10336384\\-0.00000080,0.00000118,-0.00000204,-0.00000026,0.000001
 19,-0.00000093,0.00000310,0.00000278,-0.00000121,0.00000250,0.00000150
 ,-0.00000069,0.00000235,-0.00000132,0.00000268,-0.00000173,-0.00000222
 ,0.00000124,0.00000320,-0.00000126,0.00000441,-0.00000242,-0.00000140,
 0.00000373,-0.00000244,0.00000085,-0.00000282,-0.00000278,0.00000017,-
 0.00000179,-0.00000171,0.00000246,-0.00000444,0.00000099,-0.00000394,0
 .00000185\\\@
 The archive entry for this job was punched.


 IT IS DOUBTED WHETHER A MAN EVER BRINGS HIS FACULTIES TO BEAR WITH THEIR FULL FORCE
 ON A SUBJECT UNTIL HE WRITES UPON IT.

                          -- CICERO
 Job cpu time:       0 days  8 hours 42 minutes 46.9 seconds.
 Elapsed time:       0 days  1 hours 12 minutes  3.8 seconds.
 File lengths (MBytes):  RWF=    173 Int=      0 D2E=      0 Chk=     11 Scr=      1
 Normal termination of Gaussian 16 at Sat May 24 03:56:23 2025.
done
