 Entering Gaussian System, Link 0=g16
 Initial command:
 /apps/easybuild-2022/easybuild/software/Compiler/NVHPC/22.11-CUDA-11.7.0/Gaussian/g16c01-CUDA-11.7.0/g16/l1.exe "/tmp/Gau-255880.inp" -scrdir="/tmp/"
 Entering Link 1 = /apps/easybuild-2022/easybuild/software/Compiler/NVHPC/22.11-CUDA-11.7.0/Gaussian/g16c01-CUDA-11.7.0/g16/l1.exe PID=    255883.
  
 Copyright (c) 1988-2019, Gaussian, Inc.  All Rights Reserved.
  
 This is part of the Gaussian(R) 16 program.  It is based on
 the Gaussian(R) 09 system (copyright 2009, Gaussian, Inc.),
 the Gaussian(R) 03 system (copyright 2003, Gaussian, Inc.),
 the Gaussian(R) 98 system (copyright 1998, Gaussian, Inc.),
 the Gaussian(R) 94 system (copyright 1995, Gaussian, Inc.),
 the Gaussian 92(TM) system (copyright 1992, Gaussian, Inc.),
 the Gaussian 90(TM) system (copyright 1990, Gaussian, Inc.),
 the Gaussian 88(TM) system (copyright 1988, Gaussian, Inc.),
 the Gaussian 86(TM) system (copyright 1986, Carnegie Mellon
 University), and the Gaussian 82(TM) system (copyright 1983,
 Carnegie Mellon University). Gaussian is a federally registered
 trademark of Gaussian, Inc.
  
 This software contains proprietary and confidential information,
 including trade secrets, belonging to Gaussian, Inc.
  
 This software is provided under written license and may be
 used, copied, transmitted, or stored only in accord with that
 written license.
  
 The following legend is applicable only to US Government
 contracts under FAR:
  
                    RESTRICTED RIGHTS LEGEND
  
 Use, reproduction and disclosure by the US Government is
 subject to restrictions as set forth in subparagraphs (a)
 and (c) of the Commercial Computer Software - Restricted
 Rights clause in FAR 52.227-19.
  
 Gaussian, Inc.
 340 Quinnipiac St., Bldg. 40, Wallingford CT 06492
  
  
 ---------------------------------------------------------------
 Warning -- This program may not be used in any manner that
 competes with the business of Gaussian, Inc. or will provide
 assistance to any competitor of Gaussian, Inc.  The licensee
 of this program is prohibited from giving any competitor of
 Gaussian, Inc. access to this program.  By using this program,
 the user acknowledges that Gaussian, Inc. is engaged in the
 business of creating and licensing software in the field of
 computational chemistry and represents and warrants to the
 licensee that it is not a competitor of Gaussian, Inc. and that
 it will not use this program in any manner prohibited above.
 ---------------------------------------------------------------
  

 Cite this work as:
 Gaussian 16, Revision C.01,
 M. J. Frisch, G. W. Trucks, H. B. Schlegel, G. E. Scuseria, 
 M. A. Robb, J. R. Cheeseman, G. Scalmani, V. Barone, 
 G. A. Petersson, H. Nakatsuji, X. Li, M. Caricato, A. V. Marenich, 
 J. Bloino, B. G. Janesko, R. Gomperts, B. Mennucci, H. P. Hratchian, 
 J. V. Ortiz, A. F. Izmaylov, J. L. Sonnenberg, D. Williams-Young, 
 F. Ding, F. Lipparini, F. Egidi, J. Goings, B. Peng, A. Petrone, 
 T. Henderson, D. Ranasinghe, V. G. Zakrzewski, J. Gao, N. Rega, 
 G. Zheng, W. Liang, M. Hada, M. Ehara, K. Toyota, R. Fukuda, 
 J. Hasegawa, M. Ishida, T. Nakajima, Y. Honda, O. Kitao, H. Nakai, 
 T. Vreven, K. Throssell, J. A. Montgomery, Jr., J. E. Peralta, 
 F. Ogliaro, M. J. Bearpark, J. J. Heyd, E. N. Brothers, K. N. Kudin, 
 V. N. Staroverov, T. A. Keith, R. Kobayashi, J. Normand, 
 K. Raghavachari, A. P. Rendell, J. C. Burant, S. S. Iyengar, 
 J. Tomasi, M. Cossi, J. M. Millam, M. Klene, C. Adamo, R. Cammi, 
 J. W. Ochterski, R. L. Martin, K. Morokuma, O. Farkas, 
 J. B. Foresman, and D. J. Fox, Gaussian, Inc., Wallingford CT, 2019.
 
 ******************************************
 Gaussian 16:  ES64L-G16RevC.01  3-Jul-2019
                24-May-2025 
 ******************************************
 %mem=28GB
 %chk=2003846667223680600001_r12_insertion_R_6_5_8
 %nprocshared=8
 Will use up to    8 processors via shared memory.
 ----------------------------------------------------------------------
 #P M062X/Def2TZVPP Symm(None) scf(xqc) pop(None) opt(NoFreeze,TS,CalcA
 ll,NoEigentest,MaxCycle=999)
 ----------------------------------------------------------------------
 1/5=1,6=999,10=4,11=1,18=20,26=3,29=2000,38=1/1,3;
 2/9=110,12=2,15=3,17=6,18=5,40=1/2;
 3/5=44,7=202,11=2,25=1,30=1,71=2,74=-55,140=1/1,2,3;
 4//1;
 5/5=2,8=3,13=1,38=5/2,8;
 8/6=4,10=90,11=11/1;
 11/6=1,8=1,9=11,15=111,16=1,31=1/1,2,10;
 10/6=1,31=1/2;
 7/10=1,25=1,30=1/1,2,3,16;
 1/5=1,6=999,10=4,11=1,18=20,26=3/3(3);
 2/9=110,15=3/2;
 7/8=1,9=1,25=1,30=1,44=-1/16;
 99//99;
 2/9=110,15=3/2;
 3/5=44,7=202,11=2,25=1,30=1,71=2,74=-55,140=1/1,2,3;
 4/5=5,16=3,69=1/1;
 5/5=2,8=3,13=1,38=5/2,8;
 8/6=4,10=90,11=11/1;
 11/6=1,8=1,9=11,15=111,16=1,31=1/1,2,10;
 10/6=1,31=1/2;
 7/10=1,25=1,30=1/1,2,3,16;
 1/5=1,6=999,10=4,11=1,18=20,26=3/3(-8);
 2/9=110,15=3/2;
 7/8=1,9=1,25=1,30=1,44=-1/16;
 99//99;
 Leave Link    1 at Sat May 24 02:50:35 2025, MaxMem=  3758096384 cpu:               0.1 elap:               0.0
 (Enter /apps/easybuild-2022/easybuild/software/Compiler/NVHPC/22.11-CUDA-11.7.0/Gaussian/g16c01-CUDA-11.7.0/g16/l101.exe)
 ------------------------------
 Gaussian input prepared by ASE
 ------------------------------
 Symbolic Z-matrix:
 Charge =  0 Multiplicity = 1
 C                    -0.71421  -1.41027   0.16168 
 C                     0.03248  -0.01862   0.10563 
 F                    -0.39659   0.64078  -0.99554 
 F                    -0.40537   0.7446    1.10555 
 S                     1.77855  -0.16498   0.13507 
 O                     2.32132   0.52898   1.55377 
 O                     2.2219   -1.07936  -0.68169 
 O                     2.53225   1.45369  -0.09257 
 F                    -0.69057  -2.03832  -0.99469 
 F                    -0.15896  -2.23838   1.04512 
 F                    -1.96638  -1.29032   0.50509 
 H                     2.8935    1.7518   -0.95323 
 
 ITRead=  0  0  0  0  0  0  0  0  0  0  0  0
 MicOpt= -1 -1 -1 -1 -1 -1 -1 -1 -1 -1 -1 -1
 NAtoms=     12 NQM=       12 NQMF=       0 NMMI=      0 NMMIF=      0
                NMic=       0 NMicF=      0.
                    Isotopes and Nuclear Properties:
 (Nuclear quadrupole moments (NQMom) in fm**2, nuclear magnetic moments (NMagM)
  in nuclear magnetons)

  Atom         1           2           3           4           5           6           7           8           9          10
 IAtWgt=          12          12          19          19          32          16          16          16          19          19
 AtmWgt=  12.0000000  12.0000000  18.9984032  18.9984032  31.9720718  15.9949146  15.9949146  15.9949146  18.9984032  18.9984032
 NucSpn=           0           0           1           1           0           0           0           0           1           1
 AtZEff=  -0.0000000  -0.0000000  -0.0000000  -0.0000000  -0.0000000  -0.0000000  -0.0000000  -0.0000000  -0.0000000  -0.0000000
 NQMom=    0.0000000   0.0000000   0.0000000   0.0000000   0.0000000   0.0000000   0.0000000   0.0000000   0.0000000   0.0000000
 NMagM=    0.0000000   0.0000000   2.6288670   2.6288670   0.0000000   0.0000000   0.0000000   0.0000000   2.6288670   2.6288670
 AtZNuc=   6.0000000   6.0000000   9.0000000   9.0000000  16.0000000   8.0000000   8.0000000   8.0000000   9.0000000   9.0000000

  Atom        11          12
 IAtWgt=          19           1
 AtmWgt=  18.9984032   1.0078250
 NucSpn=           1           1
 AtZEff=  -0.0000000  -0.0000000
 NQMom=    0.0000000   0.0000000
 NMagM=    2.6288670   2.7928460
 AtZNuc=   9.0000000   1.0000000
 Leave Link  101 at Sat May 24 02:50:35 2025, MaxMem=  3758096384 cpu:               0.2 elap:               0.2
 (Enter /apps/easybuild-2022/easybuild/software/Compiler/NVHPC/22.11-CUDA-11.7.0/Gaussian/g16c01-CUDA-11.7.0/g16/l103.exe)

 GradGradGradGradGradGradGradGradGradGradGradGradGradGradGradGradGradGrad
 Berny optimization.
 Initialization pass.
                           ----------------------------
                           !    Initial Parameters    !
                           ! (Angstroms and Degrees)  !
 --------------------------                            --------------------------
 ! Name  Definition              Value          Derivative Info.                !
 --------------------------------------------------------------------------------
 ! R1    R(1,2)                  1.5803         calculate D2E/DX2 analytically  !
 ! R2    R(1,9)                  1.3161         calculate D2E/DX2 analytically  !
 ! R3    R(1,10)                 1.3321         calculate D2E/DX2 analytically  !
 ! R4    R(1,11)                 1.3039         calculate D2E/DX2 analytically  !
 ! R5    R(2,3)                  1.3533         calculate D2E/DX2 analytically  !
 ! R6    R(2,4)                  1.3319         calculate D2E/DX2 analytically  !
 ! R7    R(2,5)                  1.7524         calculate D2E/DX2 analytically  !
 ! R8    R(5,6)                  1.67           calculate D2E/DX2 analytically  !
 ! R9    R(5,7)                  1.3037         calculate D2E/DX2 analytically  !
 ! R10   R(5,8)                  1.8            calculate D2E/DX2 analytically  !
 ! R11   R(8,12)                 0.9798         calculate D2E/DX2 analytically  !
 ! A1    A(2,1,9)              112.3696         calculate D2E/DX2 analytically  !
 ! A2    A(2,1,10)             111.9635         calculate D2E/DX2 analytically  !
 ! A3    A(2,1,11)             112.462          calculate D2E/DX2 analytically  !
 ! A4    A(9,1,10)             106.1735         calculate D2E/DX2 analytically  !
 ! A5    A(9,1,11)             107.0104         calculate D2E/DX2 analytically  !
 ! A6    A(10,1,11)            106.4268         calculate D2E/DX2 analytically  !
 ! A7    A(1,2,3)              107.9466         calculate D2E/DX2 analytically  !
 ! A8    A(1,2,4)              108.8235         calculate D2E/DX2 analytically  !
 ! A9    A(1,2,5)              113.368          calculate D2E/DX2 analytically  !
 ! A10   A(3,2,4)              103.1457         calculate D2E/DX2 analytically  !
 ! A11   A(3,2,5)              111.7316         calculate D2E/DX2 analytically  !
 ! A12   A(4,2,5)              111.2713         calculate D2E/DX2 analytically  !
 ! A13   A(2,5,6)              107.6618         calculate D2E/DX2 analytically  !
 ! A14   A(2,5,7)              112.7602         calculate D2E/DX2 analytically  !
 ! A15   A(2,5,8)              109.8753         calculate D2E/DX2 analytically  !
 ! A16   A(6,5,7)              135.4894         calculate D2E/DX2 analytically  !
 ! A17   A(6,5,8)               66.2755         calculate D2E/DX2 analytically  !
 ! A18   A(7,5,8)              114.1471         calculate D2E/DX2 analytically  !
 ! A19   A(5,8,12)             122.6192         calculate D2E/DX2 analytically  !
 ! D1    D(9,1,2,3)             47.5338         calculate D2E/DX2 analytically  !
 ! D2    D(9,1,2,4)            158.8169         calculate D2E/DX2 analytically  !
 ! D3    D(9,1,2,5)            -76.7933         calculate D2E/DX2 analytically  !
 ! D4    D(10,1,2,3)           166.9243         calculate D2E/DX2 analytically  !
 ! D5    D(10,1,2,4)           -81.7926         calculate D2E/DX2 analytically  !
 ! D6    D(10,1,2,5)            42.5972         calculate D2E/DX2 analytically  !
 ! D7    D(11,1,2,3)           -73.2948         calculate D2E/DX2 analytically  !
 ! D8    D(11,1,2,4)            37.9883         calculate D2E/DX2 analytically  !
 ! D9    D(11,1,2,5)           162.3782         calculate D2E/DX2 analytically  !
 ! D10   D(1,2,5,6)           -114.9546         calculate D2E/DX2 analytically  !
 ! D11   D(1,2,5,7)             45.9858         calculate D2E/DX2 analytically  !
 ! D12   D(1,2,5,8)            174.5499         calculate D2E/DX2 analytically  !
 ! D13   D(3,2,5,6)            122.7989         calculate D2E/DX2 analytically  !
 ! D14   D(3,2,5,7)            -76.2608         calculate D2E/DX2 analytically  !
 ! D15   D(3,2,5,8)             52.3034         calculate D2E/DX2 analytically  !
 ! D16   D(4,2,5,6)              8.0968         calculate D2E/DX2 analytically  !
 ! D17   D(4,2,5,7)            169.0372         calculate D2E/DX2 analytically  !
 ! D18   D(4,2,5,8)            -62.3987         calculate D2E/DX2 analytically  !
 ! D19   D(2,5,8,12)          -100.4676         calculate D2E/DX2 analytically  !
 ! D20   D(6,5,8,12)           158.3741         calculate D2E/DX2 analytically  !
 ! D21   D(7,5,8,12)            27.3314         calculate D2E/DX2 analytically  !
 --------------------------------------------------------------------------------
 Trust Radius=3.00D-01 FncErr=1.00D-07 GrdErr=1.00D-06 EigMax=2.50D+02 EigMin=1.00D-04
 Number of steps in this run=    100 maximum allowed number of steps=    100.
 Search for a saddle point of order  1.
 GradGradGradGradGradGradGradGradGradGradGradGradGradGradGradGradGradGrad

 Leave Link  103 at Sat May 24 02:50:35 2025, MaxMem=  3758096384 cpu:               0.1 elap:               0.0
 (Enter /apps/easybuild-2022/easybuild/software/Compiler/NVHPC/22.11-CUDA-11.7.0/Gaussian/g16c01-CUDA-11.7.0/g16/l202.exe)
                          Input orientation:                          
 ---------------------------------------------------------------------
 Center     Atomic      Atomic             Coordinates (Angstroms)
 Number     Number       Type             X           Y           Z
 ---------------------------------------------------------------------
      1          6           0       -0.714208   -1.410271    0.161679
      2          6           0        0.032483   -0.018619    0.105632
      3          9           0       -0.396590    0.640783   -0.995540
      4          9           0       -0.405370    0.744597    1.105554
      5         16           0        1.778550   -0.164979    0.135069
      6          8           0        2.321323    0.528980    1.553766
      7          8           0        2.221901   -1.079364   -0.681692
      8          8           0        2.532253    1.453691   -0.092572
      9          9           0       -0.690568   -2.038322   -0.994690
     10          9           0       -0.158963   -2.238383    1.045119
     11          9           0       -1.966376   -1.290322    0.505094
     12          1           0        2.893500    1.751803   -0.953229
 ---------------------------------------------------------------------
                    Distance matrix (angstroms):
                    1          2          3          4          5
     1  C    0.000000
     2  C    1.580311   0.000000
     3  F    2.376312   1.353327   0.000000
     4  F    2.372707   1.331938   2.103675   0.000000
     5  S    2.786629   1.752438   2.580458   2.557084   0.000000
     6  O    3.861742   2.763285   3.728071   2.771685   1.669995
     7  O    3.072704   2.557071   3.148635   3.663828   1.303748
     8  O    4.336638   2.907891   3.170850   3.250838   1.799995
     9  F    1.316129   2.410957   2.695186   3.498142   3.298835
    10  F    1.332116   2.417983   3.536998   2.993750   2.980126
    11  F    1.303935   2.402548   2.906079   2.634044   3.927822
    12  H    4.925169   3.527180   3.472873   4.016914   2.470133
                    6          7          8          9         10
     6  O    0.000000
     7  O    2.755708   0.000000
     8  O    1.900003   2.619112   0.000000
     9  F    4.707139   3.082214   4.836791   0.000000
    10  F    3.750845   3.161284   4.708332   2.117416   0.000000
    11  F    4.774299   4.358283   5.303251   2.106310   2.111205
    12  H    2.847403   2.922376   0.979847   5.216542   5.406710
                   11         12
    11  F    0.000000
    12  H    5.916048   0.000000
 Symmetry turned off by external request.
 Stoichiometry    C2HF5O3S
 Rotational constants (GHZ):           1.6824600           0.7720177           0.7207156
 Leave Link  202 at Sat May 24 02:50:35 2025, MaxMem=  3758096384 cpu:               0.1 elap:               0.0
 (Enter /apps/easybuild-2022/easybuild/software/Compiler/NVHPC/22.11-CUDA-11.7.0/Gaussian/g16c01-CUDA-11.7.0/g16/l301.exe)
 Standard basis: def2TZVPP (5D, 7F)
 Ernie: Thresh=  0.10000D-02 Tol=  0.10000D-05 Strict=F.
   366 basis functions,   596 primitive gaussians,   423 cartesian basis functions
    49 alpha electrons       49 beta electrons
       nuclear repulsion energy       912.7216474004 Hartrees.
 IExCor= 4336 DFT=T Ex+Corr=M062X ExCW=0 ScaHFX=  0.540000
 ScaDFX=  1.000000  1.000000  1.000000  1.000000 ScalE2=  1.000000  1.000000
 IRadAn=      5 IRanWt=     -1 IRanGd=            0 ICorTp=0 IEmpDi=  4
 NAtoms=   12 NActive=   12 NUniq=   12 SFac= 1.00D+00 NAtFMM=   60 NAOKFM=F Big=F
 Integral buffers will be    131072 words long.
 Raffenetti 2 integral format.
 Two-electron integral symmetry is turned off.
 Leave Link  301 at Sat May 24 02:50:35 2025, MaxMem=  3758096384 cpu:               0.1 elap:               0.0
 (Enter /apps/easybuild-2022/easybuild/software/Compiler/NVHPC/22.11-CUDA-11.7.0/Gaussian/g16c01-CUDA-11.7.0/g16/l302.exe)
 NPDir=0 NMtPBC=     1 NCelOv=     1 NCel=       1 NClECP=     1 NCelD=      1
         NCelK=      1 NCelE2=     1 NClLst=     1 CellRange=     0.0.
 One-electron integrals computed using PRISM.
   1 Symmetry operations used in ECPInt.
 ECPInt:  NShTT=    8515 NPrTT=   27988 LenC2=    7931 LenP2D=   19179.
 LDataN:  DoStor=T MaxTD1= 6 Len=  172
 NBasis=   366 RedAO= T EigKep=  5.93D-04  NBF=   366
 NBsUse=   366 1.00D-06 EigRej= -1.00D+00 NBFU=   366
 Precomputing XC quadrature grid using
 IXCGrd= 4 IRadAn=           5 IRanWt=          -1 IRanGd=           0 AccXCQ= 0.00D+00.
 Generated NRdTot=       0 NPtTot=           0 NUsed=           0 NTot=          32
 NSgBfM=   420   420   420   420   420 MxSgAt=    12 MxSgA2=    12.
 Leave Link  302 at Sat May 24 02:50:36 2025, MaxMem=  3758096384 cpu:               1.0 elap:               0.2
 (Enter /apps/easybuild-2022/easybuild/software/Compiler/NVHPC/22.11-CUDA-11.7.0/Gaussian/g16c01-CUDA-11.7.0/g16/l303.exe)
 DipDrv:  MaxL=1.
 Leave Link  303 at Sat May 24 02:50:36 2025, MaxMem=  3758096384 cpu:               0.1 elap:               0.0
 (Enter /apps/easybuild-2022/easybuild/software/Compiler/NVHPC/22.11-CUDA-11.7.0/Gaussian/g16c01-CUDA-11.7.0/g16/l401.exe)
 ExpMin= 9.52D-02 ExpMax= 6.07D+04 ExpMxC= 2.07D+03 IAcc=3 IRadAn=         5 AccDes= 0.00D+00
 Harris functional with IExCor= 1009 and IRadAn=       5 diagonalized for initial guess.
 HarFok:  IExCor= 1009 AccDes= 0.00D+00 IRadAn=         5 IDoV= 1 UseB2=F ITyADJ=14
 ICtDFT=  3500011 ScaDFX=  1.000000  1.000000  1.000000  1.000000
 FoFCou: FMM=F IPFlag=           0 FMFlag=      100000 FMFlg1=           0
         NFxFlg=           0 DoJE=T BraDBF=F KetDBF=T FulRan=T
         wScrn=  0.000000 ICntrl=       500 IOpCl=  0 I1Cent=   200000004 NGrid=           0
         NMat0=    1 NMatS0=      1 NMatT0=    0 NMatD0=    1 NMtDS0=    0 NMtDT0=    0
 Symmetry not used in FoFCou.
 Harris En= -1199.20071933319    
 JPrj=0 DoOrth=F DoCkMO=F.
 Leave Link  401 at Sat May 24 02:50:36 2025, MaxMem=  3758096384 cpu:               4.4 elap:               0.6
 (Enter /apps/easybuild-2022/easybuild/software/Compiler/NVHPC/22.11-CUDA-11.7.0/Gaussian/g16c01-CUDA-11.7.0/g16/l502.exe)
 Keep R1 ints in memory in canonical form, NReq=2293446996.
 FoFCou: FMM=F IPFlag=           0 FMFlag=           0 FMFlg1=           0
         NFxFlg=           0 DoJE=F BraDBF=F KetDBF=F FulRan=T
         wScrn=  0.000000 ICntrl=       600 IOpCl=  0 I1Cent=           0 NGrid=           0
         NMat0=    1 NMatS0=  67161 NMatT0=    0 NMatD0=    1 NMtDS0=    0 NMtDT0=    0
 Symmetry not used in FoFCou.
 Two-electron integral symmetry not used.
 Closed shell SCF:
 Using DIIS extrapolation, IDIIS=  1040.
 NGot=  3758096384 LenX=  1502398672 LenY=  1502219302
 Requested convergence on RMS density matrix=1.00D-08 within  32 cycles.
 Requested convergence on MAX density matrix=1.00D-06.
 Requested convergence on             energy=1.00D-06.
 No special actions if energy rises.
 Integral accuracy reduced to 1.0D-05 until final iterations.

 Cycle   1  Pass 0  IDiag  1:
 E= -1199.22470820387    
 DIIS: error= 2.39D-02 at cycle   1 NSaved=   1.
 NSaved= 1 IEnMin= 1 EnMin= -1199.22470820387     IErMin= 1 ErrMin= 2.39D-02
 ErrMax= 2.39D-02  0.00D+00 EMaxC= 1.00D-01 BMatC= 7.94D-01 BMatP= 7.94D-01
 IDIUse=3 WtCom= 7.61D-01 WtEn= 2.39D-01
 Coeff-Com:  0.100D+01
 Coeff-En:   0.100D+01
 Coeff:      0.100D+01
 Gap=    -0.077 Goal=   None    Shift=    0.000
 GapD=   -0.077 DampG=0.250 DampE=0.500 DampFc=0.2500 IDamp=-1.
 Damping current iteration by 2.50D-01
 RMSDP=4.82D-03 MaxDP=3.84D-01              OVMax= 6.98D-01

 Cycle   2  Pass 0  IDiag  1:
 E= -1199.33194516064     Delta-E=       -0.107236956771 Rises=F Damp=T
 DIIS: error= 1.10D-02 at cycle   2 NSaved=   2.
 NSaved= 2 IEnMin= 2 EnMin= -1199.33194516064     IErMin= 2 ErrMin= 1.10D-02
 ErrMax= 1.10D-02  0.00D+00 EMaxC= 1.00D-01 BMatC= 1.42D-01 BMatP= 7.94D-01
 IDIUse=3 WtCom= 8.90D-01 WtEn= 1.10D-01
 Coeff-Com: -0.273D+00 0.127D+01
 Coeff-En:   0.291D+00 0.709D+00
 Coeff:     -0.211D+00 0.121D+01
 Gap=     0.204 Goal=   None    Shift=    0.000
 RMSDP=1.18D-03 MaxDP=4.80D-02 DE=-1.07D-01 OVMax= 7.37D-01

 Cycle   3  Pass 0  IDiag  1:
 E= -1199.54743108333     Delta-E=       -0.215485922691 Rises=F Damp=F
 DIIS: error= 1.84D-02 at cycle   3 NSaved=   3.
 NSaved= 3 IEnMin= 3 EnMin= -1199.54743108333     IErMin= 2 ErrMin= 1.10D-02
 ErrMax= 1.84D-02  0.00D+00 EMaxC= 1.00D-01 BMatC= 2.13D-01 BMatP= 1.42D-01
 IDIUse=2 WtCom= 0.00D+00 WtEn= 1.00D+00
 Coeff-En:   0.000D+00 0.000D+00 0.100D+01
 Coeff:      0.000D+00 0.000D+00 0.100D+01
 Gap=     0.092 Goal=   None    Shift=    0.000
 RMSDP=3.29D-03 MaxDP=1.51D-01 DE=-2.15D-01 OVMax= 5.90D-01

 Cycle   4  Pass 0  IDiag  1:
 E= -1198.24929837855     Delta-E=        1.298132704787 Rises=F Damp=F
 DIIS: error= 5.23D-02 at cycle   4 NSaved=   4.
 NSaved= 4 IEnMin= 3 EnMin= -1199.54743108333     IErMin= 2 ErrMin= 1.10D-02
 ErrMax= 5.23D-02  0.00D+00 EMaxC= 1.00D-01 BMatC= 1.68D+00 BMatP= 1.42D-01
 IDIUse=2 WtCom= 0.00D+00 WtEn= 1.00D+00
 Coeff-En:   0.000D+00 0.000D+00 0.846D+00 0.154D+00
 Coeff:      0.000D+00 0.000D+00 0.846D+00 0.154D+00
 Gap=     0.139 Goal=   None    Shift=    0.000
 RMSDP=2.12D-03 MaxDP=9.52D-02 DE= 1.30D+00 OVMax= 4.48D-01

 Cycle   5  Pass 0  IDiag  1:
 E= -1199.60750060343     Delta-E=       -1.358202224882 Rises=F Damp=F
 DIIS: error= 1.42D-02 at cycle   5 NSaved=   5.
 NSaved= 5 IEnMin= 5 EnMin= -1199.60750060343     IErMin= 2 ErrMin= 1.10D-02
 ErrMax= 1.42D-02  0.00D+00 EMaxC= 1.00D-01 BMatC= 1.50D-01 BMatP= 1.42D-01
 IDIUse=3 WtCom= 8.58D-01 WtEn= 1.42D-01
 Coeff-Com: -0.694D-01 0.142D+00 0.391D+00-0.727D-01 0.609D+00
 Coeff-En:   0.000D+00 0.000D+00 0.418D+00 0.000D+00 0.582D+00
 Coeff:     -0.595D-01 0.122D+00 0.395D+00-0.623D-01 0.605D+00
 Gap=     0.245 Goal=   None    Shift=    0.000
 RMSDP=7.05D-04 MaxDP=3.76D-02 DE=-1.36D+00 OVMax= 1.23D-01

 Cycle   6  Pass 0  IDiag  1:
 E= -1199.71829892775     Delta-E=       -0.110798324320 Rises=F Damp=F
 DIIS: error= 1.52D-03 at cycle   6 NSaved=   6.
 NSaved= 6 IEnMin= 6 EnMin= -1199.71829892775     IErMin= 6 ErrMin= 1.52D-03
 ErrMax= 1.52D-03  0.00D+00 EMaxC= 1.00D-01 BMatC= 1.79D-03 BMatP= 1.42D-01
 IDIUse=3 WtCom= 9.85D-01 WtEn= 1.52D-02
 Coeff-Com: -0.381D-01 0.595D-01 0.154D+00-0.433D-01 0.271D+00 0.597D+00
 Coeff-En:   0.000D+00 0.000D+00 0.000D+00 0.000D+00 0.000D+00 0.100D+01
 Coeff:     -0.375D-01 0.586D-01 0.151D+00-0.427D-01 0.267D+00 0.603D+00
 Gap=     0.258 Goal=   None    Shift=    0.000
 RMSDP=9.60D-05 MaxDP=5.94D-03 DE=-1.11D-01 OVMax= 1.43D-02

 Cycle   7  Pass 0  IDiag  1:
 E= -1199.71942064656     Delta-E=       -0.001121718817 Rises=F Damp=F
 DIIS: error= 7.73D-04 at cycle   7 NSaved=   7.
 NSaved= 7 IEnMin= 7 EnMin= -1199.71942064656     IErMin= 7 ErrMin= 7.73D-04
 ErrMax= 7.73D-04  0.00D+00 EMaxC= 1.00D-01 BMatC= 4.42D-04 BMatP= 1.79D-03
 IDIUse=3 WtCom= 9.92D-01 WtEn= 7.73D-03
 Coeff-Com: -0.652D-02 0.678D-02-0.135D-02-0.352D-02-0.195D-01 0.294D+00
 Coeff-Com:  0.730D+00
 Coeff-En:   0.000D+00 0.000D+00 0.000D+00 0.000D+00 0.000D+00 0.100D+00
 Coeff-En:   0.900D+00
 Coeff:     -0.647D-02 0.673D-02-0.134D-02-0.349D-02-0.194D-01 0.293D+00
 Coeff:      0.731D+00
 Gap=     0.263 Goal=   None    Shift=    0.000
 RMSDP=5.25D-05 MaxDP=3.02D-03 DE=-1.12D-03 OVMax= 8.77D-03

 Cycle   8  Pass 0  IDiag  1:
 E= -1199.71981634561     Delta-E=       -0.000395699048 Rises=F Damp=F
 DIIS: error= 1.54D-04 at cycle   8 NSaved=   8.
 NSaved= 8 IEnMin= 8 EnMin= -1199.71981634561     IErMin= 8 ErrMin= 1.54D-04
 ErrMax= 1.54D-04  0.00D+00 EMaxC= 1.00D-01 BMatC= 1.35D-05 BMatP= 4.42D-04
 IDIUse=3 WtCom= 9.98D-01 WtEn= 1.54D-03
 Coeff-Com: -0.222D-02 0.307D-02-0.134D-01 0.138D-02-0.240D-01 0.643D-02
 Coeff-Com:  0.128D+00 0.901D+00
 Coeff-En:   0.000D+00 0.000D+00 0.000D+00 0.000D+00 0.000D+00 0.000D+00
 Coeff-En:   0.000D+00 0.100D+01
 Coeff:     -0.222D-02 0.306D-02-0.133D-01 0.138D-02-0.240D-01 0.642D-02
 Coeff:      0.128D+00 0.901D+00
 Gap=     0.263 Goal=   None    Shift=    0.000
 RMSDP=2.01D-05 MaxDP=6.61D-04 DE=-3.96D-04 OVMax= 4.29D-03

 Cycle   9  Pass 0  IDiag  1:
 E= -1199.71984589009     Delta-E=       -0.000029544474 Rises=F Damp=F
 DIIS: error= 1.39D-04 at cycle   9 NSaved=   9.
 NSaved= 9 IEnMin= 9 EnMin= -1199.71984589009     IErMin= 9 ErrMin= 1.39D-04
 ErrMax= 1.39D-04  0.00D+00 EMaxC= 1.00D-01 BMatC= 6.62D-06 BMatP= 1.35D-05
 IDIUse=3 WtCom= 9.99D-01 WtEn= 1.39D-03
 Coeff-Com: -0.188D-02 0.291D-02-0.306D-02 0.180D-03 0.250D-02-0.340D-01
 Coeff-Com: -0.945D-01 0.732D-01 0.105D+01
 Coeff-En:   0.000D+00 0.000D+00 0.000D+00 0.000D+00 0.000D+00 0.000D+00
 Coeff-En:   0.000D+00 0.000D+00 0.100D+01
 Coeff:     -0.188D-02 0.291D-02-0.306D-02 0.180D-03 0.250D-02-0.340D-01
 Coeff:     -0.944D-01 0.731D-01 0.105D+01
 Gap=     0.263 Goal=   None    Shift=    0.000
 RMSDP=1.17D-05 MaxDP=4.44D-04 DE=-2.95D-05 OVMax= 2.28D-03

 Failed to achieve initial convergence to 1.0D-08 in 10 cycles.
 Switch to full accuracy anyway.
 Cycle  10  Pass 1  IDiag  1:
 E= -1199.71989177703     Delta-E=       -0.000045886948 Rises=F Damp=F
 DIIS: error= 4.96D-05 at cycle   1 NSaved=   1.
 NSaved= 1 IEnMin= 1 EnMin= -1199.71989177703     IErMin= 1 ErrMin= 4.96D-05
 ErrMax= 4.96D-05  0.00D+00 EMaxC= 1.00D-01 BMatC= 1.64D-06 BMatP= 1.64D-06
 IDIUse=1 WtCom= 1.00D+00 WtEn= 0.00D+00
 Coeff-Com:  0.100D+01
 Coeff:      0.100D+01
 Gap=     0.262 Goal=   None    Shift=    0.000
 RMSDP=1.17D-05 MaxDP=4.44D-04 DE=-4.59D-05 OVMax= 8.03D-04

 Cycle  11  Pass 1  IDiag  1:
 E= -1199.71989174748     Delta-E=        0.000000029556 Rises=F Damp=F
 DIIS: error= 5.98D-05 at cycle   2 NSaved=   2.
 NSaved= 2 IEnMin= 1 EnMin= -1199.71989177703     IErMin= 1 ErrMin= 4.96D-05
 ErrMax= 5.98D-05  0.00D+00 EMaxC= 1.00D-01 BMatC= 2.79D-06 BMatP= 1.64D-06
 IDIUse=1 WtCom= 1.00D+00 WtEn= 0.00D+00
 Coeff-Com:  0.580D+00 0.420D+00
 Coeff:      0.580D+00 0.420D+00
 Gap=     0.263 Goal=   None    Shift=    0.000
 RMSDP=4.44D-06 MaxDP=2.19D-04 DE= 2.96D-08 OVMax= 7.64D-04

 Cycle  12  Pass 1  IDiag  1:
 E= -1199.71989383933     Delta-E=       -0.000002091850 Rises=F Damp=F
 DIIS: error= 2.84D-05 at cycle   3 NSaved=   3.
 NSaved= 3 IEnMin= 3 EnMin= -1199.71989383933     IErMin= 3 ErrMin= 2.84D-05
 ErrMax= 2.84D-05  0.00D+00 EMaxC= 1.00D-01 BMatC= 3.20D-07 BMatP= 1.64D-06
 IDIUse=1 WtCom= 1.00D+00 WtEn= 0.00D+00
 Coeff-Com:  0.567D-01 0.239D+00 0.704D+00
 Coeff:      0.567D-01 0.239D+00 0.704D+00
 Gap=     0.263 Goal=   None    Shift=    0.000
 RMSDP=1.58D-06 MaxDP=9.37D-05 DE=-2.09D-06 OVMax= 2.36D-04

 Cycle  13  Pass 1  IDiag  1:
 E= -1199.71989420066     Delta-E=       -0.000000361335 Rises=F Damp=F
 DIIS: error= 6.41D-06 at cycle   4 NSaved=   4.
 NSaved= 4 IEnMin= 4 EnMin= -1199.71989420066     IErMin= 4 ErrMin= 6.41D-06
 ErrMax= 6.41D-06  0.00D+00 EMaxC= 1.00D-01 BMatC= 4.55D-08 BMatP= 3.20D-07
 IDIUse=1 WtCom= 1.00D+00 WtEn= 0.00D+00
 Coeff-Com: -0.806D-01 0.625D-01 0.314D+00 0.704D+00
 Coeff:     -0.806D-01 0.625D-01 0.314D+00 0.704D+00
 Gap=     0.263 Goal=   None    Shift=    0.000
 RMSDP=1.06D-06 MaxDP=3.68D-05 DE=-3.61D-07 OVMax= 2.69D-04

 Cycle  14  Pass 1  IDiag  1:
 E= -1199.71989429717     Delta-E=       -0.000000096511 Rises=F Damp=F
 DIIS: error= 5.34D-06 at cycle   5 NSaved=   5.
 NSaved= 5 IEnMin= 5 EnMin= -1199.71989429717     IErMin= 5 ErrMin= 5.34D-06
 ErrMax= 5.34D-06  0.00D+00 EMaxC= 1.00D-01 BMatC= 9.57D-09 BMatP= 4.55D-08
 IDIUse=1 WtCom= 1.00D+00 WtEn= 0.00D+00
 Coeff-Com: -0.132D-01-0.272D-01-0.208D+00 0.223D-01 0.123D+01
 Coeff:     -0.132D-01-0.272D-01-0.208D+00 0.223D-01 0.123D+01
 Gap=     0.263 Goal=   None    Shift=    0.000
 RMSDP=9.41D-07 MaxDP=3.07D-05 DE=-9.65D-08 OVMax= 2.42D-04

 Cycle  15  Pass 1  IDiag  1:
 E= -1199.71989433813     Delta-E=       -0.000000040961 Rises=F Damp=F
 DIIS: error= 1.43D-06 at cycle   6 NSaved=   6.
 NSaved= 6 IEnMin= 6 EnMin= -1199.71989433813     IErMin= 6 ErrMin= 1.43D-06
 ErrMax= 1.43D-06  0.00D+00 EMaxC= 1.00D-01 BMatC= 2.21D-09 BMatP= 9.57D-09
 IDIUse=1 WtCom= 1.00D+00 WtEn= 0.00D+00
 Coeff-Com:  0.132D-01-0.248D-01-0.187D+00-0.151D+00 0.609D+00 0.742D+00
 Coeff:      0.132D-01-0.248D-01-0.187D+00-0.151D+00 0.609D+00 0.742D+00
 Gap=     0.263 Goal=   None    Shift=    0.000
 RMSDP=3.73D-07 MaxDP=1.51D-05 DE=-4.10D-08 OVMax= 9.75D-05

 Cycle  16  Pass 1  IDiag  1:
 E= -1199.71989434348     Delta-E=       -0.000000005351 Rises=F Damp=F
 DIIS: error= 5.05D-07 at cycle   7 NSaved=   7.
 NSaved= 7 IEnMin= 7 EnMin= -1199.71989434348     IErMin= 7 ErrMin= 5.05D-07
 ErrMax= 5.05D-07  0.00D+00 EMaxC= 1.00D-01 BMatC= 1.40D-10 BMatP= 2.21D-09
 IDIUse=1 WtCom= 1.00D+00 WtEn= 0.00D+00
 Coeff-Com:  0.405D-02-0.383D-02-0.337D-01-0.389D-01 0.632D-01 0.221D+00
 Coeff-Com:  0.788D+00
 Coeff:      0.405D-02-0.383D-02-0.337D-01-0.389D-01 0.632D-01 0.221D+00
 Coeff:      0.788D+00
 Gap=     0.263 Goal=   None    Shift=    0.000
 RMSDP=6.52D-08 MaxDP=1.99D-06 DE=-5.35D-09 OVMax= 1.59D-05

 Cycle  17  Pass 1  IDiag  1:
 E= -1199.71989434380     Delta-E=       -0.000000000315 Rises=F Damp=F
 DIIS: error= 2.11D-07 at cycle   8 NSaved=   8.
 NSaved= 8 IEnMin= 8 EnMin= -1199.71989434380     IErMin= 8 ErrMin= 2.11D-07
 ErrMax= 2.11D-07  0.00D+00 EMaxC= 1.00D-01 BMatC= 5.01D-11 BMatP= 1.40D-10
 IDIUse=1 WtCom= 1.00D+00 WtEn= 0.00D+00
 Coeff-Com: -0.117D-02 0.483D-02 0.289D-01 0.196D-01-0.123D+00-0.801D-01
 Coeff-Com:  0.378D+00 0.773D+00
 Coeff:     -0.117D-02 0.483D-02 0.289D-01 0.196D-01-0.123D+00-0.801D-01
 Coeff:      0.378D+00 0.773D+00
 Gap=     0.263 Goal=   None    Shift=    0.000
 RMSDP=3.86D-08 MaxDP=1.34D-06 DE=-3.15D-10 OVMax= 8.55D-06

 Cycle  18  Pass 1  IDiag  1:
 E= -1199.71989434387     Delta-E=       -0.000000000073 Rises=F Damp=F
 DIIS: error= 7.09D-08 at cycle   9 NSaved=   9.
 NSaved= 9 IEnMin= 9 EnMin= -1199.71989434387     IErMin= 9 ErrMin= 7.09D-08
 ErrMax= 7.09D-08  0.00D+00 EMaxC= 1.00D-01 BMatC= 5.86D-12 BMatP= 5.01D-11
 IDIUse=1 WtCom= 1.00D+00 WtEn= 0.00D+00
 Coeff-Com: -0.906D-03 0.243D-02 0.133D-01 0.116D-01-0.501D-01-0.543D-01
 Coeff-Com:  0.157D-01 0.231D+00 0.832D+00
 Coeff:     -0.906D-03 0.243D-02 0.133D-01 0.116D-01-0.501D-01-0.543D-01
 Coeff:      0.157D-01 0.231D+00 0.832D+00
 Gap=     0.263 Goal=   None    Shift=    0.000
 RMSDP=1.56D-08 MaxDP=7.22D-07 DE=-7.32D-11 OVMax= 3.20D-06

 Cycle  19  Pass 1  IDiag  1:
 E= -1199.71989434378     Delta-E=        0.000000000090 Rises=F Damp=F
 DIIS: error= 3.68D-08 at cycle  10 NSaved=  10.
 NSaved=10 IEnMin= 9 EnMin= -1199.71989434387     IErMin=10 ErrMin= 3.68D-08
 ErrMax= 3.68D-08  0.00D+00 EMaxC= 1.00D-01 BMatC= 1.04D-12 BMatP= 5.86D-12
 IDIUse=1 WtCom= 1.00D+00 WtEn= 0.00D+00
 Coeff-Com: -0.660D-04-0.157D-03-0.193D-02-0.108D-03 0.104D-01 0.108D-03
 Coeff-Com: -0.831D-01-0.929D-01 0.301D+00 0.867D+00
 Coeff:     -0.660D-04-0.157D-03-0.193D-02-0.108D-03 0.104D-01 0.108D-03
 Coeff:     -0.831D-01-0.929D-01 0.301D+00 0.867D+00
 Gap=     0.263 Goal=   None    Shift=    0.000
 RMSDP=7.93D-09 MaxDP=3.78D-07 DE= 9.05D-11 OVMax= 1.46D-06

 SCF Done:  E(RM062X) =  -1199.71989434     A.U. after   19 cycles
            NFock= 19  Conv=0.79D-08     -V/T= 2.0025
 KE= 1.196692909591D+03 PE=-4.671319616690D+03 EE= 1.362185165355D+03
 Leave Link  502 at Sat May 24 02:51:28 2025, MaxMem=  3758096384 cpu:             194.2 elap:              51.5
 (Enter /apps/easybuild-2022/easybuild/software/Compiler/NVHPC/22.11-CUDA-11.7.0/Gaussian/g16c01-CUDA-11.7.0/g16/l508.exe)
 QCSCF skips out because SCF is already converged.
 Leave Link  508 at Sat May 24 02:51:28 2025, MaxMem=  3758096384 cpu:               0.1 elap:               0.0
 (Enter /apps/easybuild-2022/easybuild/software/Compiler/NVHPC/22.11-CUDA-11.7.0/Gaussian/g16c01-CUDA-11.7.0/g16/l801.exe)
 DoSCS=F DFT=T ScalE2(SS,OS)=  1.000000  1.000000
 Range of M.O.s used for correlation:     1   366
 NBasis=   366 NAE=    49 NBE=    49 NFC=     0 NFV=     0
 NROrb=    366 NOA=    49 NOB=    49 NVA=   317 NVB=   317

 **** Warning!!: The largest alpha MO coefficient is  0.16387010D+02

 Leave Link  801 at Sat May 24 02:51:28 2025, MaxMem=  3758096384 cpu:               0.1 elap:               0.0
 (Enter /apps/easybuild-2022/easybuild/software/Compiler/NVHPC/22.11-CUDA-11.7.0/Gaussian/g16c01-CUDA-11.7.0/g16/l1101.exe)
 Using compressed storage, NAtomX=    12.
 Will process     13 centers per pass.
   1 Symmetry operations used in ECPInt.
 ECPInt:  NShTT=    8515 NPrTT=   27988 LenC2=    7931 LenP2D=   19179.
 LDataN:  DoStor=T MaxTD1= 7 Len=  274
 Leave Link 1101 at Sat May 24 02:51:28 2025, MaxMem=  3758096384 cpu:               1.6 elap:               0.4
 (Enter /apps/easybuild-2022/easybuild/software/Compiler/NVHPC/22.11-CUDA-11.7.0/Gaussian/g16c01-CUDA-11.7.0/g16/l1102.exe)
 Symmetrizing basis deriv contribution to polar:
 IMax=3 JMax=2 DiffMx= 0.00D+00
 Leave Link 1102 at Sat May 24 02:51:28 2025, MaxMem=  3758096384 cpu:               0.1 elap:               0.0
 (Enter /apps/easybuild-2022/easybuild/software/Compiler/NVHPC/22.11-CUDA-11.7.0/Gaussian/g16c01-CUDA-11.7.0/g16/l1110.exe)
 Forming Gx(P) for the SCF density, NAtomX=    12.
 Integral derivatives from FoFJK, PRISM(SPDF).
 Do as many integral derivatives as possible in FoFJK.
 G2DrvN: MDV=    3758095012.
 G2DrvN: will do    13 centers at a time, making    1 passes.
 Calling FoFCou, ICntrl=  3107 FMM=F I1Cent=   0 AccDes= 0.00D+00.
 FoFJK:  IHMeth= 1 ICntrl=    3107 DoSepK=F KAlg= 0 I1Cent=           0 FoldK=F
 IRaf=         0 NMat=       1 IRICut=       1 DoRegI=T DoRafI=F ISym2E= 0 IDoP0=0 IntGTp=1.
 FoFCou: FMM=F IPFlag=           0 FMFlag=      100000 FMFlg1=           0
         NFxFlg=           0 DoJE=F BraDBF=F KetDBF=F FulRan=T
         wScrn=  0.000000 ICntrl=      3107 IOpCl=  0 I1Cent=           0 NGrid=           0
         NMat0=    1 NMatS0=      1 NMatT0=    0 NMatD0=    1 NMtDS0=    0 NMtDT0=    0
 Symmetry not used in FoFCou.
 End of G2Drv F.D. properties file   721 does not exist.
 End of G2Drv F.D. properties file   722 does not exist.
 End of G2Drv F.D. properties file   788 does not exist.
 Leave Link 1110 at Sat May 24 02:52:24 2025, MaxMem=  3758096384 cpu:             446.1 elap:              56.2
 (Enter /apps/easybuild-2022/easybuild/software/Compiler/NVHPC/22.11-CUDA-11.7.0/Gaussian/g16c01-CUDA-11.7.0/g16/l1002.exe)
 Minotr:  Closed shell wavefunction.
          IDoAtm=111111111111
          Direct CPHF calculation.
          Differentiating once with respect to electric field.
                with respect to dipole field.
          Differentiating once with respect to nuclear coordinates.
          Requested convergence is 1.0D-08 RMS, and 1.0D-07 maximum.
          Secondary convergence is 1.0D-12 RMS, and 1.0D-12 maximum.
          NewPWx=T KeepS1=F KeepF1=F KeepIn=T MapXYZ=F SortEE=F KeepMc=T.
         3605 words used for storage of precomputed grid.
 Keep R1 ints in memory in canonical form, NReq=2293452911.
 FoFCou: FMM=F IPFlag=           0 FMFlag=           0 FMFlg1=           0
         NFxFlg=           0 DoJE=F BraDBF=F KetDBF=F FulRan=T
         wScrn=  0.000000 ICntrl=       600 IOpCl=  0 I1Cent=           0 NGrid=           0
         NMat0=    1 NMatS0=  67161 NMatT0=    0 NMatD0=    1 NMtDS0=    0 NMtDT0=    0
 Symmetry not used in FoFCou.
 Two-electron integral symmetry not used.
          MDV=    3758096384 using IRadAn=       1.
          Solving linear equations simultaneously, MaxMat=       0.
          There are    39 degrees of freedom in the 1st order CPHF.  IDoFFX=6 NUNeed=     3.
     36 vectors produced by pass  0 Test12= 3.98D-14 2.56D-09 XBig12= 2.93D+01 1.90D+00.
 AX will form    36 AO Fock derivatives at one time.
     36 vectors produced by pass  1 Test12= 3.98D-14 2.56D-09 XBig12= 5.99D+00 3.41D-01.
     36 vectors produced by pass  2 Test12= 3.98D-14 2.56D-09 XBig12= 2.56D-01 1.08D-01.
     36 vectors produced by pass  3 Test12= 3.98D-14 2.56D-09 XBig12= 8.83D-03 1.21D-02.
     36 vectors produced by pass  4 Test12= 3.98D-14 2.56D-09 XBig12= 1.53D-04 1.25D-03.
     36 vectors produced by pass  5 Test12= 3.98D-14 2.56D-09 XBig12= 1.32D-06 1.45D-04.
     36 vectors produced by pass  6 Test12= 3.98D-14 2.56D-09 XBig12= 9.90D-09 1.05D-05.
     20 vectors produced by pass  7 Test12= 3.98D-14 2.56D-09 XBig12= 6.82D-11 1.05D-06.
      3 vectors produced by pass  8 Test12= 3.98D-14 2.56D-09 XBig12= 3.66D-13 5.86D-08.
      2 vectors produced by pass  9 Test12= 3.98D-14 2.56D-09 XBig12= 1.69D-15 3.53D-09.
 InvSVY:  IOpt=1 It=  1 EMax= 2.66D-15
 Solved reduced A of dimension   277 with    39 vectors.
 FullF1:  Do perturbations      1 to       3.
 Isotropic polarizability for W=    0.000000       60.43 Bohr**3.
 End of Minotr F.D. properties file   721 does not exist.
 End of Minotr F.D. properties file   722 does not exist.
 End of Minotr F.D. properties file   788 does not exist.
 Leave Link 1002 at Sat May 24 02:54:10 2025, MaxMem=  3758096384 cpu:             809.7 elap:             105.5
 (Enter /apps/easybuild-2022/easybuild/software/Compiler/NVHPC/22.11-CUDA-11.7.0/Gaussian/g16c01-CUDA-11.7.0/g16/l701.exe)
 ... and contract with generalized density number  0.
 Compute integral second derivatives.
   1 Symmetry operations used in ECPInt.
 ECPInt:  NShTT=    8515 NPrTT=   27988 LenC2=    7931 LenP2D=   19179.
 LDataN:  DoStor=T MaxTD1= 8 Len=  415
 Leave Link  701 at Sat May 24 02:54:10 2025, MaxMem=  3758096384 cpu:               1.1 elap:               0.2
 (Enter /apps/easybuild-2022/easybuild/software/Compiler/NVHPC/22.11-CUDA-11.7.0/Gaussian/g16c01-CUDA-11.7.0/g16/l702.exe)
 L702 exits ... SP integral derivatives will be done elsewhere.
 Leave Link  702 at Sat May 24 02:54:10 2025, MaxMem=  3758096384 cpu:               0.1 elap:               0.0
 (Enter /apps/easybuild-2022/easybuild/software/Compiler/NVHPC/22.11-CUDA-11.7.0/Gaussian/g16c01-CUDA-11.7.0/g16/l703.exe)
 Integral derivatives from FoFJK, PRISM(SPDF).
 Compute integral second derivatives, UseDBF=F ICtDFT=           0.
 Calling FoFJK, ICntrl=    100127 FMM=F ISym2X=0 I1Cent= 0 IOpClX= 0 NMat=1 NMatS=1 NMatT=0.
 FoFJK:  IHMeth= 1 ICntrl=  100127 DoSepK=F KAlg= 0 I1Cent=           0 FoldK=F
 IRaf=         0 NMat=       1 IRICut=       1 DoRegI=T DoRafI=F ISym2E= 0 IDoP0=0 IntGTp=1.
 FoFCou: FMM=F IPFlag=           0 FMFlag=      100000 FMFlg1=         800
         NFxFlg=           0 DoJE=F BraDBF=F KetDBF=F FulRan=T
         wScrn=  0.000000 ICntrl=    100127 IOpCl=  0 I1Cent=           0 NGrid=           0
         NMat0=    1 NMatS0=      1 NMatT0=    0 NMatD0=    1 NMtDS0=    0 NMtDT0=    0
 Symmetry not used in FoFCou.
 Leave Link  703 at Sat May 24 02:56:27 2025, MaxMem=  3758096384 cpu:            1009.8 elap:             137.2
 (Enter /apps/easybuild-2022/easybuild/software/Compiler/NVHPC/22.11-CUDA-11.7.0/Gaussian/g16c01-CUDA-11.7.0/g16/l716.exe)
 Dipole        =-4.49553928D-01-2.39424610D-01-1.15770830D+00
 Polarizability= 6.33878296D+01 1.04711744D+01 6.10653461D+01
                 7.31240174D-01 2.14274873D+00 5.68315809D+01
 -------------------------------------------------------------------
 Center     Atomic                   Forces (Hartrees/Bohr)
 Number     Number              X              Y              Z
 -------------------------------------------------------------------
      1        6           0.003550944   -0.026596461    0.004268205
      2        6          -0.075873032    0.026827965   -0.004337997
      3        9           0.012917765   -0.016124822   -0.005552372
      4        9           0.011518160   -0.014124050    0.006059454
      5       16           0.080883599    0.336400526    0.283367714
      6        8          -0.079528879   -0.162342692   -0.013157841
      7        8           0.070670431   -0.175265107   -0.143266985
      8        8          -0.022374713   -0.000786782   -0.114141807
      9        9           0.008541737    0.007762721   -0.015368575
     10        9           0.012591917    0.010325637    0.005697906
     11        9          -0.012075982    0.019594644    0.004014507
     12        1          -0.010821947   -0.005671578   -0.007582209
 -------------------------------------------------------------------
 Cartesian Forces:  Max     0.336400526 RMS     0.093110571
 Force constants in Cartesian coordinates: 
                1             2             3             4             5 
      1  0.635936D+00
      2  0.369167D-02  0.576301D+00
      3 -0.204205D-01  0.202240D-01  0.593979D+00
      4 -0.924342D-01 -0.252127D-01  0.180142D-02  0.512499D+00
      5 -0.639061D-01 -0.128249D+00  0.398671D-02 -0.454881D-01  0.497318D+00
      6  0.375605D-02  0.454397D-02 -0.442279D-01 -0.898213D-02  0.300540D-01
      7  0.455637D-02 -0.374280D-02  0.295969D-02 -0.938480D-01  0.430179D-01
      8  0.213146D-01 -0.160658D-01  0.356930D-01  0.335179D-01 -0.136286D+00
      9 -0.118093D-01  0.909510D-02 -0.224578D-01 -0.477385D-01  0.936841D-01
     10  0.111223D-02 -0.470588D-02 -0.166883D-02 -0.962467D-01  0.525379D-01
     11  0.199688D-01 -0.185993D-01 -0.392785D-01  0.429546D-01 -0.172957D+00
     12  0.869703D-02 -0.113242D-01 -0.156354D-01  0.558586D-01 -0.114861D+00
     13 -0.208675D-01 -0.251856D-01 -0.742042D-03 -0.219481D+00  0.101561D-01
     14 -0.328626D-01  0.245195D-01  0.168381D-03 -0.155460D-02 -0.361518D-01
     15 -0.109020D-02  0.483926D-03  0.175074D-01 -0.127396D-02  0.196580D-02
     16 -0.341222D-03  0.584819D-02  0.123950D-02  0.442666D-02 -0.593263D-02
     17  0.120282D-02 -0.110081D-02  0.104592D-02  0.288022D-02 -0.277394D-02
     18  0.234693D-03  0.254757D-02 -0.224048D-02  0.108287D-01 -0.572007D-02
     19  0.243306D-02  0.566846D-02 -0.192021D-02  0.116273D-01  0.186017D-01
     20  0.686934D-02 -0.100025D-01 -0.189414D-02 -0.360435D-02  0.131848D-03
     21  0.218898D-02 -0.438975D-02 -0.557467D-02 -0.465955D-02 -0.418443D-02
     22 -0.133807D-03  0.580956D-02 -0.378003D-03  0.239384D-02 -0.978979D-02
     23  0.288087D-02  0.637655D-03  0.397061D-04  0.825655D-02 -0.399272D-02
     24 -0.108538D-02  0.620123D-03 -0.130300D-02 -0.540643D-02 -0.118816D-02
     25 -0.782222D-01 -0.113528D-01 -0.731135D-02  0.770924D-02 -0.246547D-02
     26 -0.969075D-02 -0.157082D+00 -0.116692D+00 -0.957934D-03 -0.899194D-02
     27 -0.671460D-02 -0.121206D+00 -0.260637D+00 -0.560430D-03 -0.490099D-02
     28 -0.102844D+00  0.457987D-01 -0.465511D-01  0.794285D-02 -0.148094D-02
     29  0.459566D-01 -0.190642D+00  0.991410D-01  0.198085D-01 -0.117944D-01
     30 -0.476218D-01  0.100069D+00 -0.165993D+00 -0.966460D-02  0.659308D-02
     31 -0.349045D+00  0.344440D-02  0.725440D-01 -0.440060D-01  0.599297D-02
     32  0.477426D-02 -0.795388D-01 -0.294893D-02 -0.294942D-01  0.271514D-02
     33  0.743694D-01 -0.159330D-02 -0.930488D-01  0.107100D-01 -0.284414D-02
     34 -0.150434D-03 -0.611596D-04  0.447398D-03 -0.582616D-03 -0.124346D-02
     35 -0.199536D-03 -0.178696D-03  0.514791D-03 -0.110579D-02  0.103139D-02
     36 -0.504348D-03  0.929760D-03 -0.368866D-03 -0.913134D-03 -0.258505D-02
                6             7             8             9            10 
      6  0.477749D+00
      7 -0.626885D-01  0.854802D-01
      8  0.883799D-01 -0.488409D-01  0.141372D+00
      9 -0.188287D+00  0.768973D-01 -0.119963D+00  0.315041D+00
     10  0.622211D-01  0.162409D-01 -0.479720D-02 -0.453859D-02  0.102846D+00
     11 -0.110076D+00 -0.307466D-02  0.224221D-01  0.322157D-02 -0.633518D-01
     12 -0.192240D+00  0.736054D-02 -0.155921D-01 -0.101783D+00 -0.778978D-01
     13 -0.143679D-01 -0.137493D-01  0.434427D-02 -0.111393D-01 -0.114032D-01
     14 -0.291437D-02  0.160064D-01 -0.588569D-02  0.901726D-02  0.246784D-01
     15 -0.254031D-01 -0.360043D-01  0.150349D-01 -0.203140D-01  0.265682D-01
     16 -0.336081D-02 -0.261435D-02  0.184964D-02 -0.310661D-02 -0.538375D-02
     17 -0.741369D-03  0.102313D-02  0.261759D-03  0.331185D-03  0.109804D-03
     18  0.796463D-03 -0.379919D-03 -0.597759D-03  0.137751D-02 -0.961776D-03
     19  0.223531D-01 -0.119241D-02  0.200970D-03 -0.354736D-02 -0.115260D-01
     20 -0.103672D-01  0.387487D-03  0.730396D-03  0.276708D-02  0.299538D-02
     21 -0.861919D-03  0.534328D-02 -0.223252D-02  0.521671D-02  0.123845D-02
     22  0.134975D-02  0.218464D-03 -0.113421D-02  0.673079D-03 -0.768238D-03
     23  0.176768D-02 -0.204128D-02  0.282818D-02 -0.262931D-02 -0.249314D-02
     24 -0.117026D-02  0.264634D-02 -0.199471D-02  0.236200D-02 -0.289472D-04
     25 -0.131422D-01  0.563296D-03 -0.105317D-02  0.161553D-02 -0.287719D-03
     26 -0.337524D-01  0.414956D-05  0.694093D-03  0.326306D-03 -0.198102D-02
     27 -0.189375D-01  0.149849D-02 -0.208131D-03  0.639325D-02 -0.182949D-02
     28  0.223076D-02  0.450495D-03 -0.277439D-02  0.138950D-02  0.567559D-03
     29  0.305091D-01 -0.368985D-02 -0.112597D-01  0.472149D-02 -0.978139D-03
     30 -0.928473D-02  0.197704D-02  0.342025D-02 -0.670323D-04  0.466697D-03
     31  0.101834D-01  0.414674D-02 -0.376417D-02  0.250030D-02  0.471518D-02
     32  0.386360D-02  0.134612D-02  0.890946D-03 -0.942465D-05 -0.217139D-02
     33  0.601606D-03 -0.428446D-03 -0.169358D-02  0.218137D-02 -0.345809D-02
     34  0.447352D-03 -0.252402D-03  0.113670D-02 -0.119596D-02  0.134037D-03
     35 -0.126731D-02 -0.395721D-03  0.298042D-03 -0.561894D-03  0.157119D-03
     36  0.126487D-02  0.818506D-03 -0.245748D-03  0.337648D-03 -0.110893D-03
               11            12            13            14            15 
     11  0.183604D+00
     12  0.155193D+00  0.311743D+00
     13  0.742428D-02  0.875988D-02  0.554489D+00
     14 -0.870345D-02 -0.990426D-02 -0.420651D+00  0.873930D+00
     15 -0.138865D-01 -0.151855D-01 -0.322465D+00  0.658524D+00  0.767225D+00
     16 -0.191664D-02 -0.445099D-02 -0.843436D-01  0.265056D-01  0.646202D-02
     17  0.205697D-02  0.187949D-02  0.330167D-01 -0.513077D-01  0.143001D-01
     18  0.160994D-02  0.283287D-02 -0.127384D-02  0.119102D-01 -0.496168D-01
     19  0.359875D-02  0.428341D-02 -0.168876D+00  0.375363D+00  0.322657D+00
     20  0.750969D-03 -0.111713D-02  0.357782D+00 -0.740023D+00 -0.673935D+00
     21  0.932443D-03  0.204852D-02  0.315524D+00 -0.690605D+00 -0.589586D+00
     22  0.112194D-02  0.129636D-02 -0.421348D-01 -0.633023D-03 -0.566874D-02
     23  0.225319D-02  0.845815D-03  0.124823D-01 -0.476927D-01 -0.202011D-01
     24 -0.144966D-03  0.109663D-02  0.281605D-01  0.174952D-01 -0.607056D-01
     25 -0.540925D-02 -0.175389D-02  0.734173D-03  0.341013D-02  0.202594D-02
     26 -0.102995D-01 -0.341208D-02  0.544606D-02 -0.562602D-02 -0.970892D-03
     27 -0.394164D-02  0.313420D-03  0.360677D-02 -0.378075D-02 -0.493414D-02
     28 -0.879507D-03 -0.269667D-03 -0.125811D-02  0.615640D-02 -0.108780D-02
     29 -0.146878D-02 -0.368517D-02  0.447960D-02 -0.544186D-02  0.196932D-03
     30  0.432740D-02  0.384483D-02 -0.175397D-02  0.215052D-02 -0.440831D-02
     31 -0.346904D-03 -0.137635D-02  0.606786D-02 -0.252077D-02  0.901056D-03
     32  0.132826D-02  0.223323D-02  0.436030D-02 -0.685831D-02 -0.235826D-03
     33  0.173948D-02  0.276671D-02 -0.107857D-02  0.871969D-03 -0.188280D-02
     34 -0.895483D-04 -0.507085D-03  0.822377D-03  0.610295D-02  0.897613D-02
     35 -0.387660D-03 -0.255575D-03  0.634546D-02  0.924147D-02  0.187234D-01
     36  0.303541D-03  0.198087D-03 -0.323028D-02  0.706622D-02 -0.126959D-01
               16            17            18            19            20 
     16  0.440224D-01
     17 -0.207521D-02  0.722467D-01
     18 -0.378752D-01 -0.132065D+00  0.212417D+00
     19  0.104788D-01 -0.130226D-01 -0.241950D-02  0.153181D+00
     20  0.427735D-02  0.138605D-01  0.504718D-02 -0.374047D+00  0.740988D+00
     21  0.155417D-01  0.137878D-02  0.114392D-01 -0.333146D+00  0.693037D+00
     22  0.279970D-01 -0.158999D-01  0.246828D-01  0.819803D-02  0.718171D-02
     23 -0.216706D-01 -0.283924D-01  0.959345D-01 -0.110053D-01 -0.143740D-01
     24  0.181141D-01  0.980018D-01 -0.173363D+00 -0.911413D-02 -0.129315D-01
     25 -0.286160D-05 -0.191985D-03 -0.253469D-03 -0.207052D-02 -0.200334D-02
     26 -0.141230D-02  0.316892D-03 -0.413500D-03 -0.225833D-02  0.265493D-02
     27 -0.112446D-02 -0.300801D-04  0.443384D-03 -0.692688D-03  0.232134D-02
     28  0.131009D-03 -0.615161D-03 -0.200407D-03  0.209673D-03 -0.266683D-02
     29 -0.148507D-02  0.436563D-03 -0.812931D-03 -0.181363D-02  0.225510D-02
     30  0.238275D-03 -0.581639D-03  0.795845D-03  0.137097D-02 -0.245833D-04
     31 -0.133906D-02 -0.474175D-03 -0.101421D-02 -0.946154D-03 -0.154844D-03
     32 -0.141458D-02  0.243937D-03 -0.509173D-03 -0.101294D-02  0.215436D-02
     33  0.110951D-03  0.165096D-04  0.486201D-03  0.310387D-03  0.210151D-03
     34  0.696890D-02 -0.595361D-02  0.863208D-02 -0.151669D-02  0.298279D-02
     35 -0.257375D-02 -0.584842D-02  0.230691D-01 -0.272904D-03  0.873393D-03
     36  0.821148D-02  0.164644D-01 -0.536825D-02 -0.134950D-03 -0.311353D-02
               21            22            23            24            25 
     21  0.555160D+00
     22  0.456174D-03  0.868469D-01
     23  0.653890D-02  0.783546D-01  0.163399D+00
     24  0.158407D-01 -0.160286D+00 -0.174089D+00  0.573170D+00
     25 -0.150138D-02 -0.136910D-03 -0.595877D-03  0.573716D-04  0.849690D-01
     26  0.160516D-02 -0.134256D-02 -0.154741D-03  0.121360D-03 -0.134127D-01
     27  0.287024D-02 -0.768087D-03 -0.195950D-03  0.441614D-03 -0.128606D-01
     28  0.167189D-03  0.296415D-03 -0.906358D-03  0.511381D-03  0.835203D-02
     29  0.933408D-03 -0.105314D-02  0.112657D-03 -0.150265D-03 -0.141131D-02
     30  0.674349D-03  0.531205D-03 -0.233185D-03  0.663932D-03 -0.301503D-01
     31 -0.189798D-03 -0.158092D-02 -0.122946D-02 -0.639826D-04 -0.216496D-01
     32  0.102985D-02 -0.127749D-02 -0.604934D-04 -0.267697D-03  0.344020D-01
     33  0.694069D-03  0.393560D-03  0.226774D-03  0.201025D-03  0.632705D-01
     34 -0.963016D-03 -0.811960D-01 -0.620323D-01  0.126496D+00  0.420333D-04
     35 -0.404458D-02 -0.613377D-01 -0.745636D-01  0.745279D-01  0.837998D-04
     36  0.207843D-02  0.137718D+00  0.919953D-01 -0.357235D+00  0.388130D-05
               26            27            28            29            30 
     26  0.153211D+00
     27  0.159138D+00  0.406161D+00
     28  0.290184D-02 -0.258555D-01  0.154130D+00
     29  0.228287D-01  0.203029D-02 -0.998877D-01  0.199790D+00
     30  0.210801D-01 -0.901853D-01  0.105609D+00 -0.144512D+00  0.251333D+00
     31  0.226016D-01  0.453931D-01 -0.680960D-01  0.398761D-01 -0.208819D-01
     32  0.236707D-02 -0.291448D-01  0.542001D-01 -0.482524D-02  0.776429D-02
     33 -0.268946D-01 -0.419230D-01 -0.362821D-01  0.116579D-01  0.124107D-01
     34  0.101901D-03 -0.924619D-04  0.118003D-03  0.197963D-03 -0.120618D-03
     35  0.811628D-04 -0.818162D-04  0.153851D-03  0.818843D-05 -0.528212D-04
     36 -0.135998D-03 -0.643046D-05  0.338686D-03 -0.296948D-04  0.214886D-03
               31            32            33            34            35 
     31  0.471647D+00
     32 -0.637502D-01  0.814947D-01
     33 -0.107832D+00  0.184436D-01  0.117436D+00
     34  0.863250D-04  0.381116D-04 -0.855036D-04  0.755265D-01
     35  0.325462D-03  0.883837D-04 -0.140774D-03  0.588197D-01  0.693563D-01
     36 -0.163400D-03 -0.218730D-03  0.769256D-04 -0.142034D+00 -0.110430D+00
               36 
     36  0.371503D+00
 FormGI is forming the generalized inverse of G from B-inverse, IUseBI=4.
 Leave Link  716 at Sat May 24 02:56:28 2025, MaxMem=  3758096384 cpu:               0.0 elap:               0.0
 (Enter /apps/easybuild-2022/easybuild/software/Compiler/NVHPC/22.11-CUDA-11.7.0/Gaussian/g16c01-CUDA-11.7.0/g16/l103.exe)

 GradGradGradGradGradGradGradGradGradGradGradGradGradGradGradGradGradGrad
 Berny optimization.
 Red2BG is reusing G-inverse.
 Internal  Forces:  Max     0.236705603 RMS     0.055794004
 Search for a saddle point.
 Step number   1 out of a maximum of  100
 All quantities printed in internal units (Hartrees-Bohrs-Radians)
 Swapping is turned off.
 Second derivative matrix not updated -- analytic derivatives used.
 ITU=  0
     Eigenvalues ---   -0.10861  -0.02804   0.00030   0.00255   0.01242
     Eigenvalues ---    0.03964   0.05573   0.07703   0.08970   0.09663
     Eigenvalues ---    0.10562   0.13304   0.14024   0.14338   0.17202
     Eigenvalues ---    0.20683   0.21496   0.23415   0.24561   0.24744
     Eigenvalues ---    0.28591   0.35278   0.36767   0.41326   0.44653
     Eigenvalues ---    0.46110   0.50491   0.64761   0.86638   1.53078
 Eigenvectors required to have negative eigenvalues:
                          A15       A13       D19       D20       A16
   1                   -0.59645   0.40803   0.38116  -0.30685  -0.27011
                          A18       D17       D11       D14       D13
   1                    0.17861   0.17084   0.16992   0.15479  -0.09583
 Eigenvalue     2 is  -2.80D-02 should be greater than     0.000000 Eigenvector:
                          R8        R10       A19       D20       A16
   1                    0.73030  -0.62466  -0.23977   0.08613   0.05878
                          D19       A13       A17       A14       D16
   1                    0.04569  -0.04318   0.03033  -0.02915   0.01832
 RFO step:  Lambda0=4.925376166D-03 Lambda=-2.27081995D-01.
 Linear search not attempted -- option 19 set.
 Maximum step size (   0.300) exceeded in Quadratic search.
    -- Step size scaled by   0.252
 Iteration  1 RMS(Cart)=  0.04148144 RMS(Int)=  0.01120848
 Iteration  2 RMS(Cart)=  0.01047440 RMS(Int)=  0.00027297
 Iteration  3 RMS(Cart)=  0.00002558 RMS(Int)=  0.00027212
 Iteration  4 RMS(Cart)=  0.00000002 RMS(Int)=  0.00027212
 ITry= 1 IFail=0 DXMaxC= 1.89D-01 DCOld= 1.00D+10 DXMaxT= 3.00D-01 DXLimC= 3.00D+00 Rises=F
 Variable       Old X    -DE/DX   Delta X   Delta X   Delta X     New X
                                 (Linear)    (Quad)   (Total)
    R1        2.98636  -0.01577   0.00000  -0.00675  -0.00675   2.97961
    R2        2.48712   0.00995   0.00000   0.00184   0.00184   2.48897
    R3        2.51733   0.00261   0.00000  -0.00102  -0.00102   2.51631
    R4        2.46408   0.01446   0.00000   0.00434   0.00434   2.46842
    R5        2.55742  -0.00743   0.00000  -0.00444  -0.00444   2.55298
    R6        2.51700  -0.00733   0.00000  -0.00357  -0.00357   2.51343
    R7        3.31163   0.03942   0.00000   0.01835   0.01835   3.32997
    R8        3.15583  -0.10448   0.00000  -0.27566  -0.27566   2.88017
    R9        2.46373   0.23671   0.00000   0.02985   0.02985   2.49358
   R10        3.40150  -0.00432   0.00000   0.07821   0.07821   3.47971
   R11        1.85164   0.00094   0.00000  -0.00778  -0.00778   1.84386
    A1        1.96122  -0.01785   0.00000  -0.00676  -0.00679   1.95443
    A2        1.95413  -0.01944   0.00000  -0.00642  -0.00644   1.94769
    A3        1.96283  -0.02121   0.00000  -0.00903  -0.00906   1.95377
    A4        1.85308   0.02073   0.00000   0.00829   0.00828   1.86136
    A5        1.86768   0.02122   0.00000   0.00778   0.00775   1.87544
    A6        1.85750   0.02226   0.00000   0.00832   0.00829   1.86579
    A7        1.88402   0.00073   0.00000   0.00084   0.00083   1.88485
    A8        1.89933   0.00028   0.00000  -0.00065  -0.00065   1.89867
    A9        1.97864  -0.00240   0.00000  -0.00200  -0.00201   1.97664
   A10        1.80023   0.01196   0.00000   0.00860   0.00861   1.80884
   A11        1.95008  -0.00588   0.00000  -0.00473  -0.00473   1.94535
   A12        1.94205  -0.00323   0.00000  -0.00102  -0.00103   1.94103
   A13        1.87905  -0.05427   0.00000  -0.03101  -0.03203   1.84702
   A14        1.96804   0.00521   0.00000  -0.00030  -0.00098   1.96706
   A15        1.91769  -0.08318   0.00000   0.00959   0.00990   1.92759
   A16        2.36474   0.00214   0.00000   0.00387   0.00274   2.36748
   A17        1.15672   0.18108   0.00000   0.06210   0.06252   1.21925
   A18        1.99224   0.00257   0.00000  -0.00668  -0.00650   1.98574
   A19        2.14011  -0.02019   0.00000   0.03141   0.03141   2.17151
    D1        0.82962  -0.00788   0.00000  -0.00569  -0.00569   0.82393
    D2        2.77188   0.00649   0.00000   0.00440   0.00440   2.77628
    D3       -1.34030   0.00080   0.00000   0.00115   0.00116  -1.33914
    D4        2.91338  -0.00724   0.00000  -0.00422  -0.00423   2.90915
    D5       -1.42755   0.00714   0.00000   0.00587   0.00586  -1.42169
    D6        0.74346   0.00145   0.00000   0.00262   0.00262   0.74608
    D7       -1.27923  -0.00715   0.00000  -0.00436  -0.00437  -1.28360
    D8        0.66302   0.00722   0.00000   0.00572   0.00572   0.66875
    D9        2.83403   0.00153   0.00000   0.00248   0.00248   2.83652
   D10       -2.00634   0.08913   0.00000   0.03982   0.03950  -1.96684
   D11        0.80260  -0.01398   0.00000  -0.01979  -0.01960   0.78301
   D12        3.04647  -0.07499   0.00000  -0.02110  -0.02096   3.02551
   D13        2.14324   0.09444   0.00000   0.04381   0.04348   2.18672
   D14       -1.33100  -0.00867   0.00000  -0.01580  -0.01562  -1.34662
   D15        0.91287  -0.06968   0.00000  -0.01712  -0.01698   0.89588
   D16        0.14132   0.08523   0.00000   0.03668   0.03636   0.17767
   D17        2.95026  -0.01789   0.00000  -0.02293  -0.02274   2.92752
   D18       -1.08906  -0.07890   0.00000  -0.02424  -0.02410  -1.11316
   D19       -1.75349   0.03235   0.00000  -0.01699  -0.01663  -1.77012
   D20        2.76415   0.01121   0.00000   0.00411   0.00394   2.76809
   D21        0.47702  -0.02902   0.00000  -0.01464  -0.01483   0.46219
         Item               Value     Threshold  Converged?
 Maximum Force            0.236706     0.000450     NO 
 RMS     Force            0.055794     0.000300     NO 
 Maximum Displacement     0.189430     0.001800     NO 
 RMS     Displacement     0.048047     0.001200     NO 
 Predicted change in Energy=-6.334484D-02
 Lowest energy point so far.  Saving SCF results.
 GradGradGradGradGradGradGradGradGradGradGradGradGradGradGradGradGradGrad

 Leave Link  103 at Sat May 24 02:56:28 2025, MaxMem=  3758096384 cpu:               0.0 elap:               0.0
 (Enter /apps/easybuild-2022/easybuild/software/Compiler/NVHPC/22.11-CUDA-11.7.0/Gaussian/g16c01-CUDA-11.7.0/g16/l202.exe)
                          Input orientation:                          
 ---------------------------------------------------------------------
 Center     Atomic      Atomic             Coordinates (Angstroms)
 Number     Number       Type             X           Y           Z
 ---------------------------------------------------------------------
      1          6           0       -0.710384   -1.410227    0.171863
      2          6           0        0.024657   -0.016358    0.117488
      3          9           0       -0.400247    0.636753   -0.986164
      4          9           0       -0.416509    0.739864    1.118755
      5         16           0        1.781108   -0.154435    0.148716
      6          8           0        2.221081    0.439095    1.481793
      7          8           0        2.232645   -1.093419   -0.660986
      8          8           0        2.560530    1.492577   -0.116871
      9          9           0       -0.675376   -2.031631   -0.988910
     10          9           0       -0.146432   -2.227372    1.059177
     11          9           0       -1.965339   -1.287300    0.512778
     12          1           0        2.942200    1.792047   -0.963449
 ---------------------------------------------------------------------
                    Distance matrix (angstroms):
                    1          2          3          4          5
     1  C    0.000000
     2  C    1.576741   0.000000
     3  F    2.372201   1.350980   0.000000
     4  F    2.367669   1.330050   2.107506   0.000000
     5  S    2.790176   1.762147   2.583069   2.563253   0.000000
     6  O    3.705320   2.625461   3.605724   2.679391   1.524122
     7  O    3.074968   2.577071   3.167232   3.680547   1.319543
     8  O    4.382752   2.960145   3.202235   3.310001   1.841381
     9  F    1.317105   2.403225   2.682532   3.491483   3.294294
    10  F    1.331576   2.409281   3.528605   2.980097   2.973452
    11  F    1.306233   2.394083   2.897986   2.622113   3.930876
    12  H    4.988473   3.598723   3.536548   4.089448   2.524646
                    6          7          8          9         10
     6  O    0.000000
     7  O    2.634433   0.000000
     8  O    1.944422   2.662883   0.000000
     9  F    4.538538   3.073168   4.863289   0.000000
    10  F    3.590789   3.147192   4.748553   2.124325   0.000000
    11  F    4.630933   4.363299   5.348613   2.114971   2.119129
    12  H    2.886122   2.986782   0.975730   5.263840   5.457691
                   11         12
    11  F    0.000000
    12  H    5.978759   0.000000
 Symmetry turned off by external request.
 Stoichiometry    C2HF5O3S
 Rotational constants (GHZ):           1.6908664           0.7822234           0.7263128
 Leave Link  202 at Sat May 24 02:56:28 2025, MaxMem=  3758096384 cpu:               0.0 elap:               0.0
 (Enter /apps/easybuild-2022/easybuild/software/Compiler/NVHPC/22.11-CUDA-11.7.0/Gaussian/g16c01-CUDA-11.7.0/g16/l301.exe)
 Standard basis: def2TZVPP (5D, 7F)
 Ernie: Thresh=  0.10000D-02 Tol=  0.10000D-05 Strict=F.
   366 basis functions,   596 primitive gaussians,   423 cartesian basis functions
    49 alpha electrons       49 beta electrons
       nuclear repulsion energy       916.6761223513 Hartrees.
 IExCor= 4336 DFT=T Ex+Corr=M062X ExCW=0 ScaHFX=  0.540000
 ScaDFX=  1.000000  1.000000  1.000000  1.000000 ScalE2=  1.000000  1.000000
 IRadAn=      5 IRanWt=     -1 IRanGd=            0 ICorTp=0 IEmpDi=  4
 NAtoms=   12 NActive=   12 NUniq=   12 SFac= 1.00D+00 NAtFMM=   60 NAOKFM=F Big=F
 Integral buffers will be    131072 words long.
 Raffenetti 2 integral format.
 Two-electron integral symmetry is turned off.
 Leave Link  301 at Sat May 24 02:56:28 2025, MaxMem=  3758096384 cpu:               0.0 elap:               0.0
 (Enter /apps/easybuild-2022/easybuild/software/Compiler/NVHPC/22.11-CUDA-11.7.0/Gaussian/g16c01-CUDA-11.7.0/g16/l302.exe)
 NPDir=0 NMtPBC=     1 NCelOv=     1 NCel=       1 NClECP=     1 NCelD=      1
         NCelK=      1 NCelE2=     1 NClLst=     1 CellRange=     0.0.
 One-electron integrals computed using PRISM.
   1 Symmetry operations used in ECPInt.
 ECPInt:  NShTT=    8515 NPrTT=   27988 LenC2=    7934 LenP2D=   19214.
 LDataN:  DoStor=T MaxTD1= 6 Len=  172
 NBasis=   366 RedAO= T EigKep=  5.83D-04  NBF=   366
 NBsUse=   366 1.00D-06 EigRej= -1.00D+00 NBFU=   366
 Precomputing XC quadrature grid using
 IXCGrd= 4 IRadAn=           5 IRanWt=          -1 IRanGd=           0 AccXCQ= 0.00D+00.
 Generated NRdTot=       0 NPtTot=           0 NUsed=           0 NTot=          32
 NSgBfM=   419   419   419   419   419 MxSgAt=    12 MxSgA2=    12.
 Leave Link  302 at Sat May 24 02:56:28 2025, MaxMem=  3758096384 cpu:               0.7 elap:               0.2
 (Enter /apps/easybuild-2022/easybuild/software/Compiler/NVHPC/22.11-CUDA-11.7.0/Gaussian/g16c01-CUDA-11.7.0/g16/l303.exe)
 DipDrv:  MaxL=1.
 Leave Link  303 at Sat May 24 02:56:28 2025, MaxMem=  3758096384 cpu:               0.1 elap:               0.0
 (Enter /apps/easybuild-2022/easybuild/software/Compiler/NVHPC/22.11-CUDA-11.7.0/Gaussian/g16c01-CUDA-11.7.0/g16/l401.exe)
 Initial guess from the checkpoint file:  "2003846667223680600001_r12_insertion_R_6_5_8.chk"
 B after Tr=    -0.006266   -0.004475    0.003196
         Rot=    1.000000    0.000371   -0.000083   -0.000301 Ang=   0.06 deg.
 Guess basis will be translated and rotated to current coordinates.
 JPrj=2 DoOrth=T DoCkMO=T.
 Generating alternative initial guess.
 ExpMin= 9.52D-02 ExpMax= 6.07D+04 ExpMxC= 2.07D+03 IAcc=3 IRadAn=         5 AccDes= 0.00D+00
 Harris functional with IExCor= 1009 and IRadAn=       5 diagonalized for initial guess.
 HarFok:  IExCor= 1009 AccDes= 0.00D+00 IRadAn=         5 IDoV= 1 UseB2=F ITyADJ=14
 ICtDFT=  3500011 ScaDFX=  1.000000  1.000000  1.000000  1.000000
 FoFCou: FMM=F IPFlag=           0 FMFlag=      100000 FMFlg1=           0
         NFxFlg=           0 DoJE=T BraDBF=F KetDBF=T FulRan=T
         wScrn=  0.000000 ICntrl=       500 IOpCl=  0 I1Cent=   200000004 NGrid=           0
         NMat0=    1 NMatS0=      1 NMatT0=    0 NMatD0=    1 NMtDS0=    0 NMtDT0=    0
 Symmetry not used in FoFCou.
 Harris En= -1199.24096621744    
 Leave Link  401 at Sat May 24 02:56:29 2025, MaxMem=  3758096384 cpu:               4.7 elap:               0.8
 (Enter /apps/easybuild-2022/easybuild/software/Compiler/NVHPC/22.11-CUDA-11.7.0/Gaussian/g16c01-CUDA-11.7.0/g16/l502.exe)
 Keep R1 ints in memory in canonical form, NReq=2293446996.
 FoFCou: FMM=F IPFlag=           0 FMFlag=           0 FMFlg1=           0
         NFxFlg=           0 DoJE=F BraDBF=F KetDBF=F FulRan=T
         wScrn=  0.000000 ICntrl=       600 IOpCl=  0 I1Cent=           0 NGrid=           0
         NMat0=    1 NMatS0=  67161 NMatT0=    0 NMatD0=    1 NMtDS0=    0 NMtDT0=    0
 Symmetry not used in FoFCou.
 Two-electron integral symmetry not used.
 Closed shell SCF:
 Using DIIS extrapolation, IDIIS=  1040.
 NGot=  3758096384 LenX=  1502398672 LenY=  1502219302
 Requested convergence on RMS density matrix=1.00D-08 within  32 cycles.
 Requested convergence on MAX density matrix=1.00D-06.
 Requested convergence on             energy=1.00D-06.
 No special actions if energy rises.
 Integral accuracy reduced to 1.0D-05 until final iterations.

 Cycle   1  Pass 0  IDiag  1:
 E= -1199.76247482963    
 DIIS: error= 3.27D-03 at cycle   1 NSaved=   1.
 NSaved= 1 IEnMin= 1 EnMin= -1199.76247482963     IErMin= 1 ErrMin= 3.27D-03
 ErrMax= 3.27D-03  0.00D+00 EMaxC= 1.00D-01 BMatC= 1.35D-02 BMatP= 1.35D-02
 IDIUse=3 WtCom= 9.67D-01 WtEn= 3.27D-02
 Coeff-Com:  0.100D+01
 Coeff-En:   0.100D+01
 Coeff:      0.100D+01
 Gap=     1.036 Goal=   None    Shift=    0.000
 GapD=    1.036 DampG=2.000 DampE=1.000 DampFc=2.0000 IDamp=-1.
 RMSDP=4.67D-04 MaxDP=2.42D-02              OVMax= 4.52D-02

 Cycle   2  Pass 0  IDiag  1:
 E= -1199.77549161532     Delta-E=       -0.013016785690 Rises=F Damp=F
 DIIS: error= 2.71D-03 at cycle   2 NSaved=   2.
 NSaved= 2 IEnMin= 2 EnMin= -1199.77549161532     IErMin= 2 ErrMin= 2.71D-03
 ErrMax= 2.71D-03  0.00D+00 EMaxC= 1.00D-01 BMatC= 5.31D-03 BMatP= 1.35D-02
 IDIUse=3 WtCom= 9.73D-01 WtEn= 2.71D-02
 Coeff-Com:  0.322D+00 0.678D+00
 Coeff-En:   0.000D+00 0.100D+01
 Coeff:      0.313D+00 0.687D+00
 Gap=     0.291 Goal=   None    Shift=    0.000
 RMSDP=2.32D-04 MaxDP=1.30D-02 DE=-1.30D-02 OVMax= 3.79D-02

 Cycle   3  Pass 0  IDiag  1:
 E= -1199.77653855671     Delta-E=       -0.001046941390 Rises=F Damp=F
 DIIS: error= 2.87D-03 at cycle   3 NSaved=   3.
 NSaved= 3 IEnMin= 3 EnMin= -1199.77653855671     IErMin= 2 ErrMin= 2.71D-03
 ErrMax= 2.87D-03  0.00D+00 EMaxC= 1.00D-01 BMatC= 4.39D-03 BMatP= 5.31D-03
 IDIUse=3 WtCom= 9.71D-01 WtEn= 2.87D-02
 Coeff-Com: -0.356D-01 0.481D+00 0.554D+00
 Coeff-En:   0.000D+00 0.436D+00 0.564D+00
 Coeff:     -0.346D-01 0.480D+00 0.555D+00
 Gap=     0.305 Goal=   None    Shift=    0.000
 RMSDP=1.36D-04 MaxDP=7.78D-03 DE=-1.05D-03 OVMax= 1.62D-02

 Cycle   4  Pass 0  IDiag  1:
 E= -1199.77985198430     Delta-E=       -0.003313427590 Rises=F Damp=F
 DIIS: error= 4.23D-04 at cycle   4 NSaved=   4.
 NSaved= 4 IEnMin= 4 EnMin= -1199.77985198430     IErMin= 4 ErrMin= 4.23D-04
 ErrMax= 4.23D-04  0.00D+00 EMaxC= 1.00D-01 BMatC= 9.10D-05 BMatP= 4.39D-03
 IDIUse=3 WtCom= 9.96D-01 WtEn= 4.23D-03
 Coeff-Com: -0.363D-01 0.614D-01 0.162D+00 0.813D+00
 Coeff-En:   0.000D+00 0.000D+00 0.000D+00 0.100D+01
 Coeff:     -0.361D-01 0.611D-01 0.161D+00 0.814D+00
 Gap=     0.303 Goal=   None    Shift=    0.000
 RMSDP=3.32D-05 MaxDP=1.75D-03 DE=-3.31D-03 OVMax= 4.83D-03

 Cycle   5  Pass 0  IDiag  1:
 E= -1199.77995123443     Delta-E=       -0.000099250125 Rises=F Damp=F
 DIIS: error= 1.89D-04 at cycle   5 NSaved=   5.
 NSaved= 5 IEnMin= 5 EnMin= -1199.77995123443     IErMin= 5 ErrMin= 1.89D-04
 ErrMax= 1.89D-04  0.00D+00 EMaxC= 1.00D-01 BMatC= 2.11D-05 BMatP= 9.10D-05
 IDIUse=3 WtCom= 9.98D-01 WtEn= 1.89D-03
 Coeff-Com: -0.111D-01-0.194D-01 0.140D-01 0.373D+00 0.644D+00
 Coeff-En:   0.000D+00 0.000D+00 0.000D+00 0.000D+00 0.100D+01
 Coeff:     -0.111D-01-0.193D-01 0.140D-01 0.372D+00 0.644D+00
 Gap=     0.303 Goal=   None    Shift=    0.000
 RMSDP=1.47D-05 MaxDP=9.91D-04 DE=-9.93D-05 OVMax= 2.02D-03

 Cycle   6  Pass 0  IDiag  1:
 E= -1199.77997095497     Delta-E=       -0.000019720540 Rises=F Damp=F
 DIIS: error= 7.85D-05 at cycle   6 NSaved=   6.
 NSaved= 6 IEnMin= 6 EnMin= -1199.77997095497     IErMin= 6 ErrMin= 7.85D-05
 ErrMax= 7.85D-05  0.00D+00 EMaxC= 1.00D-01 BMatC= 4.71D-06 BMatP= 2.11D-05
 IDIUse=1 WtCom= 1.00D+00 WtEn= 0.00D+00
 Coeff-Com:  0.189D-02-0.235D-01-0.348D-01-0.478D-02 0.326D+00 0.735D+00
 Coeff:      0.189D-02-0.235D-01-0.348D-01-0.478D-02 0.326D+00 0.735D+00
 Gap=     0.303 Goal=   None    Shift=    0.000
 RMSDP=8.36D-06 MaxDP=3.50D-04 DE=-1.97D-05 OVMax= 9.99D-04

 Initial convergence to 1.0D-05 achieved.  Increase integral accuracy.
 Cycle   7  Pass 1  IDiag  1:
 E= -1199.78002645551     Delta-E=       -0.000055500539 Rises=F Damp=F
 DIIS: error= 2.94D-05 at cycle   1 NSaved=   1.
 NSaved= 1 IEnMin= 1 EnMin= -1199.78002645551     IErMin= 1 ErrMin= 2.94D-05
 ErrMax= 2.94D-05  0.00D+00 EMaxC= 1.00D-01 BMatC= 1.05D-06 BMatP= 1.05D-06
 IDIUse=1 WtCom= 1.00D+00 WtEn= 0.00D+00
 Coeff-Com:  0.100D+01
 Coeff:      0.100D+01
 Gap=     0.303 Goal=   None    Shift=    0.000
 RMSDP=8.36D-06 MaxDP=3.50D-04 DE=-5.55D-05 OVMax= 4.74D-04

 Cycle   8  Pass 1  IDiag  1:
 E= -1199.78002703555     Delta-E=       -0.000000580045 Rises=F Damp=F
 DIIS: error= 3.97D-05 at cycle   2 NSaved=   2.
 NSaved= 2 IEnMin= 2 EnMin= -1199.78002703555     IErMin= 1 ErrMin= 2.94D-05
 ErrMax= 3.97D-05  0.00D+00 EMaxC= 1.00D-01 BMatC= 7.18D-07 BMatP= 1.05D-06
 IDIUse=1 WtCom= 1.00D+00 WtEn= 0.00D+00
 Coeff-Com:  0.437D+00 0.563D+00
 Coeff:      0.437D+00 0.563D+00
 Gap=     0.303 Goal=   None    Shift=    0.000
 RMSDP=2.08D-06 MaxDP=1.18D-04 DE=-5.80D-07 OVMax= 3.42D-04

 Cycle   9  Pass 1  IDiag  1:
 E= -1199.78002745707     Delta-E=       -0.000000421517 Rises=F Damp=F
 DIIS: error= 1.56D-05 at cycle   3 NSaved=   3.
 NSaved= 3 IEnMin= 3 EnMin= -1199.78002745707     IErMin= 3 ErrMin= 1.56D-05
 ErrMax= 1.56D-05  0.00D+00 EMaxC= 1.00D-01 BMatC= 1.70D-07 BMatP= 7.18D-07
 IDIUse=1 WtCom= 1.00D+00 WtEn= 0.00D+00
 Coeff-Com: -0.570D-02 0.312D+00 0.693D+00
 Coeff:     -0.570D-02 0.312D+00 0.693D+00
 Gap=     0.303 Goal=   None    Shift=    0.000
 RMSDP=1.12D-06 MaxDP=5.05D-05 DE=-4.22D-07 OVMax= 1.21D-04

 Cycle  10  Pass 1  IDiag  1:
 E= -1199.78002758965     Delta-E=       -0.000000132587 Rises=F Damp=F
 DIIS: error= 4.62D-06 at cycle   4 NSaved=   4.
 NSaved= 4 IEnMin= 4 EnMin= -1199.78002758965     IErMin= 4 ErrMin= 4.62D-06
 ErrMax= 4.62D-06  0.00D+00 EMaxC= 1.00D-01 BMatC= 1.93D-08 BMatP= 1.70D-07
 IDIUse=1 WtCom= 1.00D+00 WtEn= 0.00D+00
 Coeff-Com: -0.411D-01 0.103D+00 0.346D+00 0.592D+00
 Coeff:     -0.411D-01 0.103D+00 0.346D+00 0.592D+00
 Gap=     0.303 Goal=   None    Shift=    0.000
 RMSDP=4.13D-07 MaxDP=3.28D-05 DE=-1.33D-07 OVMax= 8.39D-05

 Cycle  11  Pass 1  IDiag  1:
 E= -1199.78002760971     Delta-E=       -0.000000020053 Rises=F Damp=F
 DIIS: error= 2.45D-06 at cycle   5 NSaved=   5.
 NSaved= 5 IEnMin= 5 EnMin= -1199.78002760971     IErMin= 5 ErrMin= 2.45D-06
 ErrMax= 2.45D-06  0.00D+00 EMaxC= 1.00D-01 BMatC= 3.57D-09 BMatP= 1.93D-08
 IDIUse=1 WtCom= 1.00D+00 WtEn= 0.00D+00
 Coeff-Com: -0.178D-01-0.543D-02 0.367D-01 0.293D+00 0.693D+00
 Coeff:     -0.178D-01-0.543D-02 0.367D-01 0.293D+00 0.693D+00
 Gap=     0.303 Goal=   None    Shift=    0.000
 RMSDP=2.11D-07 MaxDP=8.18D-06 DE=-2.01D-08 OVMax= 3.38D-05

 Cycle  12  Pass 1  IDiag  1:
 E= -1199.78002761424     Delta-E=       -0.000000004530 Rises=F Damp=F
 DIIS: error= 1.28D-06 at cycle   6 NSaved=   6.
 NSaved= 6 IEnMin= 6 EnMin= -1199.78002761424     IErMin= 6 ErrMin= 1.28D-06
 ErrMax= 1.28D-06  0.00D+00 EMaxC= 1.00D-01 BMatC= 8.55D-10 BMatP= 3.57D-09
 IDIUse=1 WtCom= 1.00D+00 WtEn= 0.00D+00
 Coeff-Com:  0.583D-02-0.455D-01-0.122D+00-0.336D-01 0.393D+00 0.802D+00
 Coeff:      0.583D-02-0.455D-01-0.122D+00-0.336D-01 0.393D+00 0.802D+00
 Gap=     0.303 Goal=   None    Shift=    0.000
 RMSDP=1.84D-07 MaxDP=5.23D-06 DE=-4.53D-09 OVMax= 4.19D-05

 Cycle  13  Pass 1  IDiag  1:
 E= -1199.78002761593     Delta-E=       -0.000000001694 Rises=F Damp=F
 DIIS: error= 2.49D-07 at cycle   7 NSaved=   7.
 NSaved= 7 IEnMin= 7 EnMin= -1199.78002761593     IErMin= 7 ErrMin= 2.49D-07
 ErrMax= 2.49D-07  0.00D+00 EMaxC= 1.00D-01 BMatC= 7.77D-11 BMatP= 8.55D-10
 IDIUse=1 WtCom= 1.00D+00 WtEn= 0.00D+00
 Coeff-Com:  0.385D-02-0.192D-01-0.565D-01-0.330D-01 0.102D+00 0.347D+00
 Coeff-Com:  0.656D+00
 Coeff:      0.385D-02-0.192D-01-0.565D-01-0.330D-01 0.102D+00 0.347D+00
 Coeff:      0.656D+00
 Gap=     0.303 Goal=   None    Shift=    0.000
 RMSDP=3.32D-08 MaxDP=9.54D-07 DE=-1.69D-09 OVMax= 6.51D-06

 Cycle  14  Pass 1  IDiag  1:
 E= -1199.78002761596     Delta-E=       -0.000000000028 Rises=F Damp=F
 DIIS: error= 9.36D-08 at cycle   8 NSaved=   8.
 NSaved= 8 IEnMin= 8 EnMin= -1199.78002761596     IErMin= 8 ErrMin= 9.36D-08
 ErrMax= 9.36D-08  0.00D+00 EMaxC= 1.00D-01 BMatC= 1.00D-11 BMatP= 7.77D-11
 IDIUse=1 WtCom= 1.00D+00 WtEn= 0.00D+00
 Coeff-Com: -0.136D-03 0.427D-02 0.933D-02-0.852D-03-0.634D-01-0.582D-01
 Coeff-Com:  0.229D+00 0.880D+00
 Coeff:     -0.136D-03 0.427D-02 0.933D-02-0.852D-03-0.634D-01-0.582D-01
 Coeff:      0.229D+00 0.880D+00
 Gap=     0.303 Goal=   None    Shift=    0.000
 RMSDP=1.75D-08 MaxDP=6.22D-07 DE=-2.77D-11 OVMax= 4.07D-06

 Cycle  15  Pass 1  IDiag  1:
 E= -1199.78002761606     Delta-E=       -0.000000000103 Rises=F Damp=F
 DIIS: error= 2.94D-08 at cycle   9 NSaved=   9.
 NSaved= 9 IEnMin= 9 EnMin= -1199.78002761606     IErMin= 9 ErrMin= 2.94D-08
 ErrMax= 2.94D-08  0.00D+00 EMaxC= 1.00D-01 BMatC= 8.44D-13 BMatP= 1.00D-11
 IDIUse=1 WtCom= 1.00D+00 WtEn= 0.00D+00
 Coeff-Com: -0.400D-03 0.301D-02 0.789D-02 0.319D-02-0.278D-01-0.448D-01
 Coeff-Com: -0.110D-01 0.229D+00 0.841D+00
 Coeff:     -0.400D-03 0.301D-02 0.789D-02 0.319D-02-0.278D-01-0.448D-01
 Coeff:     -0.110D-01 0.229D+00 0.841D+00
 Gap=     0.303 Goal=   None    Shift=    0.000
 RMSDP=4.99D-09 MaxDP=1.54D-07 DE=-1.03D-10 OVMax= 1.02D-06

 SCF Done:  E(RM062X) =  -1199.78002762     A.U. after   15 cycles
            NFock= 15  Conv=0.50D-08     -V/T= 2.0026
 KE= 1.196689459133D+03 PE=-4.679330097041D+03 EE= 1.366184487940D+03
 Leave Link  502 at Sat May 24 02:57:11 2025, MaxMem=  3758096384 cpu:             171.3 elap:              42.8
 (Enter /apps/easybuild-2022/easybuild/software/Compiler/NVHPC/22.11-CUDA-11.7.0/Gaussian/g16c01-CUDA-11.7.0/g16/l508.exe)
 QCSCF skips out because SCF is already converged.
 Leave Link  508 at Sat May 24 02:57:11 2025, MaxMem=  3758096384 cpu:               0.0 elap:               0.0
 (Enter /apps/easybuild-2022/easybuild/software/Compiler/NVHPC/22.11-CUDA-11.7.0/Gaussian/g16c01-CUDA-11.7.0/g16/l801.exe)
 DoSCS=F DFT=T ScalE2(SS,OS)=  1.000000  1.000000
 Range of M.O.s used for correlation:     1   366
 NBasis=   366 NAE=    49 NBE=    49 NFC=     0 NFV=     0
 NROrb=    366 NOA=    49 NOB=    49 NVA=   317 NVB=   317

 **** Warning!!: The largest alpha MO coefficient is  0.16463913D+02

 Leave Link  801 at Sat May 24 02:57:11 2025, MaxMem=  3758096384 cpu:               0.0 elap:               0.0
 (Enter /apps/easybuild-2022/easybuild/software/Compiler/NVHPC/22.11-CUDA-11.7.0/Gaussian/g16c01-CUDA-11.7.0/g16/l1101.exe)
 Using compressed storage, NAtomX=    12.
 Will process     13 centers per pass.
   1 Symmetry operations used in ECPInt.
 ECPInt:  NShTT=    8515 NPrTT=   27988 LenC2=    7934 LenP2D=   19214.
 LDataN:  DoStor=T MaxTD1= 7 Len=  274
 Leave Link 1101 at Sat May 24 02:57:12 2025, MaxMem=  3758096384 cpu:               1.4 elap:               0.3
 (Enter /apps/easybuild-2022/easybuild/software/Compiler/NVHPC/22.11-CUDA-11.7.0/Gaussian/g16c01-CUDA-11.7.0/g16/l1102.exe)
 Symmetrizing basis deriv contribution to polar:
 IMax=3 JMax=2 DiffMx= 0.00D+00
 Leave Link 1102 at Sat May 24 02:57:12 2025, MaxMem=  3758096384 cpu:               0.1 elap:               0.0
 (Enter /apps/easybuild-2022/easybuild/software/Compiler/NVHPC/22.11-CUDA-11.7.0/Gaussian/g16c01-CUDA-11.7.0/g16/l1110.exe)
 Forming Gx(P) for the SCF density, NAtomX=    12.
 Integral derivatives from FoFJK, PRISM(SPDF).
 Do as many integral derivatives as possible in FoFJK.
 G2DrvN: MDV=    3758095012.
 G2DrvN: will do    13 centers at a time, making    1 passes.
 Calling FoFCou, ICntrl=  3107 FMM=F I1Cent=   0 AccDes= 0.00D+00.
 FoFJK:  IHMeth= 1 ICntrl=    3107 DoSepK=F KAlg= 0 I1Cent=           0 FoldK=F
 IRaf=         0 NMat=       1 IRICut=       1 DoRegI=T DoRafI=F ISym2E= 0 IDoP0=0 IntGTp=1.
 FoFCou: FMM=F IPFlag=           0 FMFlag=      100000 FMFlg1=           0
         NFxFlg=           0 DoJE=F BraDBF=F KetDBF=F FulRan=T
         wScrn=  0.000000 ICntrl=      3107 IOpCl=  0 I1Cent=           0 NGrid=           0
         NMat0=    1 NMatS0=      1 NMatT0=    0 NMatD0=    1 NMtDS0=    0 NMtDT0=    0
 Symmetry not used in FoFCou.
 End of G2Drv F.D. properties file   721 does not exist.
 End of G2Drv F.D. properties file   722 does not exist.
 End of G2Drv F.D. properties file   788 does not exist.
 Leave Link 1110 at Sat May 24 02:58:08 2025, MaxMem=  3758096384 cpu:             447.5 elap:              56.4
 (Enter /apps/easybuild-2022/easybuild/software/Compiler/NVHPC/22.11-CUDA-11.7.0/Gaussian/g16c01-CUDA-11.7.0/g16/l1002.exe)
 Minotr:  Closed shell wavefunction.
          IDoAtm=111111111111
          Direct CPHF calculation.
          Differentiating once with respect to electric field.
                with respect to dipole field.
          Differentiating once with respect to nuclear coordinates.
          Requested convergence is 1.0D-08 RMS, and 1.0D-07 maximum.
          Secondary convergence is 1.0D-12 RMS, and 1.0D-12 maximum.
          NewPWx=T KeepS1=F KeepF1=F KeepIn=T MapXYZ=F SortEE=F KeepMc=T.
         3612 words used for storage of precomputed grid.
 Keep R1 ints in memory in canonical form, NReq=2293452918.
 FoFCou: FMM=F IPFlag=           0 FMFlag=           0 FMFlg1=           0
         NFxFlg=           0 DoJE=F BraDBF=F KetDBF=F FulRan=T
         wScrn=  0.000000 ICntrl=       600 IOpCl=  0 I1Cent=           0 NGrid=           0
         NMat0=    1 NMatS0=  67161 NMatT0=    0 NMatD0=    1 NMtDS0=    0 NMtDT0=    0
 Symmetry not used in FoFCou.
 Two-electron integral symmetry not used.
          MDV=    3758096384 using IRadAn=       1.
          Solving linear equations simultaneously, MaxMat=       0.
          There are    39 degrees of freedom in the 1st order CPHF.  IDoFFX=6 NUNeed=     3.
     36 vectors produced by pass  0 Test12= 3.98D-14 2.56D-09 XBig12= 2.81D+01 2.41D+00.
[...]
     18  0.811410D-03  0.999917D-02  0.160175D-01  0.854333D-01 -0.552306D+00
     19  0.113617D-02  0.175764D-02 -0.731507D-01  0.663755D-01  0.266821D-01
     20  0.222911D-02 -0.997666D-02  0.263582D-01 -0.234089D+00 -0.242120D+00
     21  0.189055D-02  0.233340D-02  0.193079D-02 -0.231427D+00 -0.324055D+00
     22  0.113326D-02  0.495943D-02 -0.200462D+00 -0.727325D-01 -0.599017D-02
     23  0.644398D-03 -0.340335D-02 -0.411757D-02 -0.319414D-01 -0.138829D-01
     24  0.555782D-03  0.231697D-02  0.120315D-01 -0.965883D-02 -0.813210D-01
     25 -0.165285D-02 -0.967634D-03  0.273032D-03  0.268155D-02  0.108183D-02
     26 -0.104868D-01 -0.232137D-03  0.135372D-02 -0.853453D-02 -0.898830D-03
     27 -0.409805D-02  0.246660D-02  0.141868D-02 -0.571788D-02 -0.623674D-02
     28  0.799337D-03 -0.943590D-03  0.152364D-02  0.793172D-02 -0.544448D-02
     29 -0.311437D-02 -0.192456D-02  0.209092D-02 -0.974084D-02  0.265089D-02
     30  0.481233D-02  0.161073D-02  0.208808D-04  0.510066D-02 -0.738095D-02
     31  0.389634D-03 -0.182847D-02  0.274695D-02 -0.764883D-03  0.172005D-02
     32 -0.238153D-02  0.400229D-02  0.216364D-02 -0.862954D-02  0.266591D-02
     33 -0.483708D-03  0.291146D-02 -0.104663D-02  0.212258D-02 -0.277529D-02
     34 -0.539631D-03 -0.116573D-02 -0.206100D-01  0.226661D-02  0.419422D-01
     35 -0.827568D-04 -0.166612D-03  0.610415D-03  0.324753D-02  0.727403D-02
     36  0.105729D-03  0.103707D-02  0.730155D-03 -0.253688D-03  0.328631D-02
               16            17            18            19            20 
     16  0.107941D+00
     17  0.797909D-02  0.533747D-01
     18 -0.274281D-01 -0.110981D+00  0.610516D+00
     19  0.126075D-01 -0.143154D-01  0.679962D-03  0.102484D+00
     20 -0.123890D-01  0.940126D-02  0.264729D-02  0.244452D-02  0.268494D+00
     21  0.727879D-02 -0.135391D-01 -0.812374D-02 -0.303382D-02  0.277750D+00
     22 -0.196958D-01 -0.576651D-02  0.163003D-01 -0.204553D-01 -0.185265D-01
     23 -0.224917D-01  0.729336D-03  0.110800D-01 -0.566545D-01 -0.171450D-01
     24  0.604388D-01  0.224753D-01 -0.273982D-01 -0.372082D-01 -0.228964D-01
     25 -0.238238D-03 -0.110401D-02 -0.198444D-03 -0.232795D-02 -0.636874D-02
     26 -0.124188D-02  0.221072D-02 -0.550525D-04 -0.248793D-02  0.159586D-02
     27 -0.788443D-03 -0.353680D-03  0.235030D-02  0.828260D-03  0.537338D-02
     28 -0.181377D-02 -0.108970D-01  0.271044D-02  0.621779D-03 -0.424212D-02
     29 -0.359784D-02 -0.452314D-02 -0.131929D-02 -0.153569D-02  0.281317D-02
     30 -0.796470D-03 -0.685669D-02  0.366531D-02  0.449806D-03  0.498289D-03
     31 -0.587313D-03 -0.302357D-03 -0.719365D-03 -0.119216D-02 -0.104427D-02
     32 -0.963165D-03  0.353454D-02 -0.130725D-02 -0.161344D-02  0.311375D-02
     33  0.399566D-03 -0.100725D-02  0.121579D-02  0.512141D-03  0.226914D-03
     34 -0.683375D-02 -0.282447D-02  0.287016D-02  0.653292D-02  0.292359D-02
     35 -0.578430D-02  0.839355D-03  0.305846D-02  0.248585D-02 -0.356450D-02
     36  0.132827D-02 -0.110189D-02  0.295171D-02 -0.373135D-02 -0.318970D-02
               21            22            23            24            25 
     21  0.348318D+00
     22 -0.148778D-01  0.323283D+00
     23 -0.186177D-01  0.748351D-01  0.728890D-01
     24  0.145076D-02 -0.152502D+00  0.720002D-01  0.565881D+00
     25 -0.119162D-02 -0.103752D-02 -0.346861D-03 -0.671233D-03  0.892571D-01
     26  0.340238D-03 -0.245395D-02  0.897246D-03  0.287303D-03 -0.809524D-02
     27  0.388999D-02 -0.620203D-03  0.959241D-03  0.164371D-02 -0.173430D-01
     28  0.217624D-02  0.919495D-04 -0.634478D-03  0.860637D-03 -0.350645D-04
     29 -0.170519D-03 -0.244673D-02  0.105244D-02  0.354191D-03 -0.792206D-02
     30  0.168620D-02  0.947264D-03 -0.469728D-03  0.149141D-02 -0.437328D-01
     31 -0.381646D-03 -0.225415D-02 -0.360648D-03 -0.446793D-04 -0.161473D-01
     32 -0.110191D-03 -0.239437D-02  0.471875D-03  0.240030D-04  0.192678D-01
     33  0.107624D-02  0.118187D-02  0.757939D-04  0.468682D-03  0.560668D-01
     34 -0.323358D-02 -0.856217D-01  0.106234D-01  0.116809D+00  0.277298D-03
     35 -0.274756D-02  0.159352D-01 -0.161549D-01 -0.622783D-01 -0.239361D-04
     36 -0.400403D-02  0.158198D+00 -0.499542D-01 -0.457058D+00 -0.143964D-03
               26            27            28            29            30 
     26  0.149347D+00
     27  0.149146D+00  0.403392D+00
     28 -0.121496D-02 -0.317378D-01  0.284834D+00
     29  0.196830D-01 -0.729808D-02 -0.105220D+00  0.142393D+00
     30  0.763905D-02 -0.702250D-01  0.170961D+00 -0.939852D-01  0.231874D+00
     31  0.854632D-02  0.430303D-01 -0.831114D-01  0.936439D-02 -0.611897D-02
     32  0.130687D-01 -0.175963D-01  0.236887D-01  0.142060D-01 -0.179236D-02
     33 -0.634857D-02 -0.488687D-01 -0.218931D-01 -0.225217D-02  0.175699D-01
     34  0.364281D-03 -0.204875D-03 -0.217968D-03  0.125542D-03 -0.511513D-03
     35 -0.112326D-03 -0.443408D-05  0.178034D-03  0.571229D-04  0.146706D-03
     36 -0.455692D-03 -0.306652D-03 -0.211257D-04 -0.438976D-03  0.185496D-04
               31            32            33            34            35 
     31  0.369601D+00
     32  0.501823D-01  0.857760D-01
     33 -0.126073D+00 -0.190687D-01  0.138187D+00
     34  0.435356D-03  0.450576D-03 -0.326361D-03  0.107364D+00
     35  0.286589D-03  0.124866D-03 -0.755796D-04 -0.128511D-01  0.149135D-01
     36 -0.381994D-03 -0.414115D-03  0.130965D-03 -0.157311D+00  0.531361D-01
               36 
     36  0.455848D+00
 Red2BG is reusing G-inverse.
 Leave Link  716 at Sat May 24 03:51:34 2025, MaxMem=  3758096384 cpu:               0.1 elap:               0.0
 (Enter /apps/easybuild-2022/easybuild/software/Compiler/NVHPC/22.11-CUDA-11.7.0/Gaussian/g16c01-CUDA-11.7.0/g16/l9999.exe)

 ----------------------------------------------------------------------

 Electric dipole moment (input orientation):
 (Debye = 10**-18 statcoulomb cm , SI units = C m)
                  (au)            (Debye)         (10**-30 SI)
   Tot        0.936564D+00      0.238051D+01      0.794052D+01
   x         -0.215346D+00     -0.547355D+00     -0.182578D+01
   y          0.583553D+00      0.148324D+01      0.494757D+01
   z         -0.700175D+00     -0.177967D+01     -0.593633D+01

 Dipole polarizability, Alpha (input orientation).
 (esu units = cm**3 , SI units = C**2 m**2 J**-1)
 Alpha(0;0):
               (au)            (10**-24 esu)      (10**-40 SI)
   iso        0.646526D+02      0.958053D+01      0.106598D+02
   aniso      0.392464D+02      0.581571D+01      0.647085D+01
   xx         0.855348D+02      0.126749D+02      0.141028D+02
   yx         0.128965D+02      0.191107D+01      0.212635D+01
   yy         0.514991D+02      0.763138D+01      0.849106D+01
   zx        -0.308489D+01     -0.457133D+00     -0.508629D+00
   zy         0.178375D+01      0.264325D+00      0.294101D+00
   zz         0.569239D+02      0.843525D+01      0.938548D+01

 ----------------------------------------------------------------------

 Dipole orientation:
     6         -1.19790999          1.89154530         -1.81811219
     6         -0.69610925         -0.24596841          0.18706246
     9         -1.15666167          0.61519280          2.45340880
     9         -2.02799818         -2.25989522         -0.25729414
    16          3.14630775         -1.24134080         -0.07915062
     8          2.36098944         -2.48686211         -2.39103305
     8          3.50021929          1.47229570          0.34343465
     8          6.10228106         -2.00811709         -0.28461837
     9         -0.68710808          4.11295273         -0.83315581
     9          0.02775155          1.59418778         -3.94258233
     9         -3.67266619          1.77144622         -2.27505415
     1          7.07773988         -0.83534379          0.72351839

 Electric dipole moment (dipole orientation):
 (Debye = 10**-18 statcoulomb cm , SI units = C m)
                  (au)            (Debye)         (10**-30 SI)
   Tot        0.936564D+00      0.238051D+01      0.794052D+01
   x          0.000000D+00      0.000000D+00      0.000000D+00
   y          0.000000D+00      0.000000D+00      0.000000D+00
   z          0.936564D+00      0.238051D+01      0.794052D+01

 Dipole polarizability, Alpha (dipole orientation).
 (esu units = cm**3 , SI units = C**2 m**2 J**-1)
 Alpha(0;0):
               (au)            (10**-24 esu)      (10**-40 SI)
   iso        0.646526D+02      0.958053D+01      0.106598D+02
   aniso      0.392464D+02      0.581571D+01      0.647085D+01
   xx         0.871524D+02      0.129147D+02      0.143695D+02
   yx        -0.970964D+01     -0.143882D+01     -0.160090D+01
   yy         0.568925D+02      0.843060D+01      0.938031D+01
   zx         0.260127D+01      0.385469D+00      0.428892D+00
   zy         0.453010D+01      0.671292D+00      0.746913D+00
   zz         0.499129D+02      0.739632D+01      0.822952D+01

 ----------------------------------------------------------------------
 Unable to Open any file for archive entry.
 1\1\GINC-SPARTAN-BM193\Freq\RM062X\def2TZVPP\C2H1F5O3S1\AKHALILOV\24-M
 ay-2025\0\\#P M062X/Def2TZVPP Symm(None) scf(xqc) pop(None) opt(NoFree
 ze,TS,CalcAll,NoEigentest,MaxCycle=999)\\Gaussian input prepared by AS
 E\\0,1\C,-0.4755688854,-1.4300328907,0.2413448014\C,-0.3693116845,0.13
 27258333,0.0917950436\F,-0.9187677039,0.5055316442,-1.0327034244\F,-0.
 9113617102,0.7574091614,1.0936749828\S,1.6780673404,0.6213551658,0.057
 7806774\O,1.6103963507,0.3376987142,1.4786154734\O,1.6905450184,-0.340
 9477048,-1.04719874\O,3.2532434897,0.997463442,0.0322199511\F,-0.42965
 28628,-1.9974933474,-0.9429079681\F,0.4247958268,-1.9549416712,1.03072
 4144\F,-1.684727451,-1.6386177378,0.7628307517\H,3.5802772716,0.889443
 391,-0.8719856929\\Version=ES64L-G16RevC.01\HF=-1199.8169663\RMSD=5.25
 8e-09\RMSF=1.151e-02\ZeroPoint=0.050969\Thermal=0.0608969\ETot=-1199.7
 560693\HTot=-1199.7551251\GTot=-1199.802212\Dipole=-0.2153459,0.583553
 1,-0.7001747\DipoleDeriv=1.3321532,-0.0691943,0.0010963,0.7992628,1.67
 06272,-0.0261158,-0.0869037,-0.0463246,1.4833,2.5839653,0.1775301,0.00
 251,-0.3527523,0.8239016,0.0714096,0.0271714,0.0721102,1.4515004,-0.84
 61418,0.0090773,-0.2872255,0.1471356,-0.3066875,0.2056376,-0.7493792,0
 .021323,-0.6538356,-0.8378205,0.0781474,0.2576366,0.2761547,-0.3807175
 ,-0.26448,0.6691882,-0.0913898,-0.5635096,1.5381636,0.2817371,-0.17686
 07,-0.9645898,0.5283914,0.2924089,0.1891367,0.3688969,1.6096387,-0.489
 5959,-0.0048389,-0.1428485,0.3122244,-0.283835,0.0636777,0.0081378,-0.
 013438,-0.9487068,-0.5468208,0.0816615,0.2032877,0.2452289,-0.5553896,
 -0.3255917,-0.1170881,-0.2880303,-0.8083109,-1.5311623,-0.5007302,0.16
 50095,0.0462921,-0.3613432,0.0272437,0.1429305,0.0219541,-0.4079917,-0
 .2583788,-0.0330101,-0.0130733,-0.1812192,-0.518706,-0.2653024,-0.0801
 115,-0.2398911,-0.6669543,-0.4133243,0.1355375,-0.1966657,0.0403176,-0
 .4793865,0.2048204,-0.1462306,0.1746057,-0.4216489,-0.9125687,-0.16470
 13,0.2166525,-0.3963138,-0.4605383,0.0788678,0.3096562,0.0892824,-0.34
 97037,0.3815309,0.0087839,-0.0295188,0.028259,0.3236833,-0.0625757,-0.
 1665076,-0.0690984,0.2762225\Polar=85.5347841,12.8965442,51.4991026,-3
 .0848878,1.7837519,56.9238997\PG=Unknown\NImag=1\\0.57237536,-0.028124
 86,0.56323865,0.03286242,0.00468920,0.62964057,-0.02555082,-0.01336984
 ,-0.00383780,0.30331691,-0.03285851,-0.16262672,0.01043898,-0.11826814
 ,0.49489925,-0.00277587,0.01542548,-0.03761963,0.00948149,0.02143308,0
 .60538465,-0.00677512,0.00155992,-0.01216578,-0.10933137,0.06241280,-0
 .11903576,0.11853658,0.02578161,-0.00386779,0.03295138,0.04128775,-0.1
 1421987,0.07463070,-0.05636634,0.10741089,-0.02304436,0.01042135,-0.02
 569994,-0.09163045,0.09543388,-0.27561445,0.13451965,-0.09239752,0.378
 65069,-0.00838029,0.00036407,0.01294687,-0.10744570,0.09274745,0.10706
 918,0.01496814,-0.00952131,-0.01218281,0.12678935,0.02228268,-0.009186
 35,-0.03580169,0.06298930,-0.16714778,-0.10912139,-0.00608017,0.020469
 89,-0.00764544,-0.08347981,0.16635006,0.01573606,-0.01307261,-0.011400
 68,0.08246707,-0.12692684,-0.23749587,0.01406814,-0.01705886,-0.081724
 32,-0.11815072,0.15264500,0.33146200,-0.01237130,-0.01176921,-0.000283
 24,-0.00081943,0.00606313,-0.00153451,-0.01619041,-0.00160486,-0.01154
 246,-0.01865924,0.00147304,0.01308848,0.40285279,-0.03302694,0.0257229
 3,-0.00163194,0.07395093,0.02799584,0.00332612,-0.02458641,-0.00095219
 ,-0.03025269,-0.01799251,0.00274278,0.02302495,-0.04229811,0.28202537,
 0.00639205,-0.00768924,0.01643765,-0.01646012,0.00236442,0.03983928,-0
 .00876564,-0.00091720,-0.00830914,0.01440991,-0.00367052,-0.02351653,-
 0.03083108,0.15993445,0.94633726,-0.00027870,0.00307403,-0.00135636,-0
 .01472423,-0.00388102,-0.00341900,-0.00334087,-0.00044827,-0.00189981,
 -0.00790315,0.00154904,-0.00902068,-0.06513291,0.03819501,-0.02473659,
 0.10794122,0.01197296,-0.01319103,0.00560544,-0.02049826,-0.00638890,0
 .00893388,0.01024158,0.00189636,0.00944572,0.00583763,-0.00003666,-0.0
 0691062,0.01967672,-0.04784657,0.09428946,0.00797909,0.05337471,-0.002
 56605,0.00560224,-0.00704366,0.00296957,0.00796011,-0.03348497,-0.0103
 0644,-0.00293064,-0.00234150,-0.00032946,0.00081141,0.00999917,0.01601
 747,0.08543332,-0.55230597,-0.02742811,-0.11098057,0.61051576,-0.00427
 506,0.00597334,0.00152862,-0.01821146,-0.00362803,0.00679725,0.0005485
 8,0.00181957,0.00473760,-0.00318240,0.00113617,0.00175764,-0.07315068,
 0.06637549,0.02668209,0.01260753,-0.01431540,0.00067996,0.10248415,0.0
 1104843,-0.01349474,-0.00428813,-0.02135959,-0.02104654,-0.01472721,0.
 00786518,0.00169307,0.01070247,0.01329039,0.00222911,-0.00997666,0.026
 35817,-0.23408937,-0.24212046,-0.01238904,0.00940126,0.00264729,0.0024
 4452,0.26849392,-0.00130819,-0.00147018,-0.00802052,0.00873609,-0.0131
 8120,-0.01973646,0.00015493,0.00128249,0.00518465,0.00374984,0.0018905
 5,0.00233340,0.00193079,-0.23142704,-0.32405487,0.00727879,-0.01353912
 ,-0.00812374,-0.00303382,0.27775026,0.34831839,0.00128042,0.00841052,-
 0.00197259,0.01890727,0.00404195,-0.00021868,-0.00679503,-0.00003553,-
 0.00540544,-0.00724117,0.00113326,0.00495943,-0.20046241,-0.07273246,-
 0.00599017,-0.01969583,-0.00576651,0.01630027,-0.02045526,-0.01852650,
 -0.01487781,0.32328345,0.00151980,-0.00258939,-0.00035147,-0.00822174,
 -0.01011249,-0.00129384,0.00292432,0.00125888,0.00385800,0.00292479,0.
 00064440,-0.00340335,-0.00411757,-0.03194141,-0.01388290,-0.02249165,0
 .00072934,0.01107999,-0.05665445,-0.01714500,-0.01861775,0.07483511,0.
 07288903,-0.00031042,-0.00046129,-0.00398217,0.00006692,-0.00008876,-0
 .00533572,0.00110608,-0.00031320,0.00184187,-0.00057627,0.00055578,0.0
 0231697,0.01203146,-0.00965883,-0.08132102,0.06043884,0.02247532,-0.02
 739821,-0.03720820,-0.02289644,0.00145076,-0.15250187,0.07200017,0.565
 88135,-0.07513570,0.00272527,0.00775995,0.00160858,0.00056665,-0.00373
 412,0.00184411,0.00027243,0.00307420,0.00166166,-0.00165285,-0.0009676
 3,0.00027303,0.00268155,0.00108183,-0.00023824,-0.00110401,-0.00019844
 ,-0.00232795,-0.00636874,-0.00119162,-0.00103752,-0.00034686,-0.000671
 23,0.08925708,-0.00018456,-0.14685848,-0.10770003,0.00557623,-0.018846
 10,-0.03924160,-0.00132764,-0.00196405,-0.00248029,0.00116560,-0.01048
 680,-0.00023214,0.00135372,-0.00853453,-0.00089883,-0.00124188,0.00221
 072,-0.00005505,-0.00248793,0.00159586,0.00034024,-0.00245395,0.000897
 25,0.00028730,-0.00809524,0.14934680,0.00188119,-0.11223029,-0.2708060
 9,0.00299729,-0.00995596,-0.02290123,0.00153471,0.00177642,0.00560139,
 -0.00099612,-0.00409805,0.00246660,0.00141868,-0.00571788,-0.00623674,
 -0.00078844,-0.00035368,0.00235030,0.00082826,0.00537338,0.00388999,-0
 .00062020,0.00095924,0.00164371,-0.01734303,0.14914561,0.40339242,-0.1
 9419888,0.08311382,-0.10934571,-0.01263196,0.00391040,-0.00915385,0.00
 237240,0.00258700,0.00183177,0.00256505,0.00079934,-0.00094359,0.00152
 364,0.00793172,-0.00544448,-0.00181377,-0.01089696,0.00271044,0.000621
 78,-0.00424212,0.00217624,0.00009195,-0.00063448,0.00086064,-0.0000350
 6,-0.00121496,-0.03173777,0.28483418,0.07854543,-0.14360406,0.07425349
 ,0.02995214,-0.00837476,0.02642024,0.00129357,-0.01084771,0.00371001,-
 0.00064922,-0.00311437,-0.00192456,0.00209092,-0.00974084,0.00265089,-
 0.00359784,-0.00452314,-0.00131929,-0.00153569,0.00281317,-0.00017052,
 -0.00244673,0.00105244,0.00035419,-0.00792206,0.01968298,-0.00729808,-
 0.10522046,0.14239318,-0.10523613,0.07487533,-0.17313834,-0.01625180,0
 .00619436,-0.00827368,0.00088179,0.00383728,0.00110197,-0.00061269,0.0
 0481233,0.00161073,0.00002088,0.00510066,-0.00738095,-0.00079647,-0.00
 685669,0.00366531,0.00044981,0.00049829,0.00168620,0.00094726,-0.00046
 973,0.00149141,-0.04373275,0.00763905,-0.07022502,0.17096058,-0.093985
 21,0.23187392,-0.24670119,-0.05056530,0.07257786,-0.03224016,-0.012043
 75,0.01658476,0.00430876,-0.00368805,0.00163529,0.00514185,0.00038963,
 -0.00182847,0.00274695,-0.00076488,0.00172005,-0.00058731,-0.00030236,
 -0.00071936,-0.00119216,-0.00104427,-0.00038165,-0.00225415,-0.0003606
 5,-0.00004468,-0.01614730,0.00854632,0.04303031,-0.08311137,0.00936439
 ,-0.00611897,0.36960072,-0.05671998,-0.09330769,0.02214692,-0.03136228
 ,-0.01530934,0.01252594,0.00141988,-0.00066755,-0.00107615,-0.00411964
 ,-0.00238153,0.00400229,0.00216364,-0.00862954,0.00266591,-0.00096317,
 0.00353454,-0.00130725,-0.00161344,0.00311375,-0.00011019,-0.00239437,
 0.00047188,0.00002400,0.01926779,0.01306867,-0.01759627,0.02368867,0.0
 1420598,-0.00179236,0.05018231,0.08577596,0.07812913,0.02237149,-0.108
 54298,0.01761272,0.00537355,-0.00417477,-0.00023050,-0.00093431,0.0028
 0180,-0.00433246,-0.00048371,0.00291146,-0.00104663,0.00212258,-0.0027
 7529,0.00039957,-0.00100725,0.00121579,0.00051214,0.00022691,0.0010762
 4,0.00118187,0.00007579,0.00046868,0.05606682,-0.00634857,-0.04886867,
 -0.02189314,-0.00225217,0.01756990,-0.12607315,-0.01906873,0.13818688,
 0.00001127,-0.00139177,0.00128577,-0.00287762,0.00093706,-0.00006091,-
 0.00014578,-0.00008402,-0.00009320,0.00168589,-0.00053963,-0.00116573,
 -0.02061003,0.00226661,0.04194215,-0.00683375,-0.00282447,0.00287016,0
 .00653292,0.00292359,-0.00323358,-0.08562172,0.01062338,0.11680874,0.0
 0027730,0.00036428,-0.00020488,-0.00021797,0.00012554,-0.00051151,0.00
 043536,0.00045058,-0.00032636,0.10736414,-0.00023608,-0.00023533,-0.00
 031214,-0.00067650,0.00117741,0.00168862,0.00064330,-0.00020992,0.0002
 8064,-0.00056745,-0.00008276,-0.00016661,0.00061041,0.00324753,0.00727
 403,-0.00578430,0.00083935,0.00305846,0.00248585,-0.00356450,-0.002747
 56,0.01593522,-0.01615490,-0.06227826,-0.00002394,-0.00011233,-0.00000
 443,0.00017803,0.00005712,0.00014671,0.00028659,0.00012487,-0.00007558
 ,-0.01285114,0.01491345,0.00024019,0.00153852,0.00017579,0.00384901,0.
 00095437,-0.00058715,-0.00176120,0.00007346,-0.00149303,-0.00099529,0.
 00010573,0.00103707,0.00073015,-0.00025369,0.00328631,0.00132827,-0.00
 110189,0.00295171,-0.00373135,-0.00318970,-0.00400403,0.15819794,-0.04
 995415,-0.45705763,-0.00014396,-0.00045569,-0.00030665,-0.00002113,-0.
 00043898,0.00001855,-0.00038199,-0.00041411,0.00013096,-0.15731065,0.0
 5313612,0.45584810\\0.00000927,-0.00000897,-0.00000269,0.00554838,-0.0
 2288654,0.00659590,0.00000943,-0.00001098,-0.00000107,0.,-0.00000118,-
 0.00000822,-0.01277662,0.05260160,-0.01516128,-0.00003340,0.00002317,0
 .00001822,-0.00001600,0.00000291,-0.00001047,0.00725264,-0.02972227,0.
 00855764,0.00000521,-0.00000446,0.00000574,0.00000074,0.00000274,0.000
 00398,0.00000336,-0.00000138,-0.00000084,-0.00000301,0.00000537,0.0000
 0307\\\@
 The archive entry for this job was punched.


 THERE ARE PEOPLE SO ADDICTED TO EXAGERATING THEY
 CAN'T TELL THE TRUTH WITHOUT LYING. -- FORTUNE COOKIE
 Job cpu time:       0 days  7 hours 19 minutes 51.3 seconds.
 Elapsed time:       0 days  1 hours  0 minutes 56.3 seconds.
 File lengths (MBytes):  RWF=    173 Int=      0 D2E=      0 Chk=     11 Scr=      1
 Normal termination of Gaussian 16 at Sat May 24 03:51:34 2025.
done
