 Entering Gaussian System, Link 0=g16
 Initial command:
 /apps/easybuild-2022/easybuild/software/Compiler/NVHPC/22.11-CUDA-11.7.0/Gaussian/g16c01-CUDA-11.7.0/g16/l1.exe "/tmp/Gau-24609.inp" -scrdir="/tmp/"
 Entering Link 1 = /apps/easybuild-2022/easybuild/software/Compiler/NVHPC/22.11-CUDA-11.7.0/Gaussian/g16c01-CUDA-11.7.0/g16/l1.exe PID=     24610.
  
 Copyright (c) 1988-2019, Gaussian, Inc.  All Rights Reserved.
  
 This is part of the Gaussian(R) 16 program.  It is based on
 the Gaussian(R) 09 system (copyright 2009, Gaussian, Inc.),
 the Gaussian(R) 03 system (copyright 2003, Gaussian, Inc.),
 the Gaussian(R) 98 system (copyright 1998, Gaussian, Inc.),
 the Gaussian(R) 94 system (copyright 1995, Gaussian, Inc.),
 the Gaussian 92(TM) system (copyright 1992, Gaussian, Inc.),
 the Gaussian 90(TM) system (copyright 1990, Gaussian, Inc.),
 the Gaussian 88(TM) system (copyright 1988, Gaussian, Inc.),
 the Gaussian 86(TM) system (copyright 1986, Carnegie Mellon
 University), and the Gaussian 82(TM) system (copyright 1983,
 Carnegie Mellon University). Gaussian is a federally registered
 trademark of Gaussian, Inc.
  
 This software contains proprietary and confidential information,
 including trade secrets, belonging to Gaussian, Inc.
  
 This software is provided under written license and may be
 used, copied, transmitted, or stored only in accord with that
 written license.
  
 The following legend is applicable only to US Government
 contracts under FAR:
  
                    RESTRICTED RIGHTS LEGEND
  
 Use, reproduction and disclosure by the US Government is
 subject to restrictions as set forth in subparagraphs (a)
 and (c) of the Commercial Computer Software - Restricted
 Rights clause in FAR 52.227-19.
  
 Gaussian, Inc.
 340 Quinnipiac St., Bldg. 40, Wallingford CT 06492
  
  
 ---------------------------------------------------------------
 Warning -- This program may not be used in any manner that
 competes with the business of Gaussian, Inc. or will provide
 assistance to any competitor of Gaussian, Inc.  The licensee
 of this program is prohibited from giving any competitor of
 Gaussian, Inc. access to this program.  By using this program,
 the user acknowledges that Gaussian, Inc. is engaged in the
 business of creating and licensing software in the field of
 computational chemistry and represents and warrants to the
 licensee that it is not a competitor of Gaussian, Inc. and that
 it will not use this program in any manner prohibited above.
 ---------------------------------------------------------------
  

 Cite this work as:
 Gaussian 16, Revision C.01,
 M. J. Frisch, G. W. Trucks, H. B. Schlegel, G. E. Scuseria, 
 M. A. Robb, J. R. Cheeseman, G. Scalmani, V. Barone, 
 G. A. Petersson, H. Nakatsuji, X. Li, M. Caricato, A. V. Marenich, 
 J. Bloino, B. G. Janesko, R. Gomperts, B. Mennucci, H. P. Hratchian, 
 J. V. Ortiz, A. F. Izmaylov, J. L. Sonnenberg, D. Williams-Young, 
 F. Ding, F. Lipparini, F. Egidi, J. Goings, B. Peng, A. Petrone, 
 T. Henderson, D. Ranasinghe, V. G. Zakrzewski, J. Gao, N. Rega, 
 G. Zheng, W. Liang, M. Hada, M. Ehara, K. Toyota, R. Fukuda, 
 J. Hasegawa, M. Ishida, T. Nakajima, Y. Honda, O. Kitao, H. Nakai, 
 T. Vreven, K. Throssell, J. A. Montgomery, Jr., J. E. Peralta, 
 F. Ogliaro, M. J. Bearpark, J. J. Heyd, E. N. Brothers, K. N. Kudin, 
 V. N. Staroverov, T. A. Keith, R. Kobayashi, J. Normand, 
 K. Raghavachari, A. P. Rendell, J. C. Burant, S. S. Iyengar, 
 J. Tomasi, M. Cossi, J. M. Millam, M. Klene, C. Adamo, R. Cammi, 
 J. W. Ochterski, R. L. Martin, K. Morokuma, O. Farkas, 
 J. B. Foresman, and D. J. Fox, Gaussian, Inc., Wallingford CT, 2019.
 
 ******************************************
 Gaussian 16:  ES64L-G16RevC.01  3-Jul-2019
                24-May-2025 
 ******************************************
 %mem=28GB
 %chk=2003846667223680600001_r12_insertion_R_6_5_7_IRC_F
 %nprocshared=8
 Will use up to    8 processors via shared memory.
 ----------------------------------------------------------------------
 #P M062X/Def2TZVPP Symm(None) scf(xqc) pop(None) geom(AllCheck,NoKeepC
 onstants) guess(Read) irc(RCFC,forward,MaxPoints=100,StepSize=2)
 ----------------------------------------------------------------------
 1/10=5,18=10,22=1,26=3,29=20007,38=1,39=2,42=100,44=3,172=1/1,23;
 2/12=2,15=3,29=1,40=1/2;
 3/5=44,7=202,11=2,14=-4,25=1,30=1,71=2,74=-55,116=-2,140=1/1,2,3;
 4/5=1/1;
 5/5=2,8=3,13=1,38=6/2,8;
 8/6=4,10=90,11=11/1;
 11/6=1,8=1,9=11,15=111,16=1,31=1/1,2,10;
 10/6=1,13=1,31=1/2;
 7/10=1,25=1,30=1/1,2,3,16;
 1/18=10,22=1,26=3,39=2,42=100,44=3/23(2);
 2/15=3,29=1/2;
 99/5=20/99;
 2/15=3,29=1/2;
 3/5=44,7=202,11=2,14=-2,25=1,30=1,71=2,74=-55,140=1/1,2,3;
 4/5=5,16=3,69=1/1;
 5/5=2,8=3,13=1,38=5/2,8;
 8/6=4,10=90,11=11/1;
 11/6=1,8=1,9=11,15=111,16=1,31=1/1,2,10;
 10/6=1,13=1,31=1/2;
 7/10=1,25=1,30=1/1,2,3,16;
 1/18=10,22=1,26=3,39=2,42=100,44=3/23(-8);
 2/15=3,29=1/2;
 99/5=20,9=1/99;
 Leave Link    1 at Sat May 24 04:22:15 2025, MaxMem=  3758096384 cpu:               0.0 elap:               0.1
 (Enter /apps/easybuild-2022/easybuild/software/Compiler/NVHPC/22.11-CUDA-11.7.0/Gaussian/g16c01-CUDA-11.7.0/g16/l101.exe)
 Structure from the checkpoint file:  "2003846667223680600001_r12_insertion_R_6_5_7_IRC_F.chk"
 ------------------------------
 Gaussian input prepared by ASE
 ------------------------------
 Charge =  0 Multiplicity = 1
 Redundant internal coordinates found in file.  (old form).
 C,0,-0.6668382337,-1.0085621595,0.6105885704
 C,0,-0.1405746438,-0.0129161669,-0.433405765
 F,0,-0.572457393,-0.3814554312,-1.6437779584
 F,0,-0.6395149084,1.1968006496,-0.1497810868
 S,0,1.8447602622,0.3423822593,-0.6828706597
 O,0,2.003853235,-1.1653177982,-0.5624517502
 O,0,3.3573704704,-0.027991637,-0.9087451495
 O,0,1.9296964349,0.9798886543,0.7782680126
 F,0,-0.3343050305,-2.2482625936,0.2838397271
 F,0,-0.1698324482,-0.7295650928,1.8086772343
 F,0,-1.9939058955,-0.9355066505,0.6780344315
 H,0,2.8296921507,0.8700959666,1.1158223937
 Recover connectivity data from disk.
 ITRead=  0  0  0  0  0  0  0  0  0  0  0  0
 MicOpt= -1 -1 -1 -1 -1 -1 -1 -1 -1 -1 -1 -1
 NAtoms=     12 NQM=       12 NQMF=       0 NMMI=      0 NMMIF=      0
                NMic=       0 NMicF=      0.
                    Isotopes and Nuclear Properties:
 (Nuclear quadrupole moments (NQMom) in fm**2, nuclear magnetic moments (NMagM)
  in nuclear magnetons)

  Atom         1           2           3           4           5           6           7           8           9          10
 IAtWgt=          12          12          19          19          32          16          16          16          19          19
 AtmWgt=  12.0000000  12.0000000  18.9984032  18.9984032  31.9720718  15.9949146  15.9949146  15.9949146  18.9984032  18.9984032
 NucSpn=           0           0           1           1           0           0           0           0           1           1
 AtZEff=   3.6000000   3.6000000   6.7500000   6.7500000  13.6000000   5.6000000   5.6000000   5.6000000   6.7500000   6.7500000
 NQMom=    0.0000000   0.0000000   0.0000000   0.0000000   0.0000000   0.0000000   0.0000000   0.0000000   0.0000000   0.0000000
 NMagM=    0.0000000   0.0000000   2.6288670   2.6288670   0.0000000   0.0000000   0.0000000   0.0000000   2.6288670   2.6288670
 AtZNuc=   6.0000000   6.0000000   9.0000000   9.0000000  16.0000000   8.0000000   8.0000000   8.0000000   9.0000000   9.0000000

  Atom        11          12
 IAtWgt=          19           1
 AtmWgt=  18.9984032   1.0078250
 NucSpn=           1           1
 AtZEff=   6.7500000   1.0000000
 NQMom=    0.0000000   0.0000000
 NMagM=    2.6288670   2.7928460
 AtZNuc=   9.0000000   1.0000000
 Leave Link  101 at Sat May 24 04:22:15 2025, MaxMem=  3758096384 cpu:               0.2 elap:               0.2
 (Enter /apps/easybuild-2022/easybuild/software/Compiler/NVHPC/22.11-CUDA-11.7.0/Gaussian/g16c01-CUDA-11.7.0/g16/l123.exe)
 IRC-IRC-IRC-IRC-IRC-IRC-IRC-IRC-IRC-IRC-IRC-IRC-IRC-IRC-IRC-IRC-IRC-IRC
 ------------------------------------------------------------------------
 INPUT DATA FOR L123
 ------------------------------------------------------------------------
 GENERAL PARAMETERS:
 Rxn path following direction = Forward
 Maximum points per path      = 100
 Step size                    =   0.020 bohr
 Integration scheme           = HPC                                 
    Redo corrector integration= Yes                                 
    DWI Weight Power          =  2
    DWI will use Hessian update vectors when possible.
    Max correction cycles     =  20
 Initial Hessian              = ReadFC from chk
 Hessian evaluation           = All updating
 Hessian updating method      = Bofill                              
 ------------------------------------------------------------------------
          ******** Start new reaction path calculation ********
 RCFC Option Requested - Data Read From Chk File:
 "2003846667223680600001_r12_insertion_R_6_5_7_IRC_F.chk"
   Energy From Chk =  -1199.7408891

 Current Structure is TS -> form Hessian eigenvectors.
                            Recovering Hessian eigenvectors from chk file.
 Supplied step size of   0.0200 bohr.
    Integration on MW PES will use step size of   0.0851 sqrt(amu)*bohr.
 Point Number:   0          Path Number:   1
 Calculating another point on the path.
 Point Number  1 in FORWARD path direction.
 Using LQA Reaction Path Following.
 IRC-IRC-IRC-IRC-IRC-IRC-IRC-IRC-IRC-IRC-IRC-IRC-IRC-IRC-IRC-IRC-IRC-IRC
 Leave Link  123 at Sat May 24 04:22:15 2025, MaxMem=  3758096384 cpu:               0.0 elap:               0.0
 (Enter /apps/easybuild-2022/easybuild/software/Compiler/NVHPC/22.11-CUDA-11.7.0/Gaussian/g16c01-CUDA-11.7.0/g16/l202.exe)
                          Input orientation:                          
 ---------------------------------------------------------------------
 Center     Atomic      Atomic             Coordinates (Angstroms)
 Number     Number       Type             X           Y           Z
 ---------------------------------------------------------------------
      1          6           0       -1.158108   -0.695522    0.666456
      2          6           0       -0.633471    0.300336   -0.378788
      3          9           0       -1.064029   -0.067781   -1.588206
      4          9           0       -1.130557    1.510004   -0.094362
      5         16           0        1.356824    0.653902   -0.626850
      6          8           0        1.505654   -0.852892   -0.505316
      7          8           0        2.866366    0.291635   -0.855068
      8          8           0        1.437892    1.293645    0.833667
      9          9           0       -0.825962   -1.934659    0.339428
     10          9           0       -0.661317   -0.415927    1.864138
     11          9           0       -2.485308   -0.621815    0.733482
     12          1           0        2.337565    1.182824    1.172179
 ---------------------------------------------------------------------
                    Distance matrix (angstroms):
                    1          2          3          4          5
     1  C    0.000000
     2  C    1.536070   0.000000
     3  F    2.342309   1.335508   0.000000
     4  F    2.333226   1.338390   2.173799   0.000000
     5  S    3.133444   2.036620   2.702880   2.683937   0.000000
     6  O    2.914351   2.433475   2.896950   3.563954   1.518997
     7  O    4.414284   3.532107   4.014308   4.247174   1.569088
     8  O    3.274745   2.597548   3.738791   2.739521   1.596544
     9  F    1.323907   2.355438   2.694009   3.485205   3.521207
    10  F    1.326430   2.354681   3.493145   2.786595   3.379712
    11  F    1.330934   2.348788   2.777990   2.658069   4.270824
    12  H    4.000459   3.465739   4.555720   3.706621   2.116156
                    6          7          8          9         10
     6  O    0.000000
     7  O    1.812128   0.000000
     8  O    2.530828   2.428248   0.000000
     9  F    2.705595   4.473979   3.973821   0.000000
    10  F    3.240527   4.509908   2.896754   2.158332   0.000000
    11  F    4.185188   5.656703   4.366981   2.152270   2.155856
    12  H    2.765901   2.276748   0.967618   4.518858   3.468156
                   11         12
    11  F    0.000000
    12  H    5.168103   0.000000
 Symmetry turned off by external request.
 Stoichiometry    C2HF5O3S
 Rotational constants (GHZ):           1.6575629           0.7533904           0.7348251
 Leave Link  202 at Sat May 24 04:22:15 2025, MaxMem=  3758096384 cpu:               0.0 elap:               0.0
 (Enter /apps/easybuild-2022/easybuild/software/Compiler/NVHPC/22.11-CUDA-11.7.0/Gaussian/g16c01-CUDA-11.7.0/g16/l301.exe)
 Standard basis: def2TZVPP (5D, 7F)
 Ernie: Thresh=  0.10000D-02 Tol=  0.10000D-05 Strict=F.
   366 basis functions,   596 primitive gaussians,   423 cartesian basis functions
    49 alpha electrons       49 beta electrons
       nuclear repulsion energy       908.6964398232 Hartrees.
 IExCor= 4336 DFT=T Ex+Corr=M062X ExCW=0 ScaHFX=  0.540000
 ScaDFX=  1.000000  1.000000  1.000000  1.000000 ScalE2=  1.000000  1.000000
 IRadAn=      5 IRanWt=     -1 IRanGd=            0 ICorTp=0 IEmpDi=  4
 NAtoms=   12 NActive=   12 NUniq=   12 SFac= 1.00D+00 NAtFMM=   60 NAOKFM=F Big=F
 Integral buffers will be    131072 words long.
 Raffenetti 2 integral format.
 Two-electron integral symmetry is turned off.
 Leave Link  301 at Sat May 24 04:22:15 2025, MaxMem=  3758096384 cpu:               0.0 elap:               0.0
 (Enter /apps/easybuild-2022/easybuild/software/Compiler/NVHPC/22.11-CUDA-11.7.0/Gaussian/g16c01-CUDA-11.7.0/g16/l302.exe)
 NPDir=0 NMtPBC=     1 NCelOv=     1 NCel=       1 NClECP=     1 NCelD=      1
         NCelK=      1 NCelE2=     1 NClLst=     1 CellRange=     0.0.
 One-electron integrals computed using PRISM.
   1 Symmetry operations used in ECPInt.
 ECPInt:  NShTT=    8515 NPrTT=   27988 LenC2=    7970 LenP2D=   19330.
 LDataN:  DoStor=T MaxTD1= 6 Len=  172
 NBasis=   366 RedAO= T EigKep=  4.89D-04  NBF=   366
 NBsUse=   366 1.00D-06 EigRej= -1.00D+00 NBFU=   366
 Precomputing XC quadrature grid using
 IXCGrd= 4 IRadAn=           5 IRanWt=          -1 IRanGd=           0 AccXCQ= 0.00D+00.
 Generated NRdTot=       0 NPtTot=           0 NUsed=           0 NTot=          32
 NSgBfM=   419   419   419   419   419 MxSgAt=    12 MxSgA2=    12.
 Leave Link  302 at Sat May 24 04:22:15 2025, MaxMem=  3758096384 cpu:               0.7 elap:               0.2
 (Enter /apps/easybuild-2022/easybuild/software/Compiler/NVHPC/22.11-CUDA-11.7.0/Gaussian/g16c01-CUDA-11.7.0/g16/l303.exe)
 DipDrv:  MaxL=1.
 Leave Link  303 at Sat May 24 04:22:16 2025, MaxMem=  3758096384 cpu:               0.1 elap:               0.0
 (Enter /apps/easybuild-2022/easybuild/software/Compiler/NVHPC/22.11-CUDA-11.7.0/Gaussian/g16c01-CUDA-11.7.0/g16/l401.exe)
 Initial guess from the checkpoint file:  "2003846667223680600001_r12_insertion_R_6_5_7_IRC_F.chk"
 B after Tr=    -0.928792    0.592595    0.104951
         Rot=    1.000000   -0.000003    0.000001    0.000001 Ang=  -0.00 deg.
 Guess basis will be translated and rotated to current coordinates.
 JPrj=2 DoOrth=T DoCkMO=T.
 Leave Link  401 at Sat May 24 04:22:16 2025, MaxMem=  3758096384 cpu:               0.4 elap:               0.3
 (Enter /apps/easybuild-2022/easybuild/software/Compiler/NVHPC/22.11-CUDA-11.7.0/Gaussian/g16c01-CUDA-11.7.0/g16/l502.exe)
 Keep R1 ints in memory in canonical form, NReq=2293446996.
 FoFCou: FMM=F IPFlag=           0 FMFlag=           0 FMFlg1=           0
         NFxFlg=           0 DoJE=F BraDBF=F KetDBF=F FulRan=T
         wScrn=  0.000000 ICntrl=       600 IOpCl=  0 I1Cent=           0 NGrid=           0
         NMat0=    1 NMatS0=  67161 NMatT0=    0 NMatD0=    1 NMtDS0=    0 NMtDT0=    0
 Symmetry not used in FoFCou.
 Two-electron integral symmetry not used.
 Closed shell SCF:
 Using DIIS extrapolation, IDIIS=  1040.
 NGot=  3758096384 LenX=  1502398672 LenY=  1502219302
 Requested convergence on RMS density matrix=1.00D-08 within  32 cycles.
 Requested convergence on MAX density matrix=1.00D-06.
 Requested convergence on             energy=1.00D-06.
 No special actions if energy rises.

 Cycle   1  Pass 1  IDiag  1:
 E= -1199.74075061317    
 DIIS: error= 4.08D-04 at cycle   1 NSaved=   1.
 NSaved= 1 IEnMin= 1 EnMin= -1199.74075061317     IErMin= 1 ErrMin= 4.08D-04
 ErrMax= 4.08D-04  0.00D+00 EMaxC= 1.00D-01 BMatC= 6.74D-05 BMatP= 6.74D-05
 IDIUse=3 WtCom= 9.96D-01 WtEn= 4.08D-03
 Coeff-Com:  0.100D+01
 Coeff-En:   0.100D+01
 Coeff:      0.100D+01
 Gap=     0.182 Goal=   None    Shift=    0.000
 RMSDP=5.44D-05 MaxDP=1.67D-03              OVMax= 1.60D-02

 Cycle   2  Pass 1  IDiag  1:
 E= -1199.74088920857     Delta-E=       -0.000138595402 Rises=F Damp=F
 DIIS: error= 2.78D-04 at cycle   2 NSaved=   2.
 NSaved= 2 IEnMin= 2 EnMin= -1199.74088920857     IErMin= 2 ErrMin= 2.78D-04
 ErrMax= 2.78D-04  0.00D+00 EMaxC= 1.00D-01 BMatC= 8.49D-05 BMatP= 6.74D-05
 IDIUse=3 WtCom= 3.75D-01 WtEn= 6.25D-01
 Coeff-Com:  0.555D+00 0.445D+00
 Coeff-En:   0.000D+00 0.100D+01
 Coeff:      0.208D+00 0.792D+00
 Gap=     0.184 Goal=   None    Shift=    0.000
 RMSDP=3.62D-05 MaxDP=1.30D-03 DE=-1.39D-04 OVMax= 5.27D-03

 Cycle   3  Pass 1  IDiag  1:
 E= -1199.74087502999     Delta-E=        0.000014178579 Rises=F Damp=F
 DIIS: error= 3.30D-04 at cycle   3 NSaved=   3.
 NSaved= 3 IEnMin= 2 EnMin= -1199.74088920857     IErMin= 2 ErrMin= 2.78D-04
 ErrMax= 3.30D-04  0.00D+00 EMaxC= 1.00D-01 BMatC= 1.08D-04 BMatP= 6.74D-05
 IDIUse=3 WtCom= 3.55D-01 WtEn= 6.45D-01
 Coeff-Com: -0.780D-01 0.568D+00 0.510D+00
 Coeff-En:   0.000D+00 0.540D+00 0.460D+00
 Coeff:     -0.277D-01 0.550D+00 0.478D+00
 Gap=     0.183 Goal=   None    Shift=    0.000
 RMSDP=3.07D-05 MaxDP=1.21D-03 DE= 1.42D-05 OVMax= 9.07D-03

 Cycle   4  Pass 1  IDiag  1:
 E= -1199.74098325792     Delta-E=       -0.000108227928 Rises=F Damp=F
 DIIS: error= 1.22D-04 at cycle   4 NSaved=   4.
 NSaved= 4 IEnMin= 4 EnMin= -1199.74098325792     IErMin= 4 ErrMin= 1.22D-04
 ErrMax= 1.22D-04  0.00D+00 EMaxC= 1.00D-01 BMatC= 1.08D-05 BMatP= 6.74D-05
 IDIUse=3 WtCom= 9.99D-01 WtEn= 1.22D-03
 Coeff-Com: -0.491D-01 0.708D-01 0.269D+00 0.709D+00
 Coeff-En:   0.000D+00 0.000D+00 0.000D+00 0.100D+01
 Coeff:     -0.490D-01 0.707D-01 0.269D+00 0.710D+00
 Gap=     0.183 Goal=   None    Shift=    0.000
 RMSDP=1.20D-05 MaxDP=4.37D-04 DE=-1.08D-04 OVMax= 3.13D-03

 Cycle   5  Pass 1  IDiag  1:
 E= -1199.74099699162     Delta-E=       -0.000013733708 Rises=F Damp=F
 DIIS: error= 1.08D-04 at cycle   5 NSaved=   5.
 NSaved= 5 IEnMin= 5 EnMin= -1199.74099699162     IErMin= 5 ErrMin= 1.08D-04
 ErrMax= 1.08D-04  0.00D+00 EMaxC= 1.00D-01 BMatC= 6.63D-06 BMatP= 1.08D-05
 IDIUse=3 WtCom= 9.99D-01 WtEn= 1.08D-03
 Coeff-Com:  0.229D-01-0.409D+00-0.385D-01 0.707D+00 0.717D+00
 Coeff-En:   0.000D+00 0.000D+00 0.000D+00 0.000D+00 0.100D+01
 Coeff:      0.229D-01-0.408D+00-0.385D-01 0.707D+00 0.717D+00
 Gap=     0.183 Goal=   None    Shift=    0.000
 RMSDP=1.30D-05 MaxDP=5.22D-04 DE=-1.37D-05 OVMax= 3.27D-03

 Cycle   6  Pass 1  IDiag  1:
 E= -1199.74100822615     Delta-E=       -0.000011234526 Rises=F Damp=F
 DIIS: error= 3.17D-05 at cycle   6 NSaved=   6.
 NSaved= 6 IEnMin= 6 EnMin= -1199.74100822615     IErMin= 6 ErrMin= 3.17D-05
 ErrMax= 3.17D-05  0.00D+00 EMaxC= 1.00D-01 BMatC= 8.49D-07 BMatP= 6.63D-06
 IDIUse=1 WtCom= 1.00D+00 WtEn= 0.00D+00
 Coeff-Com:  0.361D-01-0.261D+00-0.867D-01 0.140D+00 0.235D+00 0.936D+00
 Coeff:      0.361D-01-0.261D+00-0.867D-01 0.140D+00 0.235D+00 0.936D+00
 Gap=     0.183 Goal=   None    Shift=    0.000
 RMSDP=8.39D-06 MaxDP=3.30D-04 DE=-1.12D-05 OVMax= 2.18D-03

 Cycle   7  Pass 1  IDiag  1:
 E= -1199.74101069820     Delta-E=       -0.000002472045 Rises=F Damp=F
 DIIS: error= 1.05D-05 at cycle   7 NSaved=   7.
 NSaved= 7 IEnMin= 7 EnMin= -1199.74101069820     IErMin= 7 ErrMin= 1.05D-05
 ErrMax= 1.05D-05  0.00D+00 EMaxC= 1.00D-01 BMatC= 1.11D-07 BMatP= 8.49D-07
 IDIUse=1 WtCom= 1.00D+00 WtEn= 0.00D+00
 Coeff-Com:  0.128D-01-0.322D-01-0.254D-01-0.689D-01-0.939D-01 0.437D+00
 Coeff-Com:  0.770D+00
 Coeff:      0.128D-01-0.322D-01-0.254D-01-0.689D-01-0.939D-01 0.437D+00
 Coeff:      0.770D+00
 Gap=     0.183 Goal=   None    Shift=    0.000
 RMSDP=2.61D-06 MaxDP=1.10D-04 DE=-2.47D-06 OVMax= 6.65D-04

 Cycle   8  Pass 1  IDiag  1:
 E= -1199.74101094251     Delta-E=       -0.000000244312 Rises=F Damp=F
 DIIS: error= 3.18D-06 at cycle   8 NSaved=   8.
 NSaved= 8 IEnMin= 8 EnMin= -1199.74101094251     IErMin= 8 ErrMin= 3.18D-06
 ErrMax= 3.18D-06  0.00D+00 EMaxC= 1.00D-01 BMatC= 1.08D-08 BMatP= 1.11D-07
 IDIUse=1 WtCom= 1.00D+00 WtEn= 0.00D+00
 Coeff-Com: -0.172D-02 0.328D-01 0.695D-02-0.330D-01-0.843D-01-0.423D-02
 Coeff-Com:  0.251D+00 0.832D+00
 Coeff:     -0.172D-02 0.328D-01 0.695D-02-0.330D-01-0.843D-01-0.423D-02
 Coeff:      0.251D+00 0.832D+00
 Gap=     0.184 Goal=   None    Shift=    0.000
 RMSDP=5.28D-07 MaxDP=2.16D-05 DE=-2.44D-07 OVMax= 1.01D-04

 Cycle   9  Pass 1  IDiag  1:
 E= -1199.74101096490     Delta-E=       -0.000000022392 Rises=F Damp=F
 DIIS: error= 1.57D-06 at cycle   9 NSaved=   9.
 NSaved= 9 IEnMin= 9 EnMin= -1199.74101096490     IErMin= 9 ErrMin= 1.57D-06
 ErrMax= 1.57D-06  0.00D+00 EMaxC= 1.00D-01 BMatC= 1.73D-09 BMatP= 1.08D-08
 IDIUse=1 WtCom= 1.00D+00 WtEn= 0.00D+00
 Coeff-Com: -0.162D-02 0.106D-01 0.368D-02 0.473D-02-0.136D-01-0.462D-01
 Coeff-Com: -0.436D-01 0.209D+00 0.877D+00
 Coeff:     -0.162D-02 0.106D-01 0.368D-02 0.473D-02-0.136D-01-0.462D-01
 Coeff:     -0.436D-01 0.209D+00 0.877D+00
 Gap=     0.184 Goal=   None    Shift=    0.000
 RMSDP=2.03D-07 MaxDP=1.34D-05 DE=-2.24D-08 OVMax= 5.74D-05

 Cycle  10  Pass 1  IDiag  1:
 E= -1199.74101096970     Delta-E=       -0.000000004802 Rises=F Damp=F
 DIIS: error= 6.86D-07 at cycle  10 NSaved=  10.
 NSaved=10 IEnMin=10 EnMin= -1199.74101096970     IErMin=10 ErrMin= 6.86D-07
 ErrMax= 6.86D-07  0.00D+00 EMaxC= 1.00D-01 BMatC= 4.66D-10 BMatP= 1.73D-09
 IDIUse=1 WtCom= 1.00D+00 WtEn= 0.00D+00
 Coeff-Com: -0.200D-04-0.646D-02-0.120D-02 0.136D-01 0.167D-01-0.101D-01
 Coeff-Com: -0.899D-01-0.160D+00 0.291D+00 0.947D+00
 Coeff:     -0.200D-04-0.646D-02-0.120D-02 0.136D-01 0.167D-01-0.101D-01
 Coeff:     -0.899D-01-0.160D+00 0.291D+00 0.947D+00
 Gap=     0.184 Goal=   None    Shift=    0.000
 RMSDP=1.37D-07 MaxDP=8.58D-06 DE=-4.80D-09 OVMax= 4.26D-05

 Cycle  11  Pass 1  IDiag  1:
 E= -1199.74101097137     Delta-E=       -0.000000001671 Rises=F Damp=F
 DIIS: error= 3.05D-07 at cycle  11 NSaved=  11.
 NSaved=11 IEnMin=11 EnMin= -1199.74101097137     IErMin=11 ErrMin= 3.05D-07
 ErrMax= 3.05D-07  0.00D+00 EMaxC= 1.00D-01 BMatC= 6.36D-11 BMatP= 4.66D-10
 IDIUse=1 WtCom= 1.00D+00 WtEn= 0.00D+00
 Coeff-Com:  0.254D-03-0.321D-02-0.914D-03 0.196D-02 0.433D-02 0.790D-02
 Coeff-Com: -0.939D-02-0.728D-01-0.957D-01 0.174D+00 0.994D+00
 Coeff:      0.254D-03-0.321D-02-0.914D-03 0.196D-02 0.433D-02 0.790D-02
 Coeff:     -0.939D-02-0.728D-01-0.957D-01 0.174D+00 0.994D+00
 Gap=     0.184 Goal=   None    Shift=    0.000
 RMSDP=6.63D-08 MaxDP=4.04D-06 DE=-1.67D-09 OVMax= 2.17D-05

 Cycle  12  Pass 1  IDiag  1:
 E= -1199.74101097171     Delta-E=       -0.000000000341 Rises=F Damp=F
 DIIS: error= 1.58D-07 at cycle  12 NSaved=  12.
 NSaved=12 IEnMin=12 EnMin= -1199.74101097171     IErMin=12 ErrMin= 1.58D-07
 ErrMax= 1.58D-07  0.00D+00 EMaxC= 1.00D-01 BMatC= 1.43D-11 BMatP= 6.36D-11
 IDIUse=1 WtCom= 1.00D+00 WtEn= 0.00D+00
 Coeff-Com:  0.382D-04 0.106D-02 0.188D-03-0.307D-02-0.335D-02 0.433D-02
 Coeff-Com:  0.190D-01 0.224D-01-0.876D-01-0.182D+00 0.209D+00 0.102D+01
 Coeff:      0.382D-04 0.106D-02 0.188D-03-0.307D-02-0.335D-02 0.433D-02
 Coeff:      0.190D-01 0.224D-01-0.876D-01-0.182D+00 0.209D+00 0.102D+01
 Gap=     0.184 Goal=   None    Shift=    0.000
 RMSDP=3.39D-08 MaxDP=1.83D-06 DE=-3.41D-10 OVMax= 1.09D-05

 Cycle  13  Pass 1  IDiag  1:
 E= -1199.74101097171     Delta-E=        0.000000000007 Rises=F Damp=F
 DIIS: error= 6.28D-08 at cycle  13 NSaved=  13.
 NSaved=13 IEnMin=12 EnMin= -1199.74101097171     IErMin=13 ErrMin= 6.28D-08
 ErrMax= 6.28D-08  0.00D+00 EMaxC= 1.00D-01 BMatC= 4.58D-12 BMatP= 1.43D-11
 IDIUse=1 WtCom= 1.00D+00 WtEn= 0.00D+00
 Coeff-Com: -0.520D-04 0.127D-02 0.342D-03-0.184D-02-0.221D-02-0.298D-03
 Coeff-Com:  0.964D-02 0.278D-01-0.805D-02-0.109D+00-0.186D+00 0.382D+00
 Coeff-Com:  0.886D+00
 Coeff:     -0.520D-04 0.127D-02 0.342D-03-0.184D-02-0.221D-02-0.298D-03
 Coeff:      0.964D-02 0.278D-01-0.805D-02-0.109D+00-0.186D+00 0.382D+00
 Coeff:      0.886D+00
 Gap=     0.184 Goal=   None    Shift=    0.000
 RMSDP=1.59D-08 MaxDP=6.62D-07 DE= 6.82D-12 OVMax= 4.36D-06

 Cycle  14  Pass 1  IDiag  1:
 E= -1199.74101097180     Delta-E=       -0.000000000091 Rises=F Damp=F
 DIIS: error= 2.70D-08 at cycle  14 NSaved=  14.
 NSaved=14 IEnMin=14 EnMin= -1199.74101097180     IErMin=14 ErrMin= 2.70D-08
 ErrMax= 2.70D-08  0.00D+00 EMaxC= 1.00D-01 BMatC= 8.61D-13 BMatP= 4.58D-12
 IDIUse=1 WtCom= 1.00D+00 WtEn= 0.00D+00
 Coeff-Com: -0.264D-04 0.192D-03 0.829D-04-0.474D-04 0.111D-03-0.107D-02
 Coeff-Com: -0.818D-03 0.396D-02 0.149D-01 0.478D-02-0.993D-01-0.918D-01
 Coeff-Com:  0.260D+00 0.909D+00
 Coeff:     -0.264D-04 0.192D-03 0.829D-04-0.474D-04 0.111D-03-0.107D-02
 Coeff:     -0.818D-03 0.396D-02 0.149D-01 0.478D-02-0.993D-01-0.918D-01
 Coeff:      0.260D+00 0.909D+00
 Gap=     0.184 Goal=   None    Shift=    0.000
 RMSDP=6.89D-09 MaxDP=2.95D-07 DE=-9.09D-11 OVMax= 1.67D-06

 SCF Done:  E(RM062X) =  -1199.74101097     A.U. after   14 cycles
            NFock= 14  Conv=0.69D-08     -V/T= 2.0029
 KE= 1.196328214972D+03 PE=-4.664544172364D+03 EE= 1.359778506597D+03
 Leave Link  502 at Sat May 24 04:23:00 2025, MaxMem=  3758096384 cpu:             192.3 elap:              44.4
 (Enter /apps/easybuild-2022/easybuild/software/Compiler/NVHPC/22.11-CUDA-11.7.0/Gaussian/g16c01-CUDA-11.7.0/g16/l508.exe)
 QCSCF skips out because SCF is already converged.
 Leave Link  508 at Sat May 24 04:23:00 2025, MaxMem=  3758096384 cpu:               0.0 elap:               0.0
 (Enter /apps/easybuild-2022/easybuild/software/Compiler/NVHPC/22.11-CUDA-11.7.0/Gaussian/g16c01-CUDA-11.7.0/g16/l801.exe)
 DoSCS=F DFT=T ScalE2(SS,OS)=  1.000000  1.000000
 Range of M.O.s used for correlation:     1   366
 NBasis=   366 NAE=    49 NBE=    49 NFC=     0 NFV=     0
 NROrb=    366 NOA=    49 NOB=    49 NVA=   317 NVB=   317

 **** Warning!!: The largest alpha MO coefficient is  0.17222530D+02

 Leave Link  801 at Sat May 24 04:23:00 2025, MaxMem=  3758096384 cpu:               0.0 elap:               0.0
 (Enter /apps/easybuild-2022/easybuild/software/Compiler/NVHPC/22.11-CUDA-11.7.0/Gaussian/g16c01-CUDA-11.7.0/g16/l1101.exe)
 Leave Link 1101 at Sat May 24 04:23:00 2025, MaxMem=  3758096384 cpu:               0.0 elap:               0.0
 (Enter /apps/easybuild-2022/easybuild/software/Compiler/NVHPC/22.11-CUDA-11.7.0/Gaussian/g16c01-CUDA-11.7.0/g16/l1102.exe)
 Symmetrizing basis deriv contribution to polar:
 IMax=3 JMax=2 DiffMx= 0.00D+00
 Leave Link 1102 at Sat May 24 04:23:00 2025, MaxMem=  3758096384 cpu:               0.1 elap:               0.0
 (Enter /apps/easybuild-2022/easybuild/software/Compiler/NVHPC/22.11-CUDA-11.7.0/Gaussian/g16c01-CUDA-11.7.0/g16/l1110.exe)
 Leave Link 1110 at Sat May 24 04:23:00 2025, MaxMem=  3758096384 cpu:               0.0 elap:               0.0
 (Enter /apps/easybuild-2022/easybuild/software/Compiler/NVHPC/22.11-CUDA-11.7.0/Gaussian/g16c01-CUDA-11.7.0/g16/l1002.exe)
 Minotr:  Closed shell wavefunction.
 Leave Link 1002 at Sat May 24 04:23:00 2025, MaxMem=  3758096384 cpu:               0.0 elap:               0.0
 (Enter /apps/easybuild-2022/easybuild/software/Compiler/NVHPC/22.11-CUDA-11.7.0/Gaussian/g16c01-CUDA-11.7.0/g16/l701.exe)
 ... and contract with generalized density number  0.
 Compute integral first derivatives.
   1 Symmetry operations used in ECPInt.
 ECPInt:  NShTT=    8515 NPrTT=   27988 LenC2=    7970 LenP2D=   19330.
 LDataN:  DoStor=T MaxTD1= 7 Len=  274
 Leave Link  701 at Sat May 24 04:23:01 2025, MaxMem=  3758096384 cpu:               0.5 elap:               0.1
 (Enter /apps/easybuild-2022/easybuild/software/Compiler/NVHPC/22.11-CUDA-11.7.0/Gaussian/g16c01-CUDA-11.7.0/g16/l702.exe)
 L702 exits ... SP integral derivatives will be done elsewhere.
 Leave Link  702 at Sat May 24 04:23:01 2025, MaxMem=  3758096384 cpu:               0.0 elap:               0.0
 (Enter /apps/easybuild-2022/easybuild/software/Compiler/NVHPC/22.11-CUDA-11.7.0/Gaussian/g16c01-CUDA-11.7.0/g16/l703.exe)
 Integral derivatives from FoFJK, PRISM(SPDF).
 Compute integral first derivatives, UseDBF=F ICtDFT=           0.
 Calling FoFJK, ICntrl=      2127 FMM=F ISym2X=0 I1Cent= 0 IOpClX= 0 NMat=1 NMatS=1 NMatT=0.
 FoFJK:  IHMeth= 1 ICntrl=    2127 DoSepK=F KAlg= 0 I1Cent=           0 FoldK=F
 IRaf=         0 NMat=       1 IRICut=       1 DoRegI=T DoRafI=F ISym2E= 0 IDoP0=0 IntGTp=1.
 FoFCou: FMM=F IPFlag=           0 FMFlag=      100000 FMFlg1=         800
         NFxFlg=           0 DoJE=F BraDBF=F KetDBF=F FulRan=T
         wScrn=  0.000000 ICntrl=      2127 IOpCl=  0 I1Cent=           0 NGrid=           0
         NMat0=    1 NMatS0=      1 NMatT0=    0 NMatD0=    1 NMtDS0=    0 NMtDT0=    0
 Symmetry not used in FoFCou.
 Leave Link  703 at Sat May 24 04:23:14 2025, MaxMem=  3758096384 cpu:             102.0 elap:              12.9
 (Enter /apps/easybuild-2022/easybuild/software/Compiler/NVHPC/22.11-CUDA-11.7.0/Gaussian/g16c01-CUDA-11.7.0/g16/l716.exe)
 Dipole        = 6.02358597D-01 5.50496011D-01 2.77068028D-01
 Polarizability= 0.00000000D+00 0.00000000D+00 0.00000000D+00
                 0.00000000D+00 0.00000000D+00 0.00000000D+00
 -------------------------------------------------------------------
 Center     Atomic                   Forces (Hartrees/Bohr)
 Number     Number              X              Y              Z
 -------------------------------------------------------------------
      1        6           0.000189138   -0.000443103    0.000277838
      2        6          -0.001086322   -0.000208804   -0.000735004
      3        9          -0.000082925    0.000101752    0.000070010
      4        9           0.000548215   -0.000485531   -0.000139610
      5       16           0.007203494   -0.004284159    0.001024713
      6        8          -0.006812460   -0.001150035    0.001610294
      7        8           0.000482753    0.006139200   -0.001896977
      8        8          -0.000326729    0.000180495   -0.000133767
      9        9          -0.000203192    0.000016907    0.000069786
     10        9           0.000009172    0.000058498   -0.000090794
     11        9           0.000116826    0.000124269   -0.000102803
     12        1          -0.000037969   -0.000049488    0.000046311
 -------------------------------------------------------------------
 Cartesian Forces:  Max     0.007203494 RMS     0.002147694
 Leave Link  716 at Sat May 24 04:23:14 2025, MaxMem=  3758096384 cpu:               0.0 elap:               0.0
 (Enter /apps/easybuild-2022/easybuild/software/Compiler/NVHPC/22.11-CUDA-11.7.0/Gaussian/g16c01-CUDA-11.7.0/g16/l123.exe)
 IRC-IRC-IRC-IRC-IRC-IRC-IRC-IRC-IRC-IRC-IRC-IRC-IRC-IRC-IRC-IRC-IRC-IRC
 Pt  1 Step number   1 out of a maximum of  20
 Using modified Bulirsch-Stoer corrector integration.
   Using distance weighted interpolants to fit PES.
 PreDWI: IReCr0= 2 IReCr1= 1 IReCr2= 1 IReCr3= 1
 Modified Bulirsch-Stoer Extrapolation Cycles:
    EPS =    0.000010000000000
    Cycle     1 NS=    48
      PEZero:  N= 2 I= 1 D=  2.22D-04 Err=  3.96D-04
    Cycle     2 NS=    64 Truncation Error =  0.000395677
      PEZero:  N= 3 I= 2 D=  2.22D-04 Err=  2.64D-04
      PEZero:  N= 3 I= 1 D=  4.43D-04 Err=  7.06D-09
    Cycle     3 NS=    96 Truncation Error =  0.000000007
 BS completed in    3 cycles and     208 integration steps.
 Maximum DWI energy   std dev =  0.000000034 at pt    56
 Maximum DWI gradient std dev =  0.005523006 at pt     1
 SUMMARY OF CORRECTOR INTEGRATION:
   Predictor End Point Energy = -1199.741011
   Old End Point Energy       = -1199.741011
   Corrected End Point Energy = -1199.741011
   Predictor End-Start Dist.  =     0.085065
   Old End-Start Dist.        =     0.085065
   New End-Start Dist.        =     0.085065
   New End-Old End Dist.      =     0.000289
 CORRECTOR INTEGRATION CONVERGENCE:
   Recorrection delta-x convergence threshold:    0.010000
   Delta-x Convergence Met
 Point Number:   1          Path Number:   1
                    CURRENT STRUCTURE
                Cartesian Coordinates (Ang):                
 ---------------------------------------------------------------------
 Center     Atomic                     Coordinates (Angstroms)
 Number     Number                        X           Y           Z
 ---------------------------------------------------------------------
      1          6                   -1.158099   -0.695529    0.666463
      2          6                   -0.633476    0.300355   -0.378801
      3          9                   -1.064025   -0.067781   -1.588201
      4          9                   -1.130556    1.510001   -0.094363
      5         16                    1.356819    0.653890   -0.626844
      6          8                    1.505657   -0.852883   -0.505324
      7          8                    2.866362    0.291636   -0.855072
      8          8                    1.437889    1.293650    0.833668
      9          9                   -0.825963   -1.934659    0.339429
     10          9                   -0.661316   -0.415926    1.864138
     11          9                   -2.485304   -0.621814    0.733482
     12          1                    2.337579    1.182867    1.172149
 ---------------------------------------------------------------------
   CHANGE IN THE REACTION COORDINATE =    0.08506
   NET REACTION COORDINATE UP TO THIS POINT =    0.08506
  # OF POINTS ALONG THE PATH =   1
  # OF STEPS =   1

 Calculating another point on the path.
 Point Number  2 in FORWARD path direction.
 Using LQA Reaction Path Following.
   LQA: T_Est iteration completed in    3 iterations.
 IRC-IRC-IRC-IRC-IRC-IRC-IRC-IRC-IRC-IRC-IRC-IRC-IRC-IRC-IRC-IRC-IRC-IRC
 Leave Link  123 at Sat May 24 04:23:14 2025, MaxMem=  3758096384 cpu:               0.1 elap:               0.1
 (Enter /apps/easybuild-2022/easybuild/software/Compiler/NVHPC/22.11-CUDA-11.7.0/Gaussian/g16c01-CUDA-11.7.0/g16/l202.exe)
                          Input orientation:                          
 ---------------------------------------------------------------------
 Center     Atomic      Atomic             Coordinates (Angstroms)
 Number     Number       Type             X           Y           Z
 ---------------------------------------------------------------------
      1          6           0       -1.157859   -0.696089    0.666808
      2          6           0       -0.634888    0.300047   -0.379735
      3          9           0       -1.064096   -0.067696   -1.588153
      4          9           0       -1.130107    1.509610   -0.094478
      5         16           0        1.360360    0.651795   -0.626344
      6          8           0        1.498957   -0.854037   -0.503736
      7          8           0        2.866842    0.297673   -0.856935
      8          8           0        1.437569    1.293824    0.833537
      9          9           0       -0.826129   -1.934648    0.339486
     10          9           0       -0.661307   -0.415879    1.864066
     11          9           0       -2.485207   -0.621712    0.733397
     12          1           0        2.336980    1.182103    1.172891
 ---------------------------------------------------------------------
                    Distance matrix (angstroms):
                    1          2          3          4          5
     1  C    0.000000
     2  C    1.536567   0.000000
     3  F    2.342758   1.334065   0.000000
     4  F    2.333545   1.337781   2.173319   0.000000
     5  S    3.135356   2.040970   2.705685   2.687220   0.000000
     6  O    2.907541   2.429111   2.891978   3.558974   1.517159
     7  O    4.416738   3.534096   4.015028   4.245672   1.564629
     8  O    3.274721   2.598980   3.738536   2.738747   1.596689
     9  F    1.323335   2.355359   2.694055   3.484773   3.521825
    10  F    1.326088   2.355396   3.493034   2.786248   3.380711
    11  F    1.331096   2.347846   2.777784   2.657858   4.273067
    12  H    3.999703   3.467084   4.555511   3.705965   2.114771
                    6          7          8          9         10
     6  O    0.000000
     7  O    1.822717   0.000000
     8  O    2.530884   2.427516   0.000000
     9  F    2.699031   4.478026   3.973845   0.000000
    10  F    3.234997   4.512299   2.896610   2.158280   0.000000
    11  F    4.178281   5.658520   4.366632   2.152094   2.155781
    12  H    2.767530   2.276656   0.967772   4.518181   3.467130
                   11         12
    11  F    0.000000
    12  H    5.167242   0.000000
 Symmetry turned off by external request.
 Stoichiometry    C2HF5O3S
 Rotational constants (GHZ):           1.6587142           0.7531762           0.7348035
 Leave Link  202 at Sat May 24 04:23:14 2025, MaxMem=  3758096384 cpu:               0.0 elap:               0.0
 (Enter /apps/easybuild-2022/easybuild/software/Compiler/NVHPC/22.11-CUDA-11.7.0/Gaussian/g16c01-CUDA-11.7.0/g16/l301.exe)
 Standard basis: def2TZVPP (5D, 7F)
 Ernie: Thresh=  0.10000D-02 Tol=  0.10000D-05 Strict=F.
   366 basis functions,   596 primitive gaussians,   423 cartesian basis functions
    49 alpha electrons       49 beta electrons
       nuclear repulsion energy       908.7985354780 Hartrees.
 IExCor= 4336 DFT=T Ex+Corr=M062X ExCW=0 ScaHFX=  0.540000
 ScaDFX=  1.000000  1.000000  1.000000  1.000000 ScalE2=  1.000000  1.000000
 IRadAn=      5 IRanWt=     -1 IRanGd=            0 ICorTp=0 IEmpDi=  4
 NAtoms=   12 NActive=   12 NUniq=   12 SFac= 1.00D+00 NAtFMM=   60 NAOKFM=F Big=F
 Integral buffers will be    131072 words long.
 Raffenetti 2 integral format.
 Two-electron integral symmetry is turned off.
 Leave Link  301 at Sat May 24 04:23:14 2025, MaxMem=  3758096384 cpu:               0.0 elap:               0.0
 (Enter /apps/easybuild-2022/easybuild/software/Compiler/NVHPC/22.11-CUDA-11.7.0/Gaussian/g16c01-CUDA-11.7.0/g16/l302.exe)
 NPDir=0 NMtPBC=     1 NCelOv=     1 NCel=       1 NClECP=     1 NCelD=      1
         NCelK=      1 NCelE2=     1 NClLst=     1 CellRange=     0.0.
 One-electron integrals computed using PRISM.
   1 Symmetry operations used in ECPInt.
 ECPInt:  NShTT=    8515 NPrTT=   27988 LenC2=    7970 LenP2D=   19333.
 LDataN:  DoStor=T MaxTD1= 6 Len=  172
 NBasis=   366 RedAO= T EigKep=  4.89D-04  NBF=   366
 NBsUse=   366 1.00D-06 EigRej= -1.00D+00 NBFU=   366
 Precomputing XC quadrature grid using
 IXCGrd= 4 IRadAn=           5 IRanWt=          -1 IRanGd=           0 AccXCQ= 0.00D+00.
 Generated NRdTot=       0 NPtTot=           0 NUsed=           0 NTot=          32
 NSgBfM=   419   419   419   419   419 MxSgAt=    12 MxSgA2=    12.
 Leave Link  302 at Sat May 24 04:23:14 2025, MaxMem=  3758096384 cpu:               0.7 elap:               0.2
 (Enter /apps/easybuild-2022/easybuild/software/Compiler/NVHPC/22.11-CUDA-11.7.0/Gaussian/g16c01-CUDA-11.7.0/g16/l303.exe)
 DipDrv:  MaxL=1.
 Leave Link  303 at Sat May 24 04:23:14 2025, MaxMem=  3758096384 cpu:               0.1 elap:               0.0
 (Enter /apps/easybuild-2022/easybuild/software/Compiler/NVHPC/22.11-CUDA-11.7.0/Gaussian/g16c01-CUDA-11.7.0/g16/l401.exe)
 Initial guess from the checkpoint file:  "2003846667223680600001_r12_insertion_R_6_5_7_IRC_F.chk"
 B after Tr=    -0.000008   -0.000006    0.000008
         Rot=    1.000000   -0.000002    0.000000   -0.000000 Ang=  -0.00 deg.
 Guess basis will be translated and rotated to current coordinates.
 JPrj=2 DoOrth=T DoCkMO=T.
 Generating alternative initial guess.
 ExpMin= 9.52D-02 ExpMax= 6.07D+04 ExpMxC= 2.07D+03 IAcc=3 IRadAn=         5 AccDes= 0.00D+00
 Harris functional with IExCor= 1009 and IRadAn=       5 diagonalized for initial guess.
 HarFok:  IExCor= 1009 AccDes= 0.00D+00 IRadAn=         5 IDoV= 1 UseB2=F ITyADJ=14
 ICtDFT=  3500011 ScaDFX=  1.000000  1.000000  1.000000  1.000000
 FoFCou: FMM=F IPFlag=           0 FMFlag=      100000 FMFlg1=           0
         NFxFlg=           0 DoJE=T BraDBF=F KetDBF=T FulRan=T
         wScrn=  0.000000 ICntrl=       500 IOpCl=  0 I1Cent=   200000004 NGrid=           0
         NMat0=    1 NMatS0=      1 NMatT0=    0 NMatD0=    1 NMtDS0=    0 NMtDT0=    0
 Symmetry not used in FoFCou.
 Harris En= -1199.17161685260    
 Leave Link  401 at Sat May 24 04:23:15 2025, MaxMem=  3758096384 cpu:               4.6 elap:               0.7
 (Enter /apps/easybuild-2022/easybuild/software/Compiler/NVHPC/22.11-CUDA-11.7.0/Gaussian/g16c01-CUDA-11.7.0/g16/l502.exe)
 Keep R1 ints in memory in canonical form, NReq=2293446996.
 FoFCou: FMM=F IPFlag=           0 FMFlag=           0 FMFlg1=           0
         NFxFlg=           0 DoJE=F BraDBF=F KetDBF=F FulRan=T
         wScrn=  0.000000 ICntrl=       600 IOpCl=  0 I1Cent=           0 NGrid=           0
         NMat0=    1 NMatS0=  67161 NMatT0=    0 NMatD0=    1 NMtDS0=    0 NMtDT0=    0
 Symmetry not used in FoFCou.
 Two-electron integral symmetry not used.
 Closed shell SCF:
 Using DIIS extrapolation, IDIIS=  1040.
 NGot=  3758096384 LenX=  1502398672 LenY=  1502219302
 Requested convergence on RMS density matrix=1.00D-08 within  32 cycles.
 Requested convergence on MAX density matrix=1.00D-06.
 Requested convergence on             energy=1.00D-06.
 No special actions if energy rises.
 Integral accuracy reduced to 1.0D-05 until final iterations.

 Cycle   1  Pass 0  IDiag  1:
 E= -1199.74110428451    
 DIIS: error= 4.01D-04 at cycle   1 NSaved=   1.
 NSaved= 1 IEnMin= 1 EnMin= -1199.74110428451     IErMin= 1 ErrMin= 4.01D-04
 ErrMax= 4.01D-04  0.00D+00 EMaxC= 1.00D-01 BMatC= 6.88D-05 BMatP= 6.88D-05
 IDIUse=3 WtCom= 9.96D-01 WtEn= 4.01D-03
 Coeff-Com:  0.100D+01
 Coeff-En:   0.100D+01
 Coeff:      0.100D+01
 Gap=     1.026 Goal=   None    Shift=    0.000
 RMSDP=5.80D-05 MaxDP=1.71D-03              OVMax= 1.63D-02

 Cycle   2  Pass 0  IDiag  1:
 E= -1199.74123850919     Delta-E=       -0.000134224671 Rises=F Damp=F
 DIIS: error= 2.87D-04 at cycle   2 NSaved=   2.
 NSaved= 2 IEnMin= 2 EnMin= -1199.74123850919     IErMin= 2 ErrMin= 2.87D-04
 ErrMax= 2.87D-04  0.00D+00 EMaxC= 1.00D-01 BMatC= 9.29D-05 BMatP= 6.88D-05
 IDIUse=3 WtCom= 3.71D-01 WtEn= 6.29D-01
 Coeff-Com:  0.572D+00 0.428D+00
 Coeff-En:   0.000D+00 0.100D+01
 Coeff:      0.212D+00 0.788D+00
 Gap=     0.184 Goal=   None    Shift=    0.000
 RMSDP=3.84D-05 MaxDP=1.37D-03 DE=-1.34D-04 OVMax= 6.00D-03

 Cycle   3  Pass 0  IDiag  1:
 E= -1199.74121218288     Delta-E=        0.000026326305 Rises=F Damp=F
 DIIS: error= 4.08D-04 at cycle   3 NSaved=   3.
 NSaved= 3 IEnMin= 2 EnMin= -1199.74123850919     IErMin= 2 ErrMin= 2.87D-04
 ErrMax= 4.08D-04  0.00D+00 EMaxC= 1.00D-01 BMatC= 1.27D-04 BMatP= 6.88D-05
 IDIUse=3 WtCom= 3.31D-01 WtEn= 6.69D-01
 Coeff-Com: -0.798D-01 0.579D+00 0.501D+00
 Coeff-En:   0.000D+00 0.563D+00 0.437D+00
 Coeff:     -0.264D-01 0.568D+00 0.458D+00
 Gap=     0.182 Goal=   None    Shift=    0.000
 RMSDP=3.16D-05 MaxDP=1.28D-03 DE= 2.63D-05 OVMax= 9.38D-03

 Cycle   4  Pass 0  IDiag  1:
 E= -1199.74133832534     Delta-E=       -0.000126142460 Rises=F Damp=F
 DIIS: error= 1.10D-04 at cycle   4 NSaved=   4.
 NSaved= 4 IEnMin= 4 EnMin= -1199.74133832534     IErMin= 4 ErrMin= 1.10D-04
 ErrMax= 1.10D-04  0.00D+00 EMaxC= 1.00D-01 BMatC= 8.73D-06 BMatP= 6.88D-05
 IDIUse=3 WtCom= 9.99D-01 WtEn= 1.10D-03
 Coeff-Com: -0.459D-01 0.554D-01 0.227D+00 0.763D+00
 Coeff-En:   0.000D+00 0.000D+00 0.000D+00 0.100D+01
 Coeff:     -0.459D-01 0.554D-01 0.227D+00 0.764D+00
 Gap=     0.182 Goal=   None    Shift=    0.000
 RMSDP=1.25D-05 MaxDP=4.58D-04 DE=-1.26D-04 OVMax= 3.36D-03

 Cycle   5  Pass 0  IDiag  1:
 E= -1199.74135085043     Delta-E=       -0.000012525086 Rises=F Damp=F
 DIIS: error= 1.11D-04 at cycle   5 NSaved=   5.
 NSaved= 5 IEnMin= 5 EnMin= -1199.74135085043     IErMin= 4 ErrMin= 1.10D-04
 ErrMax= 1.11D-04  0.00D+00 EMaxC= 1.00D-01 BMatC= 6.83D-06 BMatP= 8.73D-06
 IDIUse=3 WtCom= 9.99D-01 WtEn= 1.11D-03
 Coeff-Com:  0.221D-01-0.405D+00-0.606D-01 0.758D+00 0.686D+00
 Coeff-En:   0.000D+00 0.000D+00 0.000D+00 0.000D+00 0.100D+01
 Coeff:      0.220D-01-0.405D+00-0.605D-01 0.757D+00 0.686D+00
 Gap=     0.183 Goal=   None    Shift=    0.000
 RMSDP=1.23D-05 MaxDP=4.86D-04 DE=-1.25D-05 OVMax= 3.05D-03

 Cycle   6  Pass 0  IDiag  1:
 E= -1199.74136165977     Delta-E=       -0.000010809344 Rises=F Damp=F
 DIIS: error= 3.27D-05 at cycle   6 NSaved=   6.
 NSaved= 6 IEnMin= 6 EnMin= -1199.74136165977     IErMin= 6 ErrMin= 3.27D-05
 ErrMax= 3.27D-05  0.00D+00 EMaxC= 1.00D-01 BMatC= 8.99D-07 BMatP= 6.83D-06
 IDIUse=1 WtCom= 1.00D+00 WtEn= 0.00D+00
 Coeff-Com:  0.355D-01-0.262D+00-0.886D-01 0.157D+00 0.241D+00 0.917D+00
 Coeff:      0.355D-01-0.262D+00-0.886D-01 0.157D+00 0.241D+00 0.917D+00
 Gap=     0.183 Goal=   None    Shift=    0.000
 RMSDP=8.09D-06 MaxDP=3.15D-04 DE=-1.08D-05 OVMax= 2.07D-03

 Initial convergence to 1.0D-05 achieved.  Increase integral accuracy.
 Cycle   7  Pass 1  IDiag  1:
 E= -1199.74137391454     Delta-E=       -0.000012254770 Rises=F Damp=F
 DIIS: error= 3.27D-05 at cycle   1 NSaved=   1.
 NSaved= 1 IEnMin= 1 EnMin= -1199.74137391454     IErMin= 1 ErrMin= 3.27D-05
 ErrMax= 3.27D-05  0.00D+00 EMaxC= 1.00D-01 BMatC= 9.88D-07 BMatP= 9.88D-07
 IDIUse=1 WtCom= 1.00D+00 WtEn= 0.00D+00
 Coeff-Com:  0.100D+01
 Coeff:      0.100D+01
 Gap=     0.183 Goal=   None    Shift=    0.000
 RMSDP=8.09D-06 MaxDP=3.15D-04 DE=-1.23D-05 OVMax= 2.31D-04

 Cycle   8  Pass 1  IDiag  1:
 E= -1199.74137461511     Delta-E=       -0.000000700566 Rises=F Damp=F
 DIIS: error= 1.33D-05 at cycle   2 NSaved=   2.
 NSaved= 2 IEnMin= 2 EnMin= -1199.74137461511     IErMin= 2 ErrMin= 1.33D-05
 ErrMax= 1.33D-05  0.00D+00 EMaxC= 1.00D-01 BMatC= 2.48D-07 BMatP= 9.88D-07
 IDIUse=1 WtCom= 1.00D+00 WtEn= 0.00D+00
 Coeff-Com:  0.225D+00 0.775D+00
 Coeff:      0.225D+00 0.775D+00
 Gap=     0.183 Goal=   None    Shift=    0.000
 RMSDP=2.08D-06 MaxDP=1.22D-04 DE=-7.01D-07 OVMax= 3.43D-04

 Cycle   9  Pass 1  IDiag  1:
 E= -1199.74137454080     Delta-E=        0.000000074304 Rises=F Damp=F
 DIIS: error= 2.29D-05 at cycle   3 NSaved=   3.
 NSaved= 3 IEnMin= 2 EnMin= -1199.74137461511     IErMin= 2 ErrMin= 1.33D-05
 ErrMax= 2.29D-05  0.00D+00 EMaxC= 1.00D-01 BMatC= 4.32D-07 BMatP= 2.48D-07
 IDIUse=1 WtCom= 1.00D+00 WtEn= 0.00D+00
 Coeff-Com: -0.338D-01 0.586D+00 0.448D+00
 Coeff:     -0.338D-01 0.586D+00 0.448D+00
 Gap=     0.183 Goal=   None    Shift=    0.000
 RMSDP=1.01D-06 MaxDP=7.02D-05 DE= 7.43D-08 OVMax= 1.32D-04

 Cycle  10  Pass 1  IDiag  1:
 E= -1199.74137484635     Delta-E=       -0.000000305547 Rises=F Damp=F
 DIIS: error= 3.73D-06 at cycle   4 NSaved=   4.
 NSaved= 4 IEnMin= 4 EnMin= -1199.74137484635     IErMin= 4 ErrMin= 3.73D-06
 ErrMax= 3.73D-06  0.00D+00 EMaxC= 1.00D-01 BMatC= 1.76D-08 BMatP= 2.48D-07
 IDIUse=1 WtCom= 1.00D+00 WtEn= 0.00D+00
 Coeff-Com: -0.340D-01 0.287D+00 0.232D+00 0.515D+00
 Coeff:     -0.340D-01 0.287D+00 0.232D+00 0.515D+00
 Gap=     0.183 Goal=   None    Shift=    0.000
 RMSDP=3.30D-07 MaxDP=1.62D-05 DE=-3.06D-07 OVMax= 5.52D-05

 Cycle  11  Pass 1  IDiag  1:
 E= -1199.74137486477     Delta-E=       -0.000000018423 Rises=F Damp=F
 DIIS: error= 2.13D-06 at cycle   5 NSaved=   5.
 NSaved= 5 IEnMin= 5 EnMin= -1199.74137486477     IErMin= 5 ErrMin= 2.13D-06
 ErrMax= 2.13D-06  0.00D+00 EMaxC= 1.00D-01 BMatC= 4.51D-09 BMatP= 1.76D-08
 IDIUse=1 WtCom= 1.00D+00 WtEn= 0.00D+00
 Coeff-Com:  0.253D-02-0.835D-01-0.109D+00 0.226D+00 0.964D+00
 Coeff:      0.253D-02-0.835D-01-0.109D+00 0.226D+00 0.964D+00
 Gap=     0.183 Goal=   None    Shift=    0.000
 RMSDP=4.52D-07 MaxDP=1.79D-05 DE=-1.84D-08 OVMax= 1.31D-04

 Cycle  12  Pass 1  IDiag  1:
 E= -1199.74137487686     Delta-E=       -0.000000012093 Rises=F Damp=F
 DIIS: error= 2.14D-06 at cycle   6 NSaved=   6.
 NSaved= 6 IEnMin= 6 EnMin= -1199.74137487686     IErMin= 5 ErrMin= 2.13D-06
 ErrMax= 2.14D-06  0.00D+00 EMaxC= 1.00D-01 BMatC= 4.25D-09 BMatP= 4.51D-09
 IDIUse=1 WtCom= 1.00D+00 WtEn= 0.00D+00
 Coeff-Com:  0.119D-01-0.155D+00-0.174D+00 0.597D-01 0.844D+00 0.413D+00
 Coeff:      0.119D-01-0.155D+00-0.174D+00 0.597D-01 0.844D+00 0.413D+00
 Gap=     0.183 Goal=   None    Shift=    0.000
 RMSDP=1.90D-07 MaxDP=8.93D-06 DE=-1.21D-08 OVMax= 3.28D-05

 Cycle  13  Pass 1  IDiag  1:
 E= -1199.74137488267     Delta-E=       -0.000000005802 Rises=F Damp=F
 DIIS: error= 8.42D-07 at cycle   7 NSaved=   7.
 NSaved= 7 IEnMin= 7 EnMin= -1199.74137488267     IErMin= 7 ErrMin= 8.42D-07
 ErrMax= 8.42D-07  0.00D+00 EMaxC= 1.00D-01 BMatC= 5.71D-10 BMatP= 4.25D-09
 IDIUse=1 WtCom= 1.00D+00 WtEn= 0.00D+00
 Coeff-Com:  0.479D-02-0.357D-01-0.497D-01-0.748D-01-0.483D-01-0.217D+00
 Coeff-Com:  0.142D+01
 Coeff:      0.479D-02-0.357D-01-0.497D-01-0.748D-01-0.483D-01-0.217D+00
 Coeff:      0.142D+01
 Gap=     0.183 Goal=   None    Shift=    0.000
 RMSDP=2.89D-07 MaxDP=1.14D-05 DE=-5.80D-09 OVMax= 7.41D-05

 Cycle  14  Pass 1  IDiag  1:
 E= -1199.74137488550     Delta-E=       -0.000000002833 Rises=F Damp=F
 DIIS: error= 4.68D-07 at cycle   8 NSaved=   8.
 NSaved= 8 IEnMin= 8 EnMin= -1199.74137488550     IErMin= 8 ErrMin= 4.68D-07
 ErrMax= 4.68D-07  0.00D+00 EMaxC= 1.00D-01 BMatC= 1.43D-10 BMatP= 5.71D-10
 IDIUse=1 WtCom= 1.00D+00 WtEn= 0.00D+00
 Coeff-Com: -0.115D-03 0.152D-01 0.923D-02-0.323D-01-0.164D+00-0.273D+00
 Coeff-Com:  0.653D+00 0.792D+00
 Coeff:     -0.115D-03 0.152D-01 0.923D-02-0.323D-01-0.164D+00-0.273D+00
 Coeff:      0.653D+00 0.792D+00
 Gap=     0.183 Goal=   None    Shift=    0.000
 RMSDP=8.82D-08 MaxDP=3.37D-06 DE=-2.83D-09 OVMax= 2.13D-05

 Cycle  15  Pass 1  IDiag  1:
 E= -1199.74137488577     Delta-E=       -0.000000000271 Rises=F Damp=F
 DIIS: error= 7.32D-08 at cycle   9 NSaved=   9.
 NSaved= 9 IEnMin= 9 EnMin= -1199.74137488577     IErMin= 9 ErrMin= 7.32D-08
 ErrMax= 7.32D-08  0.00D+00 EMaxC= 1.00D-01 BMatC= 9.89D-12 BMatP= 1.43D-10
 IDIUse=1 WtCom= 1.00D+00 WtEn= 0.00D+00
 Coeff-Com: -0.676D-03 0.101D-01 0.896D-02 0.375D-02-0.384D-01-0.892D-01
 Coeff-Com:  0.476D-01 0.252D+00 0.806D+00
 Coeff:     -0.676D-03 0.101D-01 0.896D-02 0.375D-02-0.384D-01-0.892D-01
 Coeff:      0.476D-01 0.252D+00 0.806D+00
 Gap=     0.183 Goal=   None    Shift=    0.000
 RMSDP=1.64D-08 MaxDP=4.67D-07 DE=-2.71D-10 OVMax= 3.54D-06

 Cycle  16  Pass 1  IDiag  1:
 E= -1199.74137488574     Delta-E=        0.000000000029 Rises=F Damp=F
 DIIS: error= 3.34D-08 at cycle  10 NSaved=  10.
 NSaved=10 IEnMin= 9 EnMin= -1199.74137488577     IErMin=10 ErrMin= 3.34D-08
 ErrMax= 3.34D-08  0.00D+00 EMaxC= 1.00D-01 BMatC= 1.13D-12 BMatP= 9.89D-12
 IDIUse=1 WtCom= 1.00D+00 WtEn= 0.00D+00
 Coeff-Com: -0.145D-03 0.873D-03 0.107D-02 0.493D-02 0.101D-01 0.391D-03
 Coeff-Com: -0.540D-01-0.360D-01 0.180D+00 0.893D+00
 Coeff:     -0.145D-03 0.873D-03 0.107D-02 0.493D-02 0.101D-01 0.391D-03
 Coeff:     -0.540D-01-0.360D-01 0.180D+00 0.893D+00
 Gap=     0.183 Goal=   None    Shift=    0.000
 RMSDP=6.28D-09 MaxDP=2.45D-07 DE= 2.91D-11 OVMax= 1.19D-06

 SCF Done:  E(RM062X) =  -1199.74137489     A.U. after   16 cycles
            NFock= 16  Conv=0.63D-08     -V/T= 2.0029
 KE= 1.196328195115D+03 PE=-4.664716677490D+03 EE= 1.359848572012D+03
 Leave Link  502 at Sat May 24 04:24:00 2025, MaxMem=  3758096384 cpu:             179.5 elap:              45.6
 (Enter /apps/easybuild-2022/easybuild/software/Compiler/NVHPC/22.11-CUDA-11.7.0/Gaussian/g16c01-CUDA-11.7.0/g16/l508.exe)
 QCSCF skips out because SCF is already converged.
 Leave Link  508 at Sat May 24 04:24:00 2025, MaxMem=  3758096384 cpu:               0.0 elap:               0.0
 (Enter /apps/easybuild-2022/easybuild/software/Compiler/NVHPC/22.11-CUDA-11.7.0/Gaussian/g16c01-CUDA-11.7.0/g16/l801.exe)
 DoSCS=F DFT=T ScalE2(SS,OS)=  1.000000  1.000000
 Range of M.O.s used for correlation:     1   366
 NBasis=   366 NAE=    49 NBE=    49 NFC=     0 NFV=     0
 NROrb=    366 NOA=    49 NOB=    49 NVA=   317 NVB=   317

 **** Warning!!: The largest alpha MO coefficient is  0.17192641D+02

 Leave Link  801 at Sat May 24 04:24:00 2025, MaxMem=  3758096384 cpu:               0.0 elap:               0.0
 (Enter /apps/easybuild-2022/easybuild/software/Compiler/NVHPC/22.11-CUDA-11.7.0/Gaussian/g16c01-CUDA-11.7.0/g16/l1101.exe)
 Leave Link 1101 at Sat May 24 04:24:00 2025, MaxMem=  3758096384 cpu:               0.0 elap:               0.0
 (Enter /apps/easybuild-2022/easybuild/software/Compiler/NVHPC/22.11-CUDA-11.7.0/Gaussian/g16c01-CUDA-11.7.0/g16/l1102.exe)
 Symmetrizing basis deriv contribution to polar:
 IMax=3 JMax=2 DiffMx= 0.00D+00
 Leave Link 1102 at Sat May 24 04:24:00 2025, MaxMem=  3758096384 cpu:               0.1 elap:               0.0
 (Enter /apps/easybuild-2022/easybuild/software/Compiler/NVHPC/22.11-CUDA-11.7.0/Gaussian/g16c01-CUDA-11.7.0/g16/l1110.exe)
 Leave Link 1110 at Sat May 24 04:24:00 2025, MaxMem=  3758096384 cpu:               0.0 elap:               0.0
 (Enter /apps/easybuild-2022/easybuild/software/Compiler/NVHPC/22.11-CUDA-11.7.0/Gaussian/g16c01-CUDA-11.7.0/g16/l1002.exe)
 Minotr:  Closed shell wavefunction.
 Leave Link 1002 at Sat May 24 04:24:00 2025, MaxMem=  3758096384 cpu:               0.0 elap:               0.0
 (Enter /apps/easybuild-2022/easybuild/software/Compiler/NVHPC/22.11-CUDA-11.7.0/Gaussian/g16c01-CUDA-11.7.0/g16/l701.exe)
 ... and contract with generalized density number  0.
 Compute integral first derivatives.
   1 Symmetry operations used in ECPInt.
 ECPInt:  NShTT=    8515 NPrTT=   27988 LenC2=    7970 LenP2D=   19333.
 LDataN:  DoStor=T MaxTD1= 7 Len=  274
 Leave Link  701 at Sat May 24 04:24:01 2025, MaxMem=  3758096384 cpu:               0.6 elap:               0.1
 (Enter /apps/easybuild-2022/easybuild/software/Compiler/NVHPC/22.11-CUDA-11.7.0/Gaussian/g16c01-CUDA-11.7.0/g16/l702.exe)
 L702 exits ... SP integral derivatives will be done elsewhere.
 Leave Link  702 at Sat May 24 04:24:01 2025, MaxMem=  3758096384 cpu:               0.0 elap:               0.0
 (Enter /apps/easybuild-2022/easybuild/software/Compiler/NVHPC/22.11-CUDA-11.7.0/Gaussian/g16c01-CUDA-11.7.0/g16/l703.exe)
 Integral derivatives from FoFJK, PRISM(SPDF).
 Compute integral first derivatives, UseDBF=F ICtDFT=           0.
 Calling FoFJK, ICntrl=      2127 FMM=F ISym2X=0 I1Cent= 0 IOpClX= 0 NMat=1 NMatS=1 NMatT=0.
 FoFJK:  IHMeth= 1 ICntrl=    2127 DoSepK=F KAlg= 0 I1Cent=           0 FoldK=F
 IRaf=         0 NMat=       1 IRICut=       1 DoRegI=T DoRafI=F ISym2E= 0 IDoP0=0 IntGTp=1.
 FoFCou: FMM=F IPFlag=           0 FMFlag=      100000 FMFlg1=         800
         NFxFlg=           0 DoJE=F BraDBF=F KetDBF=F FulRan=T
         wScrn=  0.000000 ICntrl=      2127 IOpCl=  0 I1Cent=           0 NGrid=           0
         NMat0=    1 NMatS0=      1 NMatT0=    0 NMatD0=    1 NMtDS0=    0 NMtDT0=    0
 Symmetry not used in FoFCou.
 Leave Link  703 at Sat May 24 04:24:14 2025, MaxMem=  3758096384 cpu:             103.4 elap:              13.1
 (Enter /apps/easybuild-2022/easybuild/software/Compiler/NVHPC/22.11-CUDA-11.7.0/Gaussian/g16c01-CUDA-11.7.0/g16/l716.exe)
 Dipole        = 5.35847170D-01 5.60500212D-01 2.79948679D-01
 Polarizability= 0.00000000D+00 0.00000000D+00 0.00000000D+00
                 0.00000000D+00 0.00000000D+00 0.00000000D+00
 -------------------------------------------------------------------
 Center     Atomic                   Forces (Hartrees/Bohr)
 Number     Number              X              Y              Z
 -------------------------------------------------------------------
      1        6           0.000397902   -0.000902551    0.000565316
      2        6          -0.002142974   -0.000360356   -0.001488533
      3        9          -0.000146259    0.000207623    0.000147635
      4        9           0.001086239   -0.000963625   -0.000282796
      5       16           0.014251532   -0.008615181    0.002100266
      6        8          -0.013518855   -0.002259956    0.003175813
      7        8           0.000947842    0.012202253   -0.003775230
      8        8          -0.000661940    0.000367847   -0.000264106
      9        9          -0.000411346    0.000039270    0.000135746
     10        9           0.000016877    0.000119075   -0.000184665
     11        9           0.000253521    0.000261912   -0.000221989
     12        1          -0.000072541   -0.000096311    0.000092545
 -------------------------------------------------------------------
 Cartesian Forces:  Max     0.014251532 RMS     0.004266564
 Leave Link  716 at Sat May 24 04:24:14 2025, MaxMem=  3758096384 cpu:               0.0 elap:               0.0
 (Enter /apps/easybuild-2022/easybuild/software/Compiler/NVHPC/22.11-CUDA-11.7.0/Gaussian/g16c01-CUDA-11.7.0/g16/l123.exe)
 IRC-IRC-IRC-IRC-IRC-IRC-IRC-IRC-IRC-IRC-IRC-IRC-IRC-IRC-IRC-IRC-IRC-IRC
 Pt  2 Step number   1 out of a maximum of  20
 Using modified Bulirsch-Stoer corrector integration.
   Using distance weighted interpolants to fit PES.
 PreDWI: IReCr0= 2 IReCr1= 1 IReCr2= 1 IReCr3= 1
 Modified Bulirsch-Stoer Extrapolation Cycles:
    EPS =    0.000010000000000
    Cycle     1 NS=    48
      PEZero:  N= 2 I= 1 D=  4.43D-04 Err=  2.15D-06
    Cycle     2 NS=    64 Truncation Error =  0.000002154
 BS completed in    2 cycles and     112 integration steps.
 Maximum DWI energy   std dev =  0.000000152 at pt    49
 Maximum DWI gradient std dev =  0.003798761 at pt    27
 SUMMARY OF CORRECTOR INTEGRATION:
   Predictor End Point Energy = -1199.741375
   Old End Point Energy       = -1199.741375
   Corrected End Point Energy = -1199.741375
   Predictor End-Start Dist.  =     0.085036
   Old End-Start Dist.        =     0.085036
   New End-Start Dist.        =     0.085035
   New End-Old End Dist.      =     0.000316
 CORRECTOR INTEGRATION CONVERGENCE:
   Recorrection delta-x convergence threshold:    0.010000
   Delta-x Convergence Met
 Point Number:   2          Path Number:   1
                    CURRENT STRUCTURE
                Cartesian Coordinates (Ang):                
 ---------------------------------------------------------------------
 Center     Atomic                     Coordinates (Angstroms)
 Number     Number                        X           Y           Z
 ---------------------------------------------------------------------
      1          6                   -1.157850   -0.696099    0.666817
      2          6                   -0.634888    0.300071   -0.379751
      3          9                   -1.064093   -0.067695   -1.588148
      4          9                   -1.130106    1.509607   -0.094479
      5         16                    1.360354    0.651781   -0.626337
      6          8                    1.498961   -0.854025   -0.503742
      7          8                    2.866838    0.297674   -0.856938
      8          8                    1.437567    1.293827    0.833537
      9          9                   -0.826130   -1.934647    0.339486
     10          9                   -0.661307   -0.415878    1.864065
     11          9                   -2.485203   -0.621710    0.733395
     12          1                    2.336984    1.182108    1.172882
 ---------------------------------------------------------------------
   CHANGE IN THE REACTION COORDINATE =    0.08504
   NET REACTION COORDINATE UP TO THIS POINT =    0.17010
  # OF POINTS ALONG THE PATH =   2
  # OF STEPS =   1

 Calculating another point on the path.
 Point Number  3 in FORWARD path direction.
 Using LQA Reaction Path Following.
   LQA: T_Est iteration completed in    3 iterations.
 IRC-IRC-IRC-IRC-IRC-IRC-IRC-IRC-IRC-IRC-IRC-IRC-IRC-IRC-IRC-IRC-IRC-IRC
 Leave Link  123 at Sat May 24 04:24:14 2025, MaxMem=  3758096384 cpu:               0.1 elap:               0.0
 (Enter /apps/easybuild-2022/easybuild/software/Compiler/NVHPC/22.11-CUDA-11.7.0/Gaussian/g16c01-CUDA-11.7.0/g16/l202.exe)
                          Input orientation:                          
 ---------------------------------------------------------------------
 Center     Atomic      Atomic             Coordinates (Angstroms)
 Number     Number       Type             X           Y           Z
 ---------------------------------------------------------------------
      1          6           0       -1.157588   -0.696680    0.667176
      2          6           0       -0.636297    0.299816   -0.380718
      3          9           0       -1.064154   -0.067608   -1.588091
      4          9           0       -1.129656    1.509212   -0.094597
      5         16           0        1.363879    0.649651   -0.625816
      6          8           0        1.492270   -0.855156   -0.502170
      7          8           0        2.867310    0.303715   -0.858807
      8          8           0        1.437240    1.294009    0.833408
      9          9           0       -0.826300   -1.934634    0.339542
     10          9           0       -0.661298   -0.415829    1.863991
     11          9           0       -2.485095   -0.621600    0.733302
     12          1           0        2.336391    1.181361    1.173605
 ---------------------------------------------------------------------
                    Distance matrix (angstroms):
                    1          2          3          4          5
     1  C    0.000000
     2  C    1.537150   0.000000
     3  F    2.343223   1.332596   0.000000
     4  F    2.333889   1.337127   2.172827   0.000000
     5  S    3.137233   2.045278   2.708464   2.690494   0.000000
     6  O    2.900730   2.424770   2.886998   3.553991   1.515327
     7  O    4.419187   3.536078   4.015737   4.244170   1.560211
     8  O    3.274691   2.600399   3.738266   2.737967   1.596845
     9  F    1.322734   2.355343   2.694092   3.484334   3.522405
    10  F    1.325725   2.356160   3.492910   2.785895   3.381676
    11  F    1.331272   2.346934   2.777561   2.657629   4.275264
    12  H    3.998924   3.468417   4.555282   3.705308   2.113389
                    6          7          8          9         10
     6  O    0.000000
     7  O    1.833277   0.000000
     8  O    2.530950   2.426803   0.000000
     9  F    2.692494   4.482076   3.973871   0.000000
    10  F    3.229487   4.514692   2.896465   2.158226   0.000000
    11  F    4.171375   5.660323   4.366267   2.151907   2.155698
    12  H    2.769145   2.276585   0.967934   4.517488   3.466091
                   11         12
    11  F    0.000000
    12  H    5.166359   0.000000
 Symmetry turned off by external request.
 Stoichiometry    C2HF5O3S
 Rotational constants (GHZ):           1.6598678           0.7529664           0.7347839
 Leave Link  202 at Sat May 24 04:24:14 2025, MaxMem=  3758096384 cpu:               0.0 elap:               0.0
 (Enter /apps/easybuild-2022/easybuild/software/Compiler/NVHPC/22.11-CUDA-11.7.0/Gaussian/g16c01-CUDA-11.7.0/g16/l301.exe)
 Standard basis: def2TZVPP (5D, 7F)
 Ernie: Thresh=  0.10000D-02 Tol=  0.10000D-05 Strict=F.
   366 basis functions,   596 primitive gaussians,   423 cartesian basis functions
    49 alpha electrons       49 beta electrons
       nuclear repulsion energy       908.9046677868 Hartrees.
 IExCor= 4336 DFT=T Ex+Corr=M062X ExCW=0 ScaHFX=  0.540000
 ScaDFX=  1.000000  1.000000  1.000000  1.000000 ScalE2=  1.000000  1.000000
 IRadAn=      5 IRanWt=     -1 IRanGd=            0 ICorTp=0 IEmpDi=  4
 NAtoms=   12 NActive=   12 NUniq=   12 SFac= 1.00D+00 NAtFMM=   60 NAOKFM=F Big=F
 Integral buffers will be    131072 words long.
 Raffenetti 2 integral format.
 Two-electron integral symmetry is turned off.
 Leave Link  301 at Sat May 24 04:24:14 2025, MaxMem=  3758096384 cpu:               0.0 elap:               0.0
 (Enter /apps/easybuild-2022/easybuild/software/Compiler/NVHPC/22.11-CUDA-11.7.0/Gaussian/g16c01-CUDA-11.7.0/g16/l302.exe)
 NPDir=0 NMtPBC=     1 NCelOv=     1 NCel=       1 NClECP=     1 NCelD=      1
         NCelK=      1 NCelE2=     1 NClLst=     1 CellRange=     0.0.
 One-electron integrals computed using PRISM.
   1 Symmetry operations used in ECPInt.
 ECPInt:  NShTT=    8515 NPrTT=   27988 LenC2=    7969 LenP2D=   19334.
 LDataN:  DoStor=T MaxTD1= 6 Len=  172
 NBasis=   366 RedAO= T EigKep=  4.88D-04  NBF=   366
 NBsUse=   366 1.00D-06 EigRej= -1.00D+00 NBFU=   366
 Precomputing XC quadrature grid using
 IXCGrd= 4 IRadAn=           5 IRanWt=          -1 IRanGd=           0 AccXCQ= 0.00D+00.
 Generated NRdTot=       0 NPtTot=           0 NUsed=           0 NTot=          32
 NSgBfM=   419   419   419   419   419 MxSgAt=    12 MxSgA2=    12.
 Leave Link  302 at Sat May 24 04:24:14 2025, MaxMem=  3758096384 cpu:               0.7 elap:               0.2
 (Enter /apps/easybuild-2022/easybuild/software/Compiler/NVHPC/22.11-CUDA-11.7.0/Gaussian/g16c01-CUDA-11.7.0/g16/l303.exe)
 DipDrv:  MaxL=1.
 Leave Link  303 at Sat May 24 04:24:14 2025, MaxMem=  3758096384 cpu:               0.1 elap:               0.0
 (Enter /apps/easybuild-2022/easybuild/software/Compiler/NVHPC/22.11-CUDA-11.7.0/Gaussian/g16c01-CUDA-11.7.0/g16/l401.exe)
 Initial guess from the checkpoint file:  "2003846667223680600001_r12_insertion_R_6_5_7_IRC_F.chk"
 B after Tr=    -0.000008   -0.000006    0.000008
         Rot=    1.000000   -0.000002    0.000001    0.000000 Ang=  -0.00 deg.
 Guess basis will be translated and rotated to current coordinates.
 JPrj=2 DoOrth=T DoCkMO=T.
 Generating alternative initial guess.
 ExpMin= 9.52D-02 ExpMax= 6.07D+04 ExpMxC= 2.07D+03 IAcc=3 IRadAn=         5 AccDes= 0.00D+00
 Harris functional with IExCor= 1009 and IRadAn=       5 diagonalized for initial guess.
 HarFok:  IExCor= 1009 AccDes= 0.00D+00 IRadAn=         5 IDoV= 1 UseB2=F ITyADJ=14
 ICtDFT=  3500011 ScaDFX=  1.000000  1.000000  1.000000  1.000000
 FoFCou: FMM=F IPFlag=           0 FMFlag=      100000 FMFlg1=           0
         NFxFlg=           0 DoJE=T BraDBF=F KetDBF=T FulRan=T
         wScrn=  0.000000 ICntrl=       500 IOpCl=  0 I1Cent=   200000004 NGrid=           0
         NMat0=    1 NMatS0=      1 NMatT0=    0 NMatD0=    1 NMtDS0=    0 NMtDT0=    0
 Symmetry not used in FoFCou.
 Harris En= -1199.17634233463    
 Leave Link  401 at Sat May 24 04:24:15 2025, MaxMem=  3758096384 cpu:               4.6 elap:               0.7
 (Enter /apps/easybuild-2022/easybuild/software/Compiler/NVHPC/22.11-CUDA-11.7.0/Gaussian/g16c01-CUDA-11.7.0/g16/l502.exe)
 Keep R1 ints in memory in canonical form, NReq=2293446996.
 FoFCou: FMM=F IPFlag=           0 FMFlag=           0 FMFlg1=           0
         NFxFlg=           0 DoJE=F BraDBF=F KetDBF=F FulRan=T
         wScrn=  0.000000 ICntrl=       600 IOpCl=  0 I1Cent=           0 NGrid=           0
         NMat0=    1 NMatS0=  67161 NMatT0=    0 NMatD0=    1 NMtDS0=    0 NMtDT0=    0
 Symmetry not used in FoFCou.
 Two-electron integral symmetry not used.
 Closed shell SCF:
 Using DIIS extrapolation, IDIIS=  1040.
 NGot=  3758096384 LenX=  1502398672 LenY=  1502219302
 Requested convergence on RMS density matrix=1.00D-08 within  32 cycles.
 Requested convergence on MAX density matrix=1.00D-06.
 Requested convergence on             energy=1.00D-06.
 No special actions if energy rises.
 Integral accuracy reduced to 1.0D-05 until final iterations.

 Cycle   1  Pass 0  IDiag  1:
 E= -1199.74170848889    
 DIIS: error= 3.89D-04 at cycle   1 NSaved=   1.
 NSaved= 1 IEnMin= 1 EnMin= -1199.74170848889     IErMin= 1 ErrMin= 3.89D-04
 ErrMax= 3.89D-04  0.00D+00 EMaxC= 1.00D-01 BMatC= 6.93D-05 BMatP= 6.93D-05
 IDIUse=3 WtCom= 9.96D-01 WtEn= 3.89D-03
 Coeff-Com:  0.100D+01
 Coeff-En:   0.100D+01
 Coeff:      0.100D+01
 Gap=     1.026 Goal=   None    Shift=    0.000
 RMSDP=5.89D-05 MaxDP=1.78D-03              OVMax= 1.64D-02

 Cycle   2  Pass 0  IDiag  1:
 E= -1199.74183654713     Delta-E=       -0.000128058247 Rises=F Damp=F
 DIIS: error= 2.92D-04 at cycle   2 NSaved=   2.
 NSaved= 2 IEnMin= 2 EnMin= -1199.74183654713     IErMin= 2 ErrMin= 2.92D-04
 ErrMax= 2.92D-04  0.00D+00 EMaxC= 1.00D-01 BMatC= 1.01D-04 BMatP= 6.93D-05
 IDIUse=3 WtCom= 3.69D-01 WtEn= 6.31D-01
 Coeff-Com:  0.588D+00 0.412D+00
 Coeff-En:   0.000D+00 0.100D+01
 Coeff:      0.217D+00 0.783D+00
 Gap=     0.184 Goal=   None    Shift=    0.000
 RMSDP=4.06D-05 MaxDP=1.43D-03 DE=-1.28D-04 OVMax= 6.74D-03

 Cycle   3  Pass 0  IDiag  1:
 E= -1199.74179729399     Delta-E=        0.000039253148 Rises=F Damp=F
 DIIS: error= 4.41D-04 at cycle   3 NSaved=   3.
 NSaved= 3 IEnMin= 2 EnMin= -1199.74183654713     IErMin= 2 ErrMin= 2.92D-04
 ErrMax= 4.41D-04  0.00D+00 EMaxC= 1.00D-01 BMatC= 1.47D-04 BMatP= 6.93D-05
 IDIUse=3 WtCom= 3.23D-01 WtEn= 6.77D-01
 Coeff-Com: -0.817D-01 0.589D+00 0.493D+00
 Coeff-En:   0.000D+00 0.582D+00 0.418D+00
 Coeff:     -0.264D-01 0.584D+00 0.442D+00
 Gap=     0.182 Goal=   None    Shift=    0.000
 RMSDP=3.25D-05 MaxDP=1.35D-03 DE= 3.93D-05 OVMax= 9.65D-03

 Cycle   4  Pass 0  IDiag  1:
 E= -1199.74194156580     Delta-E=       -0.000144271818 Rises=F Damp=F
 DIIS: error= 9.77D-05 at cycle   4 NSaved=   4.
 NSaved= 4 IEnMin= 4 EnMin= -1199.74194156580     IErMin= 4 ErrMin= 9.77D-05
 ErrMax= 9.77D-05  0.00D+00 EMaxC= 1.00D-01 BMatC= 6.94D-06 BMatP= 6.93D-05
 IDIUse=1 WtCom= 1.00D+00 WtEn= 0.00D+00
 Coeff-Com: -0.434D-01 0.374D-01 0.186D+00 0.820D+00
 Coeff:     -0.434D-01 0.374D-01 0.186D+00 0.820D+00
 Gap=     0.182 Goal=   None    Shift=    0.000
 RMSDP=1.29D-05 MaxDP=4.80D-04 DE=-1.44D-04 OVMax= 3.57D-03

 Cycle   5  Pass 0  IDiag  1:
 E= -1199.74195306988     Delta-E=       -0.000011504073 Rises=F Damp=F
 DIIS: error= 1.11D-04 at cycle   5 NSaved=   5.
 NSaved= 5 IEnMin= 5 EnMin= -1199.74195306988     IErMin= 4 ErrMin= 9.77D-05
 ErrMax= 1.11D-04  0.00D+00 EMaxC= 1.00D-01 BMatC= 6.87D-06 BMatP= 6.94D-06
 IDIUse=3 WtCom= 9.99D-01 WtEn= 1.11D-03
 Coeff-Com:  0.210D-01-0.396D+00-0.799D-01 0.801D+00 0.654D+00
 Coeff-En:   0.000D+00 0.000D+00 0.000D+00 0.000D+00 0.100D+01
 Coeff:      0.209D-01-0.396D+00-0.798D-01 0.800D+00 0.655D+00
 Gap=     0.182 Goal=   None    Shift=    0.000
 RMSDP=1.16D-05 MaxDP=4.56D-04 DE=-1.15D-05 OVMax= 2.80D-03

 Cycle   6  Pass 0  IDiag  1:
 E= -1199.74196324592     Delta-E=       -0.000010176046 Rises=F Damp=F
 DIIS: error= 3.36D-05 at cycle   6 NSaved=   6.
 NSaved= 6 IEnMin= 6 EnMin= -1199.74196324592     IErMin= 6 ErrMin= 3.36D-05
 ErrMax= 3.36D-05  0.00D+00 EMaxC= 1.00D-01 BMatC= 9.45D-07 BMatP= 6.87D-06
 IDIUse=1 WtCom= 1.00D+00 WtEn= 0.00D+00
 Coeff-Com:  0.350D-01-0.262D+00-0.906D-01 0.170D+00 0.247D+00 0.901D+00
 Coeff:      0.350D-01-0.262D+00-0.906D-01 0.170D+00 0.247D+00 0.901D+00
 Gap=     0.183 Goal=   None    Shift=    0.000
 RMSDP=7.81D-06 MaxDP=3.00D-04 DE=-1.02D-05 OVMax= 1.97D-03

 Initial convergence to 1.0D-05 achieved.  Increase integral accuracy.
 Cycle   7  Pass 1  IDiag  1:
 E= -1199.74197499527     Delta-E=       -0.000011749347 Rises=F Damp=F
 DIIS: error= 3.34D-05 at cycle   1 NSaved=   1.
 NSaved= 1 IEnMin= 1 EnMin= -1199.74197499527     IErMin= 1 ErrMin= 3.34D-05
 ErrMax= 3.34D-05  0.00D+00 EMaxC= 1.00D-01 BMatC= 1.00D-06 BMatP= 1.00D-06
 IDIUse=1 WtCom= 1.00D+00 WtEn= 0.00D+00
 Coeff-Com:  0.100D+01
 Coeff:      0.100D+01
 Gap=     0.183 Goal=   None    Shift=    0.000
 RMSDP=7.81D-06 MaxDP=3.00D-04 DE=-1.17D-05 OVMax= 2.47D-04

 Cycle   8  Pass 1  IDiag  1:
 E= -1199.74197568865     Delta-E=       -0.000000693378 Rises=F Damp=F
 DIIS: error= 1.44D-05 at cycle   2 NSaved=   2.
 NSaved= 2 IEnMin= 2 EnMin= -1199.74197568865     IErMin= 2 ErrMin= 1.44D-05
 ErrMax= 1.44D-05  0.00D+00 EMaxC= 1.00D-01 BMatC= 2.72D-07 BMatP= 1.00D-06
 IDIUse=1 WtCom= 1.00D+00 WtEn= 0.00D+00
 Coeff-Com:  0.241D+00 0.759D+00
 Coeff:      0.241D+00 0.759D+00
 Gap=     0.183 Goal=   None    Shift=    0.000
 RMSDP=2.17D-06 MaxDP=1.31D-04 DE=-6.93D-07 OVMax= 3.79D-04

 Cycle   9  Pass 1  IDiag  1:
 E= -1199.74197560714     Delta-E=        0.000000081511 Rises=F Damp=F
 DIIS: error= 2.46D-05 at cycle   3 NSaved=   3.
 NSaved= 3 IEnMin= 2 EnMin= -1199.74197568865     IErMin= 2 ErrMin= 1.44D-05
 ErrMax= 2.46D-05  0.00D+00 EMaxC= 1.00D-01 BMatC= 4.69D-07 BMatP= 2.72D-07
 IDIUse=1 WtCom= 1.00D+00 WtEn= 0.00D+00
 Coeff-Com: -0.339D-01 0.584D+00 0.450D+00
 Coeff:     -0.339D-01 0.584D+00 0.450D+00
 Gap=     0.183 Goal=   None    Shift=    0.000
 RMSDP=1.07D-06 MaxDP=7.33D-05 DE= 8.15D-08 OVMax= 1.36D-04

 Cycle  10  Pass 1  IDiag  1:
 E= -1199.74197594081     Delta-E=       -0.000000333674 Rises=F Damp=F
 DIIS: error= 3.54D-06 at cycle   4 NSaved=   4.
 NSaved= 4 IEnMin= 4 EnMin= -1199.74197594081     IErMin= 4 ErrMin= 3.54D-06
 ErrMax= 3.54D-06  0.00D+00 EMaxC= 1.00D-01 BMatC= 1.61D-08 BMatP= 2.72D-07
 IDIUse=1 WtCom= 1.00D+00 WtEn= 0.00D+00
 Coeff-Com: -0.337D-01 0.280D+00 0.223D+00 0.531D+00
 Coeff:     -0.337D-01 0.280D+00 0.223D+00 0.531D+00
 Gap=     0.183 Goal=   None    Shift=    0.000
 RMSDP=3.34D-07 MaxDP=1.62D-05 DE=-3.34D-07 OVMax= 6.20D-05

 Cycle  11  Pass 1  IDiag  1:
 E= -1199.74197595832     Delta-E=       -0.000000017510 Rises=F Damp=F
 DIIS: error= 2.37D-06 at cycle   5 NSaved=   5.
 NSaved= 5 IEnMin= 5 EnMin= -1199.74197595832     IErMin= 5 ErrMin= 2.37D-06
 ErrMax= 2.37D-06  0.00D+00 EMaxC= 1.00D-01 BMatC= 4.72D-09 BMatP= 1.61D-08
 IDIUse=1 WtCom= 1.00D+00 WtEn= 0.00D+00
 Coeff-Com:  0.356D-02-0.905D-01-0.122D+00 0.223D+00 0.986D+00
 Coeff:      0.356D-02-0.905D-01-0.122D+00 0.223D+00 0.986D+00
 Gap=     0.183 Goal=   None    Shift=    0.000
 RMSDP=4.46D-07 MaxDP=1.77D-05 DE=-1.75D-08 OVMax= 1.28D-04

 Cycle  12  Pass 1  IDiag  1:
 E= -1199.74197597051     Delta-E=       -0.000000012184 Rises=F Damp=F
 DIIS: error= 2.10D-06 at cycle   6 NSaved=   6.
 NSaved= 6 IEnMin= 6 EnMin= -1199.74197597051     IErMin= 6 ErrMin= 2.10D-06
 ErrMax= 2.10D-06  0.00D+00 EMaxC= 1.00D-01 BMatC= 4.12D-09 BMatP= 4.72D-09
 IDIUse=1 WtCom= 1.00D+00 WtEn= 0.00D+00
 Coeff-Com:  0.119D-01-0.153D+00-0.178D+00 0.671D-01 0.854D+00 0.397D+00
 Coeff:      0.119D-01-0.153D+00-0.178D+00 0.671D-01 0.854D+00 0.397D+00
 Gap=     0.183 Goal=   None    Shift=    0.000
 RMSDP=1.79D-07 MaxDP=8.23D-06 DE=-1.22D-08 OVMax= 3.23D-05

 Cycle  13  Pass 1  IDiag  1:
 E= -1199.74197597610     Delta-E=       -0.000000005593 Rises=F Damp=F
 DIIS: error= 8.81D-07 at cycle   7 NSaved=   7.
 NSaved= 7 IEnMin= 7 EnMin= -1199.74197597610     IErMin= 7 ErrMin= 8.81D-07
 ErrMax= 8.81D-07  0.00D+00 EMaxC= 1.00D-01 BMatC= 5.78D-10 BMatP= 4.12D-09
 IDIUse=1 WtCom= 1.00D+00 WtEn= 0.00D+00
 Coeff-Com:  0.475D-02-0.348D-01-0.499D-01-0.675D-01-0.598D-01-0.179D+00
 Coeff-Com:  0.139D+01
 Coeff:      0.475D-02-0.348D-01-0.499D-01-0.675D-01-0.598D-01-0.179D+00
 Coeff:      0.139D+01
 Gap=     0.183 Goal=   None    Shift=    0.000
 RMSDP=2.79D-07 MaxDP=1.09D-05 DE=-5.59D-09 OVMax= 7.15D-05

 Cycle  14  Pass 1  IDiag  1:
 E= -1199.74197597880     Delta-E=       -0.000000002703 Rises=F Damp=F
 DIIS: error= 4.94D-07 at cycle   8 NSaved=   8.
 NSaved= 8 IEnMin= 8 EnMin= -1199.74197597880     IErMin= 8 ErrMin= 4.94D-07
 ErrMax= 4.94D-07  0.00D+00 EMaxC= 1.00D-01 BMatC= 1.58D-10 BMatP= 5.78D-10
 IDIUse=1 WtCom= 1.00D+00 WtEn= 0.00D+00
 Coeff-Com: -0.153D-03 0.157D-01 0.982D-02-0.304D-01-0.181D+00-0.262D+00
 Coeff-Com:  0.656D+00 0.792D+00
 Coeff:     -0.153D-03 0.157D-01 0.982D-02-0.304D-01-0.181D+00-0.262D+00
 Coeff:      0.656D+00 0.792D+00
 Gap=     0.183 Goal=   None    Shift=    0.000
 RMSDP=8.98D-08 MaxDP=3.45D-06 DE=-2.70D-09 OVMax= 2.13D-05

 Cycle  15  Pass 1  IDiag  1:
 E= -1199.74197597913     Delta-E=       -0.000000000324 Rises=F Damp=F
 DIIS: error= 7.44D-08 at cycle   9 NSaved=   9.
 NSaved= 9 IEnMin= 9 EnMin= -1199.74197597913     IErMin= 9 ErrMin= 7.44D-08
 ErrMax= 7.44D-08  0.00D+00 EMaxC= 1.00D-01 BMatC= 1.03D-11 BMatP= 1.58D-10
 IDIUse=1 WtCom= 1.00D+00 WtEn= 0.00D+00
 Coeff-Com: -0.679D-03 0.101D-01 0.884D-02 0.381D-02-0.441D-01-0.914D-01
 Coeff-Com:  0.604D-01 0.249D+00 0.804D+00
 Coeff:     -0.679D-03 0.101D-01 0.884D-02 0.381D-02-0.441D-01-0.914D-01
 Coeff:      0.604D-01 0.249D+00 0.804D+00
 Gap=     0.183 Goal=   None    Shift=    0.000
 RMSDP=1.61D-08 MaxDP=4.56D-07 DE=-3.24D-10 OVMax= 3.41D-06

 Cycle  16  Pass 1  IDiag  1:
 E= -1199.74197597914     Delta-E=       -0.000000000015 Rises=F Damp=F
 DIIS: error= 3.54D-08 at cycle  10 NSaved=  10.
 NSaved=10 IEnMin=10 EnMin= -1199.74197597914     IErMin=10 ErrMin= 3.54D-08
 ErrMax= 3.54D-08  0.00D+00 EMaxC= 1.00D-01 BMatC= 1.21D-12 BMatP= 1.03D-11
 IDIUse=1 WtCom= 1.00D+00 WtEn= 0.00D+00
 Coeff-Com: -0.157D-03 0.103D-02 0.111D-02 0.512D-02 0.988D-02-0.227D-02
 Coeff-Com: -0.521D-01-0.339D-01 0.198D+00 0.874D+00
 Coeff:     -0.157D-03 0.103D-02 0.111D-02 0.512D-02 0.988D-02-0.227D-02
 Coeff:     -0.521D-01-0.339D-01 0.198D+00 0.874D+00
 Gap=     0.183 Goal=   None    Shift=    0.000
 RMSDP=6.19D-09 MaxDP=2.48D-07 DE=-1.55D-11 OVMax= 1.21D-06

 SCF Done:  E(RM062X) =  -1199.74197598     A.U. after   16 cycles
            NFock= 16  Conv=0.62D-08     -V/T= 2.0029
 KE= 1.196328489679D+03 PE=-4.664897663876D+03 EE= 1.359922530431D+03
 Leave Link  502 at Sat May 24 04:25:01 2025, MaxMem=  3758096384 cpu:             181.2 elap:              46.0
 (Enter /apps/easybuild-2022/easybuild/software/Compiler/NVHPC/22.11-CUDA-11.7.0/Gaussian/g16c01-CUDA-11.7.0/g16/l508.exe)
 QCSCF skips out because SCF is already converged.
 Leave Link  508 at Sat May 24 04:25:01 2025, MaxMem=  3758096384 cpu:               0.0 elap:               0.0
 (Enter /apps/easybuild-2022/easybuild/software/Compiler/NVHPC/22.11-CUDA-11.7.0/Gaussian/g16c01-CUDA-11.7.0/g16/l801.exe)
 DoSCS=F DFT=T ScalE2(SS,OS)=  1.000000  1.000000
 Range of M.O.s used for correlation:     1   366
 NBasis=   366 NAE=    49 NBE=    49 NFC=     0 NFV=     0
 NROrb=    366 NOA=    49 NOB=    49 NVA=   317 NVB=   317

 **** Warning!!: The largest alpha MO coefficient is  0.17159316D+02

 Leave Link  801 at Sat May 24 04:25:01 2025, MaxMem=  3758096384 cpu:               0.0 elap:               0.0
 (Enter /apps/easybuild-2022/easybuild/software/Compiler/NVHPC/22.11-CUDA-11.7.0/Gaussian/g16c01-CUDA-11.7.0/g16/l1101.exe)
 Leave Link 1101 at Sat May 24 04:25:01 2025, MaxMem=  3758096384 cpu:               0.0 elap:               0.0
 (Enter /apps/easybuild-2022/easybuild/software/Compiler/NVHPC/22.11-CUDA-11.7.0/Gaussian/g16c01-CUDA-11.7.0/g16/l1102.exe)
 Symmetrizing basis deriv contribution to polar:
 IMax=3 JMax=2 DiffMx= 0.00D+00
 Leave Link 1102 at Sat May 24 04:25:01 2025, MaxMem=  3758096384 cpu:               0.1 elap:               0.0
 (Enter /apps/easybuild-2022/easybuild/software/Compiler/NVHPC/22.11-CUDA-11.7.0/Gaussian/g16c01-CUDA-11.7.0/g16/l1110.exe)
 Leave Link 1110 at Sat May 24 04:25:01 2025, MaxMem=  3758096384 cpu:               0.0 elap:               0.0
 (Enter /apps/easybuild-2022/easybuild/software/Compiler/NVHPC/22.11-CUDA-11.7.0/Gaussian/g16c01-CUDA-11.7.0/g16/l1002.exe)
 Minotr:  Closed shell wavefunction.
 Leave Link 1002 at Sat May 24 04:25:01 2025, MaxMem=  3758096384 cpu:               0.0 elap:               0.0
 (Enter /apps/easybuild-2022/easybuild/software/Compiler/NVHPC/22.11-CUDA-11.7.0/Gaussian/g16c01-CUDA-11.7.0/g16/l701.exe)
 ... and contract with generalized density number  0.
 Compute integral first derivatives.
   1 Symmetry operations used in ECPInt.
 ECPInt:  NShTT=    8515 NPrTT=   27988 LenC2=    7969 LenP2D=   19334.
 LDataN:  DoStor=T MaxTD1= 7 Len=  274
 Leave Link  701 at Sat May 24 04:25:01 2025, MaxMem=  3758096384 cpu:               0.5 elap:               0.1
 (Enter /apps/easybuild-2022/easybuild/software/Compiler/NVHPC/22.11-CUDA-11.7.0/Gaussian/g16c01-CUDA-11.7.0/g16/l702.exe)
 L702 exits ... SP integral derivatives will be done elsewhere.
 Leave Link  702 at Sat May 24 04:25:01 2025, MaxMem=  3758096384 cpu:               0.0 elap:               0.0
 (Enter /apps/easybuild-2022/easybuild/software/Compiler/NVHPC/22.11-CUDA-11.7.0/Gaussian/g16c01-CUDA-11.7.0/g16/l703.exe)
[...]
 DIIS: error= 4.86D-06 at cycle   4 NSaved=   4.
 NSaved= 4 IEnMin= 4 EnMin= -1199.88707097359     IErMin= 4 ErrMin= 4.86D-06
 ErrMax= 4.86D-06  0.00D+00 EMaxC= 1.00D-01 BMatC= 2.83D-08 BMatP= 9.67D-08
 IDIUse=1 WtCom= 1.00D+00 WtEn= 0.00D+00
 Coeff-Com: -0.283D-01 0.428D-01 0.470D+00 0.515D+00
 Coeff:     -0.283D-01 0.428D-01 0.470D+00 0.515D+00
 Gap=     0.331 Goal=   None    Shift=    0.000
 RMSDP=2.98D-07 MaxDP=1.53D-05 DE=-5.57D-08 OVMax= 3.17D-05

 Cycle   7  Pass 1  IDiag  1:
 E= -1199.88707099386     Delta-E=       -0.000000020276 Rises=F Damp=F
 DIIS: error= 1.02D-06 at cycle   5 NSaved=   5.
 NSaved= 5 IEnMin= 5 EnMin= -1199.88707099386     IErMin= 5 ErrMin= 1.02D-06
 ErrMax= 1.02D-06  0.00D+00 EMaxC= 1.00D-01 BMatC= 3.93D-10 BMatP= 2.83D-08
 IDIUse=1 WtCom= 1.00D+00 WtEn= 0.00D+00
 Coeff-Com: -0.373D-02-0.399D-02-0.796D-02 0.639D-01 0.952D+00
 Coeff:     -0.373D-02-0.399D-02-0.796D-02 0.639D-01 0.952D+00
 Gap=     0.331 Goal=   None    Shift=    0.000
 RMSDP=9.41D-08 MaxDP=4.10D-06 DE=-2.03D-08 OVMax= 1.48D-05

 Cycle   8  Pass 1  IDiag  1:
 E= -1199.88707099446     Delta-E=       -0.000000000599 Rises=F Damp=F
 DIIS: error= 4.84D-07 at cycle   6 NSaved=   6.
 NSaved= 6 IEnMin= 6 EnMin= -1199.88707099446     IErMin= 6 ErrMin= 4.84D-07
 ErrMax= 4.84D-07  0.00D+00 EMaxC= 1.00D-01 BMatC= 1.18D-10 BMatP= 3.93D-10
 IDIUse=1 WtCom= 1.00D+00 WtEn= 0.00D+00
 Coeff-Com:  0.280D-02-0.835D-02-0.739D-01-0.468D-01 0.388D+00 0.738D+00
 Coeff:      0.280D-02-0.835D-02-0.739D-01-0.468D-01 0.388D+00 0.738D+00
 Gap=     0.331 Goal=   None    Shift=    0.000
 RMSDP=3.76D-08 MaxDP=1.48D-06 DE=-5.99D-10 OVMax= 6.83D-06

 Cycle   9  Pass 1  IDiag  1:
 E= -1199.88707099476     Delta-E=       -0.000000000299 Rises=F Damp=F
 DIIS: error= 1.24D-07 at cycle   7 NSaved=   7.
 NSaved= 7 IEnMin= 7 EnMin= -1199.88707099476     IErMin= 7 ErrMin= 1.24D-07
 ErrMax= 1.24D-07  0.00D+00 EMaxC= 1.00D-01 BMatC= 1.49D-11 BMatP= 1.18D-10
 IDIUse=1 WtCom= 1.00D+00 WtEn= 0.00D+00
 Coeff-Com:  0.147D-02-0.278D-02-0.279D-01-0.252D-01 0.376D-01 0.284D+00
 Coeff-Com:  0.733D+00
 Coeff:      0.147D-02-0.278D-02-0.279D-01-0.252D-01 0.376D-01 0.284D+00
 Coeff:      0.733D+00
 Gap=     0.331 Goal=   None    Shift=    0.000
 RMSDP=1.43D-08 MaxDP=4.45D-07 DE=-2.99D-10 OVMax= 2.52D-06

 Cycle  10  Pass 1  IDiag  1:
 E= -1199.88707099472     Delta-E=        0.000000000045 Rises=F Damp=F
 DIIS: error= 7.35D-08 at cycle   8 NSaved=   8.
 NSaved= 8 IEnMin= 7 EnMin= -1199.88707099476     IErMin= 8 ErrMin= 7.35D-08
 ErrMax= 7.35D-08  0.00D+00 EMaxC= 1.00D-01 BMatC= 3.09D-12 BMatP= 1.49D-11
 IDIUse=1 WtCom= 1.00D+00 WtEn= 0.00D+00
 Coeff-Com:  0.229D-04 0.659D-03 0.394D-02-0.504D-03-0.659D-01-0.338D-01
 Coeff-Com:  0.321D+00 0.775D+00
 Coeff:      0.229D-04 0.659D-03 0.394D-02-0.504D-03-0.659D-01-0.338D-01
 Coeff:      0.321D+00 0.775D+00
 Gap=     0.331 Goal=   None    Shift=    0.000
 RMSDP=6.83D-09 MaxDP=2.27D-07 DE= 4.55D-11 OVMax= 1.26D-06

 SCF Done:  E(RM062X) =  -1199.88707099     A.U. after   10 cycles
            NFock= 10  Conv=0.68D-08     -V/T= 2.0030
 KE= 1.196317090973D+03 PE=-4.681511344458D+03 EE= 1.367830119124D+03
 Leave Link  502 at Sat May 24 05:50:18 2025, MaxMem=  3758096384 cpu:             138.6 elap:              31.3
 (Enter /apps/easybuild-2022/easybuild/software/Compiler/NVHPC/22.11-CUDA-11.7.0/Gaussian/g16c01-CUDA-11.7.0/g16/l508.exe)
 QCSCF skips out because SCF is already converged.
 Leave Link  508 at Sat May 24 05:50:18 2025, MaxMem=  3758096384 cpu:               0.0 elap:               0.0
 (Enter /apps/easybuild-2022/easybuild/software/Compiler/NVHPC/22.11-CUDA-11.7.0/Gaussian/g16c01-CUDA-11.7.0/g16/l801.exe)
 DoSCS=F DFT=T ScalE2(SS,OS)=  1.000000  1.000000
 Range of M.O.s used for correlation:     1   366
 NBasis=   366 NAE=    49 NBE=    49 NFC=     0 NFV=     0
 NROrb=    366 NOA=    49 NOB=    49 NVA=   317 NVB=   317

 **** Warning!!: The largest alpha MO coefficient is  0.14203399D+02

 Leave Link  801 at Sat May 24 05:50:18 2025, MaxMem=  3758096384 cpu:               0.0 elap:               0.0
 (Enter /apps/easybuild-2022/easybuild/software/Compiler/NVHPC/22.11-CUDA-11.7.0/Gaussian/g16c01-CUDA-11.7.0/g16/l1101.exe)
 Leave Link 1101 at Sat May 24 05:50:18 2025, MaxMem=  3758096384 cpu:               0.0 elap:               0.0
 (Enter /apps/easybuild-2022/easybuild/software/Compiler/NVHPC/22.11-CUDA-11.7.0/Gaussian/g16c01-CUDA-11.7.0/g16/l1102.exe)
 Symmetrizing basis deriv contribution to polar:
 IMax=3 JMax=2 DiffMx= 0.00D+00
 Leave Link 1102 at Sat May 24 05:50:18 2025, MaxMem=  3758096384 cpu:               0.1 elap:               0.0
 (Enter /apps/easybuild-2022/easybuild/software/Compiler/NVHPC/22.11-CUDA-11.7.0/Gaussian/g16c01-CUDA-11.7.0/g16/l1110.exe)
 Leave Link 1110 at Sat May 24 05:50:18 2025, MaxMem=  3758096384 cpu:               0.0 elap:               0.0
 (Enter /apps/easybuild-2022/easybuild/software/Compiler/NVHPC/22.11-CUDA-11.7.0/Gaussian/g16c01-CUDA-11.7.0/g16/l1002.exe)
 Minotr:  Closed shell wavefunction.
 Leave Link 1002 at Sat May 24 05:50:18 2025, MaxMem=  3758096384 cpu:               0.0 elap:               0.0
 (Enter /apps/easybuild-2022/easybuild/software/Compiler/NVHPC/22.11-CUDA-11.7.0/Gaussian/g16c01-CUDA-11.7.0/g16/l701.exe)
 ... and contract with generalized density number  0.
 Compute integral first derivatives.
   1 Symmetry operations used in ECPInt.
 ECPInt:  NShTT=    8515 NPrTT=   27988 LenC2=    7981 LenP2D=   19361.
 LDataN:  DoStor=T MaxTD1= 7 Len=  274
 Leave Link  701 at Sat May 24 05:50:18 2025, MaxMem=  3758096384 cpu:               0.5 elap:               0.1
 (Enter /apps/easybuild-2022/easybuild/software/Compiler/NVHPC/22.11-CUDA-11.7.0/Gaussian/g16c01-CUDA-11.7.0/g16/l702.exe)
 L702 exits ... SP integral derivatives will be done elsewhere.
 Leave Link  702 at Sat May 24 05:50:18 2025, MaxMem=  3758096384 cpu:               0.0 elap:               0.0
 (Enter /apps/easybuild-2022/easybuild/software/Compiler/NVHPC/22.11-CUDA-11.7.0/Gaussian/g16c01-CUDA-11.7.0/g16/l703.exe)
 Integral derivatives from FoFJK, PRISM(SPDF).
 Compute integral first derivatives, UseDBF=F ICtDFT=           0.
 Calling FoFJK, ICntrl=      2127 FMM=F ISym2X=0 I1Cent= 0 IOpClX= 0 NMat=1 NMatS=1 NMatT=0.
 FoFJK:  IHMeth= 1 ICntrl=    2127 DoSepK=F KAlg= 0 I1Cent=           0 FoldK=F
 IRaf=         0 NMat=       1 IRICut=       1 DoRegI=T DoRafI=F ISym2E= 0 IDoP0=0 IntGTp=1.
 FoFCou: FMM=F IPFlag=           0 FMFlag=      100000 FMFlg1=         800
         NFxFlg=           0 DoJE=F BraDBF=F KetDBF=F FulRan=T
         wScrn=  0.000000 ICntrl=      2127 IOpCl=  0 I1Cent=           0 NGrid=           0
         NMat0=    1 NMatS0=      1 NMatT0=    0 NMatD0=    1 NMtDS0=    0 NMtDT0=    0
 Symmetry not used in FoFCou.
 Leave Link  703 at Sat May 24 05:50:31 2025, MaxMem=  3758096384 cpu:             100.3 elap:              12.7
 (Enter /apps/easybuild-2022/easybuild/software/Compiler/NVHPC/22.11-CUDA-11.7.0/Gaussian/g16c01-CUDA-11.7.0/g16/l716.exe)
 Dipole        = 1.18284493D-01 8.25114393D-01 4.87249422D-01
 Polarizability= 0.00000000D+00 0.00000000D+00 0.00000000D+00
                 0.00000000D+00 0.00000000D+00 0.00000000D+00
 -------------------------------------------------------------------
 Center     Atomic                   Forces (Hartrees/Bohr)
 Number     Number              X              Y              Z
 -------------------------------------------------------------------
      1        6           0.001114171    0.001890622   -0.001531637
      2        6           0.004056114   -0.000101298   -0.000373043
      3        9           0.005431987    0.002607126   -0.002366642
      4        9           0.005846799    0.001787890   -0.003173659
      5       16          -0.009221408   -0.014728811    0.013293435
      6        8           0.013850674   -0.007169046    0.009834396
      7        8          -0.025872213    0.012779241   -0.013142878
      8        8          -0.000053201   -0.007957600    0.005924520
      9        9          -0.000234767    0.002254697   -0.002398692
     10        9           0.002538079    0.001308782   -0.001976044
     11        9           0.002677195    0.006480996   -0.003363480
     12        1          -0.000133430    0.000847400   -0.000726276
 -------------------------------------------------------------------
 Cartesian Forces:  Max     0.025872213 RMS     0.007674456
 Leave Link  716 at Sat May 24 05:50:31 2025, MaxMem=  3758096384 cpu:               0.0 elap:               0.0
 (Enter /apps/easybuild-2022/easybuild/software/Compiler/NVHPC/22.11-CUDA-11.7.0/Gaussian/g16c01-CUDA-11.7.0/g16/l123.exe)
 IRC-IRC-IRC-IRC-IRC-IRC-IRC-IRC-IRC-IRC-IRC-IRC-IRC-IRC-IRC-IRC-IRC-IRC
 Pt100 Step number   1 out of a maximum of  20
 Using modified Bulirsch-Stoer corrector integration.
   Using distance weighted interpolants to fit PES.
 PreDWI: IReCr0= 2 IReCr1= 1 IReCr2= 1 IReCr3= 1
 Modified Bulirsch-Stoer Extrapolation Cycles:
    EPS =    0.000010000000000
    Cycle     1 NS=    48
      PEZero:  N= 2 I= 1 D=  4.43D-04 Err=  2.92D-06
    Cycle     2 NS=    64 Truncation Error =  0.000002918
 BS completed in    2 cycles and     112 integration steps.
 Maximum DWI energy   std dev =  0.000000012 at pt    47
 Maximum DWI gradient std dev =  0.001454427 at pt    29
 SUMMARY OF CORRECTOR INTEGRATION:
   Predictor End Point Energy = -1199.887071
   Old End Point Energy       = -1199.887071
   Corrected End Point Energy = -1199.887071
   Predictor End-Start Dist.  =     0.085048
   Old End-Start Dist.        =     0.085048
   New End-Start Dist.        =     0.085047
   New End-Old End Dist.      =     0.000086
 CORRECTOR INTEGRATION CONVERGENCE:
   Recorrection delta-x convergence threshold:    0.010000
   Delta-x Convergence Met
 Point Number: 100          Path Number:   1
                    CURRENT STRUCTURE
                Cartesian Coordinates (Ang):                
 ---------------------------------------------------------------------
 Center     Atomic                     Coordinates (Angstroms)
 Number     Number                        X           Y           Z
 ---------------------------------------------------------------------
      1          6                   -1.103575   -0.676311    0.639849
      2          6                   -0.581044    0.380313   -0.452313
      3          9                   -1.040766   -0.028135   -1.622423
      4          9                   -1.115518    1.548327   -0.139784
      5         16                    1.448215    0.363640   -0.456046
      6          8                    1.384903   -1.054144   -0.337896
      7          8                    2.617482    0.843012   -1.142657
      8          8                    1.425515    1.229291    0.872871
      9          9                   -0.853102   -1.929421    0.336136
     10          9                   -0.625755   -0.401965    1.840930
     11          9                   -2.431359   -0.549511    0.686653
     12          1                    2.329651    1.481882    1.113818
 ---------------------------------------------------------------------
   CHANGE IN THE REACTION COORDINATE =    0.08505
   NET REACTION COORDINATE UP TO THIS POINT =    8.50445
  # OF POINTS ALONG THE PATH = 100
  # OF STEPS =   1

 Maximum number of steps reached.
 Calculation of FORWARD path complete.
 Reaction path calculation complete.
 
 Energies reported relative to the TS energy of       -1199.740889
 --------------------------------------------------------------------------
    Summary of reaction path following
 --------------------------------------------------------------------------
                        Energy    RxCoord
   1                    0.00000   0.00000
   2                   -0.00012   0.08506
   3                   -0.00049   0.17010
   4                   -0.00109   0.25514
   5                   -0.00192   0.34018
   6                   -0.00297   0.42523
   7                   -0.00422   0.51027
   8                   -0.00567   0.59532
   9                   -0.00730   0.68036
  10                   -0.00909   0.76541
  11                   -0.01103   0.85046
  12                   -0.01309   0.93550
  13                   -0.01527   1.02055
  14                   -0.01755   1.10560
  15                   -0.01990   1.19064
  16                   -0.02233   1.27569
  17                   -0.02481   1.36074
  18                   -0.02733   1.44578
  19                   -0.02988   1.53083
  20                   -0.03245   1.61588
  21                   -0.03502   1.70093
  22                   -0.03760   1.78597
  23                   -0.04016   1.87102
  24                   -0.04270   1.95607
  25                   -0.04521   2.04112
  26                   -0.04770   2.12616
  27                   -0.05014   2.21121
  28                   -0.05254   2.29626
  29                   -0.05489   2.38130
  30                   -0.05720   2.46635
  31                   -0.05944   2.55140
  32                   -0.06163   2.63644
  33                   -0.06376   2.72149
  34                   -0.06583   2.80654
  35                   -0.06784   2.89158
  36                   -0.06979   2.97663
  37                   -0.07167   3.06167
  38                   -0.07349   3.14672
  39                   -0.07524   3.23176
  40                   -0.07694   3.31680
  41                   -0.07857   3.40184
  42                   -0.08015   3.48688
  43                   -0.08167   3.57192
  44                   -0.08315   3.65696
  45                   -0.08457   3.74200
  46                   -0.08595   3.82703
  47                   -0.08728   3.91207
  48                   -0.08858   3.99710
  49                   -0.08985   4.08214
  50                   -0.09110   4.16717
  51                   -0.09232   4.25220
  52                   -0.09352   4.33724
  53                   -0.09470   4.42227
  54                   -0.09588   4.50731
  55                   -0.09704   4.59234
  56                   -0.09820   4.67738
  57                   -0.09936   4.76242
  58                   -0.10051   4.84746
  59                   -0.10166   4.93250
  60                   -0.10280   5.01755
  61                   -0.10395   5.10259
  62                   -0.10509   5.18763
  63                   -0.10624   5.27268
  64                   -0.10738   5.35772
  65                   -0.10852   5.44277
  66                   -0.10966   5.52781
  67                   -0.11079   5.61286
  68                   -0.11193   5.69790
  69                   -0.11306   5.78295
  70                   -0.11419   5.86800
  71                   -0.11532   5.95304
  72                   -0.11644   6.03809
  73                   -0.11755   6.12313
  74                   -0.11867   6.20818
  75                   -0.11977   6.29323
  76                   -0.12087   6.37827
  77                   -0.12197   6.46332
  78                   -0.12306   6.54837
  79                   -0.12414   6.63341
  80                   -0.12522   6.71846
  81                   -0.12629   6.80351
  82                   -0.12735   6.88855
  83                   -0.12841   6.97360
  84                   -0.12946   7.05865
  85                   -0.13050   7.14369
  86                   -0.13153   7.22874
  87                   -0.13256   7.31379
  88                   -0.13358   7.39884
  89                   -0.13459   7.48388
  90                   -0.13560   7.56893
  91                   -0.13660   7.65398
  92                   -0.13759   7.73902
  93                   -0.13857   7.82407
  94                   -0.13955   7.90912
  95                   -0.14052   7.99417
  96                   -0.14148   8.07921
  97                   -0.14244   8.16426
  98                   -0.14338   8.24931
  99                   -0.14432   8.33435
 100                   -0.14526   8.41940
 101                   -0.14618   8.50445
 --------------------------------------------------------------------------
 
 Total number of points:                  100
 Total number of gradient calculations:   100
 Total number of Hessian calculations:      0
 IRC-IRC-IRC-IRC-IRC-IRC-IRC-IRC-IRC-IRC-IRC-IRC-IRC-IRC-IRC-IRC-IRC-IRC
 Leave Link  123 at Sat May 24 05:50:31 2025, MaxMem=  3758096384 cpu:               0.1 elap:               0.0
 (Enter /apps/easybuild-2022/easybuild/software/Compiler/NVHPC/22.11-CUDA-11.7.0/Gaussian/g16c01-CUDA-11.7.0/g16/l202.exe)
                          Input orientation:                          
 ---------------------------------------------------------------------
 Center     Atomic      Atomic             Coordinates (Angstroms)
 Number     Number       Type             X           Y           Z
 ---------------------------------------------------------------------
      1          6           0       -1.103574   -0.676311    0.639849
      2          6           0       -0.581043    0.380314   -0.452313
      3          9           0       -1.040767   -0.028135   -1.622423
      4          9           0       -1.115518    1.548327   -0.139783
      5         16           0        1.448214    0.363640   -0.456045
      6          8           0        1.384902   -1.054147   -0.337895
      7          8           0        2.617485    0.843013   -1.142658
      8          8           0        1.425513    1.229290    0.872871
      9          9           0       -0.853102   -1.929422    0.336136
     10          9           0       -0.625755   -0.401965    1.840930
     11          9           0       -2.431359   -0.549511    0.686653
     12          1           0        2.329686    1.481899    1.113821
 ---------------------------------------------------------------------
                    Distance matrix (angstroms):
                    1          2          3          4          5
     1  C    0.000000
     2  C    1.606957   0.000000
     3  F    2.354135   1.321868   0.000000
     4  F    2.357325   1.321965   2.165419   0.000000
     5  S    2.965486   2.029329   2.776500   2.841870   0.000000
     6  O    2.700232   2.436330   2.930286   3.614445   1.424110
     7  O    4.396812   3.304731   3.791026   3.929190   1.438203
     8  O    3.175200   2.550125   3.726948   2.753922   1.586154
     9  F    1.313493   2.455717   2.736067   3.519957   3.343911
    10  F    1.321429   2.423411   3.508105   2.822540   3.188040
    11  F    1.334646   2.363363   2.745435   2.610624   4.146166
    12  H    4.082866   3.484050   4.596431   3.666792   2.119428
                    6          7          8          9         10
     6  O    0.000000
     7  O    2.401275   0.000000
     8  O    2.584896   2.373260   0.000000
     9  F    2.495813   4.681688   3.931619   0.000000
    10  F    3.035681   4.579342   2.793892   2.156204   0.000000
    11  F    3.983491   5.547641   4.251385   2.125538   2.148100
    12  H    3.071095   2.362774   0.969225   4.729909   3.579422
                   11         12
    11  F    0.000000
    12  H    5.193905   0.000000
 Symmetry turned off by external request.
 Stoichiometry    C2HF5O3S
 Rotational constants (GHZ):           1.6323718           0.7857812           0.7577370
 Leave Link  202 at Sat May 24 05:50:31 2025, MaxMem=  3758096384 cpu:               0.0 elap:               0.0
 (Enter /apps/easybuild-2022/easybuild/software/Compiler/NVHPC/22.11-CUDA-11.7.0/Gaussian/g16c01-CUDA-11.7.0/g16/l9999.exe)

 This type of calculation cannot be archived.


 ABOVE ALL I AM AN OPTIMIST FOR NUMBER THEORY,
 AND I HOLD THE HOPE THAT WE MAY NOT BE FAR FROM
 A TIME WHEN IRREFUTABLE ARITHMETIC WILL CELEBRATE
 ITS TRIUMPHS IN PHYSICS AND CHEMISTRY.
   -- HERMANN MINKOWSKI, 1905
 Job cpu time:       0 days  7 hours 32 minutes  9.7 seconds.
 Elapsed time:       0 days  1 hours 28 minutes  0.8 seconds.
 File lengths (MBytes):  RWF=     63 Int=      0 D2E=      0 Chk=     13 Scr=      1
 Normal termination of Gaussian 16 at Sat May 24 05:50:31 2025.
done
