 Entering Gaussian System, Link 0=g16
 Initial command:
 /apps/easybuild-2022/easybuild/software/Compiler/NVHPC/22.11-CUDA-11.7.0/Gaussian/g16c01-CUDA-11.7.0/g16/l1.exe "/tmp/Gau-11191.inp" -scrdir="/tmp/"
 Entering Link 1 = /apps/easybuild-2022/easybuild/software/Compiler/NVHPC/22.11-CUDA-11.7.0/Gaussian/g16c01-CUDA-11.7.0/g16/l1.exe PID=     11192.
  
 Copyright (c) 1988-2019, Gaussian, Inc.  All Rights Reserved.
  
 This is part of the Gaussian(R) 16 program.  It is based on
 the Gaussian(R) 09 system (copyright 2009, Gaussian, Inc.),
 the Gaussian(R) 03 system (copyright 2003, Gaussian, Inc.),
 the Gaussian(R) 98 system (copyright 1998, Gaussian, Inc.),
 the Gaussian(R) 94 system (copyright 1995, Gaussian, Inc.),
 the Gaussian 92(TM) system (copyright 1992, Gaussian, Inc.),
 the Gaussian 90(TM) system (copyright 1990, Gaussian, Inc.),
 the Gaussian 88(TM) system (copyright 1988, Gaussian, Inc.),
 the Gaussian 86(TM) system (copyright 1986, Carnegie Mellon
 University), and the Gaussian 82(TM) system (copyright 1983,
 Carnegie Mellon University). Gaussian is a federally registered
 trademark of Gaussian, Inc.
  
 This software contains proprietary and confidential information,
 including trade secrets, belonging to Gaussian, Inc.
  
 This software is provided under written license and may be
 used, copied, transmitted, or stored only in accord with that
 written license.
  
 The following legend is applicable only to US Government
 contracts under FAR:
  
                    RESTRICTED RIGHTS LEGEND
  
 Use, reproduction and disclosure by the US Government is
 subject to restrictions as set forth in subparagraphs (a)
 and (c) of the Commercial Computer Software - Restricted
 Rights clause in FAR 52.227-19.
  
 Gaussian, Inc.
 340 Quinnipiac St., Bldg. 40, Wallingford CT 06492
  
  
 ---------------------------------------------------------------
 Warning -- This program may not be used in any manner that
 competes with the business of Gaussian, Inc. or will provide
 assistance to any competitor of Gaussian, Inc.  The licensee
 of this program is prohibited from giving any competitor of
 Gaussian, Inc. access to this program.  By using this program,
 the user acknowledges that Gaussian, Inc. is engaged in the
 business of creating and licensing software in the field of
 computational chemistry and represents and warrants to the
 licensee that it is not a competitor of Gaussian, Inc. and that
 it will not use this program in any manner prohibited above.
 ---------------------------------------------------------------
  

 Cite this work as:
 Gaussian 16, Revision C.01,
 M. J. Frisch, G. W. Trucks, H. B. Schlegel, G. E. Scuseria, 
 M. A. Robb, J. R. Cheeseman, G. Scalmani, V. Barone, 
 G. A. Petersson, H. Nakatsuji, X. Li, M. Caricato, A. V. Marenich, 
 J. Bloino, B. G. Janesko, R. Gomperts, B. Mennucci, H. P. Hratchian, 
 J. V. Ortiz, A. F. Izmaylov, J. L. Sonnenberg, D. Williams-Young, 
 F. Ding, F. Lipparini, F. Egidi, J. Goings, B. Peng, A. Petrone, 
 T. Henderson, D. Ranasinghe, V. G. Zakrzewski, J. Gao, N. Rega, 
 G. Zheng, W. Liang, M. Hada, M. Ehara, K. Toyota, R. Fukuda, 
 J. Hasegawa, M. Ishida, T. Nakajima, Y. Honda, O. Kitao, H. Nakai, 
 T. Vreven, K. Throssell, J. A. Montgomery, Jr., J. E. Peralta, 
 F. Ogliaro, M. J. Bearpark, J. J. Heyd, E. N. Brothers, K. N. Kudin, 
 V. N. Staroverov, T. A. Keith, R. Kobayashi, J. Normand, 
 K. Raghavachari, A. P. Rendell, J. C. Burant, S. S. Iyengar, 
 J. Tomasi, M. Cossi, J. M. Millam, M. Klene, C. Adamo, R. Cammi, 
 J. W. Ochterski, R. L. Martin, K. Morokuma, O. Farkas, 
 J. B. Foresman, and D. J. Fox, Gaussian, Inc., Wallingford CT, 2019.
 
 ******************************************
 Gaussian 16:  ES64L-G16RevC.01  3-Jul-2019
                24-May-2025 
 ******************************************
 %mem=28GB
 %chk=2003846667223680600001_r12_insertion_R_6_5_2_IRC_F
 %nprocshared=8
 Will use up to    8 processors via shared memory.
 ----------------------------------------------------------------------
 #P M062X/Def2TZVPP Symm(None) scf(xqc) pop(None) geom(AllCheck,NoKeepC
 onstants) guess(Read) irc(RCFC,forward,MaxPoints=100,StepSize=2)
 ----------------------------------------------------------------------
 1/10=5,18=10,22=1,26=3,29=20007,38=1,39=2,42=100,44=3,172=1/1,23;
 2/12=2,15=3,29=1,40=1/2;
 3/5=44,7=202,11=2,14=-4,25=1,30=1,71=2,74=-55,116=-2,140=1/1,2,3;
 4/5=1/1;
 5/5=2,8=3,13=1,38=6/2,8;
 8/6=4,10=90,11=11/1;
 11/6=1,8=1,9=11,15=111,16=1,31=1/1,2,10;
 10/6=1,13=1,31=1/2;
 7/10=1,25=1,30=1/1,2,3,16;
 1/18=10,22=1,26=3,39=2,42=100,44=3/23(2);
 2/15=3,29=1/2;
 99/5=20/99;
 2/15=3,29=1/2;
 3/5=44,7=202,11=2,14=-2,25=1,30=1,71=2,74=-55,140=1/1,2,3;
 4/5=5,16=3,69=1/1;
 5/5=2,8=3,13=1,38=5/2,8;
 8/6=4,10=90,11=11/1;
 11/6=1,8=1,9=11,15=111,16=1,31=1/1,2,10;
 10/6=1,13=1,31=1/2;
 7/10=1,25=1,30=1/1,2,3,16;
 1/18=10,22=1,26=3,39=2,42=100,44=3/23(-8);
 2/15=3,29=1/2;
 99/5=20,9=1/99;
 Leave Link    1 at Sat May 24 04:02:44 2025, MaxMem=  3758096384 cpu:               0.1 elap:               0.1
 (Enter /apps/easybuild-2022/easybuild/software/Compiler/NVHPC/22.11-CUDA-11.7.0/Gaussian/g16c01-CUDA-11.7.0/g16/l101.exe)
 Structure from the checkpoint file:  "2003846667223680600001_r12_insertion_R_6_5_2_IRC_F.chk"
 ------------------------------
 Gaussian input prepared by ASE
 ------------------------------
 Charge =  0 Multiplicity = 1
 No Z-Matrix found in chk file; cartesian coordinates used.
  C                                                -1.161586396789     -0.944240604672      0.023054372381
  C                                                -0.445687638398      0.433705334634     -0.224957777688
  F                                                -0.540370348658      0.765357193154     -1.516081156405
  F                                                -1.026235555102      1.380571995264      0.505014462947
  S                                                 1.347793357272      0.400684691640      0.195809072984
  O                                                 1.452479608562      0.276527180567      1.598262534988
  O                                                 1.981152683354     -0.469136038798     -0.729838502654
  O                                                 1.699555823960      1.888120299794     -0.174193004945
  F                                                -1.696305899618     -1.381947399818     -1.103781942473
  F                                                -0.299617231731     -1.849557110076      0.463587702681
  F                                                -2.117196086036     -0.796776966148      0.923074391331
  H                                                 1.980774499121      1.942472727304     -1.099014397070
 Recover connectivity data from disk.
 ITRead=  0  0  0  0  0  0  0  0  0  0  0  0
 MicOpt= -1 -1 -1 -1 -1 -1 -1 -1 -1 -1 -1 -1
 NAtoms=     12 NQM=       12 NQMF=       0 NMMI=      0 NMMIF=      0
                NMic=       0 NMicF=      0.
                    Isotopes and Nuclear Properties:
 (Nuclear quadrupole moments (NQMom) in fm**2, nuclear magnetic moments (NMagM)
  in nuclear magnetons)

  Atom         1           2           3           4           5           6           7           8           9          10
 IAtWgt=          12          12          19          19          32          16          16          16          19          19
 AtmWgt=  12.0000000  12.0000000  18.9984032  18.9984032  31.9720718  15.9949146  15.9949146  15.9949146  18.9984032  18.9984032
 NucSpn=           0           0           1           1           0           0           0           0           1           1
 AtZEff=   3.6000000   3.6000000   6.7500000   6.7500000  13.6000000   5.6000000   5.6000000   5.6000000   6.7500000   6.7500000
 NQMom=    0.0000000   0.0000000   0.0000000   0.0000000   0.0000000   0.0000000   0.0000000   0.0000000   0.0000000   0.0000000
 NMagM=    0.0000000   0.0000000   2.6288670   2.6288670   0.0000000   0.0000000   0.0000000   0.0000000   2.6288670   2.6288670
 AtZNuc=   6.0000000   6.0000000   9.0000000   9.0000000  16.0000000   8.0000000   8.0000000   8.0000000   9.0000000   9.0000000

  Atom        11          12
 IAtWgt=          19           1
 AtmWgt=  18.9984032   1.0078250
 NucSpn=           1           1
 AtZEff=   6.7500000   1.0000000
 NQMom=    0.0000000   0.0000000
 NMagM=    2.6288670   2.7928460
 AtZNuc=   9.0000000   1.0000000
 Leave Link  101 at Sat May 24 04:02:44 2025, MaxMem=  3758096384 cpu:               0.1 elap:               0.1
 (Enter /apps/easybuild-2022/easybuild/software/Compiler/NVHPC/22.11-CUDA-11.7.0/Gaussian/g16c01-CUDA-11.7.0/g16/l123.exe)
 IRC-IRC-IRC-IRC-IRC-IRC-IRC-IRC-IRC-IRC-IRC-IRC-IRC-IRC-IRC-IRC-IRC-IRC
 ------------------------------------------------------------------------
 INPUT DATA FOR L123
 ------------------------------------------------------------------------
 GENERAL PARAMETERS:
 Rxn path following direction = Forward
 Maximum points per path      = 100
 Step size                    =   0.020 bohr
 Integration scheme           = HPC                                 
    Redo corrector integration= Yes                                 
    DWI Weight Power          =  2
    DWI will use Hessian update vectors when possible.
    Max correction cycles     =  20
 Initial Hessian              = ReadFC from chk
 Hessian evaluation           = All updating
 Hessian updating method      = Bofill                              
 ------------------------------------------------------------------------
          ******** Start new reaction path calculation ********
 RCFC Option Requested - Data Read From Chk File:
 "2003846667223680600001_r12_insertion_R_6_5_2_IRC_F.chk"
   Energy From Chk =  -1199.9364955

 Current Structure is TS -> form Hessian eigenvectors.
                            Diagonalizing Hessian.
 Supplied step size of   0.0200 bohr.
    Integration on MW PES will use step size of   0.0843 sqrt(amu)*bohr.
 Point Number:   0          Path Number:   1
 Calculating another point on the path.
 Point Number  1 in FORWARD path direction.
 Using LQA Reaction Path Following.
 IRC-IRC-IRC-IRC-IRC-IRC-IRC-IRC-IRC-IRC-IRC-IRC-IRC-IRC-IRC-IRC-IRC-IRC
 Leave Link  123 at Sat May 24 04:02:44 2025, MaxMem=  3758096384 cpu:               0.0 elap:               0.0
 (Enter /apps/easybuild-2022/easybuild/software/Compiler/NVHPC/22.11-CUDA-11.7.0/Gaussian/g16c01-CUDA-11.7.0/g16/l202.exe)
                          Input orientation:                          
 ---------------------------------------------------------------------
 Center     Atomic      Atomic             Coordinates (Angstroms)
 Number     Number       Type             X           Y           Z
 ---------------------------------------------------------------------
      1          6           0       -1.161595   -0.944235    0.023073
      2          6           0       -0.445442    0.433356   -0.226082
      3          9           0       -0.538711    0.763262   -1.517744
      4          9           0       -1.026841    1.381195    0.501983
      5         16           0        1.347612    0.400924    0.196580
      6          8           0        1.450688    0.276371    1.599132
      7          8           0        1.982483   -0.468318   -0.728566
      8          8           0        1.699165    1.888602   -0.172665
      9          9           0       -1.700896   -1.380156   -1.102324
     10          9           0       -0.298735   -1.850823    0.459294
     11          9           0       -2.113728   -0.797007    0.926822
     12          1           0        1.981949    1.943156   -1.097000
 ---------------------------------------------------------------------
                    Distance matrix (angstroms):
                    1          2          3          4          5
     1  C    0.000000
     2  C    1.572485   0.000000
     3  F    2.382782   1.336386   0.000000
     4  F    2.378053   1.329098   2.167812   0.000000
     5  S    2.852311   1.842481   2.574570   2.586935   0.000000
     6  O    3.286010   2.636543   3.729569   2.926179   1.411839
     7  O    3.267520   2.638243   2.914792   3.740452   1.419344
     8  O    4.030785   2.592283   2.843188   2.853721   1.572615
     9  F    1.321889   2.373350   2.473356   3.263925   3.762020
    10  F    1.325413   2.389296   3.286291   3.313292   2.801756
    11  F    1.320982   2.371952   3.300154   2.471108   3.734858
    12  H    4.412875   2.988348   2.814766   3.453312   2.110501
                    6          7          8          9         10
     6  O    0.000000
     7  O    2.501109   0.000000
     8  O    2.408379   2.438107   0.000000
     9  F    4.469276   3.812929   4.807230   0.000000
    10  F    2.980716   2.919980   4.286522   2.150868   0.000000
    11  F    3.782751   4.430270   4.791609   2.151262   2.150189
    12  H    3.213959   2.439457   0.968163   4.960623   4.692318
                   11         12
    11  F    0.000000
    12  H    5.327187   0.000000
 Symmetry turned off by external request.
 Stoichiometry    C2HF5O3S
 Rotational constants (GHZ):           1.6045743           0.8366185           0.7894191
 Leave Link  202 at Sat May 24 04:02:44 2025, MaxMem=  3758096384 cpu:               0.1 elap:               0.0
 (Enter /apps/easybuild-2022/easybuild/software/Compiler/NVHPC/22.11-CUDA-11.7.0/Gaussian/g16c01-CUDA-11.7.0/g16/l301.exe)
 Standard basis: def2TZVPP (5D, 7F)
 Ernie: Thresh=  0.10000D-02 Tol=  0.10000D-05 Strict=F.
   366 basis functions,   596 primitive gaussians,   423 cartesian basis functions
    49 alpha electrons       49 beta electrons
       nuclear repulsion energy       929.8136905240 Hartrees.
 IExCor= 4336 DFT=T Ex+Corr=M062X ExCW=0 ScaHFX=  0.540000
 ScaDFX=  1.000000  1.000000  1.000000  1.000000 ScalE2=  1.000000  1.000000
 IRadAn=      5 IRanWt=     -1 IRanGd=            0 ICorTp=0 IEmpDi=  4
 NAtoms=   12 NActive=   12 NUniq=   12 SFac= 1.00D+00 NAtFMM=   60 NAOKFM=F Big=F
 Integral buffers will be    131072 words long.
 Raffenetti 2 integral format.
 Two-electron integral symmetry is turned off.
 Leave Link  301 at Sat May 24 04:02:44 2025, MaxMem=  3758096384 cpu:               0.1 elap:               0.1
 (Enter /apps/easybuild-2022/easybuild/software/Compiler/NVHPC/22.11-CUDA-11.7.0/Gaussian/g16c01-CUDA-11.7.0/g16/l302.exe)
 NPDir=0 NMtPBC=     1 NCelOv=     1 NCel=       1 NClECP=     1 NCelD=      1
         NCelK=      1 NCelE2=     1 NClLst=     1 CellRange=     0.0.
 One-electron integrals computed using PRISM.
   1 Symmetry operations used in ECPInt.
 ECPInt:  NShTT=    8515 NPrTT=   27988 LenC2=    8005 LenP2D=   19455.
 LDataN:  DoStor=T MaxTD1= 6 Len=  172
 NBasis=   366 RedAO= T EigKep=  4.18D-04  NBF=   366
 NBsUse=   366 1.00D-06 EigRej= -1.00D+00 NBFU=   366
 Precomputing XC quadrature grid using
 IXCGrd= 4 IRadAn=           5 IRanWt=          -1 IRanGd=           0 AccXCQ= 0.00D+00.
 Generated NRdTot=       0 NPtTot=           0 NUsed=           0 NTot=          32
 NSgBfM=   419   419   419   419   419 MxSgAt=    12 MxSgA2=    12.
 Leave Link  302 at Sat May 24 04:02:44 2025, MaxMem=  3758096384 cpu:               1.1 elap:               0.2
 (Enter /apps/easybuild-2022/easybuild/software/Compiler/NVHPC/22.11-CUDA-11.7.0/Gaussian/g16c01-CUDA-11.7.0/g16/l303.exe)
 DipDrv:  MaxL=1.
 Leave Link  303 at Sat May 24 04:02:44 2025, MaxMem=  3758096384 cpu:               0.1 elap:               0.0
 (Enter /apps/easybuild-2022/easybuild/software/Compiler/NVHPC/22.11-CUDA-11.7.0/Gaussian/g16c01-CUDA-11.7.0/g16/l401.exe)
 Initial guess from the checkpoint file:  "2003846667223680600001_r12_insertion_R_6_5_2_IRC_F.chk"
 B after Tr=     0.000004    0.000019    0.000056
         Rot=    1.000000   -0.000006    0.000014   -0.000003 Ang=  -0.00 deg.
 Guess basis will be translated and rotated to current coordinates.
 JPrj=2 DoOrth=T DoCkMO=T.
 Leave Link  401 at Sat May 24 04:02:45 2025, MaxMem=  3758096384 cpu:               0.4 elap:               0.2
 (Enter /apps/easybuild-2022/easybuild/software/Compiler/NVHPC/22.11-CUDA-11.7.0/Gaussian/g16c01-CUDA-11.7.0/g16/l502.exe)
 Keep R1 ints in memory in canonical form, NReq=2293446996.
 FoFCou: FMM=F IPFlag=           0 FMFlag=           0 FMFlg1=           0
         NFxFlg=           0 DoJE=F BraDBF=F KetDBF=F FulRan=T
         wScrn=  0.000000 ICntrl=       600 IOpCl=  0 I1Cent=           0 NGrid=           0
         NMat0=    1 NMatS0=  67161 NMatT0=    0 NMatD0=    1 NMtDS0=    0 NMtDT0=    0
 Symmetry not used in FoFCou.
 Two-electron integral symmetry not used.
 Closed shell SCF:
 Using DIIS extrapolation, IDIIS=  1040.
 NGot=  3758096384 LenX=  1502398672 LenY=  1502219302
 Requested convergence on RMS density matrix=1.00D-08 within  32 cycles.
 Requested convergence on MAX density matrix=1.00D-06.
 Requested convergence on             energy=1.00D-06.
 No special actions if energy rises.

 Cycle   1  Pass 1  IDiag  1:
 E= -1199.93647262835    
 DIIS: error= 1.83D-04 at cycle   1 NSaved=   1.
 NSaved= 1 IEnMin= 1 EnMin= -1199.93647262835     IErMin= 1 ErrMin= 1.83D-04
 ErrMax= 1.83D-04  0.00D+00 EMaxC= 1.00D-01 BMatC= 1.92D-05 BMatP= 1.92D-05
 IDIUse=3 WtCom= 9.98D-01 WtEn= 1.83D-03
 Coeff-Com:  0.100D+01
 Coeff-En:   0.100D+01
 Coeff:      0.100D+01
 Gap=     0.446 Goal=   None    Shift=    0.000
 RMSDP=1.15D-05 MaxDP=3.76D-04              OVMax= 1.14D-03

 Cycle   2  Pass 1  IDiag  1:
 E= -1199.93649553714     Delta-E=       -0.000022908789 Rises=F Damp=F
 DIIS: error= 3.18D-05 at cycle   2 NSaved=   2.
 NSaved= 2 IEnMin= 2 EnMin= -1199.93649553714     IErMin= 2 ErrMin= 3.18D-05
 ErrMax= 3.18D-05  0.00D+00 EMaxC= 1.00D-01 BMatC= 5.64D-07 BMatP= 1.92D-05
 IDIUse=1 WtCom= 1.00D+00 WtEn= 0.00D+00
 Coeff-Com: -0.155D+00 0.116D+01
 Coeff:     -0.155D+00 0.116D+01
 Gap=     0.446 Goal=   None    Shift=    0.000
 RMSDP=2.57D-06 MaxDP=9.22D-05 DE=-2.29D-05 OVMax= 3.06D-04

 Cycle   3  Pass 1  IDiag  1:
 E= -1199.93649650950     Delta-E=       -0.000000972354 Rises=F Damp=F
 DIIS: error= 7.76D-06 at cycle   3 NSaved=   3.
 NSaved= 3 IEnMin= 3 EnMin= -1199.93649650950     IErMin= 3 ErrMin= 7.76D-06
 ErrMax= 7.76D-06  0.00D+00 EMaxC= 1.00D-01 BMatC= 5.54D-08 BMatP= 5.64D-07
 IDIUse=1 WtCom= 1.00D+00 WtEn= 0.00D+00
 Coeff-Com: -0.439D-01 0.258D+00 0.786D+00
 Coeff:     -0.439D-01 0.258D+00 0.786D+00
 Gap=     0.446 Goal=   None    Shift=    0.000
 RMSDP=6.49D-07 MaxDP=3.09D-05 DE=-9.72D-07 OVMax= 8.29D-05

 Cycle   4  Pass 1  IDiag  1:
 E= -1199.93649652640     Delta-E=       -0.000000016904 Rises=F Damp=F
 DIIS: error= 7.65D-06 at cycle   4 NSaved=   4.
 NSaved= 4 IEnMin= 4 EnMin= -1199.93649652640     IErMin= 4 ErrMin= 7.65D-06
 ErrMax= 7.65D-06  0.00D+00 EMaxC= 1.00D-01 BMatC= 4.36D-08 BMatP= 5.54D-08
 IDIUse=1 WtCom= 1.00D+00 WtEn= 0.00D+00
 Coeff-Com:  0.484D-02-0.801D-01 0.490D+00 0.585D+00
 Coeff:      0.484D-02-0.801D-01 0.490D+00 0.585D+00
 Gap=     0.446 Goal=   None    Shift=    0.000
 RMSDP=3.32D-07 MaxDP=1.65D-05 DE=-1.69D-08 OVMax= 4.71D-05

 Cycle   5  Pass 1  IDiag  1:
 E= -1199.93649655641     Delta-E=       -0.000000030008 Rises=F Damp=F
 DIIS: error= 8.69D-07 at cycle   5 NSaved=   5.
 NSaved= 5 IEnMin= 5 EnMin= -1199.93649655641     IErMin= 5 ErrMin= 8.69D-07
 ErrMax= 8.69D-07  0.00D+00 EMaxC= 1.00D-01 BMatC= 6.99D-10 BMatP= 4.36D-08
 IDIUse=1 WtCom= 1.00D+00 WtEn= 0.00D+00
 Coeff-Com:  0.328D-02-0.413D-01 0.167D+00 0.226D+00 0.645D+00
 Coeff:      0.328D-02-0.413D-01 0.167D+00 0.226D+00 0.645D+00
 Gap=     0.446 Goal=   None    Shift=    0.000
 RMSDP=5.19D-08 MaxDP=2.26D-06 DE=-3.00D-08 OVMax= 4.63D-06

 Cycle   6  Pass 1  IDiag  1:
 E= -1199.93649655680     Delta-E=       -0.000000000395 Rises=F Damp=F
 DIIS: error= 3.35D-07 at cycle   6 NSaved=   6.
 NSaved= 6 IEnMin= 6 EnMin= -1199.93649655680     IErMin= 6 ErrMin= 3.35D-07
 ErrMax= 3.35D-07  0.00D+00 EMaxC= 1.00D-01 BMatC= 1.32D-10 BMatP= 6.99D-10
 IDIUse=1 WtCom= 1.00D+00 WtEn= 0.00D+00
 Coeff-Com:  0.277D-03 0.495D-03-0.455D-01-0.430D-01 0.275D+00 0.813D+00
 Coeff:      0.277D-03 0.495D-03-0.455D-01-0.430D-01 0.275D+00 0.813D+00
 Gap=     0.446 Goal=   None    Shift=    0.000
 RMSDP=2.53D-08 MaxDP=9.94D-07 DE=-3.95D-10 OVMax= 2.92D-06

 Cycle   7  Pass 1  IDiag  1:
 E= -1199.93649655687     Delta-E=       -0.000000000065 Rises=F Damp=F
 DIIS: error= 7.80D-08 at cycle   7 NSaved=   7.
 NSaved= 7 IEnMin= 7 EnMin= -1199.93649655687     IErMin= 7 ErrMin= 7.80D-08
 ErrMax= 7.80D-08  0.00D+00 EMaxC= 1.00D-01 BMatC= 4.63D-12 BMatP= 1.32D-10
 IDIUse=1 WtCom= 1.00D+00 WtEn= 0.00D+00
 Coeff-Com: -0.228D-03 0.381D-02-0.222D-01-0.264D-01 0.370D-02 0.183D+00
 Coeff-Com:  0.858D+00
 Coeff:     -0.228D-03 0.381D-02-0.222D-01-0.264D-01 0.370D-02 0.183D+00
 Coeff:      0.858D+00
 Gap=     0.446 Goal=   None    Shift=    0.000
 RMSDP=5.53D-09 MaxDP=1.89D-07 DE=-6.50D-11 OVMax= 5.04D-07

 SCF Done:  E(RM062X) =  -1199.93649656     A.U. after    7 cycles
            NFock=  7  Conv=0.55D-08     -V/T= 2.0029
 KE= 1.196518615267D+03 PE=-4.705837870268D+03 EE= 1.379569067919D+03
 Leave Link  502 at Sat May 24 04:03:11 2025, MaxMem=  3758096384 cpu:             119.8 elap:              26.5
 (Enter /apps/easybuild-2022/easybuild/software/Compiler/NVHPC/22.11-CUDA-11.7.0/Gaussian/g16c01-CUDA-11.7.0/g16/l508.exe)
 QCSCF skips out because SCF is already converged.
 Leave Link  508 at Sat May 24 04:03:11 2025, MaxMem=  3758096384 cpu:               0.1 elap:               0.0
 (Enter /apps/easybuild-2022/easybuild/software/Compiler/NVHPC/22.11-CUDA-11.7.0/Gaussian/g16c01-CUDA-11.7.0/g16/l801.exe)
 DoSCS=F DFT=T ScalE2(SS,OS)=  1.000000  1.000000
 Range of M.O.s used for correlation:     1   366
 NBasis=   366 NAE=    49 NBE=    49 NFC=     0 NFV=     0
 NROrb=    366 NOA=    49 NOB=    49 NVA=   317 NVB=   317

 **** Warning!!: The largest alpha MO coefficient is  0.17645547D+02

 Leave Link  801 at Sat May 24 04:03:11 2025, MaxMem=  3758096384 cpu:               0.1 elap:               0.0
 (Enter /apps/easybuild-2022/easybuild/software/Compiler/NVHPC/22.11-CUDA-11.7.0/Gaussian/g16c01-CUDA-11.7.0/g16/l1101.exe)
 Leave Link 1101 at Sat May 24 04:03:11 2025, MaxMem=  3758096384 cpu:               0.0 elap:               0.0
 (Enter /apps/easybuild-2022/easybuild/software/Compiler/NVHPC/22.11-CUDA-11.7.0/Gaussian/g16c01-CUDA-11.7.0/g16/l1102.exe)
 Symmetrizing basis deriv contribution to polar:
 IMax=3 JMax=2 DiffMx= 0.00D+00
 Leave Link 1102 at Sat May 24 04:03:11 2025, MaxMem=  3758096384 cpu:               0.1 elap:               0.0
 (Enter /apps/easybuild-2022/easybuild/software/Compiler/NVHPC/22.11-CUDA-11.7.0/Gaussian/g16c01-CUDA-11.7.0/g16/l1110.exe)
 Leave Link 1110 at Sat May 24 04:03:11 2025, MaxMem=  3758096384 cpu:               0.1 elap:               0.0
 (Enter /apps/easybuild-2022/easybuild/software/Compiler/NVHPC/22.11-CUDA-11.7.0/Gaussian/g16c01-CUDA-11.7.0/g16/l1002.exe)
 Minotr:  Closed shell wavefunction.
 Leave Link 1002 at Sat May 24 04:03:11 2025, MaxMem=  3758096384 cpu:               0.1 elap:               0.0
 (Enter /apps/easybuild-2022/easybuild/software/Compiler/NVHPC/22.11-CUDA-11.7.0/Gaussian/g16c01-CUDA-11.7.0/g16/l701.exe)
 ... and contract with generalized density number  0.
 Compute integral first derivatives.
   1 Symmetry operations used in ECPInt.
 ECPInt:  NShTT=    8515 NPrTT=   27988 LenC2=    8005 LenP2D=   19455.
 LDataN:  DoStor=T MaxTD1= 7 Len=  274
 Leave Link  701 at Sat May 24 04:03:12 2025, MaxMem=  3758096384 cpu:               0.8 elap:               0.2
 (Enter /apps/easybuild-2022/easybuild/software/Compiler/NVHPC/22.11-CUDA-11.7.0/Gaussian/g16c01-CUDA-11.7.0/g16/l702.exe)
 L702 exits ... SP integral derivatives will be done elsewhere.
 Leave Link  702 at Sat May 24 04:03:12 2025, MaxMem=  3758096384 cpu:               0.0 elap:               0.0
 (Enter /apps/easybuild-2022/easybuild/software/Compiler/NVHPC/22.11-CUDA-11.7.0/Gaussian/g16c01-CUDA-11.7.0/g16/l703.exe)
 Integral derivatives from FoFJK, PRISM(SPDF).
 Compute integral first derivatives, UseDBF=F ICtDFT=           0.
 Calling FoFJK, ICntrl=      2127 FMM=F ISym2X=0 I1Cent= 0 IOpClX= 0 NMat=1 NMatS=1 NMatT=0.
 FoFJK:  IHMeth= 1 ICntrl=    2127 DoSepK=F KAlg= 0 I1Cent=           0 FoldK=F
 IRaf=         0 NMat=       1 IRICut=       1 DoRegI=T DoRafI=F ISym2E= 0 IDoP0=0 IntGTp=1.
 FoFCou: FMM=F IPFlag=           0 FMFlag=      100000 FMFlg1=         800
         NFxFlg=           0 DoJE=F BraDBF=F KetDBF=F FulRan=T
         wScrn=  0.000000 ICntrl=      2127 IOpCl=  0 I1Cent=           0 NGrid=           0
         NMat0=    1 NMatS0=      1 NMatT0=    0 NMatD0=    1 NMtDS0=    0 NMtDT0=    0
 Symmetry not used in FoFCou.
 Leave Link  703 at Sat May 24 04:03:24 2025, MaxMem=  3758096384 cpu:              98.0 elap:              12.4
 (Enter /apps/easybuild-2022/easybuild/software/Compiler/NVHPC/22.11-CUDA-11.7.0/Gaussian/g16c01-CUDA-11.7.0/g16/l716.exe)
 Dipole        =-6.31408809D-02 6.98672729D-01-8.24768008D-01
 Polarizability= 0.00000000D+00 0.00000000D+00 0.00000000D+00
                 0.00000000D+00 0.00000000D+00 0.00000000D+00
 -------------------------------------------------------------------
 Center     Atomic                   Forces (Hartrees/Bohr)
 Number     Number              X              Y              Z
 -------------------------------------------------------------------
      1        6          -0.000008648   -0.000012278    0.000000632
      2        6          -0.000002744   -0.000000675   -0.000005408
      3        9           0.000009590   -0.000015121   -0.000005455
      4        9          -0.000004121   -0.000002944   -0.000022233
      5       16          -0.000001588    0.000004222    0.000010528
      6        8          -0.000011437   -0.000001857    0.000000761
      7        8           0.000006496    0.000011851    0.000009545
      8        8          -0.000004891    0.000005359    0.000009563
      9        9          -0.000018554    0.000019382    0.000035866
     10        9          -0.000011041    0.000004949   -0.000042067
     11        9           0.000047693   -0.000013386    0.000004196
     12        1          -0.000000754    0.000000497    0.000004072
 -------------------------------------------------------------------
 Cartesian Forces:  Max     0.000047693 RMS     0.000015119
 Leave Link  716 at Sat May 24 04:03:24 2025, MaxMem=  3758096384 cpu:               0.1 elap:               0.0
 (Enter /apps/easybuild-2022/easybuild/software/Compiler/NVHPC/22.11-CUDA-11.7.0/Gaussian/g16c01-CUDA-11.7.0/g16/l123.exe)
 IRC-IRC-IRC-IRC-IRC-IRC-IRC-IRC-IRC-IRC-IRC-IRC-IRC-IRC-IRC-IRC-IRC-IRC
 Pt  1 Step number   1 out of a maximum of  20
 Using modified Bulirsch-Stoer corrector integration.
   Using distance weighted interpolants to fit PES.
 PreDWI: IReCr0= 2 IReCr1= 1 IReCr2= 1 IReCr3= 1
 Modified Bulirsch-Stoer Extrapolation Cycles:
    EPS =    0.000010000000000
    Cycle     1 NS=    48
      PEZero:  N= 2 I= 1 D=  2.19D-04 Err=  3.66D-04
    Cycle     2 NS=    64 Truncation Error =  0.000365897
      PEZero:  N= 3 I= 2 D=  2.19D-04 Err=  7.73D-04
      PEZero:  N= 3 I= 1 D=  4.39D-04 Err=  7.94D-04
    Cycle     3 NS=    96 Truncation Error =  0.000772966
      PEZero:  N= 4 I= 3 D=  1.10D-04 Err=  1.64D-03
      PEZero:  N= 4 I= 2 D=  3.29D-04 Err=  1.41D-03
      PEZero:  N= 4 I= 1 D=  5.49D-04 Err=  1.23D-03
    Cycle     4 NS=   128 Truncation Error =  0.001226537
      PEZero:  N= 5 I= 4 D=  1.10D-04 Err=  2.57D-03
      PEZero:  N= 5 I= 3 D=  2.19D-04 Err=  2.21D-03
      PEZero:  N= 5 I= 2 D=  4.39D-04 Err=  1.51D-03
      PEZero:  N= 5 I= 1 D=  6.58D-04 Err=  1.10D-03
    Cycle     5 NS=   192 Truncation Error =  0.001101556
      PEZero:  N= 6 I= 5 D=  5.49D-05 Err=  4.13D-03
      PEZero:  N= 6 I= 4 D=  1.65D-04 Err=  2.94D-03
      PEZero:  N= 6 I= 3 D=  2.74D-04 Err=  2.19D-03
      PEZero:  N= 6 I= 2 D=  4.94D-04 Err=  1.45D-03
      PEZero:  N= 6 I= 1 D=  7.13D-04 Err=  1.08D-03
    Cycle     6 NS=   256 Truncation Error =  0.001081804
      PEZero:  N= 7 I= 6 D=  5.49D-05 Err=  5.82D-03
      PEZero:  N= 7 I= 5 D=  1.10D-04 Err=  4.60D-03
      PEZero:  N= 7 I= 4 D=  2.19D-04 Err=  3.13D-03
      PEZero:  N= 7 I= 3 D=  3.29D-04 Err=  2.40D-03
      PEZero:  N= 7 I= 2 D=  5.49D-04 Err=  1.63D-03
      PEZero:  N= 7 I= 1 D=  7.68D-04 Err=  1.24D-03
    Cycle     7 NS=   384 Truncation Error =  0.001241380
      PEZero:  N= 8 I= 7 D=  2.74D-05 Err=  9.31D-03
      PEZero:  N= 8 I= 6 D=  8.23D-05 Err=  6.59D-03
      PEZero:  N= 8 I= 5 D=  1.37D-04 Err=  5.15D-03
      PEZero:  N= 8 I= 4 D=  2.47D-04 Err=  3.54D-03
      PEZero:  N= 8 I= 3 D=  3.57D-04 Err=  2.71D-03
      PEZero:  N= 8 I= 2 D=  5.76D-04 Err=  1.83D-03
      PEZero:  N= 8 I= 1 D=  7.95D-04 Err=  1.39D-03
    Cycle     8 NS=   512 Truncation Error =  0.001389832
      PEZero:  N= 9 I= 8 D=  2.74D-05 Err=  1.26D-02
      PEZero:  N= 9 I= 7 D=  5.49D-05 Err=  9.61D-03
      PEZero:  N= 9 I= 6 D=  1.10D-04 Err=  6.31D-03
      PEZero:  N= 9 I= 5 D=  1.65D-04 Err=  4.60D-03
      PEZero:  N= 9 I= 4 D=  2.74D-04 Err=  2.97D-03
      PEZero:  N= 9 I= 3 D=  3.84D-04 Err=  2.16D-03
      PEZero:  N= 9 I= 2 D=  6.03D-04 Err=  1.40D-03
      PEZero:  N= 9 I= 1 D=  8.23D-04 Err=  1.03D-03
    Cycle     9 NS=   768 Truncation Error =  0.001029234
      PEZero:  N=10 I= 9 D=  1.37D-05 Err=  3.27D-03
      PEZero:  N=10 I= 8 D=  4.11D-05 Err=  8.26D-03
    Cycle    10 NS=  1024 Truncation Error =  0.003266826
      PEZero:  N=11 I=10 D=  1.37D-05 Err=  1.30D-05
      PEZero:  N=11 I= 9 D=  2.74D-05 Err=  3.25D-03
    Cycle    11 NS=  1536 Truncation Error =  0.000013046
 Maximum DWI energy   std dev =  0.000000004 at pt     5
 Maximum DWI gradient std dev =  0.307244772 at pt   122
 WARNING: Bulirsch-Stoer Method is not Converging
 SUMMARY OF CORRECTOR INTEGRATION:
   Predictor End Point Energy = -1199.936497
   Old End Point Energy       = -1199.936497
   Corrected End Point Energy = -1199.936497
   Predictor End-Start Dist.  =     0.084264
   Old End-Start Dist.        =     0.084264
   New End-Start Dist.        =     0.084011
   New End-Old End Dist.      =     0.005418
 CORRECTOR INTEGRATION CONVERGENCE:
   Recorrection delta-x convergence threshold:    0.010000
   Delta-x Convergence NOT Met
 IRC-IRC-IRC-IRC-IRC-IRC-IRC-IRC-IRC-IRC-IRC-IRC-IRC-IRC-IRC-IRC-IRC-IRC
 Leave Link  123 at Sat May 24 04:03:24 2025, MaxMem=  3758096384 cpu:               1.2 elap:               0.2
 (Enter /apps/easybuild-2022/easybuild/software/Compiler/NVHPC/22.11-CUDA-11.7.0/Gaussian/g16c01-CUDA-11.7.0/g16/l202.exe)
                          Input orientation:                          
 ---------------------------------------------------------------------
 Center     Atomic      Atomic             Coordinates (Angstroms)
 Number     Number       Type             X           Y           Z
 ---------------------------------------------------------------------
      1          6           0       -1.161505   -0.944336    0.022997
      2          6           0       -0.445483    0.433337   -0.226036
      3          9           0       -0.538810    0.763357   -1.517659
      4          9           0       -1.026953    1.381048    0.502130
      5         16           0        1.347575    0.401024    0.196600
      6          8           0        1.450671    0.276334    1.599135
      7          8           0        1.982515   -0.468066   -0.728638
      8          8           0        1.698995    1.888770   -0.172493
      9          9           0       -1.700740   -1.380208   -1.102418
     10          9           0       -0.298590   -1.850874    0.459146
     11          9           0       -2.113644   -0.797280    0.926727
     12          1           0        1.981794    1.943444   -1.096813
 ---------------------------------------------------------------------
                    Distance matrix (angstroms):
                    1          2          3          4          5
     1  C    0.000000
     2  C    1.572479   0.000000
     3  F    2.382769   1.336381   0.000000
     4  F    2.378042   1.329093   2.167803   0.000000
     5  S    2.852300   1.842476   2.574571   2.586924   0.000000
     6  O    3.285987   2.636531   3.729562   2.926164   1.411836
     7  O    3.267514   2.638240   2.914797   3.740442   1.419341
     8  O    4.030778   2.592284   2.843202   2.853715   1.572614
     9  F    1.321861   2.373323   2.473333   3.263908   3.761975
    10  F    1.325391   2.389283   3.286285   3.313258   2.801755
    11  F    1.320954   2.371928   3.300108   2.471092   3.734843
    12  H    4.412888   2.988369   2.814811   3.453327   2.110500
                    6          7          8          9         10
     6  O    0.000000
     7  O    2.501102   0.000000
     8  O    2.408378   2.438105   0.000000
     9  F    4.469218   3.812884   4.807201   0.000000
    10  F    2.980688   2.920005   4.286520   2.150821   0.000000
    11  F    3.782740   4.430252   4.791594   2.151214   2.150142
    12  H    3.213952   2.439454   0.968159   4.960620   4.692335
                   11         12
    11  F    0.000000
    12  H    5.327185   0.000000
 Symmetry turned off by external request.
 Stoichiometry    C2HF5O3S
 Rotational constants (GHZ):           1.6045963           0.8366273           0.7894260
 Leave Link  202 at Sat May 24 04:03:24 2025, MaxMem=  3758096384 cpu:               0.1 elap:               0.0
 (Enter /apps/easybuild-2022/easybuild/software/Compiler/NVHPC/22.11-CUDA-11.7.0/Gaussian/g16c01-CUDA-11.7.0/g16/l301.exe)
 Standard basis: def2TZVPP (5D, 7F)
 Ernie: Thresh=  0.10000D-02 Tol=  0.10000D-05 Strict=F.
   366 basis functions,   596 primitive gaussians,   423 cartesian basis functions
    49 alpha electrons       49 beta electrons
       nuclear repulsion energy       929.8190446450 Hartrees.
 IExCor= 4336 DFT=T Ex+Corr=M062X ExCW=0 ScaHFX=  0.540000
 ScaDFX=  1.000000  1.000000  1.000000  1.000000 ScalE2=  1.000000  1.000000
 IRadAn=      5 IRanWt=     -1 IRanGd=            0 ICorTp=0 IEmpDi=  4
 NAtoms=   12 NActive=   12 NUniq=   12 SFac= 1.00D+00 NAtFMM=   60 NAOKFM=F Big=F
 Integral buffers will be    131072 words long.
 Raffenetti 2 integral format.
 Two-electron integral symmetry is turned off.
 Leave Link  301 at Sat May 24 04:03:24 2025, MaxMem=  3758096384 cpu:               0.1 elap:               0.0
 (Enter /apps/easybuild-2022/easybuild/software/Compiler/NVHPC/22.11-CUDA-11.7.0/Gaussian/g16c01-CUDA-11.7.0/g16/l302.exe)
 NPDir=0 NMtPBC=     1 NCelOv=     1 NCel=       1 NClECP=     1 NCelD=      1
         NCelK=      1 NCelE2=     1 NClLst=     1 CellRange=     0.0.
 One-electron integrals computed using PRISM.
   1 Symmetry operations used in ECPInt.
 ECPInt:  NShTT=    8515 NPrTT=   27988 LenC2=    8005 LenP2D=   19455.
 LDataN:  DoStor=T MaxTD1= 6 Len=  172
 NBasis=   366 RedAO= T EigKep=  4.18D-04  NBF=   366
 NBsUse=   366 1.00D-06 EigRej= -1.00D+00 NBFU=   366
 Precomputing XC quadrature grid using
 IXCGrd= 4 IRadAn=           5 IRanWt=          -1 IRanGd=           0 AccXCQ= 0.00D+00.
 Generated NRdTot=       0 NPtTot=           0 NUsed=           0 NTot=          32
 NSgBfM=   419   419   419   419   419 MxSgAt=    12 MxSgA2=    12.
 Leave Link  302 at Sat May 24 04:03:25 2025, MaxMem=  3758096384 cpu:               0.9 elap:               0.2
 (Enter /apps/easybuild-2022/easybuild/software/Compiler/NVHPC/22.11-CUDA-11.7.0/Gaussian/g16c01-CUDA-11.7.0/g16/l303.exe)
 DipDrv:  MaxL=1.
 Leave Link  303 at Sat May 24 04:03:25 2025, MaxMem=  3758096384 cpu:               0.1 elap:               0.0
 (Enter /apps/easybuild-2022/easybuild/software/Compiler/NVHPC/22.11-CUDA-11.7.0/Gaussian/g16c01-CUDA-11.7.0/g16/l401.exe)
 Initial guess from the checkpoint file:  "2003846667223680600001_r12_insertion_R_6_5_2_IRC_F.chk"
 B after Tr=     0.000001    0.000000    0.000001
         Rot=    1.000000   -0.000047   -0.000004   -0.000045 Ang=  -0.01 deg.
 Guess basis will be translated and rotated to current coordinates.
 JPrj=2 DoOrth=T DoCkMO=T.
 Generating alternative initial guess.
 ExpMin= 9.52D-02 ExpMax= 6.07D+04 ExpMxC= 2.07D+03 IAcc=3 IRadAn=         5 AccDes= 0.00D+00
 Harris functional with IExCor= 1009 and IRadAn=       5 diagonalized for initial guess.
 HarFok:  IExCor= 1009 AccDes= 0.00D+00 IRadAn=         5 IDoV= 1 UseB2=F ITyADJ=14
 ICtDFT=  3500011 ScaDFX=  1.000000  1.000000  1.000000  1.000000
 FoFCou: FMM=F IPFlag=           0 FMFlag=      100000 FMFlg1=           0
         NFxFlg=           0 DoJE=T BraDBF=F KetDBF=T FulRan=T
         wScrn=  0.000000 ICntrl=       500 IOpCl=  0 I1Cent=   200000004 NGrid=           0
         NMat0=    1 NMatS0=      1 NMatT0=    0 NMatD0=    1 NMtDS0=    0 NMtDT0=    0
 Symmetry not used in FoFCou.
 Harris En= -1199.33959814790    
 Leave Link  401 at Sat May 24 04:03:25 2025, MaxMem=  3758096384 cpu:               4.5 elap:               0.7
 (Enter /apps/easybuild-2022/easybuild/software/Compiler/NVHPC/22.11-CUDA-11.7.0/Gaussian/g16c01-CUDA-11.7.0/g16/l502.exe)
 Keep R1 ints in memory in canonical form, NReq=2293446996.
 FoFCou: FMM=F IPFlag=           0 FMFlag=           0 FMFlg1=           0
         NFxFlg=           0 DoJE=F BraDBF=F KetDBF=F FulRan=T
         wScrn=  0.000000 ICntrl=       600 IOpCl=  0 I1Cent=           0 NGrid=           0
         NMat0=    1 NMatS0=  67161 NMatT0=    0 NMatD0=    1 NMtDS0=    0 NMtDT0=    0
 Symmetry not used in FoFCou.
 Two-electron integral symmetry not used.
 Closed shell SCF:
 Using DIIS extrapolation, IDIIS=  1040.
 NGot=  3758096384 LenX=  1502398672 LenY=  1502219302
 Requested convergence on RMS density matrix=1.00D-08 within  32 cycles.
 Requested convergence on MAX density matrix=1.00D-06.
 Requested convergence on             energy=1.00D-06.
 No special actions if energy rises.
 Integral accuracy reduced to 1.0D-05 until final iterations.

 Cycle   1  Pass 0  IDiag  1:
 E= -1199.93641872652    
 DIIS: error= 2.91D-05 at cycle   1 NSaved=   1.
 NSaved= 1 IEnMin= 1 EnMin= -1199.93641872652     IErMin= 1 ErrMin= 2.91D-05
 ErrMax= 2.91D-05  0.00D+00 EMaxC= 1.00D-01 BMatC= 7.23D-07 BMatP= 7.23D-07
 IDIUse=1 WtCom= 1.00D+00 WtEn= 0.00D+00
 Coeff-Com:  0.100D+01
 Coeff:      0.100D+01
 Gap=     1.072 Goal=   None    Shift=    0.000
 RMSDP=7.83D-06 MaxDP=3.48D-04              OVMax= 8.91D-05

 Initial convergence to 1.0D-05 achieved.  Increase integral accuracy.
 Cycle   2  Pass 1  IDiag  1:
 E= -1199.93649612367     Delta-E=       -0.000077397146 Rises=F Damp=F
 DIIS: error= 2.79D-05 at cycle   1 NSaved=   1.
 NSaved= 1 IEnMin= 1 EnMin= -1199.93649612367     IErMin= 1 ErrMin= 2.79D-05
 ErrMax= 2.79D-05  0.00D+00 EMaxC= 1.00D-01 BMatC= 6.44D-07 BMatP= 6.44D-07
 IDIUse=1 WtCom= 1.00D+00 WtEn= 0.00D+00
 Coeff-Com:  0.100D+01
 Coeff:      0.100D+01
 Gap=     0.446 Goal=   None    Shift=    0.000
 RMSDP=7.83D-06 MaxDP=3.48D-04 DE=-7.74D-05 OVMax= 8.55D-05

 Cycle   3  Pass 1  IDiag  1:
 E= -1199.93649654547     Delta-E=       -0.000000421795 Rises=F Damp=F
 DIIS: error= 4.43D-06 at cycle   2 NSaved=   2.
 NSaved= 2 IEnMin= 2 EnMin= -1199.93649654547     IErMin= 2 ErrMin= 4.43D-06
 ErrMax= 4.43D-06  0.00D+00 EMaxC= 1.00D-01 BMatC= 3.13D-08 BMatP= 6.44D-07
 IDIUse=1 WtCom= 1.00D+00 WtEn= 0.00D+00
 Coeff-Com:  0.229D-01 0.977D+00
 Coeff:      0.229D-01 0.977D+00
 Gap=     0.446 Goal=   None    Shift=    0.000
 RMSDP=7.80D-07 MaxDP=3.51D-05 DE=-4.22D-07 OVMax= 5.11D-05

 Cycle   4  Pass 1  IDiag  1:
 E= -1199.93649654626     Delta-E=       -0.000000000799 Rises=F Damp=F
 DIIS: error= 5.68D-06 at cycle   3 NSaved=   3.
 NSaved= 3 IEnMin= 3 EnMin= -1199.93649654626     IErMin= 2 ErrMin= 4.43D-06
 ErrMax= 5.68D-06  0.00D+00 EMaxC= 1.00D-01 BMatC= 3.66D-08 BMatP= 3.13D-08
 IDIUse=1 WtCom= 1.00D+00 WtEn= 0.00D+00
 Coeff-Com: -0.296D-01 0.535D+00 0.495D+00
 Coeff:     -0.296D-01 0.535D+00 0.495D+00
 Gap=     0.446 Goal=   None    Shift=    0.000
 RMSDP=2.71D-07 MaxDP=1.31D-05 DE=-7.99D-10 OVMax= 2.68D-05

 Cycle   5  Pass 1  IDiag  1:
 E= -1199.93649656783     Delta-E=       -0.000000021562 Rises=F Damp=F
 DIIS: error= 6.74D-07 at cycle   4 NSaved=   4.
 NSaved= 4 IEnMin= 4 EnMin= -1199.93649656783     IErMin= 4 ErrMin= 6.74D-07
 ErrMax= 6.74D-07  0.00D+00 EMaxC= 1.00D-01 BMatC= 5.17D-10 BMatP= 3.13D-08
 IDIUse=1 WtCom= 1.00D+00 WtEn= 0.00D+00
 Coeff-Com: -0.109D-01 0.133D+00 0.157D+00 0.721D+00
 Coeff:     -0.109D-01 0.133D+00 0.157D+00 0.721D+00
 Gap=     0.446 Goal=   None    Shift=    0.000
 RMSDP=5.81D-08 MaxDP=5.05D-06 DE=-2.16D-08 OVMax= 5.16D-06

 Cycle   6  Pass 1  IDiag  1:
 E= -1199.93649656816     Delta-E=       -0.000000000339 Rises=F Damp=F
 DIIS: error= 3.55D-07 at cycle   5 NSaved=   5.
 NSaved= 5 IEnMin= 5 EnMin= -1199.93649656816     IErMin= 5 ErrMin= 3.55D-07
 ErrMax= 3.55D-07  0.00D+00 EMaxC= 1.00D-01 BMatC= 1.23D-10 BMatP= 5.17D-10
 IDIUse=1 WtCom= 1.00D+00 WtEn= 0.00D+00
 Coeff-Com: -0.526D-03-0.187D-01-0.588D-02 0.320D+00 0.705D+00
 Coeff:     -0.526D-03-0.187D-01-0.588D-02 0.320D+00 0.705D+00
 Gap=     0.446 Goal=   None    Shift=    0.000
 RMSDP=2.61D-08 MaxDP=1.89D-06 DE=-3.39D-10 OVMax= 2.32D-06

 Cycle   7  Pass 1  IDiag  1:
 E= -1199.93649656822     Delta-E=       -0.000000000055 Rises=F Damp=F
 DIIS: error= 1.16D-07 at cycle   6 NSaved=   6.
 NSaved= 6 IEnMin= 6 EnMin= -1199.93649656822     IErMin= 6 ErrMin= 1.16D-07
 ErrMax= 1.16D-07  0.00D+00 EMaxC= 1.00D-01 BMatC= 1.36D-11 BMatP= 1.23D-10
 IDIUse=1 WtCom= 1.00D+00 WtEn= 0.00D+00
 Coeff-Com:  0.945D-03-0.228D-01-0.189D-01 0.766D-01 0.328D+00 0.636D+00
 Coeff:      0.945D-03-0.228D-01-0.189D-01 0.766D-01 0.328D+00 0.636D+00
 Gap=     0.446 Goal=   None    Shift=    0.000
 RMSDP=7.10D-09 MaxDP=3.54D-07 DE=-5.55D-11 OVMax= 7.39D-07

 SCF Done:  E(RM062X) =  -1199.93649657     A.U. after    7 cycles
            NFock=  7  Conv=0.71D-08     -V/T= 2.0029
 KE= 1.196518907779D+03 PE=-4.705848770734D+03 EE= 1.379574321741D+03
 Leave Link  502 at Sat May 24 04:03:52 2025, MaxMem=  3758096384 cpu:             120.6 elap:              26.6
 (Enter /apps/easybuild-2022/easybuild/software/Compiler/NVHPC/22.11-CUDA-11.7.0/Gaussian/g16c01-CUDA-11.7.0/g16/l508.exe)
 QCSCF skips out because SCF is already converged.
 Leave Link  508 at Sat May 24 04:03:52 2025, MaxMem=  3758096384 cpu:               0.1 elap:               0.0
 (Enter /apps/easybuild-2022/easybuild/software/Compiler/NVHPC/22.11-CUDA-11.7.0/Gaussian/g16c01-CUDA-11.7.0/g16/l801.exe)
 DoSCS=F DFT=T ScalE2(SS,OS)=  1.000000  1.000000
 Range of M.O.s used for correlation:     1   366
 NBasis=   366 NAE=    49 NBE=    49 NFC=     0 NFV=     0
 NROrb=    366 NOA=    49 NOB=    49 NVA=   317 NVB=   317

 **** Warning!!: The largest alpha MO coefficient is  0.17646931D+02

 Leave Link  801 at Sat May 24 04:03:52 2025, MaxMem=  3758096384 cpu:               0.1 elap:               0.0
 (Enter /apps/easybuild-2022/easybuild/software/Compiler/NVHPC/22.11-CUDA-11.7.0/Gaussian/g16c01-CUDA-11.7.0/g16/l1101.exe)
 Leave Link 1101 at Sat May 24 04:03:52 2025, MaxMem=  3758096384 cpu:               0.0 elap:               0.0
 (Enter /apps/easybuild-2022/easybuild/software/Compiler/NVHPC/22.11-CUDA-11.7.0/Gaussian/g16c01-CUDA-11.7.0/g16/l1102.exe)
 Symmetrizing basis deriv contribution to polar:
 IMax=3 JMax=2 DiffMx= 0.00D+00
 Leave Link 1102 at Sat May 24 04:03:52 2025, MaxMem=  3758096384 cpu:               0.1 elap:               0.0
 (Enter /apps/easybuild-2022/easybuild/software/Compiler/NVHPC/22.11-CUDA-11.7.0/Gaussian/g16c01-CUDA-11.7.0/g16/l1110.exe)
 Leave Link 1110 at Sat May 24 04:03:52 2025, MaxMem=  3758096384 cpu:               0.1 elap:               0.0
 (Enter /apps/easybuild-2022/easybuild/software/Compiler/NVHPC/22.11-CUDA-11.7.0/Gaussian/g16c01-CUDA-11.7.0/g16/l1002.exe)
 Minotr:  Closed shell wavefunction.
 Leave Link 1002 at Sat May 24 04:03:52 2025, MaxMem=  3758096384 cpu:               0.1 elap:               0.0
 (Enter /apps/easybuild-2022/easybuild/software/Compiler/NVHPC/22.11-CUDA-11.7.0/Gaussian/g16c01-CUDA-11.7.0/g16/l701.exe)
 ... and contract with generalized density number  0.
 Compute integral first derivatives.
   1 Symmetry operations used in ECPInt.
 ECPInt:  NShTT=    8515 NPrTT=   27988 LenC2=    8005 LenP2D=   19455.
 LDataN:  DoStor=T MaxTD1= 7 Len=  274
 Leave Link  701 at Sat May 24 04:03:52 2025, MaxMem=  3758096384 cpu:               0.7 elap:               0.2
 (Enter /apps/easybuild-2022/easybuild/software/Compiler/NVHPC/22.11-CUDA-11.7.0/Gaussian/g16c01-CUDA-11.7.0/g16/l702.exe)
 L702 exits ... SP integral derivatives will be done elsewhere.
 Leave Link  702 at Sat May 24 04:03:52 2025, MaxMem=  3758096384 cpu:               0.1 elap:               0.0
 (Enter /apps/easybuild-2022/easybuild/software/Compiler/NVHPC/22.11-CUDA-11.7.0/Gaussian/g16c01-CUDA-11.7.0/g16/l703.exe)
 Integral derivatives from FoFJK, PRISM(SPDF).
 Compute integral first derivatives, UseDBF=F ICtDFT=           0.
 Calling FoFJK, ICntrl=      2127 FMM=F ISym2X=0 I1Cent= 0 IOpClX= 0 NMat=1 NMatS=1 NMatT=0.
 FoFJK:  IHMeth= 1 ICntrl=    2127 DoSepK=F KAlg= 0 I1Cent=           0 FoldK=F
 IRaf=         0 NMat=       1 IRICut=       1 DoRegI=T DoRafI=F ISym2E= 0 IDoP0=0 IntGTp=1.
 FoFCou: FMM=F IPFlag=           0 FMFlag=      100000 FMFlg1=         800
         NFxFlg=           0 DoJE=F BraDBF=F KetDBF=F FulRan=T
         wScrn=  0.000000 ICntrl=      2127 IOpCl=  0 I1Cent=           0 NGrid=           0
         NMat0=    1 NMatS0=      1 NMatT0=    0 NMatD0=    1 NMtDS0=    0 NMtDT0=    0
 Symmetry not used in FoFCou.
 Leave Link  703 at Sat May 24 04:04:05 2025, MaxMem=  3758096384 cpu:              99.6 elap:              13.0
 (Enter /apps/easybuild-2022/easybuild/software/Compiler/NVHPC/22.11-CUDA-11.7.0/Gaussian/g16c01-CUDA-11.7.0/g16/l716.exe)
 Dipole        =-6.32171127D-02 6.98738652D-01-8.24695361D-01
 Polarizability= 0.00000000D+00 0.00000000D+00 0.00000000D+00
                 0.00000000D+00 0.00000000D+00 0.00000000D+00
 -------------------------------------------------------------------
 Center     Atomic                   Forces (Hartrees/Bohr)
 Number     Number              X              Y              Z
 -------------------------------------------------------------------
      1        6           0.000001228   -0.000001599   -0.000000620
      2        6           0.000000918   -0.000001664   -0.000004430
      3        9           0.000010227   -0.000013203   -0.000010636
      4        9          -0.000006583    0.000001808   -0.000018759
      5       16          -0.000002807    0.000006176    0.000009682
      6        8          -0.000010727   -0.000001797    0.000005167
      7        8           0.000008351    0.000009519    0.000006497
      8        8          -0.000005470    0.000005528    0.000012332
      9        9          -0.000030324    0.000011490    0.000008246
     10        9           0.000009038   -0.000009997   -0.000033697
     11        9           0.000026206   -0.000006813    0.000025198
     12        1          -0.000000057    0.000000552    0.000001022
 -------------------------------------------------------------------
 Cartesian Forces:  Max     0.000033697 RMS     0.000012161
 Leave Link  716 at Sat May 24 04:04:05 2025, MaxMem=  3758096384 cpu:               0.1 elap:               0.0
 (Enter /apps/easybuild-2022/easybuild/software/Compiler/NVHPC/22.11-CUDA-11.7.0/Gaussian/g16c01-CUDA-11.7.0/g16/l123.exe)
 IRC-IRC-IRC-IRC-IRC-IRC-IRC-IRC-IRC-IRC-IRC-IRC-IRC-IRC-IRC-IRC-IRC-IRC
 Error in corrector energy =           0.0000000001
 Magnitude of corrector gradient =     0.0000737040
 Magnitude of analytic gradient =      0.0000729676
 Magnitude of difference =             0.0000014287
 Angle between gradients (degrees)=    0.9565
 Pt  1 Step number   2 out of a maximum of  20
 Using modified Bulirsch-Stoer corrector integration.
   Using distance weighted interpolants to fit PES.
 PreDWI: IReCr0= 2 IReCr1= 1 IReCr2= 1 IReCr3= 1
 Modified Bulirsch-Stoer Extrapolation Cycles:
    EPS =    0.000010000000000
    Cycle     1 NS=    48
      PEZero:  N= 2 I= 1 D=  2.19D-04 Err=  3.68D-04
    Cycle     2 NS=    64 Truncation Error =  0.000367662
      PEZero:  N= 3 I= 2 D=  2.19D-04 Err=  7.82D-04
      PEZero:  N= 3 I= 1 D=  4.39D-04 Err=  8.05D-04
    Cycle     3 NS=    96 Truncation Error =  0.000782103
      PEZero:  N= 4 I= 3 D=  1.10D-04 Err=  1.65D-03
      PEZero:  N= 4 I= 2 D=  3.29D-04 Err=  1.42D-03
      PEZero:  N= 4 I= 1 D=  5.49D-04 Err=  1.24D-03
    Cycle     4 NS=   128 Truncation Error =  0.001239857
      PEZero:  N= 5 I= 4 D=  1.10D-04 Err=  2.58D-03
      PEZero:  N= 5 I= 3 D=  2.19D-04 Err=  2.22D-03
      PEZero:  N= 5 I= 2 D=  4.39D-04 Err=  1.51D-03
      PEZero:  N= 5 I= 1 D=  6.58D-04 Err=  1.10D-03
    Cycle     5 NS=   192 Truncation Error =  0.001096092
      PEZero:  N= 6 I= 5 D=  5.49D-05 Err=  4.14D-03
      PEZero:  N= 6 I= 4 D=  1.65D-04 Err=  2.93D-03
      PEZero:  N= 6 I= 3 D=  2.74D-04 Err=  2.19D-03
      PEZero:  N= 6 I= 2 D=  4.94D-04 Err=  1.44D-03
      PEZero:  N= 6 I= 1 D=  7.13D-04 Err=  1.08D-03
    Cycle     6 NS=   256 Truncation Error =  0.001078567
      PEZero:  N= 7 I= 6 D=  5.49D-05 Err=  5.82D-03
      PEZero:  N= 7 I= 5 D=  1.10D-04 Err=  4.59D-03
      PEZero:  N= 7 I= 4 D=  2.19D-04 Err=  3.12D-03
      PEZero:  N= 7 I= 3 D=  3.29D-04 Err=  2.39D-03
      PEZero:  N= 7 I= 2 D=  5.49D-04 Err=  1.62D-03
      PEZero:  N= 7 I= 1 D=  7.68D-04 Err=  1.24D-03
    Cycle     7 NS=   384 Truncation Error =  0.001236143
      PEZero:  N= 8 I= 7 D=  2.74D-05 Err=  9.28D-03
      PEZero:  N= 8 I= 6 D=  8.23D-05 Err=  6.56D-03
      PEZero:  N= 8 I= 5 D=  1.37D-04 Err=  5.12D-03
      PEZero:  N= 8 I= 4 D=  2.47D-04 Err=  3.51D-03
      PEZero:  N= 8 I= 3 D=  3.57D-04 Err=  2.69D-03
      PEZero:  N= 8 I= 2 D=  5.76D-04 Err=  1.82D-03
      PEZero:  N= 8 I= 1 D=  7.95D-04 Err=  1.37D-03
    Cycle     8 NS=   512 Truncation Error =  0.001374749
      PEZero:  N= 9 I= 8 D=  2.74D-05 Err=  1.27D-02
      PEZero:  N= 9 I= 7 D=  5.49D-05 Err=  9.71D-03
      PEZero:  N= 9 I= 6 D=  1.10D-04 Err=  6.43D-03
      PEZero:  N= 9 I= 5 D=  1.65D-04 Err=  4.73D-03
      PEZero:  N= 9 I= 4 D=  2.74D-04 Err=  3.08D-03
      PEZero:  N= 9 I= 3 D=  3.84D-04 Err=  2.26D-03
      PEZero:  N= 9 I= 2 D=  6.03D-04 Err=  1.48D-03
      PEZero:  N= 9 I= 1 D=  8.23D-04 Err=  1.09D-03
    Cycle     9 NS=   768 Truncation Error =  0.001089744
      PEZero:  N=10 I= 9 D=  1.37D-05 Err=  3.27D-03
      PEZero:  N=10 I= 8 D=  4.11D-05 Err=  8.30D-03
    Cycle    10 NS=  1024 Truncation Error =  0.003273844
      PEZero:  N=11 I=10 D=  1.37D-05 Err=  1.31D-05
      PEZero:  N=11 I= 9 D=  2.74D-05 Err=  3.25D-03
    Cycle    11 NS=  1536 Truncation Error =  0.000013089
 Maximum DWI energy   std dev =  0.000000006 at pt     5
 Maximum DWI gradient std dev =  0.306383236 at pt   121
 WARNING: Bulirsch-Stoer Method is not Converging
 SUMMARY OF CORRECTOR INTEGRATION:
   Predictor End Point Energy = -1199.936497
   Old End Point Energy       = -1199.936497
   Corrected End Point Energy = -1199.936497
   Predictor End-Start Dist.  =     0.084264
   Old End-Start Dist.        =     0.084011
   New End-Start Dist.        =     0.084005
   New End-Old End Dist.      =     0.000159
 CORRECTOR INTEGRATION CONVERGENCE:
   Recorrection delta-x convergence threshold:    0.010000
   Delta-x Convergence NOT Met
 IRC-IRC-IRC-IRC-IRC-IRC-IRC-IRC-IRC-IRC-IRC-IRC-IRC-IRC-IRC-IRC-IRC-IRC
 Leave Link  123 at Sat May 24 04:04:06 2025, MaxMem=  3758096384 cpu:               1.8 elap:               0.4
 (Enter /apps/easybuild-2022/easybuild/software/Compiler/NVHPC/22.11-CUDA-11.7.0/Gaussian/g16c01-CUDA-11.7.0/g16/l202.exe)
                          Input orientation:                          
 ---------------------------------------------------------------------
 Center     Atomic      Atomic             Coordinates (Angstroms)
 Number     Number       Type             X           Y           Z
 ---------------------------------------------------------------------
      1          6           0       -1.161504   -0.944338    0.022997
      2          6           0       -0.445484    0.433338   -0.226034
      3          9           0       -0.538815    0.763361   -1.517656
      4          9           0       -1.026955    1.381045    0.502136
      5         16           0        1.347574    0.401025    0.196597
      6          8           0        1.450676    0.276337    1.599132
      7          8           0        1.982511   -0.468066   -0.728641
      8          8           0        1.698992    1.888771   -0.172500
      9          9           0       -1.700742   -1.380208   -1.102418
     10          9           0       -0.298586   -1.850876    0.459140
     11          9           0       -2.113641   -0.797287    0.926729
     12          1           0        1.981771    1.943445   -1.096826
 ---------------------------------------------------------------------
                    Distance matrix (angstroms):
                    1          2          3          4          5
     1  C    0.000000
     2  C    1.572479   0.000000
     3  F    2.382770   1.336381   0.000000
     4  F    2.378042   1.329093   2.167804   0.000000
     5  S    2.852300   1.842476   2.574571   2.586925   0.000000
     6  O    3.285991   2.636532   3.729562   2.926163   1.411836
     7  O    3.267511   2.638239   2.914797   3.740442   1.419341
     8  O    4.030777   2.592283   2.843197   2.853718   1.572614
     9  F    1.321862   2.373325   2.473335   3.263909   3.761976
    10  F    1.325390   2.389283   3.286285   3.313258   2.801755
    11  F    1.320954   2.371928   3.300109   2.471092   3.734843
    12  H    4.412876   2.988356   2.814791   3.453318   2.110499
                    6          7          8          9         10
     6  O    0.000000
     7  O    2.501102   0.000000
     8  O    2.408377   2.438105   0.000000
     9  F    4.469222   3.812881   4.807199   0.000000
    10  F    2.980694   2.919998   4.286519   2.150821   0.000000
    11  F    3.782743   4.430248   4.791594   2.151214   2.150142
    12  H    3.213954   2.439456   0.968159   4.960605   4.692327
                   11         12
    11  F    0.000000
    12  H    5.327174   0.000000
 Symmetry turned off by external request.
 Stoichiometry    C2HF5O3S
 Rotational constants (GHZ):           1.6045961           0.8366274           0.7894261
 Leave Link  202 at Sat May 24 04:04:06 2025, MaxMem=  3758096384 cpu:               0.0 elap:               0.0
 (Enter /apps/easybuild-2022/easybuild/software/Compiler/NVHPC/22.11-CUDA-11.7.0/Gaussian/g16c01-CUDA-11.7.0/g16/l301.exe)
 Standard basis: def2TZVPP (5D, 7F)
 Ernie: Thresh=  0.10000D-02 Tol=  0.10000D-05 Strict=F.
   366 basis functions,   596 primitive gaussians,   423 cartesian basis functions
    49 alpha electrons       49 beta electrons
       nuclear repulsion energy       929.8190844785 Hartrees.
 IExCor= 4336 DFT=T Ex+Corr=M062X ExCW=0 ScaHFX=  0.540000
 ScaDFX=  1.000000  1.000000  1.000000  1.000000 ScalE2=  1.000000  1.000000
 IRadAn=      5 IRanWt=     -1 IRanGd=            0 ICorTp=0 IEmpDi=  4
 NAtoms=   12 NActive=   12 NUniq=   12 SFac= 1.00D+00 NAtFMM=   60 NAOKFM=F Big=F
 Integral buffers will be    131072 words long.
 Raffenetti 2 integral format.
 Two-electron integral symmetry is turned off.
 Leave Link  301 at Sat May 24 04:04:06 2025, MaxMem=  3758096384 cpu:               0.1 elap:               0.0
 (Enter /apps/easybuild-2022/easybuild/software/Compiler/NVHPC/22.11-CUDA-11.7.0/Gaussian/g16c01-CUDA-11.7.0/g16/l302.exe)
 NPDir=0 NMtPBC=     1 NCelOv=     1 NCel=       1 NClECP=     1 NCelD=      1
         NCelK=      1 NCelE2=     1 NClLst=     1 CellRange=     0.0.
 One-electron integrals computed using PRISM.
   1 Symmetry operations used in ECPInt.
 ECPInt:  NShTT=    8515 NPrTT=   27988 LenC2=    8005 LenP2D=   19455.
 LDataN:  DoStor=T MaxTD1= 6 Len=  172
 NBasis=   366 RedAO= T EigKep=  4.18D-04  NBF=   366
 NBsUse=   366 1.00D-06 EigRej= -1.00D+00 NBFU=   366
 Precomputing XC quadrature grid using
 IXCGrd= 4 IRadAn=           5 IRanWt=          -1 IRanGd=           0 AccXCQ= 0.00D+00.
 Generated NRdTot=       0 NPtTot=           0 NUsed=           0 NTot=          32
 NSgBfM=   419   419   419   419   419 MxSgAt=    12 MxSgA2=    12.
 Leave Link  302 at Sat May 24 04:04:06 2025, MaxMem=  3758096384 cpu:               1.0 elap:               0.2
 (Enter /apps/easybuild-2022/easybuild/software/Compiler/NVHPC/22.11-CUDA-11.7.0/Gaussian/g16c01-CUDA-11.7.0/g16/l303.exe)
 DipDrv:  MaxL=1.
 Leave Link  303 at Sat May 24 04:04:06 2025, MaxMem=  3758096384 cpu:               0.1 elap:               0.0
 (Enter /apps/easybuild-2022/easybuild/software/Compiler/NVHPC/22.11-CUDA-11.7.0/Gaussian/g16c01-CUDA-11.7.0/g16/l401.exe)
 Initial guess from the checkpoint file:  "2003846667223680600001_r12_insertion_R_6_5_2_IRC_F.chk"
 B after Tr=    -0.000001   -0.000001   -0.000001
         Rot=    1.000000   -0.000001   -0.000001   -0.000001 Ang=  -0.00 deg.
 Guess basis will be translated and rotated to current coordinates.
 JPrj=2 DoOrth=T DoCkMO=T.
 Generating alternative initial guess.
 ExpMin= 9.52D-02 ExpMax= 6.07D+04 ExpMxC= 2.07D+03 IAcc=3 IRadAn=         5 AccDes= 0.00D+00
 Harris functional with IExCor= 1009 and IRadAn=       5 diagonalized for initial guess.
 HarFok:  IExCor= 1009 AccDes= 0.00D+00 IRadAn=         5 IDoV= 1 UseB2=F ITyADJ=14
 ICtDFT=  3500011 ScaDFX=  1.000000  1.000000  1.000000  1.000000
 FoFCou: FMM=F IPFlag=           0 FMFlag=      100000 FMFlg1=           0
         NFxFlg=           0 DoJE=T BraDBF=F KetDBF=T FulRan=T
         wScrn=  0.000000 ICntrl=       500 IOpCl=  0 I1Cent=   200000004 NGrid=           0
         NMat0=    1 NMatS0=      1 NMatT0=    0 NMatD0=    1 NMtDS0=    0 NMtDT0=    0
 Symmetry not used in FoFCou.
 Harris En= -1199.33959808579    
 Leave Link  401 at Sat May 24 04:04:07 2025, MaxMem=  3758096384 cpu:               5.3 elap:               0.9
 (Enter /apps/easybuild-2022/easybuild/software/Compiler/NVHPC/22.11-CUDA-11.7.0/Gaussian/g16c01-CUDA-11.7.0/g16/l502.exe)
 Keep R1 ints in memory in canonical form, NReq=2293446996.
 FoFCou: FMM=F IPFlag=           0 FMFlag=           0 FMFlg1=           0
         NFxFlg=           0 DoJE=F BraDBF=F KetDBF=F FulRan=T
         wScrn=  0.000000 ICntrl=       600 IOpCl=  0 I1Cent=           0 NGrid=           0
         NMat0=    1 NMatS0=  67161 NMatT0=    0 NMatD0=    1 NMtDS0=    0 NMtDT0=    0
 Symmetry not used in FoFCou.
 Two-electron integral symmetry not used.
 Closed shell SCF:
 Using DIIS extrapolation, IDIIS=  1040.
 NGot=  3758096384 LenX=  1502398672 LenY=  1502219302
 Requested convergence on RMS density matrix=1.00D-08 within  32 cycles.
 Requested convergence on MAX density matrix=1.00D-06.
 Requested convergence on             energy=1.00D-06.
 No special actions if energy rises.
 Integral accuracy reduced to 1.0D-05 until final iterations.

 Cycle   1  Pass 0  IDiag  1:
 E= -1199.93641872765    
 DIIS: error= 2.93D-05 at cycle   1 NSaved=   1.
 NSaved= 1 IEnMin= 1 EnMin= -1199.93641872765     IErMin= 1 ErrMin= 2.93D-05
 ErrMax= 2.93D-05  0.00D+00 EMaxC= 1.00D-01 BMatC= 7.18D-07 BMatP= 7.18D-07
 IDIUse=1 WtCom= 1.00D+00 WtEn= 0.00D+00
 Coeff-Com:  0.100D+01
 Coeff:      0.100D+01
 Gap=     1.072 Goal=   None    Shift=    0.000
 RMSDP=7.84D-06 MaxDP=3.50D-04              OVMax= 9.02D-05

 Initial convergence to 1.0D-05 achieved.  Increase integral accuracy.
 Cycle   2  Pass 1  IDiag  1:
 E= -1199.93649612478     Delta-E=       -0.000077397131 Rises=F Damp=F
 DIIS: error= 2.79D-05 at cycle   1 NSaved=   1.
 NSaved= 1 IEnMin= 1 EnMin= -1199.93649612478     IErMin= 1 ErrMin= 2.79D-05
 ErrMax= 2.79D-05  0.00D+00 EMaxC= 1.00D-01 BMatC= 6.43D-07 BMatP= 6.43D-07
 IDIUse=1 WtCom= 1.00D+00 WtEn= 0.00D+00
 Coeff-Com:  0.100D+01
 Coeff:      0.100D+01
 Gap=     0.446 Goal=   None    Shift=    0.000
 RMSDP=7.84D-06 MaxDP=3.50D-04 DE=-7.74D-05 OVMax= 8.56D-05

 Cycle   3  Pass 1  IDiag  1:
 E= -1199.93649654556     Delta-E=       -0.000000420784 Rises=F Damp=F
 DIIS: error= 4.19D-06 at cycle   2 NSaved=   2.
 NSaved= 2 IEnMin= 2 EnMin= -1199.93649654556     IErMin= 2 ErrMin= 4.19D-06
 ErrMax= 4.19D-06  0.00D+00 EMaxC= 1.00D-01 BMatC= 3.11D-08 BMatP= 6.43D-07
 IDIUse=1 WtCom= 1.00D+00 WtEn= 0.00D+00
 Coeff-Com:  0.217D-01 0.978D+00
 Coeff:      0.217D-01 0.978D+00
 Gap=     0.446 Goal=   None    Shift=    0.000
 RMSDP=7.80D-07 MaxDP=3.51D-05 DE=-4.21D-07 OVMax= 5.16D-05

 Cycle   4  Pass 1  IDiag  1:
 E= -1199.93649654597     Delta-E=       -0.000000000404 Rises=F Damp=F
 DIIS: error= 5.78D-06 at cycle   3 NSaved=   3.
 NSaved= 3 IEnMin= 3 EnMin= -1199.93649654597     IErMin= 2 ErrMin= 4.19D-06
 ErrMax= 5.78D-06  0.00D+00 EMaxC= 1.00D-01 BMatC= 3.72D-08 BMatP= 3.11D-08
 IDIUse=1 WtCom= 1.00D+00 WtEn= 0.00D+00
 Coeff-Com: -0.300D-01 0.538D+00 0.492D+00
 Coeff:     -0.300D-01 0.538D+00 0.492D+00
 Gap=     0.446 Goal=   None    Shift=    0.000
 RMSDP=2.72D-07 MaxDP=1.32D-05 DE=-4.04D-10 OVMax= 2.70D-05

 Cycle   5  Pass 1  IDiag  1:
 E= -1199.93649656789     Delta-E=       -0.000000021921 Rises=F Damp=F
 DIIS: error= 6.72D-07 at cycle   4 NSaved=   4.
 NSaved= 4 IEnMin= 4 EnMin= -1199.93649656789     IErMin= 4 ErrMin= 6.72D-07
 ErrMax= 6.72D-07  0.00D+00 EMaxC= 1.00D-01 BMatC= 4.81D-10 BMatP= 3.11D-08
 IDIUse=1 WtCom= 1.00D+00 WtEn= 0.00D+00
 Coeff-Com: -0.106D-01 0.129D+00 0.150D+00 0.731D+00
 Coeff:     -0.106D-01 0.129D+00 0.150D+00 0.731D+00
 Gap=     0.446 Goal=   None    Shift=    0.000
 RMSDP=5.77D-08 MaxDP=5.09D-06 DE=-2.19D-08 OVMax= 5.05D-06

 Cycle   6  Pass 1  IDiag  1:
 E= -1199.93649656827     Delta-E=       -0.000000000383 Rises=F Damp=F
 DIIS: error= 3.62D-07 at cycle   5 NSaved=   5.
 NSaved= 5 IEnMin= 5 EnMin= -1199.93649656827     IErMin= 5 ErrMin= 3.62D-07
 ErrMax= 3.62D-07  0.00D+00 EMaxC= 1.00D-01 BMatC= 1.27D-10 BMatP= 4.81D-10
 IDIUse=1 WtCom= 1.00D+00 WtEn= 0.00D+00
 Coeff-Com: -0.473D-03-0.195D-01-0.643D-02 0.334D+00 0.693D+00
 Coeff:     -0.473D-03-0.195D-01-0.643D-02 0.334D+00 0.693D+00
 Gap=     0.446 Goal=   None    Shift=    0.000
 RMSDP=2.59D-08 MaxDP=1.89D-06 DE=-3.83D-10 OVMax= 2.33D-06

 Cycle   7  Pass 1  IDiag  1:
 E= -1199.93649656831     Delta-E=       -0.000000000040 Rises=F Damp=F
 DIIS: error= 1.13D-07 at cycle   6 NSaved=   6.
 NSaved= 6 IEnMin= 6 EnMin= -1199.93649656831     IErMin= 6 ErrMin= 1.13D-07
 ErrMax= 1.13D-07  0.00D+00 EMaxC= 1.00D-01 BMatC= 1.27D-11 BMatP= 1.27D-10
 IDIUse=1 WtCom= 1.00D+00 WtEn= 0.00D+00
 Coeff-Com:  0.937D-03-0.226D-01-0.183D-01 0.795D-01 0.316D+00 0.645D+00
 Coeff:      0.937D-03-0.226D-01-0.183D-01 0.795D-01 0.316D+00 0.645D+00
 Gap=     0.446 Goal=   None    Shift=    0.000
 RMSDP=7.01D-09 MaxDP=3.15D-07 DE=-4.00D-11 OVMax= 7.39D-07

 SCF Done:  E(RM062X) =  -1199.93649657     A.U. after    7 cycles
            NFock=  7  Conv=0.70D-08     -V/T= 2.0029
 KE= 1.196518909269D+03 PE=-4.705848847886D+03 EE= 1.379574357570D+03
 Leave Link  502 at Sat May 24 04:04:35 2025, MaxMem=  3758096384 cpu:             122.7 elap:              27.4
 (Enter /apps/easybuild-2022/easybuild/software/Compiler/NVHPC/22.11-CUDA-11.7.0/Gaussian/g16c01-CUDA-11.7.0/g16/l508.exe)
 QCSCF skips out because SCF is already converged.
 Leave Link  508 at Sat May 24 04:04:35 2025, MaxMem=  3758096384 cpu:               0.1 elap:               0.0
 (Enter /apps/easybuild-2022/easybuild/software/Compiler/NVHPC/22.11-CUDA-11.7.0/Gaussian/g16c01-CUDA-11.7.0/g16/l801.exe)
 DoSCS=F DFT=T ScalE2(SS,OS)=  1.000000  1.000000
 Range of M.O.s used for correlation:     1   366
 NBasis=   366 NAE=    49 NBE=    49 NFC=     0 NFV=     0
 NROrb=    366 NOA=    49 NOB=    49 NVA=   317 NVB=   317

 **** Warning!!: The largest alpha MO coefficient is  0.17646910D+02

 Leave Link  801 at Sat May 24 04:04:35 2025, MaxMem=  3758096384 cpu:               0.1 elap:               0.0
 (Enter /apps/easybuild-2022/easybuild/software/Compiler/NVHPC/22.11-CUDA-11.7.0/Gaussian/g16c01-CUDA-11.7.0/g16/l1101.exe)
 Leave Link 1101 at Sat May 24 04:04:35 2025, MaxMem=  3758096384 cpu:               0.1 elap:               0.0
 (Enter /apps/easybuild-2022/easybuild/software/Compiler/NVHPC/22.11-CUDA-11.7.0/Gaussian/g16c01-CUDA-11.7.0/g16/l1102.exe)
 Symmetrizing basis deriv contribution to polar:
 IMax=3 JMax=2 DiffMx= 0.00D+00
 Leave Link 1102 at Sat May 24 04:04:35 2025, MaxMem=  3758096384 cpu:               0.1 elap:               0.1
 (Enter /apps/easybuild-2022/easybuild/software/Compiler/NVHPC/22.11-CUDA-11.7.0/Gaussian/g16c01-CUDA-11.7.0/g16/l1110.exe)
 Leave Link 1110 at Sat May 24 04:04:35 2025, MaxMem=  3758096384 cpu:               0.1 elap:               0.0
 (Enter /apps/easybuild-2022/easybuild/software/Compiler/NVHPC/22.11-CUDA-11.7.0/Gaussian/g16c01-CUDA-11.7.0/g16/l1002.exe)
 Minotr:  Closed shell wavefunction.
 Leave Link 1002 at Sat May 24 04:04:35 2025, MaxMem=  3758096384 cpu:               0.1 elap:               0.0
 (Enter /apps/easybuild-2022/easybuild/software/Compiler/NVHPC/22.11-CUDA-11.7.0/Gaussian/g16c01-CUDA-11.7.0/g16/l701.exe)
 ... and contract with generalized density number  0.
 Compute integral first derivatives.
   1 Symmetry operations used in ECPInt.
 ECPInt:  NShTT=    8515 NPrTT=   27988 LenC2=    8005 LenP2D=   19455.
 LDataN:  DoStor=T MaxTD1= 7 Len=  274
 Leave Link  701 at Sat May 24 04:04:35 2025, MaxMem=  3758096384 cpu:               0.8 elap:               0.2
 (Enter /apps/easybuild-2022/easybuild/software/Compiler/NVHPC/22.11-CUDA-11.7.0/Gaussian/g16c01-CUDA-11.7.0/g16/l702.exe)
 L702 exits ... SP integral derivatives will be done elsewhere.
 Leave Link  702 at Sat May 24 04:04:35 2025, MaxMem=  3758096384 cpu:               0.0 elap:               0.0
 (Enter /apps/easybuild-2022/easybuild/software/Compiler/NVHPC/22.11-CUDA-11.7.0/Gaussian/g16c01-CUDA-11.7.0/g16/l703.exe)
 Integral derivatives from FoFJK, PRISM(SPDF).
 Compute integral first derivatives, UseDBF=F ICtDFT=           0.
 Calling FoFJK, ICntrl=      2127 FMM=F ISym2X=0 I1Cent= 0 IOpClX= 0 NMat=1 NMatS=1 NMatT=0.
 FoFJK:  IHMeth= 1 ICntrl=    2127 DoSepK=F KAlg= 0 I1Cent=           0 FoldK=F
 IRaf=         0 NMat=       1 IRICut=       1 DoRegI=T DoRafI=F ISym2E= 0 IDoP0=0 IntGTp=1.
 FoFCou: FMM=F IPFlag=           0 FMFlag=      100000 FMFlg1=         800
         NFxFlg=           0 DoJE=F BraDBF=F KetDBF=F FulRan=T
         wScrn=  0.000000 ICntrl=      2127 IOpCl=  0 I1Cent=           0 NGrid=           0
         NMat0=    1 NMatS0=      1 NMatT0=    0 NMatD0=    1 NMtDS0=    0 NMtDT0=    0
 Symmetry not used in FoFCou.
 Leave Link  703 at Sat May 24 04:04:48 2025, MaxMem=  3758096384 cpu:             100.3 elap:              13.2
 (Enter /apps/easybuild-2022/easybuild/software/Compiler/NVHPC/22.11-CUDA-11.7.0/Gaussian/g16c01-CUDA-11.7.0/g16/l716.exe)
 Dipole        =-6.32287387D-02 6.98738173D-01-8.24697827D-01
 Polarizability= 0.00000000D+00 0.00000000D+00 0.00000000D+00
                 0.00000000D+00 0.00000000D+00 0.00000000D+00
 -------------------------------------------------------------------
 Center     Atomic                   Forces (Hartrees/Bohr)
 Number     Number              X              Y              Z
 -------------------------------------------------------------------
      1        6           0.000000986   -0.000001290   -0.000000828
      2        6           0.000000649   -0.000001879   -0.000004515
      3        9           0.000010200   -0.000013243   -0.000010375
      4        9          -0.000006466    0.000001664   -0.000018939
      5       16          -0.000003211    0.000006115    0.000009797
      6        8          -0.000010684   -0.000001732    0.000005251
      7        8           0.000008570    0.000009251    0.000006182
      8        8          -0.000005463    0.000005854    0.000012473
      9        9          -0.000030145    0.000011691    0.000008391
     10        9           0.000009207   -0.000010248   -0.000033544
     11        9           0.000026207   -0.000006819    0.000025215
     12        1           0.000000151    0.000000637    0.000000892
 -------------------------------------------------------------------
 Cartesian Forces:  Max     0.000033544 RMS     0.000012161
 Leave Link  716 at Sat May 24 04:04:48 2025, MaxMem=  3758096384 cpu:               0.0 elap:               0.0
 (Enter /apps/easybuild-2022/easybuild/software/Compiler/NVHPC/22.11-CUDA-11.7.0/Gaussian/g16c01-CUDA-11.7.0/g16/l123.exe)
 IRC-IRC-IRC-IRC-IRC-IRC-IRC-IRC-IRC-IRC-IRC-IRC-IRC-IRC-IRC-IRC-IRC-IRC
 Error in corrector energy =           0.0000000001
 Magnitude of corrector gradient =     0.0000729733
 Magnitude of analytic gradient =      0.0000729687
 Magnitude of difference =             0.0000001313
 Angle between gradients (degrees)=    0.1031
 Pt  1 Step number   3 out of a maximum of  20
 Using modified Bulirsch-Stoer corrector integration.
   Using distance weighted interpolants to fit PES.
 PreDWI: IReCr0= 2 IReCr1= 1 IReCr2= 1 IReCr3= 1
 Modified Bulirsch-Stoer Extrapolation Cycles:
    EPS =    0.000010000000000
    Cycle     1 NS=    48
      PEZero:  N= 2 I= 1 D=  2.19D-04 Err=  3.69D-04
    Cycle     2 NS=    64 Truncation Error =  0.000368699
      PEZero:  N= 3 I= 2 D=  2.19D-04 Err=  7.82D-04
      PEZero:  N= 3 I= 1 D=  4.39D-04 Err=  8.04D-04
    Cycle     3 NS=    96 Truncation Error =  0.000781887
      PEZero:  N= 4 I= 3 D=  1.10D-04 Err=  1.65D-03
      PEZero:  N= 4 I= 2 D=  3.29D-04 Err=  1.42D-03
      PEZero:  N= 4 I= 1 D=  5.49D-04 Err=  1.24D-03
    Cycle     4 NS=   128 Truncation Error =  0.001236729
      PEZero:  N= 5 I= 4 D=  1.10D-04 Err=  2.58D-03
      PEZero:  N= 5 I= 3 D=  2.19D-04 Err=  2.22D-03
      PEZero:  N= 5 I= 2 D=  4.39D-04 Err=  1.51D-03
      PEZero:  N= 5 I= 1 D=  6.58D-04 Err=  1.10D-03
    Cycle     5 NS=   192 Truncation Error =  0.001098848
      PEZero:  N= 6 I= 5 D=  5.49D-05 Err=  4.14D-03
      PEZero:  N= 6 I= 4 D=  1.65D-04 Err=  2.94D-03
      PEZero:  N= 6 I= 3 D=  2.74D-04 Err=  2.19D-03
      PEZero:  N= 6 I= 2 D=  4.94D-04 Err=  1.44D-03
      PEZero:  N= 6 I= 1 D=  7.13D-04 Err=  1.08D-03
    Cycle     6 NS=   256 Truncation Error =  0.001079511
      PEZero:  N= 7 I= 6 D=  5.49D-05 Err=  5.82D-03
      PEZero:  N= 7 I= 5 D=  1.10D-04 Err=  4.59D-03
      PEZero:  N= 7 I= 4 D=  2.19D-04 Err=  3.12D-03
      PEZero:  N= 7 I= 3 D=  3.29D-04 Err=  2.39D-03
      PEZero:  N= 7 I= 2 D=  5.49D-04 Err=  1.62D-03
      PEZero:  N= 7 I= 1 D=  7.68D-04 Err=  1.23D-03
    Cycle     7 NS=   384 Truncation Error =  0.001234904
      PEZero:  N= 8 I= 7 D=  2.74D-05 Err=  9.28D-03
      PEZero:  N= 8 I= 6 D=  8.23D-05 Err=  6.56D-03
      PEZero:  N= 8 I= 5 D=  1.37D-04 Err=  5.11D-03
      PEZero:  N= 8 I= 4 D=  2.47D-04 Err=  3.51D-03
      PEZero:  N= 8 I= 3 D=  3.57D-04 Err=  2.69D-03
      PEZero:  N= 8 I= 2 D=  5.76D-04 Err=  1.82D-03
      PEZero:  N= 8 I= 1 D=  7.95D-04 Err=  1.37D-03
    Cycle     8 NS=   512 Truncation Error =  0.001374697
      PEZero:  N= 9 I= 8 D=  2.74D-05 Err=  1.27D-02
      PEZero:  N= 9 I= 7 D=  5.49D-05 Err=  9.71D-03
      PEZero:  N= 9 I= 6 D=  1.10D-04 Err=  6.44D-03
      PEZero:  N= 9 I= 5 D=  1.65D-04 Err=  4.73D-03
      PEZero:  N= 9 I= 4 D=  2.74D-04 Err=  3.08D-03
      PEZero:  N= 9 I= 3 D=  3.84D-04 Err=  2.26D-03
      PEZero:  N= 9 I= 2 D=  6.03D-04 Err=  1.48D-03
      PEZero:  N= 9 I= 1 D=  8.23D-04 Err=  1.09D-03
    Cycle     9 NS=   768 Truncation Error =  0.001090734
      PEZero:  N=10 I= 9 D=  1.37D-05 Err=  3.27D-03
      PEZero:  N=10 I= 8 D=  4.11D-05 Err=  8.30D-03
    Cycle    10 NS=  1024 Truncation Error =  0.003272107
      PEZero:  N=11 I=10 D=  1.37D-05 Err=  1.31D-05
      PEZero:  N=11 I= 9 D=  2.74D-05 Err=  3.25D-03
    Cycle    11 NS=  1536 Truncation Error =  0.000013095
 Maximum DWI energy   std dev =  0.000000006 at pt     5
 Maximum DWI gradient std dev =  0.306263865 at pt   121
 WARNING: Bulirsch-Stoer Method is not Converging
 SUMMARY OF CORRECTOR INTEGRATION:
   Predictor End Point Energy = -1199.936497
   Old End Point Energy       = -1199.936497
   Corrected End Point Energy = -1199.936497
   Predictor End-Start Dist.  =     0.084264
   Old End-Start Dist.        =     0.084005
   New End-Start Dist.        =     0.084005
   New End-Old End Dist.      =     0.000005
 CORRECTOR INTEGRATION CONVERGENCE:
   Recorrection delta-x convergence threshold:    0.010000
   Delta-x Convergence NOT Met
 IRC-IRC-IRC-IRC-IRC-IRC-IRC-IRC-IRC-IRC-IRC-IRC-IRC-IRC-IRC-IRC-IRC-IRC
 Leave Link  123 at Sat May 24 04:04:49 2025, MaxMem=  3758096384 cpu:               1.8 elap:               0.3
 (Enter /apps/easybuild-2022/easybuild/software/Compiler/NVHPC/22.11-CUDA-11.7.0/Gaussian/g16c01-CUDA-11.7.0/g16/l202.exe)
                          Input orientation:                          
 ---------------------------------------------------------------------
 Center     Atomic      Atomic             Coordinates (Angstroms)
 Number     Number       Type             X           Y           Z
 ---------------------------------------------------------------------
      1          6           0       -1.161504   -0.944338    0.022997
      2          6           0       -0.445484    0.433338   -0.226033
      3          9           0       -0.538815    0.763361   -1.517656
      4          9           0       -1.026955    1.381045    0.502136
      5         16           0        1.347574    0.401025    0.196597
      6          8           0        1.450676    0.276337    1.599132
      7          8           0        1.982511   -0.468066   -0.728641
      8          8           0        1.698992    1.888771   -0.172500
      9          9           0       -1.700742   -1.380208   -1.102418
     10          9           0       -0.298586   -1.850876    0.459140
     11          9           0       -2.113641   -0.797287    0.926729
     12          1           0        1.981771    1.943445   -1.096826
 ---------------------------------------------------------------------
                    Distance matrix (angstroms):
                    1          2          3          4          5
     1  C    0.000000
     2  C    1.572479   0.000000
     3  F    2.382770   1.336381   0.000000
     4  F    2.378042   1.329093   2.167804   0.000000
     5  S    2.852300   1.842476   2.574571   2.586925   0.000000
     6  O    3.285991   2.636532   3.729562   2.926163   1.411836
     7  O    3.267511   2.638239   2.914797   3.740442   1.419341
     8  O    4.030777   2.592283   2.843197   2.853718   1.572614
     9  F    1.321862   2.373325   2.473335   3.263909   3.761976
    10  F    1.325390   2.389283   3.286285   3.313258   2.801755
    11  F    1.320954   2.371928   3.300109   2.471092   3.734843
    12  H    4.412876   2.988356   2.814791   3.453318   2.110499
                    6          7          8          9         10
     6  O    0.000000
     7  O    2.501102   0.000000
     8  O    2.408377   2.438105   0.000000
     9  F    4.469222   3.812881   4.807199   0.000000
    10  F    2.980694   2.919998   4.286519   2.150821   0.000000
    11  F    3.782743   4.430248   4.791594   2.151214   2.150142
    12  H    3.213954   2.439456   0.968159   4.960605   4.692327
                   11         12
    11  F    0.000000
    12  H    5.327174   0.000000
 Symmetry turned off by external request.
 Stoichiometry    C2HF5O3S
 Rotational constants (GHZ):           1.6045961           0.8366274           0.7894261
 Leave Link  202 at Sat May 24 04:04:49 2025, MaxMem=  3758096384 cpu:               0.1 elap:               0.0
 (Enter /apps/easybuild-2022/easybuild/software/Compiler/NVHPC/22.11-CUDA-11.7.0/Gaussian/g16c01-CUDA-11.7.0/g16/l301.exe)
 Standard basis: def2TZVPP (5D, 7F)
 Ernie: Thresh=  0.10000D-02 Tol=  0.10000D-05 Strict=F.
   366 basis functions,   596 primitive gaussians,   423 cartesian basis functions
    49 alpha electrons       49 beta electrons
       nuclear repulsion energy       929.8190868455 Hartrees.
 IExCor= 4336 DFT=T Ex+Corr=M062X ExCW=0 ScaHFX=  0.540000
 ScaDFX=  1.000000  1.000000  1.000000  1.000000 ScalE2=  1.000000  1.000000
 IRadAn=      5 IRanWt=     -1 IRanGd=            0 ICorTp=0 IEmpDi=  4
 NAtoms=   12 NActive=   12 NUniq=   12 SFac= 1.00D+00 NAtFMM=   60 NAOKFM=F Big=F
 Integral buffers will be    131072 words long.
 Raffenetti 2 integral format.
 Two-electron integral symmetry is turned off.
 Leave Link  301 at Sat May 24 04:04:49 2025, MaxMem=  3758096384 cpu:               0.1 elap:               0.0
 (Enter /apps/easybuild-2022/easybuild/software/Compiler/NVHPC/22.11-CUDA-11.7.0/Gaussian/g16c01-CUDA-11.7.0/g16/l302.exe)
 NPDir=0 NMtPBC=     1 NCelOv=     1 NCel=       1 NClECP=     1 NCelD=      1
         NCelK=      1 NCelE2=     1 NClLst=     1 CellRange=     0.0.
 One-electron integrals computed using PRISM.
   1 Symmetry operations used in ECPInt.
 ECPInt:  NShTT=    8515 NPrTT=   27988 LenC2=    8005 LenP2D=   19455.
 LDataN:  DoStor=T MaxTD1= 6 Len=  172
 NBasis=   366 RedAO= T EigKep=  4.18D-04  NBF=   366
 NBsUse=   366 1.00D-06 EigRej= -1.00D+00 NBFU=   366
 Precomputing XC quadrature grid using
 IXCGrd= 4 IRadAn=           5 IRanWt=          -1 IRanGd=           0 AccXCQ= 0.00D+00.
 Generated NRdTot=       0 NPtTot=           0 NUsed=           0 NTot=          32
 NSgBfM=   419   419   419   419   419 MxSgAt=    12 MxSgA2=    12.
 Leave Link  302 at Sat May 24 04:04:49 2025, MaxMem=  3758096384 cpu:               1.2 elap:               0.3
 (Enter /apps/easybuild-2022/easybuild/software/Compiler/NVHPC/22.11-CUDA-11.7.0/Gaussian/g16c01-CUDA-11.7.0/g16/l303.exe)
 DipDrv:  MaxL=1.
 Leave Link  303 at Sat May 24 04:04:49 2025, MaxMem=  3758096384 cpu:               0.2 elap:               0.1
 (Enter /apps/easybuild-2022/easybuild/software/Compiler/NVHPC/22.11-CUDA-11.7.0/Gaussian/g16c01-CUDA-11.7.0/g16/l401.exe)
 Initial guess from the checkpoint file:  "2003846667223680600001_r12_insertion_R_6_5_2_IRC_F.chk"
 B after Tr=    -0.000000   -0.000000   -0.000000
         Rot=    1.000000   -0.000000   -0.000000   -0.000000 Ang=  -0.00 deg.
 Guess basis will be translated and rotated to current coordinates.
 JPrj=2 DoOrth=T DoCkMO=T.
 Generating alternative initial guess.
 ExpMin= 9.52D-02 ExpMax= 6.07D+04 ExpMxC= 2.07D+03 IAcc=3 IRadAn=         5 AccDes= 0.00D+00
 Harris functional with IExCor= 1009 and IRadAn=       5 diagonalized for initial guess.
 HarFok:  IExCor= 1009 AccDes= 0.00D+00 IRadAn=         5 IDoV= 1 UseB2=F ITyADJ=14
 ICtDFT=  3500011 ScaDFX=  1.000000  1.000000  1.000000  1.000000
 FoFCou: FMM=F IPFlag=           0 FMFlag=      100000 FMFlg1=           0
         NFxFlg=           0 DoJE=T BraDBF=F KetDBF=T FulRan=T
         wScrn=  0.000000 ICntrl=       500 IOpCl=  0 I1Cent=   200000004 NGrid=           0
         NMat0=    1 NMatS0=      1 NMatT0=    0 NMatD0=    1 NMtDS0=    0 NMtDT0=    0
 Symmetry not used in FoFCou.
 Harris En= -1199.33959807860    
 Leave Link  401 at Sat May 24 04:04:50 2025, MaxMem=  3758096384 cpu:               5.2 elap:               1.0
 (Enter /apps/easybuild-2022/easybuild/software/Compiler/NVHPC/22.11-CUDA-11.7.0/Gaussian/g16c01-CUDA-11.7.0/g16/l502.exe)
 Keep R1 ints in memory in canonical form, NReq=2293446996.
 FoFCou: FMM=F IPFlag=           0 FMFlag=           0 FMFlg1=           0
         NFxFlg=           0 DoJE=F BraDBF=F KetDBF=F FulRan=T
         wScrn=  0.000000 ICntrl=       600 IOpCl=  0 I1Cent=           0 NGrid=           0
         NMat0=    1 NMatS0=  67161 NMatT0=    0 NMatD0=    1 NMtDS0=    0 NMtDT0=    0
 Symmetry not used in FoFCou.
 Two-electron integral symmetry not used.
 Closed shell SCF:
 Using DIIS extrapolation, IDIIS=  1040.
 NGot=  3758096384 LenX=  1502398672 LenY=  1502219302
 Requested convergence on RMS density matrix=1.00D-08 within  32 cycles.
 Requested convergence on MAX density matrix=1.00D-06.
 Requested convergence on             energy=1.00D-06.
 No special actions if energy rises.
[...]
                    Distance matrix (angstroms):
                    1          2          3          4          5
     1  C    0.000000
     2  C    1.572479   0.000000
     3  F    2.382770   1.336381   0.000000
     4  F    2.378042   1.329093   2.167804   0.000000
     5  S    2.852300   1.842476   2.574571   2.586925   0.000000
     6  O    3.285991   2.636532   3.729562   2.926163   1.411836
     7  O    3.267511   2.638239   2.914797   3.740442   1.419341
     8  O    4.030777   2.592283   2.843197   2.853718   1.572614
     9  F    1.321862   2.373325   2.473335   3.263909   3.761976
    10  F    1.325390   2.389283   3.286285   3.313258   2.801755
    11  F    1.320954   2.371928   3.300109   2.471092   3.734843
    12  H    4.412876   2.988356   2.814791   3.453318   2.110499
                    6          7          8          9         10
     6  O    0.000000
     7  O    2.501102   0.000000
     8  O    2.408377   2.438105   0.000000
     9  F    4.469222   3.812881   4.807199   0.000000
    10  F    2.980694   2.919998   4.286519   2.150821   0.000000
    11  F    3.782743   4.430248   4.791594   2.151214   2.150142
    12  H    3.213954   2.439456   0.968159   4.960605   4.692327
                   11         12
    11  F    0.000000
    12  H    5.327174   0.000000
 Symmetry turned off by external request.
 Stoichiometry    C2HF5O3S
 Rotational constants (GHZ):           1.6045961           0.8366274           0.7894261
 Leave Link  202 at Sat May 24 04:16:42 2025, MaxMem=  3758096384 cpu:               0.1 elap:               0.0
 (Enter /apps/easybuild-2022/easybuild/software/Compiler/NVHPC/22.11-CUDA-11.7.0/Gaussian/g16c01-CUDA-11.7.0/g16/l301.exe)
 Standard basis: def2TZVPP (5D, 7F)
 Ernie: Thresh=  0.10000D-02 Tol=  0.10000D-05 Strict=F.
   366 basis functions,   596 primitive gaussians,   423 cartesian basis functions
    49 alpha electrons       49 beta electrons
       nuclear repulsion energy       929.8190868777 Hartrees.
 IExCor= 4336 DFT=T Ex+Corr=M062X ExCW=0 ScaHFX=  0.540000
 ScaDFX=  1.000000  1.000000  1.000000  1.000000 ScalE2=  1.000000  1.000000
 IRadAn=      5 IRanWt=     -1 IRanGd=            0 ICorTp=0 IEmpDi=  4
 NAtoms=   12 NActive=   12 NUniq=   12 SFac= 1.00D+00 NAtFMM=   60 NAOKFM=F Big=F
 Integral buffers will be    131072 words long.
 Raffenetti 2 integral format.
 Two-electron integral symmetry is turned off.
 Leave Link  301 at Sat May 24 04:16:42 2025, MaxMem=  3758096384 cpu:               0.1 elap:               0.0
 (Enter /apps/easybuild-2022/easybuild/software/Compiler/NVHPC/22.11-CUDA-11.7.0/Gaussian/g16c01-CUDA-11.7.0/g16/l302.exe)
 NPDir=0 NMtPBC=     1 NCelOv=     1 NCel=       1 NClECP=     1 NCelD=      1
         NCelK=      1 NCelE2=     1 NClLst=     1 CellRange=     0.0.
 One-electron integrals computed using PRISM.
   1 Symmetry operations used in ECPInt.
 ECPInt:  NShTT=    8515 NPrTT=   27988 LenC2=    8005 LenP2D=   19455.
 LDataN:  DoStor=T MaxTD1= 6 Len=  172
 NBasis=   366 RedAO= T EigKep=  4.18D-04  NBF=   366
 NBsUse=   366 1.00D-06 EigRej= -1.00D+00 NBFU=   366
 Precomputing XC quadrature grid using
 IXCGrd= 4 IRadAn=           5 IRanWt=          -1 IRanGd=           0 AccXCQ= 0.00D+00.
 Generated NRdTot=       0 NPtTot=           0 NUsed=           0 NTot=          32
 NSgBfM=   420   420   420   420   420 MxSgAt=    12 MxSgA2=    12.
 Leave Link  302 at Sat May 24 04:16:42 2025, MaxMem=  3758096384 cpu:               0.9 elap:               0.2
 (Enter /apps/easybuild-2022/easybuild/software/Compiler/NVHPC/22.11-CUDA-11.7.0/Gaussian/g16c01-CUDA-11.7.0/g16/l303.exe)
 DipDrv:  MaxL=1.
 Leave Link  303 at Sat May 24 04:16:42 2025, MaxMem=  3758096384 cpu:               0.1 elap:               0.0
 (Enter /apps/easybuild-2022/easybuild/software/Compiler/NVHPC/22.11-CUDA-11.7.0/Gaussian/g16c01-CUDA-11.7.0/g16/l401.exe)
 Initial guess from the checkpoint file:  "2003846667223680600001_r12_insertion_R_6_5_2_IRC_F.chk"
 B after Tr=     0.000000   -0.000000   -0.000000
         Rot=    1.000000   -0.000000    0.000000    0.000000 Ang=   0.00 deg.
 Guess basis will be translated and rotated to current coordinates.
 JPrj=2 DoOrth=T DoCkMO=T.
 Generating alternative initial guess.
 ExpMin= 9.52D-02 ExpMax= 6.07D+04 ExpMxC= 2.07D+03 IAcc=3 IRadAn=         5 AccDes= 0.00D+00
 Harris functional with IExCor= 1009 and IRadAn=       5 diagonalized for initial guess.
 HarFok:  IExCor= 1009 AccDes= 0.00D+00 IRadAn=         5 IDoV= 1 UseB2=F ITyADJ=14
 ICtDFT=  3500011 ScaDFX=  1.000000  1.000000  1.000000  1.000000
 FoFCou: FMM=F IPFlag=           0 FMFlag=      100000 FMFlg1=           0
         NFxFlg=           0 DoJE=T BraDBF=F KetDBF=T FulRan=T
         wScrn=  0.000000 ICntrl=       500 IOpCl=  0 I1Cent=   200000004 NGrid=           0
         NMat0=    1 NMatS0=      1 NMatT0=    0 NMatD0=    1 NMtDS0=    0 NMtDT0=    0
 Symmetry not used in FoFCou.
 Harris En= -1199.33959807852    
 Leave Link  401 at Sat May 24 04:16:43 2025, MaxMem=  3758096384 cpu:               5.1 elap:               1.1
 (Enter /apps/easybuild-2022/easybuild/software/Compiler/NVHPC/22.11-CUDA-11.7.0/Gaussian/g16c01-CUDA-11.7.0/g16/l502.exe)
 Keep R1 ints in memory in canonical form, NReq=2293446996.
 FoFCou: FMM=F IPFlag=           0 FMFlag=           0 FMFlg1=           0
         NFxFlg=           0 DoJE=F BraDBF=F KetDBF=F FulRan=T
         wScrn=  0.000000 ICntrl=       600 IOpCl=  0 I1Cent=           0 NGrid=           0
         NMat0=    1 NMatS0=  67161 NMatT0=    0 NMatD0=    1 NMtDS0=    0 NMtDT0=    0
 Symmetry not used in FoFCou.
 Two-electron integral symmetry not used.
 Closed shell SCF:
 Using DIIS extrapolation, IDIIS=  1040.
 NGot=  3758096384 LenX=  1502398672 LenY=  1502219302
 Requested convergence on RMS density matrix=1.00D-08 within  32 cycles.
 Requested convergence on MAX density matrix=1.00D-06.
 Requested convergence on             energy=1.00D-06.
 No special actions if energy rises.
 Integral accuracy reduced to 1.0D-05 until final iterations.

 Cycle   1  Pass 0  IDiag  1:
 E= -1199.93641872792    
 DIIS: error= 2.93D-05 at cycle   1 NSaved=   1.
 NSaved= 1 IEnMin= 1 EnMin= -1199.93641872792     IErMin= 1 ErrMin= 2.93D-05
 ErrMax= 2.93D-05  0.00D+00 EMaxC= 1.00D-01 BMatC= 7.18D-07 BMatP= 7.18D-07
 IDIUse=1 WtCom= 1.00D+00 WtEn= 0.00D+00
 Coeff-Com:  0.100D+01
 Coeff:      0.100D+01
 Gap=     1.072 Goal=   None    Shift=    0.000
 RMSDP=7.84D-06 MaxDP=3.50D-04              OVMax= 8.99D-05

 Initial convergence to 1.0D-05 achieved.  Increase integral accuracy.
 Cycle   2  Pass 1  IDiag  1:
 E= -1199.93649612467     Delta-E=       -0.000077396752 Rises=F Damp=F
 DIIS: error= 2.79D-05 at cycle   1 NSaved=   1.
 NSaved= 1 IEnMin= 1 EnMin= -1199.93649612467     IErMin= 1 ErrMin= 2.79D-05
 ErrMax= 2.79D-05  0.00D+00 EMaxC= 1.00D-01 BMatC= 6.43D-07 BMatP= 6.43D-07
 IDIUse=1 WtCom= 1.00D+00 WtEn= 0.00D+00
 Coeff-Com:  0.100D+01
 Coeff:      0.100D+01
 Gap=     0.446 Goal=   None    Shift=    0.000
 RMSDP=7.84D-06 MaxDP=3.50D-04 DE=-7.74D-05 OVMax= 8.56D-05

 Cycle   3  Pass 1  IDiag  1:
 E= -1199.93649654558     Delta-E=       -0.000000420910 Rises=F Damp=F
 DIIS: error= 4.19D-06 at cycle   2 NSaved=   2.
 NSaved= 2 IEnMin= 2 EnMin= -1199.93649654558     IErMin= 2 ErrMin= 4.19D-06
 ErrMax= 4.19D-06  0.00D+00 EMaxC= 1.00D-01 BMatC= 3.10D-08 BMatP= 6.43D-07
 IDIUse=1 WtCom= 1.00D+00 WtEn= 0.00D+00
 Coeff-Com:  0.216D-01 0.978D+00
 Coeff:      0.216D-01 0.978D+00
 Gap=     0.446 Goal=   None    Shift=    0.000
 RMSDP=7.81D-07 MaxDP=3.51D-05 DE=-4.21D-07 OVMax= 5.16D-05

 Cycle   4  Pass 1  IDiag  1:
 E= -1199.93649654594     Delta-E=       -0.000000000361 Rises=F Damp=F
 DIIS: error= 5.76D-06 at cycle   3 NSaved=   3.
 NSaved= 3 IEnMin= 3 EnMin= -1199.93649654594     IErMin= 2 ErrMin= 4.19D-06
 ErrMax= 5.76D-06  0.00D+00 EMaxC= 1.00D-01 BMatC= 3.72D-08 BMatP= 3.10D-08
 IDIUse=1 WtCom= 1.00D+00 WtEn= 0.00D+00
 Coeff-Com: -0.300D-01 0.538D+00 0.492D+00
 Coeff:     -0.300D-01 0.538D+00 0.492D+00
 Gap=     0.446 Goal=   None    Shift=    0.000
 RMSDP=2.72D-07 MaxDP=1.32D-05 DE=-3.61D-10 OVMax= 2.70D-05

 Cycle   5  Pass 1  IDiag  1:
 E= -1199.93649656782     Delta-E=       -0.000000021878 Rises=F Damp=F
 DIIS: error= 6.70D-07 at cycle   4 NSaved=   4.
 NSaved= 4 IEnMin= 4 EnMin= -1199.93649656782     IErMin= 4 ErrMin= 6.70D-07
 ErrMax= 6.70D-07  0.00D+00 EMaxC= 1.00D-01 BMatC= 4.81D-10 BMatP= 3.10D-08
 IDIUse=1 WtCom= 1.00D+00 WtEn= 0.00D+00
 Coeff-Com: -0.106D-01 0.129D+00 0.150D+00 0.731D+00
 Coeff:     -0.106D-01 0.129D+00 0.150D+00 0.731D+00
 Gap=     0.446 Goal=   None    Shift=    0.000
 RMSDP=5.77D-08 MaxDP=5.10D-06 DE=-2.19D-08 OVMax= 5.05D-06

 Cycle   6  Pass 1  IDiag  1:
 E= -1199.93649656817     Delta-E=       -0.000000000352 Rises=F Damp=F
 DIIS: error= 3.61D-07 at cycle   5 NSaved=   5.
 NSaved= 5 IEnMin= 5 EnMin= -1199.93649656817     IErMin= 5 ErrMin= 3.61D-07
 ErrMax= 3.61D-07  0.00D+00 EMaxC= 1.00D-01 BMatC= 1.27D-10 BMatP= 4.81D-10
 IDIUse=1 WtCom= 1.00D+00 WtEn= 0.00D+00
 Coeff-Com: -0.470D-03-0.196D-01-0.647D-02 0.334D+00 0.693D+00
 Coeff:     -0.470D-03-0.196D-01-0.647D-02 0.334D+00 0.693D+00
 Gap=     0.446 Goal=   None    Shift=    0.000
 RMSDP=2.59D-08 MaxDP=1.89D-06 DE=-3.52D-10 OVMax= 2.32D-06

 Cycle   7  Pass 1  IDiag  1:
 E= -1199.93649656828     Delta-E=       -0.000000000107 Rises=F Damp=F
 DIIS: error= 1.13D-07 at cycle   6 NSaved=   6.
 NSaved= 6 IEnMin= 6 EnMin= -1199.93649656828     IErMin= 6 ErrMin= 1.13D-07
 ErrMax= 1.13D-07  0.00D+00 EMaxC= 1.00D-01 BMatC= 1.27D-11 BMatP= 1.27D-10
 IDIUse=1 WtCom= 1.00D+00 WtEn= 0.00D+00
 Coeff-Com:  0.938D-03-0.226D-01-0.183D-01 0.795D-01 0.316D+00 0.645D+00
 Coeff:      0.938D-03-0.226D-01-0.183D-01 0.795D-01 0.316D+00 0.645D+00
 Gap=     0.446 Goal=   None    Shift=    0.000
 RMSDP=7.01D-09 MaxDP=3.15D-07 DE=-1.07D-10 OVMax= 7.39D-07

 SCF Done:  E(RM062X) =  -1199.93649657     A.U. after    7 cycles
            NFock=  7  Conv=0.70D-08     -V/T= 2.0029
 KE= 1.196518909410D+03 PE=-4.705848852806D+03 EE= 1.379574359950D+03
 Leave Link  502 at Sat May 24 04:17:14 2025, MaxMem=  3758096384 cpu:             127.0 elap:              30.6
 (Enter /apps/easybuild-2022/easybuild/software/Compiler/NVHPC/22.11-CUDA-11.7.0/Gaussian/g16c01-CUDA-11.7.0/g16/l508.exe)
 QCSCF skips out because SCF is already converged.
 Leave Link  508 at Sat May 24 04:17:14 2025, MaxMem=  3758096384 cpu:               0.1 elap:               0.0
 (Enter /apps/easybuild-2022/easybuild/software/Compiler/NVHPC/22.11-CUDA-11.7.0/Gaussian/g16c01-CUDA-11.7.0/g16/l801.exe)
 DoSCS=F DFT=T ScalE2(SS,OS)=  1.000000  1.000000
 Range of M.O.s used for correlation:     1   366
 NBasis=   366 NAE=    49 NBE=    49 NFC=     0 NFV=     0
 NROrb=    366 NOA=    49 NOB=    49 NVA=   317 NVB=   317

 **** Warning!!: The largest alpha MO coefficient is  0.17646912D+02

 Leave Link  801 at Sat May 24 04:17:14 2025, MaxMem=  3758096384 cpu:               0.1 elap:               0.0
 (Enter /apps/easybuild-2022/easybuild/software/Compiler/NVHPC/22.11-CUDA-11.7.0/Gaussian/g16c01-CUDA-11.7.0/g16/l1101.exe)
 Leave Link 1101 at Sat May 24 04:17:14 2025, MaxMem=  3758096384 cpu:               0.1 elap:               0.0
 (Enter /apps/easybuild-2022/easybuild/software/Compiler/NVHPC/22.11-CUDA-11.7.0/Gaussian/g16c01-CUDA-11.7.0/g16/l1102.exe)
 Symmetrizing basis deriv contribution to polar:
 IMax=3 JMax=2 DiffMx= 0.00D+00
 Leave Link 1102 at Sat May 24 04:17:14 2025, MaxMem=  3758096384 cpu:               0.1 elap:               0.1
 (Enter /apps/easybuild-2022/easybuild/software/Compiler/NVHPC/22.11-CUDA-11.7.0/Gaussian/g16c01-CUDA-11.7.0/g16/l1110.exe)
 Leave Link 1110 at Sat May 24 04:17:14 2025, MaxMem=  3758096384 cpu:               0.1 elap:               0.0
 (Enter /apps/easybuild-2022/easybuild/software/Compiler/NVHPC/22.11-CUDA-11.7.0/Gaussian/g16c01-CUDA-11.7.0/g16/l1002.exe)
 Minotr:  Closed shell wavefunction.
 Leave Link 1002 at Sat May 24 04:17:14 2025, MaxMem=  3758096384 cpu:               0.1 elap:               0.0
 (Enter /apps/easybuild-2022/easybuild/software/Compiler/NVHPC/22.11-CUDA-11.7.0/Gaussian/g16c01-CUDA-11.7.0/g16/l701.exe)
 ... and contract with generalized density number  0.
 Compute integral first derivatives.
   1 Symmetry operations used in ECPInt.
 ECPInt:  NShTT=    8515 NPrTT=   27988 LenC2=    8005 LenP2D=   19455.
 LDataN:  DoStor=T MaxTD1= 7 Len=  274
 Leave Link  701 at Sat May 24 04:17:14 2025, MaxMem=  3758096384 cpu:               1.0 elap:               0.2
 (Enter /apps/easybuild-2022/easybuild/software/Compiler/NVHPC/22.11-CUDA-11.7.0/Gaussian/g16c01-CUDA-11.7.0/g16/l702.exe)
 L702 exits ... SP integral derivatives will be done elsewhere.
 Leave Link  702 at Sat May 24 04:17:14 2025, MaxMem=  3758096384 cpu:               0.1 elap:               0.0
 (Enter /apps/easybuild-2022/easybuild/software/Compiler/NVHPC/22.11-CUDA-11.7.0/Gaussian/g16c01-CUDA-11.7.0/g16/l703.exe)
 Integral derivatives from FoFJK, PRISM(SPDF).
 Compute integral first derivatives, UseDBF=F ICtDFT=           0.
 Calling FoFJK, ICntrl=      2127 FMM=F ISym2X=0 I1Cent= 0 IOpClX= 0 NMat=1 NMatS=1 NMatT=0.
 FoFJK:  IHMeth= 1 ICntrl=    2127 DoSepK=F KAlg= 0 I1Cent=           0 FoldK=F
 IRaf=         0 NMat=       1 IRICut=       1 DoRegI=T DoRafI=F ISym2E= 0 IDoP0=0 IntGTp=1.
 FoFCou: FMM=F IPFlag=           0 FMFlag=      100000 FMFlg1=         800
         NFxFlg=           0 DoJE=F BraDBF=F KetDBF=F FulRan=T
         wScrn=  0.000000 ICntrl=      2127 IOpCl=  0 I1Cent=           0 NGrid=           0
         NMat0=    1 NMatS0=      1 NMatT0=    0 NMatD0=    1 NMtDS0=    0 NMtDT0=    0
 Symmetry not used in FoFCou.
 Leave Link  703 at Sat May 24 04:17:29 2025, MaxMem=  3758096384 cpu:              98.6 elap:              15.1
 (Enter /apps/easybuild-2022/easybuild/software/Compiler/NVHPC/22.11-CUDA-11.7.0/Gaussian/g16c01-CUDA-11.7.0/g16/l716.exe)
 Dipole        =-6.32288953D-02 6.98738218D-01-8.24697804D-01
 Polarizability= 0.00000000D+00 0.00000000D+00 0.00000000D+00
                 0.00000000D+00 0.00000000D+00 0.00000000D+00
 -------------------------------------------------------------------
 Center     Atomic                   Forces (Hartrees/Bohr)
 Number     Number              X              Y              Z
 -------------------------------------------------------------------
      1        6           0.000000998   -0.000001269   -0.000000845
      2        6           0.000000644   -0.000001872   -0.000004520
      3        9           0.000010201   -0.000013245   -0.000010364
      4        9          -0.000006459    0.000001655   -0.000018946
      5       16          -0.000003214    0.000006119    0.000009824
      6        8          -0.000010686   -0.000001732    0.000005227
      7        8           0.000008571    0.000009250    0.000006180
      8        8          -0.000005446    0.000005858    0.000012418
      9        9          -0.000030161    0.000011687    0.000008351
     10        9           0.000009248   -0.000010278   -0.000033523
     11        9           0.000026170   -0.000006807    0.000025253
     12        1           0.000000135    0.000000633    0.000000945
 -------------------------------------------------------------------
 Cartesian Forces:  Max     0.000033523 RMS     0.000012160
 Leave Link  716 at Sat May 24 04:17:29 2025, MaxMem=  3758096384 cpu:               0.1 elap:               0.0
 (Enter /apps/easybuild-2022/easybuild/software/Compiler/NVHPC/22.11-CUDA-11.7.0/Gaussian/g16c01-CUDA-11.7.0/g16/l123.exe)
 IRC-IRC-IRC-IRC-IRC-IRC-IRC-IRC-IRC-IRC-IRC-IRC-IRC-IRC-IRC-IRC-IRC-IRC
 Error in corrector energy =           0.0000000000
 Magnitude of corrector gradient =     0.0000729610
 Magnitude of analytic gradient =      0.0000729610
 Magnitude of difference =             0.0000000000
 Angle between gradients (degrees)=    0.0000
 Pt  1 Step number  20 out of a maximum of  20
 Using modified Bulirsch-Stoer corrector integration.
   Using distance weighted interpolants to fit PES.
 PreDWI: IReCr0= 2 IReCr1= 1 IReCr2= 1 IReCr3= 1
 Modified Bulirsch-Stoer Extrapolation Cycles:
    EPS =    0.000010000000000
    Cycle     1 NS=    48
      PEZero:  N= 2 I= 1 D=  2.19D-04 Err=  3.69D-04
    Cycle     2 NS=    64 Truncation Error =  0.000368693
      PEZero:  N= 3 I= 2 D=  2.19D-04 Err=  7.82D-04
      PEZero:  N= 3 I= 1 D=  4.39D-04 Err=  8.04D-04
    Cycle     3 NS=    96 Truncation Error =  0.000781802
      PEZero:  N= 4 I= 3 D=  1.10D-04 Err=  1.65D-03
      PEZero:  N= 4 I= 2 D=  3.29D-04 Err=  1.42D-03
      PEZero:  N= 4 I= 1 D=  5.49D-04 Err=  1.24D-03
    Cycle     4 NS=   128 Truncation Error =  0.001236580
      PEZero:  N= 5 I= 4 D=  1.10D-04 Err=  2.58D-03
      PEZero:  N= 5 I= 3 D=  2.19D-04 Err=  2.22D-03
      PEZero:  N= 5 I= 2 D=  4.39D-04 Err=  1.51D-03
      PEZero:  N= 5 I= 1 D=  6.58D-04 Err=  1.10D-03
    Cycle     5 NS=   192 Truncation Error =  0.001098869
      PEZero:  N= 6 I= 5 D=  5.49D-05 Err=  4.14D-03
      PEZero:  N= 6 I= 4 D=  1.65D-04 Err=  2.94D-03
      PEZero:  N= 6 I= 3 D=  2.74D-04 Err=  2.19D-03
      PEZero:  N= 6 I= 2 D=  4.94D-04 Err=  1.44D-03
      PEZero:  N= 6 I= 1 D=  7.13D-04 Err=  1.08D-03
    Cycle     6 NS=   256 Truncation Error =  0.001079473
      PEZero:  N= 7 I= 6 D=  5.49D-05 Err=  5.82D-03
      PEZero:  N= 7 I= 5 D=  1.10D-04 Err=  4.59D-03
      PEZero:  N= 7 I= 4 D=  2.19D-04 Err=  3.12D-03
      PEZero:  N= 7 I= 3 D=  3.29D-04 Err=  2.39D-03
      PEZero:  N= 7 I= 2 D=  5.49D-04 Err=  1.62D-03
      PEZero:  N= 7 I= 1 D=  7.68D-04 Err=  1.23D-03
    Cycle     7 NS=   384 Truncation Error =  0.001234847
      PEZero:  N= 8 I= 7 D=  2.74D-05 Err=  9.28D-03
      PEZero:  N= 8 I= 6 D=  8.23D-05 Err=  6.55D-03
      PEZero:  N= 8 I= 5 D=  1.37D-04 Err=  5.11D-03
      PEZero:  N= 8 I= 4 D=  2.47D-04 Err=  3.51D-03
      PEZero:  N= 8 I= 3 D=  3.57D-04 Err=  2.69D-03
      PEZero:  N= 8 I= 2 D=  5.76D-04 Err=  1.82D-03
      PEZero:  N= 8 I= 1 D=  7.95D-04 Err=  1.37D-03
    Cycle     8 NS=   512 Truncation Error =  0.001374696
      PEZero:  N= 9 I= 8 D=  2.74D-05 Err=  1.27D-02
      PEZero:  N= 9 I= 7 D=  5.49D-05 Err=  9.71D-03
      PEZero:  N= 9 I= 6 D=  1.10D-04 Err=  6.44D-03
      PEZero:  N= 9 I= 5 D=  1.65D-04 Err=  4.73D-03
      PEZero:  N= 9 I= 4 D=  2.74D-04 Err=  3.08D-03
      PEZero:  N= 9 I= 3 D=  3.84D-04 Err=  2.26D-03
      PEZero:  N= 9 I= 2 D=  6.03D-04 Err=  1.48D-03
      PEZero:  N= 9 I= 1 D=  8.23D-04 Err=  1.09D-03
    Cycle     9 NS=   768 Truncation Error =  0.001090981
      PEZero:  N=10 I= 9 D=  1.37D-05 Err=  3.27D-03
      PEZero:  N=10 I= 8 D=  4.11D-05 Err=  8.30D-03
    Cycle    10 NS=  1024 Truncation Error =  0.003273951
      PEZero:  N=11 I=10 D=  1.37D-05 Err=  1.31D-05
      PEZero:  N=11 I= 9 D=  2.74D-05 Err=  3.25D-03
    Cycle    11 NS=  1536 Truncation Error =  0.000013095
 Maximum DWI energy   std dev =  0.000000006 at pt     5
 Maximum DWI gradient std dev =  0.306263289 at pt   121
 WARNING: Bulirsch-Stoer Method is not Converging
 SUMMARY OF CORRECTOR INTEGRATION:
   Predictor End Point Energy = -1199.936497
   Old End Point Energy       = -1199.936497
   Corrected End Point Energy = -1199.936497
   Predictor End-Start Dist.  =     0.084264
   Old End-Start Dist.        =     0.084005
   New End-Start Dist.        =     0.084005
   New End-Old End Dist.      =     0.000000
 CORRECTOR INTEGRATION CONVERGENCE:
   Recorrection delta-x convergence threshold:    0.010000
   Delta-x Convergence NOT Met
 Maximum number of corrector steps exceded.
 Error termination via Lnk1e in /apps/easybuild-2022/easybuild/software/Compiler/NVHPC/22.11-CUDA-11.7.0/Gaussian/g16c01-CUDA-11.7.0/g16/l123.exe at Sat May 24 04:17:30 2025.
 Job cpu time:       0 days  1 hours 17 minutes  6.1 seconds.
 Elapsed time:       0 days  0 hours 14 minutes 42.8 seconds.
 File lengths (MBytes):  RWF=     63 Int=      0 D2E=      0 Chk=     13 Scr=      1
done
