 Entering Gaussian System, Link 0=g16
 Initial command:
 /apps/easybuild-2022/easybuild/software/Compiler/NVHPC/22.11-CUDA-11.7.0/Gaussian/g16c01-CUDA-11.7.0/g16/l1.exe "/tmp/Gau-70212.inp" -scrdir="/tmp/"
 Entering Link 1 = /apps/easybuild-2022/easybuild/software/Compiler/NVHPC/22.11-CUDA-11.7.0/Gaussian/g16c01-CUDA-11.7.0/g16/l1.exe PID=     70213.
  
 Copyright (c) 1988-2019, Gaussian, Inc.  All Rights Reserved.
  
 This is part of the Gaussian(R) 16 program.  It is based on
 the Gaussian(R) 09 system (copyright 2009, Gaussian, Inc.),
 the Gaussian(R) 03 system (copyright 2003, Gaussian, Inc.),
 the Gaussian(R) 98 system (copyright 1998, Gaussian, Inc.),
 the Gaussian(R) 94 system (copyright 1995, Gaussian, Inc.),
 the Gaussian 92(TM) system (copyright 1992, Gaussian, Inc.),
 the Gaussian 90(TM) system (copyright 1990, Gaussian, Inc.),
 the Gaussian 88(TM) system (copyright 1988, Gaussian, Inc.),
 the Gaussian 86(TM) system (copyright 1986, Carnegie Mellon
 University), and the Gaussian 82(TM) system (copyright 1983,
 Carnegie Mellon University). Gaussian is a federally registered
 trademark of Gaussian, Inc.
  
 This software contains proprietary and confidential information,
 including trade secrets, belonging to Gaussian, Inc.
  
 This software is provided under written license and may be
 used, copied, transmitted, or stored only in accord with that
 written license.
  
 The following legend is applicable only to US Government
 contracts under FAR:
  
                    RESTRICTED RIGHTS LEGEND
  
 Use, reproduction and disclosure by the US Government is
 subject to restrictions as set forth in subparagraphs (a)
 and (c) of the Commercial Computer Software - Restricted
 Rights clause in FAR 52.227-19.
  
 Gaussian, Inc.
 340 Quinnipiac St., Bldg. 40, Wallingford CT 06492
  
  
 ---------------------------------------------------------------
 Warning -- This program may not be used in any manner that
 competes with the business of Gaussian, Inc. or will provide
 assistance to any competitor of Gaussian, Inc.  The licensee
 of this program is prohibited from giving any competitor of
 Gaussian, Inc. access to this program.  By using this program,
 the user acknowledges that Gaussian, Inc. is engaged in the
 business of creating and licensing software in the field of
 computational chemistry and represents and warrants to the
 licensee that it is not a competitor of Gaussian, Inc. and that
 it will not use this program in any manner prohibited above.
 ---------------------------------------------------------------
  

 Cite this work as:
 Gaussian 16, Revision C.01,
 M. J. Frisch, G. W. Trucks, H. B. Schlegel, G. E. Scuseria, 
 M. A. Robb, J. R. Cheeseman, G. Scalmani, V. Barone, 
 G. A. Petersson, H. Nakatsuji, X. Li, M. Caricato, A. V. Marenich, 
 J. Bloino, B. G. Janesko, R. Gomperts, B. Mennucci, H. P. Hratchian, 
 J. V. Ortiz, A. F. Izmaylov, J. L. Sonnenberg, D. Williams-Young, 
 F. Ding, F. Lipparini, F. Egidi, J. Goings, B. Peng, A. Petrone, 
 T. Henderson, D. Ranasinghe, V. G. Zakrzewski, J. Gao, N. Rega, 
 G. Zheng, W. Liang, M. Hada, M. Ehara, K. Toyota, R. Fukuda, 
 J. Hasegawa, M. Ishida, T. Nakajima, Y. Honda, O. Kitao, H. Nakai, 
 T. Vreven, K. Throssell, J. A. Montgomery, Jr., J. E. Peralta, 
 F. Ogliaro, M. J. Bearpark, J. J. Heyd, E. N. Brothers, K. N. Kudin, 
 V. N. Staroverov, T. A. Keith, R. Kobayashi, J. Normand, 
 K. Raghavachari, A. P. Rendell, J. C. Burant, S. S. Iyengar, 
 J. Tomasi, M. Cossi, J. M. Millam, M. Klene, C. Adamo, R. Cammi, 
 J. W. Ochterski, R. L. Martin, K. Morokuma, O. Farkas, 
 J. B. Foresman, and D. J. Fox, Gaussian, Inc., Wallingford CT, 2019.
 
 ******************************************
 Gaussian 16:  ES64L-G16RevC.01  3-Jul-2019
                24-May-2025 
 ******************************************
 %mem=28GB
 %chk=2003846667223680600001_intra_H_migration_suprafacial_6_12
 %nprocshared=8
 Will use up to    8 processors via shared memory.
 ----------------------------------------------------------------------
 #P M062X/Def2TZVPP Symm(None) scf(xqc) pop(None) opt(NoFreeze,TS,CalcA
 ll,NoEigentest,MaxCycle=999)
 ----------------------------------------------------------------------
 1/5=1,6=999,10=4,11=1,18=20,26=3,29=2000,38=1/1,3;
 2/9=110,12=2,15=3,17=6,18=5,40=1/2;
 3/5=44,7=202,11=2,25=1,30=1,71=2,74=-55,140=1/1,2,3;
 4//1;
 5/5=2,8=3,13=1,38=5/2,8;
 8/6=4,10=90,11=11/1;
 11/6=1,8=1,9=11,15=111,16=1,31=1/1,2,10;
 10/6=1,31=1/2;
 7/10=1,25=1,30=1/1,2,3,16;
 1/5=1,6=999,10=4,11=1,18=20,26=3/3(3);
 2/9=110,15=3/2;
 7/8=1,9=1,25=1,30=1,44=-1/16;
 99//99;
 2/9=110,15=3/2;
 3/5=44,7=202,11=2,25=1,30=1,71=2,74=-55,140=1/1,2,3;
 4/5=5,16=3,69=1/1;
 5/5=2,8=3,13=1,38=5/2,8;
 8/6=4,10=90,11=11/1;
 11/6=1,8=1,9=11,15=111,16=1,31=1/1,2,10;
 10/6=1,31=1/2;
 7/10=1,25=1,30=1/1,2,3,16;
 1/5=1,6=999,10=4,11=1,18=20,26=3/3(-8);
 2/9=110,15=3/2;
 7/8=1,9=1,25=1,30=1,44=-1/16;
 99//99;
 Leave Link    1 at Sat May 24 03:35:59 2025, MaxMem=  3758096384 cpu:               0.0 elap:               0.0
 (Enter /apps/easybuild-2022/easybuild/software/Compiler/NVHPC/22.11-CUDA-11.7.0/Gaussian/g16c01-CUDA-11.7.0/g16/l101.exe)
 ------------------------------
 Gaussian input prepared by ASE
 ------------------------------
 Symbolic Z-matrix:
 Charge =  0 Multiplicity = 1
 C                     2.08889  -1.85531  -1.59733 
 C                     1.81393  -0.36101  -1.84991 
 F                     2.85853   0.15349  -2.43098 
 F                     0.83535  -0.20518  -2.63941 
 S                     1.14839   0.39725   0.11669 
 O                     1.56911   0.65427  -0.84821 
 O                     1.81843  -1.01854   0.66198 
 O                     0.42674   0.8451    0.79122 
 F                     3.26586  -2.1047   -0.95863 
 F                     1.1211   -2.51692  -1.01235 
 F                     2.26029  -2.461    -2.79906 
 H                     1.1433    1.39027  -0.00174 
 
 ITRead=  0  0  0  0  0  0  0  0  0  0  0  0
 MicOpt= -1 -1 -1 -1 -1 -1 -1 -1 -1 -1 -1 -1
 NAtoms=     12 NQM=       12 NQMF=       0 NMMI=      0 NMMIF=      0
                NMic=       0 NMicF=      0.
                    Isotopes and Nuclear Properties:
 (Nuclear quadrupole moments (NQMom) in fm**2, nuclear magnetic moments (NMagM)
  in nuclear magnetons)

  Atom         1           2           3           4           5           6           7           8           9          10
 IAtWgt=          12          12          19          19          32          16          16          16          19          19
 AtmWgt=  12.0000000  12.0000000  18.9984032  18.9984032  31.9720718  15.9949146  15.9949146  15.9949146  18.9984032  18.9984032
 NucSpn=           0           0           1           1           0           0           0           0           1           1
 AtZEff=  -0.0000000  -0.0000000  -0.0000000  -0.0000000  -0.0000000  -0.0000000  -0.0000000  -0.0000000  -0.0000000  -0.0000000
 NQMom=    0.0000000   0.0000000   0.0000000   0.0000000   0.0000000   0.0000000   0.0000000   0.0000000   0.0000000   0.0000000
 NMagM=    0.0000000   0.0000000   2.6288670   2.6288670   0.0000000   0.0000000   0.0000000   0.0000000   2.6288670   2.6288670
 AtZNuc=   6.0000000   6.0000000   9.0000000   9.0000000  16.0000000   8.0000000   8.0000000   8.0000000   9.0000000   9.0000000

  Atom        11          12
 IAtWgt=          19           1
 AtmWgt=  18.9984032   1.0078250
 NucSpn=           1           1
 AtZEff=  -0.0000000  -0.0000000
 NQMom=    0.0000000   0.0000000
 NMagM=    2.6288670   2.7928460
 AtZNuc=   9.0000000   1.0000000
 Leave Link  101 at Sat May 24 03:36:00 2025, MaxMem=  3758096384 cpu:               0.2 elap:               0.2
 (Enter /apps/easybuild-2022/easybuild/software/Compiler/NVHPC/22.11-CUDA-11.7.0/Gaussian/g16c01-CUDA-11.7.0/g16/l103.exe)

 GradGradGradGradGradGradGradGradGradGradGradGradGradGradGradGradGradGrad
 Berny optimization.
 Initialization pass.
                           ----------------------------
                           !    Initial Parameters    !
                           ! (Angstroms and Degrees)  !
 --------------------------                            --------------------------
 ! Name  Definition              Value          Derivative Info.                !
 --------------------------------------------------------------------------------
 ! R1    R(1,2)                  1.5402         calculate D2E/DX2 analytically  !
 ! R2    R(1,9)                  1.3621         calculate D2E/DX2 analytically  !
 ! R3    R(1,10)                 1.3102         calculate D2E/DX2 analytically  !
 ! R4    R(1,11)                 1.3566         calculate D2E/DX2 analytically  !
 ! R5    R(2,3)                  1.3014         calculate D2E/DX2 analytically  !
 ! R6    R(2,4)                  1.267          calculate D2E/DX2 analytically  !
 ! R7    R(2,6)                  1.4471         calculate D2E/DX2 analytically  !
 ! R8    R(5,6)                  1.0836         calculate D2E/DX2 analytically  !
 ! R9    R(5,7)                  1.6585         calculate D2E/DX2 analytically  !
 ! R10   R(5,8)                  1.0846         calculate D2E/DX2 analytically  !
 ! R11   R(5,12)                 1.0001         calculate D2E/DX2 analytically  !
 ! A1    A(2,1,9)              114.1276         calculate D2E/DX2 analytically  !
 ! A2    A(2,1,10)             115.5478         calculate D2E/DX2 analytically  !
 ! A3    A(2,1,11)             108.0861         calculate D2E/DX2 analytically  !
 ! A4    A(9,1,10)             109.6607         calculate D2E/DX2 analytically  !
 ! A5    A(9,1,11)             102.9713         calculate D2E/DX2 analytically  !
 ! A6    A(10,1,11)            105.2711         calculate D2E/DX2 analytically  !
 ! A7    A(1,2,3)              108.2692         calculate D2E/DX2 analytically  !
 ! A8    A(1,2,4)              111.0629         calculate D2E/DX2 analytically  !
 ! A9    A(1,2,6)              126.6808         calculate D2E/DX2 analytically  !
 ! A10   A(3,2,4)              107.045          calculate D2E/DX2 analytically  !
 ! A11   A(3,2,6)               99.6425         calculate D2E/DX2 analytically  !
 ! A12   A(4,2,6)              102.3794         calculate D2E/DX2 analytically  !
 ! A13   A(6,5,7)              109.7788         calculate D2E/DX2 analytically  !
 ! A14   A(6,5,8)              135.5791         calculate D2E/DX2 analytically  !
 ! A15   A(6,5,12)              70.1839         calculate D2E/DX2 analytically  !
 ! A16   A(7,5,8)              114.6338         calculate D2E/DX2 analytically  !
 ! A17   A(7,5,12)             152.6988         calculate D2E/DX2 analytically  !
 ! A18   A(8,5,12)              70.1382         calculate D2E/DX2 analytically  !
 ! A19   A(2,6,5)              121.0427         calculate D2E/DX2 analytically  !
 ! D1    D(9,1,2,3)             51.4596         calculate D2E/DX2 analytically  !
 ! D2    D(9,1,2,4)            168.7126         calculate D2E/DX2 analytically  !
 ! D3    D(9,1,2,6)            -66.3051         calculate D2E/DX2 analytically  !
 ! D4    D(10,1,2,3)           179.9734         calculate D2E/DX2 analytically  !
 ! D5    D(10,1,2,4)           -62.7736         calculate D2E/DX2 analytically  !
 ! D6    D(10,1,2,6)            62.2087         calculate D2E/DX2 analytically  !
 ! D7    D(11,1,2,3)           -62.4322         calculate D2E/DX2 analytically  !
 ! D8    D(11,1,2,4)            54.8209         calculate D2E/DX2 analytically  !
 ! D9    D(11,1,2,6)           179.8032         calculate D2E/DX2 analytically  !
 ! D10   D(1,2,6,5)            -26.5095         calculate D2E/DX2 analytically  !
 ! D11   D(3,2,6,5)           -148.046          calculate D2E/DX2 analytically  !
 ! D12   D(4,2,6,5)            101.974          calculate D2E/DX2 analytically  !
 ! D13   D(7,5,6,2)             40.3797         calculate D2E/DX2 analytically  !
 ! D14   D(8,5,6,2)           -140.7606         calculate D2E/DX2 analytically  !
 ! D15   D(12,5,6,2)          -168.673          calculate D2E/DX2 analytically  !
 --------------------------------------------------------------------------------
 Trust Radius=3.00D-01 FncErr=1.00D-07 GrdErr=1.00D-06 EigMax=2.50D+02 EigMin=1.00D-04
 Number of steps in this run=    100 maximum allowed number of steps=    100.
 Search for a saddle point of order  1.
 GradGradGradGradGradGradGradGradGradGradGradGradGradGradGradGradGradGrad

 Leave Link  103 at Sat May 24 03:36:00 2025, MaxMem=  3758096384 cpu:               0.0 elap:               0.0
 (Enter /apps/easybuild-2022/easybuild/software/Compiler/NVHPC/22.11-CUDA-11.7.0/Gaussian/g16c01-CUDA-11.7.0/g16/l202.exe)
                          Input orientation:                          
 ---------------------------------------------------------------------
 Center     Atomic      Atomic             Coordinates (Angstroms)
 Number     Number       Type             X           Y           Z
 ---------------------------------------------------------------------
      1          6           0        2.088892   -1.855314   -1.597332
      2          6           0        1.813929   -0.361010   -1.849905
      3          9           0        2.858531    0.153485   -2.430978
      4          9           0        0.835346   -0.205182   -2.639409
      5         16           0        1.148388    0.397248    0.116692
      6          8           0        1.569114    0.654265   -0.848209
      7          8           0        1.818427   -1.018537    0.661982
      8          8           0        0.426744    0.845103    0.791219
      9          9           0        3.265856   -2.104699   -0.958625
     10          9           0        1.121097   -2.516919   -1.012352
     11          9           0        2.260288   -2.460998   -2.799062
     12          1           0        1.143299    1.390266   -0.001738
 ---------------------------------------------------------------------
                    Distance matrix (angstroms):
                    1          2          3          4          5
     1  C    0.000000
     2  C    1.540241   0.000000
     3  F    2.307072   1.301362   0.000000
     4  F    2.319534   1.266974   2.065276   0.000000
     5  S    2.982694   2.210295   3.078089   2.838487   0.000000
     6  O    2.670083   1.447105   2.102031   2.117891   1.083560
     7  O    2.424427   2.596524   3.467254   3.539375   1.658536
     8  O    3.969907   3.217845   4.095666   3.610992   1.084588
     9  F    1.362125   2.437811   2.726377   3.512916   3.449597
    10  F    1.310172   2.414426   3.487439   2.841319   3.125357
    11  F    1.356608   2.347357   2.707194   2.672949   4.231727
    12  H    3.738162   2.632951   3.220692   3.097999   1.000068
                    6          7          8          9         10
     6  O    0.000000
     7  O    2.267399   0.000000
     8  O    2.007275   2.329515   0.000000
     9  F    3.240834   2.429231   4.452397   0.000000
    10  F    3.206879   2.352618   3.877910   2.184675   0.000000
    11  F    3.740109   3.775548   5.213665   2.127281   2.119721
    12  H    1.199804   2.588176   1.199764   4.199483   4.035831
                   11         12
    11  F    0.000000
    12  H    4.889266   0.000000
 Symmetry turned off by external request.
 Stoichiometry    C2HF5O3S
 Rotational constants (GHZ):           1.7497609           0.9247719           0.7739753
 Leave Link  202 at Sat May 24 03:36:00 2025, MaxMem=  3758096384 cpu:               0.0 elap:               0.0
 (Enter /apps/easybuild-2022/easybuild/software/Compiler/NVHPC/22.11-CUDA-11.7.0/Gaussian/g16c01-CUDA-11.7.0/g16/l301.exe)
 Standard basis: def2TZVPP (5D, 7F)
 Ernie: Thresh=  0.10000D-02 Tol=  0.10000D-05 Strict=F.
   366 basis functions,   596 primitive gaussians,   423 cartesian basis functions
    49 alpha electrons       49 beta electrons
       nuclear repulsion energy       983.6756032469 Hartrees.
 IExCor= 4336 DFT=T Ex+Corr=M062X ExCW=0 ScaHFX=  0.540000
 ScaDFX=  1.000000  1.000000  1.000000  1.000000 ScalE2=  1.000000  1.000000
 IRadAn=      5 IRanWt=     -1 IRanGd=            0 ICorTp=0 IEmpDi=  4
 NAtoms=   12 NActive=   12 NUniq=   12 SFac= 1.00D+00 NAtFMM=   60 NAOKFM=F Big=F
 Integral buffers will be    131072 words long.
 Raffenetti 2 integral format.
 Two-electron integral symmetry is turned off.
 Leave Link  301 at Sat May 24 03:36:00 2025, MaxMem=  3758096384 cpu:               0.0 elap:               0.0
 (Enter /apps/easybuild-2022/easybuild/software/Compiler/NVHPC/22.11-CUDA-11.7.0/Gaussian/g16c01-CUDA-11.7.0/g16/l302.exe)
 NPDir=0 NMtPBC=     1 NCelOv=     1 NCel=       1 NClECP=     1 NCelD=      1
         NCelK=      1 NCelE2=     1 NClLst=     1 CellRange=     0.0.
 One-electron integrals computed using PRISM.
   1 Symmetry operations used in ECPInt.
 ECPInt:  NShTT=    8515 NPrTT=   27988 LenC2=    8052 LenP2D=   19758.
 LDataN:  DoStor=T MaxTD1= 6 Len=  172
 NBasis=   366 RedAO= T EigKep=  2.02D-04  NBF=   366
 NBsUse=   366 1.00D-06 EigRej= -1.00D+00 NBFU=   366
 Precomputing XC quadrature grid using
 IXCGrd= 4 IRadAn=           5 IRanWt=          -1 IRanGd=           0 AccXCQ= 0.00D+00.
 Generated NRdTot=       0 NPtTot=           0 NUsed=           0 NTot=          32
 NSgBfM=   419   419   419   419   419 MxSgAt=    12 MxSgA2=    12.
 Leave Link  302 at Sat May 24 03:36:00 2025, MaxMem=  3758096384 cpu:               0.7 elap:               0.2
 (Enter /apps/easybuild-2022/easybuild/software/Compiler/NVHPC/22.11-CUDA-11.7.0/Gaussian/g16c01-CUDA-11.7.0/g16/l303.exe)
 DipDrv:  MaxL=1.
 Leave Link  303 at Sat May 24 03:36:00 2025, MaxMem=  3758096384 cpu:               0.1 elap:               0.0
 (Enter /apps/easybuild-2022/easybuild/software/Compiler/NVHPC/22.11-CUDA-11.7.0/Gaussian/g16c01-CUDA-11.7.0/g16/l401.exe)
 ExpMin= 9.52D-02 ExpMax= 6.07D+04 ExpMxC= 2.07D+03 IAcc=3 IRadAn=         5 AccDes= 0.00D+00
 Harris functional with IExCor= 1009 and IRadAn=       5 diagonalized for initial guess.
 HarFok:  IExCor= 1009 AccDes= 0.00D+00 IRadAn=         5 IDoV= 1 UseB2=F ITyADJ=14
 ICtDFT=  3500011 ScaDFX=  1.000000  1.000000  1.000000  1.000000
 FoFCou: FMM=F IPFlag=           0 FMFlag=      100000 FMFlg1=           0
         NFxFlg=           0 DoJE=T BraDBF=F KetDBF=T FulRan=T
         wScrn=  0.000000 ICntrl=       500 IOpCl=  0 I1Cent=   200000004 NGrid=           0
         NMat0=    1 NMatS0=      1 NMatT0=    0 NMatD0=    1 NMtDS0=    0 NMtDT0=    0
 Symmetry not used in FoFCou.
 Harris En= -1198.09600556649    
 JPrj=0 DoOrth=F DoCkMO=F.
 Leave Link  401 at Sat May 24 03:36:01 2025, MaxMem=  3758096384 cpu:               4.3 elap:               0.6
 (Enter /apps/easybuild-2022/easybuild/software/Compiler/NVHPC/22.11-CUDA-11.7.0/Gaussian/g16c01-CUDA-11.7.0/g16/l502.exe)
 Keep R1 ints in memory in canonical form, NReq=2293446996.
 FoFCou: FMM=F IPFlag=           0 FMFlag=           0 FMFlg1=           0
         NFxFlg=           0 DoJE=F BraDBF=F KetDBF=F FulRan=T
         wScrn=  0.000000 ICntrl=       600 IOpCl=  0 I1Cent=           0 NGrid=           0
         NMat0=    1 NMatS0=  67161 NMatT0=    0 NMatD0=    1 NMtDS0=    0 NMtDT0=    0
 Symmetry not used in FoFCou.
 Two-electron integral symmetry not used.
 Closed shell SCF:
 Using DIIS extrapolation, IDIIS=  1040.
 NGot=  3758096384 LenX=  1502398672 LenY=  1502219302
 Requested convergence on RMS density matrix=1.00D-08 within  32 cycles.
 Requested convergence on MAX density matrix=1.00D-06.
 Requested convergence on             energy=1.00D-06.
 No special actions if energy rises.
 Integral accuracy reduced to 1.0D-05 until final iterations.

 Cycle   1  Pass 0  IDiag  1:
 E= -1198.06042727038    
 DIIS: error= 2.67D-02 at cycle   1 NSaved=   1.
 NSaved= 1 IEnMin= 1 EnMin= -1198.06042727038     IErMin= 1 ErrMin= 2.67D-02
 ErrMax= 2.67D-02  0.00D+00 EMaxC= 1.00D-01 BMatC= 8.58D-01 BMatP= 8.58D-01
 IDIUse=3 WtCom= 7.33D-01 WtEn= 2.67D-01
 Coeff-Com:  0.100D+01
 Coeff-En:   0.100D+01
 Coeff:      0.100D+01
 Gap=     0.140 Goal=   None    Shift=    0.000
 GapD=    0.140 DampG=1.000 DampE=0.500 DampFc=0.5000 IDamp=-1.
 Damping current iteration by 5.00D-01
 RMSDP=4.87D-03 MaxDP=3.25D-01              OVMax= 4.62D-01

 Cycle   2  Pass 0  IDiag  1:
 E= -1198.20891710015     Delta-E=       -0.148489829769 Rises=F Damp=T
 DIIS: error= 7.96D-03 at cycle   2 NSaved=   2.
 NSaved= 2 IEnMin= 2 EnMin= -1198.20891710015     IErMin= 2 ErrMin= 7.96D-03
 ErrMax= 7.96D-03  0.00D+00 EMaxC= 1.00D-01 BMatC= 9.10D-02 BMatP= 8.58D-01
 IDIUse=3 WtCom= 9.20D-01 WtEn= 7.96D-02
 Coeff-Com:  0.909D-01 0.909D+00
 Coeff-En:   0.285D+00 0.715D+00
 Coeff:      0.106D+00 0.894D+00
 Gap=     0.236 Goal=   None    Shift=    0.000
 RMSDP=1.85D-03 MaxDP=1.07D-01 DE=-1.48D-01 OVMax= 4.20D-01

 Cycle   3  Pass 0  IDiag  1:
 E= -1198.47797689962     Delta-E=       -0.269059799469 Rises=F Damp=F
 DIIS: error= 7.66D-03 at cycle   3 NSaved=   3.
 NSaved= 3 IEnMin= 3 EnMin= -1198.47797689962     IErMin= 3 ErrMin= 7.66D-03
 ErrMax= 7.66D-03  0.00D+00 EMaxC= 1.00D-01 BMatC= 5.98D-02 BMatP= 9.10D-02
 IDIUse=3 WtCom= 9.23D-01 WtEn= 7.66D-02
 Coeff-Com: -0.390D-01 0.444D+00 0.595D+00
 Coeff-En:   0.000D+00 0.000D+00 0.100D+01
 Coeff:     -0.360D-01 0.410D+00 0.626D+00
 Gap=     0.222 Goal=   None    Shift=    0.000
 RMSDP=9.20D-04 MaxDP=4.92D-02 DE=-2.69D-01 OVMax= 9.29D-02

 Cycle   4  Pass 0  IDiag  1:
 E= -1198.51722045790     Delta-E=       -0.039243558284 Rises=F Damp=F
 DIIS: error= 2.33D-03 at cycle   4 NSaved=   4.
 NSaved= 4 IEnMin= 4 EnMin= -1198.51722045790     IErMin= 4 ErrMin= 2.33D-03
 ErrMax= 2.33D-03  0.00D+00 EMaxC= 1.00D-01 BMatC= 7.89D-03 BMatP= 5.98D-02
 IDIUse=3 WtCom= 9.77D-01 WtEn= 2.33D-02
 Coeff-Com: -0.286D-01 0.967D-01 0.300D+00 0.632D+00
 Coeff-En:   0.000D+00 0.000D+00 0.401D-01 0.960D+00
 Coeff:     -0.279D-01 0.944D-01 0.294D+00 0.639D+00
 Gap=     0.218 Goal=   None    Shift=    0.000
 RMSDP=3.84D-04 MaxDP=2.22D-02 DE=-3.92D-02 OVMax= 2.72D-02

 Cycle   5  Pass 0  IDiag  1:
 E= -1198.52147297384     Delta-E=       -0.004252515934 Rises=F Damp=F
 DIIS: error= 1.28D-03 at cycle   5 NSaved=   5.
 NSaved= 5 IEnMin= 5 EnMin= -1198.52147297384     IErMin= 5 ErrMin= 1.28D-03
 ErrMax= 1.28D-03  0.00D+00 EMaxC= 1.00D-01 BMatC= 1.71D-03 BMatP= 7.89D-03
 IDIUse=3 WtCom= 9.87D-01 WtEn= 1.28D-02
 Coeff-Com: -0.120D-01 0.221D-01 0.116D+00 0.387D+00 0.487D+00
 Coeff-En:   0.000D+00 0.000D+00 0.000D+00 0.171D+00 0.829D+00
 Coeff:     -0.118D-01 0.218D-01 0.114D+00 0.384D+00 0.492D+00
 Gap=     0.223 Goal=   None    Shift=    0.000
 RMSDP=1.11D-04 MaxDP=4.04D-03 DE=-4.25D-03 OVMax= 1.18D-02

 Cycle   6  Pass 0  IDiag  1:
 E= -1198.52270968422     Delta-E=       -0.001236710379 Rises=F Damp=F
 DIIS: error= 2.80D-04 at cycle   6 NSaved=   6.
 NSaved= 6 IEnMin= 6 EnMin= -1198.52270968422     IErMin= 6 ErrMin= 2.80D-04
 ErrMax= 2.80D-04  0.00D+00 EMaxC= 1.00D-01 BMatC= 7.67D-05 BMatP= 1.71D-03
 IDIUse=3 WtCom= 9.97D-01 WtEn= 2.80D-03
 Coeff-Com: -0.889D-03-0.353D-02 0.800D-02 0.904D-01 0.211D+00 0.695D+00
 Coeff-En:   0.000D+00 0.000D+00 0.000D+00 0.000D+00 0.000D+00 0.100D+01
 Coeff:     -0.887D-03-0.352D-02 0.798D-02 0.901D-01 0.210D+00 0.696D+00
 Gap=     0.223 Goal=   None    Shift=    0.000
 RMSDP=2.85D-05 MaxDP=1.65D-03 DE=-1.24D-03 OVMax= 2.06D-03

 Cycle   7  Pass 0  IDiag  1:
 E= -1198.52276433047     Delta-E=       -0.000054646257 Rises=F Damp=F
 DIIS: error= 5.90D-05 at cycle   7 NSaved=   7.
 NSaved= 7 IEnMin= 7 EnMin= -1198.52276433047     IErMin= 7 ErrMin= 5.90D-05
 ErrMax= 5.90D-05  0.00D+00 EMaxC= 1.00D-01 BMatC= 5.31D-06 BMatP= 7.67D-05
 IDIUse=1 WtCom= 1.00D+00 WtEn= 0.00D+00
 Coeff-Com:  0.953D-03-0.319D-02-0.100D-01-0.878D-02 0.220D-01 0.229D+00
 Coeff-Com:  0.770D+00
 Coeff:      0.953D-03-0.319D-02-0.100D-01-0.878D-02 0.220D-01 0.229D+00
 Coeff:      0.770D+00
 Gap=     0.223 Goal=   None    Shift=    0.000
 RMSDP=1.14D-05 MaxDP=6.00D-04 DE=-5.46D-05 OVMax= 1.02D-03

 Cycle   8  Pass 0  IDiag  1:
 E= -1198.52276947548     Delta-E=       -0.000005145005 Rises=F Damp=F
 DIIS: error= 1.59D-05 at cycle   8 NSaved=   8.
 NSaved= 8 IEnMin= 8 EnMin= -1198.52276947548     IErMin= 8 ErrMin= 1.59D-05
 ErrMax= 1.59D-05  0.00D+00 EMaxC= 1.00D-01 BMatC= 4.93D-07 BMatP= 5.31D-06
 IDIUse=1 WtCom= 1.00D+00 WtEn= 0.00D+00
 Coeff-Com:  0.370D-03-0.542D-03-0.412D-02-0.122D-01-0.139D-01-0.447D-02
 Coeff-Com:  0.218D+00 0.817D+00
 Coeff:      0.370D-03-0.542D-03-0.412D-02-0.122D-01-0.139D-01-0.447D-02
 Coeff:      0.218D+00 0.817D+00
 Gap=     0.223 Goal=   None    Shift=    0.000
 RMSDP=6.60D-06 MaxDP=4.78D-04 DE=-5.15D-06 OVMax= 6.76D-04

 Initial convergence to 1.0D-05 achieved.  Increase integral accuracy.
 Cycle   9  Pass 1  IDiag  1:
 E= -1198.52276443599     Delta-E=        0.000005039491 Rises=F Damp=F
 DIIS: error= 2.10D-05 at cycle   1 NSaved=   1.
 NSaved= 1 IEnMin= 1 EnMin= -1198.52276443599     IErMin= 1 ErrMin= 2.10D-05
 ErrMax= 2.10D-05  0.00D+00 EMaxC= 1.00D-01 BMatC= 9.89D-07 BMatP= 9.89D-07
 IDIUse=1 WtCom= 1.00D+00 WtEn= 0.00D+00
 Coeff-Com:  0.100D+01
 Coeff:      0.100D+01
 Gap=     0.224 Goal=   None    Shift=    0.000
 RMSDP=6.60D-06 MaxDP=4.78D-04 DE= 5.04D-06 OVMax= 3.20D-04

 Cycle  10  Pass 1  IDiag  1:
 E= -1198.52276514952     Delta-E=       -0.000000713532 Rises=F Damp=F
 DIIS: error= 7.78D-06 at cycle   2 NSaved=   2.
 NSaved= 2 IEnMin= 2 EnMin= -1198.52276514952     IErMin= 2 ErrMin= 7.78D-06
 ErrMax= 7.78D-06  0.00D+00 EMaxC= 1.00D-01 BMatC= 9.63D-08 BMatP= 9.89D-07
 IDIUse=1 WtCom= 1.00D+00 WtEn= 0.00D+00
 Coeff-Com:  0.989D-01 0.901D+00
 Coeff:      0.989D-01 0.901D+00
 Gap=     0.223 Goal=   None    Shift=    0.000
 RMSDP=2.13D-06 MaxDP=1.07D-04 DE=-7.14D-07 OVMax= 2.66D-04

 Cycle  11  Pass 1  IDiag  1:
 E= -1198.52276520014     Delta-E=       -0.000000050616 Rises=F Damp=F
 DIIS: error= 6.80D-06 at cycle   3 NSaved=   3.
 NSaved= 3 IEnMin= 3 EnMin= -1198.52276520014     IErMin= 3 ErrMin= 6.80D-06
 ErrMax= 6.80D-06  0.00D+00 EMaxC= 1.00D-01 BMatC= 9.29D-08 BMatP= 9.63D-08
 IDIUse=1 WtCom= 1.00D+00 WtEn= 0.00D+00
 Coeff-Com: -0.392D-01 0.502D+00 0.538D+00
 Coeff:     -0.392D-01 0.502D+00 0.538D+00
 Gap=     0.224 Goal=   None    Shift=    0.000
 RMSDP=8.34D-07 MaxDP=3.44D-05 DE=-5.06D-08 OVMax= 7.50D-05

 Cycle  12  Pass 1  IDiag  1:
 E= -1198.52276526403     Delta-E=       -0.000000063893 Rises=F Damp=F
 DIIS: error= 2.45D-06 at cycle   4 NSaved=   4.
 NSaved= 4 IEnMin= 4 EnMin= -1198.52276526403     IErMin= 4 ErrMin= 2.45D-06
 ErrMax= 2.45D-06  0.00D+00 EMaxC= 1.00D-01 BMatC= 4.72D-09 BMatP= 9.29D-08
 IDIUse=1 WtCom= 1.00D+00 WtEn= 0.00D+00
 Coeff-Com: -0.228D-01 0.191D+00 0.223D+00 0.608D+00
 Coeff:     -0.228D-01 0.191D+00 0.223D+00 0.608D+00
 Gap=     0.224 Goal=   None    Shift=    0.000
 RMSDP=5.64D-07 MaxDP=3.35D-05 DE=-6.39D-08 OVMax= 6.64D-05

 Cycle  13  Pass 1  IDiag  1:
 E= -1198.52276527149     Delta-E=       -0.000000007460 Rises=F Damp=F
 DIIS: error= 1.49D-06 at cycle   5 NSaved=   5.
 NSaved= 5 IEnMin= 5 EnMin= -1198.52276527149     IErMin= 5 ErrMin= 1.49D-06
 ErrMax= 1.49D-06  0.00D+00 EMaxC= 1.00D-01 BMatC= 2.39D-09 BMatP= 4.72D-09
 IDIUse=1 WtCom= 1.00D+00 WtEn= 0.00D+00
 Coeff-Com:  0.610D-02-0.145D+00-0.181D+00 0.392D+00 0.928D+00
 Coeff:      0.610D-02-0.145D+00-0.181D+00 0.392D+00 0.928D+00
 Gap=     0.224 Goal=   None    Shift=    0.000
 RMSDP=7.22D-07 MaxDP=3.77D-05 DE=-7.46D-09 OVMax= 9.00D-05

 Cycle  14  Pass 1  IDiag  1:
 E= -1198.52276527826     Delta-E=       -0.000000006773 Rises=F Damp=F
 DIIS: error= 6.36D-07 at cycle   6 NSaved=   6.
 NSaved= 6 IEnMin= 6 EnMin= -1198.52276527826     IErMin= 6 ErrMin= 6.36D-07
 ErrMax= 6.36D-07  0.00D+00 EMaxC= 1.00D-01 BMatC= 2.46D-10 BMatP= 2.39D-09
 IDIUse=1 WtCom= 1.00D+00 WtEn= 0.00D+00
 Coeff-Com:  0.507D-02-0.689D-01-0.101D+00 0.255D-01 0.247D+00 0.892D+00
 Coeff:      0.507D-02-0.689D-01-0.101D+00 0.255D-01 0.247D+00 0.892D+00
 Gap=     0.224 Goal=   None    Shift=    0.000
 RMSDP=3.76D-07 MaxDP=2.31D-05 DE=-6.77D-09 OVMax= 4.35D-05

 Cycle  15  Pass 1  IDiag  1:
 E= -1198.52276527936     Delta-E=       -0.000000001102 Rises=F Damp=F
 DIIS: error= 2.85D-07 at cycle   7 NSaved=   7.
 NSaved= 7 IEnMin= 7 EnMin= -1198.52276527936     IErMin= 7 ErrMin= 2.85D-07
 ErrMax= 2.85D-07  0.00D+00 EMaxC= 1.00D-01 BMatC= 1.11D-10 BMatP= 2.46D-10
 IDIUse=1 WtCom= 1.00D+00 WtEn= 0.00D+00
 Coeff-Com:  0.679D-03 0.891D-02-0.283D-02-0.949D-01-0.165D+00 0.467D+00
 Coeff-Com:  0.786D+00
 Coeff:      0.679D-03 0.891D-02-0.283D-02-0.949D-01-0.165D+00 0.467D+00
 Coeff:      0.786D+00
 Gap=     0.224 Goal=   None    Shift=    0.000
 RMSDP=2.00D-07 MaxDP=1.33D-05 DE=-1.10D-09 OVMax= 2.24D-05

 Cycle  16  Pass 1  IDiag  1:
 E= -1198.52276527968     Delta-E=       -0.000000000315 Rises=F Damp=F
 DIIS: error= 1.02D-07 at cycle   8 NSaved=   8.
 NSaved= 8 IEnMin= 8 EnMin= -1198.52276527968     IErMin= 8 ErrMin= 1.02D-07
 ErrMax= 1.02D-07  0.00D+00 EMaxC= 1.00D-01 BMatC= 9.23D-12 BMatP= 1.11D-10
 IDIUse=1 WtCom= 1.00D+00 WtEn= 0.00D+00
 Coeff-Com: -0.731D-03 0.158D-01 0.146D-01-0.393D-01-0.108D+00 0.602D-01
 Coeff-Com:  0.259D+00 0.799D+00
 Coeff:     -0.731D-03 0.158D-01 0.146D-01-0.393D-01-0.108D+00 0.602D-01
 Coeff:      0.259D+00 0.799D+00
 Gap=     0.224 Goal=   None    Shift=    0.000
 RMSDP=6.58D-08 MaxDP=4.80D-06 DE=-3.15D-10 OVMax= 6.12D-06

 Cycle  17  Pass 1  IDiag  1:
 E= -1198.52276527974     Delta-E=       -0.000000000057 Rises=F Damp=F
 DIIS: error= 4.02D-08 at cycle   9 NSaved=   9.
 NSaved= 9 IEnMin= 9 EnMin= -1198.52276527974     IErMin= 9 ErrMin= 4.02D-08
 ErrMax= 4.02D-08  0.00D+00 EMaxC= 1.00D-01 BMatC= 2.17D-12 BMatP= 9.23D-12
 IDIUse=1 WtCom= 1.00D+00 WtEn= 0.00D+00
 Coeff-Com: -0.343D-03 0.447D-02 0.510D-02 0.259D-02-0.921D-02-0.541D-01
 Coeff-Com: -0.545D-01 0.336D+00 0.770D+00
 Coeff:     -0.343D-03 0.447D-02 0.510D-02 0.259D-02-0.921D-02-0.541D-01
 Coeff:     -0.545D-01 0.336D+00 0.770D+00
 Gap=     0.224 Goal=   None    Shift=    0.000
 RMSDP=2.40D-08 MaxDP=2.17D-06 DE=-5.68D-11 OVMax= 1.92D-06

 Cycle  18  Pass 1  IDiag  1:
 E= -1198.52276527968     Delta-E=        0.000000000059 Rises=F Damp=F
 DIIS: error= 2.02D-08 at cycle  10 NSaved=  10.
 NSaved=10 IEnMin= 9 EnMin= -1198.52276527974     IErMin=10 ErrMin= 2.02D-08
 ErrMax= 2.02D-08  0.00D+00 EMaxC= 1.00D-01 BMatC= 3.04D-13 BMatP= 2.17D-12
 IDIUse=1 WtCom= 1.00D+00 WtEn= 0.00D+00
 Coeff-Com:  0.576D-04-0.212D-02-0.206D-02 0.825D-02 0.204D-01-0.261D-01
 Coeff-Com: -0.712D-01-0.806D-01 0.232D+00 0.921D+00
 Coeff:      0.576D-04-0.212D-02-0.206D-02 0.825D-02 0.204D-01-0.261D-01
 Coeff:     -0.712D-01-0.806D-01 0.232D+00 0.921D+00
 Gap=     0.224 Goal=   None    Shift=    0.000
 RMSDP=1.24D-08 MaxDP=1.04D-06 DE= 5.87D-11 OVMax= 9.23D-07

 Cycle  19  Pass 1  IDiag  1:
 E= -1198.52276527975     Delta-E=       -0.000000000075 Rises=F Damp=F
 DIIS: error= 4.95D-09 at cycle  11 NSaved=  11.
 NSaved=11 IEnMin=11 EnMin= -1198.52276527975     IErMin=11 ErrMin= 4.95D-09
 ErrMax= 4.95D-09  0.00D+00 EMaxC= 1.00D-01 BMatC= 3.08D-14 BMatP= 3.04D-13
 IDIUse=1 WtCom= 1.00D+00 WtEn= 0.00D+00
 Coeff-Com:  0.603D-04-0.132D-02-0.143D-02 0.256D-02 0.827D-02-0.154D-02
 Coeff-Com: -0.188D-01-0.734D-01-0.670D-02 0.296D+00 0.796D+00
 Coeff:      0.603D-04-0.132D-02-0.143D-02 0.256D-02 0.827D-02-0.154D-02
 Coeff:     -0.188D-01-0.734D-01-0.670D-02 0.296D+00 0.796D+00
 Gap=     0.224 Goal=   None    Shift=    0.000
 RMSDP=2.88D-09 MaxDP=2.64D-07 DE=-7.50D-11 OVMax= 2.29D-07

 SCF Done:  E(RM062X) =  -1198.52276528     A.U. after   19 cycles
            NFock= 19  Conv=0.29D-08     -V/T= 1.9957
 KE= 1.203738948101D+03 PE=-4.816461397326D+03 EE= 1.430524080698D+03
 Leave Link  502 at Sat May 24 03:36:51 2025, MaxMem=  3758096384 cpu:             198.4 elap:              50.4
 (Enter /apps/easybuild-2022/easybuild/software/Compiler/NVHPC/22.11-CUDA-11.7.0/Gaussian/g16c01-CUDA-11.7.0/g16/l508.exe)
 QCSCF skips out because SCF is already converged.
 Leave Link  508 at Sat May 24 03:36:51 2025, MaxMem=  3758096384 cpu:               0.0 elap:               0.0
 (Enter /apps/easybuild-2022/easybuild/software/Compiler/NVHPC/22.11-CUDA-11.7.0/Gaussian/g16c01-CUDA-11.7.0/g16/l801.exe)
 DoSCS=F DFT=T ScalE2(SS,OS)=  1.000000  1.000000
 Range of M.O.s used for correlation:     1   366
 NBasis=   366 NAE=    49 NBE=    49 NFC=     0 NFV=     0
 NROrb=    366 NOA=    49 NOB=    49 NVA=   317 NVB=   317

 **** Warning!!: The largest alpha MO coefficient is  0.15868313D+02

 Leave Link  801 at Sat May 24 03:36:51 2025, MaxMem=  3758096384 cpu:               0.0 elap:               0.0
 (Enter /apps/easybuild-2022/easybuild/software/Compiler/NVHPC/22.11-CUDA-11.7.0/Gaussian/g16c01-CUDA-11.7.0/g16/l1101.exe)
 Using compressed storage, NAtomX=    12.
 Will process     13 centers per pass.
   1 Symmetry operations used in ECPInt.
 ECPInt:  NShTT=    8515 NPrTT=   27988 LenC2=    8052 LenP2D=   19758.
 LDataN:  DoStor=T MaxTD1= 7 Len=  274
 Leave Link 1101 at Sat May 24 03:36:51 2025, MaxMem=  3758096384 cpu:               0.9 elap:               0.2
 (Enter /apps/easybuild-2022/easybuild/software/Compiler/NVHPC/22.11-CUDA-11.7.0/Gaussian/g16c01-CUDA-11.7.0/g16/l1102.exe)
 Symmetrizing basis deriv contribution to polar:
 IMax=3 JMax=2 DiffMx= 0.00D+00
 Leave Link 1102 at Sat May 24 03:36:51 2025, MaxMem=  3758096384 cpu:               0.1 elap:               0.0
 (Enter /apps/easybuild-2022/easybuild/software/Compiler/NVHPC/22.11-CUDA-11.7.0/Gaussian/g16c01-CUDA-11.7.0/g16/l1110.exe)
 Forming Gx(P) for the SCF density, NAtomX=    12.
 Integral derivatives from FoFJK, PRISM(SPDF).
 Do as many integral derivatives as possible in FoFJK.
 G2DrvN: MDV=    3758095012.
 G2DrvN: will do    13 centers at a time, making    1 passes.
 Calling FoFCou, ICntrl=  3107 FMM=F I1Cent=   0 AccDes= 0.00D+00.
 FoFJK:  IHMeth= 1 ICntrl=    3107 DoSepK=F KAlg= 0 I1Cent=           0 FoldK=F
 IRaf=         0 NMat=       1 IRICut=       1 DoRegI=T DoRafI=F ISym2E= 0 IDoP0=0 IntGTp=1.
 FoFCou: FMM=F IPFlag=           0 FMFlag=      100000 FMFlg1=           0
         NFxFlg=           0 DoJE=F BraDBF=F KetDBF=F FulRan=T
         wScrn=  0.000000 ICntrl=      3107 IOpCl=  0 I1Cent=           0 NGrid=           0
         NMat0=    1 NMatS0=      1 NMatT0=    0 NMatD0=    1 NMtDS0=    0 NMtDT0=    0
 Symmetry not used in FoFCou.
 End of G2Drv F.D. properties file   721 does not exist.
 End of G2Drv F.D. properties file   722 does not exist.
 End of G2Drv F.D. properties file   788 does not exist.
 Leave Link 1110 at Sat May 24 03:37:49 2025, MaxMem=  3758096384 cpu:             462.0 elap:              58.2
 (Enter /apps/easybuild-2022/easybuild/software/Compiler/NVHPC/22.11-CUDA-11.7.0/Gaussian/g16c01-CUDA-11.7.0/g16/l1002.exe)
 Minotr:  Closed shell wavefunction.
          IDoAtm=111111111111
          Direct CPHF calculation.
          Differentiating once with respect to electric field.
                with respect to dipole field.
          Differentiating once with respect to nuclear coordinates.
          Requested convergence is 1.0D-08 RMS, and 1.0D-07 maximum.
          Secondary convergence is 1.0D-12 RMS, and 1.0D-12 maximum.
          NewPWx=T KeepS1=F KeepF1=F KeepIn=T MapXYZ=F SortEE=F KeepMc=T.
         3591 words used for storage of precomputed grid.
 Keep R1 ints in memory in canonical form, NReq=2293452897.
 FoFCou: FMM=F IPFlag=           0 FMFlag=           0 FMFlg1=           0
         NFxFlg=           0 DoJE=F BraDBF=F KetDBF=F FulRan=T
         wScrn=  0.000000 ICntrl=       600 IOpCl=  0 I1Cent=           0 NGrid=           0
         NMat0=    1 NMatS0=  67161 NMatT0=    0 NMatD0=    1 NMtDS0=    0 NMtDT0=    0
 Symmetry not used in FoFCou.
 Two-electron integral symmetry not used.
          MDV=    3758096384 using IRadAn=       1.
          Solving linear equations simultaneously, MaxMat=       0.
          There are    39 degrees of freedom in the 1st order CPHF.  IDoFFX=6 NUNeed=     3.
     36 vectors produced by pass  0 Test12= 3.98D-14 2.56D-09 XBig12= 3.63D+01 2.91D+00.
 AX will form    36 AO Fock derivatives at one time.
     36 vectors produced by pass  1 Test12= 3.98D-14 2.56D-09 XBig12= 7.54D+00 6.49D-01.
     36 vectors produced by pass  2 Test12= 3.98D-14 2.56D-09 XBig12= 2.59D-01 1.33D-01.
     36 vectors produced by pass  3 Test12= 3.98D-14 2.56D-09 XBig12= 5.39D-03 1.15D-02.
     36 vectors produced by pass  4 Test12= 3.98D-14 2.56D-09 XBig12= 6.27D-05 7.91D-04.
     36 vectors produced by pass  5 Test12= 3.98D-14 2.56D-09 XBig12= 5.62D-07 8.00D-05.
     36 vectors produced by pass  6 Test12= 3.98D-14 2.56D-09 XBig12= 3.43D-09 6.32D-06.
     21 vectors produced by pass  7 Test12= 3.98D-14 2.56D-09 XBig12= 1.85D-11 5.64D-07.
      3 vectors produced by pass  8 Test12= 3.98D-14 2.56D-09 XBig12= 9.64D-14 3.00D-08.
 InvSVY:  IOpt=1 It=  1 EMax= 1.78D-15
 Solved reduced A of dimension   276 with    39 vectors.
 FullF1:  Do perturbations      1 to       3.
 Isotropic polarizability for W=    0.000000       59.03 Bohr**3.
 End of Minotr F.D. properties file   721 does not exist.
 End of Minotr F.D. properties file   722 does not exist.
 End of Minotr F.D. properties file   788 does not exist.
 Leave Link 1002 at Sat May 24 03:39:23 2025, MaxMem=  3758096384 cpu:             736.2 elap:              93.5
 (Enter /apps/easybuild-2022/easybuild/software/Compiler/NVHPC/22.11-CUDA-11.7.0/Gaussian/g16c01-CUDA-11.7.0/g16/l701.exe)
 ... and contract with generalized density number  0.
 Compute integral second derivatives.
   1 Symmetry operations used in ECPInt.
 ECPInt:  NShTT=    8515 NPrTT=   27988 LenC2=    8052 LenP2D=   19758.
 LDataN:  DoStor=T MaxTD1= 8 Len=  415
 Leave Link  701 at Sat May 24 03:39:23 2025, MaxMem=  3758096384 cpu:               0.7 elap:               0.1
 (Enter /apps/easybuild-2022/easybuild/software/Compiler/NVHPC/22.11-CUDA-11.7.0/Gaussian/g16c01-CUDA-11.7.0/g16/l702.exe)
 L702 exits ... SP integral derivatives will be done elsewhere.
 Leave Link  702 at Sat May 24 03:39:23 2025, MaxMem=  3758096384 cpu:               0.0 elap:               0.0
 (Enter /apps/easybuild-2022/easybuild/software/Compiler/NVHPC/22.11-CUDA-11.7.0/Gaussian/g16c01-CUDA-11.7.0/g16/l703.exe)
 Integral derivatives from FoFJK, PRISM(SPDF).
 Compute integral second derivatives, UseDBF=F ICtDFT=           0.
 Calling FoFJK, ICntrl=    100127 FMM=F ISym2X=0 I1Cent= 0 IOpClX= 0 NMat=1 NMatS=1 NMatT=0.
 FoFJK:  IHMeth= 1 ICntrl=  100127 DoSepK=F KAlg= 0 I1Cent=           0 FoldK=F
 IRaf=         0 NMat=       1 IRICut=       1 DoRegI=T DoRafI=F ISym2E= 0 IDoP0=0 IntGTp=1.
 FoFCou: FMM=F IPFlag=           0 FMFlag=      100000 FMFlg1=         800
         NFxFlg=           0 DoJE=F BraDBF=F KetDBF=F FulRan=T
         wScrn=  0.000000 ICntrl=    100127 IOpCl=  0 I1Cent=           0 NGrid=           0
         NMat0=    1 NMatS0=      1 NMatT0=    0 NMatD0=    1 NMtDS0=    0 NMtDT0=    0
 Symmetry not used in FoFCou.
 Leave Link  703 at Sat May 24 03:41:28 2025, MaxMem=  3758096384 cpu:             994.1 elap:             125.1
 (Enter /apps/easybuild-2022/easybuild/software/Compiler/NVHPC/22.11-CUDA-11.7.0/Gaussian/g16c01-CUDA-11.7.0/g16/l716.exe)
 Dipole        =-6.92878799D-01 1.49180149D+00-6.46753088D-01
 Polarizability= 4.69854045D+01-6.95579619D+00 6.40563035D+01
                -5.66267416D+00 1.02451145D+01 6.60600689D+01
 -------------------------------------------------------------------
 Center     Atomic                   Forces (Hartrees/Bohr)
 Number     Number              X              Y              Z
 -------------------------------------------------------------------
      1        6           0.040751517   -0.049381048    0.002262370
      2        6           0.056759072   -0.099487829   -0.080854791
      3        9           0.037762690    0.006754931   -0.011461274
      4        9          -0.064843834   -0.002971969   -0.048075407
      5       16           0.487041428   -1.330686629    0.736884495
      6        8           0.634960192    0.256592348   -1.568891410
      7        8          -0.054217777    0.136847883   -0.040550671
      8        8          -1.220750511    0.459234729    1.033564928
      9        9          -0.021644514    0.014101118   -0.016128319
     10        9          -0.010701691    0.000447200   -0.008160046
     11        9          -0.005927852    0.014071876   -0.002727141
     12        1           0.120811280    0.594477390    0.004137267
 -------------------------------------------------------------------
 Cartesian Forces:  Max     1.568891410 RMS     0.490898260
 Force constants in Cartesian coordinates: 
                1             2             3             4             5 
      1  0.559536D+00
      2  0.309650D-01  0.605905D+00
      3 -0.381771D-01 -0.536591D-01  0.471845D+00
      4 -0.474856D-01  0.194687D-01  0.252543D-02  0.658772D+00
      5  0.243588D-01 -0.160250D+00 -0.251898D-01  0.704164D-02  0.439046D+00
      6 -0.104460D-01  0.527981D-01 -0.477323D-01  0.650251D-01 -0.514671D-01
      7 -0.184498D-01 -0.867821D-02  0.132115D-01 -0.259254D+00 -0.100674D+00
      8 -0.434171D-01 -0.186507D-01  0.268597D-01 -0.106576D+00 -0.128369D+00
      9  0.213594D-01  0.902748D-03 -0.997716D-02  0.122953D+00  0.732716D-01
     10 -0.244215D-01  0.491485D-02 -0.249309D-01 -0.301767D+00  0.429668D-01
     11  0.332968D-01  0.961873D-03  0.296740D-01  0.513239D-01 -0.714573D-01
     12 -0.199767D-01 -0.650578D-02 -0.187811D-01 -0.233939D+00  0.399387D-01
     13 -0.237592D-02  0.713020D-02  0.991708D-02  0.471160D-01  0.146046D-01
     14  0.476003D-02  0.117566D-01 -0.533160D-01 -0.145737D-01 -0.169279D+00
     15  0.105919D-02 -0.162998D-01  0.974319D-02  0.322850D-01 -0.149021D+00
     16  0.357194D-02  0.729761D-03  0.324797D-02 -0.824274D-01 -0.353556D-01
     17  0.493708D-02 -0.390527D-01  0.381598D-01  0.162309D-01  0.919249D-01
     18  0.260677D-02 -0.281441D-01  0.340066D-01  0.736224D-02  0.210722D+00
     19 -0.101089D-01  0.112377D-02 -0.743335D-02 -0.452488D-02 -0.415329D-02
     20 -0.388531D-02 -0.100845D-01  0.194126D-01  0.216860D-02  0.125983D-01
     21 -0.206433D-02  0.861646D-02 -0.391399D-02  0.745264D-03  0.154881D-01
     22  0.971771D-03 -0.108045D-01  0.522856D-02 -0.104768D-01  0.904084D-01
     23  0.284949D-02 -0.811972D-02  0.164984D-01  0.142543D-01  0.699798D-01
     24  0.958952D-03  0.301754D-02  0.246537D-02 -0.308182D-01 -0.223492D-01
     25 -0.178718D+00  0.381700D-01 -0.592385D-01 -0.222971D-01  0.105167D-02
     26  0.351188D-01 -0.101626D+00  0.226424D-01  0.250296D-01  0.165496D-02
     27 -0.608460D-01  0.243290D-01 -0.105845D+00 -0.111869D-01  0.506598D-02
     28 -0.205990D+00 -0.102949D+00  0.858732D-01 -0.684086D-02 -0.798442D-02
     29 -0.100562D+00 -0.168299D+00  0.703291D-01 -0.337935D-01 -0.142560D-01
     30  0.861958D-01  0.742663D-01 -0.121950D+00  0.106003D-01  0.997029D-02
     31 -0.762447D-01  0.123964D-01  0.189969D-01 -0.646281D-03  0.910265D-02
     32  0.130588D-01 -0.125090D+00 -0.798529D-01  0.103342D-01 -0.412729D-01
     33  0.191768D-01 -0.731186D-01 -0.186533D+00  0.424414D-02 -0.175226D-01
     34 -0.284391D-03  0.753254D-02 -0.922071D-02  0.298318D-01 -0.413668D-01
     35 -0.147986D-02  0.125481D-01 -0.115582D-01  0.909106D-02 -0.303202D-01
     36  0.153142D-03  0.137973D-01 -0.233277D-01  0.302033D-01 -0.889061D-01
                6             7             8             9            10 
      6  0.649759D+00
      7  0.122785D+00  0.404781D+00
      8  0.761107D-01  0.140107D+00  0.140035D+00
      9 -0.146546D+00 -0.171508D+00 -0.713682D-01  0.164988D+00
     10 -0.227106D+00 -0.107603D+00 -0.154974D-01 -0.235621D-01  0.428985D+00
     11  0.511532D-01 -0.271346D-01  0.149166D-01 -0.126669D-01 -0.409726D-01
     12 -0.258168D+00 -0.156585D-02 -0.478460D-02  0.295670D-01  0.291842D+00
     13  0.504577D-01  0.494538D-02 -0.189748D-02 -0.146394D-01 -0.143480D-02
     14 -0.112474D+00  0.659791D-02  0.109417D-01  0.201760D-02  0.405352D-03
     15 -0.106770D+00 -0.824719D-02  0.754228D-02  0.120508D-01  0.932316D-02
     16 -0.194142D-01 -0.373142D-01  0.293168D-01  0.726720D-01  0.321699D-02
     17  0.827506D-02 -0.144053D-01 -0.757811D-02  0.904372D-02  0.135572D-01
     18 -0.359602D-01  0.450002D-01 -0.467820D-01 -0.558571D-01 -0.176539D-01
     19 -0.322909D-02  0.200165D-02  0.108972D-02 -0.592061D-03 -0.225921D-02
     20 -0.142626D-01 -0.188739D-02 -0.443515D-03  0.109778D-02  0.283175D-03
     21  0.785735D-02  0.154218D-02  0.402146D-03 -0.248425D-02 -0.241673D-02
     22  0.242379D-01 -0.204012D-02 -0.715254D-02  0.178127D-02 -0.549129D-03
     23  0.322743D-01 -0.131371D-02 -0.559062D-02 -0.286073D-02 -0.822234D-03
     24 -0.159223D-01 -0.282929D-02  0.171043D-02  0.604836D-02  0.923041D-03
     25 -0.731070D-02  0.558030D-02  0.148918D-02 -0.878950D-03 -0.626380D-03
     26  0.106608D-01  0.655913D-03  0.138900D-03  0.400604D-03  0.489843D-02
     27 -0.324909D-02 -0.787950D-03 -0.586065D-03  0.957369D-03 -0.464238D-03
     28  0.147229D-02  0.205749D-02 -0.105921D-02 -0.879423D-04  0.417078D-02
     29  0.103403D-01 -0.230361D-02 -0.112709D-01  0.560138D-02  0.262355D-02
     30 -0.171984D-02 -0.337104D-03  0.305923D-02 -0.212489D-04  0.746383D-03
     31  0.974898D-02  0.274789D-02  0.101257D-02 -0.267055D-02  0.291786D-02
     32 -0.459115D-01  0.117722D-02  0.220623D-02  0.131600D-02 -0.210544D-02
     33 -0.249601D-01 -0.169477D-02  0.263087D-03  0.483806D-02  0.116676D-02
     34 -0.622138D-02  0.254679D-02  0.258408D-02 -0.482683D-02 -0.629921D-03
     35 -0.174968D-01  0.785893D-02  0.366401D-02 -0.675559D-02 -0.102517D-01
     36 -0.165887D-01  0.443099D-02  0.757333D-02 -0.356307D-02 -0.786800D-02
               11            12            13            14            15 
     11  0.643042D-01
     12 -0.344051D-01  0.291653D+00
     13  0.468035D-02 -0.374967D-03  0.192233D+01
     14  0.348763D-02 -0.333726D-01 -0.107823D+01  0.812458D+00
     15  0.187101D-01  0.113257D-01 -0.464923D+01 -0.180214D-01  0.549706D+01
     16 -0.191907D-01 -0.476918D-01 -0.186353D+00 -0.590650D+00  0.206608D+01
     17 -0.373590D-02  0.283078D-01 -0.526349D+00  0.707018D+00  0.139538D+01
     18 -0.617968D-01 -0.473569D-01  0.212236D+01  0.162410D+01 -0.392021D+01
     19 -0.210062D-02 -0.359888D-02 -0.570203D-01  0.538699D-02  0.473381D-01
     20 -0.179396D-03  0.260829D-02 -0.520270D-02 -0.517102D-01  0.147944D-02
     21 -0.477538D-04 -0.268043D-02  0.309951D-01  0.724714D-02 -0.526973D-01
     22 -0.843421D-02  0.621094D-02 -0.195282D+01  0.175220D+01  0.257286D+01
     23 -0.258001D-02  0.134838D-01  0.157055D+01 -0.130567D+00 -0.140438D+01
     24 -0.142759D-02 -0.150522D-01  0.253697D+01 -0.161083D+01 -0.164513D+01
     25  0.535715D-02 -0.123049D-02 -0.137962D-03  0.331190D-02  0.131689D-02
     26 -0.835450D-02  0.435602D-02 -0.141271D-02 -0.821739D-03  0.572447D-03
     27  0.264276D-02  0.103418D-02 -0.109372D-02  0.101033D-01 -0.541457D-02
     28 -0.124355D-02  0.241425D-02 -0.811420D-03  0.768814D-04  0.357772D-02
     29  0.177145D-04  0.977039D-03 -0.289271D-02 -0.946137D-03  0.417180D-02
     30 -0.100431D-02  0.165275D-02 -0.332001D-02  0.734867D-02 -0.796120D-02
     31 -0.949000D-03  0.216842D-02  0.707804D-03  0.282282D-02  0.103723D-02
     32  0.289284D-02  0.148963D-02 -0.942217D-03 -0.161796D-01 -0.204033D-02
     33  0.173260D-02  0.610000D-02 -0.209221D-02 -0.385601D-02 -0.522053D-02
     34  0.536712D-02  0.574126D-02  0.225860D+00 -0.921142D-01 -0.773936D-01
     35 -0.273804D-03 -0.120931D-01  0.199618D-01 -0.117616D+01  0.161901D+00
     36  0.743580D-02  0.705790D-03 -0.799566D-01  0.181054D+00  0.213225D+00
               16            17            18            19            20 
     16  0.209008D+00
     17  0.528501D+00 -0.552437D+00
     18 -0.210905D+01 -0.149116D+01  0.404548D+01
     19  0.207655D-01 -0.761284D-02 -0.112713D-01  0.853535D-01
     20  0.301466D-01 -0.432704D-01 -0.102288D-01 -0.293345D-01  0.131154D+00
     21 -0.118554D-01  0.187835D-01 -0.619438D-01 -0.241569D-01  0.120272D-01
     22  0.544465D-01 -0.117306D+00 -0.167846D+00 -0.283438D-01  0.681622D-02
     23  0.239513D-01 -0.100217D+00 -0.134702D+00  0.440889D-01 -0.213913D-01
     24 -0.318097D-01  0.758552D-01  0.131226D+00 -0.850915D-02  0.274850D-01
     25  0.657049D-03 -0.424319D-02 -0.569910D-02 -0.531550D-02  0.926646D-02
     26 -0.115115D-02  0.444476D-02  0.398141D-02  0.106571D-01 -0.410531D-02
     27 -0.527646D-03 -0.875538D-02 -0.442346D-02  0.169265D-01 -0.142224D-01
     28  0.101621D-02  0.139202D-02  0.466321D-03  0.289629D-02 -0.560574D-02
     29  0.254441D-02  0.443282D-02  0.656342D-03 -0.803496D-02 -0.155488D-01
     30 -0.986857D-03 -0.894627D-02 -0.296255D-02 -0.860503D-02 -0.276325D-01
     31  0.378382D-03 -0.376904D-02 -0.555748D-02  0.131862D-02 -0.337250D-03
     32 -0.182678D-02  0.193629D-01  0.261638D-01 -0.165152D-02  0.504254D-02
     33 -0.202584D-02  0.662009D-02  0.147952D-01  0.270607D-03 -0.715885D-03
     34  0.130343D-01  0.109067D+00  0.139280D+00 -0.476294D-02 -0.242812D-02
     35  0.329842D-01 -0.808923D-01 -0.928153D-01 -0.945878D-02 -0.206136D-02
     36  0.813640D-01 -0.715677D-01 -0.967943D-01  0.286053D-02  0.295183D-02
               21            22            23            24            25 
     21  0.126678D+00
     22 -0.219524D-02  0.196882D+01
     23 -0.271333D-01 -0.160448D+01  0.220634D+00
     24  0.155600D-01 -0.261416D+01  0.144174D+01  0.154671D+01
     25  0.107085D-01 -0.267162D-02 -0.194056D-02  0.530588D-03  0.283481D+00
     26 -0.104786D-01  0.218281D-02  0.523421D-03 -0.785671D-03 -0.365783D-01
     27 -0.966510D-02  0.481099D-03 -0.505113D-02 -0.346621D-03  0.106122D+00
     28 -0.651451D-02  0.653598D-03 -0.119375D-02  0.919467D-03 -0.737129D-01
     29 -0.191366D-01  0.143462D-02  0.407185D-03 -0.119063D-03 -0.114855D-01
     30 -0.159992D-01  0.872519D-03 -0.201994D-02 -0.873220D-03 -0.571738D-02
     31  0.603680D-03 -0.196133D-02 -0.161954D-02  0.128496D-03 -0.715401D-02
     32 -0.225065D-02  0.920004D-02  0.700906D-02 -0.182786D-02 -0.623140D-02
     33 -0.143502D-02  0.604847D-02  0.259069D-02 -0.206626D-02 -0.403882D-01
     34  0.460831D-02 -0.260248D-01 -0.443220D-01  0.147694D+00  0.916029D-03
     35 -0.351764D-02 -0.114068D+00 -0.300877D-01  0.875295D-01  0.183260D-02
     36  0.723636D-03  0.166487D+00  0.695504D-01 -0.226116D-01  0.178524D-02
               26            27            28            29            30 
     26  0.837115D-01
     27 -0.283717D-02  0.176491D+00
     28 -0.231194D-01  0.424590D-02  0.294418D+00
     29  0.131090D-01 -0.409270D-02  0.148272D+00  0.176568D+00
     30 -0.685455D-02  0.147762D-01 -0.138022D+00 -0.638139D-01  0.194819D+00
     31 -0.156329D-01 -0.538828D-01 -0.166238D-01  0.576308D-02  0.573663D-01
     32  0.129698D-01 -0.884816D-02 -0.490629D-02  0.188105D-01  0.135515D-01
     33 -0.201035D-01 -0.679372D-01  0.481921D-01 -0.271472D-02 -0.641313D-01
     34 -0.648275D-03  0.101366D-02 -0.123318D-02 -0.156440D-02  0.120705D-02
     35 -0.164513D-02  0.225204D-02 -0.167948D-02 -0.302478D-02  0.207546D-02
     36 -0.155429D-02  0.362157D-02 -0.253679D-02 -0.219901D-02  0.437057D-02
               31            32            33            34            35 
     31  0.934003D-01
     32 -0.982295D-02  0.119761D+00
     33 -0.298275D-01  0.108434D+00  0.329770D+00
     34  0.115926D-02 -0.628368D-02 -0.307037D-02 -0.240413D+00
     35  0.103310D-02 -0.551241D-02 -0.160955D-02  0.641764D-01  0.131376D+01
     36  0.188833D-02 -0.102238D-01 -0.322007D-02 -0.198811D+00 -0.107912D+00
               36 
     36 -0.565412D-01
 FormGI is forming the generalized inverse of G from B-inverse, IUseBI=4.
 GSVD:  received Info=                   1 from GESDD.
 Leave Link  716 at Sat May 24 03:41:28 2025, MaxMem=  3758096384 cpu:               0.0 elap:               0.0
 (Enter /apps/easybuild-2022/easybuild/software/Compiler/NVHPC/22.11-CUDA-11.7.0/Gaussian/g16c01-CUDA-11.7.0/g16/l103.exe)

 GradGradGradGradGradGradGradGradGradGradGradGradGradGradGradGradGradGrad
 Berny optimization.
 Red2BG is reusing G-inverse.
 Internal  Forces:  Max     1.836398014 RMS     0.385510837
 Search for a saddle point.
 Step number   1 out of a maximum of  100
 All quantities printed in internal units (Hartrees-Bohrs-Radians)
 Swapping is turned off.
 Second derivative matrix not updated -- analytic derivatives used.
 ITU=  0
     Eigenvalues ---   -0.47133  -0.09532  -0.01755   0.00189   0.03460
     Eigenvalues ---    0.04135   0.08191   0.09440   0.11783   0.13740
     Eigenvalues ---    0.13859   0.19591   0.20800   0.23201   0.26522
     Eigenvalues ---    0.30602   0.31946   0.33428   0.35035   0.39456
     Eigenvalues ---    0.42569   0.48066   0.53285   0.57385   0.72466
     Eigenvalues ---    0.81869   1.33892   2.27029   5.22724   5.46364
 Eigenvectors required to have negative eigenvalues:
                          D14       A14       D15       A16       A17
   1                    0.71613  -0.38532  -0.37942   0.23536  -0.22863
                          A13       R7        D13       R9        A15
   1                    0.16205  -0.13701  -0.12620  -0.06638   0.06589
 Eigenvalue     2 is  -9.53D-02 should be greater than     0.000000 Eigenvector:
                          R7        A14       A19       A13       D13
   1                    0.57205  -0.39752  -0.36641   0.23552   0.23462
                          A18       A15       D15       A16       R9
   1                   -0.21988  -0.21771   0.21548   0.15848  -0.12479
 Eigenvalue     3 is  -1.75D-02 should be greater than     0.000000 Eigenvector:
                          D10       D9        D3        D6        D11
   1                    0.42795  -0.36180  -0.34202  -0.32336   0.27365
                          D12       A17       D7        D13       D8
   1                    0.25803  -0.21504  -0.19817   0.19608  -0.18303
 RFO step:  Lambda0=4.392945648D-02 Lambda=-1.19542351D+00.
 Linear search not attempted -- option 19 set.
 Maximum step size (   0.300) exceeded in Quadratic search.
    -- Step size scaled by   0.259
 Iteration  1 RMS(Cart)=  0.05101072 RMS(Int)=  0.00274178
 Iteration  2 RMS(Cart)=  0.00316930 RMS(Int)=  0.00014700
 Iteration  3 RMS(Cart)=  0.00001389 RMS(Int)=  0.00014641
 Iteration  4 RMS(Cart)=  0.00000001 RMS(Int)=  0.00014641
 ITry= 1 IFail=0 DXMaxC= 2.20D-01 DCOld= 1.00D+10 DXMaxT= 3.00D-01 DXLimC= 3.00D+00 Rises=F
 Variable       Old X    -DE/DX   Delta X   Delta X   Delta X     New X
                                 (Linear)    (Quad)   (Total)
    R1        2.91063   0.01653   0.00000   0.01544   0.01544   2.92607
    R2        2.57404  -0.02885   0.00000  -0.01187  -0.01187   2.56217
    R3        2.47587   0.00404   0.00000  -0.00004  -0.00004   2.47582
    R4        2.56362  -0.00462   0.00000  -0.00516  -0.00516   2.55845
    R5        2.45922   0.03810   0.00000   0.00243   0.00243   2.46165
    R6        2.39423   0.07968   0.00000   0.00611   0.00611   2.40035
    R7        2.73463   0.20147   0.00000  -0.10958  -0.10958   2.62505
    R8        2.04763   1.83640   0.00000   0.08421   0.08421   2.13184
    R9        3.13418  -0.15206   0.00000   0.01670   0.01670   3.15088
   R10        2.04957   1.64467   0.00000   0.06816   0.06816   2.11773
   R11        1.88985   0.58919   0.00000   0.04095   0.04095   1.93080
    A1        1.99190  -0.00796   0.00000   0.01430   0.01427   2.00618
    A2        2.01669  -0.00184   0.00000  -0.00177  -0.00192   2.01477
    A3        1.88646  -0.02490   0.00000  -0.02989  -0.02992   1.85654
    A4        1.91394   0.01385   0.00000   0.00780   0.00769   1.92163
    A5        1.79719   0.01449   0.00000   0.00279   0.00291   1.80009
    A6        1.83733   0.00824   0.00000   0.00502   0.00484   1.84217
    A7        1.88965  -0.02409   0.00000  -0.00524  -0.00522   1.88443
    A8        1.93841  -0.03391   0.00000  -0.02024  -0.02049   1.91792
    A9        2.21100   0.07319   0.00000  -0.00959  -0.00976   2.20124
   A10        1.86829   0.01771   0.00000   0.00843   0.00832   1.87661
   A11        1.73909  -0.01873   0.00000   0.03470   0.03473   1.77383
   A12        1.78686  -0.01530   0.00000  -0.00019  -0.00055   1.78631
   A13        1.91600  -0.05720   0.00000  -0.09296  -0.09309   1.82291
   A14        2.36630   0.14000   0.00000   0.16373   0.16397   2.53027
   A15        1.22494   0.13555   0.00000   0.06615   0.06578   1.29072
   A16        2.00074  -0.07852   0.00000  -0.07071  -0.07082   1.92992
   A17        2.66510  -0.09231   0.00000  -0.01764  -0.01742   2.64767
   A18        1.22414   0.11988   0.00000   0.08471   0.08433   1.30847
   A19        2.11259   0.17557   0.00000   0.09152   0.09152   2.20412
    D1        0.89814   0.00217   0.00000  -0.02104  -0.02112   0.87701
    D2        2.94459  -0.01019   0.00000  -0.02550  -0.02562   2.91897
    D3       -1.15724  -0.00196   0.00000  -0.05916  -0.05913  -1.21637
    D4        3.14113   0.01296   0.00000   0.00250   0.00246  -3.13960
    D5       -1.09561   0.00060   0.00000  -0.00195  -0.00204  -1.09765
    D6        1.08575   0.00882   0.00000  -0.03562  -0.03555   1.05020
    D7       -1.08965   0.00459   0.00000  -0.01344  -0.01339  -1.10304
    D8        0.95680  -0.00777   0.00000  -0.01790  -0.01789   0.93892
    D9        3.13816   0.00046   0.00000  -0.05157  -0.05139   3.08676
   D10       -0.46268   0.00490   0.00000   0.05395   0.05398  -0.40870
   D11       -2.58389   0.00913   0.00000   0.03368   0.03374  -2.55016
   D12        1.77978  -0.00006   0.00000   0.01457   0.01448   1.79426
   D13        0.70476  -0.04882   0.00000  -0.03087  -0.03066   0.67410
   D14       -2.45674   0.24659   0.00000  -0.02858  -0.02848  -2.48521
   D15       -2.94390  -0.12943   0.00000  -0.03481  -0.03513  -2.97903
         Item               Value     Threshold  Converged?
 Maximum Force            1.836398     0.000450     NO 
 RMS     Force            0.385511     0.000300     NO 
 Maximum Displacement     0.220243     0.001800     NO 
 RMS     Displacement     0.050539     0.001200     NO 
 Predicted change in Energy=-3.138057D-01
 Lowest energy point so far.  Saving SCF results.
 GradGradGradGradGradGradGradGradGradGradGradGradGradGradGradGradGradGrad

 Leave Link  103 at Sat May 24 03:41:28 2025, MaxMem=  3758096384 cpu:               0.1 elap:               0.1
 (Enter /apps/easybuild-2022/easybuild/software/Compiler/NVHPC/22.11-CUDA-11.7.0/Gaussian/g16c01-CUDA-11.7.0/g16/l202.exe)
                          Input orientation:                          
 ---------------------------------------------------------------------
 Center     Atomic      Atomic             Coordinates (Angstroms)
 Number     Number       Type             X           Y           Z
 ---------------------------------------------------------------------
      1          6           0        2.092538   -1.860621   -1.591035
      2          6           0        1.832103   -0.357911   -1.858644
      3          9           0        2.891886    0.137891   -2.431298
      4          9           0        0.862377   -0.224875   -2.668189
      5         16           0        1.118181    0.426320    0.124405
      6          8           0        1.553664    0.608306   -0.900236
      7          8           0        1.842860   -0.984110    0.639824
      8          8           0        0.419804    0.819367    0.907767
      9          9           0        3.262505   -2.135288   -0.963308
     10          9           0        1.109843   -2.508287   -1.015425
     11          9           0        2.249765   -2.442487   -2.803343
     12          1           0        1.114383    1.439403   -0.008234
 ---------------------------------------------------------------------
                    Distance matrix (angstroms):
                    1          2          3          4          5
     1  C    0.000000
     2  C    1.548412   0.000000
     3  F    2.310638   1.302648   0.000000
     4  F    2.312838   1.270209   2.075241   0.000000
     5  S    3.020300   2.248820   3.124234   2.878902   0.000000
     6  O    2.619769   1.389119   2.087170   2.073096   1.128119
     7  O    2.409843   2.575768   3.433821   3.532808   1.667372
     8  O    4.027950   3.321686   4.210101   3.751502   1.120656
     9  F    1.355842   2.450867   2.731245   3.509546   3.513273
    10  F    1.310148   2.420082   3.490363   2.829635   3.148207
    11  F    1.353876   2.326447   2.684975   2.619335   4.252323
    12  H    3.788431   2.677588   3.274857   3.147807   1.021736
                    6          7          8          9         10
     6  O    0.000000
     7  O    2.234100   0.000000
     8  O    2.144541   2.312879   0.000000
     9  F    3.232867   2.431180   4.506867   0.000000
    10  F    3.150143   2.366491   3.904882   2.185360   0.000000
    11  F    3.662474   3.761361   5.268851   2.122674   2.121415
    12  H    1.295900   2.612293   1.306117   4.278436   4.074152
                   11         12
    11  F    0.000000
    12  H    4.916381   0.000000
 Symmetry turned off by external request.
 Stoichiometry    C2HF5O3S
 Rotational constants (GHZ):           1.7509203           0.9102707           0.7646351
 Leave Link  202 at Sat May 24 03:41:28 2025, MaxMem=  3758096384 cpu:               0.0 elap:               0.0
 (Enter /apps/easybuild-2022/easybuild/software/Compiler/NVHPC/22.11-CUDA-11.7.0/Gaussian/g16c01-CUDA-11.7.0/g16/l301.exe)
 Standard basis: def2TZVPP (5D, 7F)
 Ernie: Thresh=  0.10000D-02 Tol=  0.10000D-05 Strict=F.
   366 basis functions,   596 primitive gaussians,   423 cartesian basis functions
    49 alpha electrons       49 beta electrons
       nuclear repulsion energy       976.6585796442 Hartrees.
 IExCor= 4336 DFT=T Ex+Corr=M062X ExCW=0 ScaHFX=  0.540000
 ScaDFX=  1.000000  1.000000  1.000000  1.000000 ScalE2=  1.000000  1.000000
 IRadAn=      5 IRanWt=     -1 IRanGd=            0 ICorTp=0 IEmpDi=  4
 NAtoms=   12 NActive=   12 NUniq=   12 SFac= 1.00D+00 NAtFMM=   60 NAOKFM=F Big=F
 Integral buffers will be    131072 words long.
 Raffenetti 2 integral format.
 Two-electron integral symmetry is turned off.
 Leave Link  301 at Sat May 24 03:41:28 2025, MaxMem=  3758096384 cpu:               0.0 elap:               0.0
 (Enter /apps/easybuild-2022/easybuild/software/Compiler/NVHPC/22.11-CUDA-11.7.0/Gaussian/g16c01-CUDA-11.7.0/g16/l302.exe)
 NPDir=0 NMtPBC=     1 NCelOv=     1 NCel=       1 NClECP=     1 NCelD=      1
         NCelK=      1 NCelE2=     1 NClLst=     1 CellRange=     0.0.
 One-electron integrals computed using PRISM.
   1 Symmetry operations used in ECPInt.
 ECPInt:  NShTT=    8515 NPrTT=   27988 LenC2=    8041 LenP2D=   19725.
 LDataN:  DoStor=T MaxTD1= 6 Len=  172
 NBasis=   366 RedAO= T EigKep=  2.27D-04  NBF=   366
 NBsUse=   366 1.00D-06 EigRej= -1.00D+00 NBFU=   366
 Precomputing XC quadrature grid using
 IXCGrd= 4 IRadAn=           5 IRanWt=          -1 IRanGd=           0 AccXCQ= 0.00D+00.
 Generated NRdTot=       0 NPtTot=           0 NUsed=           0 NTot=          32
 NSgBfM=   419   419   419   419   419 MxSgAt=    12 MxSgA2=    12.
 Leave Link  302 at Sat May 24 03:41:29 2025, MaxMem=  3758096384 cpu:               0.7 elap:               0.2
 (Enter /apps/easybuild-2022/easybuild/software/Compiler/NVHPC/22.11-CUDA-11.7.0/Gaussian/g16c01-CUDA-11.7.0/g16/l303.exe)
 DipDrv:  MaxL=1.
 Leave Link  303 at Sat May 24 03:41:29 2025, MaxMem=  3758096384 cpu:               0.1 elap:               0.0
 (Enter /apps/easybuild-2022/easybuild/software/Compiler/NVHPC/22.11-CUDA-11.7.0/Gaussian/g16c01-CUDA-11.7.0/g16/l401.exe)
 Initial guess from the checkpoint file:  "2003846667223680600001_intra_H_migration_suprafacial_6_12.chk"
 B after Tr=    -0.000900   -0.000462   -0.000114
         Rot=    0.999999   -0.000608    0.000472    0.000740 Ang=  -0.12 deg.
 Guess basis will be translated and rotated to current coordinates.
 JPrj=2 DoOrth=T DoCkMO=T.
 Generating alternative initial guess.
 ExpMin= 9.52D-02 ExpMax= 6.07D+04 ExpMxC= 2.07D+03 IAcc=3 IRadAn=         5 AccDes= 0.00D+00
 Harris functional with IExCor= 1009 and IRadAn=       5 diagonalized for initial guess.
 HarFok:  IExCor= 1009 AccDes= 0.00D+00 IRadAn=         5 IDoV= 1 UseB2=F ITyADJ=14
 ICtDFT=  3500011 ScaDFX=  1.000000  1.000000  1.000000  1.000000
 FoFCou: FMM=F IPFlag=           0 FMFlag=      100000 FMFlg1=           0
         NFxFlg=           0 DoJE=T BraDBF=F KetDBF=T FulRan=T
         wScrn=  0.000000 ICntrl=       500 IOpCl=  0 I1Cent=   200000004 NGrid=           0
         NMat0=    1 NMatS0=      1 NMatT0=    0 NMatD0=    1 NMtDS0=    0 NMtDT0=    0
 Symmetry not used in FoFCou.
 Harris En= -1198.38083288294    
 Leave Link  401 at Sat May 24 03:41:29 2025, MaxMem=  3758096384 cpu:               4.6 elap:               0.7
 (Enter /apps/easybuild-2022/easybuild/software/Compiler/NVHPC/22.11-CUDA-11.7.0/Gaussian/g16c01-CUDA-11.7.0/g16/l502.exe)
 Keep R1 ints in memory in canonical form, NReq=2293446996.
 FoFCou: FMM=F IPFlag=           0 FMFlag=           0 FMFlg1=           0
         NFxFlg=           0 DoJE=F BraDBF=F KetDBF=F FulRan=T
         wScrn=  0.000000 ICntrl=       600 IOpCl=  0 I1Cent=           0 NGrid=           0
         NMat0=    1 NMatS0=  67161 NMatT0=    0 NMatD0=    1 NMtDS0=    0 NMtDT0=    0
 Symmetry not used in FoFCou.
 Two-electron integral symmetry not used.
 Closed shell SCF:
 Using DIIS extrapolation, IDIIS=  1040.
 NGot=  3758096384 LenX=  1502398672 LenY=  1502219302
 Requested convergence on RMS density matrix=1.00D-08 within  32 cycles.
 Requested convergence on MAX density matrix=1.00D-06.
 Requested convergence on             energy=1.00D-06.
 No special actions if energy rises.
 Integral accuracy reduced to 1.0D-05 until final iterations.

 Cycle   1  Pass 0  IDiag  1:
 E= -1198.78569752537    
 DIIS: error= 8.24D-03 at cycle   1 NSaved=   1.
 NSaved= 1 IEnMin= 1 EnMin= -1198.78569752537     IErMin= 1 ErrMin= 8.24D-03
 ErrMax= 8.24D-03  0.00D+00 EMaxC= 1.00D-01 BMatC= 6.19D-02 BMatP= 6.19D-02
 IDIUse=3 WtCom= 9.18D-01 WtEn= 8.24D-02
 Coeff-Com:  0.100D+01
 Coeff-En:   0.100D+01
 Coeff:      0.100D+01
 Gap=     0.964 Goal=   None    Shift=    0.000
 GapD=    0.964 DampG=2.000 DampE=1.000 DampFc=2.0000 IDamp=-1.
 RMSDP=9.58D-04 MaxDP=4.78D-02              OVMax= 1.01D-01

 Cycle   2  Pass 0  IDiag  1:
 E= -1198.83034109777     Delta-E=       -0.044643572397 Rises=F Damp=F
 DIIS: error= 1.46D-03 at cycle   2 NSaved=   2.
 NSaved= 2 IEnMin= 2 EnMin= -1198.83034109777     IErMin= 2 ErrMin= 1.46D-03
 ErrMax= 1.46D-03  0.00D+00 EMaxC= 1.00D-01 BMatC= 1.96D-03 BMatP= 6.19D-02
 IDIUse=3 WtCom= 9.85D-01 WtEn= 1.46D-02
 Coeff-Com: -0.267D-01 0.103D+01
 Coeff-En:   0.000D+00 0.100D+01
 Coeff:     -0.263D-01 0.103D+01
 Gap=     0.265 Goal=   None    Shift=    0.000
 RMSDP=4.59D-04 MaxDP=2.71D-02 DE=-4.46D-02 OVMax= 4.12D-02

 Cycle   3  Pass 0  IDiag  1:
 E= -1198.83266330041     Delta-E=       -0.002322202645 Rises=F Damp=F
 DIIS: error= 1.21D-03 at cycle   3 NSaved=   3.
 NSaved= 3 IEnMin= 3 EnMin= -1198.83266330041     IErMin= 3 ErrMin= 1.21D-03
 ErrMax= 1.21D-03  0.00D+00 EMaxC= 1.00D-01 BMatC= 1.54D-03 BMatP= 1.96D-03
 IDIUse=3 WtCom= 9.88D-01 WtEn= 1.21D-02
 Coeff-Com: -0.383D-01 0.485D+00 0.553D+00
 Coeff-En:   0.000D+00 0.000D+00 0.100D+01
 Coeff:     -0.379D-01 0.479D+00 0.559D+00
 Gap=     0.265 Goal=   None    Shift=    0.000
 RMSDP=1.04D-04 MaxDP=5.81D-03 DE=-2.32D-03 OVMax= 1.45D-02

 Cycle   4  Pass 0  IDiag  1:
 E= -1198.83360157333     Delta-E=       -0.000938272915 Rises=F Damp=F
 DIIS: error= 5.79D-04 at cycle   4 NSaved=   4.
 NSaved= 4 IEnMin= 4 EnMin= -1198.83360157333     IErMin= 4 ErrMin= 5.79D-04
 ErrMax= 5.79D-04  0.00D+00 EMaxC= 1.00D-01 BMatC= 3.53D-04 BMatP= 1.54D-03
 IDIUse=3 WtCom= 9.94D-01 WtEn= 5.79D-03
 Coeff-Com: -0.129D-01 0.181D-01 0.316D+00 0.679D+00
 Coeff-En:   0.000D+00 0.000D+00 0.137D+00 0.863D+00
 Coeff:     -0.129D-01 0.180D-01 0.315D+00 0.680D+00
 Gap=     0.266 Goal=   None    Shift=    0.000
 RMSDP=1.11D-04 MaxDP=6.03D-03 DE=-9.38D-04 OVMax= 1.04D-02

 Cycle   5  Pass 0  IDiag  1:
 E= -1198.83391559614     Delta-E=       -0.000314022813 Rises=F Damp=F
 DIIS: error= 1.93D-04 at cycle   5 NSaved=   5.
 NSaved= 5 IEnMin= 5 EnMin= -1198.83391559614     IErMin= 5 ErrMin= 1.93D-04
 ErrMax= 1.93D-04  0.00D+00 EMaxC= 1.00D-01 BMatC= 4.15D-05 BMatP= 3.53D-04
 IDIUse=3 WtCom= 9.98D-01 WtEn= 1.93D-03
 Coeff-Com:  0.130D-02-0.795D-01 0.353D-01 0.314D+00 0.729D+00
 Coeff-En:   0.000D+00 0.000D+00 0.000D+00 0.000D+00 0.100D+01
 Coeff:      0.130D-02-0.794D-01 0.352D-01 0.314D+00 0.729D+00
 Gap=     0.266 Goal=   None    Shift=    0.000
 RMSDP=5.30D-05 MaxDP=3.60D-03 DE=-3.14D-04 OVMax= 3.81D-03

 Cycle   6  Pass 0  IDiag  1:
 E= -1198.83395882844     Delta-E=       -0.000043232296 Rises=F Damp=F
 DIIS: error= 4.61D-05 at cycle   6 NSaved=   6.
 NSaved= 6 IEnMin= 6 EnMin= -1198.83395882844     IErMin= 6 ErrMin= 4.61D-05
 ErrMax= 4.61D-05  0.00D+00 EMaxC= 1.00D-01 BMatC= 2.54D-06 BMatP= 4.15D-05
 IDIUse=1 WtCom= 1.00D+00 WtEn= 0.00D+00
 Coeff-Com:  0.165D-02-0.304D-01-0.189D-01 0.568D-01 0.240D+00 0.751D+00
 Coeff:      0.165D-02-0.304D-01-0.189D-01 0.568D-01 0.240D+00 0.751D+00
 Gap=     0.266 Goal=   None    Shift=    0.000
 RMSDP=1.89D-05 MaxDP=1.39D-03 DE=-4.32D-05 OVMax= 1.67D-03

 Cycle   7  Pass 0  IDiag  1:
 E= -1198.83396308492     Delta-E=       -0.000004256478 Rises=F Damp=F
 DIIS: error= 2.76D-05 at cycle   7 NSaved=   7.
 NSaved= 7 IEnMin= 7 EnMin= -1198.83396308492     IErMin= 7 ErrMin= 2.76D-05
 ErrMax= 2.76D-05  0.00D+00 EMaxC= 1.00D-01 BMatC= 4.36D-07 BMatP= 2.54D-06
 IDIUse=1 WtCom= 1.00D+00 WtEn= 0.00D+00
 Coeff-Com:  0.321D-03 0.259D-02-0.132D-01-0.290D-01-0.420D-01 0.234D+00
 Coeff-Com:  0.847D+00
 Coeff:      0.321D-03 0.259D-02-0.132D-01-0.290D-01-0.420D-01 0.234D+00
 Coeff:      0.847D+00
 Gap=     0.266 Goal=   None    Shift=    0.000
 RMSDP=1.18D-05 MaxDP=9.18D-04 DE=-4.26D-06 OVMax= 1.12D-03

 Cycle   8  Pass 0  IDiag  1:
 E= -1198.83396436151     Delta-E=       -0.000001276590 Rises=F Damp=F
 DIIS: error= 1.42D-05 at cycle   8 NSaved=   8.
 NSaved= 8 IEnMin= 8 EnMin= -1198.83396436151     IErMin= 8 ErrMin= 1.42D-05
 ErrMax= 1.42D-05  0.00D+00 EMaxC= 1.00D-01 BMatC= 7.99D-08 BMatP= 4.36D-07
 IDIUse=1 WtCom= 1.00D+00 WtEn= 0.00D+00
 Coeff-Com: -0.174D-03 0.501D-02 0.166D-02-0.100D-01-0.456D-01-0.877D-01
 Coeff-Com:  0.184D+00 0.953D+00
 Coeff:     -0.174D-03 0.501D-02 0.166D-02-0.100D-01-0.456D-01-0.877D-01
 Coeff:      0.184D+00 0.953D+00
 Gap=     0.266 Goal=   None    Shift=    0.000
 RMSDP=6.41D-06 MaxDP=4.79D-04 DE=-1.28D-06 OVMax= 6.57D-04

 Initial convergence to 1.0D-05 achieved.  Increase integral accuracy.
 Cycle   9  Pass 1  IDiag  1:
 E= -1198.83399562593     Delta-E=       -0.000031264429 Rises=F Damp=F
 DIIS: error= 2.22D-05 at cycle   1 NSaved=   1.
 NSaved= 1 IEnMin= 1 EnMin= -1198.83399562593     IErMin= 1 ErrMin= 2.22D-05
 ErrMax= 2.22D-05  0.00D+00 EMaxC= 1.00D-01 BMatC= 8.44D-07 BMatP= 8.44D-07
 IDIUse=1 WtCom= 1.00D+00 WtEn= 0.00D+00
 Coeff-Com:  0.100D+01
 Coeff:      0.100D+01
 Gap=     0.266 Goal=   None    Shift=    0.000
 RMSDP=6.41D-06 MaxDP=4.79D-04 DE=-3.13D-05 OVMax= 3.31D-04

 Cycle  10  Pass 1  IDiag  1:
 E= -1198.83399628039     Delta-E=       -0.000000654453 Rises=F Damp=F
 DIIS: error= 6.67D-06 at cycle   2 NSaved=   2.
 NSaved= 2 IEnMin= 2 EnMin= -1198.83399628039     IErMin= 2 ErrMin= 6.67D-06
 ErrMax= 6.67D-06  0.00D+00 EMaxC= 1.00D-01 BMatC= 4.13D-08 BMatP= 8.44D-07
 IDIUse=1 WtCom= 1.00D+00 WtEn= 0.00D+00
 Coeff-Com:  0.141D-01 0.986D+00
 Coeff:      0.141D-01 0.986D+00
 Gap=     0.266 Goal=   None    Shift=    0.000
 RMSDP=2.72D-06 MaxDP=1.36D-04 DE=-6.54D-07 OVMax= 2.10D-04

 Cycle  11  Pass 1  IDiag  1:
 E= -1198.83399630334     Delta-E=       -0.000000022949 Rises=F Damp=F
 DIIS: error= 5.83D-06 at cycle   3 NSaved=   3.
 NSaved= 3 IEnMin= 3 EnMin= -1198.83399630334     IErMin= 3 ErrMin= 5.83D-06
 ErrMax= 5.83D-06  0.00D+00 EMaxC= 1.00D-01 BMatC= 6.12D-08 BMatP= 4.13D-08
 IDIUse=1 WtCom= 1.00D+00 WtEn= 0.00D+00
 Coeff-Com: -0.377D-01 0.574D+00 0.463D+00
 Coeff:     -0.377D-01 0.574D+00 0.463D+00
 Gap=     0.266 Goal=   None    Shift=    0.000
 RMSDP=6.35D-07 MaxDP=3.74D-05 DE=-2.29D-08 OVMax= 6.04D-05

 Cycle  12  Pass 1  IDiag  1:
 E= -1198.83399634750     Delta-E=       -0.000000044163 Rises=F Damp=F
 DIIS: error= 2.35D-06 at cycle   4 NSaved=   4.
 NSaved= 4 IEnMin= 4 EnMin= -1198.83399634750     IErMin= 4 ErrMin= 2.35D-06
 ErrMax= 2.35D-06  0.00D+00 EMaxC= 1.00D-01 BMatC= 1.97D-09 BMatP= 4.13D-08
 IDIUse=1 WtCom= 1.00D+00 WtEn= 0.00D+00
 Coeff-Com: -0.114D-01 0.869D-01 0.117D+00 0.808D+00
 Coeff:     -0.114D-01 0.869D-01 0.117D+00 0.808D+00
 Gap=     0.266 Goal=   None    Shift=    0.000
 RMSDP=6.64D-07 MaxDP=3.89D-05 DE=-4.42D-08 OVMax= 7.28D-05

 Cycle  13  Pass 1  IDiag  1:
 E= -1198.83399635288     Delta-E=       -0.000000005382 Rises=F Damp=F
 DIIS: error= 1.41D-06 at cycle   5 NSaved=   5.
 NSaved= 5 IEnMin= 5 EnMin= -1198.83399635288     IErMin= 5 ErrMin= 1.41D-06
 ErrMax= 1.41D-06  0.00D+00 EMaxC= 1.00D-01 BMatC= 1.76D-09 BMatP= 1.97D-09
 IDIUse=1 WtCom= 1.00D+00 WtEn= 0.00D+00
 Coeff-Com:  0.679D-02-0.157D+00-0.106D+00 0.557D+00 0.699D+00
 Coeff:      0.679D-02-0.157D+00-0.106D+00 0.557D+00 0.699D+00
 Gap=     0.266 Goal=   None    Shift=    0.000
 RMSDP=5.22D-07 MaxDP=3.78D-05 DE=-5.38D-09 OVMax= 5.56D-05

 Cycle  14  Pass 1  IDiag  1:
 E= -1198.83399635642     Delta-E=       -0.000000003534 Rises=F Damp=F
 DIIS: error= 6.36D-07 at cycle   6 NSaved=   6.
 NSaved= 6 IEnMin= 6 EnMin= -1198.83399635642     IErMin= 6 ErrMin= 6.36D-07
 ErrMax= 6.36D-07  0.00D+00 EMaxC= 1.00D-01 BMatC= 1.47D-10 BMatP= 1.76D-09
 IDIUse=1 WtCom= 1.00D+00 WtEn= 0.00D+00
 Coeff-Com:  0.462D-02-0.733D-01-0.646D-01-0.449D-02 0.193D+00 0.945D+00
 Coeff:      0.462D-02-0.733D-01-0.646D-01-0.449D-02 0.193D+00 0.945D+00
 Gap=     0.266 Goal=   None    Shift=    0.000
 RMSDP=3.08D-07 MaxDP=2.02D-05 DE=-3.53D-09 OVMax= 3.66D-05

 Cycle  15  Pass 1  IDiag  1:
 E= -1198.83399635721     Delta-E=       -0.000000000797 Rises=F Damp=F
 DIIS: error= 1.81D-07 at cycle   7 NSaved=   7.
 NSaved= 7 IEnMin= 7 EnMin= -1198.83399635721     IErMin= 7 ErrMin= 1.81D-07
 ErrMax= 1.81D-07  0.00D+00 EMaxC= 1.00D-01 BMatC= 2.43D-11 BMatP= 1.47D-10
 IDIUse=1 WtCom= 1.00D+00 WtEn= 0.00D+00
 Coeff-Com:  0.170D-03 0.128D-01 0.213D-02-0.121D+00-0.940D-01 0.281D+00
 Coeff-Com:  0.918D+00
 Coeff:      0.170D-03 0.128D-01 0.213D-02-0.121D+00-0.940D-01 0.281D+00
 Coeff:      0.918D+00
 Gap=     0.266 Goal=   None    Shift=    0.000
 RMSDP=1.15D-07 MaxDP=7.72D-06 DE=-7.97D-10 OVMax= 1.46D-05

 Cycle  16  Pass 1  IDiag  1:
 E= -1198.83399635731     Delta-E=       -0.000000000099 Rises=F Damp=F
 DIIS: error= 4.34D-08 at cycle   8 NSaved=   8.
 NSaved= 8 IEnMin= 8 EnMin= -1198.83399635731     IErMin= 8 ErrMin= 4.34D-08
 ErrMax= 4.34D-08  0.00D+00 EMaxC= 1.00D-01 BMatC= 3.02D-12 BMatP= 2.43D-11
 IDIUse=1 WtCom= 1.00D+00 WtEn= 0.00D+00
 Coeff-Com: -0.391D-03 0.117D-01 0.647D-02-0.458D-01-0.540D-01 0.214D-01
 Coeff-Com:  0.345D+00 0.716D+00
 Coeff:     -0.391D-03 0.117D-01 0.647D-02-0.458D-01-0.540D-01 0.214D-01
 Coeff:      0.345D+00 0.716D+00
 Gap=     0.266 Goal=   None    Shift=    0.000
 RMSDP=1.75D-08 MaxDP=9.88D-07 DE=-9.91D-11 OVMax= 2.28D-06

 Cycle  17  Pass 1  IDiag  1:
 E= -1198.83399635726     Delta-E=        0.000000000052 Rises=F Damp=F
 DIIS: error= 1.45D-08 at cycle   9 NSaved=   9.
 NSaved= 9 IEnMin= 8 EnMin= -1198.83399635731     IErMin= 9 ErrMin= 1.45D-08
 ErrMax= 1.45D-08  0.00D+00 EMaxC= 1.00D-01 BMatC= 3.40D-13 BMatP= 3.02D-12
 IDIUse=1 WtCom= 1.00D+00 WtEn= 0.00D+00
 Coeff-Com: -0.149D-03 0.240D-02 0.178D-02-0.585D-03-0.677D-02-0.243D-01
 Coeff-Com: -0.530D-02 0.249D+00 0.783D+00
 Coeff:     -0.149D-03 0.240D-02 0.178D-02-0.585D-03-0.677D-02-0.243D-01
 Coeff:     -0.530D-02 0.249D+00 0.783D+00
 Gap=     0.266 Goal=   None    Shift=    0.000
 RMSDP=3.74D-09 MaxDP=1.86D-07 DE= 5.18D-11 OVMax= 4.82D-07

 SCF Done:  E(RM062X) =  -1198.83399636     A.U. after   17 cycles
            NFock= 17  Conv=0.37D-08     -V/T= 1.9969
 KE= 1.202562962042D+03 PE=-4.802109882554D+03 EE= 1.424054344511D+03
 Leave Link  502 at Sat May 24 03:42:15 2025, MaxMem=  3758096384 cpu:             178.1 elap:              45.5
 (Enter /apps/easybuild-2022/easybuild/software/Compiler/NVHPC/22.11-CUDA-11.7.0/Gaussian/g16c01-CUDA-11.7.0/g16/l508.exe)
 QCSCF skips out because SCF is already converged.
 Leave Link  508 at Sat May 24 03:42:15 2025, MaxMem=  3758096384 cpu:               0.0 elap:               0.0
 (Enter /apps/easybuild-2022/easybuild/software/Compiler/NVHPC/22.11-CUDA-11.7.0/Gaussian/g16c01-CUDA-11.7.0/g16/l801.exe)
 DoSCS=F DFT=T ScalE2(SS,OS)=  1.000000  1.000000
 Range of M.O.s used for correlation:     1   366
 NBasis=   366 NAE=    49 NBE=    49 NFC=     0 NFV=     0
 NROrb=    366 NOA=    49 NOB=    49 NVA=   317 NVB=   317

 **** Warning!!: The largest alpha MO coefficient is  0.16736460D+02

 Leave Link  801 at Sat May 24 03:42:15 2025, MaxMem=  3758096384 cpu:               0.0 elap:               0.0
 (Enter /apps/easybuild-2022/easybuild/software/Compiler/NVHPC/22.11-CUDA-11.7.0/Gaussian/g16c01-CUDA-11.7.0/g16/l1101.exe)
 Using compressed storage, NAtomX=    12.
 Will process     13 centers per pass.
   1 Symmetry operations used in ECPInt.
 ECPInt:  NShTT=    8515 NPrTT=   27988 LenC2=    8041 LenP2D=   19725.
 LDataN:  DoStor=T MaxTD1= 7 Len=  274
 Leave Link 1101 at Sat May 24 03:42:15 2025, MaxMem=  3758096384 cpu:               1.1 elap:               0.2
 (Enter /apps/easybuild-2022/easybuild/software/Compiler/NVHPC/22.11-CUDA-11.7.0/Gaussian/g16c01-CUDA-11.7.0/g16/l1102.exe)
 Symmetrizing basis deriv contribution to polar:
 IMax=3 JMax=2 DiffMx= 0.00D+00
 Leave Link 1102 at Sat May 24 03:42:15 2025, MaxMem=  3758096384 cpu:               0.1 elap:               0.0
 (Enter /apps/easybuild-2022/easybuild/software/Compiler/NVHPC/22.11-CUDA-11.7.0/Gaussian/g16c01-CUDA-11.7.0/g16/l1110.exe)
 Forming Gx(P) for the SCF density, NAtomX=    12.
 Integral derivatives from FoFJK, PRISM(SPDF).
 Do as many integral derivatives as possible in FoFJK.
 G2DrvN: MDV=    3758095012.
 G2DrvN: will do    13 centers at a time, making    1 passes.
 Calling FoFCou, ICntrl=  3107 FMM=F I1Cent=   0 AccDes= 0.00D+00.
 FoFJK:  IHMeth= 1 ICntrl=    3107 DoSepK=F KAlg= 0 I1Cent=           0 FoldK=F
 IRaf=         0 NMat=       1 IRICut=       1 DoRegI=T DoRafI=F ISym2E= 0 IDoP0=0 IntGTp=1.
 FoFCou: FMM=F IPFlag=           0 FMFlag=      100000 FMFlg1=           0
         NFxFlg=           0 DoJE=F BraDBF=F KetDBF=F FulRan=T
         wScrn=  0.000000 ICntrl=      3107 IOpCl=  0 I1Cent=           0 NGrid=           0
         NMat0=    1 NMatS0=      1 NMatT0=    0 NMatD0=    1 NMtDS0=    0 NMtDT0=    0
 Symmetry not used in FoFCou.
 End of G2Drv F.D. properties file   721 does not exist.
 End of G2Drv F.D. properties file   722 does not exist.
 End of G2Drv F.D. properties file   788 does not exist.
 Leave Link 1110 at Sat May 24 03:43:14 2025, MaxMem=  3758096384 cpu:             471.4 elap:              59.4
 (Enter /apps/easybuild-2022/easybuild/software/Compiler/NVHPC/22.11-CUDA-11.7.0/Gaussian/g16c01-CUDA-11.7.0/g16/l1002.exe)
 Minotr:  Closed shell wavefunction.
          IDoAtm=111111111111
          Direct CPHF calculation.
          Differentiating once with respect to electric field.
                with respect to dipole field.
          Differentiating once with respect to nuclear coordinates.
          Requested convergence is 1.0D-08 RMS, and 1.0D-07 maximum.
          Secondary convergence is 1.0D-12 RMS, and 1.0D-12 maximum.
          NewPWx=T KeepS1=F KeepF1=F KeepIn=T MapXYZ=F SortEE=F KeepMc=T.
         3591 words used for storage of precomputed grid.
 Keep R1 ints in memory in canonical form, NReq=2293452897.
 FoFCou: FMM=F IPFlag=           0 FMFlag=           0 FMFlg1=           0
         NFxFlg=           0 DoJE=F BraDBF=F KetDBF=F FulRan=T
[...]
     22  0.593365D-03  0.934351D-03 -0.942745D-01  0.886019D-01  0.871982D-02
     23 -0.650783D-03 -0.194030D-02  0.659027D-01 -0.736842D+00 -0.157128D+00
     24  0.252331D-03 -0.817312D-04 -0.110420D-01 -0.136842D+00 -0.707046D-01
     25  0.821848D-02 -0.265687D-02 -0.501456D-03 -0.262331D-02 -0.178362D-02
     26 -0.462611D-02  0.277144D-02 -0.152922D-02 -0.389070D-03  0.146614D-02
     27  0.239121D-02 -0.111232D-04 -0.220685D-03  0.665560D-03 -0.444283D-03
     28 -0.567833D-04 -0.166828D-03 -0.140613D-02 -0.362587D-02 -0.732583D-03
     29  0.878929D-04 -0.541897D-03 -0.386762D-02 -0.155184D-02  0.318570D-02
     30  0.799300D-03  0.233972D-02  0.839891D-03  0.521103D-02 -0.227233D-02
     31  0.183855D-02  0.243714D-02  0.457766D-04 -0.108962D-03 -0.775613D-03
     32  0.458482D-03  0.267820D-02 -0.407033D-02 -0.124789D-02  0.343242D-02
     33  0.157325D-02  0.336515D-02 -0.171600D-02  0.152483D-02  0.841784D-03
     34 -0.376009D-02 -0.418879D-02 -0.106418D+00  0.482428D-01 -0.520883D-01
     35 -0.219597D-02 -0.174124D-02  0.593338D-01 -0.516849D-01 -0.147625D-01
     36  0.424928D-02  0.388396D-02 -0.854164D-01 -0.934134D-03  0.114400D+00
               16            17            18            19            20 
     16  0.109797D+00
     17  0.276217D-01  0.209120D+00
     18 -0.146141D-01  0.144573D+00  0.341983D+00
     19 -0.579052D-02  0.380635D-02  0.240367D-01  0.484551D+00
     20 -0.183726D-02  0.438669D-02  0.671286D-03  0.326109D+00  0.310339D+00
     21  0.143971D-01  0.660344D-02  0.224254D-01  0.141458D+00  0.116553D+00
     22  0.876097D-03 -0.856316D-03  0.177055D-01  0.184084D-01 -0.404542D-01
     23 -0.140799D-02  0.297368D-03 -0.225300D-01  0.824390D-02 -0.927244D-02
     24  0.354595D-02 -0.826188D-02  0.619542D-02  0.406051D-02 -0.140526D-01
     25  0.310688D-02  0.496821D-02  0.398301D-02  0.228772D-03  0.956050D-03
     26  0.161559D-02 -0.124628D-02 -0.318899D-02  0.824044D-03  0.553573D-03
     27  0.125058D-02  0.285460D-02  0.457598D-02  0.121034D-03 -0.214685D-03
     28  0.197576D-02  0.108872D-02 -0.230784D-02  0.318289D-03  0.185906D-02
     29  0.335249D-02 -0.292882D-02 -0.325374D-02  0.176945D-02  0.108567D-02
     30 -0.408731D-02  0.484258D-03  0.131050D-01 -0.429252D-03 -0.211649D-02
     31 -0.507840D-03  0.301061D-02  0.255242D-02 -0.183419D-04  0.118607D-03
     32  0.766257D-02 -0.134210D-01 -0.110597D-01  0.212443D-02  0.776058D-03
     33  0.241411D-02 -0.373921D-02 -0.242705D-03  0.966475D-03 -0.385479D-03
     34 -0.144773D-01  0.135014D-01 -0.451258D-01  0.791346D-02  0.588022D-03
     35  0.243986D-02 -0.245768D-01  0.225315D-01 -0.132792D-01  0.616056D-02
     36  0.419255D-01 -0.100237D-01  0.188325D-02 -0.200720D-01  0.502438D-02
               21            22            23            24            25 
     21  0.735701D-01
     22 -0.466110D-02  0.628672D-01
     23 -0.394305D-02 -0.579548D-01  0.742294D+00
     24  0.887845D-02 -0.929304D-02  0.164691D+00  0.618470D-01
     25  0.590705D-03 -0.554603D-04  0.139419D-02  0.309352D-03  0.435913D+00
     26  0.834874D-04  0.329400D-03 -0.415998D-03 -0.609922D-04  0.369266D-01
     27  0.603063D-04  0.459221D-04 -0.550170D-04  0.106358D-03  0.622505D-01
     28  0.857773D-03  0.285889D-03  0.981528D-03  0.184394D-03 -0.586036D-01
     29  0.334272D-04  0.637105D-03 -0.486338D-03 -0.368473D-03 -0.235076D-01
     30 -0.188827D-03  0.299568D-04 -0.112817D-02  0.384661D-03  0.318381D-01
     31  0.147252D-03 -0.145852D-03  0.387204D-03  0.233953D-03 -0.267719D-01
     32  0.412625D-03  0.137590D-02 -0.143055D-02 -0.756541D-03 -0.283015D-01
     33  0.146896D-03  0.667490D-03 -0.111128D-02 -0.181022D-03 -0.366061D-01
     34  0.138139D-01  0.141230D-01 -0.171109D-01  0.105830D-01 -0.737365D-03
     35 -0.409544D-02  0.115852D-01 -0.333108D-02 -0.454228D-03 -0.490364D-03
     36 -0.186415D-01 -0.892578D-02  0.169216D-01 -0.111692D-01 -0.110983D-02
               26            27            28            29            30 
     26  0.782291D-01
     27  0.788515D-02  0.935681D-01
     28 -0.335196D-01  0.449546D-01  0.142350D+00
     29  0.602024D-02  0.826431D-02  0.626421D-01  0.137504D+00
     30  0.796669D-02  0.461116D-02 -0.117528D+00 -0.109737D+00  0.298309D+00
     31 -0.407498D-01 -0.489439D-01  0.104993D-01  0.847293D-02  0.191818D-01
     32 -0.183667D-02 -0.212542D-01  0.388474D-02  0.208540D-01 -0.507852D-02
     33 -0.239129D-01 -0.192096D-01  0.147095D-01 -0.220550D-01 -0.797211D-01
     34 -0.989927D-03 -0.451606D-03 -0.135077D-02 -0.108075D-02  0.146811D-02
     35 -0.486797D-03  0.595621D-03 -0.443219D-03 -0.795108D-03  0.266601D-02
     36  0.142050D-02 -0.384124D-03  0.605347D-03  0.220386D-02 -0.158885D-02
               31            32            33            34            35 
     31  0.885528D-01
     32  0.344758D-01  0.219510D+00
     33  0.391549D-01  0.186155D+00  0.310842D+00
     34  0.350398D-04 -0.250858D-02 -0.900571D-03  0.106158D+00
     35 -0.238230D-03  0.575228D-03  0.127060D-02 -0.539571D-01  0.664539D-01
     36 -0.524914D-03  0.404629D-02  0.134504D-02  0.651331D-01  0.266682D-02
               36 
     36 -0.730089D-01
 Red2BG is reusing G-inverse.
 Leave Link  716 at Sat May 24 05:15:52 2025, MaxMem=  3758096384 cpu:               0.0 elap:               0.0
 (Enter /apps/easybuild-2022/easybuild/software/Compiler/NVHPC/22.11-CUDA-11.7.0/Gaussian/g16c01-CUDA-11.7.0/g16/l9999.exe)

 ----------------------------------------------------------------------

 Electric dipole moment (input orientation):
 (Debye = 10**-18 statcoulomb cm , SI units = C m)
                  (au)            (Debye)         (10**-30 SI)
   Tot        0.109900D+01      0.279339D+01      0.931775D+01
   x          0.251508D+00      0.639269D+00      0.213237D+01
   y         -0.242357D+00     -0.616010D+00     -0.205479D+01
   z          0.104203D+01      0.264856D+01      0.883466D+01

 Dipole polarizability, Alpha (input orientation).
 (esu units = cm**3 , SI units = C**2 m**2 J**-1)
 Alpha(0;0):
               (au)            (10**-24 esu)      (10**-40 SI)
   iso        0.590944D+02      0.875688D+01      0.974334D+01
   aniso      0.257862D+02      0.382112D+01      0.425157D+01
   xx         0.579586D+02      0.858858D+01      0.955608D+01
   yx        -0.199814D+01     -0.296094D+00     -0.329449D+00
   yy         0.560801D+02      0.831021D+01      0.924636D+01
   zx        -0.111301D+02     -0.164932D+01     -0.183511D+01
   zy         0.894263D+01      0.132516D+01      0.147444D+01
   zz         0.632444D+02      0.937185D+01      0.104276D+02

 ----------------------------------------------------------------------

 Dipole orientation:
     6          5.32197762         -3.86095979         -1.26555773
     6          4.33893359         -1.44967594         -2.58891483
     9          6.02397532         -0.80102921         -4.36662905
     9          2.17262717         -2.04668357         -3.77536222
    16          0.88635797          1.04746092          1.25934511
     8          4.00197636          0.44662583         -0.93144091
     8         -1.00241882         -0.67714946          0.50230371
     8          0.58805552          3.69542417          1.19014641
     9          7.61026426         -3.46669724         -0.32379583
     9          3.77237425         -4.42178454          0.65516769
     9          5.40159530         -5.80313006         -2.82710210
     1          3.39461881          0.04694402          1.70563475

 Electric dipole moment (dipole orientation):
 (Debye = 10**-18 statcoulomb cm , SI units = C m)
                  (au)            (Debye)         (10**-30 SI)
   Tot        0.109900D+01      0.279339D+01      0.931775D+01
   x          0.000000D+00      0.000000D+00      0.000000D+00
   y          0.000000D+00      0.000000D+00      0.000000D+00
   z          0.109900D+01      0.279339D+01      0.931775D+01

 Dipole polarizability, Alpha (dipole orientation).
 (esu units = cm**3 , SI units = C**2 m**2 J**-1)
 Alpha(0;0):
               (au)            (10**-24 esu)      (10**-40 SI)
   iso        0.590944D+02      0.875688D+01      0.974334D+01
   aniso      0.257862D+02      0.382112D+01      0.425157D+01
   xx         0.629847D+02      0.933337D+01      0.103848D+02
   yx        -0.647829D+01     -0.959983D+00     -0.106813D+01
   yy         0.600473D+02      0.889809D+01      0.990047D+01
   zx        -0.973478D+01     -0.144255D+01     -0.160505D+01
   zy         0.807204D+01      0.119615D+01      0.133090D+01
   zz         0.542510D+02      0.803917D+01      0.894478D+01

 ----------------------------------------------------------------------
 Unable to Open any file for archive entry.
 1\1\GINC-SPARTAN-BM143\Freq\RM062X\def2TZVPP\C2H1F5O3S1\AKHALILOV\24-M
 ay-2025\0\\#P M062X/Def2TZVPP Symm(None) scf(xqc) pop(None) opt(NoFree
 ze,TS,CalcAll,NoEigentest,MaxCycle=999)\\Gaussian input prepared by AS
 E\\0,1\C,2.5343694297,-1.7714883458,-1.7300477516\C,1.900942663,-0.386
 3889425,-1.9935938456\F,2.5622633594,0.1788438282,-3.013915001\F,0.633
 534756,-0.5856678976,-2.3962075207\S,0.6232999212,0.4056453342,0.64676
 0686\O,1.9541454921,0.3940008712,-0.8998721931\O,-0.4646492393,-0.4217
 457543,0.294401137\O,0.4976078472,1.7758945265,0.9571738257\F,3.832179
 8846,-1.6465932038,-1.4886346995\F,1.9613157904,-2.306240076,-0.644125
 3297\F,2.3596377953,-2.5902671653,-2.7498257938\H,1.9552633004,-0.1282
 851748,0.4501694863\\Version=ES64L-G16RevC.01\HF=-1199.8598906\RMSD=5.
 489e-09\RMSF=3.845e-06\ZeroPoint=0.0473092\Thermal=0.0578507\ETot=-119
 9.8020399\HTot=-1199.8010957\GTot=-1199.8511114\Dipole=0.2515076,-0.24
 23571,1.0420256\DipoleDeriv=1.5886542,0.036441,-0.1242442,-0.0054375,1
 .3613246,0.2868916,-0.0263382,0.1433667,1.5090924,1.2582098,0.125588,0
 .1163466,-0.223633,1.2508773,0.5123235,-0.4816427,0.2190243,2.1994879,
 -0.4674411,-0.0582868,0.2861317,-0.1046595,-0.4318838,0.2169198,0.4316
 146,0.1303002,-0.9467796,-0.7089077,-0.0996401,-0.3099813,0.0334873,-0
 .339416,-0.0900135,-0.125548,-0.080242,-0.4936469,1.5032294,0.1466209,
 -0.3527693,0.1505006,1.7908817,0.3839582,-0.1175587,0.3957865,1.343631
 7,-0.7288756,0.1372824,0.446016,0.2091014,-0.701219,-0.5412144,0.92968
 84,-0.5227213,-2.2080678,-0.8839308,-0.2193266,0.1890816,-0.1974032,-0
 .6160294,-0.0092639,-0.1744416,-0.1258427,-0.2558248,-0.5019922,0.1279
 562,0.1249201,0.1741751,-0.9945706,-0.4930419,-0.0537759,-0.1230858,-0
 .3453732,-0.9097732,-0.0143917,-0.0596488,0.0654106,-0.3350556,-0.0330
 554,-0.125846,-0.0142663,-0.2852284,-0.3928875,-0.0216596,0.1857861,-0
 .0578806,-0.4881008,0.1751455,0.2323689,0.1333564,-0.6686691,-0.295154
 9,0.0087245,-0.0227275,0.0428182,-0.6379652,-0.4591933,-0.0312647,-0.3
 019261,-0.6659303,0.5388696,-0.169308,-0.4789109,-0.0864794,0.1411567,
 0.0505437,-0.457256,0.1462501,0.8173081\Polar=57.9585993,-1.9981439,56
 .0800783,-11.130147,8.9426315,63.2443833\PG=Unknown\NImag=1\\0.5987868
 4,-0.02704105,0.64119144,0.01682279,0.01567013,0.59144693,-0.06677709,
 0.06708498,-0.01327070,0.54961977,0.06657649,-0.18932360,0.03022942,-0
 .02758931,0.59205349,-0.01433018,0.02341287,-0.04022450,-0.00048186,-0
 .00891410,0.56466881,-0.00254184,-0.00138858,0.00434898,-0.10888229,-0
 .04561012,0.06444374,0.15755005,-0.02640600,-0.01038716,0.03375856,-0.
 03688293,-0.13755435,0.07958107,0.07662641,0.13639988,0.02098678,0.011
 06157,-0.02524163,0.06495759,0.09424221,-0.18283600,-0.12375721,-0.110
 66145,0.26673665,-0.04317821,-0.01468388,-0.01319720,-0.25446589,0.009
 01874,-0.05712362,-0.06089858,-0.02690168,0.01873513,0.37382323,0.0216
 0940,0.00837190,0.00475077,-0.00468798,-0.08051059,-0.00181565,-0.0362
 6931,0.00202785,0.00404430,0.04438359,0.07654841,-0.01567283,-0.005657
 27,-0.00374270,-0.06355849,0.00225424,-0.09169973,0.03515501,0.0075772
 3,0.01057542,0.09096932,0.01601930,0.11035705,-0.00000442,0.00740341,-
 0.00154209,0.03094113,0.01120726,0.03310739,-0.00043468,-0.00095857,-0
 .01144770,-0.01108072,-0.00122617,-0.00381926,0.68367856,0.00542419,0.
 00195898,-0.01142497,0.01213535,-0.00521572,0.00067356,-0.00199550,-0.
 00061580,0.00621156,-0.00344702,-0.00077292,0.00118921,0.18968387,1.10
 226333,0.00491091,-0.00635513,0.00361180,-0.00224129,0.00715465,-0.034
 95851,0.00096526,-0.00351817,-0.00079403,0.00204563,0.00084141,0.00400
 984,0.21258890,0.24341669,0.16128287,0.00411337,-0.00080243,0.01346675
 ,-0.10119014,0.00267481,-0.01929794,0.00719929,0.00688033,0.03076351,-
 0.00819820,-0.03276755,-0.04208254,0.00309578,-0.01543208,-0.02768156,
 0.10979685,-0.00585903,-0.01362029,-0.03599476,0.01266996,-0.18384299,
 -0.09307423,0.00294281,0.02239227,-0.00769525,-0.02397665,0.00006931,-
 0.02299241,-0.03891770,0.00337057,0.02726577,0.02762165,0.20912000,-0.
 00478550,0.00560132,-0.02929683,0.00964575,-0.08292958,-0.15185307,0.0
 2676246,-0.01617093,-0.08404060,-0.04876293,-0.03391226,-0.03772138,0.
 03091044,-0.00033227,-0.08701335,-0.01461414,0.14457335,0.34198285,-0.
 00038361,-0.00407453,0.00036284,-0.00719718,-0.01194453,-0.01424679,-0
 .00050231,0.00115163,0.00502014,0.00611280,0.00212449,0.00264979,-0.50
 364086,-0.31685526,-0.14392757,-0.00579052,0.00380635,0.02403666,0.484
 55108,-0.00213447,-0.00254034,0.00347487,-0.00518309,-0.00430093,-0.00
 509364,0.00047772,0.00089194,0.00075495,0.00246174,0.00119254,0.000383
 49,-0.28296148,-0.30927270,-0.10499885,-0.00183726,0.00438669,0.000671
 29,0.32610927,0.31033938,-0.00145221,-0.00065812,0.00047227,-0.0070182
 9,-0.00789038,-0.00063139,-0.00018145,0.00145306,0.00314161,0.00429065
 ,0.00080675,-0.00127447,-0.16224248,-0.10935856,-0.08795884,0.01439709
 ,0.00660344,0.02242544,0.14145816,0.11655275,0.07357005,0.00035200,-0.
 00183602,0.00051466,-0.00446612,-0.00203700,-0.00764812,-0.00040481,0.
 00001545,0.00191034,0.00243416,0.00059337,0.00093435,-0.09427452,0.088
 60186,0.00871982,0.00087610,-0.00085632,0.01770550,0.01840842,-0.04045
 417,-0.00466110,0.06286716,-0.00287575,0.00217502,0.00192233,0.0015728
 9,0.00778056,0.00989483,0.00178171,-0.00011773,-0.00559383,-0.00091469
 ,-0.00065078,-0.00194030,0.06590271,-0.73684207,-0.15712816,-0.0014079
 9,0.00029737,-0.02253000,0.00824390,-0.00927244,-0.00394305,-0.0579547
 6,0.74229404,-0.00124436,0.00053997,-0.00143871,0.00305632,-0.00564836
 ,0.00454631,-0.00033710,0.00096218,0.00161696,-0.00005698,0.00025233,-
 0.00008173,-0.01104203,-0.13684249,-0.07070455,0.00354595,-0.00826188,
 0.00619542,0.00406051,-0.01405258,0.00887845,-0.00929304,0.16469106,0.
 06184702,-0.31138904,0.01821366,-0.04842070,-0.03927613,-0.01957693,-0
 .00599676,0.00541425,0.00382252,-0.00239774,-0.00732823,0.00821848,-0.
 00265687,-0.00050146,-0.00262331,-0.00178362,0.00310688,0.00496821,0.0
 0398301,0.00022877,0.00095605,0.00059070,-0.00005546,0.00139419,0.0003
 0935,0.43591330,0.00455666,-0.08691192,0.00057808,0.02345958,0.0114796
 6,0.00546834,0.00111377,-0.00036972,-0.00047693,0.00796292,-0.00462611
 ,0.00277144,-0.00152922,-0.00038907,0.00146614,0.00161559,-0.00124628,
 -0.00318899,0.00082404,0.00055357,0.00008349,0.00032940,-0.00041600,-0
 .00006099,0.03692659,0.07822910,-0.04473565,0.00488819,-0.08505063,-0.
 01023479,-0.00536291,0.00007001,-0.00158641,-0.00065778,0.00210789,-0.
 00244961,0.00239121,-0.00001112,-0.00022068,0.00066556,-0.00044428,0.0
 0125058,0.00285460,0.00457598,0.00012103,-0.00021469,0.00006031,0.0000
 4592,-0.00005502,0.00010636,0.06225050,0.00788515,0.09356806,-0.101313
 04,-0.03545518,0.05908985,0.00119381,0.00143998,0.00225007,0.00150323,
 0.00120448,-0.00191584,0.00454733,-0.00005678,-0.00016683,-0.00140613,
 -0.00362587,-0.00073258,0.00197576,0.00108872,-0.00230784,0.00031829,0
 .00185906,0.00085777,0.00028589,0.00098153,0.00018439,-0.05860358,-0.0
 3351959,0.04495458,0.14234997,-0.03031292,-0.14071176,0.08199942,-0.02
 360044,-0.00813863,0.03408261,0.00097013,-0.01093929,0.00618628,0.0045
 2508,0.00008789,-0.00054190,-0.00386762,-0.00155184,0.00318570,0.00335
 249,-0.00292882,-0.00325374,0.00176945,0.00108567,0.00003343,0.0006371
 0,-0.00048634,-0.00036847,-0.02350759,0.00602024,0.00826431,0.06264213
 ,0.13750404,0.05182241,0.09133533,-0.20440590,0.02137764,0.00112706,-0
 .02864673,-0.00184891,0.00847006,-0.00192556,-0.00266404,0.00079930,0.
 00233972,0.00083989,0.00521103,-0.00227233,-0.00408731,0.00048426,0.01
 310501,-0.00042925,-0.00211649,-0.00018883,0.00002996,-0.00112817,0.00
 038466,0.03183806,0.00796669,0.00461116,-0.11752841,-0.10973654,0.2983
 0875,-0.07958065,-0.01254526,-0.01773375,0.00323960,0.00384513,0.00640
 130,0.00111384,0.00149348,-0.00213065,0.00353834,0.00183855,0.00243714
 ,0.00004578,-0.00010896,-0.00077561,-0.00050784,0.00301061,0.00255242,
 -0.00001834,0.00011861,0.00014725,-0.00014585,0.00038720,0.00023395,-0
 .02677194,-0.04074981,-0.04894386,0.01049925,0.00847293,0.01918184,0.0
 8855277,-0.00581009,-0.21071894,-0.11972918,-0.01186826,-0.01292477,-0
 .04205219,0.00045646,-0.00059437,0.00320558,0.00257888,0.00045848,0.00
 267820,-0.00407033,-0.00124789,0.00343242,0.00766257,-0.01342100,-0.01
 105965,0.00212443,0.00077606,0.00041263,0.00137590,-0.00143055,-0.0007
 5654,-0.02830149,-0.00183667,-0.02125425,0.00388474,0.02085395,-0.0050
 7852,0.03447575,0.21951047,-0.01376954,-0.13220955,-0.20726493,-0.0063
 2000,-0.00533920,-0.01583764,-0.00072926,-0.00177129,0.00591583,0.0021
 2902,0.00157325,0.00336515,-0.00171600,0.00152483,0.00084178,0.0024141
 1,-0.00373921,-0.00024270,0.00096648,-0.00038548,0.00014690,0.00066749
 ,-0.00111128,-0.00018102,-0.03660610,-0.02391292,-0.01920959,0.0147094
 8,-0.02205496,-0.07972110,0.03915489,0.18615522,0.31084229,0.00191567,
 0.00512488,-0.00044145,-0.00273948,0.01199548,0.01292278,0.00088384,-0
 .00004512,-0.00072436,-0.00530603,-0.00376009,-0.00418879,-0.10641845,
 0.04824275,-0.05208828,-0.01447733,0.01350140,-0.04512582,0.00791346,0
 .00058802,0.01381390,0.01412304,-0.01711094,0.01058302,-0.00073736,-0.
 00098993,-0.00045161,-0.00135077,-0.00108075,0.00146811,0.00003504,-0.
 00250858,-0.00090057,0.10615838,0.00227257,0.00051667,-0.00523467,-0.0
 0711075,0.01049786,-0.00216347,0.00089450,-0.00113352,-0.00127900,-0.0
 0100703,-0.00219597,-0.00174124,0.05933385,-0.05168488,-0.01476248,0.0
 0243986,-0.02457683,0.02253148,-0.01327924,0.00616056,-0.00409544,0.01
 158519,-0.00333108,-0.00045423,-0.00049036,-0.00048680,0.00059562,-0.0
 0044322,-0.00079511,0.00266601,-0.00023823,0.00057523,0.00127060,-0.05
 395713,0.06645387,0.00144736,-0.00762932,0.00113483,0.00408812,-0.0189
 2306,-0.02259758,-0.00323511,0.00097746,0.00474345,0.00608462,0.004249
 28,0.00388396,-0.08541637,-0.00093413,0.11439960,0.04192551,-0.0100236
 7,0.00188325,-0.02007200,0.00502438,-0.01864151,-0.00892578,0.01692159
 ,-0.01116918,-0.00110983,0.00142050,-0.00038412,0.00060535,0.00220386,
 -0.00158885,-0.00052491,0.00404629,0.00134504,0.06513306,0.00266682,-0
 .07300887\\0.00000121,0.00000175,-0.00000335,-0.00000482,0.00000075,0.
 00000036,-0.00000889,0.00000184,-0.00000245,-0.00000488,-0.00000201,0.
 00000382,0.00000685,-0.00000542,0.00000258,-0.00000082,0.00000400,-0.0
 0000268,0.00000480,-0.00000460,0.00000776,0.00000303,-0.00000267,0.000
 00297,-0.00000004,0.00000443,-0.00000801,0.00000317,0.00000238,0.00000
 084,-0.00000222,0.00000177,-0.00000225,0.00000259,-0.00000222,0.000000
 41\\\@
 The archive entry for this job was punched.


 WE MIGHT AS WELL ATTEMPT TO INTRODUCE A NEW PLANET 
 INTO THE SOLAR SYSTEM, OR TO ANNIHILATE ONE ALREADYIN EXISTENCE, 
 AS TO CREATE OR DESTROY A PARTICLE OF HYDROGEN.
 ALL THE CHANGES WE CAN PRODUCE CONSIST IN SEPARATING PARTICLES
 THAT ARE IN A STATE OF ... COMBINATION, AND JOINING 
 THOSE THAT WERE PREVIOUSLY AT A DISTANCE.

                                    -- JOHN DALTON, 1810
 Job cpu time:       0 days 12 hours 12 minutes 55.7 seconds.
 Elapsed time:       0 days  1 hours 39 minutes 48.6 seconds.
 File lengths (MBytes):  RWF=    173 Int=      0 D2E=      0 Chk=     11 Scr=      1
 Normal termination of Gaussian 16 at Sat May 24 05:15:52 2025.
done
