 Entering Gaussian System, Link 0=g16
 Initial command:
 /apps/easybuild-2022/easybuild/software/Compiler/NVHPC/22.11-CUDA-11.7.0/Gaussian/g16c01-CUDA-11.7.0/g16/l1.exe "/tmp/Gau-187760.inp" -scrdir="/tmp/"
 Entering Link 1 = /apps/easybuild-2022/easybuild/software/Compiler/NVHPC/22.11-CUDA-11.7.0/Gaussian/g16c01-CUDA-11.7.0/g16/l1.exe PID=    187761.
  
 Copyright (c) 1988-2019, Gaussian, Inc.  All Rights Reserved.
  
 This is part of the Gaussian(R) 16 program.  It is based on
 the Gaussian(R) 09 system (copyright 2009, Gaussian, Inc.),
 the Gaussian(R) 03 system (copyright 2003, Gaussian, Inc.),
 the Gaussian(R) 98 system (copyright 1998, Gaussian, Inc.),
 the Gaussian(R) 94 system (copyright 1995, Gaussian, Inc.),
 the Gaussian 92(TM) system (copyright 1992, Gaussian, Inc.),
 the Gaussian 90(TM) system (copyright 1990, Gaussian, Inc.),
 the Gaussian 88(TM) system (copyright 1988, Gaussian, Inc.),
 the Gaussian 86(TM) system (copyright 1986, Carnegie Mellon
 University), and the Gaussian 82(TM) system (copyright 1983,
 Carnegie Mellon University). Gaussian is a federally registered
 trademark of Gaussian, Inc.
  
 This software contains proprietary and confidential information,
 including trade secrets, belonging to Gaussian, Inc.
  
 This software is provided under written license and may be
 used, copied, transmitted, or stored only in accord with that
 written license.
  
 The following legend is applicable only to US Government
 contracts under FAR:
  
                    RESTRICTED RIGHTS LEGEND
  
 Use, reproduction and disclosure by the US Government is
 subject to restrictions as set forth in subparagraphs (a)
 and (c) of the Commercial Computer Software - Restricted
 Rights clause in FAR 52.227-19.
  
 Gaussian, Inc.
 340 Quinnipiac St., Bldg. 40, Wallingford CT 06492
  
  
 ---------------------------------------------------------------
 Warning -- This program may not be used in any manner that
 competes with the business of Gaussian, Inc. or will provide
 assistance to any competitor of Gaussian, Inc.  The licensee
 of this program is prohibited from giving any competitor of
 Gaussian, Inc. access to this program.  By using this program,
 the user acknowledges that Gaussian, Inc. is engaged in the
 business of creating and licensing software in the field of
 computational chemistry and represents and warrants to the
 licensee that it is not a competitor of Gaussian, Inc. and that
 it will not use this program in any manner prohibited above.
 ---------------------------------------------------------------
  

 Cite this work as:
 Gaussian 16, Revision C.01,
 M. J. Frisch, G. W. Trucks, H. B. Schlegel, G. E. Scuseria, 
 M. A. Robb, J. R. Cheeseman, G. Scalmani, V. Barone, 
 G. A. Petersson, H. Nakatsuji, X. Li, M. Caricato, A. V. Marenich, 
 J. Bloino, B. G. Janesko, R. Gomperts, B. Mennucci, H. P. Hratchian, 
 J. V. Ortiz, A. F. Izmaylov, J. L. Sonnenberg, D. Williams-Young, 
 F. Ding, F. Lipparini, F. Egidi, J. Goings, B. Peng, A. Petrone, 
 T. Henderson, D. Ranasinghe, V. G. Zakrzewski, J. Gao, N. Rega, 
 G. Zheng, W. Liang, M. Hada, M. Ehara, K. Toyota, R. Fukuda, 
 J. Hasegawa, M. Ishida, T. Nakajima, Y. Honda, O. Kitao, H. Nakai, 
 T. Vreven, K. Throssell, J. A. Montgomery, Jr., J. E. Peralta, 
 F. Ogliaro, M. J. Bearpark, J. J. Heyd, E. N. Brothers, K. N. Kudin, 
 V. N. Staroverov, T. A. Keith, R. Kobayashi, J. Normand, 
 K. Raghavachari, A. P. Rendell, J. C. Burant, S. S. Iyengar, 
 J. Tomasi, M. Cossi, J. M. Millam, M. Klene, C. Adamo, R. Cammi, 
 J. W. Ochterski, R. L. Martin, K. Morokuma, O. Farkas, 
 J. B. Foresman, and D. J. Fox, Gaussian, Inc., Wallingford CT, 2019.
 
 ******************************************
 Gaussian 16:  ES64L-G16RevC.01  3-Jul-2019
                24-May-2025 
 ******************************************
 %mem=28GB
 %chk=2003846667223680600001_r13_insertion_ROR_1_2_5_6
 %nprocshared=8
 Will use up to    8 processors via shared memory.
 ----------------------------------------------------------------------
 #P M062X/Def2TZVPP Symm(None) scf(xqc) pop(None) opt(NoFreeze,TS,CalcA
 ll,NoEigentest,MaxCycle=999)
 ----------------------------------------------------------------------
 1/5=1,6=999,10=4,11=1,18=20,26=3,29=2000,38=1/1,3;
 2/9=110,12=2,15=3,17=6,18=5,40=1/2;
 3/5=44,7=202,11=2,25=1,30=1,71=2,74=-55,140=1/1,2,3;
 4//1;
 5/5=2,8=3,13=1,38=5/2,8;
 8/6=4,10=90,11=11/1;
 11/6=1,8=1,9=11,15=111,16=1,31=1/1,2,10;
 10/6=1,31=1/2;
 7/10=1,25=1,30=1/1,2,3,16;
 1/5=1,6=999,10=4,11=1,18=20,26=3/3(3);
 2/9=110,15=3/2;
 7/8=1,9=1,25=1,30=1,44=-1/16;
 99//99;
 2/9=110,15=3/2;
 3/5=44,7=202,11=2,25=1,30=1,71=2,74=-55,140=1/1,2,3;
 4/5=5,16=3,69=1/1;
 5/5=2,8=3,13=1,38=5/2,8;
 8/6=4,10=90,11=11/1;
 11/6=1,8=1,9=11,15=111,16=1,31=1/1,2,10;
 10/6=1,31=1/2;
 7/10=1,25=1,30=1/1,2,3,16;
 1/5=1,6=999,10=4,11=1,18=20,26=3/3(-8);
 2/9=110,15=3/2;
 7/8=1,9=1,25=1,30=1,44=-1/16;
 99//99;
 Leave Link    1 at Sat May 24 05:09:29 2025, MaxMem=  3758096384 cpu:               0.0 elap:               0.0
 (Enter /apps/easybuild-2022/easybuild/software/Compiler/NVHPC/22.11-CUDA-11.7.0/Gaussian/g16c01-CUDA-11.7.0/g16/l101.exe)
 ------------------------------
 Gaussian input prepared by ASE
 ------------------------------
 Symbolic Z-matrix:
 Charge =  0 Multiplicity = 1
 C                    -0.12528   0.27765   0.35119 
 C                     1.71416  -0.01345  -0.37802 
 F                     2.07621  -1.09174   0.33434 
 F                     1.32195  -0.53418  -1.53444 
 S                     2.3534    1.28437  -0.28039 
 O                     0.51969   2.08091  -0.22524 
 O                     3.27268   1.54999   0.69719 
 O                     3.02586   1.74267  -1.58386 
 F                    -0.18479   0.92019   1.42087 
 F                    -0.92459   0.52805  -0.5788 
 F                    -0.24186  -0.95294   0.64431 
 H                     3.95105   2.03265  -1.60974 
 
 Add virtual bond connecting atoms O6         and C1         Dist= 3.78D+00.
 Add virtual bond connecting atoms O6         and F9         Dist= 4.03D+00.
 Add virtual bond connecting atoms O6         and F10        Dist= 4.06D+00.
 Add virtual bond connecting atoms C2         and C1         Dist= 3.78D+00.
 Add virtual bond connecting atoms S5         and O6         Dist= 3.78D+00.
 ITRead=  0  0  0  0  0  0  0  0  0  0  0  0
 MicOpt= -1 -1 -1 -1 -1 -1 -1 -1 -1 -1 -1 -1
 NAtoms=     12 NQM=       12 NQMF=       0 NMMI=      0 NMMIF=      0
                NMic=       0 NMicF=      0.
                    Isotopes and Nuclear Properties:
 (Nuclear quadrupole moments (NQMom) in fm**2, nuclear magnetic moments (NMagM)
  in nuclear magnetons)

  Atom         1           2           3           4           5           6           7           8           9          10
 IAtWgt=          12          12          19          19          32          16          16          16          19          19
 AtmWgt=  12.0000000  12.0000000  18.9984032  18.9984032  31.9720718  15.9949146  15.9949146  15.9949146  18.9984032  18.9984032
 NucSpn=           0           0           1           1           0           0           0           0           1           1
 AtZEff=  -0.0000000  -0.0000000  -0.0000000  -0.0000000  -0.0000000  -0.0000000  -0.0000000  -0.0000000  -0.0000000  -0.0000000
 NQMom=    0.0000000   0.0000000   0.0000000   0.0000000   0.0000000   0.0000000   0.0000000   0.0000000   0.0000000   0.0000000
 NMagM=    0.0000000   0.0000000   2.6288670   2.6288670   0.0000000   0.0000000   0.0000000   0.0000000   2.6288670   2.6288670
 AtZNuc=   6.0000000   6.0000000   9.0000000   9.0000000  16.0000000   8.0000000   8.0000000   8.0000000   9.0000000   9.0000000

  Atom        11          12
 IAtWgt=          19           1
 AtmWgt=  18.9984032   1.0078250
 NucSpn=           1           1
 AtZEff=  -0.0000000  -0.0000000
 NQMom=    0.0000000   0.0000000
 NMagM=    2.6288670   2.7928460
 AtZNuc=   9.0000000   1.0000000
 Leave Link  101 at Sat May 24 05:09:30 2025, MaxMem=  3758096384 cpu:               0.2 elap:               0.2
 (Enter /apps/easybuild-2022/easybuild/software/Compiler/NVHPC/22.11-CUDA-11.7.0/Gaussian/g16c01-CUDA-11.7.0/g16/l103.exe)

 GradGradGradGradGradGradGradGradGradGradGradGradGradGradGradGradGradGrad
 Berny optimization.
 Initialization pass.
                           ----------------------------
                           !    Initial Parameters    !
                           ! (Angstroms and Degrees)  !
 --------------------------                            --------------------------
 ! Name  Definition              Value          Derivative Info.                !
 --------------------------------------------------------------------------------
 ! R1    R(1,2)                  2.0            calculate D2E/DX2 analytically  !
 ! R2    R(1,6)                  2.0            calculate D2E/DX2 analytically  !
 ! R3    R(1,9)                  1.2492         calculate D2E/DX2 analytically  !
 ! R4    R(1,10)                 1.2516         calculate D2E/DX2 analytically  !
 ! R5    R(1,11)                 1.2704         calculate D2E/DX2 analytically  !
 ! R6    R(2,3)                  1.3421         calculate D2E/DX2 analytically  !
 ! R7    R(2,4)                  1.3275         calculate D2E/DX2 analytically  !
 ! R8    R(2,5)                  1.45           calculate D2E/DX2 analytically  !
 ! R9    R(5,6)                  2.0            calculate D2E/DX2 analytically  !
 ! R10   R(5,7)                  1.3679         calculate D2E/DX2 analytically  !
 ! R11   R(5,8)                  1.5366         calculate D2E/DX2 analytically  !
 ! R12   R(6,9)                  2.1338         calculate D2E/DX2 analytically  !
 ! R13   R(6,10)                 2.15           calculate D2E/DX2 analytically  !
 ! R14   R(8,12)                 0.9699         calculate D2E/DX2 analytically  !
 ! A1    A(2,1,6)               74.3091         calculate D2E/DX2 analytically  !
 ! A2    A(2,1,9)              115.5229         calculate D2E/DX2 analytically  !
 ! A3    A(2,1,10)             110.2166         calculate D2E/DX2 analytically  !
 ! A4    A(2,1,11)              91.5782         calculate D2E/DX2 analytically  !
 ! A5    A(9,1,10)             120.1929         calculate D2E/DX2 analytically  !
 ! A6    A(9,1,11)             107.2352         calculate D2E/DX2 analytically  !
 ! A7    A(10,1,11)            107.8565         calculate D2E/DX2 analytically  !
 ! A8    A(1,2,3)               99.8765         calculate D2E/DX2 analytically  !
 ! A9    A(1,2,4)               95.9107         calculate D2E/DX2 analytically  !
 ! A10   A(1,2,5)              104.5154         calculate D2E/DX2 analytically  !
 ! A11   A(3,2,4)              103.1154         calculate D2E/DX2 analytically  !
 ! A12   A(3,2,5)              124.3639         calculate D2E/DX2 analytically  !
 ! A13   A(4,2,5)              122.6831         calculate D2E/DX2 analytically  !
 ! A14   A(2,5,6)               87.3705         calculate D2E/DX2 analytically  !
 ! A15   A(2,5,7)              121.2098         calculate D2E/DX2 analytically  !
 ! A16   A(2,5,8)              113.7504         calculate D2E/DX2 analytically  !
 ! A17   A(6,5,7)              121.2723         calculate D2E/DX2 analytically  !
 ! A18   A(6,5,8)              107.8084         calculate D2E/DX2 analytically  !
 ! A19   A(7,5,8)              104.7259         calculate D2E/DX2 analytically  !
 ! A20   A(1,6,5)               86.8201         calculate D2E/DX2 analytically  !
 ! A21   A(5,6,9)               96.1612         calculate D2E/DX2 analytically  !
 ! A22   A(5,6,10)             108.8886         calculate D2E/DX2 analytically  !
 ! A23   A(9,6,10)              60.8034         calculate D2E/DX2 analytically  !
 ! A24   A(5,8,12)             121.9537         calculate D2E/DX2 analytically  !
 ! A25   L(6,1,11,2,-1)        165.8873         calculate D2E/DX2 analytically  !
 ! A26   L(6,1,11,2,-2)        178.4959         calculate D2E/DX2 analytically  !
 ! D1    D(6,1,2,3)            151.9133         calculate D2E/DX2 analytically  !
 ! D2    D(6,1,2,4)           -103.6339         calculate D2E/DX2 analytically  !
 ! D3    D(6,1,2,5)             22.3518         calculate D2E/DX2 analytically  !
 ! D4    D(9,1,2,3)             83.3928         calculate D2E/DX2 analytically  !
 ! D5    D(9,1,2,4)           -172.1544         calculate D2E/DX2 analytically  !
 ! D6    D(9,1,2,5)            -46.1688         calculate D2E/DX2 analytically  !
 ! D7    D(10,1,2,3)          -136.2789         calculate D2E/DX2 analytically  !
 ! D8    D(10,1,2,4)           -31.826          calculate D2E/DX2 analytically  !
 ! D9    D(10,1,2,5)            94.1596         calculate D2E/DX2 analytically  !
 ! D10   D(11,1,2,3)           -26.5826         calculate D2E/DX2 analytically  !
 ! D11   D(11,1,2,4)            77.8702         calculate D2E/DX2 analytically  !
 ! D12   D(11,1,2,5)          -156.1441         calculate D2E/DX2 analytically  !
 ! D13   D(2,1,6,5)            -15.505          calculate D2E/DX2 analytically  !
 ! D14   D(1,2,5,6)            -21.5003         calculate D2E/DX2 analytically  !
 ! D15   D(1,2,5,7)            103.9334         calculate D2E/DX2 analytically  !
 ! D16   D(1,2,5,8)           -129.8175         calculate D2E/DX2 analytically  !
 ! D17   D(3,2,5,6)           -134.5593         calculate D2E/DX2 analytically  !
 ! D18   D(3,2,5,7)             -9.1256         calculate D2E/DX2 analytically  !
 ! D19   D(3,2,5,8)            117.1235         calculate D2E/DX2 analytically  !
 ! D20   D(4,2,5,6)             85.5068         calculate D2E/DX2 analytically  !
 ! D21   D(4,2,5,7)           -149.0595         calculate D2E/DX2 analytically  !
 ! D22   D(4,2,5,8)            -22.8104         calculate D2E/DX2 analytically  !
 ! D23   D(2,5,6,1)             20.8152         calculate D2E/DX2 analytically  !
 ! D24   D(2,5,6,9)             54.5844         calculate D2E/DX2 analytically  !
 ! D25   D(2,5,6,10)            -6.6236         calculate D2E/DX2 analytically  !
 ! D26   D(7,5,6,1)           -104.5653         calculate D2E/DX2 analytically  !
 ! D27   D(7,5,6,9)            -70.7961         calculate D2E/DX2 analytically  !
 ! D28   D(7,5,6,10)          -132.0041         calculate D2E/DX2 analytically  !
 ! D29   D(8,5,6,1)            134.9393         calculate D2E/DX2 analytically  !
 ! D30   D(8,5,6,9)            168.7085         calculate D2E/DX2 analytically  !
 ! D31   D(8,5,6,10)           107.5005         calculate D2E/DX2 analytically  !
 ! D32   D(2,5,8,12)          -127.5379         calculate D2E/DX2 analytically  !
 ! D33   D(6,5,8,12)           137.3732         calculate D2E/DX2 analytically  !
 ! D34   D(7,5,8,12)             6.969          calculate D2E/DX2 analytically  !
 --------------------------------------------------------------------------------
 Trust Radius=3.00D-01 FncErr=1.00D-07 GrdErr=1.00D-06 EigMax=2.50D+02 EigMin=1.00D-04
 Number of steps in this run=    100 maximum allowed number of steps=    100.
 Search for a saddle point of order  1.
 GradGradGradGradGradGradGradGradGradGradGradGradGradGradGradGradGradGrad

 Leave Link  103 at Sat May 24 05:09:30 2025, MaxMem=  3758096384 cpu:               0.0 elap:               0.0
 (Enter /apps/easybuild-2022/easybuild/software/Compiler/NVHPC/22.11-CUDA-11.7.0/Gaussian/g16c01-CUDA-11.7.0/g16/l202.exe)
                          Input orientation:                          
 ---------------------------------------------------------------------
 Center     Atomic      Atomic             Coordinates (Angstroms)
 Number     Number       Type             X           Y           Z
 ---------------------------------------------------------------------
      1          6           0       -0.125275    0.277650    0.351190
      2          6           0        1.714160   -0.013449   -0.378016
      3          9           0        2.076212   -1.091739    0.334335
      4          9           0        1.321951   -0.534178   -1.534440
      5         16           0        2.353402    1.284373   -0.280385
      6          8           0        0.519691    2.080906   -0.225244
      7          8           0        3.272682    1.549992    0.697186
      8          8           0        3.025861    1.742668   -1.583862
      9          9           0       -0.184787    0.920190    1.420873
     10          9           0       -0.924591    0.528054   -0.578800
     11          9           0       -0.241864   -0.952943    0.644305
     12          1           0        3.951048    2.032654   -1.609738
 ---------------------------------------------------------------------
                    Distance matrix (angstroms):
                    1          2          3          4          5
     1  C    0.000000
     2  C    2.000000   0.000000
     3  F    2.592693   1.342101   0.000000
     4  F    2.511798   1.327518   2.090958   0.000000
     5  S    2.748858   1.450001   2.469944   2.437965   0.000000
     6  O    1.999997   2.415868   3.577927   3.032537   2.000000
     7  O    3.644815   2.455483   2.922660   3.623434   1.367945
     8  O    3.977482   2.501714   3.551785   2.844254   1.536648
     9  F    1.249248   2.777352   3.215671   3.622060   3.077225
    10  F    1.251595   2.701212   3.530207   2.662430   3.377323
    11  F    1.270381   2.398712   2.342824   2.714371   3.549090
    12  H    4.851978   3.272208   4.129923   3.675112   2.208976
                    6          7          8          9         10
     6  O    0.000000
     7  O    2.951560   0.000000
     8  O    2.870738   2.302439   0.000000
     9  F    2.133835   3.588101   4.473607   0.000000
    10  F    2.149954   4.504398   4.253411   2.167896   0.000000
    11  F    3.246586   4.315033   4.786342   2.028532   2.038493
    12  H    3.700454   2.452558   0.969914   5.246648   5.205623
                   11         12
    11  F    0.000000
    12  H    5.619165   0.000000
 Symmetry turned off by external request.
 Stoichiometry    C2HF5O3S
 Rotational constants (GHZ):           1.5958817           0.8884154           0.8133344
 Leave Link  202 at Sat May 24 05:09:30 2025, MaxMem=  3758096384 cpu:               0.0 elap:               0.0
 (Enter /apps/easybuild-2022/easybuild/software/Compiler/NVHPC/22.11-CUDA-11.7.0/Gaussian/g16c01-CUDA-11.7.0/g16/l301.exe)
 Standard basis: def2TZVPP (5D, 7F)
 Ernie: Thresh=  0.10000D-02 Tol=  0.10000D-05 Strict=F.
   366 basis functions,   596 primitive gaussians,   423 cartesian basis functions
    49 alpha electrons       49 beta electrons
       nuclear repulsion energy       941.9245568967 Hartrees.
 IExCor= 4336 DFT=T Ex+Corr=M062X ExCW=0 ScaHFX=  0.540000
 ScaDFX=  1.000000  1.000000  1.000000  1.000000 ScalE2=  1.000000  1.000000
 IRadAn=      5 IRanWt=     -1 IRanGd=            0 ICorTp=0 IEmpDi=  4
 NAtoms=   12 NActive=   12 NUniq=   12 SFac= 1.00D+00 NAtFMM=   60 NAOKFM=F Big=F
 Integral buffers will be    131072 words long.
 Raffenetti 2 integral format.
 Two-electron integral symmetry is turned off.
 Leave Link  301 at Sat May 24 05:09:30 2025, MaxMem=  3758096384 cpu:               0.1 elap:               0.0
 (Enter /apps/easybuild-2022/easybuild/software/Compiler/NVHPC/22.11-CUDA-11.7.0/Gaussian/g16c01-CUDA-11.7.0/g16/l302.exe)
 NPDir=0 NMtPBC=     1 NCelOv=     1 NCel=       1 NClECP=     1 NCelD=      1
         NCelK=      1 NCelE2=     1 NClLst=     1 CellRange=     0.0.
 One-electron integrals computed using PRISM.
   1 Symmetry operations used in ECPInt.
 ECPInt:  NShTT=    8515 NPrTT=   27988 LenC2=    8004 LenP2D=   19443.
 LDataN:  DoStor=T MaxTD1= 6 Len=  172
 NBasis=   366 RedAO= T EigKep=  3.80D-04  NBF=   366
 NBsUse=   366 1.00D-06 EigRej= -1.00D+00 NBFU=   366
 Precomputing XC quadrature grid using
 IXCGrd= 4 IRadAn=           5 IRanWt=          -1 IRanGd=           0 AccXCQ= 0.00D+00.
 Generated NRdTot=       0 NPtTot=           0 NUsed=           0 NTot=          32
 NSgBfM=   420   420   420   420   420 MxSgAt=    12 MxSgA2=    12.
 Leave Link  302 at Sat May 24 05:09:30 2025, MaxMem=  3758096384 cpu:               0.7 elap:               0.2
 (Enter /apps/easybuild-2022/easybuild/software/Compiler/NVHPC/22.11-CUDA-11.7.0/Gaussian/g16c01-CUDA-11.7.0/g16/l303.exe)
 DipDrv:  MaxL=1.
 Leave Link  303 at Sat May 24 05:09:30 2025, MaxMem=  3758096384 cpu:               0.1 elap:               0.0
 (Enter /apps/easybuild-2022/easybuild/software/Compiler/NVHPC/22.11-CUDA-11.7.0/Gaussian/g16c01-CUDA-11.7.0/g16/l401.exe)
 ExpMin= 9.52D-02 ExpMax= 6.07D+04 ExpMxC= 2.07D+03 IAcc=3 IRadAn=         5 AccDes= 0.00D+00
 Harris functional with IExCor= 1009 and IRadAn=       5 diagonalized for initial guess.
 HarFok:  IExCor= 1009 AccDes= 0.00D+00 IRadAn=         5 IDoV= 1 UseB2=F ITyADJ=14
 ICtDFT=  3500011 ScaDFX=  1.000000  1.000000  1.000000  1.000000
 FoFCou: FMM=F IPFlag=           0 FMFlag=      100000 FMFlg1=           0
         NFxFlg=           0 DoJE=T BraDBF=F KetDBF=T FulRan=T
         wScrn=  0.000000 ICntrl=       500 IOpCl=  0 I1Cent=   200000004 NGrid=           0
         NMat0=    1 NMatS0=      1 NMatT0=    0 NMatD0=    1 NMtDS0=    0 NMtDT0=    0
 Symmetry not used in FoFCou.
 Harris En= -1199.02014474832    
 JPrj=0 DoOrth=F DoCkMO=F.
 Leave Link  401 at Sat May 24 05:09:31 2025, MaxMem=  3758096384 cpu:               4.4 elap:               0.6
 (Enter /apps/easybuild-2022/easybuild/software/Compiler/NVHPC/22.11-CUDA-11.7.0/Gaussian/g16c01-CUDA-11.7.0/g16/l502.exe)
 Keep R1 ints in memory in canonical form, NReq=2293447020.
 FoFCou: FMM=F IPFlag=           0 FMFlag=           0 FMFlg1=           0
         NFxFlg=           0 DoJE=F BraDBF=F KetDBF=F FulRan=T
         wScrn=  0.000000 ICntrl=       600 IOpCl=  0 I1Cent=           0 NGrid=           0
         NMat0=    1 NMatS0=  67161 NMatT0=    0 NMatD0=    1 NMtDS0=    0 NMtDT0=    0
 Symmetry not used in FoFCou.
 Two-electron integral symmetry not used.
 Closed shell SCF:
 Using DIIS extrapolation, IDIIS=  1040.
 NGot=  3758096384 LenX=  1502398648 LenY=  1502219278
 Requested convergence on RMS density matrix=1.00D-08 within  32 cycles.
 Requested convergence on MAX density matrix=1.00D-06.
 Requested convergence on             energy=1.00D-06.
 No special actions if energy rises.
 Integral accuracy reduced to 1.0D-05 until final iterations.

 Cycle   1  Pass 0  IDiag  1:
 E= -1199.15162435208    
 DIIS: error= 1.89D-02 at cycle   1 NSaved=   1.
 NSaved= 1 IEnMin= 1 EnMin= -1199.15162435208     IErMin= 1 ErrMin= 1.89D-02
 ErrMax= 1.89D-02  0.00D+00 EMaxC= 1.00D-01 BMatC= 6.87D-01 BMatP= 6.87D-01
 IDIUse=3 WtCom= 8.11D-01 WtEn= 1.89D-01
 Coeff-Com:  0.100D+01
 Coeff-En:   0.100D+01
 Coeff:      0.100D+01
 Gap=     0.246 Goal=   None    Shift=    0.000
 GapD=    0.246 DampG=1.000 DampE=0.500 DampFc=0.5000 IDamp=-1.
 Damping current iteration by 5.00D-01
 RMSDP=5.12D-03 MaxDP=3.08D-01              OVMax= 7.46D-01

 Cycle   2  Pass 0  IDiag  1:
 E= -1198.69916811473     Delta-E=        0.452456237358 Rises=F Damp=T
 DIIS: error= 2.11D-02 at cycle   2 NSaved=   2.
 NSaved= 2 IEnMin= 1 EnMin= -1199.15162435208     IErMin= 1 ErrMin= 1.89D-02
 ErrMax= 2.11D-02  0.00D+00 EMaxC= 1.00D-01 BMatC= 3.82D-01 BMatP= 6.87D-01
 IDIUse=3 WtCom= 7.89D-01 WtEn= 2.11D-01
 Coeff-Com:  0.395D+00 0.605D+00
 Coeff-En:   0.716D+00 0.284D+00
 Coeff:      0.463D+00 0.537D+00
 Gap=     0.021 Goal=   None    Shift=    0.000
 RMSDP=2.39D-03 MaxDP=9.51D-02 DE= 4.52D-01 OVMax= 6.19D-01

 Cycle   3  Pass 0  IDiag  1:
 E= -1199.29996627146     Delta-E=       -0.600798156735 Rises=F Damp=F
 DIIS: error= 1.74D-02 at cycle   3 NSaved=   3.
 NSaved= 3 IEnMin= 3 EnMin= -1199.29996627146     IErMin= 3 ErrMin= 1.74D-02
 ErrMax= 1.74D-02  0.00D+00 EMaxC= 1.00D-01 BMatC= 3.09D-01 BMatP= 3.82D-01
 IDIUse=3 WtCom= 8.26D-01 WtEn= 1.74D-01
 EnCoef did     3 forward-backward iterations
 Coeff-Com:  0.138D+00 0.434D+00 0.427D+00
 Coeff-En:   0.116D+00 0.183D+00 0.701D+00
 Coeff:      0.134D+00 0.391D+00 0.475D+00
 Gap=     0.252 Goal=   None    Shift=    0.000
 RMSDP=1.07D-03 MaxDP=5.43D-02 DE=-6.01D-01 OVMax= 1.59D-01

 Cycle   4  Pass 0  IDiag  1:
 E= -1199.54242201948     Delta-E=       -0.242455748020 Rises=F Damp=F
 DIIS: error= 4.55D-03 at cycle   4 NSaved=   4.
 NSaved= 4 IEnMin= 4 EnMin= -1199.54242201948     IErMin= 4 ErrMin= 4.55D-03
 ErrMax= 4.55D-03  0.00D+00 EMaxC= 1.00D-01 BMatC= 2.37D-02 BMatP= 3.09D-01
 IDIUse=3 WtCom= 9.55D-01 WtEn= 4.55D-02
 Coeff-Com: -0.511D-01 0.151D+00 0.184D+00 0.716D+00
 Coeff-En:   0.000D+00 0.000D+00 0.000D+00 0.100D+01
 Coeff:     -0.487D-01 0.144D+00 0.176D+00 0.729D+00
 Gap=     0.251 Goal=   None    Shift=    0.000
 RMSDP=3.38D-04 MaxDP=1.58D-02 DE=-2.42D-01 OVMax= 3.10D-02

 Cycle   5  Pass 0  IDiag  1:
 E= -1199.55567707510     Delta-E=       -0.013255055617 Rises=F Damp=F
 DIIS: error= 2.42D-03 at cycle   5 NSaved=   5.
 NSaved= 5 IEnMin= 5 EnMin= -1199.55567707510     IErMin= 5 ErrMin= 2.42D-03
 ErrMax= 2.42D-03  0.00D+00 EMaxC= 1.00D-01 BMatC= 6.24D-03 BMatP= 2.37D-02
 IDIUse=3 WtCom= 9.76D-01 WtEn= 2.42D-02
 Coeff-Com: -0.428D-01 0.491D-01-0.107D-01 0.304D+00 0.701D+00
 Coeff-En:   0.000D+00 0.000D+00 0.000D+00 0.342D-02 0.997D+00
 Coeff:     -0.417D-01 0.479D-01-0.105D-01 0.296D+00 0.708D+00
 Gap=     0.252 Goal=   None    Shift=    0.000
 RMSDP=1.65D-04 MaxDP=9.41D-03 DE=-1.33D-02 OVMax= 3.03D-02

 Cycle   6  Pass 0  IDiag  1:
 E= -1199.56119533482     Delta-E=       -0.005518259725 Rises=F Damp=F
 DIIS: error= 6.65D-04 at cycle   6 NSaved=   6.
 NSaved= 6 IEnMin= 6 EnMin= -1199.56119533482     IErMin= 6 ErrMin= 6.65D-04
 ErrMax= 6.65D-04  0.00D+00 EMaxC= 1.00D-01 BMatC= 6.16D-04 BMatP= 6.24D-03
 IDIUse=3 WtCom= 9.93D-01 WtEn= 6.65D-03
 Coeff-Com: -0.108D-01 0.841D-02-0.387D-01 0.358D-03 0.288D+00 0.752D+00
 Coeff-En:   0.000D+00 0.000D+00 0.000D+00 0.000D+00 0.000D+00 0.100D+01
 Coeff:     -0.107D-01 0.836D-02-0.385D-01 0.356D-03 0.286D+00 0.754D+00
 Gap=     0.258 Goal=   None    Shift=    0.000
 RMSDP=7.03D-05 MaxDP=3.22D-03 DE=-5.52D-03 OVMax= 1.14D-02

 Cycle   7  Pass 0  IDiag  1:
 E= -1199.56191229492     Delta-E=       -0.000716960093 Rises=F Damp=F
 DIIS: error= 2.59D-04 at cycle   7 NSaved=   7.
 NSaved= 7 IEnMin= 7 EnMin= -1199.56191229492     IErMin= 7 ErrMin= 2.59D-04
 ErrMax= 2.59D-04  0.00D+00 EMaxC= 1.00D-01 BMatC= 8.32D-05 BMatP= 6.16D-04
 IDIUse=3 WtCom= 9.97D-01 WtEn= 2.59D-03
 Coeff-Com:  0.228D-02-0.429D-02-0.176D-01-0.534D-01 0.738D-02 0.318D+00
 Coeff-Com:  0.748D+00
 Coeff-En:   0.000D+00 0.000D+00 0.000D+00 0.000D+00 0.000D+00 0.000D+00
 Coeff-En:   0.100D+01
 Coeff:      0.227D-02-0.427D-02-0.176D-01-0.533D-01 0.736D-02 0.317D+00
 Coeff:      0.749D+00
 Gap=     0.259 Goal=   None    Shift=    0.000
 RMSDP=4.22D-05 MaxDP=1.62D-03 DE=-7.17D-04 OVMax= 7.22D-03

 Cycle   8  Pass 0  IDiag  1:
 E= -1199.56207217010     Delta-E=       -0.000159875181 Rises=F Damp=F
 DIIS: error= 1.48D-04 at cycle   8 NSaved=   8.
 NSaved= 8 IEnMin= 8 EnMin= -1199.56207217010     IErMin= 8 ErrMin= 1.48D-04
 ErrMax= 1.48D-04  0.00D+00 EMaxC= 1.00D-01 BMatC= 1.20D-05 BMatP= 8.32D-05
 IDIUse=3 WtCom= 9.99D-01 WtEn= 1.48D-03
 Coeff-Com:  0.261D-02-0.310D-02 0.333D-02-0.780D-02-0.399D-01-0.849D-01
 Coeff-Com:  0.175D+00 0.954D+00
 Coeff-En:   0.000D+00 0.000D+00 0.000D+00 0.000D+00 0.000D+00 0.000D+00
 Coeff-En:   0.000D+00 0.100D+01
 Coeff:      0.261D-02-0.310D-02 0.332D-02-0.779D-02-0.398D-01-0.848D-01
 Coeff:      0.175D+00 0.955D+00
 Gap=     0.259 Goal=   None    Shift=    0.000
 RMSDP=2.59D-05 MaxDP=9.00D-04 DE=-1.60D-04 OVMax= 4.91D-03

 Cycle   9  Pass 0  IDiag  1:
 E= -1199.56211141579     Delta-E=       -0.000039245694 Rises=F Damp=F
 DIIS: error= 8.50D-05 at cycle   9 NSaved=   9.
 NSaved= 9 IEnMin= 9 EnMin= -1199.56211141579     IErMin= 9 ErrMin= 8.50D-05
 ErrMax= 8.50D-05  0.00D+00 EMaxC= 1.00D-01 BMatC= 3.98D-06 BMatP= 1.20D-05
 IDIUse=1 WtCom= 1.00D+00 WtEn= 0.00D+00
 Coeff-Com:  0.594D-03-0.898D-03 0.391D-02 0.833D-02-0.191D-02-0.759D-01
 Coeff-Com: -0.880D-01 0.214D+00 0.940D+00
 Coeff:      0.594D-03-0.898D-03 0.391D-02 0.833D-02-0.191D-02-0.759D-01
 Coeff:     -0.880D-01 0.214D+00 0.940D+00
 Gap=     0.259 Goal=   None    Shift=    0.000
 RMSDP=1.17D-05 MaxDP=4.64D-04 DE=-3.92D-05 OVMax= 2.60D-03

 Failed to achieve initial convergence to 1.0D-08 in 10 cycles.
 Switch to full accuracy anyway.
 Cycle  10  Pass 1  IDiag  1:
 E= -1199.56204845893     Delta-E=        0.000062956864 Rises=F Damp=F
 DIIS: error= 3.16D-05 at cycle   1 NSaved=   1.
 NSaved= 1 IEnMin= 1 EnMin= -1199.56204845893     IErMin= 1 ErrMin= 3.16D-05
 ErrMax= 3.16D-05  0.00D+00 EMaxC= 1.00D-01 BMatC= 1.52D-06 BMatP= 1.52D-06
 IDIUse=1 WtCom= 1.00D+00 WtEn= 0.00D+00
 Coeff-Com:  0.100D+01
 Coeff:      0.100D+01
 Gap=     0.259 Goal=   None    Shift=    0.000
 RMSDP=1.17D-05 MaxDP=4.64D-04 DE= 6.30D-05 OVMax= 1.23D-03

 Cycle  11  Pass 1  IDiag  1:
 E= -1199.56204925982     Delta-E=       -0.000000800896 Rises=F Damp=F
 DIIS: error= 4.22D-05 at cycle   2 NSaved=   2.
 NSaved= 2 IEnMin= 2 EnMin= -1199.56204925982     IErMin= 1 ErrMin= 3.16D-05
 ErrMax= 4.22D-05  0.00D+00 EMaxC= 1.00D-01 BMatC= 1.82D-06 BMatP= 1.52D-06
 IDIUse=1 WtCom= 1.00D+00 WtEn= 0.00D+00
 Coeff-Com:  0.533D+00 0.467D+00
 Coeff:      0.533D+00 0.467D+00
 Gap=     0.259 Goal=   None    Shift=    0.000
 RMSDP=4.21D-06 MaxDP=2.14D-04 DE=-8.01D-07 OVMax= 5.78D-04

 Cycle  12  Pass 1  IDiag  1:
 E= -1199.56205055320     Delta-E=       -0.000001293381 Rises=F Damp=F
 DIIS: error= 2.79D-05 at cycle   3 NSaved=   3.
 NSaved= 3 IEnMin= 3 EnMin= -1199.56205055320     IErMin= 3 ErrMin= 2.79D-05
 ErrMax= 2.79D-05  0.00D+00 EMaxC= 1.00D-01 BMatC= 4.64D-07 BMatP= 1.52D-06
 IDIUse=1 WtCom= 1.00D+00 WtEn= 0.00D+00
 Coeff-Com:  0.145D-01 0.318D+00 0.667D+00
 Coeff:      0.145D-01 0.318D+00 0.667D+00
 Gap=     0.259 Goal=   None    Shift=    0.000
 RMSDP=2.28D-06 MaxDP=8.75D-05 DE=-1.29D-06 OVMax= 5.08D-04

 Cycle  13  Pass 1  IDiag  1:
 E= -1199.56205115132     Delta-E=       -0.000000598119 Rises=F Damp=F
 DIIS: error= 6.38D-06 at cycle   4 NSaved=   4.
 NSaved= 4 IEnMin= 4 EnMin= -1199.56205115132     IErMin= 4 ErrMin= 6.38D-06
 ErrMax= 6.38D-06  0.00D+00 EMaxC= 1.00D-01 BMatC= 5.54D-08 BMatP= 4.64D-07
 IDIUse=1 WtCom= 1.00D+00 WtEn= 0.00D+00
 Coeff-Com: -0.641D-01 0.739D-01 0.296D+00 0.694D+00
 Coeff:     -0.641D-01 0.739D-01 0.296D+00 0.694D+00
 Gap=     0.259 Goal=   None    Shift=    0.000
 RMSDP=1.30D-06 MaxDP=6.86D-05 DE=-5.98D-07 OVMax= 3.01D-04

 Cycle  14  Pass 1  IDiag  1:
 E= -1199.56205130006     Delta-E=       -0.000000148737 Rises=F Damp=F
 DIIS: error= 4.92D-06 at cycle   5 NSaved=   5.
 NSaved= 5 IEnMin= 5 EnMin= -1199.56205130006     IErMin= 5 ErrMin= 4.92D-06
 ErrMax= 4.92D-06  0.00D+00 EMaxC= 1.00D-01 BMatC= 1.42D-08 BMatP= 5.54D-08
 IDIUse=1 WtCom= 1.00D+00 WtEn= 0.00D+00
 Coeff-Com: -0.835D-02-0.131D+00-0.238D+00 0.126D+00 0.125D+01
 Coeff:     -0.835D-02-0.131D+00-0.238D+00 0.126D+00 0.125D+01
 Gap=     0.259 Goal=   None    Shift=    0.000
 RMSDP=1.65D-06 MaxDP=7.90D-05 DE=-1.49D-07 OVMax= 4.27D-04

 Cycle  15  Pass 1  IDiag  1:
 E= -1199.56205140088     Delta-E=       -0.000000100825 Rises=F Damp=F
 DIIS: error= 1.87D-06 at cycle   6 NSaved=   6.
 NSaved= 6 IEnMin= 6 EnMin= -1199.56205140088     IErMin= 6 ErrMin= 1.87D-06
 ErrMax= 1.87D-06  0.00D+00 EMaxC= 1.00D-01 BMatC= 4.45D-09 BMatP= 1.42D-08
 IDIUse=1 WtCom= 1.00D+00 WtEn= 0.00D+00
 Coeff-Com:  0.128D-01-0.916D-01-0.196D+00-0.138D+00 0.628D+00 0.785D+00
 Coeff:      0.128D-01-0.916D-01-0.196D+00-0.138D+00 0.628D+00 0.785D+00
 Gap=     0.259 Goal=   None    Shift=    0.000
 RMSDP=7.48D-07 MaxDP=3.67D-05 DE=-1.01D-07 OVMax= 1.90D-04

 Cycle  16  Pass 1  IDiag  1:
 E= -1199.56205141752     Delta-E=       -0.000000016630 Rises=F Damp=F
 DIIS: error= 6.50D-07 at cycle   7 NSaved=   7.
 NSaved= 7 IEnMin= 7 EnMin= -1199.56205141752     IErMin= 7 ErrMin= 6.50D-07
 ErrMax= 6.50D-07  0.00D+00 EMaxC= 1.00D-01 BMatC= 6.19D-10 BMatP= 4.45D-09
 IDIUse=1 WtCom= 1.00D+00 WtEn= 0.00D+00
 Coeff-Com:  0.609D-02-0.206D-01-0.428D-01-0.778D-01 0.949D-01 0.336D+00
 Coeff-Com:  0.704D+00
 Coeff:      0.609D-02-0.206D-01-0.428D-01-0.778D-01 0.949D-01 0.336D+00
 Coeff:      0.704D+00
 Gap=     0.259 Goal=   None    Shift=    0.000
 RMSDP=1.55D-07 MaxDP=7.71D-06 DE=-1.66D-08 OVMax= 3.85D-05

 Cycle  17  Pass 1  IDiag  1:
 E= -1199.56205141881     Delta-E=       -0.000000001296 Rises=F Damp=F
 DIIS: error= 4.01D-07 at cycle   8 NSaved=   8.
 NSaved= 8 IEnMin= 8 EnMin= -1199.56205141881     IErMin= 8 ErrMin= 4.01D-07
 ErrMax= 4.01D-07  0.00D+00 EMaxC= 1.00D-01 BMatC= 1.19D-10 BMatP= 6.19D-10
 IDIUse=1 WtCom= 1.00D+00 WtEn= 0.00D+00
 Coeff-Com: -0.700D-03 0.143D-01 0.325D-01-0.643D-03-0.119D+00-0.513D-01
 Coeff-Com:  0.265D+00 0.861D+00
 Coeff:     -0.700D-03 0.143D-01 0.325D-01-0.643D-03-0.119D+00-0.513D-01
 Coeff:      0.265D+00 0.861D+00
 Gap=     0.259 Goal=   None    Shift=    0.000
 RMSDP=8.42D-08 MaxDP=3.68D-06 DE=-1.30D-09 OVMax= 2.06D-05

 Cycle  18  Pass 1  IDiag  1:
 E= -1199.56205141928     Delta-E=       -0.000000000473 Rises=F Damp=F
 DIIS: error= 1.56D-07 at cycle   9 NSaved=   9.
 NSaved= 9 IEnMin= 9 EnMin= -1199.56205141928     IErMin= 9 ErrMin= 1.56D-07
 ErrMax= 1.56D-07  0.00D+00 EMaxC= 1.00D-01 BMatC= 2.71D-11 BMatP= 1.19D-10
 IDIUse=1 WtCom= 1.00D+00 WtEn= 0.00D+00
 Coeff-Com: -0.151D-02 0.962D-02 0.196D-01 0.162D-01-0.621D-01-0.845D-01
 Coeff-Com: -0.739D-01 0.317D+00 0.859D+00
 Coeff:     -0.151D-02 0.962D-02 0.196D-01 0.162D-01-0.621D-01-0.845D-01
 Coeff:     -0.739D-01 0.317D+00 0.859D+00
 Gap=     0.259 Goal=   None    Shift=    0.000
 RMSDP=4.00D-08 MaxDP=1.55D-06 DE=-4.73D-10 OVMax= 9.55D-06

 Cycle  19  Pass 1  IDiag  1:
 E= -1199.56205141929     Delta-E=       -0.000000000008 Rises=F Damp=F
 DIIS: error= 6.58D-08 at cycle  10 NSaved=  10.
 NSaved=10 IEnMin=10 EnMin= -1199.56205141929     IErMin=10 ErrMin= 6.58D-08
 ErrMax= 6.58D-08  0.00D+00 EMaxC= 1.00D-01 BMatC= 4.92D-12 BMatP= 2.71D-11
 IDIUse=1 WtCom= 1.00D+00 WtEn= 0.00D+00
 Coeff-Com: -0.334D-03 0.321D-03-0.613D-03 0.586D-02 0.460D-02-0.163D-01
 Coeff-Com: -0.888D-01-0.730D-01 0.294D+00 0.874D+00
 Coeff:     -0.334D-03 0.321D-03-0.613D-03 0.586D-02 0.460D-02-0.163D-01
 Coeff:     -0.888D-01-0.730D-01 0.294D+00 0.874D+00
 Gap=     0.259 Goal=   None    Shift=    0.000
 RMSDP=1.78D-08 MaxDP=6.54D-07 DE=-8.19D-12 OVMax= 4.16D-06

 Cycle  20  Pass 1  IDiag  1:
 E= -1199.56205141929     Delta-E=        0.000000000004 Rises=F Damp=F
 DIIS: error= 2.76D-08 at cycle  11 NSaved=  11.
 NSaved=11 IEnMin=10 EnMin= -1199.56205141929     IErMin=11 ErrMin= 2.76D-08
 ErrMax= 2.76D-08  0.00D+00 EMaxC= 1.00D-01 BMatC= 7.60D-13 BMatP= 4.92D-12
 IDIUse=1 WtCom= 1.00D+00 WtEn= 0.00D+00
 Coeff-Com:  0.127D-03-0.158D-02-0.343D-02-0.750D-03 0.122D-01 0.943D-02
 Coeff-Com: -0.182D-01-0.879D-01-0.453D-01 0.313D+00 0.823D+00
 Coeff:      0.127D-03-0.158D-02-0.343D-02-0.750D-03 0.122D-01 0.943D-02
 Coeff:     -0.182D-01-0.879D-01-0.453D-01 0.313D+00 0.823D+00
 Gap=     0.259 Goal=   None    Shift=    0.000
 RMSDP=6.23D-09 MaxDP=2.04D-07 DE= 4.09D-12 OVMax= 1.50D-06

 SCF Done:  E(RM062X) =  -1199.56205142     A.U. after   20 cycles
            NFock= 20  Conv=0.62D-08     -V/T= 2.0017
 KE= 1.197507626478D+03 PE=-4.731192945894D+03 EE= 1.392198711100D+03
 Leave Link  502 at Sat May 24 05:10:29 2025, MaxMem=  3758096384 cpu:             216.1 elap:              58.3
 (Enter /apps/easybuild-2022/easybuild/software/Compiler/NVHPC/22.11-CUDA-11.7.0/Gaussian/g16c01-CUDA-11.7.0/g16/l508.exe)
 QCSCF skips out because SCF is already converged.
 Leave Link  508 at Sat May 24 05:10:29 2025, MaxMem=  3758096384 cpu:               0.0 elap:               0.0
 (Enter /apps/easybuild-2022/easybuild/software/Compiler/NVHPC/22.11-CUDA-11.7.0/Gaussian/g16c01-CUDA-11.7.0/g16/l801.exe)
 DoSCS=F DFT=T ScalE2(SS,OS)=  1.000000  1.000000
 Range of M.O.s used for correlation:     1   366
 NBasis=   366 NAE=    49 NBE=    49 NFC=     0 NFV=     0
 NROrb=    366 NOA=    49 NOB=    49 NVA=   317 NVB=   317
 Leave Link  801 at Sat May 24 05:10:29 2025, MaxMem=  3758096384 cpu:               0.0 elap:               0.0
 (Enter /apps/easybuild-2022/easybuild/software/Compiler/NVHPC/22.11-CUDA-11.7.0/Gaussian/g16c01-CUDA-11.7.0/g16/l1101.exe)
 Using compressed storage, NAtomX=    12.
 Will process     13 centers per pass.
   1 Symmetry operations used in ECPInt.
 ECPInt:  NShTT=    8515 NPrTT=   27988 LenC2=    8004 LenP2D=   19443.
 LDataN:  DoStor=T MaxTD1= 7 Len=  274
 Leave Link 1101 at Sat May 24 05:10:29 2025, MaxMem=  3758096384 cpu:               1.0 elap:               0.2
 (Enter /apps/easybuild-2022/easybuild/software/Compiler/NVHPC/22.11-CUDA-11.7.0/Gaussian/g16c01-CUDA-11.7.0/g16/l1102.exe)
 Symmetrizing basis deriv contribution to polar:
 IMax=3 JMax=2 DiffMx= 0.00D+00
 Leave Link 1102 at Sat May 24 05:10:29 2025, MaxMem=  3758096384 cpu:               0.1 elap:               0.0
 (Enter /apps/easybuild-2022/easybuild/software/Compiler/NVHPC/22.11-CUDA-11.7.0/Gaussian/g16c01-CUDA-11.7.0/g16/l1110.exe)
 Forming Gx(P) for the SCF density, NAtomX=    12.
 Integral derivatives from FoFJK, PRISM(SPDF).
 Do as many integral derivatives as possible in FoFJK.
 G2DrvN: MDV=    3758094988.
 G2DrvN: will do    13 centers at a time, making    1 passes.
 Calling FoFCou, ICntrl=  3107 FMM=F I1Cent=   0 AccDes= 0.00D+00.
 FoFJK:  IHMeth= 1 ICntrl=    3107 DoSepK=F KAlg= 0 I1Cent=           0 FoldK=F
 IRaf=         0 NMat=       1 IRICut=       1 DoRegI=T DoRafI=F ISym2E= 0 IDoP0=0 IntGTp=1.
 FoFCou: FMM=F IPFlag=           0 FMFlag=      100000 FMFlg1=           0
         NFxFlg=           0 DoJE=F BraDBF=F KetDBF=F FulRan=T
         wScrn=  0.000000 ICntrl=      3107 IOpCl=  0 I1Cent=           0 NGrid=           0
         NMat0=    1 NMatS0=      1 NMatT0=    0 NMatD0=    1 NMtDS0=    0 NMtDT0=    0
 Symmetry not used in FoFCou.
 End of G2Drv F.D. properties file   721 does not exist.
 End of G2Drv F.D. properties file   722 does not exist.
 End of G2Drv F.D. properties file   788 does not exist.
 Leave Link 1110 at Sat May 24 05:11:28 2025, MaxMem=  3758096384 cpu:             470.4 elap:              59.2
 (Enter /apps/easybuild-2022/easybuild/software/Compiler/NVHPC/22.11-CUDA-11.7.0/Gaussian/g16c01-CUDA-11.7.0/g16/l1002.exe)
 Minotr:  Closed shell wavefunction.
          IDoAtm=111111111111
          Direct CPHF calculation.
          Differentiating once with respect to electric field.
                with respect to dipole field.
          Differentiating once with respect to nuclear coordinates.
          Requested convergence is 1.0D-08 RMS, and 1.0D-07 maximum.
          Secondary convergence is 1.0D-12 RMS, and 1.0D-12 maximum.
          NewPWx=T KeepS1=F KeepF1=F KeepIn=T MapXYZ=F SortEE=F KeepMc=T.
         3605 words used for storage of precomputed grid.
 Keep R1 ints in memory in canonical form, NReq=2293452935.
 FoFCou: FMM=F IPFlag=           0 FMFlag=           0 FMFlg1=           0
         NFxFlg=           0 DoJE=F BraDBF=F KetDBF=F FulRan=T
         wScrn=  0.000000 ICntrl=       600 IOpCl=  0 I1Cent=           0 NGrid=           0
         NMat0=    1 NMatS0=  67161 NMatT0=    0 NMatD0=    1 NMtDS0=    0 NMtDT0=    0
 Symmetry not used in FoFCou.
 Two-electron integral symmetry not used.
          MDV=    3758096384 using IRadAn=       1.
          Solving linear equations simultaneously, MaxMat=       0.
          There are    39 degrees of freedom in the 1st order CPHF.  IDoFFX=6 NUNeed=     3.
     36 vectors produced by pass  0 Test12= 3.98D-14 2.56D-09 XBig12= 6.02D+01 3.59D+00.
 AX will form    36 AO Fock derivatives at one time.
     36 vectors produced by pass  1 Test12= 3.98D-14 2.56D-09 XBig12= 2.00D+01 9.05D-01.
     36 vectors produced by pass  2 Test12= 3.98D-14 2.56D-09 XBig12= 6.63D-01 1.28D-01.
     36 vectors produced by pass  3 Test12= 3.98D-14 2.56D-09 XBig12= 1.84D-02 1.82D-02.
     36 vectors produced by pass  4 Test12= 3.98D-14 2.56D-09 XBig12= 3.19D-04 1.99D-03.
     36 vectors produced by pass  5 Test12= 3.98D-14 2.56D-09 XBig12= 3.45D-06 1.89D-04.
     36 vectors produced by pass  6 Test12= 3.98D-14 2.56D-09 XBig12= 2.35D-08 2.33D-05.
     22 vectors produced by pass  7 Test12= 3.98D-14 2.56D-09 XBig12= 1.23D-10 1.29D-06.
      5 vectors produced by pass  8 Test12= 3.98D-14 2.56D-09 XBig12= 6.55D-13 9.58D-08.
      3 vectors produced by pass  9 Test12= 3.98D-14 2.56D-09 XBig12= 3.60D-15 8.34D-09.
 InvSVY:  IOpt=1 It=  1 EMax= 3.55D-15
 Solved reduced A of dimension   282 with    39 vectors.
 FullF1:  Do perturbations      1 to       3.
 Isotropic polarizability for W=    0.000000       62.38 Bohr**3.
 End of Minotr F.D. properties file   721 does not exist.
 End of Minotr F.D. properties file   722 does not exist.
 End of Minotr F.D. properties file   788 does not exist.
 Leave Link 1002 at Sat May 24 05:13:04 2025, MaxMem=  3758096384 cpu:             749.2 elap:              95.2
 (Enter /apps/easybuild-2022/easybuild/software/Compiler/NVHPC/22.11-CUDA-11.7.0/Gaussian/g16c01-CUDA-11.7.0/g16/l701.exe)
 ... and contract with generalized density number  0.
 Compute integral second derivatives.
   1 Symmetry operations used in ECPInt.
 ECPInt:  NShTT=    8515 NPrTT=   27988 LenC2=    8004 LenP2D=   19443.
 LDataN:  DoStor=T MaxTD1= 8 Len=  415
 Leave Link  701 at Sat May 24 05:13:04 2025, MaxMem=  3758096384 cpu:               0.8 elap:               0.1
 (Enter /apps/easybuild-2022/easybuild/software/Compiler/NVHPC/22.11-CUDA-11.7.0/Gaussian/g16c01-CUDA-11.7.0/g16/l702.exe)
 L702 exits ... SP integral derivatives will be done elsewhere.
 Leave Link  702 at Sat May 24 05:13:04 2025, MaxMem=  3758096384 cpu:               0.0 elap:               0.0
 (Enter /apps/easybuild-2022/easybuild/software/Compiler/NVHPC/22.11-CUDA-11.7.0/Gaussian/g16c01-CUDA-11.7.0/g16/l703.exe)
 Integral derivatives from FoFJK, PRISM(SPDF).
 Compute integral second derivatives, UseDBF=F ICtDFT=           0.
 Calling FoFJK, ICntrl=    100127 FMM=F ISym2X=0 I1Cent= 0 IOpClX= 0 NMat=1 NMatS=1 NMatT=0.
 FoFJK:  IHMeth= 1 ICntrl=  100127 DoSepK=F KAlg= 0 I1Cent=           0 FoldK=F
 IRaf=         0 NMat=       1 IRICut=       1 DoRegI=T DoRafI=F ISym2E= 0 IDoP0=0 IntGTp=1.
 FoFCou: FMM=F IPFlag=           0 FMFlag=      100000 FMFlg1=         800
         NFxFlg=           0 DoJE=F BraDBF=F KetDBF=F FulRan=T
         wScrn=  0.000000 ICntrl=    100127 IOpCl=  0 I1Cent=           0 NGrid=           0
         NMat0=    1 NMatS0=      1 NMatT0=    0 NMatD0=    1 NMtDS0=    0 NMtDT0=    0
 Symmetry not used in FoFCou.
 Leave Link  703 at Sat May 24 05:15:22 2025, MaxMem=  3758096384 cpu:            1099.0 elap:             138.3
 (Enter /apps/easybuild-2022/easybuild/software/Compiler/NVHPC/22.11-CUDA-11.7.0/Gaussian/g16c01-CUDA-11.7.0/g16/l716.exe)
 Dipole        = 1.25600238D+00-2.88781084D-01-5.42907101D-01
 Polarizability= 7.88161698D+01 4.42427884D+00 5.65576970D+01
                -6.09654580D+00-2.49685368D+00 5.17771837D+01
 -------------------------------------------------------------------
 Center     Atomic                   Forces (Hartrees/Bohr)
 Number     Number              X              Y              Z
 -------------------------------------------------------------------
      1        6           0.068688589   -0.001095074   -0.018822985
      2        6          -0.174312721   -0.300055576    0.010058993
      3        9           0.033136763    0.003968316    0.010345354
      4        9           0.000184232    0.014765574   -0.027582014
      5       16          -0.047131507    0.324376531   -0.033018587
      6        8           0.155070156    0.012211513   -0.037729057
      7        8           0.053029804   -0.000813892    0.090025640
      8        8          -0.009134376   -0.001216718   -0.046473588
      9        9          -0.017561987    0.019466830    0.066218321
     10        9          -0.049125206   -0.000301621   -0.038796003
     11        9          -0.009832855   -0.067474999    0.012952241
     12        1          -0.003010892   -0.003830884    0.012821685
 -------------------------------------------------------------------
 Cartesian Forces:  Max     0.324376531 RMS     0.089613705
 Force constants in Cartesian coordinates: 
                1             2             3             4             5 
      1  0.316323D+00
      2 -0.477422D-01  0.600253D+00
      3  0.228852D+00  0.860065D-01  0.828207D+00
      4  0.115179D+00 -0.827814D-01 -0.410979D-01  0.144272D+00
      5  0.812716D-01 -0.273488D-01 -0.312179D-01  0.314989D+00  0.112256D+01
      6 -0.124875D-01  0.384065D-02 -0.116139D-01  0.161218D+00  0.781384D-01
      7 -0.113401D-01  0.538840D-02 -0.730161D-02 -0.600002D-01  0.533799D-01
      8 -0.139321D-01 -0.191452D-01  0.217579D-01  0.660299D-01 -0.233171D+00
      9  0.108428D-01  0.251190D-02 -0.406778D-02 -0.445094D-01  0.993085D-01
     10 -0.253348D-01  0.169487D-01  0.172629D-01 -0.358562D-01 -0.170932D-01
     11 -0.105480D-01 -0.984216D-02 -0.112094D-01 -0.387438D-01 -0.118616D+00
     12 -0.125900D-01 -0.116878D-01 -0.292083D-01 -0.819932D-01 -0.123358D+00
     13 -0.602584D-01 -0.316033D-01  0.262869D-01 -0.929342D-01 -0.386602D+00
     14 -0.119817D+00  0.102016D+00  0.244179D-01 -0.216213D+00 -0.691412D+00
     15  0.338124D-02  0.714699D-02  0.708128D-02 -0.158346D-01 -0.581634D-01
     16 -0.125595D-01  0.476482D-01 -0.801924D-02  0.292913D-01  0.180692D-01
     17  0.228792D-01  0.447625D-01 -0.162157D-01  0.440315D-01 -0.730876D-02
     18 -0.470134D-02 -0.203689D-01 -0.887605D-02 -0.811072D-02  0.307254D-02
     19  0.194328D-02  0.162332D-01 -0.766495D-02 -0.191395D-02  0.346672D-02
     20  0.135760D-01 -0.126136D-01 -0.149793D-02 -0.287745D-01 -0.392220D-02
     21  0.425842D-02  0.281838D-02 -0.667961D-02 -0.143270D-01  0.276870D-02
     22  0.127143D-01  0.841192D-02 -0.701481D-02 -0.119973D-01 -0.272135D-02
     23  0.207666D-01 -0.139791D-01 -0.527546D-02 -0.368746D-01 -0.555196D-02
     24 -0.113086D-01 -0.353907D-02  0.274530D-02  0.993544D-02 -0.724206D-02
     25 -0.552210D-01  0.358794D-01  0.284031D-01 -0.567886D-02 -0.106510D-01
     26  0.591515D-02 -0.174843D+00 -0.197420D+00  0.135251D-01  0.692471D-02
     27 -0.579073D-02 -0.240745D+00 -0.380950D+00  0.376535D-02  0.140637D-01
     28 -0.229482D+00  0.937943D-01 -0.235416D+00 -0.229169D-01 -0.152904D-01
     29  0.529022D-01 -0.651986D-01  0.580866D-01  0.165991D-01  0.483954D-02
     30 -0.193676D+00  0.779486D-01 -0.310003D+00 -0.472834D-02 -0.504762D-02
     31 -0.487362D-01 -0.634386D-01  0.406594D-02 -0.609164D-01 -0.395935D-01
     32 -0.778002D-02 -0.419524D+00  0.730567D-01 -0.476770D-01 -0.453942D-01
     33 -0.642082D-02  0.958335D-01 -0.870664D-01  0.341672D-01  0.267899D-01
     34 -0.322710D-02  0.126146D-02  0.164385D-02  0.347151D-02  0.775157D-03
     35  0.250851D-02 -0.453764D-02 -0.488831D-03 -0.411030D-02 -0.160425D-02
     36 -0.358955D-03  0.234484D-03  0.431251D-03  0.151500D-02  0.887482D-03
                6             7             8             9            10 
      6  0.369885D+00
      7 -0.391172D-01  0.944933D-01
      8  0.105467D+00 -0.821203D-01  0.282332D+00
      9 -0.105010D+00  0.762394D-01 -0.156492D+00  0.186899D+00
     10 -0.721615D-01 -0.435864D-02  0.156039D-02 -0.416686D-01  0.728560D-01
     11 -0.118977D+00  0.139958D-01  0.145038D-01  0.424315D-01  0.376894D-01
     12 -0.286027D+00 -0.367161D-01  0.207859D-01 -0.777361D-01  0.121712D+00
     13 -0.414450D-01 -0.224586D-02  0.283647D-01 -0.109752D-01 -0.188533D-01
     14 -0.897941D-01 -0.169305D-01 -0.490540D-01  0.175655D-01 -0.405782D-01
     15  0.582410D-01  0.110289D-02  0.183876D-01 -0.849742D-02 -0.230481D-01
     16 -0.453389D-02 -0.332266D-02  0.799321D-03  0.364824D-02 -0.471861D-02
     17  0.728440D-02  0.117615D-01 -0.140292D-01  0.691238D-03 -0.648585D-02
     18  0.508926D-02 -0.674968D-03 -0.848904D-03 -0.471948D-03  0.754858D-03
     19 -0.137242D-01  0.269868D-02 -0.581732D-02  0.380142D-02  0.123615D-03
     20 -0.208120D-01  0.894533D-03  0.589824D-02 -0.377270D-02 -0.324792D-02
     21 -0.459938D-02  0.478275D-02 -0.267742D-02  0.313774D-02 -0.223360D-02
     22  0.156687D-01 -0.126508D-02 -0.401100D-02  0.461579D-02  0.430272D-02
     23  0.214295D-01  0.605454D-03  0.509086D-03  0.187256D-02  0.534259D-02
     24 -0.958959D-02 -0.613977D-03  0.487235D-02 -0.473893D-03 -0.184361D-03
     25  0.825814D-02 -0.216056D-03  0.342554D-02 -0.354992D-02  0.436786D-03
     26 -0.477731D-02  0.184832D-02 -0.167105D-03  0.199526D-02 -0.143759D-02
     27 -0.379400D-02  0.360376D-02 -0.684945D-02  0.346420D-02 -0.506043D-03
     28 -0.110532D-01 -0.308852D-02  0.864596D-02 -0.259801D-02  0.448209D-02
     29  0.181196D-02  0.192625D-02 -0.522964D-03  0.314678D-04 -0.207479D-02
     30 -0.592982D-02 -0.140099D-02  0.674984D-03  0.845752D-03  0.480663D-02
     31  0.130616D-01 -0.119742D-01 -0.399355D-02  0.449935D-02  0.764251D-02
     32  0.113326D-01  0.100955D-01  0.131900D-01 -0.690210D-02  0.779612D-02
     33 -0.481692D-02  0.235039D-04 -0.479286D-02  0.252320D-02 -0.400802D-02
     34 -0.368414D-02  0.619328D-03  0.104846D-02 -0.345935D-03 -0.722173D-03
     35  0.505618D-02 -0.844709D-03 -0.343122D-03  0.759371D-03  0.158038D-02
     36 -0.183454D-02  0.725500D-04 -0.284665D-03 -0.612714D-03 -0.725807D-03
               11            12            13            14            15 
     11  0.122676D+00
     12  0.121847D+00  0.400991D+00
     13 -0.112485D-01  0.171403D-02  0.716411D+00
     14 -0.891526D-02  0.148338D-02  0.581313D+00  0.909399D+00
     15 -0.363806D-01 -0.276863D-01  0.377954D+00  0.935974D-01  0.839884D+00
     16  0.402385D-02  0.167040D-02  0.524969D-01 -0.534673D-01 -0.217712D-01
     17 -0.439492D-02 -0.654021D-02 -0.264850D-01 -0.102432D+00  0.137253D-01
     18  0.353654D-03  0.576180D-02 -0.923300D-02  0.117777D-01 -0.540939D-01
     19 -0.199719D-02 -0.514025D-03 -0.476488D+00 -0.129105D+00 -0.468470D+00
     20 -0.477871D-02 -0.271231D-02 -0.119673D+00 -0.697985D-01 -0.117851D+00
     21 -0.410955D-03  0.130289D-02 -0.441474D+00 -0.114279D+00 -0.533073D+00
     22 -0.165801D-02 -0.419757D-02 -0.138220D+00 -0.552294D-01  0.132955D+00
     23  0.671064D-03 -0.184979D-02 -0.421575D-01 -0.583209D-01  0.800079D-01
     24  0.429833D-02  0.735497D-02  0.750533D-01  0.633193D-01 -0.259553D+00
     25  0.424845D-02  0.738145D-02  0.796785D-02  0.114763D-01  0.334307D-02
     26 -0.733189D-03 -0.324602D-02  0.277100D-03 -0.214711D-01  0.188294D-02
     27 -0.323420D-02 -0.438439D-02 -0.140236D-01 -0.375008D-02 -0.964311D-02
     28  0.500403D-03  0.143147D-02  0.143355D-01  0.430529D-02  0.516409D-03
     29  0.180534D-02  0.189767D-02 -0.136224D-02 -0.263078D-01 -0.392746D-02
     30  0.193874D-02  0.541376D-02  0.338949D-02  0.144073D-02  0.880141D-04
     31  0.325207D-02  0.210078D-02  0.928352D-02  0.343593D-01  0.258475D-02
     32  0.708759D-02  0.387170D-02  0.137180D-01  0.263283D-01  0.206038D-02
     33  0.185747D-03  0.353504D-02 -0.598537D-02 -0.183280D-01 -0.201967D-02
     34  0.485660D-03  0.113458D-05 -0.114948D-01 -0.113754D-03  0.728607D-02
     35  0.536149D-03 -0.491455D-03 -0.454111D-02 -0.100317D-01 -0.486368D-03
     36 -0.842781D-03  0.683113D-03  0.387384D-01  0.125494D-01 -0.107283D-01
               16            17            18            19            20 
     16 -0.230044D-01
     17  0.508851D-01  0.111411D+00
     18 -0.531050D-02 -0.341202D-01  0.847511D-01
     19  0.411307D-02 -0.674203D-02 -0.637754D-02  0.449778D+00
     20  0.347289D-02  0.160981D-01  0.194494D-02  0.134533D+00  0.496702D-01
     21  0.152101D-01 -0.771956D-02  0.489935D-02  0.476609D+00  0.129031D+00
     22  0.794620D-03 -0.830484D-02  0.949048D-02  0.218222D-01  0.315882D-02
     23  0.294569D-02  0.130556D-01 -0.164000D-02 -0.147731D-02  0.158600D-01
     24 -0.474262D-02  0.165506D-02  0.167173D-02  0.176266D-01  0.163321D-01
     25 -0.524518D-02 -0.249239D-01  0.319328D-01 -0.119719D-02 -0.132766D-02
     26 -0.255005D-01 -0.211506D-01  0.473795D-01 -0.154549D-02  0.208287D-02
     27  0.390679D-01  0.516510D-01 -0.503169D-01  0.446555D-02  0.768802D-03
     28 -0.455493D-01 -0.546814D-01 -0.689333D-02 -0.151623D-02  0.177542D-03
     29 -0.503536D-01 -0.364425D-01 -0.777859D-02 -0.592525D-02  0.444143D-02
     30 -0.114877D-01 -0.121381D-01  0.103366D-01  0.853859D-03 -0.233036D-03
     31  0.589515D-02 -0.526054D-04 -0.502350D-03  0.198806D-03 -0.364569D-02
     32  0.108224D-02 -0.244956D-02  0.214041D-02 -0.260945D-02 -0.216170D-02
     33 -0.223576D-02  0.315764D-03  0.166543D-02  0.921406D-03  0.169171D-02
     34  0.180864D-02 -0.188167D-02 -0.374399D-03  0.437327D-03  0.855710D-03
     35  0.394950D-03  0.288015D-02 -0.191212D-02  0.985516D-03 -0.776105D-03
     36 -0.149566D-02  0.141099D-02 -0.416499D-03 -0.752728D-02 -0.289038D-02
               21            22            23            24            25 
     21  0.587217D+00
     22 -0.326554D-01  0.581124D+00
     23 -0.274393D-02  0.212012D+00  0.798252D-01
     24 -0.599480D-01 -0.107286D+00 -0.947164D-01  0.334526D+00
     25 -0.139166D-02 -0.214860D-02 -0.234668D-02  0.122968D-02  0.363998D-01
     26 -0.134690D-03 -0.226749D-02  0.294269D-02  0.724101D-03  0.106820D-01
     27  0.372495D-02  0.676529D-02  0.205100D-02 -0.158495D-02 -0.313476D-01
     28 -0.111947D-02 -0.535811D-02 -0.239836D-02  0.288753D-02  0.338928D-02
     29 -0.169784D-02 -0.127739D-02  0.328039D-02  0.166934D-02 -0.129878D-01
     30  0.490843D-03 -0.233479D-02 -0.890605D-03  0.131536D-02 -0.410043D-01
     31 -0.137222D-02 -0.443824D-02 -0.633549D-02  0.261141D-02  0.211860D-01
     32 -0.219469D-02 -0.598319D-02 -0.533125D-02  0.344100D-02 -0.131513D-01
     33  0.142679D-02  0.289924D-02  0.357073D-02 -0.144238D-02 -0.334128D-02
     34 -0.628713D-02 -0.457330D+00 -0.150082D+00  0.147913D-01  0.327115D-03
     35 -0.276034D-02 -0.142130D+00 -0.329609D-01  0.918591D-02 -0.323356D-03
     36  0.210075D-02 -0.189067D-01 -0.181552D-02 -0.150220D-01  0.864242D-04
               26            27            28            29            30 
     26  0.299486D+00
     27  0.236800D+00  0.499759D+00
     28 -0.634911D-02 -0.841474D-02  0.281501D+00
     29  0.118226D-01 -0.123911D-01 -0.499818D-01  0.155635D+00
     30 -0.106783D-01 -0.557266D-01  0.282308D+00 -0.109806D+00  0.383307D+00
     31  0.546557D-02  0.277298D-02  0.347779D-02  0.526257D-01 -0.368019D-01
     32 -0.106001D+00 -0.384001D-01  0.210824D-01 -0.544086D-01  0.567179D-01
     33 -0.725937D-01  0.144395D-03 -0.219359D-01  0.722730D-01 -0.303495D-01
     34 -0.612935D-03 -0.358065D-03  0.725781D-03 -0.904309D-04  0.765677D-04
     35  0.110671D-02  0.355571D-04  0.195232D-03  0.105588D-02  0.731937D-04
     36  0.687821D-04 -0.692573D-03  0.287407D-03 -0.168587D-03  0.211401D-03
               31            32            33            34            35 
     31  0.773539D-01
     32  0.223269D-01  0.589185D+00
     33  0.660369D-02 -0.105491D+00  0.116642D+00
     34  0.102726D-02  0.109977D-02 -0.687865D-03  0.464358D+00
     35 -0.970132D-03 -0.521462D-03  0.545470D-03  0.147255D+00  0.451964D-01
     36  0.376003D-03  0.367334D-03 -0.242511D-03 -0.120614D-01 -0.951657D-02
               36 
     36  0.261226D-01
 FormGI is forming the generalized inverse of G from B-inverse, IUseBI=4.
 Leave Link  716 at Sat May 24 05:15:22 2025, MaxMem=  3758096384 cpu:               0.0 elap:               0.0
 (Enter /apps/easybuild-2022/easybuild/software/Compiler/NVHPC/22.11-CUDA-11.7.0/Gaussian/g16c01-CUDA-11.7.0/g16/l103.exe)

 GradGradGradGradGradGradGradGradGradGradGradGradGradGradGradGradGradGrad
 Berny optimization.
 Red2BG is reusing G-inverse.
 Internal  Forces:  Max     0.262975209 RMS     0.040949981
 Search for a saddle point.
 Step number   1 out of a maximum of  100
 All quantities printed in internal units (Hartrees-Bohrs-Radians)
 Swapping is turned off.
 Second derivative matrix not updated -- analytic derivatives used.
 ITU=  0
     Eigenvalues ---   -0.09426  -0.02898  -0.00138   0.00020   0.01033
     Eigenvalues ---    0.02041   0.02122   0.03521   0.05610   0.06563
     Eigenvalues ---    0.07003   0.07604   0.07831   0.08936   0.10187
     Eigenvalues ---    0.12172   0.13227   0.14613   0.15326   0.19287
     Eigenvalues ---    0.29544   0.39979   0.43397   0.47542   0.51225
     Eigenvalues ---    0.52898   0.56146   0.70761   0.86359   1.03732
 Eigenvectors required to have negative eigenvalues:
                          R9        R1        R2        A4        A25
   1                    0.59642   0.48990  -0.34896  -0.20523  -0.14002
                          D7        D21       D9        D8        D5
   1                    0.13390  -0.11983   0.11764   0.11506  -0.10735
 Eigenvalue     2 is  -2.90D-02 should be greater than     0.000000 Eigenvector:
                          R9        R2        R1        A10       A25
   1                   -0.67201  -0.24990   0.24671  -0.22636  -0.17560
                          A14       D20       A21       A20       D19
   1                    0.16110  -0.15533   0.15176   0.13782   0.13568
 Eigenvalue     3 is  -1.38D-03 should be greater than     0.000000 Eigenvector:
                          D34       D33       D32       D19       D22
   1                    0.55550   0.54944   0.54866   0.10553   0.09706
                          D16       D18       D21       D15       A18
   1                    0.09210   0.08072   0.07224   0.06729  -0.05453
 RFO step:  Lambda0=9.531588815D-02 Lambda=-1.56800939D-01.
 Linear search not attempted -- option 19 set.
 Maximum step size (   0.300) exceeded in Quadratic search.
    -- Step size scaled by   0.313
 Iteration  1 RMS(Cart)=  0.04785638 RMS(Int)=  0.00232024
 Iteration  2 RMS(Cart)=  0.00249148 RMS(Int)=  0.00090272
 Iteration  3 RMS(Cart)=  0.00000274 RMS(Int)=  0.00090271
 Iteration  4 RMS(Cart)=  0.00000000 RMS(Int)=  0.00090271
 ITry= 1 IFail=0 DXMaxC= 1.84D-01 DCOld= 1.00D+10 DXMaxT= 3.00D-01 DXLimC= 3.00D+00 Rises=F
 Variable       Old X    -DE/DX   Delta X   Delta X   Delta X     New X
                                 (Linear)    (Quad)   (Total)
    R1        3.77945  -0.04363   0.00000   0.15855   0.15915   3.93860
    R2        3.77945   0.05435   0.00000  -0.14055  -0.14100   3.63844
    R3        2.36074   0.04627   0.00000   0.02142   0.02169   2.38243
    R4        2.36517   0.03748   0.00000   0.02154   0.02166   2.38683
    R5        2.40067   0.06925   0.00000   0.02975   0.02975   2.43042
    R6        2.53620   0.01124   0.00000  -0.00984  -0.00984   2.52637
    R7        2.50864   0.01818   0.00000   0.00363   0.00363   2.51228
    R8        2.74011   0.26298   0.00000   0.05729   0.05807   2.79818
    R9        3.77945  -0.11460   0.00000  -0.02898  -0.02930   3.75016
   R10        2.58504   0.09982   0.00000   0.02374   0.02374   2.60878
   R11        2.90384   0.02172   0.00000   0.01624   0.01624   2.92008
   R12        4.03236   0.02982   0.00000   0.01237   0.01189   4.04426
   R13        4.06282   0.03709   0.00000   0.00095   0.00078   4.06360
   R14        1.83287  -0.00436   0.00000  -0.00150  -0.00150   1.83137
    A1        1.29694   0.02116   0.00000   0.01243   0.01111   1.30805
    A2        2.01625   0.01160   0.00000   0.05313   0.05107   2.06732
    A3        1.92364  -0.01173   0.00000   0.03061   0.02846   1.95210
    A4        1.59834  -0.00572   0.00000  -0.08210  -0.08092   1.51742
    A5        2.09776  -0.00460   0.00000   0.00042  -0.00333   2.09443
    A6        1.87161   0.00576   0.00000  -0.01630  -0.01462   1.85699
    A7        1.88245   0.00582   0.00000  -0.01883  -0.01824   1.86421
    A8        1.74317   0.04230   0.00000   0.04888   0.04838   1.79156
    A9        1.67396   0.03471   0.00000  -0.01274  -0.01388   1.66007
   A10        1.82414  -0.05986   0.00000  -0.08185  -0.08084   1.74330
   A11        1.79970   0.00897   0.00000   0.01799   0.01800   1.81770
   A12        2.17056   0.00141   0.00000   0.01487   0.01539   2.18595
   A13        2.14122  -0.01217   0.00000   0.00323   0.00042   2.14165
   A14        1.52490   0.00621   0.00000   0.01734   0.01792   1.54283
   A15        2.11551  -0.01146   0.00000  -0.00401  -0.00423   2.11128
   A16        1.98532  -0.01175   0.00000   0.00281   0.00289   1.98821
   A17        2.11660   0.00365   0.00000  -0.01725  -0.01721   2.09939
   A18        1.88161  -0.01197   0.00000  -0.02364  -0.02416   1.85745
   A19        1.82781   0.02013   0.00000   0.01906   0.01894   1.84675
   A20        1.51530   0.02733   0.00000   0.04936   0.04904   1.56434
   A21        1.67833   0.01448   0.00000   0.05513   0.05393   1.73225
   A22        1.90046   0.03220   0.00000   0.06015   0.05891   1.95938
   A23        1.06122   0.00953   0.00000   0.00890   0.00780   1.06902
   A24        2.12849  -0.02384   0.00000  -0.02856  -0.02856   2.09994
   A25        2.89528   0.01544   0.00000  -0.06967  -0.06982   2.82546
   A26        3.11534  -0.00508   0.00000  -0.00185  -0.00204   3.11330
    D1        2.65139  -0.01928   0.00000  -0.00104  -0.00112   2.65027
    D2       -1.80875   0.00351   0.00000   0.02221   0.02166  -1.78709
    D3        0.39011  -0.01483   0.00000  -0.00519  -0.00442   0.38569
    D4        1.45548  -0.00832   0.00000  -0.04931  -0.05078   1.40469
    D5       -3.00466   0.01448   0.00000  -0.02606  -0.02800  -3.03266
    D6       -0.80580  -0.00386   0.00000  -0.05346  -0.05408  -0.85988
    D7       -2.37852  -0.01628   0.00000   0.04910   0.04981  -2.32870
    D8       -0.55547   0.00651   0.00000   0.07235   0.07259  -0.48288
    D9        1.64340  -0.01183   0.00000   0.04494   0.04651   1.68991
   D10       -0.46395  -0.01420   0.00000   0.00081   0.00092  -0.46303
   D11        1.35909   0.00860   0.00000   0.02406   0.02370   1.38280
   D12       -2.72523  -0.00975   0.00000  -0.00335  -0.00238  -2.72761
   D13       -0.27061  -0.02891   0.00000  -0.00954  -0.00958  -0.28019
   D14       -0.37525  -0.00563   0.00000   0.01554   0.01490  -0.36035
   D15        1.81398  -0.00103   0.00000   0.00519   0.00491   1.81889
   D16       -2.26574   0.00586   0.00000   0.03343   0.03302  -2.23272
   D17       -2.34850  -0.01203   0.00000   0.01138   0.01098  -2.33752
   D18       -0.15927  -0.00743   0.00000   0.00103   0.00099  -0.15828
   D19        2.04419  -0.00054   0.00000   0.02927   0.02911   2.07330
   D20        1.49238  -0.01191   0.00000  -0.06060  -0.06069   1.43169
   D21       -2.60158  -0.00731   0.00000  -0.07096  -0.07067  -2.67225
   D22       -0.39812  -0.00042   0.00000  -0.04272  -0.04256  -0.44068
   D23        0.36329   0.00089   0.00000   0.02210   0.02222   0.38552
   D24        0.95268   0.01128   0.00000   0.03397   0.03430   0.98698
   D25       -0.11560  -0.00152   0.00000   0.01019   0.00966  -0.10594
   D26       -1.82501   0.00918   0.00000   0.02114   0.02128  -1.80373
   D27       -1.23563   0.01957   0.00000   0.03301   0.03336  -1.20227
   D28       -2.30391   0.00677   0.00000   0.00924   0.00872  -2.29519
   D29        2.35514  -0.01056   0.00000   0.02859   0.02864   2.38377
   D30        2.94452  -0.00017   0.00000   0.04046   0.04072   2.98524
   D31        1.87624  -0.01297   0.00000   0.01669   0.01608   1.89232
   D32       -2.22596   0.00174   0.00000  -0.09331  -0.09322  -2.31918
   D33        2.39761   0.00447   0.00000  -0.10316  -0.10340   2.29422
   D34        0.12163  -0.00557   0.00000  -0.07981  -0.07966   0.04197
         Item               Value     Threshold  Converged?
 Maximum Force            0.262975     0.000450     NO 
 RMS     Force            0.040950     0.000300     NO 
 Maximum Displacement     0.183683     0.001800     NO 
 RMS     Displacement     0.047898     0.001200     NO 
 Predicted change in Energy=-2.322320D-02
 Lowest energy point so far.  Saving SCF results.
 GradGradGradGradGradGradGradGradGradGradGradGradGradGradGradGradGradGrad

 Leave Link  103 at Sat May 24 05:15:22 2025, MaxMem=  3758096384 cpu:               0.1 elap:               0.1
 (Enter /apps/easybuild-2022/easybuild/software/Compiler/NVHPC/22.11-CUDA-11.7.0/Gaussian/g16c01-CUDA-11.7.0/g16/l202.exe)
                          Input orientation:                          
 ---------------------------------------------------------------------
 Center     Atomic      Atomic             Coordinates (Angstroms)
 Number     Number       Type             X           Y           Z
 ---------------------------------------------------------------------
      1          6           0       -0.143816    0.337874    0.353725
      2          6           0        1.756052   -0.085839   -0.391210
      3          9           0        2.116513   -1.159218    0.319576
      4          9           0        1.322325   -0.589283   -1.542659
      5         16           0        2.374884    1.255331   -0.286912
      6          8           0        0.549563    2.032720   -0.241099
      7          8           0        3.279936    1.544096    0.714736
      8          8           0        3.026853    1.748114   -1.598351
      9          9           0       -0.235494    0.968499    1.441540
     10          9           0       -0.974829    0.552776   -0.572852
     11          9           0       -0.231064   -0.910747    0.649429
     12          1           0        3.917568    2.129855   -1.588518
 ---------------------------------------------------------------------
                    Distance matrix (angstroms):
                    1          2          3          4          5
     1  C    0.000000
     2  C    2.084217   0.000000
     3  F    2.711373   1.336896   0.000000
     4  F    2.570109   1.329439   2.103207   0.000000
     5  S    2.756083   1.480733   2.502924   2.467262   0.000000
     6  O    1.925381   2.442630   3.599745   3.027560   1.984497
     7  O    3.647928   2.490388   2.969447   3.671428   1.380509
     8  O    3.981523   2.536831   3.599964   2.893431   1.545242
     9  F    1.260727   2.904626   3.364212   3.709302   3.143865
    10  F    1.263056   2.810433   3.644688   2.742579   3.434519
    11  F    1.286122   2.389986   2.383624   2.705847   3.515622
    12  H    4.845446   3.318885   4.207448   3.759136   2.199738
                    6          7          8          9         10
     6  O    0.000000
     7  O    2.933822   0.000000
     8  O    2.839032   2.335818   0.000000
     9  F    2.140129   3.635629   4.526769   0.000000
    10  F    2.150364   4.554517   4.300458   2.185685   0.000000
    11  F    3.172763   4.284582   4.768237   2.039369   2.046719
    12  H    3.628834   2.460624   0.969121   5.270476   5.239686
                   11         12
    11  F    0.000000
    12  H    5.609351   0.000000
 Symmetry turned off by external request.
 Stoichiometry    C2HF5O3S
 Rotational constants (GHZ):           1.5423928           0.8788355           0.7966276
 Leave Link  202 at Sat May 24 05:15:22 2025, MaxMem=  3758096384 cpu:               0.0 elap:               0.0
 (Enter /apps/easybuild-2022/easybuild/software/Compiler/NVHPC/22.11-CUDA-11.7.0/Gaussian/g16c01-CUDA-11.7.0/g16/l301.exe)
 Standard basis: def2TZVPP (5D, 7F)
 Ernie: Thresh=  0.10000D-02 Tol=  0.10000D-05 Strict=F.
   366 basis functions,   596 primitive gaussians,   423 cartesian basis functions
    49 alpha electrons       49 beta electrons
       nuclear repulsion energy       933.3590220767 Hartrees.
 IExCor= 4336 DFT=T Ex+Corr=M062X ExCW=0 ScaHFX=  0.540000
 ScaDFX=  1.000000  1.000000  1.000000  1.000000 ScalE2=  1.000000  1.000000
 IRadAn=      5 IRanWt=     -1 IRanGd=            0 ICorTp=0 IEmpDi=  4
 NAtoms=   12 NActive=   12 NUniq=   12 SFac= 1.00D+00 NAtFMM=   60 NAOKFM=F Big=F
 Integral buffers will be    131072 words long.
 Raffenetti 2 integral format.
 Two-electron integral symmetry is turned off.
 Leave Link  301 at Sat May 24 05:15:22 2025, MaxMem=  3758096384 cpu:               0.0 elap:               0.0
 (Enter /apps/easybuild-2022/easybuild/software/Compiler/NVHPC/22.11-CUDA-11.7.0/Gaussian/g16c01-CUDA-11.7.0/g16/l302.exe)
 NPDir=0 NMtPBC=     1 NCelOv=     1 NCel=       1 NClECP=     1 NCelD=      1
         NCelK=      1 NCelE2=     1 NClLst=     1 CellRange=     0.0.
 One-electron integrals computed using PRISM.
   1 Symmetry operations used in ECPInt.
 ECPInt:  NShTT=    8515 NPrTT=   27988 LenC2=    7984 LenP2D=   19370.
 LDataN:  DoStor=T MaxTD1= 6 Len=  172
 NBasis=   366 RedAO= T EigKep=  4.14D-04  NBF=   366
 NBsUse=   366 1.00D-06 EigRej= -1.00D+00 NBFU=   366
 Precomputing XC quadrature grid using
 IXCGrd= 4 IRadAn=           5 IRanWt=          -1 IRanGd=           0 AccXCQ= 0.00D+00.
 Generated NRdTot=       0 NPtTot=           0 NUsed=           0 NTot=          32
 NSgBfM=   420   420   420   420   420 MxSgAt=    12 MxSgA2=    12.
 Leave Link  302 at Sat May 24 05:15:23 2025, MaxMem=  3758096384 cpu:               0.9 elap:               0.2
 (Enter /apps/easybuild-2022/easybuild/software/Compiler/NVHPC/22.11-CUDA-11.7.0/Gaussian/g16c01-CUDA-11.7.0/g16/l303.exe)
 DipDrv:  MaxL=1.
 Leave Link  303 at Sat May 24 05:15:23 2025, MaxMem=  3758096384 cpu:               0.1 elap:               0.0
 (Enter /apps/easybuild-2022/easybuild/software/Compiler/NVHPC/22.11-CUDA-11.7.0/Gaussian/g16c01-CUDA-11.7.0/g16/l401.exe)
 Initial guess from the checkpoint file:  "2003846667223680600001_r13_insertion_ROR_1_2_5_6.chk"
 B after Tr=    -0.002341    0.002370    0.002599
         Rot=    0.999989    0.002824    0.000054    0.003808 Ang=   0.54 deg.
 Guess basis will be translated and rotated to current coordinates.
 JPrj=2 DoOrth=T DoCkMO=T.
 Generating alternative initial guess.
 ExpMin= 9.52D-02 ExpMax= 6.07D+04 ExpMxC= 2.07D+03 IAcc=3 IRadAn=         5 AccDes= 0.00D+00
 Harris functional with IExCor= 1009 and IRadAn=       5 diagonalized for initial guess.
 HarFok:  IExCor= 1009 AccDes= 0.00D+00 IRadAn=         5 IDoV= 1 UseB2=F ITyADJ=14
 ICtDFT=  3500011 ScaDFX=  1.000000  1.000000  1.000000  1.000000
 FoFCou: FMM=F IPFlag=           0 FMFlag=      100000 FMFlg1=           0
         NFxFlg=           0 DoJE=T BraDBF=F KetDBF=T FulRan=T
         wScrn=  0.000000 ICntrl=       500 IOpCl=  0 I1Cent=   200000004 NGrid=           0
         NMat0=    1 NMatS0=      1 NMatT0=    0 NMatD0=    1 NMtDS0=    0 NMtDT0=    0
 Symmetry not used in FoFCou.
 Harris En= -1199.04290013638    
 Leave Link  401 at Sat May 24 05:15:23 2025, MaxMem=  3758096384 cpu:               4.5 elap:               0.7
 (Enter /apps/easybuild-2022/easybuild/software/Compiler/NVHPC/22.11-CUDA-11.7.0/Gaussian/g16c01-CUDA-11.7.0/g16/l502.exe)
 Keep R1 ints in memory in canonical form, NReq=2293447020.
 FoFCou: FMM=F IPFlag=           0 FMFlag=           0 FMFlg1=           0
         NFxFlg=           0 DoJE=F BraDBF=F KetDBF=F FulRan=T
         wScrn=  0.000000 ICntrl=       600 IOpCl=  0 I1Cent=           0 NGrid=           0
         NMat0=    1 NMatS0=  67161 NMatT0=    0 NMatD0=    1 NMtDS0=    0 NMtDT0=    0
 Symmetry not used in FoFCou.
 Two-electron integral symmetry not used.
 Closed shell SCF:
 Using DIIS extrapolation, IDIIS=  1040.
 NGot=  3758096384 LenX=  1502398648 LenY=  1502219278
 Requested convergence on RMS density matrix=1.00D-08 within  32 cycles.
 Requested convergence on MAX density matrix=1.00D-06.
 Requested convergence on             energy=1.00D-06.
 No special actions if energy rises.
 Integral accuracy reduced to 1.0D-05 until final iterations.

 Cycle   1  Pass 0  IDiag  1:
 E= -1199.57388748005    
 DIIS: error= 3.59D-03 at cycle   1 NSaved=   1.
 NSaved= 1 IEnMin= 1 EnMin= -1199.57388748005     IErMin= 1 ErrMin= 3.59D-03
 ErrMax= 3.59D-03  0.00D+00 EMaxC= 1.00D-01 BMatC= 9.36D-03 BMatP= 9.36D-03
 IDIUse=3 WtCom= 9.64D-01 WtEn= 3.59D-02
 Coeff-Com:  0.100D+01
 Coeff-En:   0.100D+01
 Coeff:      0.100D+01
 Gap=     0.991 Goal=   None    Shift=    0.000
 GapD=    0.991 DampG=2.000 DampE=1.000 DampFc=2.0000 IDamp=-1.
 RMSDP=3.26D-04 MaxDP=1.17D-02              OVMax= 4.51D-02

 Cycle   2  Pass 0  IDiag  1:
 E= -1199.58372873095     Delta-E=       -0.009841250901 Rises=F Damp=F
 DIIS: error= 1.46D-03 at cycle   2 NSaved=   2.
 NSaved= 2 IEnMin= 2 EnMin= -1199.58372873095     IErMin= 2 ErrMin= 1.46D-03
 ErrMax= 1.46D-03  0.00D+00 EMaxC= 1.00D-01 BMatC= 1.17D-03 BMatP= 9.36D-03
 IDIUse=3 WtCom= 9.85D-01 WtEn= 1.46D-02
 Coeff-Com:  0.882D-01 0.912D+00
 Coeff-En:   0.000D+00 0.100D+01
 Coeff:      0.869D-01 0.913D+00
 Gap=     0.250 Goal=   None    Shift=    0.000
 RMSDP=1.75D-04 MaxDP=8.23D-03 DE=-9.84D-03 OVMax= 3.73D-02

 Cycle   3  Pass 0  IDiag  1:
 E= -1199.58325872875     Delta-E=        0.000470002204 Rises=F Damp=F
 DIIS: error= 1.59D-03 at cycle   3 NSaved=   3.
 NSaved= 3 IEnMin= 2 EnMin= -1199.58372873095     IErMin= 2 ErrMin= 1.46D-03
 ErrMax= 1.59D-03  0.00D+00 EMaxC= 1.00D-01 BMatC= 2.86D-03 BMatP= 1.17D-03
 IDIUse=3 WtCom= 2.01D-01 WtEn= 7.99D-01
 Coeff-Com: -0.548D-01 0.650D+00 0.405D+00
 Coeff-En:   0.000D+00 0.573D+00 0.427D+00
 Coeff:     -0.110D-01 0.588D+00 0.423D+00
 Gap=     0.255 Goal=   None    Shift=    0.000
 RMSDP=1.31D-04 MaxDP=6.56D-03 DE= 4.70D-04 OVMax= 1.99D-02

 Cycle   4  Pass 0  IDiag  1:
 E= -1199.58542696193     Delta-E=       -0.002168233175 Rises=F Damp=F
 DIIS: error= 6.83D-04 at cycle   4 NSaved=   4.
 NSaved= 4 IEnMin= 4 EnMin= -1199.58542696193     IErMin= 4 ErrMin= 6.83D-04
 ErrMax= 6.83D-04  0.00D+00 EMaxC= 1.00D-01 BMatC= 2.38D-04 BMatP= 1.17D-03
 IDIUse=3 WtCom= 9.93D-01 WtEn= 6.83D-03
 Coeff-Com: -0.344D-01 0.166D+00 0.250D+00 0.619D+00
 Coeff-En:   0.000D+00 0.000D+00 0.399D-01 0.960D+00
 Coeff:     -0.342D-01 0.164D+00 0.248D+00 0.621D+00
 Gap=     0.252 Goal=   None    Shift=    0.000
 RMSDP=5.10D-05 MaxDP=2.38D-03 DE=-2.17D-03 OVMax= 1.32D-02

 Cycle   5  Pass 0  IDiag  1:
 E= -1199.58573419535     Delta-E=       -0.000307233422 Rises=F Damp=F
 DIIS: error= 1.58D-04 at cycle   5 NSaved=   5.
 NSaved= 5 IEnMin= 5 EnMin= -1199.58573419535     IErMin= 5 ErrMin= 1.58D-04
 ErrMax= 1.58D-04  0.00D+00 EMaxC= 1.00D-01 BMatC= 3.37D-05 BMatP= 2.38D-04
 IDIUse=3 WtCom= 9.98D-01 WtEn= 1.58D-03
 Coeff-Com:  0.361D-02-0.146D+00-0.329D-01 0.308D+00 0.867D+00
 Coeff-En:   0.000D+00 0.000D+00 0.000D+00 0.000D+00 0.100D+01
 Coeff:      0.360D-02-0.146D+00-0.328D-01 0.307D+00 0.868D+00
 Gap=     0.252 Goal=   None    Shift=    0.000
 RMSDP=3.73D-05 MaxDP=1.73D-03 DE=-3.07D-04 OVMax= 9.35D-03

 Cycle   6  Pass 0  IDiag  1:
 E= -1199.58583151103     Delta-E=       -0.000097315685 Rises=F Damp=F
 DIIS: error= 8.42D-05 at cycle   6 NSaved=   6.
 NSaved= 6 IEnMin= 6 EnMin= -1199.58583151103     IErMin= 6 ErrMin= 8.42D-05
 ErrMax= 8.42D-05  0.00D+00 EMaxC= 1.00D-01 BMatC= 4.74D-06 BMatP= 3.37D-05
 IDIUse=1 WtCom= 1.00D+00 WtEn= 0.00D+00
 Coeff-Com:  0.910D-02-0.876D-01-0.666D-01-0.148D-02 0.238D+00 0.909D+00
 Coeff:      0.910D-02-0.876D-01-0.666D-01-0.148D-02 0.238D+00 0.909D+00
 Gap=     0.252 Goal=   None    Shift=    0.000
 RMSDP=2.13D-05 MaxDP=9.41D-04 DE=-9.73D-05 OVMax= 5.55D-03

 Cycle   7  Pass 0  IDiag  1:
 E= -1199.58585476564     Delta-E=       -0.000023254610 Rises=F Damp=F
 DIIS: error= 3.67D-05 at cycle   7 NSaved=   7.
 NSaved= 7 IEnMin= 7 EnMin= -1199.58585476564     IErMin= 7 ErrMin= 3.67D-05
 ErrMax= 3.67D-05  0.00D+00 EMaxC= 1.00D-01 BMatC= 1.13D-06 BMatP= 4.74D-06
 IDIUse=1 WtCom= 1.00D+00 WtEn= 0.00D+00
 Coeff-Com:  0.196D-02 0.108D-01-0.136D-01-0.695D-01-0.148D+00 0.284D+00
 Coeff-Com:  0.934D+00
 Coeff:      0.196D-02 0.108D-01-0.136D-01-0.695D-01-0.148D+00 0.284D+00
 Coeff:      0.934D+00
 Gap=     0.252 Goal=   None    Shift=    0.000
 RMSDP=1.15D-05 MaxDP=4.86D-04 DE=-2.33D-05 OVMax= 3.04D-03

 Cycle   8  Pass 0  IDiag  1:
 E= -1199.58586005139     Delta-E=       -0.000005285749 Rises=F Damp=F
 DIIS: error= 2.59D-05 at cycle   8 NSaved=   8.
 NSaved= 8 IEnMin= 8 EnMin= -1199.58586005139     IErMin= 8 ErrMin= 2.59D-05
 ErrMax= 2.59D-05  0.00D+00 EMaxC= 1.00D-01 BMatC= 4.43D-07 BMatP= 1.13D-06
 IDIUse=1 WtCom= 1.00D+00 WtEn= 0.00D+00
 Coeff-Com: -0.640D-03 0.219D-01 0.541D-02-0.351D-01-0.120D+00-0.539D-01
 Coeff-Com:  0.501D+00 0.681D+00
 Coeff:     -0.640D-03 0.219D-01 0.541D-02-0.351D-01-0.120D+00-0.539D-01
 Coeff:      0.501D+00 0.681D+00
 Gap=     0.252 Goal=   None    Shift=    0.000
 RMSDP=4.41D-06 MaxDP=2.17D-04 DE=-5.29D-06 OVMax= 1.09D-03

 Initial convergence to 1.0D-05 achieved.  Increase integral accuracy.
 Cycle   9  Pass 1  IDiag  1:
 E= -1199.58582103971     Delta-E=        0.000039011681 Rises=F Damp=F
 DIIS: error= 2.64D-05 at cycle   1 NSaved=   1.
 NSaved= 1 IEnMin= 1 EnMin= -1199.58582103971     IErMin= 1 ErrMin= 2.64D-05
 ErrMax= 2.64D-05  0.00D+00 EMaxC= 1.00D-01 BMatC= 8.69D-07 BMatP= 8.69D-07
 IDIUse=1 WtCom= 1.00D+00 WtEn= 0.00D+00
 Coeff-Com:  0.100D+01
 Coeff:      0.100D+01
 Gap=     0.252 Goal=   None    Shift=    0.000
 RMSDP=4.41D-06 MaxDP=2.17D-04 DE= 3.90D-05 OVMax= 3.38D-04

 Cycle  10  Pass 1  IDiag  1:
 E= -1199.58582178526     Delta-E=       -0.000000745546 Rises=F Damp=F
 DIIS: error= 9.52D-06 at cycle   2 NSaved=   2.
 NSaved= 2 IEnMin= 2 EnMin= -1199.58582178526     IErMin= 2 ErrMin= 9.52D-06
 ErrMax= 9.52D-06  0.00D+00 EMaxC= 1.00D-01 BMatC= 9.67D-08 BMatP= 8.69D-07
 IDIUse=1 WtCom= 1.00D+00 WtEn= 0.00D+00
 Coeff-Com:  0.877D-01 0.912D+00
 Coeff:      0.877D-01 0.912D+00
 Gap=     0.252 Goal=   None    Shift=    0.000
 RMSDP=1.56D-06 MaxDP=7.20D-05 DE=-7.46D-07 OVMax= 2.44D-04

 Cycle  11  Pass 1  IDiag  1:
 E= -1199.58582179095     Delta-E=       -0.000000005690 Rises=F Damp=F
 DIIS: error= 1.36D-05 at cycle   3 NSaved=   3.
 NSaved= 3 IEnMin= 3 EnMin= -1199.58582179095     IErMin= 2 ErrMin= 9.52D-06
 ErrMax= 1.36D-05  0.00D+00 EMaxC= 1.00D-01 BMatC= 1.64D-07 BMatP= 9.67D-08
 IDIUse=1 WtCom= 1.00D+00 WtEn= 0.00D+00
 Coeff-Com: -0.467D-01 0.591D+00 0.456D+00
 Coeff:     -0.467D-01 0.591D+00 0.456D+00
 Gap=     0.252 Goal=   None    Shift=    0.000
 RMSDP=7.79D-07 MaxDP=4.27D-05 DE=-5.69D-09 OVMax= 1.01D-04

 Cycle  12  Pass 1  IDiag  1:
 E= -1199.58582191318     Delta-E=       -0.000000122234 Rises=F Damp=F
 DIIS: error= 2.86D-06 at cycle   4 NSaved=   4.
 NSaved= 4 IEnMin= 4 EnMin= -1199.58582191318     IErMin= 4 ErrMin= 2.86D-06
 ErrMax= 2.86D-06  0.00D+00 EMaxC= 1.00D-01 BMatC= 7.85D-09 BMatP= 9.67D-08
 IDIUse=1 WtCom= 1.00D+00 WtEn= 0.00D+00
 Coeff-Com: -0.270D-01 0.237D+00 0.221D+00 0.569D+00
 Coeff:     -0.270D-01 0.237D+00 0.221D+00 0.569D+00
 Gap=     0.252 Goal=   None    Shift=    0.000
 RMSDP=3.83D-07 MaxDP=1.92D-05 DE=-1.22D-07 OVMax= 7.10D-05

 Cycle  13  Pass 1  IDiag  1:
 E= -1199.58582192436     Delta-E=       -0.000000011178 Rises=F Damp=F
 DIIS: error= 1.99D-06 at cycle   5 NSaved=   5.
 NSaved= 5 IEnMin= 5 EnMin= -1199.58582192436     IErMin= 5 ErrMin= 1.99D-06
 ErrMax= 1.99D-06  0.00D+00 EMaxC= 1.00D-01 BMatC= 3.86D-09 BMatP= 7.85D-09
 IDIUse=1 WtCom= 1.00D+00 WtEn= 0.00D+00
 Coeff-Com:  0.100D-01-0.205D+00-0.132D+00 0.457D+00 0.870D+00
 Coeff:      0.100D-01-0.205D+00-0.132D+00 0.457D+00 0.870D+00
 Gap=     0.252 Goal=   None    Shift=    0.000
 RMSDP=4.67D-07 MaxDP=2.61D-05 DE=-1.12D-08 OVMax= 1.11D-04

 Cycle  14  Pass 1  IDiag  1:
 E= -1199.58582193606     Delta-E=       -0.000000011703 Rises=F Damp=F
 DIIS: error= 8.35D-07 at cycle   6 NSaved=   6.
 NSaved= 6 IEnMin= 6 EnMin= -1199.58582193606     IErMin= 6 ErrMin= 8.35D-07
 ErrMax= 8.35D-07  0.00D+00 EMaxC= 1.00D-01 BMatC= 5.80D-10 BMatP= 3.86D-09
 IDIUse=1 WtCom= 1.00D+00 WtEn= 0.00D+00
 Coeff-Com:  0.874D-02-0.129D+00-0.959D-01 0.619D-01 0.358D+00 0.796D+00
 Coeff:      0.874D-02-0.129D+00-0.959D-01 0.619D-01 0.358D+00 0.796D+00
 Gap=     0.252 Goal=   None    Shift=    0.000
 RMSDP=2.21D-07 MaxDP=1.25D-05 DE=-1.17D-08 OVMax= 5.45D-05

 Cycle  15  Pass 1  IDiag  1:
 E= -1199.58582193834     Delta-E=       -0.000000002275 Rises=F Damp=F
 DIIS: error= 3.45D-07 at cycle   7 NSaved=   7.
 NSaved= 7 IEnMin= 7 EnMin= -1199.58582193834     IErMin= 7 ErrMin= 3.45D-07
[...]
     22  0.198125D-02 -0.356820D-02 -0.101441D+00 -0.466736D-01  0.551344D-01
     23  0.412043D-02 -0.520333D-02 -0.527830D-01 -0.115570D+00  0.106318D+00
     24 -0.567431D-03  0.121982D-01  0.297435D-01  0.907040D-01 -0.184110D+00
     25  0.648773D-03  0.248553D-02  0.159386D-01 -0.168300D-01 -0.536234D-03
     26  0.286144D-03 -0.161735D-02 -0.120039D-03 -0.558889D-02 -0.136579D-02
     27 -0.183330D-03  0.488956D-03 -0.453034D-02  0.629547D-02  0.230133D-03
     28 -0.134962D-02  0.120233D-01 -0.166877D-01  0.326709D-01  0.142462D-01
     29 -0.110528D-02  0.855304D-02 -0.823225D-03  0.523901D-02  0.150345D-02
     30 -0.276510D-03  0.918320D-02 -0.383523D-02  0.660405D-02  0.798993D-03
     31 -0.633803D-03  0.104925D-01 -0.515606D-02  0.110033D-01  0.528949D-02
     32 -0.715762D-03  0.502688D-02  0.222732D-02  0.294372D-02  0.764193D-02
     33  0.132426D-02 -0.134611D-01  0.111475D-01 -0.216465D-01 -0.204451D-01
     34 -0.474082D-05  0.712572D-03 -0.152029D-01 -0.199623D-02  0.916882D-02
     35 -0.790055D-04 -0.396381D-03 -0.228177D-01 -0.202241D-02  0.651332D-02
     36 -0.621352D-03 -0.107318D-02  0.380151D-01  0.238421D-02 -0.613064D-02
               16            17            18            19            20 
     16  0.375874D+00
     17 -0.210569D+00  0.222098D+00
     18 -0.647867D-01  0.404872D-01  0.804633D-01
     19 -0.298749D-01 -0.371790D-03 -0.252737D-01  0.353236D+00
     20  0.300562D-01  0.250535D-01  0.105349D-01  0.269056D-02  0.547631D-01
     21  0.145756D-01  0.439104D-02  0.902883D-02  0.334928D+00 -0.471390D-02
     22 -0.383355D-01 -0.278763D-01  0.353018D-01  0.146759D-01  0.109540D-01
     23  0.315242D-01  0.187503D-01 -0.112669D-01  0.244689D-02  0.775634D-02
     24  0.153525D-01  0.956525D-02 -0.469650D-02  0.852976D-02  0.244527D-01
     25 -0.788835D-01 -0.118506D-02  0.298372D-01 -0.348414D-02  0.162064D-02
     26 -0.125995D-01  0.698619D-02  0.510067D-02 -0.471118D-03  0.183586D-02
     27  0.344827D-01  0.880535D-04 -0.263336D-02  0.184195D-02 -0.853536D-03
     28  0.181970D-01  0.284858D-02 -0.565462D-02  0.982896D-03 -0.585916D-02
     29 -0.858297D-03  0.549691D-02 -0.236993D-02 -0.167030D-03 -0.104425D-02
     30  0.301045D-02  0.227730D-02  0.289507D-02  0.303405D-03 -0.133867D-02
     31  0.872355D-02 -0.651420D-03  0.153717D-02 -0.191562D-03 -0.265228D-02
     32 -0.239810D-03  0.479327D-02  0.418739D-02 -0.920539D-03 -0.902404D-03
     33 -0.117312D-01 -0.417729D-02  0.488604D-02  0.843478D-03  0.448528D-02
     34  0.243884D-02 -0.151122D-02 -0.774054D-03 -0.507710D-03  0.203674D-02
     35 -0.781311D-03 -0.419367D-03  0.761972D-03  0.112024D-02 -0.859459D-03
     36  0.612769D-02  0.511325D-02 -0.378961D-02 -0.567571D-02 -0.214453D-02
               21            22            23            24            25 
     21  0.434612D+00
     22 -0.152040D-01  0.616818D+00
     23 -0.198981D-03 -0.219835D-01  0.120026D+00
     24 -0.224467D-01 -0.982268D-01 -0.122940D+00  0.233489D+00
     25 -0.678495D-03 -0.813955D-02  0.134805D-02  0.280160D-02  0.216200D+00
     26  0.836155D-03  0.936725D-04  0.277872D-02 -0.311432D-03 -0.151293D+00
     27  0.895729D-03  0.234459D-02 -0.138314D-03 -0.874844D-03 -0.554574D-01
     28 -0.544150D-02 -0.143819D-02 -0.124274D-01  0.259761D-02  0.181630D-01
     29 -0.225135D-03 -0.841056D-03 -0.122787D-02  0.157296D-03 -0.243152D-02
     30 -0.224231D-03 -0.828829D-03 -0.220712D-02  0.105051D-02  0.157139D-03
     31 -0.270151D-02 -0.991477D-03 -0.475989D-02  0.132736D-02 -0.159617D-01
     32 -0.251305D-02 -0.274232D-02 -0.154978D-02  0.510877D-04  0.453822D-01
     33  0.835150D-02  0.233058D-02  0.942189D-02 -0.105671D-02 -0.121063D-01
     34 -0.544246D-02 -0.499068D+00  0.546306D-01  0.483358D-01  0.532021D-03
     35 -0.618729D-03  0.751334D-01 -0.211401D-01  0.735586D-02 -0.435983D-03
     36  0.984703D-03  0.127680D-01  0.120409D-01 -0.237717D-01  0.111871D-02
               26            27            28            29            30 
     26  0.305012D+00
     27  0.798959D-01  0.129237D+00
     28  0.191713D-01  0.163165D-01  0.151708D+00
     29 -0.540979D-01 -0.670426D-01  0.476962D-01  0.165555D+00
     30 -0.615456D-01 -0.347723D-01  0.124155D+00  0.156113D+00  0.297186D+00
     31  0.578875D-01 -0.268295D-01 -0.464674D-02  0.472323D-02 -0.387900D-01
     32 -0.594723D-01  0.410548D-01 -0.422565D-02  0.157169D-01 -0.492055D-02
     33  0.209981D-01  0.779745D-02 -0.743559D-02  0.114090D-01 -0.457174D-01
     34 -0.371802D-03 -0.320475D-03  0.136122D-02  0.250442D-03  0.251063D-03
     35 -0.165073D-03  0.226806D-04  0.165244D-03 -0.175350D-03 -0.983138D-04
     36  0.171681D-03 -0.315562D-03 -0.738443D-03 -0.561139D-04 -0.113091D-03
               31            32            33            34            35 
     31  0.981704D-01
     32 -0.833935D-01  0.194839D+00
     33  0.757223D-01 -0.156741D+00  0.317366D+00
     34  0.491696D-03  0.247149D-03 -0.103754D-02  0.511628D+00
     35  0.616025D-04 -0.384237D-03 -0.125922D-04 -0.530332D-01  0.242941D-01
     36 -0.230071D-03  0.259969D-03  0.182206D-03 -0.505816D-01 -0.156409D-01
               36 
     36  0.341158D-01
 Red2BG is reusing G-inverse.
 Leave Link  716 at Sat May 24 06:34:34 2025, MaxMem=  3758096384 cpu:               0.1 elap:               0.0
 (Enter /apps/easybuild-2022/easybuild/software/Compiler/NVHPC/22.11-CUDA-11.7.0/Gaussian/g16c01-CUDA-11.7.0/g16/l9999.exe)

 ----------------------------------------------------------------------

 Electric dipole moment (input orientation):
 (Debye = 10**-18 statcoulomb cm , SI units = C m)
                  (au)            (Debye)         (10**-30 SI)
   Tot        0.676064D+00      0.171838D+01      0.573191D+01
   x          0.372888D+00      0.947785D+00      0.316147D+01
   y          0.297623D+00      0.756483D+00      0.252335D+01
   z         -0.478997D+00     -0.121749D+01     -0.406111D+01

 Dipole polarizability, Alpha (input orientation).
 (esu units = cm**3 , SI units = C**2 m**2 J**-1)
 Alpha(0;0):
               (au)            (10**-24 esu)      (10**-40 SI)
   iso        0.641628D+02      0.950794D+01      0.105790D+02
   aniso      0.215021D+02      0.318628D+01      0.354522D+01
   xx         0.752415D+02      0.111496D+02      0.124057D+02
   yx         0.265835D+01      0.393926D+00      0.438302D+00
   yy         0.615052D+02      0.911413D+01      0.101408D+02
   zx        -0.668180D+01     -0.990140D+00     -0.110168D+01
   zy         0.142855D+01      0.211689D+00      0.235535D+00
   zz         0.557415D+02      0.826004D+01      0.919053D+01

 ----------------------------------------------------------------------

 Dipole orientation:
     6         -0.00853794         -1.28728013         -0.40879480
     6          2.04778033          1.62152871          2.14382425
     9          3.95954568          3.26861720          2.00633562
     9          0.25633047          2.67261631          3.61873305
    16          3.07124949         -1.27788658          3.68389735
     8          1.08843010         -2.89257173          2.53505907
     8          5.64555102         -1.91903036          3.25184482
     8          2.37944646         -1.51455392          6.58494728
     9         -1.09473246         -3.45370390         -0.97092847
     9         -1.82471496          0.36397247         -0.27974935
     9          1.72928734         -0.90714047         -2.10504761
     1          3.82051116         -1.00059703          7.58814481

 Electric dipole moment (dipole orientation):
 (Debye = 10**-18 statcoulomb cm , SI units = C m)
                  (au)            (Debye)         (10**-30 SI)
   Tot        0.676064D+00      0.171838D+01      0.573191D+01
   x          0.000000D+00      0.000000D+00      0.000000D+00
   y          0.000000D+00      0.000000D+00      0.000000D+00
   z          0.676064D+00      0.171838D+01      0.573191D+01

 Dipole polarizability, Alpha (dipole orientation).
 (esu units = cm**3 , SI units = C**2 m**2 J**-1)
 Alpha(0;0):
               (au)            (10**-24 esu)      (10**-40 SI)
   iso        0.641628D+02      0.950794D+01      0.105790D+02
   aniso      0.215021D+02      0.318628D+01      0.354522D+01
   xx         0.621286D+02      0.920650D+01      0.102436D+02
   yx         0.229806D+01      0.340537D+00      0.378899D+00
   yy         0.619470D+02      0.917959D+01      0.102137D+02
   zx         0.115824D+02      0.171633D+01      0.190968D+01
   zy         0.106111D+01      0.157240D+00      0.174953D+00
   zz         0.684128D+02      0.101377D+02      0.112797D+02

 ----------------------------------------------------------------------
 Unable to Open any file for archive entry.
 1\1\GINC-SPARTAN-BM137\Freq\RM062X\def2TZVPP\C2H1F5O3S1\AKHALILOV\24-M
 ay-2025\0\\#P M062X/Def2TZVPP Symm(None) scf(xqc) pop(None) opt(NoFree
 ze,TS,CalcAll,NoEigentest,MaxCycle=999)\\Gaussian input prepared by AS
 E\\0,1\C,-0.2198401382,0.5093383048,0.450659715\C,1.6383565092,-0.4153
 236044,-0.5838387652\F,2.553626104,-1.3638621833,-0.3580061195\F,1.368
 6916581,-0.4301210541,-1.9045538834\S,2.314966485,1.2267429337,-0.1870
 866541\O,0.9957871449,1.8657615088,0.0410714609\O,3.2603445627,1.23328
 2628,0.8756255607\O,2.8429983932,2.0656295229,-1.4215505337\F,-1.01928
 20124,1.4764522181,0.8490780916\F,-0.8479426028,-0.0986986872,-0.51248
 66585\F,0.0695335339,-0.1948570903,1.5052936141\H,3.8012503625,1.94983
 35031,-1.4968018278\\Version=ES64L-G16RevC.01\HF=-1199.7654102\RMSD=9.
 943e-09\RMSF=2.031e-05\ZeroPoint=0.0486278\Thermal=0.0591942\ETot=-119
 9.706216\HTot=-1199.7052718\GTot=-1199.7542274\Dipole=0.3728875,0.2976
 231,-0.4789972\DipoleDeriv=3.0724675,-0.1228429,-0.4720237,-0.161968,2
 .0654414,0.1662613,-0.6276691,0.117955,2.0260501,0.4260262,-0.5951727,
 0.2444266,-0.2415749,1.0354311,0.0776758,0.0978337,0.3804372,1.0717447
 ,-0.6689605,0.8338445,0.0007447,0.4500824,-0.8526457,0.0366522,0.02637
 05,-0.04126,-0.2603582,-0.2390033,0.0777667,-0.0569252,-0.0101062,-0.2
 271243,-0.0873264,-0.1117385,-0.4390789,-1.1161111,2.0109037,0.4338479
 ,0.0757941,0.6443936,1.1613024,-0.5780048,0.2695517,-0.3022596,1.83984
 94,-0.9377211,-0.4997527,-0.0464825,0.3051798,-1.0032366,-0.1470161,0.
 0774798,0.0855426,-0.4229904,-0.8551242,-0.1386659,-0.3151484,-0.22843
 67,-0.5155357,0.0005714,-0.4625815,-0.1386049,-0.819867,-0.7620672,-0.
 3918338,0.3394147,-0.5988619,-0.8295082,0.3837144,0.415697,0.4316142,-
 0.9040679,-0.8146363,0.208319,0.2248619,0.3804143,-0.536514,-0.1770345
 ,0.2650134,-0.1078244,-0.3651013,-1.112055,-0.0279714,0.0221829,-0.373
 7079,-0.2767967,-0.1035262,-0.3634121,-0.1578142,-0.4552724,-0.5468785
 ,0.100782,0.105308,-0.2028323,-0.335291,0.4010364,0.4771168,0.1624874,
 -0.9333662,0.4270487,0.1216792,-0.1221531,0.0374179,0.3144773,0.026996
 6,-0.0636616,0.0088056,0.3394903\Polar=75.2415491,2.658346,61.5052307,
 -6.6817951,1.4285461,55.7415153\PG=Unknown\NImag=1\\0.32689344,-0.0732
 3508,0.44835271,0.15387503,0.01237655,0.60318957,0.00092402,-0.0012304
 4,-0.00429886,0.30398729,-0.01736285,0.01442495,0.00583832,-0.14376607
 ,0.34719594,0.02037345,-0.00932387,-0.01462791,0.02807817,0.03848192,0
 .41722381,0.02442654,-0.01356858,-0.01913329,-0.18064128,0.14871646,-0
 .01764711,0.17954126,-0.01193034,-0.00217168,0.01036784,0.13671551,-0.
 19086957,0.01403600,-0.17302607,0.24334449,-0.00807447,0.00539619,0.00
 438211,-0.01365660,-0.00659412,-0.05831638,0.05841025,-0.04573277,0.07
 772025,0.00123309,-0.00640884,0.00071308,-0.04454355,0.02018600,-0.021
 13528,-0.01549676,0.01114651,-0.04766977,0.06925735,0.00158875,-0.0037
 0444,-0.00213698,-0.00107913,-0.06048418,-0.02974110,0.01475467,-0.001
 13804,0.04450943,-0.01184725,0.06245577,-0.02849888,0.01097185,-0.0040
 3124,-0.03657113,-0.03355860,-0.29532120,-0.03003335,0.02949129,-0.025
 35645,0.09001300,0.01838677,0.35641061,-0.06281081,-0.09604674,0.00835
 813,-0.02517285,-0.00430288,-0.01617196,-0.02052993,0.03793670,0.00887
 287,-0.01597222,-0.00657490,0.00186684,0.88920985,-0.01014829,0.100720
 75,0.01704368,-0.00067725,-0.11310989,-0.02350935,0.01480542,-0.036857
 58,0.00728158,-0.01427416,0.00614857,-0.00665096,-0.01293485,0.4547793
 5,0.00725387,0.03435745,0.01784206,0.01524668,-0.02847797,-0.02925943,
 -0.00417586,0.00610682,-0.00263680,-0.02430066,-0.02903126,-0.04163815
 ,0.21925691,-0.05073122,0.76117153,0.02288373,0.10914712,-0.00712108,-
 0.02150016,-0.02200812,0.02277878,0.02368563,-0.00002765,-0.00455272,0
 .00712996,0.00729448,-0.01309004,-0.29033856,0.06906148,0.00495410,0.3
 7587389,0.01618871,-0.01758081,-0.00377550,0.01554062,-0.03997844,0.01
 271588,0.01584948,-0.01509342,-0.00816682,0.00230810,0.00016407,-0.019
 21726,0.18942907,-0.21026968,-0.03930113,-0.21056876,0.22209755,-0.012
 20303,-0.02562344,-0.02640782,0.01781290,0.00391206,0.00490833,-0.0038
 5714,-0.00653218,0.00137287,-0.00185408,0.00043673,0.00703527,0.029914
 28,-0.01962845,-0.07306239,-0.06478671,0.04048722,0.08046328,0.0093251
 7,0.01340383,-0.00332830,0.00325377,0.01853549,-0.00585431,0.00797160,
 -0.00748130,0.00105527,-0.00355091,-0.00477848,-0.00583211,-0.35183642
 ,-0.02400675,-0.30153775,-0.02987492,-0.00037179,-0.02527372,0.3532363
 2,0.00301309,-0.01724887,-0.00202981,0.00030307,0.02069745,-0.00906395
 ,-0.00295813,0.00231014,-0.00000939,-0.00601492,-0.00594827,-0.0057859
 4,-0.03318977,-0.08641311,-0.01353316,0.03005619,0.02505346,0.01053488
 ,0.00269056,0.05476312,0.00644711,-0.00902304,-0.00942089,-0.00811837,
 0.02560124,0.00302321,0.00862641,-0.00328979,0.00239016,-0.00435323,-0
 .00209922,-0.00443496,-0.32263760,-0.00814658,-0.42275977,0.01457560,0
 .00439104,0.00902883,0.33492804,-0.00471390,0.43461239,0.01263345,0.01
 566623,-0.00008760,-0.00226632,0.00262754,0.00947659,0.00497015,-0.006
 33920,0.00055951,0.00258180,0.00198125,-0.00356820,-0.10144106,-0.0466
 7362,0.05513443,-0.03833551,-0.02787630,0.03530179,0.01467591,0.010953
 97,-0.01520400,0.61681850,0.00948037,-0.02706547,-0.00924934,-0.016988
 87,0.01763794,0.02122017,0.00603997,-0.00451649,0.00220327,0.00347269,
 0.00412043,-0.00520333,-0.05278298,-0.11556984,0.10631755,0.03152416,0
 .01875026,-0.01126694,0.00244689,0.00775634,-0.00019898,-0.02198355,0.
 12002590,-0.00944316,-0.00213453,0.00126661,0.00319178,-0.00958171,-0.
 01149135,-0.00421003,0.00324857,0.00044417,0.00000016,-0.00056743,0.01
 219823,0.02974350,0.09070405,-0.18411045,0.01535245,0.00956525,-0.0046
 9650,0.00852976,0.02445271,-0.02244667,-0.09822682,-0.12293971,0.23348
 874,-0.14405911,0.12397113,0.03459480,0.00064030,-0.00282125,-0.002600
 56,-0.00117384,0.00202567,0.00038404,0.00022836,0.00064877,0.00248553,
 0.01593864,-0.01682997,-0.00053623,-0.07888349,-0.00118506,0.02983722,
 -0.00348414,0.00162064,-0.00067849,-0.00813955,0.00134805,0.00280160,0
 .21619953,0.08583972,-0.19648922,-0.04296035,-0.00094617,-0.00073371,0
 .00130592,0.00163313,-0.00035199,-0.00050792,0.00117592,0.00028614,-0.
 00161735,-0.00012004,-0.00558889,-0.00136579,-0.01259949,0.00698619,0.
 00510067,-0.00047112,0.00183586,0.00083615,0.00009367,0.00277872,-0.00
 031143,-0.15129265,0.30501211,0.03135646,-0.05933958,-0.10071828,-0.00
 042693,0.00163859,0.00078534,0.00121442,-0.00143815,-0.00012021,0.0000
 0814,-0.00018333,0.00048896,-0.00453034,0.00629547,0.00023013,0.034482
 67,0.00008805,-0.00263336,0.00184195,-0.00085354,0.00089573,0.00234459
 ,-0.00013831,-0.00087484,-0.05545741,0.07989591,0.12923694,-0.11650237
 ,-0.08805218,-0.12828469,-0.03772642,0.00155065,-0.02659437,-0.0162646
 5,0.00781119,0.00481087,0.00285343,-0.00134962,0.01202329,-0.01668766,
 0.03267088,0.01424620,0.01819704,0.00284858,-0.00565462,0.00098290,-0.
 00585916,-0.00544150,-0.00143819,-0.01242745,0.00259761,0.01816298,0.0
 1917133,0.01631646,0.15170845,-0.04877747,-0.13983740,-0.09900057,0.00
 564236,0.00290503,-0.00958052,-0.00528786,0.00257548,0.00053952,0.0008
 7425,-0.00110528,0.00855304,-0.00082322,0.00523901,0.00150345,-0.00085
 830,0.00549691,-0.00236993,-0.00016703,-0.00104425,-0.00022514,-0.0008
 4106,-0.00122787,0.00015730,-0.00243152,-0.05409787,-0.06704258,0.0476
 9617,0.16555471,-0.08095342,-0.09478299,-0.22397386,-0.00451279,-0.001
 22500,-0.00757870,-0.00315960,0.00140080,0.00126581,0.00420306,-0.0002
 7651,0.00918320,-0.00383523,0.00660405,0.00079899,0.00301045,0.0022773
 0,0.00289507,0.00030341,-0.00133867,-0.00022423,-0.00082883,-0.0022071
 2,0.00105051,0.00015714,-0.06154557,-0.03477229,0.12415477,0.15611256,
 0.29718601,-0.07276441,0.01515980,-0.03683838,0.00093552,0.00105552,0.
 01107043,-0.00513456,0.00219990,-0.00004976,-0.00347461,-0.00063380,0.
 01049248,-0.00515606,0.01100332,0.00528949,0.00872355,-0.00065142,0.00
 153717,-0.00019156,-0.00265228,-0.00270151,-0.00099148,-0.00475989,0.0
 0132736,-0.01596170,0.05788749,-0.02682953,-0.00464674,0.00472323,-0.0
 3879001,0.09817035,0.04572816,-0.16097942,0.11256626,0.00623226,0.0018
 0862,-0.00771910,-0.00741079,0.00390244,0.00110585,-0.00088447,-0.0007
 1576,0.00502688,0.00222732,0.00294372,0.00764193,-0.00023981,0.0047932
 7,0.00418739,-0.00092054,-0.00090240,-0.00251305,-0.00274232,-0.001549
 78,0.00005109,0.04538218,-0.05947227,0.04105478,-0.00422565,0.01571688
 ,-0.00492055,-0.08339349,0.19483894,-0.07999318,0.14025977,-0.24683432
 ,0.00368749,0.00235866,-0.01000442,0.01402565,-0.00767908,-0.00106393,
 0.00454679,0.00132426,-0.01346110,0.01114751,-0.02164649,-0.02044509,-
 0.01173119,-0.00417729,0.00488604,0.00084348,0.00448528,0.00835150,0.0
 0233058,0.00942189,-0.00105671,-0.01210634,0.02099808,0.00779745,-0.00
 743559,0.01140896,-0.04571742,0.07572234,-0.15674144,0.31736579,-0.002
 18274,0.00119373,0.00155117,0.00210967,-0.00241051,-0.00177383,-0.0013
 5417,0.00096908,-0.00008950,-0.00024593,-0.00000474,0.00071257,-0.0152
 0294,-0.00199623,0.00916882,0.00243884,-0.00151122,-0.00077405,-0.0005
 0771,0.00203674,-0.00544246,-0.49906771,0.05463060,0.04833580,0.000532
 02,-0.00037180,-0.00032047,0.00136122,0.00025044,0.00025106,0.00049170
 ,0.00024715,-0.00103754,0.51162775,-0.00038477,0.00157890,0.00095990,0
 .00025411,0.00050586,0.00117799,0.00045229,-0.00113378,-0.00002483,0.0
 0026616,-0.00007901,-0.00039638,-0.02281771,-0.00202241,0.00651332,-0.
 00078131,-0.00041937,0.00076197,0.00112024,-0.00085946,-0.00061873,0.0
 7513337,-0.02114013,0.00735586,-0.00043598,-0.00016507,0.00002268,0.00
 016524,-0.00017535,-0.00009831,0.00006160,-0.00038424,-0.00001259,-0.0
 5303325,0.02429405,-0.00013979,-0.00313437,-0.00066602,-0.00043233,0.0
 0160661,0.00065869,-0.00006036,0.00002065,-0.00008161,-0.00017120,-0.0
 0062135,-0.00107318,0.03801510,0.00238421,-0.00613064,0.00612769,0.005
 11325,-0.00378961,-0.00567571,-0.00214453,0.00098470,0.01276796,0.0120
 4086,-0.02377174,0.00111871,0.00017168,-0.00031556,-0.00073844,-0.0000
 5611,-0.00011309,-0.00023007,0.00025997,0.00018221,-0.05058157,-0.0156
 4087,0.03411585\\0.00002288,0.00004181,0.00006690,-0.00001345,-0.00002
 762,0.00000205,0.00000732,-0.00000078,-0.00001067,-0.00000261,0.000011
 28,-0.00001196,0.00001629,-0.00000014,0.00000915,-0.00001647,-0.000012
 31,0.00000165,0.00000006,-0.00000719,-0.00000090,-0.00000134,0.0000029
 3,0.00000703,-0.00001798,0.00000141,0.00000024,-0.00002604,-0.00000853
 ,-0.00006120,0.00003032,-0.00000349,-0.00000660,0.00000102,0.00000264,
 0.00000432\\\@
 The archive entry for this job was punched.


 IF YOU BELIEVE CERTAIN WORDS, YOU BELIEVE THEIR HIDDEN ARGUMENTS.
 WHEN YOU BELIEVE SOMETHING IS RIGHT OR WRONG, TRUE OR FALSE, 
 YOU BELIEVE THE ASSUMPTIONS IN THE WORDS WHICH EXPRESS THE ARGUMENTS.
 SUCH ASSUMPTIONS ARE OFTEN FULL OF HOLES, BUT REMAIN MOST PRECIOUS 
 TO THE CONVINCED.

                 -- THE OPEN-ENDED PROOF FROM THE PANOPLIA PROPHETICA
                    CHILDREN OF DUNE BY FRANK HERBERT
 Job cpu time:       0 days 10 hours 29 minutes  6.4 seconds.
 Elapsed time:       0 days  1 hours 25 minutes  1.6 seconds.
 File lengths (MBytes):  RWF=    173 Int=      0 D2E=      0 Chk=     11 Scr=      1
 Normal termination of Gaussian 16 at Sat May 24 06:34:34 2025.
done
