 Entering Gaussian System, Link 0=g16
 Initial command:
 /apps/easybuild-2022/easybuild/software/Compiler/NVHPC/22.11-CUDA-11.7.0/Gaussian/g16c01-CUDA-11.7.0/g16/l1.exe "/tmp/Gau-17489.inp" -scrdir="/tmp/"
 Entering Link 1 = /apps/easybuild-2022/easybuild/software/Compiler/NVHPC/22.11-CUDA-11.7.0/Gaussian/g16c01-CUDA-11.7.0/g16/l1.exe PID=     17490.
  
 Copyright (c) 1988-2019, Gaussian, Inc.  All Rights Reserved.
  
 This is part of the Gaussian(R) 16 program.  It is based on
 the Gaussian(R) 09 system (copyright 2009, Gaussian, Inc.),
 the Gaussian(R) 03 system (copyright 2003, Gaussian, Inc.),
 the Gaussian(R) 98 system (copyright 1998, Gaussian, Inc.),
 the Gaussian(R) 94 system (copyright 1995, Gaussian, Inc.),
 the Gaussian 92(TM) system (copyright 1992, Gaussian, Inc.),
 the Gaussian 90(TM) system (copyright 1990, Gaussian, Inc.),
 the Gaussian 88(TM) system (copyright 1988, Gaussian, Inc.),
 the Gaussian 86(TM) system (copyright 1986, Carnegie Mellon
 University), and the Gaussian 82(TM) system (copyright 1983,
 Carnegie Mellon University). Gaussian is a federally registered
 trademark of Gaussian, Inc.
  
 This software contains proprietary and confidential information,
 including trade secrets, belonging to Gaussian, Inc.
  
 This software is provided under written license and may be
 used, copied, transmitted, or stored only in accord with that
 written license.
  
 The following legend is applicable only to US Government
 contracts under FAR:
  
                    RESTRICTED RIGHTS LEGEND
  
 Use, reproduction and disclosure by the US Government is
 subject to restrictions as set forth in subparagraphs (a)
 and (c) of the Commercial Computer Software - Restricted
 Rights clause in FAR 52.227-19.
  
 Gaussian, Inc.
 340 Quinnipiac St., Bldg. 40, Wallingford CT 06492
  
  
 ---------------------------------------------------------------
 Warning -- This program may not be used in any manner that
 competes with the business of Gaussian, Inc. or will provide
 assistance to any competitor of Gaussian, Inc.  The licensee
 of this program is prohibited from giving any competitor of
 Gaussian, Inc. access to this program.  By using this program,
 the user acknowledges that Gaussian, Inc. is engaged in the
 business of creating and licensing software in the field of
 computational chemistry and represents and warrants to the
 licensee that it is not a competitor of Gaussian, Inc. and that
 it will not use this program in any manner prohibited above.
 ---------------------------------------------------------------
  

 Cite this work as:
 Gaussian 16, Revision C.01,
 M. J. Frisch, G. W. Trucks, H. B. Schlegel, G. E. Scuseria, 
 M. A. Robb, J. R. Cheeseman, G. Scalmani, V. Barone, 
 G. A. Petersson, H. Nakatsuji, X. Li, M. Caricato, A. V. Marenich, 
 J. Bloino, B. G. Janesko, R. Gomperts, B. Mennucci, H. P. Hratchian, 
 J. V. Ortiz, A. F. Izmaylov, J. L. Sonnenberg, D. Williams-Young, 
 F. Ding, F. Lipparini, F. Egidi, J. Goings, B. Peng, A. Petrone, 
 T. Henderson, D. Ranasinghe, V. G. Zakrzewski, J. Gao, N. Rega, 
 G. Zheng, W. Liang, M. Hada, M. Ehara, K. Toyota, R. Fukuda, 
 J. Hasegawa, M. Ishida, T. Nakajima, Y. Honda, O. Kitao, H. Nakai, 
 T. Vreven, K. Throssell, J. A. Montgomery, Jr., J. E. Peralta, 
 F. Ogliaro, M. J. Bearpark, J. J. Heyd, E. N. Brothers, K. N. Kudin, 
 V. N. Staroverov, T. A. Keith, R. Kobayashi, J. Normand, 
 K. Raghavachari, A. P. Rendell, J. C. Burant, S. S. Iyengar, 
 J. Tomasi, M. Cossi, J. M. Millam, M. Klene, C. Adamo, R. Cammi, 
 J. W. Ochterski, R. L. Martin, K. Morokuma, O. Farkas, 
 J. B. Foresman, and D. J. Fox, Gaussian, Inc., Wallingford CT, 2019.
 
 ******************************************
 Gaussian 16:  ES64L-G16RevC.01  3-Jul-2019
                24-May-2025 
 ******************************************
 %mem=28GB
 %chk=2003846667223680600001_r12_insertion_R_3_2_5_IRC_R
 %nprocshared=8
 Will use up to    8 processors via shared memory.
 ----------------------------------------------------------------------
 #P M062X/Def2TZVPP Symm(None) scf(xqc) pop(None) geom(AllCheck,NoKeepC
 onstants) guess(Read) irc(RCFC,reverse,MaxPoints=100,StepSize=2)
 ----------------------------------------------------------------------
 1/10=5,18=10,22=2,26=3,29=20007,38=1,39=2,42=100,44=3,172=1/1,23;
 2/12=2,15=3,29=1,40=1/2;
 3/5=44,7=202,11=2,14=-4,25=1,30=1,71=2,74=-55,116=-2,140=1/1,2,3;
 4/5=1/1;
 5/5=2,8=3,13=1,38=6/2,8;
 8/6=4,10=90,11=11/1;
 11/6=1,8=1,9=11,15=111,16=1,31=1/1,2,10;
 10/6=1,13=1,31=1/2;
 7/10=1,25=1,30=1/1,2,3,16;
 1/18=10,22=2,26=3,39=2,42=100,44=3/23(2);
 2/15=3,29=1/2;
 99/5=20/99;
 2/15=3,29=1/2;
 3/5=44,7=202,11=2,14=-2,25=1,30=1,71=2,74=-55,140=1/1,2,3;
 4/5=5,16=3,69=1/1;
 5/5=2,8=3,13=1,38=5/2,8;
 8/6=4,10=90,11=11/1;
 11/6=1,8=1,9=11,15=111,16=1,31=1/1,2,10;
 10/6=1,13=1,31=1/2;
 7/10=1,25=1,30=1/1,2,3,16;
 1/18=10,22=2,26=3,39=2,42=100,44=3/23(-8);
 2/15=3,29=1/2;
 99/5=20,9=1/99;
 Leave Link    1 at Sat May 24 03:42:20 2025, MaxMem=  3758096384 cpu:               0.1 elap:               0.1
 (Enter /apps/easybuild-2022/easybuild/software/Compiler/NVHPC/22.11-CUDA-11.7.0/Gaussian/g16c01-CUDA-11.7.0/g16/l101.exe)
 Structure from the checkpoint file:  "2003846667223680600001_r12_insertion_R_3_2_5_IRC_R.chk"
 ------------------------------
 Gaussian input prepared by ASE
 ------------------------------
 Charge =  0 Multiplicity = 1
 Redundant internal coordinates found in file.  (old form).
 C,0,-0.8588505203,-1.475747932,0.1687824864
 C,0,0.1507436654,-0.519746941,0.8285191827
 F,0,0.3722479603,0.5979870241,-0.5700865298
 F,0,-0.4797422996,0.2135212267,1.678902281
 S,0,1.9941972423,0.229722594,0.0026461886
 O,0,2.2470258618,0.9483391012,1.2009619387
 O,0,2.4352416393,-1.043564172,-0.4136818481
 O,0,2.5451051512,1.165648123,-1.1481791041
 F,0,-0.3534608457,-2.0264462985,-0.9170648931
 F,0,-1.1148464651,-2.4262403519,1.0656953119
 F,0,-1.9987373849,-0.8706035794,-0.1450933598
 H,0,2.5090179953,2.0867172059,-0.8572076544
 Recover connectivity data from disk.
 ITRead=  0  0  0  0  0  0  0  0  0  0  0  0
 MicOpt= -1 -1 -1 -1 -1 -1 -1 -1 -1 -1 -1 -1
 NAtoms=     12 NQM=       12 NQMF=       0 NMMI=      0 NMMIF=      0
                NMic=       0 NMicF=      0.
                    Isotopes and Nuclear Properties:
 (Nuclear quadrupole moments (NQMom) in fm**2, nuclear magnetic moments (NMagM)
  in nuclear magnetons)

  Atom         1           2           3           4           5           6           7           8           9          10
 IAtWgt=          12          12          19          19          32          16          16          16          19          19
 AtmWgt=  12.0000000  12.0000000  18.9984032  18.9984032  31.9720718  15.9949146  15.9949146  15.9949146  18.9984032  18.9984032
 NucSpn=           0           0           1           1           0           0           0           0           1           1
 AtZEff=   3.6000000   3.6000000   6.7500000   6.7500000  13.6000000   5.6000000   5.6000000   5.6000000   6.7500000   6.7500000
 NQMom=    0.0000000   0.0000000   0.0000000   0.0000000   0.0000000   0.0000000   0.0000000   0.0000000   0.0000000   0.0000000
 NMagM=    0.0000000   0.0000000   2.6288670   2.6288670   0.0000000   0.0000000   0.0000000   0.0000000   2.6288670   2.6288670
 AtZNuc=   6.0000000   6.0000000   9.0000000   9.0000000  16.0000000   8.0000000   8.0000000   8.0000000   9.0000000   9.0000000

  Atom        11          12
 IAtWgt=          19           1
 AtmWgt=  18.9984032   1.0078250
 NucSpn=           1           1
 AtZEff=   6.7500000   1.0000000
 NQMom=    0.0000000   0.0000000
 NMagM=    2.6288670   2.7928460
 AtZNuc=   9.0000000   1.0000000
 Leave Link  101 at Sat May 24 03:42:20 2025, MaxMem=  3758096384 cpu:               0.2 elap:               0.2
 (Enter /apps/easybuild-2022/easybuild/software/Compiler/NVHPC/22.11-CUDA-11.7.0/Gaussian/g16c01-CUDA-11.7.0/g16/l123.exe)
 IRC-IRC-IRC-IRC-IRC-IRC-IRC-IRC-IRC-IRC-IRC-IRC-IRC-IRC-IRC-IRC-IRC-IRC
 ------------------------------------------------------------------------
 INPUT DATA FOR L123
 ------------------------------------------------------------------------
 GENERAL PARAMETERS:
 Rxn path following direction = Reverse
 Maximum points per path      = 100
 Step size                    =   0.020 bohr
 Integration scheme           = HPC                                 
    Redo corrector integration= Yes                                 
    DWI Weight Power          =  2
    DWI will use Hessian update vectors when possible.
    Max correction cycles     =  20
 Initial Hessian              = ReadFC from chk
 Hessian evaluation           = All updating
 Hessian updating method      = Bofill                              
 ------------------------------------------------------------------------
          ******** Start new reaction path calculation ********
 RCFC Option Requested - Data Read From Chk File:
 "2003846667223680600001_r12_insertion_R_3_2_5_IRC_R.chk"
   Energy From Chk =  -1199.7918177

 Current Structure is TS -> form Hessian eigenvectors.
                            Recovering Hessian eigenvectors from chk file.
 Supplied step size of   0.0200 bohr.
    Integration on MW PES will use step size of   0.0771 sqrt(amu)*bohr.
 Point Number:   0          Path Number:   1
 Calculating another point on the path.
 Point Number  1 in REVERSE path direction.
 Using LQA Reaction Path Following.
 IRC-IRC-IRC-IRC-IRC-IRC-IRC-IRC-IRC-IRC-IRC-IRC-IRC-IRC-IRC-IRC-IRC-IRC
 Leave Link  123 at Sat May 24 03:42:20 2025, MaxMem=  3758096384 cpu:               0.1 elap:               0.0
 (Enter /apps/easybuild-2022/easybuild/software/Compiler/NVHPC/22.11-CUDA-11.7.0/Gaussian/g16c01-CUDA-11.7.0/g16/l202.exe)
                          Input orientation:                          
 ---------------------------------------------------------------------
 Center     Atomic      Atomic             Coordinates (Angstroms)
 Number     Number       Type             X           Y           Z
 ---------------------------------------------------------------------
      1          6           0       -1.387523   -1.060540    0.036717
      2          6           0       -0.378038   -0.108555    0.701296
      3          9           0       -0.150471    1.013441   -0.703275
      4          9           0       -1.009317    0.628618    1.546925
      5         16           0        1.467002    0.647050   -0.132202
      6          8           0        1.718535    1.363714    1.067411
      7          8           0        1.906648   -0.627256   -0.546447
      8          8           0        2.019813    1.582164   -1.281816
      9          9           0       -0.881074   -1.610406   -1.049214
     10          9           0       -1.643658   -2.011886    0.932890
     11          9           0       -2.526902   -0.455103   -0.277851
     12          1           0        1.983975    2.503334   -0.991179
 ---------------------------------------------------------------------
                    Distance matrix (angstroms):
                    1          2          3          4          5
     1  C    0.000000
     2  C    1.538506   0.000000
     3  F    2.525724   1.812038   0.000000
     4  F    2.297177   1.287255   2.439079   0.000000
     5  S    3.330572   2.160979   1.754021   2.991983   0.000000
     6  O    4.072706   2.587902   2.598309   2.865567   1.419841
     7  O    3.373333   2.654374   2.635948   3.802930   1.410228
     8  O    4.509140   3.541320   2.316957   4.252840   1.581660
     9  F    1.318366   2.360697   2.745547   3.430687   3.383856
    10  F    1.331837   2.297411   3.749566   2.784185   4.228542
    11  F    1.328041   2.386722   2.825779   2.609085   4.145748
    12  H    5.012461   3.907114   2.618880   4.349291   2.109714
                    6          7          8          9         10
     6  O    0.000000
     7  O    2.569804   0.000000
     8  O    2.378520   2.331332   0.000000
     9  F    4.481458   2.998458   4.319925   0.000000
    10  F    4.766247   4.087824   5.589555   2.161355   0.000000
    11  F    4.810568   4.445013   5.082422   2.153712   2.160923
    12  H    2.367908   3.162967   0.966596   5.013455   6.103194
                   11         12
    11  F    0.000000
    12  H    5.441433   0.000000
 Symmetry turned off by external request.
 Stoichiometry    C2HF5O3S
 Rotational constants (GHZ):           1.8671560           0.6957810           0.6414160
 Leave Link  202 at Sat May 24 03:42:20 2025, MaxMem=  3758096384 cpu:               0.1 elap:               0.0
 (Enter /apps/easybuild-2022/easybuild/software/Compiler/NVHPC/22.11-CUDA-11.7.0/Gaussian/g16c01-CUDA-11.7.0/g16/l301.exe)
 Standard basis: def2TZVPP (5D, 7F)
 Ernie: Thresh=  0.10000D-02 Tol=  0.10000D-05 Strict=F.
   366 basis functions,   596 primitive gaussians,   423 cartesian basis functions
    49 alpha electrons       49 beta electrons
       nuclear repulsion energy       906.4666901811 Hartrees.
 IExCor= 4336 DFT=T Ex+Corr=M062X ExCW=0 ScaHFX=  0.540000
 ScaDFX=  1.000000  1.000000  1.000000  1.000000 ScalE2=  1.000000  1.000000
 IRadAn=      5 IRanWt=     -1 IRanGd=            0 ICorTp=0 IEmpDi=  4
 NAtoms=   12 NActive=   12 NUniq=   12 SFac= 1.00D+00 NAtFMM=   60 NAOKFM=F Big=F
 Integral buffers will be    131072 words long.
 Raffenetti 2 integral format.
 Two-electron integral symmetry is turned off.
 Leave Link  301 at Sat May 24 03:42:20 2025, MaxMem=  3758096384 cpu:               0.1 elap:               0.1
 (Enter /apps/easybuild-2022/easybuild/software/Compiler/NVHPC/22.11-CUDA-11.7.0/Gaussian/g16c01-CUDA-11.7.0/g16/l302.exe)
 NPDir=0 NMtPBC=     1 NCelOv=     1 NCel=       1 NClECP=     1 NCelD=      1
         NCelK=      1 NCelE2=     1 NClLst=     1 CellRange=     0.0.
 One-electron integrals computed using PRISM.
   1 Symmetry operations used in ECPInt.
 ECPInt:  NShTT=    8515 NPrTT=   27988 LenC2=    7880 LenP2D=   19068.
 LDataN:  DoStor=T MaxTD1= 6 Len=  172
 NBasis=   366 RedAO= T EigKep=  5.95D-04  NBF=   366
 NBsUse=   366 1.00D-06 EigRej= -1.00D+00 NBFU=   366
 Precomputing XC quadrature grid using
 IXCGrd= 4 IRadAn=           5 IRanWt=          -1 IRanGd=           0 AccXCQ= 0.00D+00.
 Generated NRdTot=       0 NPtTot=           0 NUsed=           0 NTot=          32
 NSgBfM=   420   419   420   420   420 MxSgAt=    12 MxSgA2=    12.
 Leave Link  302 at Sat May 24 03:42:21 2025, MaxMem=  3758096384 cpu:               1.0 elap:               0.3
 (Enter /apps/easybuild-2022/easybuild/software/Compiler/NVHPC/22.11-CUDA-11.7.0/Gaussian/g16c01-CUDA-11.7.0/g16/l303.exe)
 DipDrv:  MaxL=1.
 Leave Link  303 at Sat May 24 03:42:21 2025, MaxMem=  3758096384 cpu:               0.1 elap:               0.1
 (Enter /apps/easybuild-2022/easybuild/software/Compiler/NVHPC/22.11-CUDA-11.7.0/Gaussian/g16c01-CUDA-11.7.0/g16/l401.exe)
 Initial guess from the checkpoint file:  "2003846667223680600001_r12_insertion_R_3_2_5_IRC_R.chk"
 B after Tr=    -0.996849    0.785312   -0.250918
         Rot=    1.000000    0.000002   -0.000004   -0.000000 Ang=   0.00 deg.
 Guess basis will be translated and rotated to current coordinates.
 JPrj=2 DoOrth=T DoCkMO=T.
 Leave Link  401 at Sat May 24 03:42:21 2025, MaxMem=  3758096384 cpu:               0.6 elap:               0.3
 (Enter /apps/easybuild-2022/easybuild/software/Compiler/NVHPC/22.11-CUDA-11.7.0/Gaussian/g16c01-CUDA-11.7.0/g16/l502.exe)
 Keep R1 ints in memory in canonical form, NReq=2293446996.
 FoFCou: FMM=F IPFlag=           0 FMFlag=           0 FMFlg1=           0
         NFxFlg=           0 DoJE=F BraDBF=F KetDBF=F FulRan=T
         wScrn=  0.000000 ICntrl=       600 IOpCl=  0 I1Cent=           0 NGrid=           0
         NMat0=    1 NMatS0=  67161 NMatT0=    0 NMatD0=    1 NMtDS0=    0 NMtDT0=    0
 Symmetry not used in FoFCou.
 Two-electron integral symmetry not used.
 Closed shell SCF:
 Using DIIS extrapolation, IDIIS=  1040.
 NGot=  3758096384 LenX=  1502398672 LenY=  1502219302
 Requested convergence on RMS density matrix=1.00D-08 within  32 cycles.
 Requested convergence on MAX density matrix=1.00D-06.
 Requested convergence on             energy=1.00D-06.
 No special actions if energy rises.

 Cycle   1  Pass 1  IDiag  1:
 E= -1199.79176118153    
 DIIS: error= 1.99D-04 at cycle   1 NSaved=   1.
 NSaved= 1 IEnMin= 1 EnMin= -1199.79176118153     IErMin= 1 ErrMin= 1.99D-04
 ErrMax= 1.99D-04  0.00D+00 EMaxC= 1.00D-01 BMatC= 3.89D-05 BMatP= 3.89D-05
 IDIUse=3 WtCom= 9.98D-01 WtEn= 1.99D-03
 Coeff-Com:  0.100D+01
 Coeff-En:   0.100D+01
 Coeff:      0.100D+01
 Gap=     0.297 Goal=   None    Shift=    0.000
 RMSDP=2.38D-05 MaxDP=9.00D-04              OVMax= 3.37D-03

 Cycle   2  Pass 1  IDiag  1:
 E= -1199.79182587075     Delta-E=       -0.000064689224 Rises=F Damp=F
 DIIS: error= 4.50D-05 at cycle   2 NSaved=   2.
 NSaved= 2 IEnMin= 2 EnMin= -1199.79182587075     IErMin= 2 ErrMin= 4.50D-05
 ErrMax= 4.50D-05  0.00D+00 EMaxC= 1.00D-01 BMatC= 2.70D-06 BMatP= 3.89D-05
 IDIUse=1 WtCom= 1.00D+00 WtEn= 0.00D+00
 Coeff-Com: -0.757D-01 0.108D+01
 Coeff:     -0.757D-01 0.108D+01
 Gap=     0.292 Goal=   None    Shift=    0.000
 RMSDP=9.12D-06 MaxDP=3.05D-04 DE=-6.47D-05 OVMax= 1.55D-03

 Cycle   3  Pass 1  IDiag  1:
 E= -1199.79183125769     Delta-E=       -0.000005386934 Rises=F Damp=F
 DIIS: error= 4.66D-05 at cycle   3 NSaved=   3.
 NSaved= 3 IEnMin= 3 EnMin= -1199.79183125769     IErMin= 2 ErrMin= 4.50D-05
 ErrMax= 4.66D-05  0.00D+00 EMaxC= 1.00D-01 BMatC= 2.25D-06 BMatP= 2.70D-06
 IDIUse=1 WtCom= 1.00D+00 WtEn= 0.00D+00
 Coeff-Com: -0.926D-01 0.546D+00 0.546D+00
 Coeff:     -0.926D-01 0.546D+00 0.546D+00
 Gap=     0.292 Goal=   None    Shift=    0.000
 RMSDP=2.75D-06 MaxDP=1.66D-04 DE=-5.39D-06 OVMax= 3.00D-04

 Cycle   4  Pass 1  IDiag  1:
 E= -1199.79183295146     Delta-E=       -0.000001693775 Rises=F Damp=F
 DIIS: error= 1.68D-05 at cycle   4 NSaved=   4.
 NSaved= 4 IEnMin= 4 EnMin= -1199.79183295146     IErMin= 4 ErrMin= 1.68D-05
 ErrMax= 1.68D-05  0.00D+00 EMaxC= 1.00D-01 BMatC= 1.82D-07 BMatP= 2.25D-06
 IDIUse=1 WtCom= 1.00D+00 WtEn= 0.00D+00
 Coeff-Com: -0.667D-02-0.798D-01 0.159D+00 0.927D+00
 Coeff:     -0.667D-02-0.798D-01 0.159D+00 0.927D+00
 Gap=     0.292 Goal=   None    Shift=    0.000
 RMSDP=2.19D-06 MaxDP=8.52D-05 DE=-1.69D-06 OVMax= 3.84D-04

 Cycle   5  Pass 1  IDiag  1:
 E= -1199.79183325765     Delta-E=       -0.000000306186 Rises=F Damp=F
 DIIS: error= 7.29D-06 at cycle   5 NSaved=   5.
 NSaved= 5 IEnMin= 5 EnMin= -1199.79183325765     IErMin= 5 ErrMin= 7.29D-06
 ErrMax= 7.29D-06  0.00D+00 EMaxC= 1.00D-01 BMatC= 3.96D-08 BMatP= 1.82D-07
 IDIUse=1 WtCom= 1.00D+00 WtEn= 0.00D+00
 Coeff-Com:  0.770D-02-0.101D+00 0.342D-02 0.413D+00 0.677D+00
 Coeff:      0.770D-02-0.101D+00 0.342D-02 0.413D+00 0.677D+00
 Gap=     0.292 Goal=   None    Shift=    0.000
 RMSDP=6.79D-07 MaxDP=2.94D-05 DE=-3.06D-07 OVMax= 1.02D-04

 Cycle   6  Pass 1  IDiag  1:
 E= -1199.79183330220     Delta-E=       -0.000000044548 Rises=F Damp=F
 DIIS: error= 2.51D-06 at cycle   6 NSaved=   6.
 NSaved= 6 IEnMin= 6 EnMin= -1199.79183330220     IErMin= 6 ErrMin= 2.51D-06
 ErrMax= 2.51D-06  0.00D+00 EMaxC= 1.00D-01 BMatC= 7.54D-09 BMatP= 3.96D-08
 IDIUse=1 WtCom= 1.00D+00 WtEn= 0.00D+00
 Coeff-Com:  0.504D-02-0.271D-01-0.360D-01-0.245D-01 0.320D+00 0.763D+00
 Coeff:      0.504D-02-0.271D-01-0.360D-01-0.245D-01 0.320D+00 0.763D+00
 Gap=     0.292 Goal=   None    Shift=    0.000
 RMSDP=3.35D-07 MaxDP=1.29D-05 DE=-4.45D-08 OVMax= 5.27D-05

 Cycle   7  Pass 1  IDiag  1:
 E= -1199.79183331068     Delta-E=       -0.000000008486 Rises=F Damp=F
 DIIS: error= 4.92D-07 at cycle   7 NSaved=   7.
 NSaved= 7 IEnMin= 7 EnMin= -1199.79183331068     IErMin= 7 ErrMin= 4.92D-07
 ErrMax= 4.92D-07  0.00D+00 EMaxC= 1.00D-01 BMatC= 3.77D-10 BMatP= 7.54D-09
 IDIUse=1 WtCom= 1.00D+00 WtEn= 0.00D+00
 Coeff-Com:  0.533D-03 0.405D-02-0.101D-01-0.511D-01 0.253D-01 0.216D+00
 Coeff-Com:  0.815D+00
 Coeff:      0.533D-03 0.405D-02-0.101D-01-0.511D-01 0.253D-01 0.216D+00
 Coeff:      0.815D+00
 Gap=     0.292 Goal=   None    Shift=    0.000
 RMSDP=7.79D-08 MaxDP=2.99D-06 DE=-8.49D-09 OVMax= 1.35D-05

 Cycle   8  Pass 1  IDiag  1:
 E= -1199.79183331107     Delta-E=       -0.000000000387 Rises=F Damp=F
 DIIS: error= 2.96D-07 at cycle   8 NSaved=   8.
 NSaved= 8 IEnMin= 8 EnMin= -1199.79183331107     IErMin= 8 ErrMin= 2.96D-07
 ErrMax= 2.96D-07  0.00D+00 EMaxC= 1.00D-01 BMatC= 8.98D-11 BMatP= 3.77D-10
 IDIUse=1 WtCom= 1.00D+00 WtEn= 0.00D+00
 Coeff-Com: -0.234D-03 0.487D-02-0.165D-02-0.245D-01-0.197D-01 0.321D-01
 Coeff-Com:  0.393D+00 0.616D+00
 Coeff:     -0.234D-03 0.487D-02-0.165D-02-0.245D-01-0.197D-01 0.321D-01
 Coeff:      0.393D+00 0.616D+00
 Gap=     0.292 Goal=   None    Shift=    0.000
 RMSDP=2.17D-08 MaxDP=8.13D-07 DE=-3.87D-10 OVMax= 2.26D-06

 Cycle   9  Pass 1  IDiag  1:
 E= -1199.79183331112     Delta-E=       -0.000000000050 Rises=F Damp=F
 DIIS: error= 8.44D-08 at cycle   9 NSaved=   9.
 NSaved= 9 IEnMin= 9 EnMin= -1199.79183331112     IErMin= 9 ErrMin= 8.44D-08
 ErrMax= 8.44D-08  0.00D+00 EMaxC= 1.00D-01 BMatC= 7.30D-12 BMatP= 8.98D-11
 IDIUse=1 WtCom= 1.00D+00 WtEn= 0.00D+00
 Coeff-Com: -0.169D-03 0.178D-02 0.459D-03-0.486D-02-0.121D-01-0.114D-01
 Coeff-Com:  0.768D-01 0.257D+00 0.692D+00
 Coeff:     -0.169D-03 0.178D-02 0.459D-03-0.486D-02-0.121D-01-0.114D-01
 Coeff:      0.768D-01 0.257D+00 0.692D+00
 Gap=     0.292 Goal=   None    Shift=    0.000
 RMSDP=7.25D-09 MaxDP=2.56D-07 DE=-4.96D-11 OVMax= 1.08D-06

 SCF Done:  E(RM062X) =  -1199.79183331     A.U. after    9 cycles
            NFock=  9  Conv=0.73D-08     -V/T= 2.0029
 KE= 1.196362151687D+03 PE=-4.659111615112D+03 EE= 1.356490939933D+03
 Leave Link  502 at Sat May 24 03:42:55 2025, MaxMem=  3758096384 cpu:             142.0 elap:              33.6
 (Enter /apps/easybuild-2022/easybuild/software/Compiler/NVHPC/22.11-CUDA-11.7.0/Gaussian/g16c01-CUDA-11.7.0/g16/l508.exe)
 QCSCF skips out because SCF is already converged.
 Leave Link  508 at Sat May 24 03:42:55 2025, MaxMem=  3758096384 cpu:               0.1 elap:               0.0
 (Enter /apps/easybuild-2022/easybuild/software/Compiler/NVHPC/22.11-CUDA-11.7.0/Gaussian/g16c01-CUDA-11.7.0/g16/l801.exe)
 DoSCS=F DFT=T ScalE2(SS,OS)=  1.000000  1.000000
 Range of M.O.s used for correlation:     1   366
 NBasis=   366 NAE=    49 NBE=    49 NFC=     0 NFV=     0
 NROrb=    366 NOA=    49 NOB=    49 NVA=   317 NVB=   317

 **** Warning!!: The largest alpha MO coefficient is  0.14471515D+02

 Leave Link  801 at Sat May 24 03:42:55 2025, MaxMem=  3758096384 cpu:               0.1 elap:               0.0
 (Enter /apps/easybuild-2022/easybuild/software/Compiler/NVHPC/22.11-CUDA-11.7.0/Gaussian/g16c01-CUDA-11.7.0/g16/l1101.exe)
 Leave Link 1101 at Sat May 24 03:42:55 2025, MaxMem=  3758096384 cpu:               0.1 elap:               0.0
 (Enter /apps/easybuild-2022/easybuild/software/Compiler/NVHPC/22.11-CUDA-11.7.0/Gaussian/g16c01-CUDA-11.7.0/g16/l1102.exe)
 Symmetrizing basis deriv contribution to polar:
 IMax=3 JMax=2 DiffMx= 0.00D+00
 Leave Link 1102 at Sat May 24 03:42:55 2025, MaxMem=  3758096384 cpu:               0.1 elap:               0.1
 (Enter /apps/easybuild-2022/easybuild/software/Compiler/NVHPC/22.11-CUDA-11.7.0/Gaussian/g16c01-CUDA-11.7.0/g16/l1110.exe)
 Leave Link 1110 at Sat May 24 03:42:55 2025, MaxMem=  3758096384 cpu:               0.1 elap:               0.0
 (Enter /apps/easybuild-2022/easybuild/software/Compiler/NVHPC/22.11-CUDA-11.7.0/Gaussian/g16c01-CUDA-11.7.0/g16/l1002.exe)
 Minotr:  Closed shell wavefunction.
 Leave Link 1002 at Sat May 24 03:42:55 2025, MaxMem=  3758096384 cpu:               0.1 elap:               0.0
 (Enter /apps/easybuild-2022/easybuild/software/Compiler/NVHPC/22.11-CUDA-11.7.0/Gaussian/g16c01-CUDA-11.7.0/g16/l701.exe)
 ... and contract with generalized density number  0.
 Compute integral first derivatives.
   1 Symmetry operations used in ECPInt.
 ECPInt:  NShTT=    8515 NPrTT=   27988 LenC2=    7880 LenP2D=   19068.
 LDataN:  DoStor=T MaxTD1= 7 Len=  274
 Leave Link  701 at Sat May 24 03:42:55 2025, MaxMem=  3758096384 cpu:               0.7 elap:               0.2
 (Enter /apps/easybuild-2022/easybuild/software/Compiler/NVHPC/22.11-CUDA-11.7.0/Gaussian/g16c01-CUDA-11.7.0/g16/l702.exe)
 L702 exits ... SP integral derivatives will be done elsewhere.
 Leave Link  702 at Sat May 24 03:42:55 2025, MaxMem=  3758096384 cpu:               0.1 elap:               0.0
 (Enter /apps/easybuild-2022/easybuild/software/Compiler/NVHPC/22.11-CUDA-11.7.0/Gaussian/g16c01-CUDA-11.7.0/g16/l703.exe)
 Integral derivatives from FoFJK, PRISM(SPDF).
 Compute integral first derivatives, UseDBF=F ICtDFT=           0.
 Calling FoFJK, ICntrl=      2127 FMM=F ISym2X=0 I1Cent= 0 IOpClX= 0 NMat=1 NMatS=1 NMatT=0.
 FoFJK:  IHMeth= 1 ICntrl=    2127 DoSepK=F KAlg= 0 I1Cent=           0 FoldK=F
 IRaf=         0 NMat=       1 IRICut=       1 DoRegI=T DoRafI=F ISym2E= 0 IDoP0=0 IntGTp=1.
 FoFCou: FMM=F IPFlag=           0 FMFlag=      100000 FMFlg1=         800
         NFxFlg=           0 DoJE=F BraDBF=F KetDBF=F FulRan=T
         wScrn=  0.000000 ICntrl=      2127 IOpCl=  0 I1Cent=           0 NGrid=           0
         NMat0=    1 NMatS0=      1 NMatT0=    0 NMatD0=    1 NMtDS0=    0 NMtDT0=    0
 Symmetry not used in FoFCou.
 Leave Link  703 at Sat May 24 03:43:07 2025, MaxMem=  3758096384 cpu:              88.2 elap:              11.5
 (Enter /apps/easybuild-2022/easybuild/software/Compiler/NVHPC/22.11-CUDA-11.7.0/Gaussian/g16c01-CUDA-11.7.0/g16/l716.exe)
 Dipole        =-2.13927506D-01 8.78162869D-01-2.44078878D-02
 Polarizability= 0.00000000D+00 0.00000000D+00 0.00000000D+00
                 0.00000000D+00 0.00000000D+00 0.00000000D+00
 -------------------------------------------------------------------
 Center     Atomic                   Forces (Hartrees/Bohr)
 Number     Number              X              Y              Z
 -------------------------------------------------------------------
      1        6          -0.000135204   -0.000050866    0.000089338
      2        6          -0.000166530   -0.000507559    0.000653828
      3        9           0.000886510   -0.000014069   -0.000083001
      4        9          -0.000382998   -0.000085688    0.000145862
      5       16           0.000128578    0.000555001   -0.000647112
      6        8          -0.000153511   -0.000029848   -0.000126996
      7        8          -0.000168417    0.000116722    0.000009258
      8        8           0.000347082    0.000159032   -0.000146003
      9        9          -0.000016220    0.000089392    0.000118524
     10        9          -0.000244664   -0.000226450   -0.000003929
     11        9          -0.000121497   -0.000013049    0.000002484
     12        1           0.000026870    0.000007382   -0.000012254
 -------------------------------------------------------------------
 Cartesian Forces:  Max     0.000886510 RMS     0.000281482
 Leave Link  716 at Sat May 24 03:43:07 2025, MaxMem=  3758096384 cpu:               0.0 elap:               0.0
 (Enter /apps/easybuild-2022/easybuild/software/Compiler/NVHPC/22.11-CUDA-11.7.0/Gaussian/g16c01-CUDA-11.7.0/g16/l123.exe)
 IRC-IRC-IRC-IRC-IRC-IRC-IRC-IRC-IRC-IRC-IRC-IRC-IRC-IRC-IRC-IRC-IRC-IRC
 Pt  1 Step number   1 out of a maximum of  20
 Using modified Bulirsch-Stoer corrector integration.
   Using distance weighted interpolants to fit PES.
 PreDWI: IReCr0= 2 IReCr1= 1 IReCr2= 1 IReCr3= 1
 Modified Bulirsch-Stoer Extrapolation Cycles:
    EPS =    0.000010000000000
    Cycle     1 NS=    48
      PEZero:  N= 2 I= 1 D=  2.01D-04 Err=  3.07D-04
    Cycle     2 NS=    64 Truncation Error =  0.000307472
      PEZero:  N= 3 I= 2 D=  2.01D-04 Err=  2.05D-04
      PEZero:  N= 3 I= 1 D=  4.02D-04 Err=  4.69D-08
    Cycle     3 NS=    96 Truncation Error =  0.000000047
 BS completed in    3 cycles and     208 integration steps.
 Maximum DWI energy   std dev =  0.000000063 at pt     1
 Maximum DWI gradient std dev =  0.034156432 at pt     1
 SUMMARY OF CORRECTOR INTEGRATION:
   Predictor End Point Energy = -1199.791833
   Old End Point Energy       = -1199.791833
   Corrected End Point Energy = -1199.791833
   Predictor End-Start Dist.  =     0.077137
   Old End-Start Dist.        =     0.077137
   New End-Start Dist.        =     0.077135
   New End-Old End Dist.      =     0.000461
 CORRECTOR INTEGRATION CONVERGENCE:
   Recorrection delta-x convergence threshold:    0.010000
   Delta-x Convergence Met
 Point Number:   1          Path Number:   1
                    CURRENT STRUCTURE
                Cartesian Coordinates (Ang):                
 ---------------------------------------------------------------------
 Center     Atomic                     Coordinates (Angstroms)
 Number     Number                        X           Y           Z
 ---------------------------------------------------------------------
      1          6                   -1.387528   -1.060552    0.036726
      2          6                   -0.378061   -0.108543    0.701290
      3          9                   -0.150482    1.013449   -0.703283
      4          9                   -1.009326    0.628625    1.546925
      5         16                    1.467023    0.647052   -0.132203
      6          8                    1.718541    1.363718    1.067406
      7          8                    1.906655   -0.627262   -0.546431
      8          8                    2.019808    1.582170   -1.281835
      9          9                   -0.881071   -1.610410   -1.049207
     10          9                   -1.643666   -2.011894    0.932896
     11          9                   -2.526906   -0.455112   -0.277852
     12          1                    1.984050    2.503328   -0.991159
 ---------------------------------------------------------------------
   CHANGE IN THE REACTION COORDINATE =    0.07713
   NET REACTION COORDINATE UP TO THIS POINT =    0.07713
  # OF POINTS ALONG THE PATH =   1
  # OF STEPS =   1

 Calculating another point on the path.
 Point Number  2 in REVERSE path direction.
 Using LQA Reaction Path Following.
   LQA: T_Est iteration completed in    3 iterations.
 IRC-IRC-IRC-IRC-IRC-IRC-IRC-IRC-IRC-IRC-IRC-IRC-IRC-IRC-IRC-IRC-IRC-IRC
 Leave Link  123 at Sat May 24 03:43:07 2025, MaxMem=  3758096384 cpu:               0.3 elap:               0.3
 (Enter /apps/easybuild-2022/easybuild/software/Compiler/NVHPC/22.11-CUDA-11.7.0/Gaussian/g16c01-CUDA-11.7.0/g16/l202.exe)
                          Input orientation:                          
 ---------------------------------------------------------------------
 Center     Atomic      Atomic             Coordinates (Angstroms)
 Number     Number       Type             X           Y           Z
 ---------------------------------------------------------------------
      1          6           0       -1.388691   -1.060911    0.037446
      2          6           0       -0.379348   -0.112890    0.706828
      3          9           0       -0.145711    1.013348   -0.703699
      4          9           0       -1.011405    0.628175    1.547717
      5         16           0        1.467380    0.648829   -0.134283
      6          8           0        1.717584    1.363547    1.066618
      7          8           0        1.905595   -0.626514   -0.546402
      8          8           0        2.022038    1.583127   -1.282724
      9          9           0       -0.881163   -1.609933   -1.048568
     10          9           0       -1.644974   -2.013110    0.932870
     11          9           0       -2.527564   -0.455187   -0.277837
     12          1           0        1.986566    2.504390   -0.992395
 ---------------------------------------------------------------------
                    Distance matrix (angstroms):
                    1          2          3          4          5
     1  C    0.000000
     2  C    1.538048   0.000000
     3  F    2.529199   1.820051   0.000000
     4  F    2.297014   1.286766   2.442675   0.000000
     5  S    3.333144   2.167508   1.749048   2.995651   0.000000
     6  O    4.072608   2.589680   2.593941   2.866986   1.419714
     7  O    3.373707   2.656193   2.630921   3.803743   1.410097
     8  O    4.512966   3.549852   2.314963   4.257359   1.580973
     9  F    1.318498   2.361011   2.746166   3.430275   3.384313
    10  F    1.331971   2.294284   3.753078   2.784929   4.232196
    11  F    1.327908   2.387795   2.830403   2.608651   4.147173
    12  H    5.016404   3.916001   2.617853   4.354329   2.109269
                    6          7          8          9         10
     6  O    0.000000
     7  O    2.568565   0.000000
     8  O    2.379142   2.332004   0.000000
     9  F    4.479853   2.997549   4.321925   0.000000
    10  F    4.767231   4.088695   5.593635   2.161494   0.000000
    11  F    4.810056   4.444590   5.085608   2.153626   2.161458
    12  H    2.369263   3.163546   0.966578   5.015444   6.107579
                   11         12
    11  F    0.000000
    12  H    5.444912   0.000000
 Symmetry turned off by external request.
 Stoichiometry    C2HF5O3S
 Rotational constants (GHZ):           1.8678723           0.6951545           0.6407909
 Leave Link  202 at Sat May 24 03:43:07 2025, MaxMem=  3758096384 cpu:               0.1 elap:               0.0
 (Enter /apps/easybuild-2022/easybuild/software/Compiler/NVHPC/22.11-CUDA-11.7.0/Gaussian/g16c01-CUDA-11.7.0/g16/l301.exe)
 Standard basis: def2TZVPP (5D, 7F)
 Ernie: Thresh=  0.10000D-02 Tol=  0.10000D-05 Strict=F.
   366 basis functions,   596 primitive gaussians,   423 cartesian basis functions
    49 alpha electrons       49 beta electrons
       nuclear repulsion energy       906.3417260924 Hartrees.
 IExCor= 4336 DFT=T Ex+Corr=M062X ExCW=0 ScaHFX=  0.540000
 ScaDFX=  1.000000  1.000000  1.000000  1.000000 ScalE2=  1.000000  1.000000
 IRadAn=      5 IRanWt=     -1 IRanGd=            0 ICorTp=0 IEmpDi=  4
 NAtoms=   12 NActive=   12 NUniq=   12 SFac= 1.00D+00 NAtFMM=   60 NAOKFM=F Big=F
 Integral buffers will be    131072 words long.
 Raffenetti 2 integral format.
 Two-electron integral symmetry is turned off.
 Leave Link  301 at Sat May 24 03:43:07 2025, MaxMem=  3758096384 cpu:               0.1 elap:               0.0
 (Enter /apps/easybuild-2022/easybuild/software/Compiler/NVHPC/22.11-CUDA-11.7.0/Gaussian/g16c01-CUDA-11.7.0/g16/l302.exe)
 NPDir=0 NMtPBC=     1 NCelOv=     1 NCel=       1 NClECP=     1 NCelD=      1
         NCelK=      1 NCelE2=     1 NClLst=     1 CellRange=     0.0.
 One-electron integrals computed using PRISM.
   1 Symmetry operations used in ECPInt.
 ECPInt:  NShTT=    8515 NPrTT=   27988 LenC2=    7880 LenP2D=   19065.
 LDataN:  DoStor=T MaxTD1= 6 Len=  172
 NBasis=   366 RedAO= T EigKep=  5.95D-04  NBF=   366
 NBsUse=   366 1.00D-06 EigRej= -1.00D+00 NBFU=   366
 Precomputing XC quadrature grid using
 IXCGrd= 4 IRadAn=           5 IRanWt=          -1 IRanGd=           0 AccXCQ= 0.00D+00.
 Generated NRdTot=       0 NPtTot=           0 NUsed=           0 NTot=          32
 NSgBfM=   420   419   420   420   420 MxSgAt=    12 MxSgA2=    12.
 Leave Link  302 at Sat May 24 03:43:07 2025, MaxMem=  3758096384 cpu:               1.0 elap:               0.3
 (Enter /apps/easybuild-2022/easybuild/software/Compiler/NVHPC/22.11-CUDA-11.7.0/Gaussian/g16c01-CUDA-11.7.0/g16/l303.exe)
 DipDrv:  MaxL=1.
 Leave Link  303 at Sat May 24 03:43:08 2025, MaxMem=  3758096384 cpu:               0.1 elap:               0.1
 (Enter /apps/easybuild-2022/easybuild/software/Compiler/NVHPC/22.11-CUDA-11.7.0/Gaussian/g16c01-CUDA-11.7.0/g16/l401.exe)
 Initial guess from the checkpoint file:  "2003846667223680600001_r12_insertion_R_3_2_5_IRC_R.chk"
 B after Tr=     0.000019    0.000024   -0.000021
         Rot=    1.000000    0.000008   -0.000002   -0.000002 Ang=   0.00 deg.
 Guess basis will be translated and rotated to current coordinates.
 JPrj=2 DoOrth=T DoCkMO=T.
 Generating alternative initial guess.
 ExpMin= 9.52D-02 ExpMax= 6.07D+04 ExpMxC= 2.07D+03 IAcc=3 IRadAn=         5 AccDes= 0.00D+00
 Harris functional with IExCor= 1009 and IRadAn=       5 diagonalized for initial guess.
 HarFok:  IExCor= 1009 AccDes= 0.00D+00 IRadAn=         5 IDoV= 1 UseB2=F ITyADJ=14
 ICtDFT=  3500011 ScaDFX=  1.000000  1.000000  1.000000  1.000000
 FoFCou: FMM=F IPFlag=           0 FMFlag=      100000 FMFlg1=           0
         NFxFlg=           0 DoJE=T BraDBF=F KetDBF=T FulRan=T
         wScrn=  0.000000 ICntrl=       500 IOpCl=  0 I1Cent=   200000004 NGrid=           0
         NMat0=    1 NMatS0=      1 NMatT0=    0 NMatD0=    1 NMtDS0=    0 NMtDT0=    0
 Symmetry not used in FoFCou.
 Harris En= -1199.22228469581    
 Leave Link  401 at Sat May 24 03:43:09 2025, MaxMem=  3758096384 cpu:               4.7 elap:               1.2
 (Enter /apps/easybuild-2022/easybuild/software/Compiler/NVHPC/22.11-CUDA-11.7.0/Gaussian/g16c01-CUDA-11.7.0/g16/l502.exe)
 Keep R1 ints in memory in canonical form, NReq=2293446996.
 FoFCou: FMM=F IPFlag=           0 FMFlag=           0 FMFlg1=           0
         NFxFlg=           0 DoJE=F BraDBF=F KetDBF=F FulRan=T
         wScrn=  0.000000 ICntrl=       600 IOpCl=  0 I1Cent=           0 NGrid=           0
         NMat0=    1 NMatS0=  67161 NMatT0=    0 NMatD0=    1 NMtDS0=    0 NMtDT0=    0
 Symmetry not used in FoFCou.
 Two-electron integral symmetry not used.
 Closed shell SCF:
 Using DIIS extrapolation, IDIIS=  1040.
 NGot=  3758096384 LenX=  1502398672 LenY=  1502219302
 Requested convergence on RMS density matrix=1.00D-08 within  32 cycles.
 Requested convergence on MAX density matrix=1.00D-06.
 Requested convergence on             energy=1.00D-06.
 No special actions if energy rises.
 Integral accuracy reduced to 1.0D-05 until final iterations.

 Cycle   1  Pass 0  IDiag  1:
 E= -1199.79180357925    
 DIIS: error= 2.01D-04 at cycle   1 NSaved=   1.
 NSaved= 1 IEnMin= 1 EnMin= -1199.79180357925     IErMin= 1 ErrMin= 2.01D-04
 ErrMax= 2.01D-04  0.00D+00 EMaxC= 1.00D-01 BMatC= 3.91D-05 BMatP= 3.91D-05
 IDIUse=3 WtCom= 9.98D-01 WtEn= 2.01D-03
 Coeff-Com:  0.100D+01
 Coeff-En:   0.100D+01
 Coeff:      0.100D+01
 Gap=     1.065 Goal=   None    Shift=    0.000
 RMSDP=2.50D-05 MaxDP=1.03D-03              OVMax= 3.34D-03

 Cycle   2  Pass 0  IDiag  1:
 E= -1199.79186764895     Delta-E=       -0.000064069699 Rises=F Damp=F
 DIIS: error= 4.72D-05 at cycle   2 NSaved=   2.
 NSaved= 2 IEnMin= 2 EnMin= -1199.79186764895     IErMin= 2 ErrMin= 4.72D-05
 ErrMax= 4.72D-05  0.00D+00 EMaxC= 1.00D-01 BMatC= 2.72D-06 BMatP= 3.91D-05
 IDIUse=1 WtCom= 1.00D+00 WtEn= 0.00D+00
 Coeff-Com: -0.705D-01 0.107D+01
 Coeff:     -0.705D-01 0.107D+01
 Gap=     0.291 Goal=   None    Shift=    0.000
 RMSDP=9.13D-06 MaxDP=3.11D-04 DE=-6.41D-05 OVMax= 1.56D-03

 Initial convergence to 1.0D-05 achieved.  Increase integral accuracy.
 Cycle   3  Pass 1  IDiag  1:
 E= -1199.79187652275     Delta-E=       -0.000008873796 Rises=F Damp=F
 DIIS: error= 4.41D-05 at cycle   1 NSaved=   1.
 NSaved= 1 IEnMin= 1 EnMin= -1199.79187652275     IErMin= 1 ErrMin= 4.41D-05
 ErrMax= 4.41D-05  0.00D+00 EMaxC= 1.00D-01 BMatC= 2.95D-06 BMatP= 2.95D-06
 IDIUse=1 WtCom= 1.00D+00 WtEn= 0.00D+00
 Coeff-Com:  0.100D+01
 Coeff:      0.100D+01
 Gap=     0.291 Goal=   None    Shift=    0.000
 RMSDP=9.13D-06 MaxDP=3.11D-04 DE=-8.87D-06 OVMax= 5.66D-04

 Cycle   4  Pass 1  IDiag  1:
 E= -1199.79187641431     Delta-E=        0.000000108433 Rises=F Damp=F
 DIIS: error= 7.65D-05 at cycle   2 NSaved=   2.
 NSaved= 2 IEnMin= 1 EnMin= -1199.79187652275     IErMin= 1 ErrMin= 4.41D-05
 ErrMax= 7.65D-05  0.00D+00 EMaxC= 1.00D-01 BMatC= 4.34D-06 BMatP= 2.95D-06
 IDIUse=1 WtCom= 1.00D+00 WtEn= 0.00D+00
 Coeff-Com:  0.553D+00 0.447D+00
 Coeff:      0.553D+00 0.447D+00
 Gap=     0.291 Goal=   None    Shift=    0.000
 RMSDP=3.04D-06 MaxDP=2.08D-04 DE= 1.08D-07 OVMax= 3.36D-04

 Cycle   5  Pass 1  IDiag  1:
 E= -1199.79187898775     Delta-E=       -0.000002573435 Rises=F Damp=F
 DIIS: error= 1.18D-05 at cycle   3 NSaved=   3.
 NSaved= 3 IEnMin= 3 EnMin= -1199.79187898775     IErMin= 3 ErrMin= 1.18D-05
 ErrMax= 1.18D-05  0.00D+00 EMaxC= 1.00D-01 BMatC= 7.32D-08 BMatP= 2.95D-06
 IDIUse=1 WtCom= 1.00D+00 WtEn= 0.00D+00
 Coeff-Com: -0.187D-01 0.764D-01 0.942D+00
 Coeff:     -0.187D-01 0.764D-01 0.942D+00
 Gap=     0.291 Goal=   None    Shift=    0.000
 RMSDP=1.11D-06 MaxDP=4.03D-05 DE=-2.57D-06 OVMax= 1.40D-04

 Cycle   6  Pass 1  IDiag  1:
 E= -1199.79187907282     Delta-E=       -0.000000085071 Rises=F Damp=F
 DIIS: error= 5.54D-06 at cycle   4 NSaved=   4.
 NSaved= 4 IEnMin= 4 EnMin= -1199.79187907282     IErMin= 4 ErrMin= 5.54D-06
 ErrMax= 5.54D-06  0.00D+00 EMaxC= 1.00D-01 BMatC= 3.49D-08 BMatP= 7.32D-08
 IDIUse=1 WtCom= 1.00D+00 WtEn= 0.00D+00
 Coeff-Com: -0.615D-01-0.163D-02 0.520D+00 0.544D+00
 Coeff:     -0.615D-01-0.163D-02 0.520D+00 0.544D+00
 Gap=     0.291 Goal=   None    Shift=    0.000
 RMSDP=4.17D-07 MaxDP=2.40D-05 DE=-8.51D-08 OVMax= 5.49D-05

 Cycle   7  Pass 1  IDiag  1:
 E= -1199.79187910212     Delta-E=       -0.000000029297 Rises=F Damp=F
 DIIS: error= 1.80D-06 at cycle   5 NSaved=   5.
 NSaved= 5 IEnMin= 5 EnMin= -1199.79187910212     IErMin= 5 ErrMin= 1.80D-06
 ErrMax= 1.80D-06  0.00D+00 EMaxC= 1.00D-01 BMatC= 1.73D-09 BMatP= 3.49D-08
 IDIUse=1 WtCom= 1.00D+00 WtEn= 0.00D+00
 Coeff-Com: -0.729D-03-0.187D-01-0.154D+00 0.415D-01 0.113D+01
 Coeff:     -0.729D-03-0.187D-01-0.154D+00 0.415D-01 0.113D+01
 Gap=     0.291 Goal=   None    Shift=    0.000
 RMSDP=3.14D-07 MaxDP=1.27D-05 DE=-2.93D-08 OVMax= 5.57D-05

 Cycle   8  Pass 1  IDiag  1:
 E= -1199.79187910718     Delta-E=       -0.000000005060 Rises=F Damp=F
 DIIS: error= 6.42D-07 at cycle   6 NSaved=   6.
 NSaved= 6 IEnMin= 6 EnMin= -1199.79187910718     IErMin= 6 ErrMin= 6.42D-07
 ErrMax= 6.42D-07  0.00D+00 EMaxC= 1.00D-01 BMatC= 4.04D-10 BMatP= 1.73D-09
 IDIUse=1 WtCom= 1.00D+00 WtEn= 0.00D+00
 Coeff-Com:  0.515D-02-0.866D-02-0.122D+00-0.350D-01 0.510D+00 0.651D+00
 Coeff:      0.515D-02-0.866D-02-0.122D+00-0.350D-01 0.510D+00 0.651D+00
 Gap=     0.291 Goal=   None    Shift=    0.000
 RMSDP=6.74D-08 MaxDP=2.25D-06 DE=-5.06D-09 OVMax= 8.98D-06

 Cycle   9  Pass 1  IDiag  1:
 E= -1199.79187910751     Delta-E=       -0.000000000330 Rises=F Damp=F
 DIIS: error= 1.94D-07 at cycle   7 NSaved=   7.
 NSaved= 7 IEnMin= 7 EnMin= -1199.79187910751     IErMin= 7 ErrMin= 1.94D-07
 ErrMax= 1.94D-07  0.00D+00 EMaxC= 1.00D-01 BMatC= 4.70D-11 BMatP= 4.04D-10
 IDIUse=1 WtCom= 1.00D+00 WtEn= 0.00D+00
 Coeff-Com:  0.248D-02-0.173D-02-0.396D-01-0.200D-01 0.114D+00 0.298D+00
 Coeff-Com:  0.647D+00
 Coeff:      0.248D-02-0.173D-02-0.396D-01-0.200D-01 0.114D+00 0.298D+00
 Coeff:      0.647D+00
 Gap=     0.291 Goal=   None    Shift=    0.000
 RMSDP=1.82D-08 MaxDP=6.37D-07 DE=-3.30D-10 OVMax= 2.86D-06

 Cycle  10  Pass 1  IDiag  1:
 E= -1199.79187910753     Delta-E=       -0.000000000023 Rises=F Damp=F
 DIIS: error= 5.84D-08 at cycle   8 NSaved=   8.
 NSaved= 8 IEnMin= 8 EnMin= -1199.79187910753     IErMin= 8 ErrMin= 5.84D-08
 ErrMax= 5.84D-08  0.00D+00 EMaxC= 1.00D-01 BMatC= 3.83D-12 BMatP= 4.70D-11
 IDIUse=1 WtCom= 1.00D+00 WtEn= 0.00D+00
 Coeff-Com:  0.516D-04 0.784D-03 0.493D-02-0.172D-02-0.378D-01 0.435D-02
 Coeff-Com:  0.219D+00 0.811D+00
 Coeff:      0.516D-04 0.784D-03 0.493D-02-0.172D-02-0.378D-01 0.435D-02
 Coeff:      0.219D+00 0.811D+00
 Gap=     0.291 Goal=   None    Shift=    0.000
 RMSDP=7.30D-09 MaxDP=2.58D-07 DE=-2.32D-11 OVMax= 7.50D-07

 SCF Done:  E(RM062X) =  -1199.79187911     A.U. after   10 cycles
            NFock= 10  Conv=0.73D-08     -V/T= 2.0029
 KE= 1.196368208774D+03 PE=-4.658871072488D+03 EE= 1.356369258515D+03
 Leave Link  502 at Sat May 24 03:43:44 2025, MaxMem=  3758096384 cpu:             140.3 elap:              35.0
 (Enter /apps/easybuild-2022/easybuild/software/Compiler/NVHPC/22.11-CUDA-11.7.0/Gaussian/g16c01-CUDA-11.7.0/g16/l508.exe)
 QCSCF skips out because SCF is already converged.
 Leave Link  508 at Sat May 24 03:43:44 2025, MaxMem=  3758096384 cpu:               0.1 elap:               0.0
 (Enter /apps/easybuild-2022/easybuild/software/Compiler/NVHPC/22.11-CUDA-11.7.0/Gaussian/g16c01-CUDA-11.7.0/g16/l801.exe)
 DoSCS=F DFT=T ScalE2(SS,OS)=  1.000000  1.000000
 Range of M.O.s used for correlation:     1   366
 NBasis=   366 NAE=    49 NBE=    49 NFC=     0 NFV=     0
 NROrb=    366 NOA=    49 NOB=    49 NVA=   317 NVB=   317

 **** Warning!!: The largest alpha MO coefficient is  0.14672275D+02

 Leave Link  801 at Sat May 24 03:43:44 2025, MaxMem=  3758096384 cpu:               0.0 elap:               0.0
 (Enter /apps/easybuild-2022/easybuild/software/Compiler/NVHPC/22.11-CUDA-11.7.0/Gaussian/g16c01-CUDA-11.7.0/g16/l1101.exe)
 Leave Link 1101 at Sat May 24 03:43:44 2025, MaxMem=  3758096384 cpu:               0.1 elap:               0.0
 (Enter /apps/easybuild-2022/easybuild/software/Compiler/NVHPC/22.11-CUDA-11.7.0/Gaussian/g16c01-CUDA-11.7.0/g16/l1102.exe)
 Symmetrizing basis deriv contribution to polar:
 IMax=3 JMax=2 DiffMx= 0.00D+00
 Leave Link 1102 at Sat May 24 03:43:44 2025, MaxMem=  3758096384 cpu:               0.1 elap:               0.1
 (Enter /apps/easybuild-2022/easybuild/software/Compiler/NVHPC/22.11-CUDA-11.7.0/Gaussian/g16c01-CUDA-11.7.0/g16/l1110.exe)
 Leave Link 1110 at Sat May 24 03:43:44 2025, MaxMem=  3758096384 cpu:               0.1 elap:               0.0
 (Enter /apps/easybuild-2022/easybuild/software/Compiler/NVHPC/22.11-CUDA-11.7.0/Gaussian/g16c01-CUDA-11.7.0/g16/l1002.exe)
 Minotr:  Closed shell wavefunction.
 Leave Link 1002 at Sat May 24 03:43:44 2025, MaxMem=  3758096384 cpu:               0.1 elap:               0.0
 (Enter /apps/easybuild-2022/easybuild/software/Compiler/NVHPC/22.11-CUDA-11.7.0/Gaussian/g16c01-CUDA-11.7.0/g16/l701.exe)
 ... and contract with generalized density number  0.
 Compute integral first derivatives.
   1 Symmetry operations used in ECPInt.
 ECPInt:  NShTT=    8515 NPrTT=   27988 LenC2=    7880 LenP2D=   19065.
 LDataN:  DoStor=T MaxTD1= 7 Len=  274
 Leave Link  701 at Sat May 24 03:43:44 2025, MaxMem=  3758096384 cpu:               0.8 elap:               0.3
 (Enter /apps/easybuild-2022/easybuild/software/Compiler/NVHPC/22.11-CUDA-11.7.0/Gaussian/g16c01-CUDA-11.7.0/g16/l702.exe)
 L702 exits ... SP integral derivatives will be done elsewhere.
 Leave Link  702 at Sat May 24 03:43:44 2025, MaxMem=  3758096384 cpu:               0.1 elap:               0.0
 (Enter /apps/easybuild-2022/easybuild/software/Compiler/NVHPC/22.11-CUDA-11.7.0/Gaussian/g16c01-CUDA-11.7.0/g16/l703.exe)
 Integral derivatives from FoFJK, PRISM(SPDF).
 Compute integral first derivatives, UseDBF=F ICtDFT=           0.
 Calling FoFJK, ICntrl=      2127 FMM=F ISym2X=0 I1Cent= 0 IOpClX= 0 NMat=1 NMatS=1 NMatT=0.
 FoFJK:  IHMeth= 1 ICntrl=    2127 DoSepK=F KAlg= 0 I1Cent=           0 FoldK=F
 IRaf=         0 NMat=       1 IRICut=       1 DoRegI=T DoRafI=F ISym2E= 0 IDoP0=0 IntGTp=1.
 FoFCou: FMM=F IPFlag=           0 FMFlag=      100000 FMFlg1=         800
         NFxFlg=           0 DoJE=F BraDBF=F KetDBF=F FulRan=T
         wScrn=  0.000000 ICntrl=      2127 IOpCl=  0 I1Cent=           0 NGrid=           0
         NMat0=    1 NMatS0=      1 NMatT0=    0 NMatD0=    1 NMtDS0=    0 NMtDT0=    0
 Symmetry not used in FoFCou.
 Leave Link  703 at Sat May 24 03:43:57 2025, MaxMem=  3758096384 cpu:              91.7 elap:              12.4
 (Enter /apps/easybuild-2022/easybuild/software/Compiler/NVHPC/22.11-CUDA-11.7.0/Gaussian/g16c01-CUDA-11.7.0/g16/l716.exe)
 Dipole        =-2.12750185D-01 8.83575560D-01-2.61638210D-02
 Polarizability= 0.00000000D+00 0.00000000D+00 0.00000000D+00
                 0.00000000D+00 0.00000000D+00 0.00000000D+00
 -------------------------------------------------------------------
 Center     Atomic                   Forces (Hartrees/Bohr)
 Number     Number              X              Y              Z
 -------------------------------------------------------------------
      1        6          -0.000263202   -0.000087063    0.000170028
      2        6          -0.000320935   -0.000995920    0.001284395
      3        9           0.001718258   -0.000037856   -0.000150733
      4        9          -0.000757992   -0.000175479    0.000283477
      5       16           0.000267798    0.001092635   -0.001280457
      6        8          -0.000297844   -0.000057323   -0.000249079
      7        8          -0.000330816    0.000238022    0.000009557
      8        8           0.000697167    0.000299459   -0.000278257
      9        9          -0.000036129    0.000178386    0.000236913
     10        9          -0.000486545   -0.000451619   -0.000011844
     11        9          -0.000239137   -0.000025404    0.000007626
     12        1           0.000049377    0.000022163   -0.000021625
 -------------------------------------------------------------------
 Cartesian Forces:  Max     0.001718258 RMS     0.000552329
 Leave Link  716 at Sat May 24 03:43:57 2025, MaxMem=  3758096384 cpu:               0.0 elap:               0.0
 (Enter /apps/easybuild-2022/easybuild/software/Compiler/NVHPC/22.11-CUDA-11.7.0/Gaussian/g16c01-CUDA-11.7.0/g16/l123.exe)
 IRC-IRC-IRC-IRC-IRC-IRC-IRC-IRC-IRC-IRC-IRC-IRC-IRC-IRC-IRC-IRC-IRC-IRC
 Pt  2 Step number   1 out of a maximum of  20
 Using modified Bulirsch-Stoer corrector integration.
   Using distance weighted interpolants to fit PES.
 PreDWI: IReCr0= 2 IReCr1= 1 IReCr2= 1 IReCr3= 1
 Modified Bulirsch-Stoer Extrapolation Cycles:
    EPS =    0.000010000000000
    Cycle     1 NS=    48
      PEZero:  N= 2 I= 1 D=  4.02D-04 Err=  2.53D-06
    Cycle     2 NS=    64 Truncation Error =  0.000002526
 BS completed in    2 cycles and     112 integration steps.
 Maximum DWI energy   std dev =  0.000000064 at pt    47
 Maximum DWI gradient std dev =  0.006629670 at pt    27
 SUMMARY OF CORRECTOR INTEGRATION:
   Predictor End Point Energy = -1199.791879
   Old End Point Energy       = -1199.791879
   Corrected End Point Energy = -1199.791879
   Predictor End-Start Dist.  =     0.077110
   Old End-Start Dist.        =     0.077110
   New End-Start Dist.        =     0.077109
   New End-Old End Dist.      =     0.000389
 CORRECTOR INTEGRATION CONVERGENCE:
   Recorrection delta-x convergence threshold:    0.010000
   Delta-x Convergence Met
 Point Number:   2          Path Number:   1
                    CURRENT STRUCTURE
                Cartesian Coordinates (Ang):                
 ---------------------------------------------------------------------
 Center     Atomic                     Coordinates (Angstroms)
 Number     Number                        X           Y           Z
 ---------------------------------------------------------------------
      1          6                   -1.388691   -1.060916    0.037453
      2          6                   -0.379368   -0.112884    0.706827
      3          9                   -0.145733    1.013346   -0.703700
      4          9                   -1.011411    0.628173    1.547715
      5         16                    1.467403    0.648831   -0.134286
      6          8                    1.717584    1.363548    1.066613
      7          8                    1.905596   -0.626513   -0.546400
      8          8                    2.022049    1.583134   -1.282729
      9          9                   -0.881162   -1.609932   -1.048562
     10          9                   -1.644982   -2.013118    0.932871
     11          9                   -2.527565   -0.455189   -0.277835
     12          1                    1.986600    2.504391   -0.992370
 ---------------------------------------------------------------------
   CHANGE IN THE REACTION COORDINATE =    0.07711
   NET REACTION COORDINATE UP TO THIS POINT =    0.15424
  # OF POINTS ALONG THE PATH =   2
  # OF STEPS =   1

 Calculating another point on the path.
 Point Number  3 in REVERSE path direction.
 Using LQA Reaction Path Following.
   LQA: T_Est iteration completed in    3 iterations.
 IRC-IRC-IRC-IRC-IRC-IRC-IRC-IRC-IRC-IRC-IRC-IRC-IRC-IRC-IRC-IRC-IRC-IRC
 Leave Link  123 at Sat May 24 03:43:57 2025, MaxMem=  3758096384 cpu:               0.2 elap:               0.1
 (Enter /apps/easybuild-2022/easybuild/software/Compiler/NVHPC/22.11-CUDA-11.7.0/Gaussian/g16c01-CUDA-11.7.0/g16/l202.exe)
                          Input orientation:                          
 ---------------------------------------------------------------------
 Center     Atomic      Atomic             Coordinates (Angstroms)
 Number     Number       Type             X           Y           Z
 ---------------------------------------------------------------------
      1          6           0       -1.389859   -1.061282    0.038183
      2          6           0       -0.380683   -0.117224    0.712362
      3          9           0       -0.141013    1.013237   -0.704103
      4          9           0       -1.013509    0.627711    1.548511
      5         16           0        1.467809    0.650614   -0.136373
      6          8           0        1.716632    1.363375    1.065821
      7          8           0        1.904540   -0.625761   -0.546384
      8          8           0        2.024311    1.584108   -1.283619
      9          9           0       -0.881258   -1.609448   -1.047917
     10          9           0       -1.646314   -2.014353    0.932836
     11          9           0       -2.528225   -0.455260   -0.277815
     12          1           0        1.989138    2.505465   -0.993584
 ---------------------------------------------------------------------
                    Distance matrix (angstroms):
                    1          2          3          4          5
     1  C    0.000000
     2  C    1.537595   0.000000
     3  F    2.532634   1.828047   0.000000
     4  F    2.296830   1.286290   2.446251   0.000000
     5  S    3.335764   2.174132   1.744168   2.999382   0.000000
     6  O    4.072504   2.591493   2.589609   2.868424   1.419582
     7  O    3.374087   2.658063   2.625925   3.804575   1.409956
     8  O    4.516836   3.558436   2.313085   4.261925   1.580279
     9  F    1.318625   2.361332   2.746752   3.429841   3.384805
    10  F    1.332110   2.291185   3.756568   2.785678   4.235920
    11  F    1.327778   2.388860   2.834957   2.608190   4.148644
    12  H    5.020343   3.924895   2.616885   4.359368   2.108807
                    6          7          8          9         10
     6  O    0.000000
     7  O    2.567329   0.000000
     8  O    2.379761   2.332677   0.000000
     9  F    4.478236   2.996639   4.323966   0.000000
    10  F    4.768242   4.089602   5.597775   2.161629   0.000000
    11  F    4.809532   4.444165   5.088835   2.153533   2.161993
    12  H    2.370608   3.164131   0.966570   5.017433   6.111985
                   11         12
    11  F    0.000000
    12  H    5.448374   0.000000
 Symmetry turned off by external request.
 Stoichiometry    C2HF5O3S
 Rotational constants (GHZ):           1.8685945           0.6945169           0.6401565
 Leave Link  202 at Sat May 24 03:43:57 2025, MaxMem=  3758096384 cpu:               0.1 elap:               0.0
 (Enter /apps/easybuild-2022/easybuild/software/Compiler/NVHPC/22.11-CUDA-11.7.0/Gaussian/g16c01-CUDA-11.7.0/g16/l301.exe)
 Standard basis: def2TZVPP (5D, 7F)
 Ernie: Thresh=  0.10000D-02 Tol=  0.10000D-05 Strict=F.
   366 basis functions,   596 primitive gaussians,   423 cartesian basis functions
    49 alpha electrons       49 beta electrons
       nuclear repulsion energy       906.2139146269 Hartrees.
 IExCor= 4336 DFT=T Ex+Corr=M062X ExCW=0 ScaHFX=  0.540000
 ScaDFX=  1.000000  1.000000  1.000000  1.000000 ScalE2=  1.000000  1.000000
 IRadAn=      5 IRanWt=     -1 IRanGd=            0 ICorTp=0 IEmpDi=  4
 NAtoms=   12 NActive=   12 NUniq=   12 SFac= 1.00D+00 NAtFMM=   60 NAOKFM=F Big=F
 Integral buffers will be    131072 words long.
 Raffenetti 2 integral format.
 Two-electron integral symmetry is turned off.
 Leave Link  301 at Sat May 24 03:43:57 2025, MaxMem=  3758096384 cpu:               0.1 elap:               0.1
 (Enter /apps/easybuild-2022/easybuild/software/Compiler/NVHPC/22.11-CUDA-11.7.0/Gaussian/g16c01-CUDA-11.7.0/g16/l302.exe)
 NPDir=0 NMtPBC=     1 NCelOv=     1 NCel=       1 NClECP=     1 NCelD=      1
         NCelK=      1 NCelE2=     1 NClLst=     1 CellRange=     0.0.
 One-electron integrals computed using PRISM.
   1 Symmetry operations used in ECPInt.
 ECPInt:  NShTT=    8515 NPrTT=   27988 LenC2=    7879 LenP2D=   19066.
 LDataN:  DoStor=T MaxTD1= 6 Len=  172
 NBasis=   366 RedAO= T EigKep=  5.95D-04  NBF=   366
 NBsUse=   366 1.00D-06 EigRej= -1.00D+00 NBFU=   366
 Precomputing XC quadrature grid using
 IXCGrd= 4 IRadAn=           5 IRanWt=          -1 IRanGd=           0 AccXCQ= 0.00D+00.
 Generated NRdTot=       0 NPtTot=           0 NUsed=           0 NTot=          32
 NSgBfM=   420   419   420   420   420 MxSgAt=    12 MxSgA2=    12.
 Leave Link  302 at Sat May 24 03:43:57 2025, MaxMem=  3758096384 cpu:               1.1 elap:               0.3
 (Enter /apps/easybuild-2022/easybuild/software/Compiler/NVHPC/22.11-CUDA-11.7.0/Gaussian/g16c01-CUDA-11.7.0/g16/l303.exe)
 DipDrv:  MaxL=1.
 Leave Link  303 at Sat May 24 03:43:58 2025, MaxMem=  3758096384 cpu:               0.1 elap:               0.1
 (Enter /apps/easybuild-2022/easybuild/software/Compiler/NVHPC/22.11-CUDA-11.7.0/Gaussian/g16c01-CUDA-11.7.0/g16/l401.exe)
 Initial guess from the checkpoint file:  "2003846667223680600001_r12_insertion_R_3_2_5_IRC_R.chk"
 B after Tr=     0.000020    0.000024   -0.000021
         Rot=    1.000000    0.000004   -0.000004   -0.000001 Ang=   0.00 deg.
 Guess basis will be translated and rotated to current coordinates.
 JPrj=2 DoOrth=T DoCkMO=T.
 Generating alternative initial guess.
 ExpMin= 9.52D-02 ExpMax= 6.07D+04 ExpMxC= 2.07D+03 IAcc=3 IRadAn=         5 AccDes= 0.00D+00
 Harris functional with IExCor= 1009 and IRadAn=       5 diagonalized for initial guess.
 HarFok:  IExCor= 1009 AccDes= 0.00D+00 IRadAn=         5 IDoV= 1 UseB2=F ITyADJ=14
 ICtDFT=  3500011 ScaDFX=  1.000000  1.000000  1.000000  1.000000
 FoFCou: FMM=F IPFlag=           0 FMFlag=      100000 FMFlg1=           0
         NFxFlg=           0 DoJE=T BraDBF=F KetDBF=T FulRan=T
         wScrn=  0.000000 ICntrl=       500 IOpCl=  0 I1Cent=   200000004 NGrid=           0
         NMat0=    1 NMatS0=      1 NMatT0=    0 NMatD0=    1 NMtDS0=    0 NMtDT0=    0
 Symmetry not used in FoFCou.
 Harris En= -1199.22201411489    
 Leave Link  401 at Sat May 24 03:43:58 2025, MaxMem=  3758096384 cpu:               4.4 elap:               0.9
 (Enter /apps/easybuild-2022/easybuild/software/Compiler/NVHPC/22.11-CUDA-11.7.0/Gaussian/g16c01-CUDA-11.7.0/g16/l502.exe)
 Keep R1 ints in memory in canonical form, NReq=2293446996.
 FoFCou: FMM=F IPFlag=           0 FMFlag=           0 FMFlg1=           0
         NFxFlg=           0 DoJE=F BraDBF=F KetDBF=F FulRan=T
         wScrn=  0.000000 ICntrl=       600 IOpCl=  0 I1Cent=           0 NGrid=           0
         NMat0=    1 NMatS0=  67161 NMatT0=    0 NMatD0=    1 NMtDS0=    0 NMtDT0=    0
 Symmetry not used in FoFCou.
 Two-electron integral symmetry not used.
 Closed shell SCF:
 Using DIIS extrapolation, IDIIS=  1040.
 NGot=  3758096384 LenX=  1502398672 LenY=  1502219302
 Requested convergence on RMS density matrix=1.00D-08 within  32 cycles.
 Requested convergence on MAX density matrix=1.00D-06.
 Requested convergence on             energy=1.00D-06.
 No special actions if energy rises.
 Integral accuracy reduced to 1.0D-05 until final iterations.

 Cycle   1  Pass 0  IDiag  1:
 E= -1199.79187871730    
 DIIS: error= 2.00D-04 at cycle   1 NSaved=   1.
 NSaved= 1 IEnMin= 1 EnMin= -1199.79187871730     IErMin= 1 ErrMin= 2.00D-04
 ErrMax= 2.00D-04  0.00D+00 EMaxC= 1.00D-01 BMatC= 3.88D-05 BMatP= 3.88D-05
 IDIUse=3 WtCom= 9.98D-01 WtEn= 2.00D-03
 Coeff-Com:  0.100D+01
 Coeff-En:   0.100D+01
 Coeff:      0.100D+01
 Gap=     1.064 Goal=   None    Shift=    0.000
 RMSDP=2.48D-05 MaxDP=1.04D-03              OVMax= 3.33D-03

 Cycle   2  Pass 0  IDiag  1:
 E= -1199.79194202771     Delta-E=       -0.000063310407 Rises=F Damp=F
 DIIS: error= 4.83D-05 at cycle   2 NSaved=   2.
 NSaved= 2 IEnMin= 2 EnMin= -1199.79194202771     IErMin= 2 ErrMin= 4.83D-05
 ErrMax= 4.83D-05  0.00D+00 EMaxC= 1.00D-01 BMatC= 2.70D-06 BMatP= 3.88D-05
 IDIUse=1 WtCom= 1.00D+00 WtEn= 0.00D+00
 Coeff-Com: -0.699D-01 0.107D+01
 Coeff:     -0.699D-01 0.107D+01
 Gap=     0.290 Goal=   None    Shift=    0.000
 RMSDP=9.02D-06 MaxDP=3.06D-04 DE=-6.33D-05 OVMax= 1.53D-03

 Initial convergence to 1.0D-05 achieved.  Increase integral accuracy.
 Cycle   3  Pass 1  IDiag  1:
 E= -1199.79195148297     Delta-E=       -0.000009455264 Rises=F Damp=F
 DIIS: error= 4.28D-05 at cycle   1 NSaved=   1.
 NSaved= 1 IEnMin= 1 EnMin= -1199.79195148297     IErMin= 1 ErrMin= 4.28D-05
 ErrMax= 4.28D-05  0.00D+00 EMaxC= 1.00D-01 BMatC= 2.91D-06 BMatP= 2.91D-06
 IDIUse=1 WtCom= 1.00D+00 WtEn= 0.00D+00
 Coeff-Com:  0.100D+01
 Coeff:      0.100D+01
 Gap=     0.290 Goal=   None    Shift=    0.000
 RMSDP=9.02D-06 MaxDP=3.06D-04 DE=-9.46D-06 OVMax= 5.58D-04

 Cycle   4  Pass 1  IDiag  1:
 E= -1199.79195138729     Delta-E=        0.000000095679 Rises=F Damp=F
 DIIS: error= 7.81D-05 at cycle   2 NSaved=   2.
 NSaved= 2 IEnMin= 1 EnMin= -1199.79195148297     IErMin= 1 ErrMin= 4.28D-05
 ErrMax= 7.81D-05  0.00D+00 EMaxC= 1.00D-01 BMatC= 4.24D-06 BMatP= 2.91D-06
 IDIUse=1 WtCom= 1.00D+00 WtEn= 0.00D+00
 Coeff-Com:  0.551D+00 0.449D+00
 Coeff:      0.551D+00 0.449D+00
 Gap=     0.290 Goal=   None    Shift=    0.000
 RMSDP=3.00D-06 MaxDP=2.06D-04 DE= 9.57D-08 OVMax= 3.25D-04

 Cycle   5  Pass 1  IDiag  1:
 E= -1199.79195389520     Delta-E=       -0.000002507903 Rises=F Damp=F
 DIIS: error= 1.12D-05 at cycle   3 NSaved=   3.
 NSaved= 3 IEnMin= 3 EnMin= -1199.79195389520     IErMin= 3 ErrMin= 1.12D-05
 ErrMax= 1.12D-05  0.00D+00 EMaxC= 1.00D-01 BMatC= 7.07D-08 BMatP= 2.91D-06
 IDIUse=1 WtCom= 1.00D+00 WtEn= 0.00D+00
 Coeff-Com: -0.196D-01 0.757D-01 0.944D+00
 Coeff:     -0.196D-01 0.757D-01 0.944D+00
 Gap=     0.290 Goal=   None    Shift=    0.000
 RMSDP=1.09D-06 MaxDP=3.92D-05 DE=-2.51D-06 OVMax= 1.36D-04

 Cycle   6  Pass 1  IDiag  1:
 E= -1199.79195397706     Delta-E=       -0.000000081863 Rises=F Damp=F
 DIIS: error= 5.40D-06 at cycle   4 NSaved=   4.
 NSaved= 4 IEnMin= 4 EnMin= -1199.79195397706     IErMin= 4 ErrMin= 5.40D-06
 ErrMax= 5.40D-06  0.00D+00 EMaxC= 1.00D-01 BMatC= 3.36D-08 BMatP= 7.07D-08
 IDIUse=1 WtCom= 1.00D+00 WtEn= 0.00D+00
 Coeff-Com: -0.604D-01-0.122D-02 0.520D+00 0.542D+00
 Coeff:     -0.604D-01-0.122D-02 0.520D+00 0.542D+00
 Gap=     0.290 Goal=   None    Shift=    0.000
 RMSDP=4.05D-07 MaxDP=2.39D-05 DE=-8.19D-08 OVMax= 5.22D-05

 Cycle   7  Pass 1  IDiag  1:
 E= -1199.79195400515     Delta-E=       -0.000000028095 Rises=F Damp=F
 DIIS: error= 1.73D-06 at cycle   5 NSaved=   5.
 NSaved= 5 IEnMin= 5 EnMin= -1199.79195400515     IErMin= 5 ErrMin= 1.73D-06
 ErrMax= 1.73D-06  0.00D+00 EMaxC= 1.00D-01 BMatC= 1.68D-09 BMatP= 3.36D-08
 IDIUse=1 WtCom= 1.00D+00 WtEn= 0.00D+00
 Coeff-Com: -0.869D-03-0.189D-01-0.152D+00 0.437D-01 0.113D+01
 Coeff:     -0.869D-03-0.189D-01-0.152D+00 0.437D-01 0.113D+01
 Gap=     0.290 Goal=   None    Shift=    0.000
 RMSDP=3.05D-07 MaxDP=1.24D-05 DE=-2.81D-08 OVMax= 5.36D-05

 Cycle   8  Pass 1  IDiag  1:
 E= -1199.79195400977     Delta-E=       -0.000000004612 Rises=F Damp=F
 DIIS: error= 6.74D-07 at cycle   6 NSaved=   6.
 NSaved= 6 IEnMin= 6 EnMin= -1199.79195400977     IErMin= 6 ErrMin= 6.74D-07
 ErrMax= 6.74D-07  0.00D+00 EMaxC= 1.00D-01 BMatC= 3.91D-10 BMatP= 1.68D-09
 IDIUse=1 WtCom= 1.00D+00 WtEn= 0.00D+00
 Coeff-Com:  0.506D-02-0.873D-02-0.122D+00-0.343D-01 0.507D+00 0.653D+00
 Coeff:      0.506D-02-0.873D-02-0.122D+00-0.343D-01 0.507D+00 0.653D+00
 Gap=     0.290 Goal=   None    Shift=    0.000
 RMSDP=6.59D-08 MaxDP=2.18D-06 DE=-4.61D-09 OVMax= 8.67D-06

 Cycle   9  Pass 1  IDiag  1:
 E= -1199.79195401021     Delta-E=       -0.000000000441 Rises=F Damp=F
 DIIS: error= 1.93D-07 at cycle   7 NSaved=   7.
 NSaved= 7 IEnMin= 7 EnMin= -1199.79195401021     IErMin= 7 ErrMin= 1.93D-07
 ErrMax= 1.93D-07  0.00D+00 EMaxC= 1.00D-01 BMatC= 4.62D-11 BMatP= 3.91D-10
 IDIUse=1 WtCom= 1.00D+00 WtEn= 0.00D+00
 Coeff-Com:  0.246D-02-0.174D-02-0.396D-01-0.200D-01 0.113D+00 0.299D+00
 Coeff-Com:  0.646D+00
 Coeff:      0.246D-02-0.174D-02-0.396D-01-0.200D-01 0.113D+00 0.299D+00
 Coeff:      0.646D+00
 Gap=     0.290 Goal=   None    Shift=    0.000
 RMSDP=1.78D-08 MaxDP=6.25D-07 DE=-4.41D-10 OVMax= 2.78D-06

 Cycle  10  Pass 1  IDiag  1:
 E= -1199.79195401025     Delta-E=       -0.000000000046 Rises=F Damp=F
 DIIS: error= 5.54D-08 at cycle   8 NSaved=   8.
 NSaved= 8 IEnMin= 8 EnMin= -1199.79195401025     IErMin= 8 ErrMin= 5.54D-08
 ErrMax= 5.54D-08  0.00D+00 EMaxC= 1.00D-01 BMatC= 3.65D-12 BMatP= 4.62D-11
 IDIUse=1 WtCom= 1.00D+00 WtEn= 0.00D+00
 Coeff-Com:  0.452D-04 0.793D-03 0.499D-02-0.168D-02-0.379D-01 0.346D-02
 Coeff-Com:  0.215D+00 0.815D+00
 Coeff:      0.452D-04 0.793D-03 0.499D-02-0.168D-02-0.379D-01 0.346D-02
 Coeff:      0.215D+00 0.815D+00
 Gap=     0.290 Goal=   None    Shift=    0.000
 RMSDP=7.11D-09 MaxDP=2.52D-07 DE=-4.64D-11 OVMax= 7.17D-07

 SCF Done:  E(RM062X) =  -1199.79195401     A.U. after   10 cycles
            NFock= 10  Conv=0.71D-08     -V/T= 2.0029
 KE= 1.196374371558D+03 PE=-4.658625076070D+03 EE= 1.356244835874D+03
 Leave Link  502 at Sat May 24 03:44:36 2025, MaxMem=  3758096384 cpu:             139.7 elap:              37.4
 (Enter /apps/easybuild-2022/easybuild/software/Compiler/NVHPC/22.11-CUDA-11.7.0/Gaussian/g16c01-CUDA-11.7.0/g16/l508.exe)
 QCSCF skips out because SCF is already converged.
 Leave Link  508 at Sat May 24 03:44:36 2025, MaxMem=  3758096384 cpu:               0.1 elap:               0.0
 (Enter /apps/easybuild-2022/easybuild/software/Compiler/NVHPC/22.11-CUDA-11.7.0/Gaussian/g16c01-CUDA-11.7.0/g16/l801.exe)
 DoSCS=F DFT=T ScalE2(SS,OS)=  1.000000  1.000000
 Range of M.O.s used for correlation:     1   366
 NBasis=   366 NAE=    49 NBE=    49 NFC=     0 NFV=     0
 NROrb=    366 NOA=    49 NOB=    49 NVA=   317 NVB=   317

 **** Warning!!: The largest alpha MO coefficient is  0.14840225D+02

 Leave Link  801 at Sat May 24 03:44:36 2025, MaxMem=  3758096384 cpu:               0.1 elap:               0.0
 (Enter /apps/easybuild-2022/easybuild/software/Compiler/NVHPC/22.11-CUDA-11.7.0/Gaussian/g16c01-CUDA-11.7.0/g16/l1101.exe)
 Leave Link 1101 at Sat May 24 03:44:36 2025, MaxMem=  3758096384 cpu:               0.1 elap:               0.0
 (Enter /apps/easybuild-2022/easybuild/software/Compiler/NVHPC/22.11-CUDA-11.7.0/Gaussian/g16c01-CUDA-11.7.0/g16/l1102.exe)
 Symmetrizing basis deriv contribution to polar:
 IMax=3 JMax=2 DiffMx= 0.00D+00
 Leave Link 1102 at Sat May 24 03:44:36 2025, MaxMem=  3758096384 cpu:               0.1 elap:               0.1
 (Enter /apps/easybuild-2022/easybuild/software/Compiler/NVHPC/22.11-CUDA-11.7.0/Gaussian/g16c01-CUDA-11.7.0/g16/l1110.exe)
 Leave Link 1110 at Sat May 24 03:44:36 2025, MaxMem=  3758096384 cpu:               0.1 elap:               0.0
 (Enter /apps/easybuild-2022/easybuild/software/Compiler/NVHPC/22.11-CUDA-11.7.0/Gaussian/g16c01-CUDA-11.7.0/g16/l1002.exe)
 Minotr:  Closed shell wavefunction.
 Leave Link 1002 at Sat May 24 03:44:36 2025, MaxMem=  3758096384 cpu:               0.1 elap:               0.0
 (Enter /apps/easybuild-2022/easybuild/software/Compiler/NVHPC/22.11-CUDA-11.7.0/Gaussian/g16c01-CUDA-11.7.0/g16/l701.exe)
 ... and contract with generalized density number  0.
 Compute integral first derivatives.
   1 Symmetry operations used in ECPInt.
 ECPInt:  NShTT=    8515 NPrTT=   27988 LenC2=    7879 LenP2D=   19066.
 LDataN:  DoStor=T MaxTD1= 7 Len=  274
 Leave Link  701 at Sat May 24 03:44:36 2025, MaxMem=  3758096384 cpu:               0.7 elap:               0.2
 (Enter /apps/easybuild-2022/easybuild/software/Compiler/NVHPC/22.11-CUDA-11.7.0/Gaussian/g16c01-CUDA-11.7.0/g16/l702.exe)
 L702 exits ... SP integral derivatives will be done elsewhere.
 Leave Link  702 at Sat May 24 03:44:36 2025, MaxMem=  3758096384 cpu:               0.1 elap:               0.0
 (Enter /apps/easybuild-2022/easybuild/software/Compiler/NVHPC/22.11-CUDA-11.7.0/Gaussian/g16c01-CUDA-11.7.0/g16/l703.exe)
 Integral derivatives from FoFJK, PRISM(SPDF).
 Compute integral first derivatives, UseDBF=F ICtDFT=           0.
 Calling FoFJK, ICntrl=      2127 FMM=F ISym2X=0 I1Cent= 0 IOpClX= 0 NMat=1 NMatS=1 NMatT=0.
 FoFJK:  IHMeth= 1 ICntrl=    2127 DoSepK=F KAlg= 0 I1Cent=           0 FoldK=F
 IRaf=         0 NMat=       1 IRICut=       1 DoRegI=T DoRafI=F ISym2E= 0 IDoP0=0 IntGTp=1.
 FoFCou: FMM=F IPFlag=           0 FMFlag=      100000 FMFlg1=         800
         NFxFlg=           0 DoJE=F BraDBF=F KetDBF=F FulRan=T
         wScrn=  0.000000 ICntrl=      2127 IOpCl=  0 I1Cent=           0 NGrid=           0
         NMat0=    1 NMatS0=      1 NMatT0=    0 NMatD0=    1 NMtDS0=    0 NMtDT0=    0
 Symmetry not used in FoFCou.
 Leave Link  703 at Sat May 24 03:44:48 2025, MaxMem=  3758096384 cpu:              92.4 elap:              12.0
 (Enter /apps/easybuild-2022/easybuild/software/Compiler/NVHPC/22.11-CUDA-11.7.0/Gaussian/g16c01-CUDA-11.7.0/g16/l716.exe)
 Dipole        =-2.11293661D-01 8.89175016D-01-2.81401461D-02
 Polarizability= 0.00000000D+00 0.00000000D+00 0.00000000D+00
                 0.00000000D+00 0.00000000D+00 0.00000000D+00
 -------------------------------------------------------------------
 Center     Atomic                   Forces (Hartrees/Bohr)
 Number     Number              X              Y              Z
 -------------------------------------------------------------------
      1        6          -0.000391708   -0.000129326    0.000252136
      2        6          -0.000469944   -0.001465884    0.001884580
      3        9           0.002511971   -0.000058880   -0.000215071
      4        9          -0.001127747   -0.000258306    0.000422581
      5       16           0.000416605    0.001612138   -0.001887987
      6        8          -0.000432810   -0.000082250   -0.000365320
      7        8          -0.000480493    0.000348288    0.000008758
      8        8           0.001034633    0.000447804   -0.000408661
      9        9          -0.000053701    0.000264868    0.000351333
     10        9          -0.000725934   -0.000672709   -0.000021362
     11        9          -0.000354209   -0.000037284    0.000013810
     12        1           0.000073337    0.000031542   -0.000034796
 -------------------------------------------------------------------
 Cartesian Forces:  Max     0.002511971 RMS     0.000813050
 Leave Link  716 at Sat May 24 03:44:49 2025, MaxMem=  3758096384 cpu:               0.1 elap:               0.0
 (Enter /apps/easybuild-2022/easybuild/software/Compiler/NVHPC/22.11-CUDA-11.7.0/Gaussian/g16c01-CUDA-11.7.0/g16/l123.exe)
 IRC-IRC-IRC-IRC-IRC-IRC-IRC-IRC-IRC-IRC-IRC-IRC-IRC-IRC-IRC-IRC-IRC-IRC
 Pt  3 Step number   1 out of a maximum of  20
 Using modified Bulirsch-Stoer corrector integration.
   Using distance weighted interpolants to fit PES.
 PreDWI: IReCr0= 2 IReCr1= 1 IReCr2= 1 IReCr3= 1
 Modified Bulirsch-Stoer Extrapolation Cycles:
    EPS =    0.000010000000000
    Cycle     1 NS=    48
      PEZero:  N= 2 I= 1 D=  4.02D-04 Err=  2.55D-06
    Cycle     2 NS=    64 Truncation Error =  0.000002545
 BS completed in    2 cycles and     112 integration steps.
 Maximum DWI energy   std dev =  0.000000067 at pt    47
 Maximum DWI gradient std dev =  0.003968239 at pt    28
 SUMMARY OF CORRECTOR INTEGRATION:
   Predictor End Point Energy = -1199.791954
   Old End Point Energy       = -1199.791954
   Corrected End Point Energy = -1199.791954
   Predictor End-Start Dist.  =     0.077115
   Old End-Start Dist.        =     0.077115
   New End-Start Dist.        =     0.077114
   New End-Old End Dist.      =     0.000272
 CORRECTOR INTEGRATION CONVERGENCE:
   Recorrection delta-x convergence threshold:    0.010000
   Delta-x Convergence Met
 Point Number:   3          Path Number:   1
                    CURRENT STRUCTURE
                Cartesian Coordinates (Ang):                
 ---------------------------------------------------------------------
 Center     Atomic                     Coordinates (Angstroms)
 Number     Number                        X           Y           Z
 ---------------------------------------------------------------------
      1          6                   -1.389858   -1.061286    0.038187
      2          6                   -0.380698   -0.117220    0.712362
      3          9                   -0.141029    1.013238   -0.704102
      4          9                   -1.013511    0.627708    1.548511
      5         16                    1.467825    0.650615   -0.136374
      6          8                    1.716632    1.363373    1.065819
      7          8                    1.904540   -0.625759   -0.546384
      8          8                    2.024319    1.584113   -1.283623
      9          9                   -0.881259   -1.609445   -1.047914
     10          9                   -1.646320   -2.014359    0.932835
     11          9                   -2.528224   -0.455260   -0.277813
     12          1                    1.989151    2.505470   -0.993585
 ---------------------------------------------------------------------
   CHANGE IN THE REACTION COORDINATE =    0.07711
   NET REACTION COORDINATE UP TO THIS POINT =    0.23136
  # OF POINTS ALONG THE PATH =   3
  # OF STEPS =   1

 Calculating another point on the path.
 Point Number  4 in REVERSE path direction.
 Using LQA Reaction Path Following.
   LQA: T_Est iteration completed in    3 iterations.
 IRC-IRC-IRC-IRC-IRC-IRC-IRC-IRC-IRC-IRC-IRC-IRC-IRC-IRC-IRC-IRC-IRC-IRC
 Leave Link  123 at Sat May 24 03:44:49 2025, MaxMem=  3758096384 cpu:               0.1 elap:               0.1
 (Enter /apps/easybuild-2022/easybuild/software/Compiler/NVHPC/22.11-CUDA-11.7.0/Gaussian/g16c01-CUDA-11.7.0/g16/l202.exe)
                          Input orientation:                          
 ---------------------------------------------------------------------
 Center     Atomic      Atomic             Coordinates (Angstroms)
 Number     Number       Type             X           Y           Z
 ---------------------------------------------------------------------
      1          6           0       -1.391029   -1.061659    0.038927
      2          6           0       -0.382040   -0.121550    0.717891
      3          9           0       -0.136354    1.013125   -0.704496
      4          9           0       -1.015626    0.627239    1.549309
      5         16           0        1.468275    0.652403   -0.138465
      6          8           0        1.715687    1.363201    1.065023
      7          8           0        1.903493   -0.625004   -0.546373
      8          8           0        2.026605    1.585100   -1.284522
      9          9           0       -0.881356   -1.608955   -1.047262
     10          9           0       -1.647673   -2.015613    0.932794
     11          9           0       -2.528887   -0.455331   -0.277787
     12          1           0        1.991710    2.506559   -0.994808
 ---------------------------------------------------------------------
                    Distance matrix (angstroms):
                    1          2          3          4          5
     1  C    0.000000
     2  C    1.537158   0.000000
     3  F    2.536064   1.836038   0.000000
     4  F    2.296640   1.285835   2.449830   0.000000
     5  S    3.338427   2.180829   1.739352   3.003161   0.000000
     6  O    4.072408   2.593346   2.585306   2.869886   1.419447
     7  O    3.374481   2.659979   2.620962   3.805424   1.409813
     8  O    4.520738   3.567055   2.311271   4.266528   1.579589
     9  F    1.318752   2.361663   2.747329   3.429398   3.385323
    10  F    1.332250   2.288118   3.760061   2.786439   4.239697
    11  F    1.327653   2.389923   2.839482   2.607718   4.150155
    12  H    5.024312   3.933826   2.615966   4.364452   2.108365
                    6          7          8          9         10
     6  O    0.000000
     7  O    2.566092   0.000000
     8  O    2.380393   2.333362   0.000000
     9  F    4.476615   2.995736   4.326027   0.000000
    10  F    4.769282   4.090538   5.601958   2.161766   0.000000
    11  F    4.809012   4.443750   5.092089   2.153439   2.162527
    12  H    2.371995   3.164738   0.966560   5.019433   6.116436
                   11         12
    11  F    0.000000
    12  H    5.451853   0.000000
 Symmetry turned off by external request.
 Stoichiometry    C2HF5O3S
 Rotational constants (GHZ):           1.8693096           0.6938686           0.6395140
 Leave Link  202 at Sat May 24 03:44:49 2025, MaxMem=  3758096384 cpu:               0.1 elap:               0.0
 (Enter /apps/easybuild-2022/easybuild/software/Compiler/NVHPC/22.11-CUDA-11.7.0/Gaussian/g16c01-CUDA-11.7.0/g16/l301.exe)
 Standard basis: def2TZVPP (5D, 7F)
 Ernie: Thresh=  0.10000D-02 Tol=  0.10000D-05 Strict=F.
   366 basis functions,   596 primitive gaussians,   423 cartesian basis functions
    49 alpha electrons       49 beta electrons
       nuclear repulsion energy       906.0826494310 Hartrees.
 IExCor= 4336 DFT=T Ex+Corr=M062X ExCW=0 ScaHFX=  0.540000
 ScaDFX=  1.000000  1.000000  1.000000  1.000000 ScalE2=  1.000000  1.000000
 IRadAn=      5 IRanWt=     -1 IRanGd=            0 ICorTp=0 IEmpDi=  4
 NAtoms=   12 NActive=   12 NUniq=   12 SFac= 1.00D+00 NAtFMM=   60 NAOKFM=F Big=F
 Integral buffers will be    131072 words long.
 Raffenetti 2 integral format.
 Two-electron integral symmetry is turned off.
 Leave Link  301 at Sat May 24 03:44:49 2025, MaxMem=  3758096384 cpu:               0.1 elap:               0.1
 (Enter /apps/easybuild-2022/easybuild/software/Compiler/NVHPC/22.11-CUDA-11.7.0/Gaussian/g16c01-CUDA-11.7.0/g16/l302.exe)
 NPDir=0 NMtPBC=     1 NCelOv=     1 NCel=       1 NClECP=     1 NCelD=      1
         NCelK=      1 NCelE2=     1 NClLst=     1 CellRange=     0.0.
 One-electron integrals computed using PRISM.
   1 Symmetry operations used in ECPInt.
 ECPInt:  NShTT=    8515 NPrTT=   27988 LenC2=    7877 LenP2D=   19064.
 LDataN:  DoStor=T MaxTD1= 6 Len=  172
 NBasis=   366 RedAO= T EigKep=  5.96D-04  NBF=   366
 NBsUse=   366 1.00D-06 EigRej= -1.00D+00 NBFU=   366
 Precomputing XC quadrature grid using
 IXCGrd= 4 IRadAn=           5 IRanWt=          -1 IRanGd=           0 AccXCQ= 0.00D+00.
 Generated NRdTot=       0 NPtTot=           0 NUsed=           0 NTot=          32
 NSgBfM=   420   419   420   420   420 MxSgAt=    12 MxSgA2=    12.
 Leave Link  302 at Sat May 24 03:44:49 2025, MaxMem=  3758096384 cpu:               1.0 elap:               0.2
 (Enter /apps/easybuild-2022/easybuild/software/Compiler/NVHPC/22.11-CUDA-11.7.0/Gaussian/g16c01-CUDA-11.7.0/g16/l303.exe)
 DipDrv:  MaxL=1.
 Leave Link  303 at Sat May 24 03:44:49 2025, MaxMem=  3758096384 cpu:               0.2 elap:               0.1
 (Enter /apps/easybuild-2022/easybuild/software/Compiler/NVHPC/22.11-CUDA-11.7.0/Gaussian/g16c01-CUDA-11.7.0/g16/l401.exe)
 Initial guess from the checkpoint file:  "2003846667223680600001_r12_insertion_R_3_2_5_IRC_R.chk"
 B after Tr=     0.000021    0.000025   -0.000021
         Rot=    1.000000    0.000003   -0.000004   -0.000001 Ang=   0.00 deg.
 Guess basis will be translated and rotated to current coordinates.
 JPrj=2 DoOrth=T DoCkMO=T.
 Generating alternative initial guess.
 ExpMin= 9.52D-02 ExpMax= 6.07D+04 ExpMxC= 2.07D+03 IAcc=3 IRadAn=         5 AccDes= 0.00D+00
 Harris functional with IExCor= 1009 and IRadAn=       5 diagonalized for initial guess.
 HarFok:  IExCor= 1009 AccDes= 0.00D+00 IRadAn=         5 IDoV= 1 UseB2=F ITyADJ=14
 ICtDFT=  3500011 ScaDFX=  1.000000  1.000000  1.000000  1.000000
 FoFCou: FMM=F IPFlag=           0 FMFlag=      100000 FMFlg1=           0
         NFxFlg=           0 DoJE=T BraDBF=F KetDBF=T FulRan=T
[...]
 Gap=     0.272 Goal=   None    Shift=    0.000
 RMSDP=1.27D-06 MaxDP=1.00D-04 DE=-6.49D-07 OVMax= 1.05D-04

 Cycle   5  Pass 1  IDiag  1:
 E= -1199.82413203959     Delta-E=       -0.000000040558 Rises=F Damp=F
 DIIS: error= 1.08D-05 at cycle   3 NSaved=   3.
 NSaved= 3 IEnMin= 3 EnMin= -1199.82413203959     IErMin= 3 ErrMin= 1.08D-05
 ErrMax= 1.08D-05  0.00D+00 EMaxC= 1.00D-01 BMatC= 1.43D-07 BMatP= 1.97D-07
 IDIUse=1 WtCom= 1.00D+00 WtEn= 0.00D+00
 Coeff-Com: -0.385D-01 0.462D+00 0.577D+00
 Coeff:     -0.385D-01 0.462D+00 0.577D+00
 Gap=     0.272 Goal=   None    Shift=    0.000
 RMSDP=6.07D-07 MaxDP=4.71D-05 DE=-4.06D-08 OVMax= 5.22D-05

 Cycle   6  Pass 1  IDiag  1:
 E= -1199.82413212586     Delta-E=       -0.000000086271 Rises=F Damp=F
 DIIS: error= 9.96D-07 at cycle   4 NSaved=   4.
 NSaved= 4 IEnMin= 4 EnMin= -1199.82413212586     IErMin= 4 ErrMin= 9.96D-07
 ErrMax= 9.96D-07  0.00D+00 EMaxC= 1.00D-01 BMatC= 1.07D-09 BMatP= 1.43D-07
 IDIUse=1 WtCom= 1.00D+00 WtEn= 0.00D+00
 Coeff-Com: -0.162D-01 0.128D+00 0.181D+00 0.707D+00
 Coeff:     -0.162D-01 0.128D+00 0.181D+00 0.707D+00
 Gap=     0.272 Goal=   None    Shift=    0.000
 RMSDP=8.01D-08 MaxDP=4.55D-06 DE=-8.63D-08 OVMax= 7.74D-06

 Cycle   7  Pass 1  IDiag  1:
 E= -1199.82413212652     Delta-E=       -0.000000000666 Rises=F Damp=F
 DIIS: error= 6.26D-07 at cycle   5 NSaved=   5.
 NSaved= 5 IEnMin= 5 EnMin= -1199.82413212652     IErMin= 5 ErrMin= 6.26D-07
 ErrMax= 6.26D-07  0.00D+00 EMaxC= 1.00D-01 BMatC= 3.30D-10 BMatP= 1.07D-09
 IDIUse=1 WtCom= 1.00D+00 WtEn= 0.00D+00
 Coeff-Com:  0.113D-03-0.268D-01-0.234D-01 0.345D+00 0.705D+00
 Coeff:      0.113D-03-0.268D-01-0.234D-01 0.345D+00 0.705D+00
 Gap=     0.272 Goal=   None    Shift=    0.000
 RMSDP=4.21D-08 MaxDP=2.94D-06 DE=-6.66D-10 OVMax= 4.09D-06

 Cycle   8  Pass 1  IDiag  1:
 E= -1199.82413212680     Delta-E=       -0.000000000274 Rises=F Damp=F
 DIIS: error= 1.27D-07 at cycle   6 NSaved=   6.
 NSaved= 6 IEnMin= 6 EnMin= -1199.82413212680     IErMin= 6 ErrMin= 1.27D-07
 ErrMax= 1.27D-07  0.00D+00 EMaxC= 1.00D-01 BMatC= 2.36D-11 BMatP= 3.30D-10
 IDIUse=1 WtCom= 1.00D+00 WtEn= 0.00D+00
 Coeff-Com:  0.146D-02-0.209D-01-0.251D-01 0.539D-01 0.271D+00 0.719D+00
 Coeff:      0.146D-02-0.209D-01-0.251D-01 0.539D-01 0.271D+00 0.719D+00
 Gap=     0.272 Goal=   None    Shift=    0.000
 RMSDP=1.33D-08 MaxDP=6.97D-07 DE=-2.74D-10 OVMax= 2.79D-06

 Cycle   9  Pass 1  IDiag  1:
 E= -1199.82413212686     Delta-E=       -0.000000000067 Rises=F Damp=F
 DIIS: error= 5.84D-08 at cycle   7 NSaved=   7.
 NSaved= 7 IEnMin= 7 EnMin= -1199.82413212686     IErMin= 7 ErrMin= 5.84D-08
 ErrMax= 5.84D-08  0.00D+00 EMaxC= 1.00D-01 BMatC= 2.53D-12 BMatP= 2.36D-11
 IDIUse=1 WtCom= 1.00D+00 WtEn= 0.00D+00
 Coeff-Com:  0.484D-03-0.511D-02-0.737D-02-0.130D-01 0.403D-01 0.267D+00
 Coeff-Com:  0.718D+00
 Coeff:      0.484D-03-0.511D-02-0.737D-02-0.130D-01 0.403D-01 0.267D+00
 Coeff:      0.718D+00
 Gap=     0.272 Goal=   None    Shift=    0.000
 RMSDP=4.93D-09 MaxDP=1.57D-07 DE=-6.73D-11 OVMax= 1.31D-06

 SCF Done:  E(RM062X) =  -1199.82413213     A.U. after    9 cycles
            NFock=  9  Conv=0.49D-08     -V/T= 2.0028
 KE= 1.196481895329D+03 PE=-4.601118351875D+03 EE= 1.327527654628D+03
 Leave Link  502 at Sat May 24 05:03:40 2025, MaxMem=  3758096384 cpu:             128.6 elap:              34.3
 (Enter /apps/easybuild-2022/easybuild/software/Compiler/NVHPC/22.11-CUDA-11.7.0/Gaussian/g16c01-CUDA-11.7.0/g16/l508.exe)
 QCSCF skips out because SCF is already converged.
 Leave Link  508 at Sat May 24 05:03:40 2025, MaxMem=  3758096384 cpu:               0.1 elap:               0.0
 (Enter /apps/easybuild-2022/easybuild/software/Compiler/NVHPC/22.11-CUDA-11.7.0/Gaussian/g16c01-CUDA-11.7.0/g16/l801.exe)
 DoSCS=F DFT=T ScalE2(SS,OS)=  1.000000  1.000000
 Range of M.O.s used for correlation:     1   366
 NBasis=   366 NAE=    49 NBE=    49 NFC=     0 NFV=     0
 NROrb=    366 NOA=    49 NOB=    49 NVA=   317 NVB=   317

 **** Warning!!: The largest alpha MO coefficient is  0.16232600D+02

 Leave Link  801 at Sat May 24 05:03:40 2025, MaxMem=  3758096384 cpu:               0.1 elap:               0.0
 (Enter /apps/easybuild-2022/easybuild/software/Compiler/NVHPC/22.11-CUDA-11.7.0/Gaussian/g16c01-CUDA-11.7.0/g16/l1101.exe)
 Leave Link 1101 at Sat May 24 05:03:40 2025, MaxMem=  3758096384 cpu:               0.1 elap:               0.0
 (Enter /apps/easybuild-2022/easybuild/software/Compiler/NVHPC/22.11-CUDA-11.7.0/Gaussian/g16c01-CUDA-11.7.0/g16/l1102.exe)
 Symmetrizing basis deriv contribution to polar:
 IMax=3 JMax=2 DiffMx= 0.00D+00
 Leave Link 1102 at Sat May 24 05:03:40 2025, MaxMem=  3758096384 cpu:               0.1 elap:               0.0
 (Enter /apps/easybuild-2022/easybuild/software/Compiler/NVHPC/22.11-CUDA-11.7.0/Gaussian/g16c01-CUDA-11.7.0/g16/l1110.exe)
 Leave Link 1110 at Sat May 24 05:03:40 2025, MaxMem=  3758096384 cpu:               0.1 elap:               0.0
 (Enter /apps/easybuild-2022/easybuild/software/Compiler/NVHPC/22.11-CUDA-11.7.0/Gaussian/g16c01-CUDA-11.7.0/g16/l1002.exe)
 Minotr:  Closed shell wavefunction.
 Leave Link 1002 at Sat May 24 05:03:40 2025, MaxMem=  3758096384 cpu:               0.1 elap:               0.0
 (Enter /apps/easybuild-2022/easybuild/software/Compiler/NVHPC/22.11-CUDA-11.7.0/Gaussian/g16c01-CUDA-11.7.0/g16/l701.exe)
 ... and contract with generalized density number  0.
 Compute integral first derivatives.
   1 Symmetry operations used in ECPInt.
 ECPInt:  NShTT=    8515 NPrTT=   27988 LenC2=    7739 LenP2D=   18569.
 LDataN:  DoStor=T MaxTD1= 7 Len=  274
 Leave Link  701 at Sat May 24 05:03:41 2025, MaxMem=  3758096384 cpu:               0.8 elap:               0.2
 (Enter /apps/easybuild-2022/easybuild/software/Compiler/NVHPC/22.11-CUDA-11.7.0/Gaussian/g16c01-CUDA-11.7.0/g16/l702.exe)
 L702 exits ... SP integral derivatives will be done elsewhere.
 Leave Link  702 at Sat May 24 05:03:41 2025, MaxMem=  3758096384 cpu:               0.1 elap:               0.0
 (Enter /apps/easybuild-2022/easybuild/software/Compiler/NVHPC/22.11-CUDA-11.7.0/Gaussian/g16c01-CUDA-11.7.0/g16/l703.exe)
 Integral derivatives from FoFJK, PRISM(SPDF).
 Compute integral first derivatives, UseDBF=F ICtDFT=           0.
 Calling FoFJK, ICntrl=      2127 FMM=F ISym2X=0 I1Cent= 0 IOpClX= 0 NMat=1 NMatS=1 NMatT=0.
 FoFJK:  IHMeth= 1 ICntrl=    2127 DoSepK=F KAlg= 0 I1Cent=           0 FoldK=F
 IRaf=         0 NMat=       1 IRICut=       1 DoRegI=T DoRafI=F ISym2E= 0 IDoP0=0 IntGTp=1.
 FoFCou: FMM=F IPFlag=           0 FMFlag=      100000 FMFlg1=         800
         NFxFlg=           0 DoJE=F BraDBF=F KetDBF=F FulRan=T
         wScrn=  0.000000 ICntrl=      2127 IOpCl=  0 I1Cent=           0 NGrid=           0
         NMat0=    1 NMatS0=      1 NMatT0=    0 NMatD0=    1 NMtDS0=    0 NMtDT0=    0
 Symmetry not used in FoFCou.
 Leave Link  703 at Sat May 24 05:03:51 2025, MaxMem=  3758096384 cpu:              81.2 elap:              10.7
 (Enter /apps/easybuild-2022/easybuild/software/Compiler/NVHPC/22.11-CUDA-11.7.0/Gaussian/g16c01-CUDA-11.7.0/g16/l716.exe)
 Dipole        = 1.54853150D-01 1.35410942D+00-3.66476382D-01
 Polarizability= 0.00000000D+00 0.00000000D+00 0.00000000D+00
                 0.00000000D+00 0.00000000D+00 0.00000000D+00
 -------------------------------------------------------------------
 Center     Atomic                   Forces (Hartrees/Bohr)
 Number     Number              X              Y              Z
 -------------------------------------------------------------------
      1        6          -0.000990544   -0.000693856    0.000752248
      2        6          -0.001363815   -0.000984021    0.001509888
      3        9           0.001566489    0.000310438   -0.000446542
      4        9          -0.002357842   -0.001127035    0.001261154
      5       16           0.002690956    0.001731260   -0.001669785
      6        8           0.001357696    0.000992318   -0.000891943
      7        8           0.001614374    0.000862815   -0.000562886
      8        8           0.001244893    0.000798924   -0.000998611
      9        9           0.000177826    0.000020028    0.001815953
     10        9          -0.003362994   -0.001820115   -0.001040208
     11        9          -0.000661005   -0.000144216    0.000336243
     12        1           0.000083964    0.000053461   -0.000065511
 -------------------------------------------------------------------
 Cartesian Forces:  Max     0.003362994 RMS     0.001306274
 Leave Link  716 at Sat May 24 05:03:51 2025, MaxMem=  3758096384 cpu:               0.1 elap:               0.0
 (Enter /apps/easybuild-2022/easybuild/software/Compiler/NVHPC/22.11-CUDA-11.7.0/Gaussian/g16c01-CUDA-11.7.0/g16/l123.exe)
 IRC-IRC-IRC-IRC-IRC-IRC-IRC-IRC-IRC-IRC-IRC-IRC-IRC-IRC-IRC-IRC-IRC-IRC
 Pt100 Step number   1 out of a maximum of  20
 Using modified Bulirsch-Stoer corrector integration.
   Using distance weighted interpolants to fit PES.
 PreDWI: IReCr0= 2 IReCr1= 1 IReCr2= 1 IReCr3= 1
 Modified Bulirsch-Stoer Extrapolation Cycles:
    EPS =    0.000010000000000
    Cycle     1 NS=    48
      PEZero:  N= 2 I= 1 D=  4.02D-04 Err=  1.85D-06
    Cycle     2 NS=    64 Truncation Error =  0.000001853
 BS completed in    2 cycles and     112 integration steps.
 Maximum DWI energy   std dev =  0.000000004 at pt    47
 Maximum DWI gradient std dev =  0.000923515 at pt    29
 SUMMARY OF CORRECTOR INTEGRATION:
   Predictor End Point Energy = -1199.824132
   Old End Point Energy       = -1199.824132
   Corrected End Point Energy = -1199.824132
   Predictor End-Start Dist.  =     0.077122
   Old End-Start Dist.        =     0.077122
   New End-Start Dist.        =     0.077121
   New End-Old End Dist.      =     0.000057
 CORRECTOR INTEGRATION CONVERGENCE:
   Recorrection delta-x convergence threshold:    0.010000
   Delta-x Convergence Met
 Point Number: 100          Path Number:   1
                    CURRENT STRUCTURE
                Cartesian Coordinates (Ang):                
 ---------------------------------------------------------------------
 Center     Atomic                     Coordinates (Angstroms)
 Number     Number                        X           Y           Z
 ---------------------------------------------------------------------
      1          6                   -1.524829   -1.150502    0.159046
      2          6                   -0.584852   -0.413934    1.151040
      3          9                    0.121490    1.000951   -0.726435
      4          9                   -1.272382    0.557472    1.634568
      5         16                    1.622707    0.803047   -0.305144
      6          8                    1.751432    1.420181    0.955883
      7          8                    1.947001   -0.529324   -0.592210
      8          8                    2.264546    1.701928   -1.402326
      9          9                   -0.870901   -1.563493   -0.913823
     10          9                   -1.926968   -2.213841    0.861544
     11          9                   -2.592504   -0.466211   -0.237147
     12          1                    2.313158    2.619242   -1.097473
 ---------------------------------------------------------------------
   CHANGE IN THE REACTION COORDINATE =    0.07712
   NET REACTION COORDINATE UP TO THIS POINT =    7.71204
  # OF POINTS ALONG THE PATH = 100
  # OF STEPS =   1

 Maximum number of steps reached.
 Calculation of REVERSE path complete.
 Reaction path calculation complete.
 
 Energies reported relative to the TS energy of       -1199.791818
 --------------------------------------------------------------------------
    Summary of reaction path following
 --------------------------------------------------------------------------
                        Energy    RxCoord
   1                   -0.03231  -7.71204
   2                   -0.03217  -7.63492
   3                   -0.03203  -7.55780
   4                   -0.03188  -7.48068
   5                   -0.03172  -7.40356
   6                   -0.03156  -7.32643
   7                   -0.03140  -7.24931
   8                   -0.03123  -7.17219
   9                   -0.03105  -7.09507
  10                   -0.03087  -7.01795
  11                   -0.03069  -6.94083
  12                   -0.03050  -6.86371
  13                   -0.03031  -6.78658
  14                   -0.03011  -6.70946
  15                   -0.02991  -6.63234
  16                   -0.02970  -6.55522
  17                   -0.02948  -6.47810
  18                   -0.02926  -6.40098
  19                   -0.02904  -6.32386
  20                   -0.02880  -6.24673
  21                   -0.02857  -6.16961
  22                   -0.02832  -6.09249
  23                   -0.02807  -6.01537
  24                   -0.02782  -5.93825
  25                   -0.02756  -5.86113
  26                   -0.02729  -5.78401
  27                   -0.02701  -5.70689
  28                   -0.02673  -5.62976
  29                   -0.02645  -5.55264
  30                   -0.02615  -5.47552
  31                   -0.02585  -5.39840
  32                   -0.02555  -5.32128
  33                   -0.02523  -5.24416
  34                   -0.02491  -5.16704
  35                   -0.02458  -5.08992
  36                   -0.02425  -5.01280
  37                   -0.02391  -4.93568
  38                   -0.02356  -4.85856
  39                   -0.02320  -4.78144
  40                   -0.02284  -4.70432
  41                   -0.02247  -4.62720
  42                   -0.02209  -4.55008
  43                   -0.02171  -4.47296
  44                   -0.02131  -4.39584
  45                   -0.02091  -4.31872
  46                   -0.02051  -4.24160
  47                   -0.02009  -4.16448
  48                   -0.01967  -4.08736
  49                   -0.01925  -4.01024
  50                   -0.01881  -3.93312
  51                   -0.01837  -3.85600
  52                   -0.01793  -3.77888
  53                   -0.01748  -3.70175
  54                   -0.01702  -3.62463
  55                   -0.01656  -3.54751
  56                   -0.01610  -3.47039
  57                   -0.01563  -3.39327
  58                   -0.01516  -3.31615
  59                   -0.01469  -3.23903
  60                   -0.01422  -3.16191
  61                   -0.01375  -3.08479
  62                   -0.01327  -3.00767
  63                   -0.01280  -2.93055
  64                   -0.01233  -2.85343
  65                   -0.01185  -2.77631
  66                   -0.01138  -2.69919
  67                   -0.01091  -2.62207
  68                   -0.01044  -2.54495
  69                   -0.00997  -2.46783
  70                   -0.00951  -2.39071
  71                   -0.00905  -2.31359
  72                   -0.00859  -2.23646
  73                   -0.00814  -2.15934
  74                   -0.00769  -2.08222
  75                   -0.00725  -2.00510
  76                   -0.00681  -1.92798
  77                   -0.00638  -1.85086
  78                   -0.00595  -1.77374
  79                   -0.00554  -1.69662
  80                   -0.00513  -1.61950
  81                   -0.00472  -1.54238
  82                   -0.00433  -1.46526
  83                   -0.00395  -1.38814
  84                   -0.00358  -1.31102
  85                   -0.00322  -1.23390
  86                   -0.00288  -1.15678
  87                   -0.00254  -1.07966
  88                   -0.00223  -1.00254
  89                   -0.00193  -0.92543
  90                   -0.00164  -0.84831
  91                   -0.00138  -0.77119
  92                   -0.00113  -0.69407
  93                   -0.00091  -0.61695
  94                   -0.00070  -0.53983
  95                   -0.00052  -0.46271
  96                   -0.00037  -0.38559
  97                   -0.00024  -0.30847
  98                   -0.00014  -0.23136
  99                   -0.00006  -0.15424
 100                   -0.00002  -0.07713
 101                    0.00000   0.00000
 --------------------------------------------------------------------------
 
 Total number of points:                  100
 Total number of gradient calculations:   100
 Total number of Hessian calculations:      0
 IRC-IRC-IRC-IRC-IRC-IRC-IRC-IRC-IRC-IRC-IRC-IRC-IRC-IRC-IRC-IRC-IRC-IRC
 Leave Link  123 at Sat May 24 05:03:51 2025, MaxMem=  3758096384 cpu:               0.1 elap:               0.1
 (Enter /apps/easybuild-2022/easybuild/software/Compiler/NVHPC/22.11-CUDA-11.7.0/Gaussian/g16c01-CUDA-11.7.0/g16/l202.exe)
                          Input orientation:                          
 ---------------------------------------------------------------------
 Center     Atomic      Atomic             Coordinates (Angstroms)
 Number     Number       Type             X           Y           Z
 ---------------------------------------------------------------------
      1          6           0       -1.524828   -1.150502    0.159047
      2          6           0       -0.584851   -0.413932    1.151045
      3          9           0        0.121488    1.000952   -0.726435
      4          9           0       -1.272381    0.557471    1.634565
      5         16           0        1.622707    0.803047   -0.305144
      6          8           0        1.751431    1.420180    0.955882
      7          8           0        1.947000   -0.529323   -0.592209
      8          8           0        2.264546    1.701928   -1.402326
      9          9           0       -0.870901   -1.563493   -0.913823
     10          9           0       -1.926969   -2.213842    0.861544
     11          9           0       -2.592505   -0.466211   -0.237147
     12          1           0        2.313163    2.619240   -1.097474
 ---------------------------------------------------------------------
                    Distance matrix (angstroms):
                    1          2          3          4          5
     1  C    0.000000
     2  C    1.552467   0.000000
     3  F    2.850121   2.454739   0.000000
     4  F    2.271135   1.284567   2.777385   0.000000
     5  S    3.733470   2.911157   1.571722   3.493467   0.000000
     6  O    4.239955   2.976620   2.379633   3.216879   1.409826
     7  O    3.606083   3.076120   2.385844   4.062518   1.400993
     8  O    4.993355   4.372143   2.353910   4.800244   1.556841
     9  F    1.322585   2.380545   2.756144   3.339754   3.491287
    10  F    1.336380   2.263795   4.129498   2.950631   4.802393
    11  F    1.328593   2.441411   3.123736   2.508776   4.402687
    12  H    5.524488   4.759669   2.749539   4.956919   2.098350
                    6          7          8          9         10
     6  O    0.000000
     7  O    2.497077   0.000000
     8  O    2.429777   2.394913   0.000000
     9  F    4.390299   3.018859   4.553311   0.000000
    10  F    5.171619   4.467509   6.166617   2.165678   0.000000
    11  F    4.883806   4.553807   5.445127   2.150777   2.168934
    12  H    2.443268   3.209800   0.967864   5.259967   6.721247
                   11         12
    11  F    0.000000
    12  H    5.858818   0.000000
 Symmetry turned off by external request.
 Stoichiometry    C2HF5O3S
 Rotational constants (GHZ):           1.9210816           0.5936410           0.5483041
 Leave Link  202 at Sat May 24 05:03:52 2025, MaxMem=  3758096384 cpu:               0.1 elap:               0.0
 (Enter /apps/easybuild-2022/easybuild/software/Compiler/NVHPC/22.11-CUDA-11.7.0/Gaussian/g16c01-CUDA-11.7.0/g16/l9999.exe)

 This type of calculation cannot be archived.


 SEEN ON A WALL AT THE UNIVERSITY OF ILLINOIS AT CHICAGO CIRCLE:

 TO DO IS TO BE  -- SOCRATES
 TO BE IS TO DO  -- SARTRE
 OO BE DO BE DO  -- SINATRA
 Job cpu time:       0 days  6 hours 31 minutes 44.4 seconds.
 Elapsed time:       0 days  1 hours 21 minutes  9.4 seconds.
 File lengths (MBytes):  RWF=     63 Int=      0 D2E=      0 Chk=     13 Scr=      1
 Normal termination of Gaussian 16 at Sat May 24 05:03:52 2025.
done
