 Entering Gaussian System, Link 0=g16
 Initial command:
 /apps/easybuild-2022/easybuild/software/Compiler/NVHPC/22.11-CUDA-11.7.0/Gaussian/g16c01-CUDA-11.7.0/g16/l1.exe "/tmp/Gau-92936.inp" -scrdir="/tmp/"
 Entering Link 1 = /apps/easybuild-2022/easybuild/software/Compiler/NVHPC/22.11-CUDA-11.7.0/Gaussian/g16c01-CUDA-11.7.0/g16/l1.exe PID=     92937.
  
 Copyright (c) 1988-2019, Gaussian, Inc.  All Rights Reserved.
  
 This is part of the Gaussian(R) 16 program.  It is based on
 the Gaussian(R) 09 system (copyright 2009, Gaussian, Inc.),
 the Gaussian(R) 03 system (copyright 2003, Gaussian, Inc.),
 the Gaussian(R) 98 system (copyright 1998, Gaussian, Inc.),
 the Gaussian(R) 94 system (copyright 1995, Gaussian, Inc.),
 the Gaussian 92(TM) system (copyright 1992, Gaussian, Inc.),
 the Gaussian 90(TM) system (copyright 1990, Gaussian, Inc.),
 the Gaussian 88(TM) system (copyright 1988, Gaussian, Inc.),
 the Gaussian 86(TM) system (copyright 1986, Carnegie Mellon
 University), and the Gaussian 82(TM) system (copyright 1983,
 Carnegie Mellon University). Gaussian is a federally registered
 trademark of Gaussian, Inc.
  
 This software contains proprietary and confidential information,
 including trade secrets, belonging to Gaussian, Inc.
  
 This software is provided under written license and may be
 used, copied, transmitted, or stored only in accord with that
 written license.
  
 The following legend is applicable only to US Government
 contracts under FAR:
  
                    RESTRICTED RIGHTS LEGEND
  
 Use, reproduction and disclosure by the US Government is
 subject to restrictions as set forth in subparagraphs (a)
 and (c) of the Commercial Computer Software - Restricted
 Rights clause in FAR 52.227-19.
  
 Gaussian, Inc.
 340 Quinnipiac St., Bldg. 40, Wallingford CT 06492
  
  
 ---------------------------------------------------------------
 Warning -- This program may not be used in any manner that
 competes with the business of Gaussian, Inc. or will provide
 assistance to any competitor of Gaussian, Inc.  The licensee
 of this program is prohibited from giving any competitor of
 Gaussian, Inc. access to this program.  By using this program,
 the user acknowledges that Gaussian, Inc. is engaged in the
 business of creating and licensing software in the field of
 computational chemistry and represents and warrants to the
 licensee that it is not a competitor of Gaussian, Inc. and that
 it will not use this program in any manner prohibited above.
 ---------------------------------------------------------------
  

 Cite this work as:
 Gaussian 16, Revision C.01,
 M. J. Frisch, G. W. Trucks, H. B. Schlegel, G. E. Scuseria, 
 M. A. Robb, J. R. Cheeseman, G. Scalmani, V. Barone, 
 G. A. Petersson, H. Nakatsuji, X. Li, M. Caricato, A. V. Marenich, 
 J. Bloino, B. G. Janesko, R. Gomperts, B. Mennucci, H. P. Hratchian, 
 J. V. Ortiz, A. F. Izmaylov, J. L. Sonnenberg, D. Williams-Young, 
 F. Ding, F. Lipparini, F. Egidi, J. Goings, B. Peng, A. Petrone, 
 T. Henderson, D. Ranasinghe, V. G. Zakrzewski, J. Gao, N. Rega, 
 G. Zheng, W. Liang, M. Hada, M. Ehara, K. Toyota, R. Fukuda, 
 J. Hasegawa, M. Ishida, T. Nakajima, Y. Honda, O. Kitao, H. Nakai, 
 T. Vreven, K. Throssell, J. A. Montgomery, Jr., J. E. Peralta, 
 F. Ogliaro, M. J. Bearpark, J. J. Heyd, E. N. Brothers, K. N. Kudin, 
 V. N. Staroverov, T. A. Keith, R. Kobayashi, J. Normand, 
 K. Raghavachari, A. P. Rendell, J. C. Burant, S. S. Iyengar, 
 J. Tomasi, M. Cossi, J. M. Millam, M. Klene, C. Adamo, R. Cammi, 
 J. W. Ochterski, R. L. Martin, K. Morokuma, O. Farkas, 
 J. B. Foresman, and D. J. Fox, Gaussian, Inc., Wallingford CT, 2019.
 
 ******************************************
 Gaussian 16:  ES64L-G16RevC.01  3-Jul-2019
                24-May-2025 
 ******************************************
 %mem=28GB
 %chk=2003846667223680600001_R_Addition_MultipleBond_5_2_3
 %nprocshared=8
 Will use up to    8 processors via shared memory.
 ----------------------------------------------------------------------
 #P mp2/6-31G Symm(None) scf(xqc) pop(None) guess(Mix,Always) opt(NoFre
 eze,TS,CalcAll,NoEigentest,MaxCycle=999,Cartesian)
 ----------------------------------------------------------------------
 1/5=1,6=999,10=4,11=1,18=10,29=2000,38=1/1,3;
 2/12=2,15=3,17=6,18=5,29=2,40=1/2;
 3/5=1,6=6,11=9,25=1,30=1,71=2,140=1/1,2,3;
 4/13=-1/1;
 5/5=2,8=3,13=1,38=5/2,8;
 8/6=3,8=1,10=2,19=11,30=-1/1;
 9/15=3,16=-3/6;
 11/6=1,8=1,15=11,17=12,24=-1,27=1,28=-2,29=300,31=1,32=6,42=3/1,2,10;
 10/6=2,21=1,31=1/2;
 8/6=4,8=1,10=2,19=11,30=-1/11,4;
 10/5=1,20=4,31=1/2;
 11/12=2,14=11,16=1,17=2,28=-2,31=1,42=3,76=2/2,10,12;
 7/7=1,10=1,12=2,25=1,30=1,44=2/1,2,3,16;
 1/5=1,6=999,10=4,11=1,18=10/3(3);
 2/15=3,29=1/2;
 7/7=1,8=1,9=1,25=1,30=1,44=-1/16;
 99/12=1/99;
 2/15=3,29=1/2;
 3/5=1,6=6,11=9,25=1,30=1,71=2,140=1/1,2,3;
 4/13=-1/1;
 5/5=2,8=3,13=1,38=5/2,8;
 8/6=3,8=1,10=2,19=11,30=-1/1;
 9/15=3,16=-3/6;
 11/6=1,8=1,15=11,17=12,24=-1,27=1,28=-2,29=300,31=1,32=6,42=3/1,2,10;
 10/6=2,21=1,31=1/2;
 8/6=4,8=1,10=2,19=11,30=-1/11,4;
 10/5=1,20=4,31=1/2;
 11/12=2,14=11,16=1,17=2,28=-2,31=1,42=3,76=2/2,10,12;
 7/7=1,10=1,12=2,25=1,30=1,44=2/1,2,3,16;
 1/5=1,6=999,10=4,11=1,18=10/3(-12);
 2/15=3,29=1/2;
 7/7=1,8=1,9=1,25=1,30=1,44=-1/16;
 99/12=1/99;
 Leave Link    1 at Sat May 24 03:45:25 2025, MaxMem=  3758096384 cpu:               0.0 elap:               0.0
 (Enter /apps/easybuild-2022/easybuild/software/Compiler/NVHPC/22.11-CUDA-11.7.0/Gaussian/g16c01-CUDA-11.7.0/g16/l101.exe)
 ------------------------------
 Gaussian input prepared by ASE
 ------------------------------
 Symbolic Z-matrix:
 Charge =  0 Multiplicity = 1
 C                    -0.65623  -1.32913   0.11255 
 C                     0.03082   0.0426    0.13129 
 F                    -0.16668   0.70114  -1.08335 
 F                    -0.43102   0.80359   1.19519 
 S                     2.02482  -0.06485   0.37029 
 O                     2.36703  -0.07736   1.91571 
 O                     2.56951  -1.15391  -0.66231 
 O                     2.35743   1.61636  -0.23078 
 F                    -0.37181  -1.99549  -1.07007 
 F                    -0.18976  -2.08443   1.1876 
 F                    -2.03452  -1.17784   0.22966 
 H                     2.35647   1.6076   -1.22578 
 
 ITRead=  0  0  0  0  0  0  0  0  0  0  0  0
 MicOpt= -1 -1 -1 -1 -1 -1 -1 -1 -1 -1 -1 -1
 NAtoms=     12 NQM=       12 NQMF=       0 NMMI=      0 NMMIF=      0
                NMic=       0 NMicF=      0.
                    Isotopes and Nuclear Properties:
 (Nuclear quadrupole moments (NQMom) in fm**2, nuclear magnetic moments (NMagM)
  in nuclear magnetons)

  Atom         1           2           3           4           5           6           7           8           9          10
 IAtWgt=          12          12          19          19          32          16          16          16          19          19
 AtmWgt=  12.0000000  12.0000000  18.9984032  18.9984032  31.9720718  15.9949146  15.9949146  15.9949146  18.9984032  18.9984032
 NucSpn=           0           0           1           1           0           0           0           0           1           1
 AtZEff=  -0.0000000  -0.0000000  -0.0000000  -0.0000000  -0.0000000  -0.0000000  -0.0000000  -0.0000000  -0.0000000  -0.0000000
 NQMom=    0.0000000   0.0000000   0.0000000   0.0000000   0.0000000   0.0000000   0.0000000   0.0000000   0.0000000   0.0000000
 NMagM=    0.0000000   0.0000000   2.6288670   2.6288670   0.0000000   0.0000000   0.0000000   0.0000000   2.6288670   2.6288670
 AtZNuc=   6.0000000   6.0000000   9.0000000   9.0000000  16.0000000   8.0000000   8.0000000   8.0000000   9.0000000   9.0000000

  Atom        11          12
 IAtWgt=          19           1
 AtmWgt=  18.9984032   1.0078250
 NucSpn=           1           1
 AtZEff=  -0.0000000  -0.0000000
 NQMom=    0.0000000   0.0000000
 NMagM=    2.6288670   2.7928460
 AtZNuc=   9.0000000   1.0000000
 Leave Link  101 at Sat May 24 03:45:25 2025, MaxMem=  3758096384 cpu:               0.1 elap:               0.1
 (Enter /apps/easybuild-2022/easybuild/software/Compiler/NVHPC/22.11-CUDA-11.7.0/Gaussian/g16c01-CUDA-11.7.0/g16/l103.exe)

 GradGradGradGradGradGradGradGradGradGradGradGradGradGradGradGradGradGrad
 Berny optimization.
 Initialization pass.
 No Z-matrix variables, so optimization will use Cartesian coordinates.
 Trust Radius=3.00D-01 FncErr=1.00D-07 GrdErr=1.00D-07 EigMax=2.50D+02 EigMin=1.00D-04
 Number of steps in this run=    100 maximum allowed number of steps=    100.
 Search for a saddle point of order  1.
 GradGradGradGradGradGradGradGradGradGradGradGradGradGradGradGradGradGrad

 Leave Link  103 at Sat May 24 03:45:25 2025, MaxMem=  3758096384 cpu:               0.0 elap:               0.0
 (Enter /apps/easybuild-2022/easybuild/software/Compiler/NVHPC/22.11-CUDA-11.7.0/Gaussian/g16c01-CUDA-11.7.0/g16/l202.exe)
 ---------------------------------------------------------------------------------------------------
                            Z-MATRIX (ANGSTROMS AND DEGREES)
   CD    Cent   Atom    N1       Length/X        N2       Alpha/Y        N3        Beta/Z          J
 ---------------------------------------------------------------------------------------------------
      1      1  C        0  -0.656226         -1.329134          0.112554
      2      2  C        0   0.030823          0.042600          0.131290
      3      3  F        0  -0.166675          0.701140         -1.083349
      4      4  F        0  -0.431015          0.803587          1.195189
      5      5  S        0   2.024818         -0.064848          0.370288
      6      6  O        0   2.367029         -0.077364          1.915708
      7      7  O        0   2.569508         -1.153908         -0.662311
      8      8  O        0   2.357427          1.616362         -0.230780
      9      9  F        0  -0.371805         -1.995492         -1.070065
     10     10  F        0  -0.189756         -2.084429          1.187595
     11     11  F        0  -2.034521         -1.177840          0.229656
     12     12  H        0   2.356466          1.607604         -1.225775
 ---------------------------------------------------------------------------------------------------
                         Z-Matrix orientation:                         
 ---------------------------------------------------------------------
 Center     Atomic      Atomic             Coordinates (Angstroms)
 Number     Number       Type             X           Y           Z
 ---------------------------------------------------------------------
      1          6           0       -0.656226   -1.329134    0.112554
      2          6           0        0.030823    0.042600    0.131290
      3          9           0       -0.166675    0.701140   -1.083349
      4          9           0       -0.431015    0.803587    1.195189
      5         16           0        2.024818   -0.064848    0.370288
      6          8           0        2.367029   -0.077364    1.915708
      7          8           0        2.569508   -1.153908   -0.662311
      8          8           0        2.357427    1.616362   -0.230780
      9          9           0       -0.371805   -1.995492   -1.070065
     10          9           0       -0.189756   -2.084429    1.187595
     11          9           0       -2.034521   -1.177840    0.229656
     12          1           0        2.356466    1.607604   -1.225775
 ---------------------------------------------------------------------
                    Distance matrix (angstroms):
                    1          2          3          4          5
     1  C    0.000000
     2  C    1.534289   0.000000
     3  F    2.406628   1.395718   0.000000
     4  F    2.402357   1.387183   2.296107   0.000000
     5  S    2.975373   2.011139   2.739058   2.732354   0.000000
     6  O    3.736089   2.942176   4.002508   3.020641   1.582905
     7  O    3.322120   2.916566   3.332443   4.035496   1.596559
     8  O    4.227994   2.832121   2.817019   3.235645   1.816144
     9  F    1.386909   2.399830   2.704455   3.601350   3.397912
    10  F    1.394194   2.385097   3.594039   2.898086   3.106612
    11  F    1.391510   2.400999   2.956924   2.725718   4.211503
    12  H    4.414960   3.114399   2.684810   3.778566   2.335488
                    6          7          8          9         10
     6  O    0.000000
     7  O    2.801094   0.000000
     8  O    2.734266   2.811689   0.000000
     9  F    4.482774   3.086397   4.604193   0.000000
    10  F    3.331007   3.449864   4.711240   2.266733   0.000000
    11  F    4.840192   4.689697   5.225780   2.263284   2.267754
    12  H    3.564848   2.826451   0.995034   4.522169   5.093006
                   11         12
    11  F    0.000000
    12  H    5.399791   0.000000
 Symmetry turned off by external request.
 Stoichiometry    C2HF5O3S
 Rotational constants (GHZ):           1.4059241           0.7510659           0.7142219
 Leave Link  202 at Sat May 24 03:45:25 2025, MaxMem=  3758096384 cpu:               0.0 elap:               0.0
 (Enter /apps/easybuild-2022/easybuild/software/Compiler/NVHPC/22.11-CUDA-11.7.0/Gaussian/g16c01-CUDA-11.7.0/g16/l301.exe)
 Standard basis: 6-31G (6D, 7F)
 Ernie: Thresh=  0.10000D-02 Tol=  0.10000D-05 Strict=F.
   105 basis functions,   270 primitive gaussians,   105 cartesian basis functions
    49 alpha electrons       49 beta electrons
       nuclear repulsion energy       873.1716466721 Hartrees.



 Warning!  S  atom    5 may be hypervalent but has no d functions.



 IExCor=    0 DFT=F Ex=HF Corr=None ExCW=0 ScaHFX=  1.000000
 ScaDFX=  1.000000  1.000000  1.000000  1.000000 ScalE2=  1.000000  1.000000
 IRadAn=      5 IRanWt=     -1 IRanGd=            0 ICorTp=0 IEmpDi=  4
 NAtoms=   12 NActive=   12 NUniq=   12 SFac= 1.00D+00 NAtFMM=   60 NAOKFM=F Big=F
 Integral buffers will be    131072 words long.
 Raffenetti 1 integral format.
 Two-electron integral symmetry is turned off.
 Leave Link  301 at Sat May 24 03:45:25 2025, MaxMem=  3758096384 cpu:               0.0 elap:               0.0
 (Enter /apps/easybuild-2022/easybuild/software/Compiler/NVHPC/22.11-CUDA-11.7.0/Gaussian/g16c01-CUDA-11.7.0/g16/l302.exe)
 NPDir=0 NMtPBC=     1 NCelOv=     1 NCel=       1 NClECP=     1 NCelD=      1
         NCelK=      1 NCelE2=     1 NClLst=     1 CellRange=     0.0.
 One-electron integrals computed using PRISM.
 NBasis=   105 RedAO= T EigKep=  5.33D-03  NBF=   105
 NBsUse=   105 1.00D-06 EigRej= -1.00D+00 NBFU=   105
 Leave Link  302 at Sat May 24 03:45:26 2025, MaxMem=  3758096384 cpu:               0.2 elap:               0.1
 (Enter /apps/easybuild-2022/easybuild/software/Compiler/NVHPC/22.11-CUDA-11.7.0/Gaussian/g16c01-CUDA-11.7.0/g16/l303.exe)
 DipDrv:  MaxL=1.
 Leave Link  303 at Sat May 24 03:45:26 2025, MaxMem=  3758096384 cpu:               0.0 elap:               0.0
 (Enter /apps/easybuild-2022/easybuild/software/Compiler/NVHPC/22.11-CUDA-11.7.0/Gaussian/g16c01-CUDA-11.7.0/g16/l401.exe)
 ExpMin= 1.17D-01 ExpMax= 2.19D+04 ExpMxC= 3.30D+03 IAcc=3 IRadAn=         5 AccDes= 0.00D+00
 Harris functional with IExCor=  205 and IRadAn=       5 diagonalized for initial guess.
 HarFok:  IExCor=  205 AccDes= 0.00D+00 IRadAn=         5 IDoV= 1 UseB2=F ITyADJ=14
 ICtDFT=  3500011 ScaDFX=  1.000000  1.000000  1.000000  1.000000
 FoFCou: FMM=F IPFlag=           0 FMFlag=      100000 FMFlg1=           0
         NFxFlg=           0 DoJE=T BraDBF=F KetDBF=T FulRan=T
         wScrn=  0.000000 ICntrl=       500 IOpCl=  0 I1Cent=   200000004 NGrid=           0
         NMat0=    1 NMatS0=      1 NMatT0=    0 NMatD0=    1 NMtDS0=    0 NMtDT0=    0
 Symmetry not used in FoFCou.
 Harris En= -1194.91131384991    
 JPrj=0 DoOrth=F DoCkMO=T.
 Mixing orbitals, IMix= 1 IMixAn=  0 NRI=1 NE=   49 Coef=  7.07106781D-01  7.07106781D-01
 Leave Link  401 at Sat May 24 03:45:26 2025, MaxMem=  3758096384 cpu:               0.8 elap:               0.1
 (Enter /apps/easybuild-2022/easybuild/software/Compiler/NVHPC/22.11-CUDA-11.7.0/Gaussian/g16c01-CUDA-11.7.0/g16/l502.exe)
 Keep R1 ints in memory in canonical form, NReq=17171785.
 FoFCou: FMM=F IPFlag=           0 FMFlag=           0 FMFlg1=           0
         NFxFlg=           0 DoJE=F BraDBF=F KetDBF=F FulRan=T
         wScrn=  0.000000 ICntrl=       600 IOpCl=  0 I1Cent=           0 NGrid=           0
         NMat0=    1 NMatS0=   5565 NMatT0=    0 NMatD0=    1 NMtDS0=    0 NMtDT0=    0
 Symmetry not used in FoFCou.
 Two-electron integral symmetry not used.
 Closed shell SCF:
 Using DIIS extrapolation, IDIIS=  1040.
 NGot=  3758096384 LenX=  3742584760 LenY=  3742573294
 Requested convergence on RMS density matrix=1.00D-08 within  32 cycles.
 Requested convergence on MAX density matrix=1.00D-06.
 Requested convergence on             energy=1.00D-06.
 No special actions if energy rises.

 Cycle   1  Pass 1  IDiag  1:
 E= -1194.05457647311    
 DIIS: error= 5.72D-02 at cycle   1 NSaved=   1.
 NSaved= 1 IEnMin= 1 EnMin= -1194.05457647311     IErMin= 1 ErrMin= 5.72D-02
 ErrMax= 5.72D-02  0.00D+00 EMaxC= 1.00D-01 BMatC= 7.19D-01 BMatP= 7.19D-01
 IDIUse=3 WtCom= 4.28D-01 WtEn= 5.72D-01
 Coeff-Com:  0.100D+01
 Coeff-En:   0.100D+01
 Coeff:      0.100D+01
 Gap=     0.046 Goal=   None    Shift=    0.000
 GapD=    0.046 DampG=0.250 DampE=0.500 DampFc=0.2500 IDamp=-1.
 Damping current iteration by 2.50D-01
 RMSDP=2.08D-02 MaxDP=3.91D-01              OVMax= 5.79D-01

 Cycle   2  Pass 1  IDiag  1:
 E= -1194.28089860222     Delta-E=       -0.226322129116 Rises=F Damp=T
 DIIS: error= 3.03D-02 at cycle   2 NSaved=   2.
 NSaved= 2 IEnMin= 2 EnMin= -1194.28089860222     IErMin= 2 ErrMin= 3.03D-02
 ErrMax= 3.03D-02  0.00D+00 EMaxC= 1.00D-01 BMatC= 2.53D-01 BMatP= 7.19D-01
 IDIUse=3 WtCom= 6.97D-01 WtEn= 3.03D-01
 Coeff-Com: -0.104D+01 0.204D+01
 Coeff-En:   0.000D+00 0.100D+01
 Coeff:     -0.725D+00 0.172D+01
 Gap=     0.392 Goal=   None    Shift=    0.000
 RMSDP=1.13D-02 MaxDP=2.64D-01 DE=-2.26D-01 OVMax= 3.28D-01

 Cycle   3  Pass 1  IDiag  1:
 E= -1194.90927183388     Delta-E=       -0.628373231653 Rises=F Damp=F
 DIIS: error= 8.40D-03 at cycle   3 NSaved=   3.
 NSaved= 3 IEnMin= 3 EnMin= -1194.90927183388     IErMin= 3 ErrMin= 8.40D-03
 ErrMax= 8.40D-03  0.00D+00 EMaxC= 1.00D-01 BMatC= 1.44D-02 BMatP= 2.53D-01
 IDIUse=3 WtCom= 9.16D-01 WtEn= 8.40D-02
 Coeff-Com:  0.178D+00-0.253D+00 0.107D+01
 Coeff-En:   0.000D+00 0.000D+00 0.100D+01
 Coeff:      0.163D+00-0.232D+00 0.107D+01
 Gap=     0.473 Goal=   None    Shift=    0.000
 RMSDP=2.84D-03 MaxDP=4.01D-02 DE=-6.28D-01 OVMax= 1.00D-01

 Cycle   4  Pass 1  IDiag  1:
 E= -1194.94955168562     Delta-E=       -0.040279851743 Rises=F Damp=F
 DIIS: error= 4.90D-03 at cycle   4 NSaved=   4.
 NSaved= 4 IEnMin= 4 EnMin= -1194.94955168562     IErMin= 4 ErrMin= 4.90D-03
 ErrMax= 4.90D-03  0.00D+00 EMaxC= 1.00D-01 BMatC= 4.13D-03 BMatP= 1.44D-02
 IDIUse=3 WtCom= 9.51D-01 WtEn= 4.90D-02
 Coeff-Com:  0.492D-01-0.891D-01 0.155D+00 0.885D+00
 Coeff-En:   0.000D+00 0.000D+00 0.000D+00 0.100D+01
 Coeff:      0.468D-01-0.848D-01 0.147D+00 0.891D+00
 Gap=     0.503 Goal=   None    Shift=    0.000
 RMSDP=1.31D-03 MaxDP=1.78D-02 DE=-4.03D-02 OVMax= 4.18D-02

 Cycle   5  Pass 1  IDiag  1:
 E= -1194.95940628927     Delta-E=       -0.009854603651 Rises=F Damp=F
 DIIS: error= 2.65D-03 at cycle   5 NSaved=   5.
 NSaved= 5 IEnMin= 5 EnMin= -1194.95940628927     IErMin= 5 ErrMin= 2.65D-03
 ErrMax= 2.65D-03  0.00D+00 EMaxC= 1.00D-01 BMatC= 1.60D-03 BMatP= 4.13D-03
 IDIUse=3 WtCom= 9.74D-01 WtEn= 2.65D-02
 Coeff-Com: -0.714D-01 0.109D+00-0.305D+00 0.289D+00 0.978D+00
 Coeff-En:   0.000D+00 0.000D+00 0.000D+00 0.000D+00 0.100D+01
 Coeff:     -0.695D-01 0.106D+00-0.297D+00 0.281D+00 0.979D+00
 Gap=     0.513 Goal=   None    Shift=    0.000
 RMSDP=1.06D-03 MaxDP=1.37D-02 DE=-9.85D-03 OVMax= 4.28D-02

 Cycle   6  Pass 1  IDiag  1:
 E= -1194.96396242422     Delta-E=       -0.004556134955 Rises=F Damp=F
 DIIS: error= 1.26D-03 at cycle   6 NSaved=   6.
 NSaved= 6 IEnMin= 6 EnMin= -1194.96396242422     IErMin= 6 ErrMin= 1.26D-03
 ErrMax= 1.26D-03  0.00D+00 EMaxC= 1.00D-01 BMatC= 2.11D-04 BMatP= 1.60D-03
 IDIUse=3 WtCom= 9.87D-01 WtEn= 1.26D-02
 Coeff-Com: -0.200D-01 0.315D-01-0.642D-01-0.990D-01 0.121D+00 0.103D+01
 Coeff-En:   0.000D+00 0.000D+00 0.000D+00 0.000D+00 0.000D+00 0.100D+01
 Coeff:     -0.197D-01 0.311D-01-0.634D-01-0.978D-01 0.120D+00 0.103D+01
 Gap=     0.515 Goal=   None    Shift=    0.000
 RMSDP=4.54D-04 MaxDP=7.78D-03 DE=-4.56D-03 OVMax= 1.77D-02

 Cycle   7  Pass 1  IDiag  1:
 E= -1194.96472068147     Delta-E=       -0.000758257242 Rises=F Damp=F
 DIIS: error= 4.69D-04 at cycle   7 NSaved=   7.
 NSaved= 7 IEnMin= 7 EnMin= -1194.96472068147     IErMin= 7 ErrMin= 4.69D-04
 ErrMax= 4.69D-04  0.00D+00 EMaxC= 1.00D-01 BMatC= 4.21D-05 BMatP= 2.11D-04
 IDIUse=3 WtCom= 9.95D-01 WtEn= 4.69D-03
 Coeff-Com:  0.130D-01-0.190D-01 0.501D-01-0.709D-01-0.174D+00 0.175D+00
 Coeff-Com:  0.103D+01
 Coeff-En:   0.000D+00 0.000D+00 0.000D+00 0.000D+00 0.000D+00 0.000D+00
 Coeff-En:   0.100D+01
 Coeff:      0.130D-01-0.189D-01 0.498D-01-0.706D-01-0.173D+00 0.174D+00
 Coeff:      0.103D+01
 Gap=     0.517 Goal=   None    Shift=    0.000
 RMSDP=1.92D-04 MaxDP=3.50D-03 DE=-7.58D-04 OVMax= 6.19D-03

 Cycle   8  Pass 1  IDiag  1:
 E= -1194.96485634326     Delta-E=       -0.000135661797 Rises=F Damp=F
 DIIS: error= 1.62D-04 at cycle   8 NSaved=   8.
 NSaved= 8 IEnMin= 8 EnMin= -1194.96485634326     IErMin= 8 ErrMin= 1.62D-04
 ErrMax= 1.62D-04  0.00D+00 EMaxC= 1.00D-01 BMatC= 6.70D-06 BMatP= 4.21D-05
 IDIUse=3 WtCom= 9.98D-01 WtEn= 1.62D-03
 Coeff-Com:  0.718D-02-0.103D-01 0.151D-01 0.453D-02-0.304D-01-0.116D+00
 Coeff-Com:  0.771D-01 0.105D+01
 Coeff-En:   0.000D+00 0.000D+00 0.000D+00 0.000D+00 0.000D+00 0.000D+00
 Coeff-En:   0.000D+00 0.100D+01
 Coeff:      0.717D-02-0.103D-01 0.150D-01 0.453D-02-0.303D-01-0.116D+00
 Coeff:      0.770D-01 0.105D+01
 Gap=     0.517 Goal=   None    Shift=    0.000
 RMSDP=6.66D-05 MaxDP=1.05D-03 DE=-1.36D-04 OVMax= 1.90D-03

 Cycle   9  Pass 1  IDiag  1:
 E= -1194.96487796314     Delta-E=       -0.000021619876 Rises=F Damp=F
 DIIS: error= 8.68D-05 at cycle   9 NSaved=   9.
 NSaved= 9 IEnMin= 9 EnMin= -1194.96487796314     IErMin= 9 ErrMin= 8.68D-05
 ErrMax= 8.68D-05  0.00D+00 EMaxC= 1.00D-01 BMatC= 1.13D-06 BMatP= 6.70D-06
 IDIUse=1 WtCom= 1.00D+00 WtEn= 0.00D+00
 Coeff-Com: -0.847D-03 0.126D-02-0.724D-02 0.997D-02 0.278D-01-0.146D-01
 Coeff-Com: -0.179D+00-0.137D+00 0.130D+01
 Coeff:     -0.847D-03 0.126D-02-0.724D-02 0.997D-02 0.278D-01-0.146D-01
 Coeff:     -0.179D+00-0.137D+00 0.130D+01
 Gap=     0.517 Goal=   None    Shift=    0.000
 RMSDP=3.77D-05 MaxDP=5.64D-04 DE=-2.16D-05 OVMax= 1.24D-03

 Cycle  10  Pass 1  IDiag  1:
 E= -1194.96488317967     Delta-E=       -0.000005216529 Rises=F Damp=F
 DIIS: error= 3.91D-05 at cycle  10 NSaved=  10.
 NSaved=10 IEnMin=10 EnMin= -1194.96488317967     IErMin=10 ErrMin= 3.91D-05
 ErrMax= 3.91D-05  0.00D+00 EMaxC= 1.00D-01 BMatC= 2.18D-07 BMatP= 1.13D-06
 IDIUse=1 WtCom= 1.00D+00 WtEn= 0.00D+00
 Coeff-Com: -0.705D-03 0.961D-03-0.258D-02 0.239D-02 0.729D-02 0.882D-02
 Coeff-Com: -0.395D-01-0.135D+00 0.193D+00 0.965D+00
 Coeff:     -0.705D-03 0.961D-03-0.258D-02 0.239D-02 0.729D-02 0.882D-02
 Coeff:     -0.395D-01-0.135D+00 0.193D+00 0.965D+00
 Gap=     0.517 Goal=   None    Shift=    0.000
 RMSDP=1.14D-05 MaxDP=2.33D-04 DE=-5.22D-06 OVMax= 3.07D-04

 Cycle  11  Pass 1  IDiag  1:
 E= -1194.96488384358     Delta-E=       -0.000000663912 Rises=F Damp=F
 DIIS: error= 1.96D-05 at cycle  11 NSaved=  11.
 NSaved=11 IEnMin=11 EnMin= -1194.96488384358     IErMin=11 ErrMin= 1.96D-05
 ErrMax= 1.96D-05  0.00D+00 EMaxC= 1.00D-01 BMatC= 4.99D-08 BMatP= 2.18D-07
 IDIUse=1 WtCom= 1.00D+00 WtEn= 0.00D+00
 Coeff-Com:  0.192D-03-0.336D-03 0.180D-02-0.255D-02-0.789D-02 0.667D-02
 Coeff-Com:  0.465D-01 0.836D-02-0.360D+00 0.259D+00 0.105D+01
 Coeff:      0.192D-03-0.336D-03 0.180D-02-0.255D-02-0.789D-02 0.667D-02
 Coeff:      0.465D-01 0.836D-02-0.360D+00 0.259D+00 0.105D+01
 Gap=     0.517 Goal=   None    Shift=    0.000
 RMSDP=7.94D-06 MaxDP=1.35D-04 DE=-6.64D-07 OVMax= 2.50D-04

 Cycle  12  Pass 1  IDiag  1:
 E= -1194.96488402507     Delta-E=       -0.000000181494 Rises=F Damp=F
 DIIS: error= 4.71D-06 at cycle  12 NSaved=  12.
 NSaved=12 IEnMin=12 EnMin= -1194.96488402507     IErMin=12 ErrMin= 4.71D-06
 ErrMax= 4.71D-06  0.00D+00 EMaxC= 1.00D-01 BMatC= 3.68D-09 BMatP= 4.99D-08
 IDIUse=1 WtCom= 1.00D+00 WtEn= 0.00D+00
 Coeff-Com:  0.788D-04-0.891D-04 0.131D-03-0.180D-03-0.997D-04-0.779D-03
 Coeff-Com:  0.193D-02 0.884D-02-0.648D-02-0.844D-01-0.305D-01 0.111D+01
 Coeff:      0.788D-04-0.891D-04 0.131D-03-0.180D-03-0.997D-04-0.779D-03
 Coeff:      0.193D-02 0.884D-02-0.648D-02-0.844D-01-0.305D-01 0.111D+01
 Gap=     0.517 Goal=   None    Shift=    0.000
 RMSDP=1.73D-06 MaxDP=3.29D-05 DE=-1.81D-07 OVMax= 4.91D-05

 Cycle  13  Pass 1  IDiag  1:
 E= -1194.96488403779     Delta-E=       -0.000000012715 Rises=F Damp=F
 DIIS: error= 2.03D-06 at cycle  13 NSaved=  13.
 NSaved=13 IEnMin=13 EnMin= -1194.96488403779     IErMin=13 ErrMin= 2.03D-06
 ErrMax= 2.03D-06  0.00D+00 EMaxC= 1.00D-01 BMatC= 7.43D-10 BMatP= 3.68D-09
 IDIUse=1 WtCom= 1.00D+00 WtEn= 0.00D+00
 Coeff-Com: -0.165D-04 0.305D-04-0.287D-03 0.326D-03 0.129D-02-0.857D-03
 Coeff-Com: -0.725D-02-0.222D-02 0.574D-01-0.437D-01-0.181D+00 0.148D+00
 Coeff-Com:  0.103D+01
 Coeff:     -0.165D-04 0.305D-04-0.287D-03 0.326D-03 0.129D-02-0.857D-03
 Coeff:     -0.725D-02-0.222D-02 0.574D-01-0.437D-01-0.181D+00 0.148D+00
 Coeff:      0.103D+01
 Gap=     0.517 Goal=   None    Shift=    0.000
 RMSDP=6.97D-07 MaxDP=1.16D-05 DE=-1.27D-08 OVMax= 2.28D-05

 Cycle  14  Pass 1  IDiag  1:
 E= -1194.96488404006     Delta-E=       -0.000000002276 Rises=F Damp=F
 DIIS: error= 8.19D-07 at cycle  14 NSaved=  14.
 NSaved=14 IEnMin=14 EnMin= -1194.96488404006     IErMin=14 ErrMin= 8.19D-07
 ErrMax= 8.19D-07  0.00D+00 EMaxC= 1.00D-01 BMatC= 1.27D-10 BMatP= 7.43D-10
 IDIUse=1 WtCom= 1.00D+00 WtEn= 0.00D+00
 Coeff-Com: -0.128D-04 0.154D-04-0.341D-04 0.818D-04 0.132D-03-0.970D-04
 Coeff-Com: -0.108D-02-0.763D-03 0.725D-02 0.776D-02-0.206D-01-0.150D+00
 Coeff-Com:  0.121D+00 0.104D+01
 Coeff:     -0.128D-04 0.154D-04-0.341D-04 0.818D-04 0.132D-03-0.970D-04
 Coeff:     -0.108D-02-0.763D-03 0.725D-02 0.776D-02-0.206D-01-0.150D+00
 Coeff:      0.121D+00 0.104D+01
 Gap=     0.517 Goal=   None    Shift=    0.000
 RMSDP=3.09D-07 MaxDP=4.26D-06 DE=-2.28D-09 OVMax= 9.17D-06

 Cycle  15  Pass 1  IDiag  1:
 E= -1194.96488404056     Delta-E=       -0.000000000494 Rises=F Damp=F
 DIIS: error= 4.11D-07 at cycle  15 NSaved=  15.
 NSaved=15 IEnMin=15 EnMin= -1194.96488404056     IErMin=15 ErrMin= 4.11D-07
 ErrMax= 4.11D-07  0.00D+00 EMaxC= 1.00D-01 BMatC= 2.57D-11 BMatP= 1.27D-10
 IDIUse=1 WtCom= 1.00D+00 WtEn= 0.00D+00
 Coeff-Com:  0.863D-07-0.747D-06 0.530D-04-0.597D-04-0.242D-03 0.112D-03
 Coeff-Com:  0.142D-02 0.692D-03-0.113D-01 0.742D-02 0.346D-01-0.117D-01
 Coeff-Com: -0.188D+00-0.173D+00 0.134D+01
 Coeff:      0.863D-07-0.747D-06 0.530D-04-0.597D-04-0.242D-03 0.112D-03
 Coeff:      0.142D-02 0.692D-03-0.113D-01 0.742D-02 0.346D-01-0.117D-01
 Coeff:     -0.188D+00-0.173D+00 0.134D+01
 Gap=     0.517 Goal=   None    Shift=    0.000
 RMSDP=1.94D-07 MaxDP=2.70D-06 DE=-4.94D-10 OVMax= 6.90D-06

 Cycle  16  Pass 1  IDiag  1:
 E= -1194.96488404069     Delta-E=       -0.000000000128 Rises=F Damp=F
 DIIS: error= 2.15D-07 at cycle  16 NSaved=  16.
 NSaved=16 IEnMin=16 EnMin= -1194.96488404069     IErMin=16 ErrMin= 2.15D-07
 ErrMax= 2.15D-07  0.00D+00 EMaxC= 1.00D-01 BMatC= 5.71D-12 BMatP= 2.57D-11
 IDIUse=1 WtCom= 1.00D+00 WtEn= 0.00D+00
 Coeff-Com: -0.778D-06 0.170D-05-0.156D-04-0.186D-05 0.577D-04 0.398D-06
 Coeff-Com: -0.191D-03-0.216D-03 0.168D-02-0.349D-02-0.449D-02 0.335D-01
 Coeff-Com:  0.194D-01-0.172D+00-0.251D+00 0.138D+01
 Coeff:     -0.778D-06 0.170D-05-0.156D-04-0.186D-05 0.577D-04 0.398D-06
 Coeff:     -0.191D-03-0.216D-03 0.168D-02-0.349D-02-0.449D-02 0.335D-01
 Coeff:      0.194D-01-0.172D+00-0.251D+00 0.138D+01
 Gap=     0.517 Goal=   None    Shift=    0.000
 RMSDP=1.01D-07 MaxDP=1.44D-06 DE=-1.28D-10 OVMax= 3.60D-06

 Cycle  17  Pass 1  IDiag  1:
 E= -1194.96488404071     Delta-E=       -0.000000000020 Rises=F Damp=F
 DIIS: error= 9.19D-08 at cycle  17 NSaved=  17.
 NSaved=17 IEnMin=17 EnMin= -1194.96488404071     IErMin=17 ErrMin= 9.19D-08
 ErrMax= 9.19D-08  0.00D+00 EMaxC= 1.00D-01 BMatC= 1.01D-12 BMatP= 5.71D-12
 IDIUse=1 WtCom= 1.00D+00 WtEn= 0.00D+00
 Coeff-Com:  0.421D-06-0.238D-06-0.953D-05 0.136D-04 0.487D-04-0.370D-04
 Coeff-Com: -0.290D-03-0.706D-04 0.245D-02-0.213D-02-0.718D-02 0.575D-02
 Coeff-Com:  0.371D-01 0.311D-01-0.325D+00 0.478D-01 0.121D+01
 Coeff:      0.421D-06-0.238D-06-0.953D-05 0.136D-04 0.487D-04-0.370D-04
 Coeff:     -0.290D-03-0.706D-04 0.245D-02-0.213D-02-0.718D-02 0.575D-02
 Coeff:      0.371D-01 0.311D-01-0.325D+00 0.478D-01 0.121D+01
 Gap=     0.517 Goal=   None    Shift=    0.000
 RMSDP=4.94D-08 MaxDP=7.94D-07 DE=-2.00D-11 OVMax= 1.86D-06

 Cycle  18  Pass 1  IDiag  1:
 E= -1194.96488404071     Delta-E=        0.000000000000 Rises=F Damp=F
 DIIS: error= 2.30D-08 at cycle  18 NSaved=  18.
 NSaved=18 IEnMin=17 EnMin= -1194.96488404071     IErMin=18 ErrMin= 2.30D-08
 ErrMax= 2.30D-08  0.00D+00 EMaxC= 1.00D-01 BMatC= 7.23D-14 BMatP= 1.01D-12
 IDIUse=1 WtCom= 1.00D+00 WtEn= 0.00D+00
 Coeff-Com: -0.164D-07-0.922D-07 0.363D-05-0.223D-05-0.162D-04 0.787D-05
 Coeff-Com:  0.716D-04 0.397D-04-0.621D-03 0.747D-03 0.166D-02-0.479D-02
 Coeff-Com: -0.736D-02 0.135D-01 0.867D-01-0.176D+00-0.194D+00 0.128D+01
 Coeff:     -0.164D-07-0.922D-07 0.363D-05-0.223D-05-0.162D-04 0.787D-05
 Coeff:      0.716D-04 0.397D-04-0.621D-03 0.747D-03 0.166D-02-0.479D-02
 Coeff:     -0.736D-02 0.135D-01 0.867D-01-0.176D+00-0.194D+00 0.128D+01
 Gap=     0.517 Goal=   None    Shift=    0.000
 RMSDP=1.14D-08 MaxDP=1.56D-07 DE= 0.00D+00 OVMax= 3.61D-07

 Cycle  19  Pass 1  IDiag  1:
 E= -1194.96488404072     Delta-E=       -0.000000000011 Rises=F Damp=F
 DIIS: error= 8.47D-09 at cycle  19 NSaved=  19.
 NSaved=19 IEnMin=19 EnMin= -1194.96488404072     IErMin=19 ErrMin= 8.47D-09
 ErrMax= 8.47D-09  0.00D+00 EMaxC= 1.00D-01 BMatC= 5.26D-15 BMatP= 7.23D-14
 IDIUse=1 WtCom= 1.00D+00 WtEn= 0.00D+00
 Large coefficients: NSaved= 19 BigCof=    0.00 CofMax=   10.00 Det=-8.61D-15
 Inversion failed.  Reducing to 18 matrices.
 Large coefficients: NSaved= 18 BigCof=    0.00 CofMax=   10.00 Det=-8.62D-15
 Inversion failed.  Reducing to 17 matrices.
 Large coefficients: NSaved= 17 BigCof=    0.00 CofMax=   10.00 Det=-9.90D-15
 Inversion failed.  Reducing to 16 matrices.
 Coeff-Com: -0.804D-06-0.458D-06 0.136D-05 0.952D-05-0.175D-05-0.674D-04
 Coeff-Com: -0.754D-05 0.254D-03 0.612D-03-0.155D-02-0.469D-02 0.687D-02
 Coeff-Com:  0.241D-01-0.258D-01-0.289D+00 0.129D+01
 Coeff:     -0.804D-06-0.458D-06 0.136D-05 0.952D-05-0.175D-05-0.674D-04
 Coeff:     -0.754D-05 0.254D-03 0.612D-03-0.155D-02-0.469D-02 0.687D-02
 Coeff:      0.241D-01-0.258D-01-0.289D+00 0.129D+01
 Gap=     0.517 Goal=   None    Shift=    0.000
 RMSDP=2.40D-09 MaxDP=3.60D-08 DE=-1.09D-11 OVMax= 6.73D-08

 SCF Done:  E(RHF) =  -1194.96488404     A.U. after   19 cycles
            NFock= 19  Conv=0.24D-08     -V/T= 2.0008
 KE= 1.194007281629D+03 PE=-4.585431504077D+03 EE= 1.323287691736D+03
 Leave Link  502 at Sat May 24 03:45:26 2025, MaxMem=  3758096384 cpu:               1.3 elap:               0.4
 (Enter /apps/easybuild-2022/easybuild/software/Compiler/NVHPC/22.11-CUDA-11.7.0/Gaussian/g16c01-CUDA-11.7.0/g16/l508.exe)
 QCSCF skips out because SCF is already converged.
 Leave Link  508 at Sat May 24 03:45:26 2025, MaxMem=  3758096384 cpu:               0.0 elap:               0.0
 (Enter /apps/easybuild-2022/easybuild/software/Compiler/NVHPC/22.11-CUDA-11.7.0/Gaussian/g16c01-CUDA-11.7.0/g16/l801.exe)
 ExpMin= 1.17D-01 ExpMax= 2.19D+04 ExpMxC= 3.30D+03 IAcc=3 IRadAn=         5 AccDes= 0.00D+00
 HarFok:  IExCor=  205 AccDes= 0.00D+00 IRadAn=         5 IDoV=-2 UseB2=F ITyADJ=14
 ICtDFT= 12500011 ScaDFX=  1.000000  1.000000  1.000000  1.000000
 Largest valence mixing into a core orbital is  3.11D-04
 Largest core mixing into a valence orbital is  1.15D-04
 Range of M.O.s used for correlation:    16   105
 NBasis=   105 NAE=    49 NBE=    49 NFC=    15 NFV=     0
 NROrb=     90 NOA=    34 NOB=    34 NVA=    56 NVB=    56
 Leave Link  801 at Sat May 24 03:45:26 2025, MaxMem=  3758096384 cpu:               0.2 elap:               0.0
 (Enter /apps/easybuild-2022/easybuild/software/Compiler/NVHPC/22.11-CUDA-11.7.0/Gaussian/g16c01-CUDA-11.7.0/g16/l906.exe)
 Frozen-core derivative calculation, NFC=  15 NFV=   0.
 FulOut=F Deriv=T AODrv=T NAtomX=    12
   MMem=           0  MDisk=          34 MDiskD=          34
  W3Min=      540225 MinDsk=     1086035 NBas6D=         105
 NBas2D=        5703    NTT=        5565    LW2=     3300000
    MDV=  3757941465 MDiskM=      372613 NBas2p=        5512
 Disk-based method using ON**2 memory for 34 occupieds at a time.
 Permanent disk used for amplitudes=     9340576 words.
 Estimated scratch disk usage=    75282008 words.
 IMap=   1   2   3   4   5   6   7   8   9  10  11  12  13  14  15  16  17  18  19  20
 IMap=  21  22  23  24  25  26  27  28  29  30  31  32  33  34  35  36  37  38  39  40
 IMap=  41  42  43  44  45  46  47  48  49
 Actual    scratch disk usage=    69068376 words.
 JobTyp=1 Pass  1:  I=  16 to  49 NPSUse=  8 ParTrn=T ParDer=T DoDerP=T.
 (rs|ai) integrals will be sorted in core.
 Spin components of T(2) and E(2):
     alpha-alpha T2 =       0.5738497171D-01 E2=     -0.1740298073D+00
     alpha-beta  T2 =       0.3100774244D+00 E2=     -0.9410730366D+00
     beta-beta   T2 =       0.5738497171D-01 E2=     -0.1740298073D+00
 The integrals were generated   1 times.
 ANorm=    0.1193669706D+01
 E2 =    -0.1289132651D+01 EUMP2 =    -0.11962540166919D+04
 Leave Link  906 at Sat May 24 03:45:30 2025, MaxMem=  3758096384 cpu:              29.5 elap:               4.0
 (Enter /apps/easybuild-2022/easybuild/software/Compiler/NVHPC/22.11-CUDA-11.7.0/Gaussian/g16c01-CUDA-11.7.0/g16/l1101.exe)
 Using compressed Sx but separate Hx and Fx, NAtomX=    12.
 Will process     13 centers per pass.
 Leave Link 1101 at Sat May 24 03:45:30 2025, MaxMem=  3758096384 cpu:               0.2 elap:               0.1
 (Enter /apps/easybuild-2022/easybuild/software/Compiler/NVHPC/22.11-CUDA-11.7.0/Gaussian/g16c01-CUDA-11.7.0/g16/l1102.exe)
 Leave Link 1102 at Sat May 24 03:45:30 2025, MaxMem=  3758096384 cpu:               0.0 elap:               0.0
 (Enter /apps/easybuild-2022/easybuild/software/Compiler/NVHPC/22.11-CUDA-11.7.0/Gaussian/g16c01-CUDA-11.7.0/g16/l1110.exe)
 Forming Gx(P) for the SCF density, NAtomX=    12.
 Integral derivatives from FoFJK, PRISM(SPDF).
 Do as many integral derivatives as possible in FoFJK.
 G2DrvN: MDV=    3758095012.
 G2DrvN: will do    13 centers at a time, making    1 passes.
 Calling FoFCou, ICntrl=  3107 FMM=F I1Cent=   0 AccDes= 0.00D+00.
 FoFJK:  IHMeth= 1 ICntrl=    3107 DoSepK=F KAlg= 0 I1Cent=           0 FoldK=F
 IRaf=         0 NMat=       1 IRICut=       1 DoRegI=T DoRafI=F ISym2E= 0 IDoP0=0 IntGTp=1.
 FoFCou: FMM=F IPFlag=           0 FMFlag=      100000 FMFlg1=           0
         NFxFlg=           0 DoJE=F BraDBF=F KetDBF=F FulRan=T
         wScrn=  0.000000 ICntrl=      3107 IOpCl=  0 I1Cent=           0 NGrid=           0
         NMat0=    1 NMatS0=      1 NMatT0=    0 NMatD0=    1 NMtDS0=    0 NMtDT0=    0
 Symmetry not used in FoFCou.
 End of G2Drv F.D. properties file   721 does not exist.
 End of G2Drv F.D. properties file   722 does not exist.
 End of G2Drv F.D. properties file   788 does not exist.
 Leave Link 1110 at Sat May 24 03:45:30 2025, MaxMem=  3758096384 cpu:               1.1 elap:               0.2
 (Enter /apps/easybuild-2022/easybuild/software/Compiler/NVHPC/22.11-CUDA-11.7.0/Gaussian/g16c01-CUDA-11.7.0/g16/l1002.exe)
 Minotr:  Closed shell wavefunction.
          IDoAtm=111111111111
          Frozen-core window.
          Direct CPHF calculation.
          Differentiating once with respect to electric field.
                with respect to dipole field.
          Differentiating once with respect to nuclear coordinates.
          Requested convergence is 1.0D-08 RMS, and 1.0D-07 maximum.
          Secondary convergence is 1.0D-12 RMS, and 1.0D-12 maximum.
          NewPWx=T KeepS1=T KeepF1=T KeepIn=T MapXYZ=F SortEE=F KeepMc=T.
 Keep R1 ints in memory in canonical form, NReq=17170075.
 FoFCou: FMM=F IPFlag=           0 FMFlag=           0 FMFlg1=           0
         NFxFlg=           0 DoJE=F BraDBF=F KetDBF=F FulRan=T
         wScrn=  0.000000 ICntrl=       600 IOpCl=  0 I1Cent=           0 NGrid=           0
         NMat0=    1 NMatS0=   5565 NMatT0=    0 NMatD0=    1 NMtDS0=    0 NMtDT0=    0
 Symmetry not used in FoFCou.
 Two-electron integral symmetry not used.
          MDV=    3758096384 using IRadAn=       1.
          Solving linear equations simultaneously, MaxMat=       0.
          There are    39 degrees of freedom in the 1st order CPHF.  IDoFFX=6 NUNeed=    39.
     36 vectors produced by pass  0 Test12= 7.04D-15 2.56D-09 XBig12= 1.70D+01 2.05D+00.
 AX will form    36 AO Fock derivatives at one time.
     36 vectors produced by pass  1 Test12= 7.04D-15 2.56D-09 XBig12= 1.93D+00 3.81D-01.
     36 vectors produced by pass  2 Test12= 7.04D-15 2.56D-09 XBig12= 9.70D-02 7.12D-02.
     36 vectors produced by pass  3 Test12= 7.04D-15 2.56D-09 XBig12= 1.04D-03 7.09D-03.
     36 vectors produced by pass  4 Test12= 7.04D-15 2.56D-09 XBig12= 6.90D-06 4.35D-04.
     36 vectors produced by pass  5 Test12= 7.04D-15 2.56D-09 XBig12= 3.63D-08 2.54D-05.
     35 vectors produced by pass  6 Test12= 7.04D-15 2.56D-09 XBig12= 3.07D-10 2.13D-06.
     12 vectors produced by pass  7 Test12= 7.04D-15 2.56D-09 XBig12= 2.18D-12 1.92D-07.
      3 vectors produced by pass  8 Test12= 7.04D-15 2.56D-09 XBig12= 1.37D-14 1.41D-08.
 InvSVY:  IOpt=1 It=  1 EMax= 3.11D-15
 Solved reduced A of dimension   266 with    39 vectors.
 FullF1:  Do perturbations      1 to      39.
 Saving first derivative matrices.
 End of Minotr F.D. properties file   721 does not exist.
 End of Minotr F.D. properties file   722 does not exist.
 End of Minotr F.D. properties file   788 does not exist.
 Leave Link 1002 at Sat May 24 03:45:31 2025, MaxMem=  3758096384 cpu:               3.3 elap:               0.5
 (Enter /apps/easybuild-2022/easybuild/software/Compiler/NVHPC/22.11-CUDA-11.7.0/Gaussian/g16c01-CUDA-11.7.0/g16/l811.exe)
 MDV=  3758096384.
 Form MO integral derivatives with frozen-active canonical formalism.
 MOERI=1 MOERIx=1 NAtoms=    12 NAtomX=    12.
 Discarding MO integrals.
 MO basis two electron integral derivatives will not be stored on disk.
 IAlg= 3 DoFC=T DoPWx=T Debug=F.
 Frozen-core window:  NFC=  15 NFV=   0.
 Reordered first order wavefunction length =     15059072
 In DefCFB: NBatch=  1 ICI= 49 ICA= 56 LFMax= 56
            Large arrays: LIAPS=   121010400 LIARS=    26218920 words.
 In StABat: MaxSiz= 13 MinSiz=  9 NAtomB= 11
 DoIAMN: NPSUse=  8.
 Leave Link  811 at Sat May 24 03:45:47 2025, MaxMem=  3758096384 cpu:              60.9 elap:              15.7
 (Enter /apps/easybuild-2022/easybuild/software/Compiler/NVHPC/22.11-CUDA-11.7.0/Gaussian/g16c01-CUDA-11.7.0/g16/l804.exe)
 Frozen-core window:  NFC=  15 NFV=   0.
 Closed-shell transformation, MDV=  3758096384 ITran=4 ISComp=1.
 Semi-Direct transformation.
 ModeAB=           4 MOrb=            49 LenV=    3757756674
 LASXX=     17485356 LTotXX=    17485356 LenRXX=    36211441
 LTotAB=    18726085 MaxLAS=    27361110 LenRXY=           0
 NonZer=    53696797 LenScr=    81309696 LnRSAI=    27361110
 LnScr1=    41803776 LExtra=           0 Total=    186686023
 MaxDsk=          -1 SrtSym=           T ITran=            4
 DoSDTr:  NPSUse=  8
 JobTyp=0 Pass  1:  I=   1 to  49.
 (rs|ai) integrals will be sorted in core.
 Complete sort for first half transformation.
 First half transformation complete.
 Begin second half transformation for I=  10.
 Begin second half transformation for I=  20.
 Begin second half transformation for I=  30.
 Begin second half transformation for I=  40.
 Complete sort for second half transformation.
 Second half transformation complete.
 Spin components of T(2) and E(2):
     alpha-alpha T2 =       0.5738497171D-01 E2=     -0.1740298073D+00
     alpha-beta  T2 =       0.3100774244D+00 E2=     -0.9410730366D+00
     beta-beta   T2 =       0.5738497171D-01 E2=     -0.1740298073D+00
 ANorm=    0.1688103888D+01
 E2 =    -0.1289132651D+01 EUMP2 =    -0.11962540166919D+04
 Leave Link  804 at Sat May 24 03:45:48 2025, MaxMem=  3758096384 cpu:               9.0 elap:               1.5
 (Enter /apps/easybuild-2022/easybuild/software/Compiler/NVHPC/22.11-CUDA-11.7.0/Gaussian/g16c01-CUDA-11.7.0/g16/l1002.exe)
 Minotr:  Closed shell wavefunction.
          Computing MP2/KS-MP2 derivatives.
          Using Z-Vector for PSCF gradient.
          Skipping F1 and S1 gradient terms here.
          IDoAtm=111111111111
          Frozen-core window.
          Using MO integrals in the linear equations.
          Forming densities via direct SCF.
          Differentiating once with respect to electric field.
                with respect to dipole field.
          Differentiating once with respect to nuclear coordinates.
          Requested convergence is 1.0D-10 RMS, and 1.0D-09 maximum.
          NewPWx=F KeepS1=T KeepF1=T KeepIn=T MapXYZ=F SortEE=F KeepMc=T.
          MDV=    3758096384 using IRadAn=       5.
          Solving linear equations separately, MaxMat=       0.
          There are     1 degrees of freedom in the 1st order CPHF.  IDoFFX=0 NUNeed=     1.
 FoFJK:  IHMeth= 1 ICntrl=       0 DoSepK=F KAlg= 0 I1Cent=           0 FoldK=F
 IRaf=         0 NMat=       1 IRICut=       1 DoRegI=T DoRafI=F ISym2E= 0 IDoP0=0 IntGTp=1.
 FoFCou: FMM=F IPFlag=           0 FMFlag=      100000 FMFlg1=           0
         NFxFlg=           0 DoJE=F BraDBF=F KetDBF=F FulRan=T
         wScrn=  0.000000 ICntrl=         0 IOpCl=  0 I1Cent=           0 NGrid=           0
         NMat0=    1 NMatS0=      1 NMatT0=    0 NMatD0=    1 NMtDS0=    0 NMtDT0=    0
 Symmetry not used in FoFCou.
 LinEq1:  Iter=  0 NonCon=     1 RMS=1.08D-02 Max=2.03D-01 NDo=     1
 LinEq1:  Iter=  1 NonCon=     1 RMS=4.43D-03 Max=6.62D-02 NDo=     1
 LinEq1:  Iter=  2 NonCon=     1 RMS=1.42D-03 Max=1.52D-02 NDo=     1
 LinEq1:  Iter=  3 NonCon=     1 RMS=5.04D-04 Max=7.37D-03 NDo=     1
 LinEq1:  Iter=  4 NonCon=     1 RMS=2.16D-04 Max=3.28D-03 NDo=     1
 LinEq1:  Iter=  5 NonCon=     1 RMS=9.66D-05 Max=1.18D-03 NDo=     1
 LinEq1:  Iter=  6 NonCon=     1 RMS=2.55D-05 Max=3.63D-04 NDo=     1
 LinEq1:  Iter=  7 NonCon=     1 RMS=1.37D-05 Max=1.73D-04 NDo=     1
 LinEq1:  Iter=  8 NonCon=     1 RMS=3.56D-06 Max=3.87D-05 NDo=     1
 LinEq1:  Iter=  9 NonCon=     1 RMS=1.78D-06 Max=2.75D-05 NDo=     1
 LinEq1:  Iter= 10 NonCon=     1 RMS=6.35D-07 Max=1.02D-05 NDo=     1
 LinEq1:  Iter= 11 NonCon=     1 RMS=2.63D-07 Max=4.85D-06 NDo=     1
 LinEq1:  Iter= 12 NonCon=     1 RMS=9.20D-08 Max=1.34D-06 NDo=     1
 LinEq1:  Iter= 13 NonCon=     1 RMS=2.39D-08 Max=2.27D-07 NDo=     1
 LinEq1:  Iter= 14 NonCon=     1 RMS=1.04D-08 Max=1.31D-07 NDo=     1
 LinEq1:  Iter= 15 NonCon=     1 RMS=2.40D-09 Max=4.35D-08 NDo=     1
 LinEq1:  Iter= 16 NonCon=     1 RMS=7.24D-10 Max=1.25D-08 NDo=     1
 LinEq1:  Iter= 17 NonCon=     1 RMS=2.21D-10 Max=3.25D-09 NDo=     1
 LinEq1:  Iter= 18 NonCon=     0 RMS=7.03D-11 Max=6.99D-10 NDo=     1
 Linear equations converged to 1.000D-10 1.000D-09 after    18 iterations.
 End of Minotr F.D. properties file   721 does not exist.
 End of Minotr F.D. properties file   722 does not exist.
 End of Minotr F.D. properties file   788 does not exist.
 Leave Link 1002 at Sat May 24 03:45:49 2025, MaxMem=  3758096384 cpu:               2.1 elap:               0.9
 (Enter /apps/easybuild-2022/easybuild/software/Compiler/NVHPC/22.11-CUDA-11.7.0/Gaussian/g16c01-CUDA-11.7.0/g16/l1102.exe)
 Use density number 2.
 Symmetrizing basis deriv contribution to polar:
 IMax=3 JMax=2 DiffMx= 0.00D+00
 Leave Link 1102 at Sat May 24 03:45:49 2025, MaxMem=  3758096384 cpu:               0.0 elap:               0.0
 (Enter /apps/easybuild-2022/easybuild/software/Compiler/NVHPC/22.11-CUDA-11.7.0/Gaussian/g16c01-CUDA-11.7.0/g16/l1110.exe)
 Forming Gx(P) for generalized density number  2 NAtomX=    12.
 Integral derivatives from FoFJK, PRISM(SPDF).
 Do as many integral derivatives as possible in FoFJK.
 G2DrvN: MDV=    3758095012.
 G2DrvN: will do    13 centers at a time, making    1 passes.
 Calling FoFCou, ICntrl=  3107 FMM=F I1Cent=   0 AccDes= 0.00D+00.
 FoFJK:  IHMeth= 1 ICntrl=    3107 DoSepK=F KAlg= 0 I1Cent=           0 FoldK=F
 IRaf=         0 NMat=       1 IRICut=       1 DoRegI=T DoRafI=F ISym2E= 0 IDoP0=0 IntGTp=1.
 FoFCou: FMM=F IPFlag=           0 FMFlag=      100000 FMFlg1=           0
         NFxFlg=           0 DoJE=F BraDBF=F KetDBF=F FulRan=T
         wScrn=  0.000000 ICntrl=      3107 IOpCl=  0 I1Cent=           0 NGrid=           0
         NMat0=    1 NMatS0=      1 NMatT0=    0 NMatD0=    1 NMtDS0=    0 NMtDT0=    0
 Symmetry not used in FoFCou.
 End of G2Drv F.D. properties file   721 does not exist.
 End of G2Drv F.D. properties file   722 does not exist.
 End of G2Drv F.D. properties file   788 does not exist.
 Leave Link 1110 at Sat May 24 03:45:49 2025, MaxMem=  3758096384 cpu:               1.3 elap:               0.2
 (Enter /apps/easybuild-2022/easybuild/software/Compiler/NVHPC/22.11-CUDA-11.7.0/Gaussian/g16c01-CUDA-11.7.0/g16/l1112.exe)
 MP22nd: MDV=    3758096384
 This link is doing NAtomX=    12 total of    39 degrees of freedom.
 Using ON3 I/O method in MakUI.
 Frozen-core window:  NFC=  15 NFV=   0.
 Using Ix for Sx.
 Use MO integrals over full window.
 Using OV2 memory method for fx*t*t/D, MaxI=    49 DoOO2=F NP=   8.
 R2 and R3 integrals will be kept in memory, NReq=    31774790.
 FoFCou: FMM=F IPFlag=           0 FMFlag=           0 FMFlg1=           0
         NFxFlg=           0 DoJE=F BraDBF=F KetDBF=F FulRan=T
         wScrn=  0.000000 ICntrl=       600 IOpCl=  0 I1Cent=           0 NGrid=           0
         NMat0=    1 NMatS0=      1 NMatT0=    0 NMatD0=    1 NMtDS0=    0 NMtDT0=    0
 Symmetry not used in FoFCou.
 DD1Dir will call FoFMem   1 times, MxPair=      2450
 NAB=  1225 NAA=     0 NBB=     0.
 FoFJK:  IHMeth= 1 ICntrl=       0 DoSepK=F KAlg= 0 I1Cent=           0 FoldK=F
 IRaf=         0 NMat=      39 IRICut=      97 DoRegI=T DoRafI=T ISym2E= 0 IDoP0=0 IntGTp=1.
 Discarding MO integrals.
 Leave Link 1112 at Sat May 24 03:45:57 2025, MaxMem=  3758096384 cpu:              44.4 elap:               8.1
 (Enter /apps/easybuild-2022/easybuild/software/Compiler/NVHPC/22.11-CUDA-11.7.0/Gaussian/g16c01-CUDA-11.7.0/g16/l701.exe)
 ... and contract with generalized density number  2.
 Compute integral second derivatives.
 Leave Link  701 at Sat May 24 03:45:57 2025, MaxMem=  3758096384 cpu:               0.3 elap:               0.1
 (Enter /apps/easybuild-2022/easybuild/software/Compiler/NVHPC/22.11-CUDA-11.7.0/Gaussian/g16c01-CUDA-11.7.0/g16/l702.exe)
 L702 exits ... SP integral derivatives will be done elsewhere.
 Leave Link  702 at Sat May 24 03:45:57 2025, MaxMem=  3758096384 cpu:               0.0 elap:               0.0
 (Enter /apps/easybuild-2022/easybuild/software/Compiler/NVHPC/22.11-CUDA-11.7.0/Gaussian/g16c01-CUDA-11.7.0/g16/l703.exe)
 Integral derivatives from FoFJK, PRISM(SPDF).
 Compute integral second derivatives, UseDBF=F ICtDFT=           0.
 Calling FoFJK, ICntrl=  10100127 FMM=F ISym2X=0 I1Cent= 0 IOpClX= 0 NMat=1 NMatS=1 NMatT=0.
 FoFJK:  IHMeth= 1 ICntrl=10100127 DoSepK=F KAlg= 0 I1Cent=           0 FoldK=F
 IRaf=         0 NMat=       1 IRICut=       1 DoRegI=T DoRafI=F ISym2E= 0 IDoP0=0 IntGTp=1.
 FoFCou: FMM=F IPFlag=           0 FMFlag=      100000 FMFlg1=         800
         NFxFlg=           0 DoJE=F BraDBF=F KetDBF=F FulRan=T
         wScrn=  0.000000 ICntrl=  10100127 IOpCl=  0 I1Cent=           0 NGrid=           0
         NMat0=    1 NMatS0=      1 NMatT0=    0 NMatD0=    1 NMtDS0=    0 NMtDT0=    0
 Symmetry not used in FoFCou.
 Leave Link  703 at Sat May 24 03:45:58 2025, MaxMem=  3758096384 cpu:               4.0 elap:               0.5
 (Enter /apps/easybuild-2022/easybuild/software/Compiler/NVHPC/22.11-CUDA-11.7.0/Gaussian/g16c01-CUDA-11.7.0/g16/l716.exe)
 Dipole        =-6.68388547D-01 4.36358880D-01-9.56675401D-01
 Polarizability= 5.74779297D+01-1.37058164D-01 5.02954137D+01
                 1.10429246D+00-5.56434351D-01 5.66829058D+01
 -------------------------------------------------------------------
 Center     Atomic                   Forces (Hartrees/Bohr)
 Number     Number              X              Y              Z
 -------------------------------------------------------------------
      1        6          -0.000027535    0.000008471    0.000188109
      2        6           0.000001041    0.000105035    0.000118767
      3        9          -0.000006779   -0.000167085   -0.000068832
      4        9           0.000032604    0.000130745   -0.000076014
      5       16           0.000211858   -0.000011258    0.000105662
      6        8           0.000240676   -0.000256889   -0.000053742
      7        8          -0.000207531    0.000128938   -0.000259757
      8        8          -0.001528709    0.000339770    0.000052817
      9        9           0.000011661   -0.000006041    0.000004038
     10        9          -0.000003908   -0.000000636    0.000001665
     11        9           0.000000824    0.000001164   -0.000012721
     12        1           0.001275798   -0.000272213    0.000000007
 -------------------------------------------------------------------
 Cartesian Forces:  Max     0.001528709 RMS     0.000356895
 Force constants in Cartesian coordinates: 
                1             2             3             4             5 
      1  0.525214D+00
      2  0.223282D-01  0.546084D+00
      3 -0.527646D-03  0.832289D-02  0.531915D+00
      4 -0.908926D-01 -0.492716D-01 -0.326783D-02  0.339142D+00
      5 -0.774720D-01 -0.162273D+00 -0.273125D-02  0.816531D-02  0.509660D+00
      6 -0.229676D-02  0.142843D-02 -0.424383D-01 -0.233382D-01  0.292668D-02
      7  0.409989D-02 -0.650886D-02  0.100988D-01 -0.627674D-01  0.226253D-01
      8  0.136186D-01 -0.175250D-01  0.368017D-01  0.163600D-01 -0.124302D+00
      9 -0.923136D-02  0.112034D-01 -0.237343D-01 -0.242301D-01  0.103631D+00
     10  0.562919D-03 -0.541479D-02 -0.331619D-02 -0.851351D-01  0.562531D-01
     11  0.205773D-01 -0.206336D-01 -0.362929D-01  0.417982D-01 -0.147293D+00
     12  0.107731D-01 -0.137369D-01 -0.178056D-01  0.534366D-01 -0.105639D+00
     13 -0.174329D-01 -0.195535D-01 -0.375040D-02 -0.797884D-01  0.856901D-02
     14 -0.296072D-01  0.146580D-01 -0.217302D-02 -0.183369D-01 -0.243464D-01
     15 -0.366930D-02 -0.832357D-03  0.165971D-01 -0.375265D-02  0.756808D-03
     16 -0.172580D-03  0.559992D-02  0.152356D-02  0.654028D-02 -0.296206D-02
     17  0.179181D-02 -0.238035D-02  0.128903D-02  0.419889D-02  0.366164D-02
     18 -0.147758D-02  0.601898D-02 -0.517183D-02  0.136314D-04 -0.699567D-02
     19  0.446449D-02  0.273037D-02 -0.242120D-02  0.849579D-02  0.698564D-02
     20  0.571610D-02 -0.753846D-02 -0.178627D-02  0.318328D-02  0.918322D-03
     21  0.194760D-02 -0.403108D-02 -0.449199D-02  0.327220D-03 -0.106528D-02
     22 -0.178416D-02  0.566731D-02 -0.248870D-03  0.941051D-03 -0.913487D-02
     23  0.185832D-02  0.276675D-02  0.372107D-04  0.194791D-02 -0.133743D-01
     24 -0.114857D-03 -0.252272D-02 -0.129846D-02 -0.239585D-02  0.100671D-01
     25 -0.709174D-01  0.139539D-01  0.267812D-01  0.829335D-02 -0.383473D-02
     26  0.130160D-01 -0.136853D+00 -0.946715D-01  0.857075D-02 -0.182807D-01
     27  0.263754D-01 -0.102157D+00 -0.211212D+00  0.644223D-02 -0.105971D-01
     28 -0.805578D-01  0.306958D-01 -0.403465D-01  0.543078D-02 -0.409686D-02
     29  0.285741D-01 -0.148947D+00  0.920306D-01  0.134567D-01 -0.218158D-01
     30 -0.402610D-01  0.949779D-01 -0.176353D+00 -0.842640D-02  0.129301D-01
     31 -0.272057D+00 -0.516213D-03  0.154555D-01 -0.496834D-01  0.460025D-03
     32  0.105134D-03 -0.672603D-01 -0.138449D-02 -0.291913D-01 -0.146489D-02
     33  0.181735D-01 -0.138137D-04 -0.661100D-01  0.384372D-02 -0.144687D-02
     34 -0.526941D-03  0.289543D-03  0.195446D-04 -0.576643D-03 -0.555785D-02
     35 -0.506358D-03 -0.979083D-04  0.558093D-03 -0.881198D-03 -0.109056D-02
     36  0.308942D-03  0.134250D-02  0.103164D-03  0.134759D-02 -0.183747D-02
                6             7             8             9            10 
      6  0.488606D+00
      7 -0.406747D-01  0.573638D-01
      8  0.961825D-01 -0.182409D-01  0.132922D+00
      9 -0.208980D+00  0.375110D-01 -0.126611D+00  0.283840D+00
     10  0.680571D-01  0.938229D-02 -0.356367D-02 -0.698627D-03  0.859761D-01
     11 -0.993047D-01 -0.433545D-02  0.166946D-01  0.610044D-02 -0.580353D-01
     12 -0.177661D+00  0.147541D-01 -0.129189D-01 -0.480466D-01 -0.802473D-01
     13 -0.841510D-02 -0.378519D-02 -0.213495D-02  0.201520D-02 -0.949562D-02
     14 -0.468803D-02  0.985847D-02 -0.763018D-02  0.960940D-02  0.195085D-01
     15 -0.127851D-01 -0.217397D-01  0.112843D-01 -0.213076D-01  0.218757D-01
     16 -0.867055D-02 -0.468953D-02  0.196364D-02 -0.496009D-02  0.719866D-03
     17  0.144021D-02  0.464944D-03  0.160406D-03  0.862902D-03 -0.181729D-02
     18 -0.108745D-01 -0.258955D-02  0.538540D-03 -0.103276D-02 -0.139442D-02
     19  0.109420D-01 -0.112249D-02  0.123549D-03 -0.254489D-02 -0.715391D-02
     20 -0.584867D-02  0.414908D-03  0.782290D-03  0.196181D-02  0.218621D-02
     21 -0.182790D-02  0.218723D-02 -0.127432D-02  0.477290D-02  0.103153D-02
     22  0.965322D-04 -0.256566D-02 -0.534572D-02  0.261190D-02 -0.423262D-03
     23  0.639893D-02  0.205670D-03  0.395235D-02 -0.328600D-02 -0.336925D-02
     24  0.554892D-04  0.614275D-03 -0.451228D-02  0.455524D-02 -0.379862D-03
     25 -0.557007D-02  0.129743D-03 -0.134505D-02  0.174605D-03  0.504078D-03
     26 -0.355464D-01 -0.639002D-03  0.600932D-03 -0.182918D-02 -0.364652D-02
     27 -0.215467D-01  0.247874D-03  0.160886D-02  0.511539D-02 -0.232082D-02
     28  0.297238D-02  0.722425D-03 -0.298431D-02  0.177460D-02  0.635380D-03
     29  0.372356D-01 -0.391405D-02 -0.723584D-02  0.917904D-03 -0.101121D-02
     30 -0.163949D-01  0.155429D-02  0.143508D-02  0.252046D-02 -0.795306D-05
     31  0.227982D-02  0.313360D-02 -0.129151D-02  0.819020D-03  0.450948D-02
     32 -0.253877D-03  0.370397D-03  0.143656D-02 -0.149962D-02 -0.204271D-02
     33  0.429656D-02 -0.480041D-03 -0.195138D-02  0.233691D-02 -0.205492D-02
     34  0.461753D-02  0.984768D-04  0.284038D-02 -0.324126D-02 -0.822636D-04
     35  0.293955D-04 -0.301432D-03  0.143844D-03 -0.106163D-02  0.952928D-03
     36 -0.450431D-03 -0.148355D-02 -0.583154D-03 -0.395570D-04 -0.544277D-03
               11            12            13            14            15 
     11  0.158589D+00
     12  0.136961D+00  0.241595D+00
     13  0.237250D-02  0.892148D-04  0.314924D+00
     14 -0.850893D-02 -0.762821D-02 -0.649395D-01  0.409776D+00
     15 -0.115985D-01 -0.145564D-01  0.222346D-02  0.124375D+00  0.730115D+00
     16 -0.158303D-02 -0.385116D-03 -0.716439D-01  0.394669D-02 -0.856099D-01
     17  0.158803D-02  0.140791D-02  0.154350D-02 -0.485015D-01 -0.654251D-02
     18  0.241895D-02  0.662064D-02 -0.872165D-01 -0.534685D-02 -0.406526D+00
     19  0.289317D-02  0.290092D-02 -0.100856D+00  0.898690D-01  0.811235D-01
     20 -0.744193D-05 -0.759728D-03  0.908973D-01 -0.214097D+00 -0.156251D+00
     21  0.104661D-03  0.810471D-03  0.816334D-01 -0.150487D+00 -0.201121D+00
     22 -0.156809D-04  0.620161D-03 -0.425582D-01 -0.157112D-01  0.249229D-02
     23  0.355019D-02  0.193690D-02 -0.263829D-01 -0.104325D+00 -0.187148D-02
     24 -0.238775D-03  0.755123D-03  0.126456D-01  0.378614D-01 -0.662682D-01
     25 -0.343394D-02 -0.111519D-02 -0.530229D-03  0.502768D-02  0.376121D-02
     26 -0.645944D-02 -0.129087D-02  0.437860D-02 -0.258005D-02  0.247354D-03
     27 -0.119664D-02  0.206653D-02  0.234401D-02 -0.113404D-02 -0.413772D-02
     28 -0.118622D-02 -0.460557D-03  0.945840D-03  0.451781D-02 -0.222573D-02
     29  0.876680D-03 -0.699024D-03  0.389580D-02 -0.352932D-02  0.408589D-03
     30  0.109872D-02  0.349361D-02 -0.496295D-03  0.129596D-02 -0.590263D-02
     31  0.641642D-03  0.295637D-03  0.833065D-02 -0.326290D-03  0.136640D-02
     32  0.190228D-02  0.280112D-02  0.507334D-02 -0.486014D-02  0.484674D-03
     33  0.145102D-02  0.229314D-02 -0.339459D-03  0.419051D-03 -0.198297D-02
     34  0.306786D-03 -0.661503D-03  0.189036D-02 -0.380698D-02  0.415464D-02
     35 -0.298850D-03 -0.434810D-03 -0.371918D-02 -0.605537D-02  0.395392D-01
     36  0.496666D-03  0.434424D-03 -0.733160D-03 -0.210358D-02 -0.121244D-01
               16            17            18            19            20 
     16  0.493985D-01
     17 -0.476425D-02  0.362432D-01
     18  0.921721D-01  0.374718D-03  0.439283D+00
     19  0.128466D-01 -0.224825D-02 -0.497049D-03  0.799787D-01
     20 -0.800048D-03  0.647227D-02 -0.473117D-02 -0.100623D+00  0.223767D+00
     21  0.628269D-02 -0.171014D-01 -0.168173D-01 -0.899241D-01  0.178027D+00
     22  0.830924D-02  0.210170D-02  0.187857D-02  0.108144D-01  0.255003D-02
     23  0.284554D-02  0.658363D-02  0.739486D-02  0.270422D-02 -0.179988D-01
     24  0.268311D-03  0.194899D-01 -0.136758D-01 -0.441177D-03 -0.918059D-02
     25  0.176255D-03 -0.324303D-03 -0.878342D-03 -0.324200D-02 -0.300799D-02
     26 -0.939926D-03  0.393741D-03 -0.729089D-03 -0.154205D-02  0.166467D-02
     27 -0.759928D-03 -0.728830D-04  0.110068D-02  0.186146D-04  0.117907D-02
     28 -0.595049D-03 -0.130048D-02  0.156290D-02 -0.921236D-03 -0.182164D-02
     29 -0.143177D-02  0.264831D-03 -0.864958D-03 -0.995022D-03  0.172561D-02
     30 -0.180190D-03 -0.869010D-03  0.272981D-02  0.103027D-02  0.318644D-03
     31 -0.128815D-02 -0.114519D-03 -0.180090D-02 -0.127386D-02  0.952055D-04
     32 -0.136213D-02  0.657741D-03 -0.162657D-02 -0.613785D-03  0.175083D-02
     33 -0.798223D-04 -0.250984D-03  0.867696D-03  0.210570D-03  0.184885D-03
     34  0.398413D-03  0.468251D-03  0.227193D-03 -0.203046D-02  0.120965D-02
     35 -0.512559D-03 -0.514359D-02  0.354825D-02  0.716184D-03  0.256039D-02
     36  0.398926D-03 -0.279112D-04  0.349635D-02 -0.397501D-03 -0.311402D-02
               21            22            23            24            25 
     21  0.203680D+00
     22 -0.368485D-02  0.303361D-01
     23 -0.133194D-02  0.282046D-01  0.149664D+00
     24  0.112201D-01 -0.858498D-02 -0.244960D-01  0.493391D+00
     25 -0.220810D-02  0.294337D-03 -0.766840D-03  0.166694D-04  0.775426D-01
     26  0.757369D-03 -0.115268D-02 -0.201952D-03  0.323109D-03 -0.326976D-01
     27  0.190763D-02 -0.557578D-03 -0.407504D-03  0.630221D-03 -0.521326D-01
     28  0.605713D-03  0.308508D-03 -0.487261D-03  0.372246D-03  0.109291D-01
     29  0.683801D-03 -0.824406D-03  0.251450D-03 -0.633481D-04 -0.114215D-02
     30  0.922708D-03  0.350042D-03 -0.189063D-03  0.527675D-03 -0.962445D-02
     31  0.483503D-03 -0.125624D-02 -0.192567D-02  0.111303D-02 -0.232666D-01
     32  0.111201D-02 -0.153501D-02 -0.699451D-03  0.534125D-03  0.273923D-01
     33  0.539900D-03  0.664158D-04  0.127600D-03  0.111808D-03  0.409028D-01
     34  0.131808D-02 -0.241613D-02 -0.483438D-02 -0.311345D-02  0.868238D-04
     35 -0.539388D-02 -0.480404D-02 -0.301684D-01 -0.272620D-01  0.178758D-03
     36  0.404699D-03  0.496036D-02  0.156865D-01 -0.430005D+00 -0.107776D-03
               26            27            28            29            30 
     26  0.140248D+00
     27  0.132963D+00  0.293781D+00
     28 -0.391301D-03 -0.224109D-02  0.955959D-01
     29  0.174221D-01 -0.708135D-02 -0.548364D-01  0.158388D+00
     30  0.132325D-01 -0.574431D-01  0.730134D-01 -0.133025D+00  0.245209D+00
     31  0.148767D-01  0.226786D-01 -0.325010D-01  0.177904D-01 -0.167265D-01
     32  0.394546D-02 -0.129265D-01  0.317908D-01  0.249494D-02  0.895725D-02
     33 -0.132201D-01 -0.101211D-01 -0.348895D-01  0.106120D-01  0.695059D-03
     34  0.166979D-03 -0.946737D-04  0.707420D-05  0.438096D-03 -0.225125D-03
     35  0.100473D-03 -0.177292D-03  0.100122D-03  0.105079D-03 -0.163074D-03
     36 -0.235835D-03 -0.140171D-03 -0.137859D-03 -0.154759D-03 -0.506732D-05
               31            32            33            34            35 
     31  0.365549D+00
     32 -0.299269D-01  0.620645D-01
     33 -0.253912D-01  0.415537D-02  0.670497D-01
     34 -0.196748D-03 -0.601245D-04  0.378893D-04  0.334804D-02
     35  0.237126D-03  0.323956D-04 -0.668514D-04  0.853964D-02  0.399125D-01
     36 -0.572845D-03 -0.353452D-03  0.233102D-04 -0.303886D-02 -0.911546D-02
               36 
     36  0.438302D+00
 Leave Link  716 at Sat May 24 03:45:58 2025, MaxMem=  3758096384 cpu:               0.0 elap:               0.0
 (Enter /apps/easybuild-2022/easybuild/software/Compiler/NVHPC/22.11-CUDA-11.7.0/Gaussian/g16c01-CUDA-11.7.0/g16/l103.exe)

 GradGradGradGradGradGradGradGradGradGradGradGradGradGradGradGradGradGrad
 Berny optimization.
 Search for a saddle point.
 Step number   1 out of a maximum of  100
 All quantities printed in internal units (Hartrees-Bohrs-Radians)
 Swapping is turned off.
 Second derivative matrix not updated -- analytic derivatives used.
 ITU=  0
     Eigenvalues ---    0.00072   0.00099   0.00233   0.00939   0.01541
     Eigenvalues ---    0.01805   0.02901   0.03045   0.03294   0.05189
     Eigenvalues ---    0.05581   0.07503   0.08565   0.11045   0.14772
     Eigenvalues ---    0.15343   0.19036   0.20946   0.21502   0.28268
     Eigenvalues ---    0.33886   0.45339   0.64790   0.70075   0.73196
     Eigenvalues ---    0.75280   0.77362   0.83387   0.85725   1.14655
 Eigenvectors required to have negative eigenvalues:
                          Y6        Z7        Z8        Z12       Y12
   1                    0.38066   0.33764  -0.30734  -0.30599  -0.30393
                          Y7        Z10       Z9        Y9        Z4
   1                   -0.25235  -0.24348  -0.22172   0.21067   0.17918
 Eigenvalue     1 is   7.23D-04 should be less than     0.000000 Eigenvector:
                          Y6        Z7        Z8        Z12       Y12
   1                    0.38066   0.33764  -0.30734  -0.30599  -0.30393
                          Y7        Z10       Z9        Y9        Z4
   1                   -0.25235  -0.24348  -0.22172   0.21067   0.17918
 RFO step:  Lambda0=1.102228337D-03 Lambda=-9.18686102D-04.
 Linear search not attempted -- option 19 set.
 Maximum step size (   0.300) exceeded in Quadratic search.
    -- Step size scaled by   0.338
 B after Tr=    -0.011611    0.002675    0.009042
         Rot=    0.999995   -0.002225   -0.000871   -0.001968 Ang=  -0.35 deg.
 Variable       Old X    -DE/DX   Delta X   Delta X   Delta X     New X
                                 (Linear)    (Quad)   (Total)
    X1       -1.24009  -0.00003   0.00000   0.00507   0.00369  -1.23640
    Y1       -2.51170   0.00001   0.00000   0.00029  -0.00273  -2.51443
    Z1        0.21270   0.00019   0.00000  -0.01726  -0.01726   0.19544
    X2        0.05825   0.00000   0.00000  -0.01331  -0.02481   0.03344
    Y2        0.08050   0.00011   0.00000   0.01005   0.01172   0.09222
    Z2        0.24810   0.00012   0.00000   0.01899   0.02835   0.27645
    X3       -0.31497  -0.00001   0.00000  -0.03019  -0.05067  -0.36564
    Y3        1.32496  -0.00017   0.00000   0.03803   0.04824   1.37321
    Z3       -2.04723  -0.00007   0.00000   0.04059   0.05632  -1.99091
    X4       -0.81450   0.00003   0.00000  -0.01249  -0.02593  -0.84043
    Y4        1.51856   0.00013   0.00000  -0.02636  -0.03722   1.48134
    Z4        2.25858  -0.00008   0.00000   0.04523   0.06233   2.32091
    X5        3.82635   0.00021   0.00000  -0.01072  -0.02068   3.80568
    Y5       -0.12254  -0.00001   0.00000   0.01071   0.02523  -0.09731
    Z5        0.69974   0.00011   0.00000   0.01670   0.01862   0.71836
    X6        4.47304   0.00024   0.00000  -0.01286  -0.01787   4.45516
    Y6       -0.14620  -0.00026   0.00000   0.07858   0.08266  -0.06354
    Z6        3.62016  -0.00005   0.00000   0.01779   0.01876   3.63892
    X7        4.85567  -0.00021   0.00000  -0.00888  -0.01390   4.84177
    Y7       -2.18057   0.00013   0.00000  -0.03704  -0.00995  -2.19052
    Z7       -1.25159  -0.00026   0.00000   0.06548   0.05626  -1.19533
    X8        4.45489  -0.00153   0.00000  -0.00328  -0.02775   4.42715
    Y8        3.05448   0.00034   0.00000  -0.02560  -0.00315   3.05133
    Z8       -0.43611   0.00005   0.00000  -0.07747  -0.06265  -0.49876
    X9       -0.70261   0.00001   0.00000  -0.01257  -0.01318  -0.71579
    Y9       -3.77093  -0.00001   0.00000   0.05225   0.06138  -3.70955
    Z9       -2.02213   0.00000   0.00000  -0.05089  -0.05714  -2.07927
   X10       -0.35859  -0.00000   0.00000   0.03800   0.04586  -0.31273
   Y10       -3.93900  -0.00000   0.00000  -0.03689  -0.04513  -3.98413
   Z10        2.24423   0.00000   0.00000  -0.05769  -0.06582   2.17841
   X11       -3.84469   0.00000   0.00000   0.00557   0.00364  -3.84105
   Y11       -2.22580   0.00000   0.00000  -0.02311  -0.03754  -2.26334
   Z11        0.43399  -0.00001   0.00000   0.01915   0.02484   0.45882
   X12        4.45308   0.00128   0.00000   0.16890   0.14160   4.59467
   Y12        3.03793  -0.00027   0.00000  -0.12500  -0.09352   2.94441
   Z12       -2.31638   0.00000   0.00000  -0.07662  -0.06259  -2.37897
         Item               Value     Threshold  Converged?
 Maximum Force            0.001529     0.000450     NO 
 RMS     Force            0.000357     0.000300     NO 
 Maximum Displacement     0.141598     0.001800     NO 
 RMS     Displacement     0.048130     0.001200     NO 
 Predicted change in Energy=-1.342475D-04
 Lowest energy point so far.  Saving SCF results.
 GradGradGradGradGradGradGradGradGradGradGradGradGradGradGradGradGradGrad

 Leave Link  103 at Sat May 24 03:45:58 2025, MaxMem=  3758096384 cpu:               0.0 elap:               0.0
 (Enter /apps/easybuild-2022/easybuild/software/Compiler/NVHPC/22.11-CUDA-11.7.0/Gaussian/g16c01-CUDA-11.7.0/g16/l202.exe)
                          Input orientation:                          
 ---------------------------------------------------------------------
 Center     Atomic      Atomic             Coordinates (Angstroms)
 Number     Number       Type             X           Y           Z
 ---------------------------------------------------------------------
      1          6           0       -0.654275   -1.330579    0.103420
      2          6           0        0.017694    0.048800    0.146293
      3          9           0       -0.193490    0.726669   -1.053546
      4          9           0       -0.444734    0.783894    1.228172
      5         16           0        2.013877   -0.051495    0.380139
      6          8           0        2.357570   -0.033621    1.925634
      7          8           0        2.562155   -1.159173   -0.632541
      8          8           0        2.342744    1.614693   -0.263933
      9          9           0       -0.378780   -1.963009   -1.100304
     10          9           0       -0.165488   -2.108309    1.152765
     11          9           0       -2.032596   -1.197706    0.242798
     12          1           0        2.431397    1.558115   -1.258897
 ---------------------------------------------------------------------
                    Distance matrix (angstroms):
                    1          2          3          4          5
     1  C    0.000000
     2  C    1.534948   0.000000
     3  F    2.404821   1.394174   0.000000
     4  F    2.404157   1.387323   2.296222   0.000000
     5  S    2.971811   2.012334   2.744714   2.731630   0.000000
     6  O    3.751502   2.940726   3.995179   3.001282   1.583351
     7  O    3.304003   2.922339   3.365594   4.034742   1.597836
     8  O    4.218021   2.833050   2.800814   3.269043   1.816361
     9  F    1.387378   2.399702   2.696458   3.601614   3.401530
    10  F    1.394597   2.387396   3.592450   2.906631   3.094684
    11  F    1.391708   2.401412   2.960750   2.723785   4.207922
    12  H    4.440927   3.174674   2.761068   3.880343   2.334867
                    6          7          8          9         10
     6  O    0.000000
     7  O    2.802317   0.000000
     8  O    2.740687   2.806839   0.000000
     9  F    4.512920   3.084486   4.572326   0.000000
    10  F    3.356707   3.395322   4.707336   2.267802   0.000000
    11  F    4.843613   4.677547   5.225895   2.263784   2.267891
    12  H    3.560942   2.791607   1.000507   4.507833   5.099274
                   11         12
    11  F    0.000000
    12  H    5.456819   0.000000
 Symmetry turned off by external request.
 Stoichiometry    C2HF5O3S
 Rotational constants (GHZ):           1.4039314           0.7514708           0.7148946
 Leave Link  202 at Sat May 24 03:45:58 2025, MaxMem=  3758096384 cpu:               0.0 elap:               0.0
 (Enter /apps/easybuild-2022/easybuild/software/Compiler/NVHPC/22.11-CUDA-11.7.0/Gaussian/g16c01-CUDA-11.7.0/g16/l301.exe)
 Standard basis: 6-31G (6D, 7F)
 Ernie: Thresh=  0.10000D-02 Tol=  0.10000D-05 Strict=F.
   105 basis functions,   270 primitive gaussians,   105 cartesian basis functions
    49 alpha electrons       49 beta electrons
       nuclear repulsion energy       873.0848554717 Hartrees.



 Warning!  S  atom    5 may be hypervalent but has no d functions.



 IExCor=    0 DFT=F Ex=HF Corr=None ExCW=0 ScaHFX=  1.000000
 ScaDFX=  1.000000  1.000000  1.000000  1.000000 ScalE2=  1.000000  1.000000
 IRadAn=      5 IRanWt=     -1 IRanGd=            0 ICorTp=0 IEmpDi=  4
 NAtoms=   12 NActive=   12 NUniq=   12 SFac= 1.00D+00 NAtFMM=   60 NAOKFM=F Big=F
 Integral buffers will be    131072 words long.
 Raffenetti 1 integral format.
 Two-electron integral symmetry is turned off.
 Leave Link  301 at Sat May 24 03:45:58 2025, MaxMem=  3758096384 cpu:               0.0 elap:               0.0
 (Enter /apps/easybuild-2022/easybuild/software/Compiler/NVHPC/22.11-CUDA-11.7.0/Gaussian/g16c01-CUDA-11.7.0/g16/l302.exe)
 NPDir=0 NMtPBC=     1 NCelOv=     1 NCel=       1 NClECP=     1 NCelD=      1
         NCelK=      1 NCelE2=     1 NClLst=     1 CellRange=     0.0.
 One-electron integrals computed using PRISM.
 NBasis=   105 RedAO= T EigKep=  5.32D-03  NBF=   105
 NBsUse=   105 1.00D-06 EigRej= -1.00D+00 NBFU=   105
 Leave Link  302 at Sat May 24 03:45:58 2025, MaxMem=  3758096384 cpu:               0.2 elap:               0.1
 (Enter /apps/easybuild-2022/easybuild/software/Compiler/NVHPC/22.11-CUDA-11.7.0/Gaussian/g16c01-CUDA-11.7.0/g16/l303.exe)
 DipDrv:  MaxL=1.
 Leave Link  303 at Sat May 24 03:45:58 2025, MaxMem=  3758096384 cpu:               0.0 elap:               0.0
 (Enter /apps/easybuild-2022/easybuild/software/Compiler/NVHPC/22.11-CUDA-11.7.0/Gaussian/g16c01-CUDA-11.7.0/g16/l401.exe)
 ExpMin= 1.17D-01 ExpMax= 2.19D+04 ExpMxC= 3.30D+03 IAcc=3 IRadAn=         5 AccDes= 0.00D+00
 Harris functional with IExCor=  205 and IRadAn=       5 diagonalized for initial guess.
 HarFok:  IExCor=  205 AccDes= 0.00D+00 IRadAn=         5 IDoV= 1 UseB2=F ITyADJ=14
 ICtDFT=  3500011 ScaDFX=  1.000000  1.000000  1.000000  1.000000
 FoFCou: FMM=F IPFlag=           0 FMFlag=      100000 FMFlg1=           0
         NFxFlg=           0 DoJE=T BraDBF=F KetDBF=T FulRan=T
         wScrn=  0.000000 ICntrl=       500 IOpCl=  0 I1Cent=   200000004 NGrid=           0
         NMat0=    1 NMatS0=      1 NMatT0=    0 NMatD0=    1 NMtDS0=    0 NMtDT0=    0
 Symmetry not used in FoFCou.
 Harris En= -1194.91109707828    
 JPrj=0 DoOrth=F DoCkMO=T.
 Mixing orbitals, IMix= 1 IMixAn=  0 NRI=1 NE=   49 Coef=  7.07106781D-01  7.07106781D-01
 Leave Link  401 at Sat May 24 03:45:58 2025, MaxMem=  3758096384 cpu:               0.7 elap:               0.1
 (Enter /apps/easybuild-2022/easybuild/software/Compiler/NVHPC/22.11-CUDA-11.7.0/Gaussian/g16c01-CUDA-11.7.0/g16/l502.exe)
 Keep R1 ints in memory in canonical form, NReq=17171883.
 FoFCou: FMM=F IPFlag=           0 FMFlag=           0 FMFlg1=           0
         NFxFlg=           0 DoJE=F BraDBF=F KetDBF=F FulRan=T
         wScrn=  0.000000 ICntrl=       600 IOpCl=  0 I1Cent=           0 NGrid=           0
         NMat0=    1 NMatS0=   5565 NMatT0=    0 NMatD0=    1 NMtDS0=    0 NMtDT0=    0
 Symmetry not used in FoFCou.
 Two-electron integral symmetry not used.
 Closed shell SCF:
 Using DIIS extrapolation, IDIIS=  1040.
 NGot=  3758096384 LenX=  3742584760 LenY=  3742573294
 Requested convergence on RMS density matrix=1.00D-08 within  32 cycles.
 Requested convergence on MAX density matrix=1.00D-06.
 Requested convergence on             energy=1.00D-06.
 No special actions if energy rises.

 Cycle   1  Pass 1  IDiag  1:
 E= -1194.05499438024    
 DIIS: error= 5.74D-02 at cycle   1 NSaved=   1.
 NSaved= 1 IEnMin= 1 EnMin= -1194.05499438024     IErMin= 1 ErrMin= 5.74D-02
 ErrMax= 5.74D-02  0.00D+00 EMaxC= 1.00D-01 BMatC= 7.18D-01 BMatP= 7.18D-01
 IDIUse=3 WtCom= 4.26D-01 WtEn= 5.74D-01
 Coeff-Com:  0.100D+01
 Coeff-En:   0.100D+01
 Coeff:      0.100D+01
 Gap=     0.046 Goal=   None    Shift=    0.000
 GapD=    0.046 DampG=0.250 DampE=0.500 DampFc=0.2500 IDamp=-1.
 Damping current iteration by 2.50D-01
 RMSDP=2.08D-02 MaxDP=3.90D-01              OVMax= 5.88D-01

 Cycle   2  Pass 1  IDiag  1:
 E= -1194.28109733567     Delta-E=       -0.226102955425 Rises=F Damp=T
 DIIS: error= 3.02D-02 at cycle   2 NSaved=   2.
 NSaved= 2 IEnMin= 2 EnMin= -1194.28109733567     IErMin= 2 ErrMin= 3.02D-02
 ErrMax= 3.02D-02  0.00D+00 EMaxC= 1.00D-01 BMatC= 2.53D-01 BMatP= 7.18D-01
 IDIUse=3 WtCom= 6.98D-01 WtEn= 3.02D-01
 Coeff-Com: -0.104D+01 0.204D+01
 Coeff-En:   0.000D+00 0.100D+01
 Coeff:     -0.727D+00 0.173D+01
 Gap=     0.390 Goal=   None    Shift=    0.000
 RMSDP=1.13D-02 MaxDP=2.65D-01 DE=-2.26D-01 OVMax= 3.27D-01

 Cycle   3  Pass 1  IDiag  1:
 E= -1194.90922615298     Delta-E=       -0.628128817310 Rises=F Damp=F
 DIIS: error= 8.13D-03 at cycle   3 NSaved=   3.
 NSaved= 3 IEnMin= 3 EnMin= -1194.90922615298     IErMin= 3 ErrMin= 8.13D-03
 ErrMax= 8.13D-03  0.00D+00 EMaxC= 1.00D-01 BMatC= 1.45D-02 BMatP= 2.53D-01
 IDIUse=3 WtCom= 9.19D-01 WtEn= 8.13D-02
 Coeff-Com:  0.175D+00-0.247D+00 0.107D+01
 Coeff-En:   0.000D+00 0.000D+00 0.100D+01
 Coeff:      0.161D+00-0.227D+00 0.107D+01
 Gap=     0.473 Goal=   None    Shift=    0.000
 RMSDP=2.83D-03 MaxDP=4.00D-02 DE=-6.28D-01 OVMax= 9.67D-02

 Cycle   4  Pass 1  IDiag  1:
 E= -1194.94930869159     Delta-E=       -0.040082538618 Rises=F Damp=F
 DIIS: error= 4.89D-03 at cycle   4 NSaved=   4.
 NSaved= 4 IEnMin= 4 EnMin= -1194.94930869159     IErMin= 4 ErrMin= 4.89D-03
 ErrMax= 4.89D-03  0.00D+00 EMaxC= 1.00D-01 BMatC= 4.27D-03 BMatP= 1.45D-02
 IDIUse=3 WtCom= 9.51D-01 WtEn= 4.89D-02
 Coeff-Com:  0.540D-01-0.965D-01 0.174D+00 0.868D+00
 Coeff-En:   0.000D+00 0.000D+00 0.000D+00 0.100D+01
 Coeff:      0.514D-01-0.917D-01 0.166D+00 0.875D+00
 Gap=     0.505 Goal=   None    Shift=    0.000
 RMSDP=1.30D-03 MaxDP=1.77D-02 DE=-4.01D-02 OVMax= 4.13D-02

 Cycle   5  Pass 1  IDiag  1:
 E= -1194.95918219281     Delta-E=       -0.009873501219 Rises=F Damp=F
 DIIS: error= 2.92D-03 at cycle   5 NSaved=   5.
 NSaved= 5 IEnMin= 5 EnMin= -1194.95918219281     IErMin= 5 ErrMin= 2.92D-03
 ErrMax= 2.92D-03  0.00D+00 EMaxC= 1.00D-01 BMatC= 1.65D-03 BMatP= 4.27D-03
 IDIUse=3 WtCom= 9.71D-01 WtEn= 2.92D-02
 Coeff-Com: -0.716D-01 0.109D+00-0.306D+00 0.284D+00 0.985D+00
 Coeff-En:   0.000D+00 0.000D+00 0.000D+00 0.000D+00 0.100D+01
 Coeff:     -0.695D-01 0.106D+00-0.297D+00 0.276D+00 0.985D+00
 Gap=     0.513 Goal=   None    Shift=    0.000
 RMSDP=1.07D-03 MaxDP=1.39D-02 DE=-9.87D-03 OVMax= 4.29D-02

 Cycle   6  Pass 1  IDiag  1:
 E= -1194.96384168966     Delta-E=       -0.004659496843 Rises=F Damp=F
 DIIS: error= 1.25D-03 at cycle   6 NSaved=   6.
 NSaved= 6 IEnMin= 6 EnMin= -1194.96384168966     IErMin= 6 ErrMin= 1.25D-03
 ErrMax= 1.25D-03  0.00D+00 EMaxC= 1.00D-01 BMatC= 2.09D-04 BMatP= 1.65D-03
 IDIUse=3 WtCom= 9.87D-01 WtEn= 1.25D-02
 Coeff-Com: -0.202D-01 0.317D-01-0.647D-01-0.966D-01 0.111D+00 0.104D+01
 Coeff-En:   0.000D+00 0.000D+00 0.000D+00 0.000D+00 0.000D+00 0.100D+01
 Coeff:     -0.199D-01 0.313D-01-0.639D-01-0.954D-01 0.110D+00 0.104D+01
 Gap=     0.515 Goal=   None    Shift=    0.000
 RMSDP=4.58D-04 MaxDP=7.68D-03 DE=-4.66D-03 OVMax= 1.79D-02

 Cycle   7  Pass 1  IDiag  1:
 E= -1194.96460626545     Delta-E=       -0.000764575796 Rises=F Damp=F
 DIIS: error= 4.65D-04 at cycle   7 NSaved=   7.
 NSaved= 7 IEnMin= 7 EnMin= -1194.96460626545     IErMin= 7 ErrMin= 4.65D-04
 ErrMax= 4.65D-04  0.00D+00 EMaxC= 1.00D-01 BMatC= 4.15D-05 BMatP= 2.09D-04
 IDIUse=3 WtCom= 9.95D-01 WtEn= 4.65D-03
 Coeff-Com:  0.130D-01-0.189D-01 0.497D-01-0.678D-01-0.174D+00 0.170D+00
 Coeff-Com:  0.103D+01
 Coeff-En:   0.000D+00 0.000D+00 0.000D+00 0.000D+00 0.000D+00 0.000D+00
 Coeff-En:   0.100D+01
 Coeff:      0.129D-01-0.188D-01 0.495D-01-0.675D-01-0.174D+00 0.169D+00
 Coeff:      0.103D+01
 Gap=     0.517 Goal=   None    Shift=    0.000
 RMSDP=1.91D-04 MaxDP=3.37D-03 DE=-7.65D-04 OVMax= 6.15D-03

 Cycle   8  Pass 1  IDiag  1:
 E= -1194.96474087096     Delta-E=       -0.000134605509 Rises=F Damp=F
 DIIS: error= 1.84D-04 at cycle   8 NSaved=   8.
 NSaved= 8 IEnMin= 8 EnMin= -1194.96474087096     IErMin= 8 ErrMin= 1.84D-04
 ErrMax= 1.84D-04  0.00D+00 EMaxC= 1.00D-01 BMatC= 6.61D-06 BMatP= 4.15D-05
 IDIUse=3 WtCom= 9.98D-01 WtEn= 1.84D-03
 Coeff-Com:  0.715D-02-0.103D-01 0.149D-01 0.420D-02-0.281D-01-0.118D+00
 Coeff-Com:  0.710D-01 0.106D+01
 Coeff-En:   0.000D+00 0.000D+00 0.000D+00 0.000D+00 0.000D+00 0.000D+00
 Coeff-En:   0.000D+00 0.100D+01
 Coeff:      0.714D-02-0.103D-01 0.149D-01 0.419D-02-0.280D-01-0.117D+00
 Coeff:      0.709D-01 0.106D+01
 Gap=     0.518 Goal=   None    Shift=    0.000
 RMSDP=6.70D-05 MaxDP=1.04D-03 DE=-1.35D-04 OVMax= 1.85D-03

 Cycle   9  Pass 1  IDiag  1:
 E= -1194.96476252233     Delta-E=       -0.000021651365 Rises=F Damp=F
 DIIS: error= 1.01D-04 at cycle   9 NSaved=   9.
 NSaved= 9 IEnMin= 9 EnMin= -1194.96476252233     IErMin= 9 ErrMin= 1.01D-04
 ErrMax= 1.01D-04  0.00D+00 EMaxC= 1.00D-01 BMatC= 1.11D-06 BMatP= 6.61D-06
 IDIUse=3 WtCom= 9.99D-01 WtEn= 1.01D-03
 Coeff-Com: -0.103D-02 0.153D-02-0.766D-02 0.969D-02 0.294D-01-0.112D-01
 Coeff-Com: -0.183D+00-0.165D+00 0.133D+01
 Coeff-En:   0.000D+00 0.000D+00 0.000D+00 0.000D+00 0.000D+00 0.000D+00
 Coeff-En:   0.000D+00 0.000D+00 0.100D+01
 Coeff:     -0.103D-02 0.153D-02-0.765D-02 0.968D-02 0.294D-01-0.112D-01
 Coeff:     -0.183D+00-0.165D+00 0.133D+01
 Gap=     0.518 Goal=   None    Shift=    0.000
 RMSDP=3.77D-05 MaxDP=5.63D-04 DE=-2.17D-05 OVMax= 1.17D-03

 Cycle  10  Pass 1  IDiag  1:
 E= -1194.96476772373     Delta-E=       -0.000005201407 Rises=F Damp=F
 DIIS: error= 4.07D-05 at cycle  10 NSaved=  10.
 NSaved=10 IEnMin=10 EnMin= -1194.96476772373     IErMin=10 ErrMin= 4.07D-05
 ErrMax= 4.07D-05  0.00D+00 EMaxC= 1.00D-01 BMatC= 1.63D-07 BMatP= 1.11D-06
 IDIUse=1 WtCom= 1.00D+00 WtEn= 0.00D+00
 Coeff-Com: -0.440D-03 0.542D-03-0.833D-03 0.276D-03 0.487D-03 0.111D-01
 Coeff-Com:  0.116D-03-0.958D-01-0.996D-01 0.118D+01
 Coeff:     -0.440D-03 0.542D-03-0.833D-03 0.276D-03 0.487D-03 0.111D-01
 Coeff:      0.116D-03-0.958D-01-0.996D-01 0.118D+01
 Gap=     0.518 Goal=   None    Shift=    0.000
 RMSDP=1.28D-05 MaxDP=2.52D-04 DE=-5.20D-06 OVMax= 3.50D-04

 Cycle  11  Pass 1  IDiag  1:
 E= -1194.96476837129     Delta-E=       -0.000000647556 Rises=F Damp=F
 DIIS: error= 1.86D-05 at cycle  11 NSaved=  11.
 NSaved=11 IEnMin=11 EnMin= -1194.96476837129     IErMin=11 ErrMin= 1.86D-05
[...]
     17  0.960088D-03  0.308716D-02 -0.416970D-01 -0.104684D+00 -0.121919D+00
     18  0.234047D-02  0.790063D-02 -0.101765D+00 -0.127469D+00 -0.337239D+00
     19  0.131559D-02  0.425198D-02 -0.108509D+00  0.117646D+00  0.430686D-01
     20  0.925911D-03 -0.161029D-02  0.121063D+00 -0.312460D+00 -0.107900D+00
     21  0.455853D-03  0.386780D-03  0.444197D-01 -0.101085D+00 -0.914855D-01
     22  0.138122D-02  0.414510D-02 -0.623345D-01 -0.177291D-01  0.204993D-01
     23  0.475496D-03  0.878075D-03 -0.694746D-03 -0.752164D-01  0.353924D-01
     24  0.292757D-03  0.288111D-03  0.347862D-02  0.382357D-01 -0.800817D-01
     25 -0.243899D-02 -0.199821D-02 -0.350380D-03  0.585570D-02  0.361703D-02
     26 -0.616993D-02 -0.323270D-02  0.418895D-02 -0.231161D-02  0.440934D-03
     27 -0.375861D-02  0.123347D-02  0.242479D-02 -0.715396D-03 -0.395077D-02
     28 -0.115276D-02 -0.637693D-03 -0.912539D-03  0.675732D-02  0.864981D-03
     29  0.126511D-02 -0.148229D-03  0.454029D-02 -0.315803D-02  0.452324D-03
     30 -0.105105D-02  0.434565D-02  0.143019D-03  0.961998D-03 -0.383548D-02
     31  0.198923D-03 -0.557377D-03  0.821504D-02  0.626490D-03  0.797474D-03
     32  0.916919D-03  0.198861D-02  0.567373D-02 -0.479033D-02 -0.846782D-03
     33  0.143752D-02  0.360325D-02  0.110547D-02 -0.857492D-03 -0.210337D-02
     34 -0.386717D-03 -0.235167D-03 -0.164368D-02  0.365807D-02 -0.291108D-02
     35  0.855082D-04  0.394962D-03 -0.278062D-01 -0.411401D-02  0.152836D-01
     36 -0.230791D-03 -0.294987D-03  0.285610D-01  0.112530D-01 -0.884935D-02
               16            17            18            19            20 
     16  0.651997D-01
     17  0.385891D-01  0.964355D-01
     18  0.107706D+00  0.140989D+00  0.363966D+00
     19  0.147168D-01 -0.198985D-02  0.793684D-03  0.864962D-01
     20  0.929974D-03 -0.680227D-02 -0.124222D-01 -0.133143D+00  0.338532D+00
     21  0.529681D-02 -0.240172D-01 -0.602635D-02 -0.447115D-01  0.118035D+00
     22  0.998505D-02  0.441970D-02  0.212539D-03  0.979166D-02  0.297482D-02
     23  0.288164D-02  0.108177D-01  0.444799D-02  0.411174D-02 -0.157920D-01
     24 -0.291526D-02  0.913062D-02 -0.152792D-01 -0.303706D-02  0.616576D-02
     25  0.271491D-03 -0.771082D-03 -0.978816D-03 -0.301455D-02 -0.303183D-02
     26 -0.856005D-03  0.173628D-03 -0.311929D-03 -0.778192D-03  0.192270D-02
     27 -0.771194D-03  0.173654D-03  0.556144D-03 -0.108808D-02  0.620264D-03
     28  0.277975D-03 -0.623782D-03 -0.977968D-04 -0.256345D-02 -0.463590D-02
     29 -0.146525D-02 -0.349054D-04 -0.913491D-03 -0.129494D-02  0.215831D-02
     30  0.274197D-03  0.120536D-03  0.152093D-02  0.101514D-02 -0.288475D-04
     31 -0.180184D-02 -0.927896D-03 -0.187605D-02 -0.144146D-02 -0.172645D-03
     32 -0.212307D-02 -0.151073D-03 -0.133045D-02 -0.574650D-03  0.215768D-02
     33 -0.670807D-03  0.117605D-04  0.208844D-03 -0.419417D-04  0.297579D-03
     34 -0.153415D-03  0.356258D-03 -0.215841D-02  0.362352D-04  0.166028D-02
     35  0.745478D-03 -0.180713D-03 -0.149690D-02  0.356009D-02 -0.106553D-02
     36 -0.287528D-02 -0.223553D-02 -0.201222D-02 -0.121996D-02 -0.207638D-02
               21            22            23            24            25 
     21  0.837920D-01
     22 -0.549780D-02  0.456072D+00
     23  0.114354D-01  0.461811D-01  0.970790D-01
     24  0.101426D-01 -0.109520D+00 -0.761060D-01  0.123636D+00
     25 -0.271262D-02  0.223997D-03 -0.778898D-03 -0.232965D-03  0.869865D-01
     26  0.453172D-03 -0.109903D-02  0.135526D-04  0.184442D-03 -0.239404D-01
     27  0.152721D-02 -0.791968D-03  0.913416D-04  0.159508D-02 -0.742893D-01
     28  0.491209D-03  0.497280D-03 -0.648993D-03  0.380295D-03  0.110244D-01
     29  0.537741D-03 -0.868202D-03  0.279198D-03  0.657521D-04  0.241562D-03
     30  0.933506D-03  0.407609D-04 -0.469075D-04  0.605606D-03 -0.796479D-02
     31  0.119402D-03 -0.166739D-02 -0.115906D-02  0.914949D-03 -0.283962D-01
     32  0.695189D-03 -0.179251D-02 -0.143467D-03  0.730580D-03  0.152289D-01
     33  0.865685D-03 -0.398960D-03 -0.909430D-04  0.591885D-03  0.461268D-01
     34 -0.727031D-03 -0.405102D+00 -0.522426D-01  0.109850D+00  0.112250D-03
     35 -0.363987D-02 -0.231177D-01 -0.190014D-01  0.201190D-01  0.296138D-03
     36  0.415104D-03  0.804589D-01  0.240238D-01 -0.392942D-01 -0.114184D-03
               26            27            28            29            30 
     26  0.840186D-01
     27  0.795434D-01  0.337786D+00
     28 -0.110041D-02  0.590313D-03  0.101033D+00
     29  0.121542D-01  0.902293D-02 -0.739903D-01  0.215135D+00
     30  0.287199D-01 -0.516069D-01  0.640490D-01 -0.139982D+00  0.189548D+00
     31  0.718151D-02  0.253797D-01 -0.340663D-01  0.189917D-01 -0.153278D-01
     32  0.108515D-01 -0.605474D-02  0.366074D-01  0.154564D-02  0.931406D-02
     33 -0.504819D-02 -0.121889D-01 -0.291047D-01  0.941415D-02  0.312387D-02
     34  0.351179D-04  0.100490D-03  0.175601D-03 -0.455226D-04  0.103965D-03
     35 -0.126945D-03 -0.415564D-03  0.175560D-03  0.124489D-04 -0.124241D-03
     36 -0.426513D-04 -0.134933D-03 -0.194590D-03 -0.423805D-04 -0.849562D-04
               31            32            33            34            35 
     31  0.366969D+00
     32 -0.395858D-02  0.585959D-01
     33 -0.164429D-01 -0.128636D-02  0.655868D-01
     34  0.454638D-03  0.235389D-03  0.716472D-04  0.406319D+00
     35  0.298181D-04 -0.276529D-03 -0.115628D-03  0.453493D-01  0.264427D-01
     36  0.508802D-04  0.122291D-03 -0.485017D-04 -0.103080D+00 -0.335952D-01
               36 
     36  0.511605D-01
 Leave Link  716 at Sat May 24 04:01:39 2025, MaxMem=  3758096384 cpu:               0.0 elap:               0.0
 (Enter /apps/easybuild-2022/easybuild/software/Compiler/NVHPC/22.11-CUDA-11.7.0/Gaussian/g16c01-CUDA-11.7.0/g16/l9999.exe)

 ----------------------------------------------------------------------

 Electric dipole moment (input orientation):
 (Debye = 10**-18 statcoulomb cm , SI units = C m)
                  (au)            (Debye)         (10**-30 SI)
   Tot        0.747403D+00      0.189971D+01      0.633675D+01
   x         -0.209911D-01     -0.533540D-01     -0.177970D+00
   y          0.450443D+00      0.114491D+01      0.381901D+01
   z         -0.596047D+00     -0.151500D+01     -0.505350D+01

 Dipole polarizability, Alpha (input orientation).
 (esu units = cm**3 , SI units = C**2 m**2 J**-1)
 Alpha(0;0):
               (au)            (10**-24 esu)      (10**-40 SI)
   iso        0.557843D+02      0.826638D+01      0.919759D+01
   aniso      0.120660D+02      0.178800D+01      0.198941D+01
   xx         0.632919D+02      0.937890D+01      0.104354D+02
   yx         0.203541D+00      0.301617D-01      0.335594D-01
   yy         0.498573D+02      0.738809D+01      0.822035D+01
   zx         0.484193D+00      0.717499D-01      0.798326D-01
   zy        -0.112135D+01     -0.166167D+00     -0.184886D+00
   zz         0.542037D+02      0.803216D+01      0.893698D+01

 ----------------------------------------------------------------------

 Dipole orientation:
     6         -1.26512862          2.01934645         -1.44376268
     6         -0.17124623         -0.46864043         -0.43511484
     9         -0.93570629         -0.87525736          2.03004315
     9         -0.86998427         -2.47451127         -1.97756232
    16          3.68461643         -0.49954293         -0.62457626
     8          4.46926085         -2.99975894         -2.09575004
     8          4.80509626          2.18341599         -1.43253187
     8          4.00961994         -0.87901587          2.77351658
     9         -0.50869371          4.01206472          0.08501339
     9         -0.42191229          2.41953734         -3.89959522
     9         -3.89538492          1.90146382         -1.45196661
     1          5.83722745         -0.77767166          3.20028822

 Electric dipole moment (dipole orientation):
 (Debye = 10**-18 statcoulomb cm , SI units = C m)
                  (au)            (Debye)         (10**-30 SI)
   Tot        0.747403D+00      0.189971D+01      0.633675D+01
   x          0.000000D+00      0.000000D+00      0.000000D+00
   y          0.000000D+00      0.000000D+00      0.000000D+00
   z          0.747403D+00      0.189971D+01      0.633675D+01

 Dipole polarizability, Alpha (dipole orientation).
 (esu units = cm**3 , SI units = C**2 m**2 J**-1)
 Alpha(0;0):
               (au)            (10**-24 esu)      (10**-40 SI)
   iso        0.557843D+02      0.826638D+01      0.919759D+01
   aniso      0.120660D+02      0.178800D+01      0.198941D+01
   xx         0.632608D+02      0.937428D+01      0.104303D+02
   yx        -0.525565D+00     -0.778807D-01     -0.866539D-01
   yy         0.503672D+02      0.746365D+01      0.830443D+01
   zx        -0.515425D+00     -0.763781D-01     -0.849821D-01
   zy         0.180155D+01      0.266962D+00      0.297035D+00
   zz         0.537249D+02      0.796120D+01      0.885803D+01

 ----------------------------------------------------------------------
 Unable to Open any file for archive entry.
 1\1\GINC-SPARTAN-BM143\Freq\RMP2-FC\6-31G\C2H1F5O3S1\AKHALILOV\24-May-
 2025\0\\#P mp2/6-31G Symm(None) scf(xqc) pop(None) guess(Mix,Always) o
 pt(NoFreeze,TS,CalcAll,NoEigentest,MaxCycle=999,Cartesian)\\Gaussian i
 nput prepared by ASE\\0,1\C,-0.6577886544,-1.319414639,-0.0159256621\C
 ,-0.0817778202,0.0582601214,0.3356298267\F,-0.5207464378,1.0123388377,
 -0.5636601068\F,-0.4184523007,0.4098273888,1.6366672638\S,1.9607312186
 ,0.0300991064,0.3681343511\O,2.4100885612,0.6205243699,1.7747051261\O,
 2.552041917,-1.3548620878,-0.1632072778\O,2.0840282397,1.2756796921,-0
 .9497156614\F,-0.2903269794,-1.6695009032,-1.3078564218\F,-0.177268872
 5,-2.2674134314,0.8803077216\F,-2.0483402087,-1.2853623976,0.064223218
 \H,3.0438843372,1.3781019427,-1.1893023775\\Version=ES64L-G16RevC.01\H
 F=-1194.9625235\MP2=-1196.2540648\RMSD=4.008e-09\RMSF=1.158e-07\ZeroPo
 int=0.0459331\Thermal=0.0567861\ETot=-1196.1972787\HTot=-1196.1963345\
 GTot=-1196.2448692\Dipole=-0.0209911,0.450443,-0.5960473\DipoleDeriv=1
 .3935982,0.033412,0.0004249,0.4946981,1.3093959,-0.0041295,0.1342585,-
 0.0094159,1.359602,1.0142456,-0.1165947,-0.0633736,-0.5107081,0.651993
 6,-0.1184161,-0.2499053,-0.1065722,0.9195469,-0.5879225,0.1074823,-0.1
 346272,0.2637529,-0.4240477,0.1739023,-0.2559016,0.0981088,-0.3889414,
 -0.4722343,0.0359329,0.1601112,0.066228,-0.3076792,-0.1006252,0.360915
 9,-0.0509638,-0.5427423,1.8035845,0.0562298,0.0741915,0.0671362,1.9202
 967,0.0145061,0.0134305,0.0531527,1.9480831,-0.6575539,-0.0517423,-0.1
 320768,-0.0988691,-0.5493258,-0.2107339,-0.2202679,-0.1231855,-0.86903
 36,-0.6849111,0.1283474,0.0321018,0.1689183,-0.8621806,-0.0629475,0.08
 67889,-0.1952888,-0.5322344,-0.4367674,-0.1926022,0.1576379,-0.2171916
 ,-0.8749497,0.2509647,0.1956789,0.2661247,-0.9205748,-0.3464943,-0.053
 7882,0.0351582,-0.0553973,-0.355932,-0.1243682,0.0480006,-0.06434,-0.5
 966298,-0.3625511,-0.0144537,-0.0698029,-0.0117146,-0.4983446,0.167205
 4,-0.0786211,0.1181967,-0.4388338,-0.8465725,-0.033029,0.0090182,-0.20
 00326,-0.373006,-0.019297,-0.0279932,-0.018738,-0.308489,0.1835787,0.1
 008057,-0.0687633,0.0331798,0.3637794,0.0339388,-0.0063843,0.0329212,0
 .370247\Polar=63.2919254,0.2035414,49.8572761,0.4841925,-1.1213493,54.
 2037059\PG=Unknown\NImag=1\\0.51653873,0.01995248,0.55001904,0.0065295
 9,0.00510384,0.53915799,-0.07736660,-0.04505227,-0.00982402,0.32220629
 ,-0.07089926,-0.16473487,-0.03091549,-0.00626079,0.51645115,-0.0179503
 0,-0.03189934,-0.04984090,0.01327534,0.00119888,0.49599418,0.00084028,
 -0.00308353,0.00143065,-0.08148979,0.06583514,-0.05558033,0.07999700,0
 .02335901,-0.03210474,0.03432274,0.04994279,-0.19124204,0.10161151,-0.
 06654862,0.21807418,-0.00636498,0.00985167,-0.00755585,-0.04217656,0.1
 0929913,-0.14242001,0.05969021,-0.14693890,0.19339926,0.00133593,-0.00
 320828,-0.00581702,-0.06989383,0.02177090,0.06350097,0.01054918,-0.001
 58232,-0.01191638,0.07122850,0.01430283,-0.00590143,-0.03423131,0.0160
 0269,-0.08542324,-0.06490312,-0.00515545,0.01192793,0.02739582,-0.0219
 1852,0.08234559,0.01474055,-0.00787127,-0.03422783,0.04586524,-0.07387
 669,-0.24733230,0.00432438,0.00807529,-0.04705964,-0.06769673,0.079536
 79,0.33362415,-0.01365933,-0.02101186,-0.00528649,-0.07518590,0.010491
 49,-0.00204224,-0.00236324,-0.00206081,0.00044513,-0.00989515,-0.00110
 516,0.00061924,0.35208284,-0.03229257,0.01445327,0.00159840,-0.0196978
 3,-0.02991872,-0.00324598,0.01582951,-0.00853158,0.00705517,0.00762442
 ,-0.00140795,-0.00722171,-0.05158182,0.53213959,-0.00977636,0.00159632
 ,0.01356291,-0.00007394,-0.00384614,-0.00915015,-0.01150321,0.00713949
 ,-0.00849681,0.02287477,-0.00728433,-0.02246727,0.02789716,0.18149113,
 0.55409613,-0.00226330,0.00759725,0.00208359,0.00271422,-0.01132583,-0
 .00738848,-0.00320993,0.00276689,-0.00256350,-0.00029225,-0.00104364,-
 0.00282131,-0.08544451,-0.03669657,-0.09535473,0.06519972,0.00192026,0
 .00023397,-0.00026414,0.00323050,0.00188502,-0.00420399,-0.00230530,0.
 00134750,-0.00087318,-0.00020098,0.00096009,0.00308716,-0.04169697,-0.
 10468445,-0.12191901,0.03858915,0.09643554,-0.00009787,0.00460117,-0.0
 0185638,0.00002147,-0.00990092,-0.01178270,-0.00294767,0.00146623,0.00
 004268,0.00118833,0.00234047,0.00790063,-0.10176536,-0.12746933,-0.337
 23856,0.10770595,0.14098937,0.36396617,0.00323986,0.00175211,-0.000169
 00,0.01103514,0.00704175,0.00327575,-0.00439493,0.00235326,-0.00213762
 ,-0.00539287,0.00131559,0.00425198,-0.10850861,0.11764636,0.04306864,0
 .01471678,-0.00198985,0.00079368,0.08649619,0.00873409,-0.00901438,-0.
 00130785,-0.00027191,-0.00052828,-0.00091177,0.00270306,-0.00003483,0.
 00113895,0.00319029,0.00092591,-0.00161029,0.12106306,-0.31245980,-0.1
 0789996,0.00092997,-0.00680227,-0.01242220,-0.13314327,0.33853245,0.00
 294505,-0.00273078,-0.00479675,-0.00132897,0.00037486,0.00314407,0.001
 50123,-0.00051359,0.00110171,0.00020457,0.00045585,0.00038678,0.044419
 68,-0.10108550,-0.09148554,0.00529681,-0.02401724,-0.00602635,-0.04471
 153,0.11803474,0.08379197,-0.00204035,0.00661293,0.00158212,0.00415301
 ,-0.01488428,0.00707290,-0.00557585,-0.00207901,0.00219735,-0.00400254
 ,0.00138122,0.00414510,-0.06233454,-0.01772909,0.02049928,0.00998505,0
 .00441970,0.00021254,0.00979166,0.00297482,-0.00549780,0.45607191,0.00
 182539,0.00026046,0.00010215,0.00521476,-0.00141979,0.00105686,-0.0032
 7376,0.00264768,-0.00118432,-0.00141660,0.00047550,0.00087807,-0.00069
 475,-0.07521637,0.03539244,0.00288164,0.01081768,0.00444799,0.00411174
 ,-0.01579197,0.01143543,0.04618114,0.09707897,0.00023652,-0.00250048,-
 0.00335933,-0.00324913,0.00499600,-0.00164262,0.00327041,-0.00131411,0
 .00279760,0.00082385,0.00029276,0.00028811,0.00347862,0.03823567,-0.08
 008173,-0.00291526,0.00913062,-0.01527917,-0.00303706,0.00616576,0.010
 14260,-0.10952020,-0.07610596,0.12363615,-0.07472814,0.01195393,0.0413
 3098,0.00640661,-0.00125164,-0.00313284,0.00052389,-0.00136347,0.00034
 892,0.00094008,-0.00243899,-0.00199821,-0.00035038,0.00585570,0.003617
 03,0.00027149,-0.00077108,-0.00097882,-0.00301455,-0.00303183,-0.00271
 262,0.00022400,-0.00077890,-0.00023297,0.08698651,0.01064800,-0.095537
 80,-0.06498246,0.00955109,-0.00663441,-0.03444109,-0.00115435,0.001646
 51,-0.00128281,-0.00267631,-0.00616993,-0.00323270,0.00418895,-0.00231
 161,0.00044093,-0.00085601,0.00017363,-0.00031193,-0.00077819,0.001922
 70,0.00045317,-0.00109903,0.00001355,0.00018444,-0.02394037,0.08401861
 ,0.04046362,-0.07100004,-0.24653814,0.01053639,-0.00693745,-0.03241704
 ,-0.00011236,-0.00056978,0.00413869,-0.00244239,-0.00375861,0.00123347
 ,0.00242479,-0.00071540,-0.00395077,-0.00077119,0.00017365,0.00055614,
 -0.00108808,0.00062026,0.00152721,-0.00079197,0.00009134,0.00159508,-0
 .07428926,0.07954338,0.33778608,-0.08252199,0.04266532,-0.03698308,0.0
 0522009,-0.00118935,0.00005319,0.00136854,-0.00286414,0.00058891,0.000
 46709,-0.00115276,-0.00063769,-0.00091254,0.00675732,0.00086498,0.0002
 7797,-0.00062378,-0.00009780,-0.00256345,-0.00463590,0.00049121,0.0004
 9728,-0.00064899,0.00038029,0.01102440,-0.00110041,0.00059031,0.101033
 26,0.04057909,-0.19035971,0.08994837,0.01781119,-0.03148147,0.03329607
 ,-0.00368632,-0.00751611,-0.00165130,-0.00081325,0.00126511,-0.0001482
 3,0.00454029,-0.00315803,0.00045232,-0.00146525,-0.00003491,-0.0009134
 9,-0.00129494,0.00215831,0.00053774,-0.00086820,0.00027920,0.00006575,
 0.00024156,0.01215418,0.00902293,-0.07399031,0.21513534,-0.03725766,0.
 09541995,-0.13965391,-0.00609036,0.00774855,-0.00719381,0.00103886,-0.
 00105199,0.00229793,-0.00002436,-0.00105105,0.00434565,0.00014302,0.00
 096200,-0.00383548,0.00027420,0.00012054,0.00152093,0.00101514,-0.0000
 2885,0.00093351,0.00004076,-0.00004691,0.00060561,-0.00796479,0.028719
 90,-0.05160692,0.06404900,-0.13998195,0.18954759,-0.26913485,-0.017567
 80,0.00542222,-0.04743160,-0.00298726,0.00116706,0.00406725,-0.0002551
 6,0.00035251,0.00423400,0.00019892,-0.00055738,0.00821504,0.00062649,0
 .00079747,-0.00180184,-0.00092790,-0.00187605,-0.00144146,-0.00017264,
 0.00011940,-0.00166739,-0.00115906,0.00091495,-0.02839616,0.00718151,0
 .02537966,-0.03406627,0.01899166,-0.01532777,0.36696865,-0.01719645,-0
 .06832174,-0.00017854,-0.03128390,-0.00349616,-0.00090774,-0.00079244,
 0.00311169,-0.00224612,-0.00002392,0.00091692,0.00198861,0.00567373,-0
 .00479033,-0.00084678,-0.00212307,-0.00015107,-0.00133045,-0.00057465,
 0.00215768,0.00069519,-0.00179251,-0.00014347,0.00073058,0.01522895,0.
 01085152,-0.00605474,0.03660745,0.00154564,0.00931406,-0.00395858,0.05
 859585,0.00583019,-0.00006637,-0.06505481,-0.00612190,-0.00193360,0.00
 414234,0.00054068,-0.00176242,0.00127282,-0.00089343,0.00143752,0.0036
 0325,0.00110547,-0.00085749,-0.00210337,-0.00067081,0.00001176,0.00020
 884,-0.00004194,0.00029758,0.00086569,-0.00039896,-0.00009094,0.000591
 88,0.04612676,-0.00504819,-0.01218886,-0.02910475,0.00941415,0.0031238
 7,-0.01644295,-0.00128636,0.06558685,-0.00024023,-0.00061030,-0.000299
 55,-0.00036765,0.00365914,-0.00225100,-0.00031241,-0.00166842,0.001536
 01,0.00072185,-0.00038672,-0.00023517,-0.00164368,0.00365807,-0.002911
 08,-0.00015342,0.00035626,-0.00215841,0.00003624,0.00166028,-0.0007270
 3,-0.40510224,-0.05224261,0.10984997,0.00011225,0.00003512,0.00010049,
 0.00017560,-0.00004552,0.00010397,0.00045464,0.00023539,0.00007165,0.4
 0631906,-0.00093287,0.00100792,0.00080429,0.00081369,-0.00345719,0.003
 34970,0.00163208,0.00067381,-0.00056411,-0.00074544,0.00008551,0.00039
 496,-0.02780616,-0.00411401,0.01528357,0.00074548,-0.00018071,-0.00149
 690,0.00356009,-0.00106553,-0.00363987,-0.02311769,-0.01900145,0.02011
 896,0.00029614,-0.00012695,-0.00041556,0.00017556,0.00001245,-0.000124
 24,0.00002982,-0.00027653,-0.00011563,0.04534931,0.02644267,0.00070167
 ,-0.00050467,0.00016299,-0.00083355,0.00379288,-0.00150105,-0.00165284
 ,-0.00046447,0.00048163,0.00019784,-0.00023079,-0.00029499,0.02856098,
 0.01125302,-0.00884935,-0.00287528,-0.00223553,-0.00201222,-0.00121996
 ,-0.00207638,0.00041510,0.08045889,0.02402384,-0.03929419,-0.00011418,
 -0.00004265,-0.00013493,-0.00019459,-0.00004238,-0.00008496,0.00005088
 ,0.00012229,-0.00004850,-0.10307985,-0.03359517,0.05116046\\0.,0.,0.,0
 .00000004,-0.00000004,-0.00000002,-0.00000005,0.00000009,-0.00000008,-
 0.00000002,0.00000002,0.00000011,-0.00000014,0.00000001,-0.00000013,0.
 00000010,0.00000014,0.00000032,0.00000010,-0.00000026,-0.00000010,-0.0
 0000030,0.00000007,-0.00000005,0.,0.,-0.00000006,0.00000001,-0.0000000
 4,0.00000004,-0.00000003,0.,0.,0.00000029,0.00000001,-0.00000004\\\@
 The archive entry for this job was punched.


 DEPRESSION IS WAITING FOR YOUR SHIP TO COME IN,
 AND FINDING OUT IT'S THE TITANIC.
 Job cpu time:       0 days  1 hours 19 minutes 38.6 seconds.
 Elapsed time:       0 days  0 hours 16 minutes  8.7 seconds.
 File lengths (MBytes):  RWF=   1539 Int=      0 D2E=      0 Chk=      2 Scr=      1
 Normal termination of Gaussian 16 at Sat May 24 04:01:39 2025.
done
