 Entering Gaussian System, Link 0=g16
 Initial command:
 /apps/easybuild-2022/easybuild/software/Compiler/NVHPC/22.11-CUDA-11.7.0/Gaussian/g16c01-CUDA-11.7.0/g16/l1.exe "/tmp/Gau-99393.inp" -scrdir="/tmp/"
 Entering Link 1 = /apps/easybuild-2022/easybuild/software/Compiler/NVHPC/22.11-CUDA-11.7.0/Gaussian/g16c01-CUDA-11.7.0/g16/l1.exe PID=     99394.
  
 Copyright (c) 1988-2019, Gaussian, Inc.  All Rights Reserved.
  
 This is part of the Gaussian(R) 16 program.  It is based on
 the Gaussian(R) 09 system (copyright 2009, Gaussian, Inc.),
 the Gaussian(R) 03 system (copyright 2003, Gaussian, Inc.),
 the Gaussian(R) 98 system (copyright 1998, Gaussian, Inc.),
 the Gaussian(R) 94 system (copyright 1995, Gaussian, Inc.),
 the Gaussian 92(TM) system (copyright 1992, Gaussian, Inc.),
 the Gaussian 90(TM) system (copyright 1990, Gaussian, Inc.),
 the Gaussian 88(TM) system (copyright 1988, Gaussian, Inc.),
 the Gaussian 86(TM) system (copyright 1986, Carnegie Mellon
 University), and the Gaussian 82(TM) system (copyright 1983,
 Carnegie Mellon University). Gaussian is a federally registered
 trademark of Gaussian, Inc.
  
 This software contains proprietary and confidential information,
 including trade secrets, belonging to Gaussian, Inc.
  
 This software is provided under written license and may be
 used, copied, transmitted, or stored only in accord with that
 written license.
  
 The following legend is applicable only to US Government
 contracts under FAR:
  
                    RESTRICTED RIGHTS LEGEND
  
 Use, reproduction and disclosure by the US Government is
 subject to restrictions as set forth in subparagraphs (a)
 and (c) of the Commercial Computer Software - Restricted
 Rights clause in FAR 52.227-19.
  
 Gaussian, Inc.
 340 Quinnipiac St., Bldg. 40, Wallingford CT 06492
  
  
 ---------------------------------------------------------------
 Warning -- This program may not be used in any manner that
 competes with the business of Gaussian, Inc. or will provide
 assistance to any competitor of Gaussian, Inc.  The licensee
 of this program is prohibited from giving any competitor of
 Gaussian, Inc. access to this program.  By using this program,
 the user acknowledges that Gaussian, Inc. is engaged in the
 business of creating and licensing software in the field of
 computational chemistry and represents and warrants to the
 licensee that it is not a competitor of Gaussian, Inc. and that
 it will not use this program in any manner prohibited above.
 ---------------------------------------------------------------
  

 Cite this work as:
 Gaussian 16, Revision C.01,
 M. J. Frisch, G. W. Trucks, H. B. Schlegel, G. E. Scuseria, 
 M. A. Robb, J. R. Cheeseman, G. Scalmani, V. Barone, 
 G. A. Petersson, H. Nakatsuji, X. Li, M. Caricato, A. V. Marenich, 
 J. Bloino, B. G. Janesko, R. Gomperts, B. Mennucci, H. P. Hratchian, 
 J. V. Ortiz, A. F. Izmaylov, J. L. Sonnenberg, D. Williams-Young, 
 F. Ding, F. Lipparini, F. Egidi, J. Goings, B. Peng, A. Petrone, 
 T. Henderson, D. Ranasinghe, V. G. Zakrzewski, J. Gao, N. Rega, 
 G. Zheng, W. Liang, M. Hada, M. Ehara, K. Toyota, R. Fukuda, 
 J. Hasegawa, M. Ishida, T. Nakajima, Y. Honda, O. Kitao, H. Nakai, 
 T. Vreven, K. Throssell, J. A. Montgomery, Jr., J. E. Peralta, 
 F. Ogliaro, M. J. Bearpark, J. J. Heyd, E. N. Brothers, K. N. Kudin, 
 V. N. Staroverov, T. A. Keith, R. Kobayashi, J. Normand, 
 K. Raghavachari, A. P. Rendell, J. C. Burant, S. S. Iyengar, 
 J. Tomasi, M. Cossi, J. M. Millam, M. Klene, C. Adamo, R. Cammi, 
 J. W. Ochterski, R. L. Martin, K. Morokuma, O. Farkas, 
 J. B. Foresman, and D. J. Fox, Gaussian, Inc., Wallingford CT, 2019.
 
 ******************************************
 Gaussian 16:  ES64L-G16RevC.01  3-Jul-2019
                24-May-2025 
 ******************************************
 %mem=28GB
 %chk=2003846667223680600001_R_Addition_MultipleBond_5_8_12_IRC_F
 %nprocshared=8
 Will use up to    8 processors via shared memory.
 ----------------------------------------------------------------------
 #P mp2/6-31G Symm(None) scf(xqc) pop(None) guess(Read,Mix) geom(AllChe
 ck,NoKeepConstants) irc(RCFC,forward,MaxPoints=100,StepSize=2)
 ----------------------------------------------------------------------
 1/10=5,18=10,22=1,29=20007,38=1,39=2,42=100,44=3,172=1/1,23;
 2/12=2,15=3,29=1,40=1/2;
 3/5=1,6=6,11=9,14=-4,25=1,30=1,71=2,116=-2,140=1/1,2,3;
 4/5=1,13=-1/1;
 5/5=2,8=3,13=1,38=6/2,8;
 8/6=3,8=1,10=2,19=11,30=-1/1;
 9/15=3,16=-3/6;
 11/6=1,8=1,15=11,17=12,24=-1,27=1,28=-2,29=300,31=1,32=6,42=3/1,2,10;
 10/6=2,21=1,31=1/2;
 8/6=4,8=1,10=2,19=11,30=-1/11,4;
 10/5=1,20=4,31=1/2;
 11/12=2,14=11,16=1,17=2,28=-2,31=1,42=3,76=2/2,10,12;
 7/10=1,12=2,25=1,30=1,44=2/1,2,3,16;
 1/18=10,22=1,39=2,42=100,44=3/23(2);
 2/15=3,29=1/2;
 99/5=20/99;
 2/15=3,29=1/2;
 3/5=1,6=6,11=9,14=-2,25=1,30=1,71=2,140=1/1,2,3;
 4/5=5,16=3,69=1/1;
 5/5=2,8=3,13=1,38=5/2,8;
 8/6=3,8=1,10=2,19=11,30=-1/1;
 9/15=3,16=-3/6;
 11/6=1,8=1,15=11,17=12,24=-1,27=1,28=-2,29=300,31=1,32=6,42=3/1,2,10;
 10/6=2,21=1,31=1/2;
 8/6=4,8=1,10=2,19=11,30=-1/11,4;
 10/5=1,20=4,31=1/2;
 11/12=2,14=11,16=1,17=2,28=-2,31=1,42=3,76=2/2,10,12;
 7/10=1,12=2,25=1,30=1,44=2/1,2,3,16;
 1/18=10,22=1,39=2,42=100,44=3/23(-12);
 2/15=3,29=1/2;
 99/5=20,9=10/99;
 Leave Link    1 at Sat May 24 03:36:00 2025, MaxMem=  3758096384 cpu:               0.1 elap:               0.1
 (Enter /apps/easybuild-2022/easybuild/software/Compiler/NVHPC/22.11-CUDA-11.7.0/Gaussian/g16c01-CUDA-11.7.0/g16/l101.exe)
 Structure from the checkpoint file:  "2003846667223680600001_R_Addition_MultipleBond_5_8_12_IRC_F.chk"
 ------------------------------
 Gaussian input prepared by ASE
 ------------------------------
 Charge =  0 Multiplicity = 1
 Redundant internal coordinates found in file.  (old form).
 C,0,-0.7207031393,-1.3623237457,0.3028362912
 C,0,-0.1173796723,0.0427583726,0.1470091165
 F,0,-0.3946227648,0.562304111,-1.1060566195
 F,0,-0.5508046594,0.894164902,1.1535699905
 S,0,1.8823421347,0.0450946587,0.2686648329
 O,0,2.3557817769,-0.7792503177,1.5376564418
 O,0,2.5280154446,-0.2416682093,-1.2997832899
 O,0,2.3298262466,1.6844877138,0.0045656729
 F,0,-0.0150674625,-2.244056683,-0.5141470505
 F,0,-0.6196961174,-1.781116964,1.619880079
 F,0,-2.0560067383,-1.350848642,-0.0798357084
 H,0,2.7591239381,1.0756867287,-1.1253057538
 Recover connectivity data from disk.
 ITRead=  0  0  0  0  0  0  0  0  0  0  0  0
 MicOpt= -1 -1 -1 -1 -1 -1 -1 -1 -1 -1 -1 -1
 NAtoms=     12 NQM=       12 NQMF=       0 NMMI=      0 NMMIF=      0
                NMic=       0 NMicF=      0.
                    Isotopes and Nuclear Properties:
 (Nuclear quadrupole moments (NQMom) in fm**2, nuclear magnetic moments (NMagM)
  in nuclear magnetons)

  Atom         1           2           3           4           5           6           7           8           9          10
 IAtWgt=          12          12          19          19          32          16          16          16          19          19
 AtmWgt=  12.0000000  12.0000000  18.9984032  18.9984032  31.9720718  15.9949146  15.9949146  15.9949146  18.9984032  18.9984032
 NucSpn=           0           0           1           1           0           0           0           0           1           1
 AtZEff=   3.6000000   3.6000000   6.7500000   6.7500000  13.6000000   5.6000000   5.6000000   5.6000000   6.7500000   6.7500000
 NQMom=    0.0000000   0.0000000   0.0000000   0.0000000   0.0000000   0.0000000   0.0000000   0.0000000   0.0000000   0.0000000
 NMagM=    0.0000000   0.0000000   2.6288670   2.6288670   0.0000000   0.0000000   0.0000000   0.0000000   2.6288670   2.6288670
 AtZNuc=   6.0000000   6.0000000   9.0000000   9.0000000  16.0000000   8.0000000   8.0000000   8.0000000   9.0000000   9.0000000

  Atom        11          12
 IAtWgt=          19           1
 AtmWgt=  18.9984032   1.0078250
 NucSpn=           1           1
 AtZEff=   6.7500000   1.0000000
 NQMom=    0.0000000   0.0000000
 NMagM=    2.6288670   2.7928460
 AtZNuc=   9.0000000   1.0000000
 Leave Link  101 at Sat May 24 03:36:00 2025, MaxMem=  3758096384 cpu:               0.2 elap:               0.2
 (Enter /apps/easybuild-2022/easybuild/software/Compiler/NVHPC/22.11-CUDA-11.7.0/Gaussian/g16c01-CUDA-11.7.0/g16/l123.exe)
 IRC-IRC-IRC-IRC-IRC-IRC-IRC-IRC-IRC-IRC-IRC-IRC-IRC-IRC-IRC-IRC-IRC-IRC
 ------------------------------------------------------------------------
 INPUT DATA FOR L123
 ------------------------------------------------------------------------
 GENERAL PARAMETERS:
 Rxn path following direction = Forward
 Maximum points per path      = 100
 Step size                    =   0.020 bohr
 Integration scheme           = HPC                                 
    Redo corrector integration= Yes                                 
    DWI Weight Power          =  2
    DWI will use Hessian update vectors when possible.
    Max correction cycles     =  20
 Initial Hessian              = ReadFC from chk
 Hessian evaluation           = All updating
 Hessian updating method      = Bofill                              
 ------------------------------------------------------------------------
          ******** Start new reaction path calculation ********
 RCFC Option Requested - Data Read From Chk File:
 "2003846667223680600001_R_Addition_MultipleBond_5_8_12_IRC_F.chk"
   Energy From Chk =  -1196.2013545

 Current Structure is TS -> form Hessian eigenvectors.
                            Recovering Hessian eigenvectors from chk file.
 Supplied step size of   0.0200 bohr.
    Integration on MW PES will use step size of   0.0209 sqrt(amu)*bohr.
 Point Number:   0          Path Number:   1
 Calculating another point on the path.
 Point Number  1 in FORWARD path direction.
 Using LQA Reaction Path Following.
 IRC-IRC-IRC-IRC-IRC-IRC-IRC-IRC-IRC-IRC-IRC-IRC-IRC-IRC-IRC-IRC-IRC-IRC
 Leave Link  123 at Sat May 24 03:36:00 2025, MaxMem=  3758096384 cpu:               0.1 elap:               0.0
 (Enter /apps/easybuild-2022/easybuild/software/Compiler/NVHPC/22.11-CUDA-11.7.0/Gaussian/g16c01-CUDA-11.7.0/g16/l202.exe)
                          Input orientation:                          
 ---------------------------------------------------------------------
 Center     Atomic      Atomic             Coordinates (Angstroms)
 Number     Number       Type             X           Y           Z
 ---------------------------------------------------------------------
      1          6           0       -1.216855   -0.976428    0.117180
      2          6           0       -0.613527    0.428596   -0.038674
      3          9           0       -0.890758    0.948190   -1.291723
      4          9           0       -1.046925    1.280040    0.967895
      5         16           0        1.386182    0.431265    0.083195
      6          8           0        1.859653   -0.393428    1.351947
      7          8           0        2.032072    0.144493   -1.485729
      8          8           0        1.833492    2.070189   -0.180752
      9          9           0       -0.511197   -1.858170   -0.699813
     10          9           0       -1.115830   -1.395233    1.434215
     11          9           0       -2.552143   -0.964967   -0.265501
     12          1           0        2.263867    1.452865   -1.316878
 ---------------------------------------------------------------------
                    Distance matrix (angstroms):
                    1          2          3          4          5
     1  C    0.000000
     2  C    1.537006   0.000000
     3  F    2.407385   1.384546   0.000000
     4  F    2.417487   1.387794   2.289189   0.000000
     5  S    2.959485   2.003421   2.709625   2.724541   0.000000
     6  O    3.365923   2.954010   4.043970   3.375825   1.585568
     7  O    3.792270   3.028842   3.037516   4.097556   1.720737
     8  O    4.321488   2.950071   3.148758   3.200083   1.719252
     9  F    1.393880   2.382620   2.893109   3.593970   3.074843
    10  F    1.385707   2.397511   3.601808   2.716484   3.379558
    11  F    1.389090   2.398270   2.733770   2.971027   4.193025
    12  H    4.480337   3.310941   3.194839   4.026339   1.942731
                    6          7          8          9         10
     6  O    0.000000
     7  O    2.893354   0.000000
     8  O    2.901597   2.334674   0.000000
     9  F    3.460653   3.331148   4.604237   0.000000
    10  F    3.140681   4.561373   4.828640   2.265827   0.000000
    11  F    4.733576   4.871847   5.334149   2.269781   2.266530
    12  H    3.270293   1.339432   1.362752   4.364024   5.206009
                   11         12
    11  F    0.000000
    12  H    5.490470   0.000000
 Symmetry turned off by external request.
 Stoichiometry    C2HF5O3S
 Rotational constants (GHZ):           1.4404530           0.7368130           0.6982229
 Leave Link  202 at Sat May 24 03:36:00 2025, MaxMem=  3758096384 cpu:               0.1 elap:               0.0
 (Enter /apps/easybuild-2022/easybuild/software/Compiler/NVHPC/22.11-CUDA-11.7.0/Gaussian/g16c01-CUDA-11.7.0/g16/l301.exe)
 Standard basis: 6-31G (6D, 7F)
 Ernie: Thresh=  0.10000D-02 Tol=  0.10000D-05 Strict=F.
   105 basis functions,   270 primitive gaussians,   105 cartesian basis functions
    49 alpha electrons       49 beta electrons
       nuclear repulsion energy       871.8002021766 Hartrees.



 Warning!  S  atom    5 may be hypervalent but has no d functions.



 IExCor=    0 DFT=F Ex=HF Corr=None ExCW=0 ScaHFX=  1.000000
 ScaDFX=  1.000000  1.000000  1.000000  1.000000 ScalE2=  1.000000  1.000000
 IRadAn=      5 IRanWt=     -1 IRanGd=            0 ICorTp=0 IEmpDi=  4
 NAtoms=   12 NActive=   12 NUniq=   12 SFac= 1.00D+00 NAtFMM=   60 NAOKFM=F Big=F
 Integral buffers will be    131072 words long.
 Raffenetti 1 integral format.
 Two-electron integral symmetry is turned off.
 Leave Link  301 at Sat May 24 03:36:00 2025, MaxMem=  3758096384 cpu:               0.1 elap:               0.0
 (Enter /apps/easybuild-2022/easybuild/software/Compiler/NVHPC/22.11-CUDA-11.7.0/Gaussian/g16c01-CUDA-11.7.0/g16/l302.exe)
 NPDir=0 NMtPBC=     1 NCelOv=     1 NCel=       1 NClECP=     1 NCelD=      1
         NCelK=      1 NCelE2=     1 NClLst=     1 CellRange=     0.0.
 One-electron integrals computed using PRISM.
 NBasis=   105 RedAO= T EigKep=  5.50D-03  NBF=   105
 NBsUse=   105 1.00D-06 EigRej= -1.00D+00 NBFU=   105
 Leave Link  302 at Sat May 24 03:36:00 2025, MaxMem=  3758096384 cpu:               0.4 elap:               0.1
 (Enter /apps/easybuild-2022/easybuild/software/Compiler/NVHPC/22.11-CUDA-11.7.0/Gaussian/g16c01-CUDA-11.7.0/g16/l303.exe)
 DipDrv:  MaxL=1.
 Leave Link  303 at Sat May 24 03:36:00 2025, MaxMem=  3758096384 cpu:               0.1 elap:               0.0
 (Enter /apps/easybuild-2022/easybuild/software/Compiler/NVHPC/22.11-CUDA-11.7.0/Gaussian/g16c01-CUDA-11.7.0/g16/l401.exe)
 Initial guess from the checkpoint file:  "2003846667223680600001_R_Addition_MultipleBond_5_8_12_IRC_F.chk"
 B after Tr=    -0.937535    0.729150   -0.350927
         Rot=    1.000000    0.000021   -0.000006    0.000014 Ang=   0.00 deg.
 Guess basis will be translated and rotated to current coordinates.
 JPrj=2 DoOrth=T DoCkMO=T.
 Mixing orbitals, IMix= 1 IMixAn=  0 NRI=1 NE=   49 Coef=  7.07106781D-01  7.07106781D-01
 Leave Link  401 at Sat May 24 03:36:00 2025, MaxMem=  3758096384 cpu:               0.2 elap:               0.1
 (Enter /apps/easybuild-2022/easybuild/software/Compiler/NVHPC/22.11-CUDA-11.7.0/Gaussian/g16c01-CUDA-11.7.0/g16/l502.exe)
 Keep R1 ints in memory in canonical form, NReq=17171995.
 FoFCou: FMM=F IPFlag=           0 FMFlag=           0 FMFlg1=           0
         NFxFlg=           0 DoJE=F BraDBF=F KetDBF=F FulRan=T
         wScrn=  0.000000 ICntrl=       600 IOpCl=  0 I1Cent=           0 NGrid=           0
         NMat0=    1 NMatS0=   5565 NMatT0=    0 NMatD0=    1 NMtDS0=    0 NMtDT0=    0
 Symmetry not used in FoFCou.
 Two-electron integral symmetry not used.
 Closed shell SCF:
 Using DIIS extrapolation, IDIIS=  1040.
 NGot=  3758096384 LenX=  3742584760 LenY=  3742573294
 Requested convergence on RMS density matrix=1.00D-08 within  32 cycles.
 Requested convergence on MAX density matrix=1.00D-06.
 Requested convergence on             energy=1.00D-06.
 No special actions if energy rises.

 Cycle   1  Pass 1  IDiag  1:
 E= -1194.55595320505    
 DIIS: error= 2.45D-02 at cycle   1 NSaved=   1.
 NSaved= 1 IEnMin= 1 EnMin= -1194.55595320505     IErMin= 1 ErrMin= 2.45D-02
 ErrMax= 2.45D-02  0.00D+00 EMaxC= 1.00D-01 BMatC= 1.00D-01 BMatP= 1.00D-01
 IDIUse=3 WtCom= 7.55D-01 WtEn= 2.45D-01
 Coeff-Com:  0.100D+01
 Coeff-En:   0.100D+01
 Coeff:      0.100D+01
 Gap=     0.232 Goal=   None    Shift=    0.000
 GapD=    0.232 DampG=1.000 DampE=0.500 DampFc=0.5000 IDamp=-1.
 Damping current iteration by 5.00D-01
 RMSDP=1.27D-02 MaxDP=2.47D-01              OVMax= 4.42D-01

 Cycle   2  Pass 1  IDiag  1:
 E= -1194.68752855863     Delta-E=       -0.131575353576 Rises=F Damp=T
 DIIS: error= 9.23D-03 at cycle   2 NSaved=   2.
 NSaved= 2 IEnMin= 2 EnMin= -1194.68752855863     IErMin= 2 ErrMin= 9.23D-03
 ErrMax= 9.23D-03  0.00D+00 EMaxC= 1.00D-01 BMatC= 1.67D-02 BMatP= 1.00D-01
 IDIUse=3 WtCom= 9.08D-01 WtEn= 9.23D-02
 Coeff-Com:  0.960D-01 0.904D+00
 Coeff-En:   0.000D+00 0.100D+01
 Coeff:      0.871D-01 0.913D+00
 Gap=     0.453 Goal=   None    Shift=    0.000
 RMSDP=6.47D-03 MaxDP=1.15D-01 DE=-1.32D-01 OVMax= 8.06D-02

 Cycle   3  Pass 1  IDiag  1:
 E= -1194.87043936414     Delta-E=       -0.182910805514 Rises=F Damp=F
 DIIS: error= 6.53D-03 at cycle   3 NSaved=   3.
 NSaved= 3 IEnMin= 3 EnMin= -1194.87043936414     IErMin= 3 ErrMin= 6.53D-03
 ErrMax= 6.53D-03  0.00D+00 EMaxC= 1.00D-01 BMatC= 8.75D-03 BMatP= 1.67D-02
 IDIUse=3 WtCom= 9.35D-01 WtEn= 6.53D-02
 Coeff-Com:  0.161D+00-0.365D+00 0.120D+01
 Coeff-En:   0.000D+00 0.000D+00 0.100D+01
 Coeff:      0.150D+00-0.341D+00 0.119D+01
 Gap=     0.464 Goal=   None    Shift=    0.000
 RMSDP=2.89D-03 MaxDP=5.28D-02 DE=-1.83D-01 OVMax= 9.63D-02

 Cycle   4  Pass 1  IDiag  1:
 E= -1194.89807646958     Delta-E=       -0.027637105443 Rises=F Damp=F
 DIIS: error= 4.52D-03 at cycle   4 NSaved=   4.
 NSaved= 4 IEnMin= 4 EnMin= -1194.89807646958     IErMin= 4 ErrMin= 4.52D-03
 ErrMax= 4.52D-03  0.00D+00 EMaxC= 1.00D-01 BMatC= 1.71D-03 BMatP= 8.75D-03
 IDIUse=3 WtCom= 9.55D-01 WtEn= 4.52D-02
 Coeff-Com: -0.128D-01-0.727D-01 0.162D+00 0.924D+00
 Coeff-En:   0.000D+00 0.000D+00 0.000D+00 0.100D+01
 Coeff:     -0.122D-01-0.694D-01 0.155D+00 0.927D+00
 Gap=     0.510 Goal=   None    Shift=    0.000
 RMSDP=1.10D-03 MaxDP=1.52D-02 DE=-2.76D-02 OVMax= 4.28D-02

 Cycle   5  Pass 1  IDiag  1:
 E= -1194.90373220297     Delta-E=       -0.005655733381 Rises=F Damp=F
 DIIS: error= 1.85D-03 at cycle   5 NSaved=   5.
 NSaved= 5 IEnMin= 5 EnMin= -1194.90373220297     IErMin= 5 ErrMin= 1.85D-03
 ErrMax= 1.85D-03  0.00D+00 EMaxC= 1.00D-01 BMatC= 5.80D-04 BMatP= 1.71D-03
 IDIUse=3 WtCom= 9.81D-01 WtEn= 1.85D-02
 Coeff-Com: -0.562D-01 0.124D+00-0.175D+00 0.946D-01 0.101D+01
 Coeff-En:   0.000D+00 0.000D+00 0.000D+00 0.000D+00 0.100D+01
 Coeff:     -0.552D-01 0.121D+00-0.172D+00 0.929D-01 0.101D+01
 Gap=     0.516 Goal=   None    Shift=    0.000
 RMSDP=6.22D-04 MaxDP=1.15D-02 DE=-5.66D-03 OVMax= 2.96D-02

 Cycle   6  Pass 1  IDiag  1:
 E= -1194.90575805453     Delta-E=       -0.002025851562 Rises=F Damp=F
 DIIS: error= 1.41D-03 at cycle   6 NSaved=   6.
 NSaved= 6 IEnMin= 6 EnMin= -1194.90575805453     IErMin= 6 ErrMin= 1.41D-03
 ErrMax= 1.41D-03  0.00D+00 EMaxC= 1.00D-01 BMatC= 1.77D-04 BMatP= 5.80D-04
 IDIUse=3 WtCom= 9.86D-01 WtEn= 1.41D-02
 Coeff-Com:  0.483D-02 0.335D-01-0.613D-01-0.287D+00 0.106D+00 0.120D+01
 Coeff-En:   0.000D+00 0.000D+00 0.000D+00 0.000D+00 0.000D+00 0.100D+01
 Coeff:      0.477D-02 0.331D-01-0.605D-01-0.283D+00 0.105D+00 0.120D+01
 Gap=     0.520 Goal=   None    Shift=    0.000
 RMSDP=4.82D-04 MaxDP=9.05D-03 DE=-2.03D-03 OVMax= 2.19D-02

 Cycle   7  Pass 1  IDiag  1:
 E= -1194.90658540372     Delta-E=       -0.000827349194 Rises=F Damp=F
 DIIS: error= 4.86D-04 at cycle   7 NSaved=   7.
 NSaved= 7 IEnMin= 7 EnMin= -1194.90658540372     IErMin= 7 ErrMin= 4.86D-04
 ErrMax= 4.86D-04  0.00D+00 EMaxC= 1.00D-01 BMatC= 4.44D-05 BMatP= 1.77D-04
 IDIUse=3 WtCom= 9.95D-01 WtEn= 4.86D-03
 Coeff-Com:  0.210D-01-0.427D-01 0.235D-01 0.166D-01-0.209D+00-0.106D+00
 Coeff-Com:  0.130D+01
 Coeff-En:   0.000D+00 0.000D+00 0.000D+00 0.000D+00 0.000D+00 0.000D+00
 Coeff-En:   0.100D+01
 Coeff:      0.209D-01-0.425D-01 0.234D-01 0.165D-01-0.208D+00-0.105D+00
 Coeff:      0.129D+01
 Gap=     0.523 Goal=   None    Shift=    0.000
 RMSDP=2.59D-04 MaxDP=5.10D-03 DE=-8.27D-04 OVMax= 1.15D-02

 Cycle   8  Pass 1  IDiag  1:
 E= -1194.90677584780     Delta-E=       -0.000190444078 Rises=F Damp=F
 DIIS: error= 3.09D-04 at cycle   8 NSaved=   8.
 NSaved= 8 IEnMin= 8 EnMin= -1194.90677584780     IErMin= 8 ErrMin= 3.09D-04
 ErrMax= 3.09D-04  0.00D+00 EMaxC= 1.00D-01 BMatC= 6.89D-06 BMatP= 4.44D-05
 IDIUse=3 WtCom= 9.97D-01 WtEn= 3.09D-03
 Coeff-Com:  0.157D-03 0.164D-02 0.892D-02 0.555D-01-0.293D-01-0.264D+00
 Coeff-Com:  0.143D+00 0.108D+01
 Coeff-En:   0.000D+00 0.000D+00 0.000D+00 0.000D+00 0.000D+00 0.000D+00
 Coeff-En:   0.000D+00 0.100D+01
 Coeff:      0.156D-03 0.164D-02 0.890D-02 0.554D-01-0.292D-01-0.263D+00
 Coeff:      0.142D+00 0.108D+01
 Gap=     0.523 Goal=   None    Shift=    0.000
 RMSDP=8.14D-05 MaxDP=1.72D-03 DE=-1.90D-04 OVMax= 3.19D-03

 Cycle   9  Pass 1  IDiag  1:
 E= -1194.90680230178     Delta-E=       -0.000026453984 Rises=F Damp=F
 DIIS: error= 1.58D-04 at cycle   9 NSaved=   9.
 NSaved= 9 IEnMin= 9 EnMin= -1194.90680230178     IErMin= 9 ErrMin= 1.58D-04
 ErrMax= 1.58D-04  0.00D+00 EMaxC= 1.00D-01 BMatC= 1.47D-06 BMatP= 6.89D-06
 IDIUse=3 WtCom= 9.98D-01 WtEn= 1.58D-03
 Coeff-Com: -0.275D-02 0.426D-02-0.285D-02 0.174D-01 0.258D-01-0.577D-01
 Coeff-Com: -0.165D+00 0.238D+00 0.942D+00
 Coeff-En:   0.000D+00 0.000D+00 0.000D+00 0.000D+00 0.000D+00 0.000D+00
 Coeff-En:   0.000D+00 0.000D+00 0.100D+01
 Coeff:     -0.275D-02 0.425D-02-0.285D-02 0.174D-01 0.257D-01-0.576D-01
 Coeff:     -0.164D+00 0.238D+00 0.942D+00
 Gap=     0.523 Goal=   None    Shift=    0.000
 RMSDP=3.35D-05 MaxDP=7.65D-04 DE=-2.65D-05 OVMax= 1.54D-03

 Cycle  10  Pass 1  IDiag  1:
 E= -1194.90680721460     Delta-E=       -0.000004912821 Rises=F Damp=F
 DIIS: error= 6.83D-05 at cycle  10 NSaved=  10.
 NSaved=10 IEnMin=10 EnMin= -1194.90680721460     IErMin=10 ErrMin= 6.83D-05
 ErrMax= 6.83D-05  0.00D+00 EMaxC= 1.00D-01 BMatC= 3.20D-07 BMatP= 1.47D-06
 IDIUse=1 WtCom= 1.00D+00 WtEn= 0.00D+00
 Coeff-Com:  0.169D-03-0.703D-03-0.286D-02-0.164D-01 0.371D-02 0.708D-01
 Coeff-Com: -0.242D-01-0.320D+00 0.104D+00 0.119D+01
 Coeff:      0.169D-03-0.703D-03-0.286D-02-0.164D-01 0.371D-02 0.708D-01
 Coeff:     -0.242D-01-0.320D+00 0.104D+00 0.119D+01
 Gap=     0.523 Goal=   None    Shift=    0.000
 RMSDP=2.14D-05 MaxDP=3.79D-04 DE=-4.91D-06 OVMax= 9.33D-04

 Cycle  11  Pass 1  IDiag  1:
 E= -1194.90680854873     Delta-E=       -0.000001334122 Rises=F Damp=F
 DIIS: error= 2.23D-05 at cycle  11 NSaved=  11.
 NSaved=11 IEnMin=11 EnMin= -1194.90680854873     IErMin=11 ErrMin= 2.23D-05
 ErrMax= 2.23D-05  0.00D+00 EMaxC= 1.00D-01 BMatC= 6.44D-08 BMatP= 3.20D-07
 IDIUse=1 WtCom= 1.00D+00 WtEn= 0.00D+00
 Coeff-Com:  0.312D-03-0.141D-02 0.296D-02 0.530D-03-0.627D-02-0.439D-02
 Coeff-Com:  0.427D-01-0.214D-01-0.160D+00-0.123D+00 0.127D+01
 Coeff:      0.312D-03-0.141D-02 0.296D-02 0.530D-03-0.627D-02-0.439D-02
 Coeff:      0.427D-01-0.214D-01-0.160D+00-0.123D+00 0.127D+01
 Gap=     0.523 Goal=   None    Shift=    0.000
 RMSDP=8.28D-06 MaxDP=1.16D-04 DE=-1.33D-06 OVMax= 2.55D-04

 Cycle  12  Pass 1  IDiag  1:
 E= -1194.90680880931     Delta-E=       -0.000000260582 Rises=F Damp=F
 DIIS: error= 1.03D-05 at cycle  12 NSaved=  12.
 NSaved=12 IEnMin=12 EnMin= -1194.90680880931     IErMin=12 ErrMin= 1.03D-05
 ErrMax= 1.03D-05  0.00D+00 EMaxC= 1.00D-01 BMatC= 1.13D-08 BMatP= 6.44D-08
 IDIUse=1 WtCom= 1.00D+00 WtEn= 0.00D+00
 Coeff-Com:  0.337D-04-0.187D-03 0.115D-02 0.207D-02-0.183D-02-0.100D-01
 Coeff-Com:  0.118D-01 0.390D-01-0.313D-01-0.213D+00 0.153D+00 0.105D+01
 Coeff:      0.337D-04-0.187D-03 0.115D-02 0.207D-02-0.183D-02-0.100D-01
 Coeff:      0.118D-01 0.390D-01-0.313D-01-0.213D+00 0.153D+00 0.105D+01
 Gap=     0.523 Goal=   None    Shift=    0.000
 RMSDP=3.43D-06 MaxDP=5.78D-05 DE=-2.61D-07 OVMax= 1.05D-04

 Cycle  13  Pass 1  IDiag  1:
 E= -1194.90680885600     Delta-E=       -0.000000046691 Rises=F Damp=F
 DIIS: error= 5.95D-06 at cycle  13 NSaved=  13.
 NSaved=13 IEnMin=13 EnMin= -1194.90680885600     IErMin=13 ErrMin= 5.95D-06
 ErrMax= 5.95D-06  0.00D+00 EMaxC= 1.00D-01 BMatC= 2.75D-09 BMatP= 1.13D-08
 IDIUse=1 WtCom= 1.00D+00 WtEn= 0.00D+00
 Coeff-Com: -0.706D-04 0.352D-03-0.968D-03 0.219D-03 0.189D-02 0.183D-03
 Coeff-Com: -0.126D-01 0.991D-02 0.503D-01 0.242D-01-0.369D+00 0.862D-02
 Coeff-Com:  0.129D+01
 Coeff:     -0.706D-04 0.352D-03-0.968D-03 0.219D-03 0.189D-02 0.183D-03
 Coeff:     -0.126D-01 0.991D-02 0.503D-01 0.242D-01-0.369D+00 0.862D-02
 Coeff:      0.129D+01
 Gap=     0.523 Goal=   None    Shift=    0.000
 RMSDP=2.00D-06 MaxDP=2.65D-05 DE=-4.67D-08 OVMax= 7.50D-05

 Cycle  14  Pass 1  IDiag  1:
 E= -1194.90680887016     Delta-E=       -0.000000014161 Rises=F Damp=F
 DIIS: error= 2.08D-06 at cycle  14 NSaved=  14.
 NSaved=14 IEnMin=14 EnMin= -1194.90680887016     IErMin=14 ErrMin= 2.08D-06
 ErrMax= 2.08D-06  0.00D+00 EMaxC= 1.00D-01 BMatC= 4.70D-10 BMatP= 2.75D-09
 IDIUse=1 WtCom= 1.00D+00 WtEn= 0.00D+00
 Coeff-Com:  0.913D-05 0.385D-05-0.142D-03-0.369D-03 0.136D-03 0.181D-02
 Coeff-Com: -0.701D-03-0.759D-02-0.631D-02 0.414D-01 0.324D-01-0.191D+00
 Coeff-Com: -0.232D+00 0.136D+01
 Coeff:      0.913D-05 0.385D-05-0.142D-03-0.369D-03 0.136D-03 0.181D-02
 Coeff:     -0.701D-03-0.759D-02-0.631D-02 0.414D-01 0.324D-01-0.191D+00
 Coeff:     -0.232D+00 0.136D+01
 Gap=     0.523 Goal=   None    Shift=    0.000
 RMSDP=8.59D-07 MaxDP=1.14D-05 DE=-1.42D-08 OVMax= 3.09D-05

 Cycle  15  Pass 1  IDiag  1:
 E= -1194.90680887250     Delta-E=       -0.000000002340 Rises=F Damp=F
 DIIS: error= 6.31D-07 at cycle  15 NSaved=  15.
 NSaved=15 IEnMin=15 EnMin= -1194.90680887250     IErMin=15 ErrMin= 6.31D-07
 ErrMax= 6.31D-07  0.00D+00 EMaxC= 1.00D-01 BMatC= 4.81D-11 BMatP= 4.70D-10
 IDIUse=1 WtCom= 1.00D+00 WtEn= 0.00D+00
 Coeff-Com:  0.556D-05-0.131D-04 0.146D-03-0.423D-05-0.270D-03-0.264D-03
 Coeff-Com:  0.153D-02 0.888D-03-0.577D-02-0.106D-01 0.343D-01 0.362D-01
 Coeff-Com: -0.127D+00-0.231D+00 0.130D+01
 Coeff:      0.556D-05-0.131D-04 0.146D-03-0.423D-05-0.270D-03-0.264D-03
 Coeff:      0.153D-02 0.888D-03-0.577D-02-0.106D-01 0.343D-01 0.362D-01
 Coeff:     -0.127D+00-0.231D+00 0.130D+01
 Gap=     0.523 Goal=   None    Shift=    0.000
 RMSDP=3.29D-07 MaxDP=5.39D-06 DE=-2.34D-09 OVMax= 9.88D-06

 Cycle  16  Pass 1  IDiag  1:
 E= -1194.90680887274     Delta-E=       -0.000000000236 Rises=F Damp=F
 DIIS: error= 2.13D-07 at cycle  16 NSaved=  16.
 NSaved=16 IEnMin=16 EnMin= -1194.90680887274     IErMin=16 ErrMin= 2.13D-07
 ErrMax= 2.13D-07  0.00D+00 EMaxC= 1.00D-01 BMatC= 1.02D-11 BMatP= 4.81D-11
 IDIUse=1 WtCom= 1.00D+00 WtEn= 0.00D+00
 Coeff-Com: -0.172D-05 0.841D-05-0.229D-04 0.512D-04 0.580D-04-0.227D-03
 Coeff-Com: -0.322D-03 0.137D-02 0.144D-02-0.434D-02-0.785D-02 0.189D-01
 Coeff-Com:  0.429D-01-0.131D+00-0.173D+00 0.125D+01
 Coeff:     -0.172D-05 0.841D-05-0.229D-04 0.512D-04 0.580D-04-0.227D-03
 Coeff:     -0.322D-03 0.137D-02 0.144D-02-0.434D-02-0.785D-02 0.189D-01
 Coeff:      0.429D-01-0.131D+00-0.173D+00 0.125D+01
 Gap=     0.523 Goal=   None    Shift=    0.000
 RMSDP=1.02D-07 MaxDP=1.45D-06 DE=-2.36D-10 OVMax= 2.74D-06

 Cycle  17  Pass 1  IDiag  1:
 E= -1194.90680887281     Delta-E=       -0.000000000073 Rises=F Damp=F
 DIIS: error= 8.05D-08 at cycle  17 NSaved=  17.
 NSaved=17 IEnMin=17 EnMin= -1194.90680887281     IErMin=17 ErrMin= 8.05D-08
 ErrMax= 8.05D-08  0.00D+00 EMaxC= 1.00D-01 BMatC= 1.06D-12 BMatP= 1.02D-11
 IDIUse=1 WtCom= 1.00D+00 WtEn= 0.00D+00
 Coeff-Com: -0.112D-05 0.595D-05-0.229D-04 0.970D-05 0.431D-04-0.108D-04
 Coeff-Com: -0.258D-03 0.263D-03 0.845D-03 0.409D-03-0.584D-02 0.505D-03
 Coeff-Com:  0.215D-01-0.161D-02-0.148D+00 0.153D+00 0.979D+00
 Coeff:     -0.112D-05 0.595D-05-0.229D-04 0.970D-05 0.431D-04-0.108D-04
 Coeff:     -0.258D-03 0.263D-03 0.845D-03 0.409D-03-0.584D-02 0.505D-03
 Coeff:      0.215D-01-0.161D-02-0.148D+00 0.153D+00 0.979D+00
 Gap=     0.523 Goal=   None    Shift=    0.000
 RMSDP=2.51D-08 MaxDP=5.48D-07 DE=-7.32D-11 OVMax= 6.28D-07

 Cycle  18  Pass 1  IDiag  1:
 E= -1194.90680887277     Delta-E=        0.000000000037 Rises=F Damp=F
 DIIS: error= 4.36D-08 at cycle  18 NSaved=  18.
 NSaved=18 IEnMin=17 EnMin= -1194.90680887281     IErMin=18 ErrMin= 4.36D-08
 ErrMax= 4.36D-08  0.00D+00 EMaxC= 1.00D-01 BMatC= 2.25D-13 BMatP= 1.06D-12
 IDIUse=1 WtCom= 1.00D+00 WtEn= 0.00D+00
 Coeff-Com:  0.348D-06-0.862D-06 0.458D-05-0.139D-04-0.130D-04 0.652D-04
 Coeff-Com:  0.561D-04-0.310D-03-0.374D-03 0.123D-02 0.138D-02-0.441D-02
 Coeff-Com: -0.100D-01 0.345D-01 0.430D-01-0.356D+00 0.508D-01 0.124D+01
 Coeff:      0.348D-06-0.862D-06 0.458D-05-0.139D-04-0.130D-04 0.652D-04
 Coeff:      0.561D-04-0.310D-03-0.374D-03 0.123D-02 0.138D-02-0.441D-02
 Coeff:     -0.100D-01 0.345D-01 0.430D-01-0.356D+00 0.508D-01 0.124D+01
 Gap=     0.523 Goal=   None    Shift=    0.000
 RMSDP=1.72D-08 MaxDP=2.76D-07 DE= 3.68D-11 OVMax= 4.40D-07

 Cycle  19  Pass 1  IDiag  1:
 E= -1194.90680887280     Delta-E=       -0.000000000023 Rises=F Damp=F
 DIIS: error= 1.17D-08 at cycle  19 NSaved=  19.
 NSaved=19 IEnMin=17 EnMin= -1194.90680887281     IErMin=19 ErrMin= 1.17D-08
 ErrMax= 1.17D-08  0.00D+00 EMaxC= 1.00D-01 BMatC= 1.75D-14 BMatP= 2.25D-13
 IDIUse=1 WtCom= 1.00D+00 WtEn= 0.00D+00
 Coeff-Com: -0.146D-06 0.273D-06-0.671D-07 0.363D-05 0.223D-05-0.230D-04
 Coeff-Com: -0.823D-06 0.924D-04 0.724D-04-0.489D-03-0.331D-04 0.142D-02
 Coeff-Com:  0.166D-02-0.118D-01-0.419D-03 0.114D+00-0.128D+00-0.447D+00
 Coeff-Com:  0.147D+01
 Coeff:     -0.146D-06 0.273D-06-0.671D-07 0.363D-05 0.223D-05-0.230D-04
 Coeff:     -0.823D-06 0.924D-04 0.724D-04-0.489D-03-0.331D-04 0.142D-02
 Coeff:      0.166D-02-0.118D-01-0.419D-03 0.114D+00-0.128D+00-0.447D+00
 Coeff:      0.147D+01
 Gap=     0.523 Goal=   None    Shift=    0.000
 RMSDP=5.34D-09 MaxDP=6.66D-08 DE=-2.27D-11 OVMax= 1.64D-07

 SCF Done:  E(RHF) =  -1194.90680887     A.U. after   19 cycles
            NFock= 19  Conv=0.53D-08     -V/T= 2.0008
 KE= 1.193991280542D+03 PE=-4.582556032233D+03 EE= 1.321857740641D+03
 Leave Link  502 at Sat May 24 03:36:01 2025, MaxMem=  3758096384 cpu:               1.4 elap:               0.4
 (Enter /apps/easybuild-2022/easybuild/software/Compiler/NVHPC/22.11-CUDA-11.7.0/Gaussian/g16c01-CUDA-11.7.0/g16/l508.exe)
 QCSCF skips out because SCF is already converged.
 Leave Link  508 at Sat May 24 03:36:01 2025, MaxMem=  3758096384 cpu:               0.0 elap:               0.0
 (Enter /apps/easybuild-2022/easybuild/software/Compiler/NVHPC/22.11-CUDA-11.7.0/Gaussian/g16c01-CUDA-11.7.0/g16/l801.exe)
 ExpMin= 1.17D-01 ExpMax= 2.19D+04 ExpMxC= 3.30D+03 IAcc=3 IRadAn=         5 AccDes= 0.00D+00
 HarFok:  IExCor=  205 AccDes= 0.00D+00 IRadAn=         5 IDoV=-2 UseB2=F ITyADJ=14
 ICtDFT= 12500011 ScaDFX=  1.000000  1.000000  1.000000  1.000000
 Largest valence mixing into a core orbital is  3.02D-04
 Largest core mixing into a valence orbital is  1.16D-04
 Range of M.O.s used for correlation:    16   105
 NBasis=   105 NAE=    49 NBE=    49 NFC=    15 NFV=     0
 NROrb=     90 NOA=    34 NOB=    34 NVA=    56 NVB=    56
 Leave Link  801 at Sat May 24 03:36:01 2025, MaxMem=  3758096384 cpu:               0.2 elap:               0.1
 (Enter /apps/easybuild-2022/easybuild/software/Compiler/NVHPC/22.11-CUDA-11.7.0/Gaussian/g16c01-CUDA-11.7.0/g16/l906.exe)
 Frozen-core derivative calculation, NFC=  15 NFV=   0.
 FulOut=F Deriv=T AODrv=T NAtomX=    12
   MMem=         830  MDisk=          34 MDiskD=          34
  W3Min=      540225 MinDsk=      689135 NBas6D=         105
 NBas2D=        5703    NTT=        5565    LW2=     2000000
    MDV=  3757946987 MDiskM=      372613 NBas2p=        5382
 Fully direct method using O(ONN) memory.
 IMap=   1   2   3   4   5   6   7   8   9  10  11  12  13  14  15  16  17  18  19  20
 IMap=  21  22  23  24  25  26  27  28  29  30  31  32  33  34  35  36  37  38  39  40
 IMap=  41  42  43  44  45  46  47  48  49
 JobTyp=1 Pass  1:  I=  16 to  49 NPSUse=  8 ParTrn=T ParDer=T DoDerP=T.
 Spin components of T(2) and E(2):
     alpha-alpha T2 =       0.5813020599D-01 E2=     -0.1749567434D+00
     alpha-beta  T2 =       0.3142598114D+00 E2=     -0.9446557188D+00
     beta-beta   T2 =       0.5813020599D-01 E2=     -0.1749567434D+00
 The integrals were generated   1 times.
 ANorm=    0.1196043571D+01
 E2 =    -0.1294569206D+01 EUMP2 =    -0.11962013780784D+04
 Leave Link  906 at Sat May 24 03:36:03 2025, MaxMem=  3758096384 cpu:              16.0 elap:               2.2
 (Enter /apps/easybuild-2022/easybuild/software/Compiler/NVHPC/22.11-CUDA-11.7.0/Gaussian/g16c01-CUDA-11.7.0/g16/l1101.exe)
 Leave Link 1101 at Sat May 24 03:36:03 2025, MaxMem=  3758096384 cpu:               0.1 elap:               0.0
 (Enter /apps/easybuild-2022/easybuild/software/Compiler/NVHPC/22.11-CUDA-11.7.0/Gaussian/g16c01-CUDA-11.7.0/g16/l1102.exe)
 Leave Link 1102 at Sat May 24 03:36:03 2025, MaxMem=  3758096384 cpu:               0.1 elap:               0.0
 (Enter /apps/easybuild-2022/easybuild/software/Compiler/NVHPC/22.11-CUDA-11.7.0/Gaussian/g16c01-CUDA-11.7.0/g16/l1110.exe)
 Leave Link 1110 at Sat May 24 03:36:03 2025, MaxMem=  3758096384 cpu:               0.1 elap:               0.0
 (Enter /apps/easybuild-2022/easybuild/software/Compiler/NVHPC/22.11-CUDA-11.7.0/Gaussian/g16c01-CUDA-11.7.0/g16/l1002.exe)
 Minotr:  Closed shell wavefunction.
 Leave Link 1002 at Sat May 24 03:36:03 2025, MaxMem=  3758096384 cpu:               0.1 elap:               0.0
 (Enter /apps/easybuild-2022/easybuild/software/Compiler/NVHPC/22.11-CUDA-11.7.0/Gaussian/g16c01-CUDA-11.7.0/g16/l811.exe)
 Leave Link  811 at Sat May 24 03:36:03 2025, MaxMem=  3758096384 cpu:               0.1 elap:               0.1
 (Enter /apps/easybuild-2022/easybuild/software/Compiler/NVHPC/22.11-CUDA-11.7.0/Gaussian/g16c01-CUDA-11.7.0/g16/l804.exe)
 Leave Link  804 at Sat May 24 03:36:03 2025, MaxMem=  3758096384 cpu:               0.1 elap:               0.0
 (Enter /apps/easybuild-2022/easybuild/software/Compiler/NVHPC/22.11-CUDA-11.7.0/Gaussian/g16c01-CUDA-11.7.0/g16/l1002.exe)
 Minotr:  Closed shell wavefunction.
          Computing MP2/KS-MP2 derivatives.
          Using Z-Vector for PSCF gradient.
          Skipping F1 and S1 gradient terms here.
          IDoAtm=111111111111
          Frozen-core window.
          Direct CPHF calculation.
          Differentiating once with respect to electric field.
                with respect to dipole field.
          Differentiating once with respect to nuclear coordinates.
          Requested convergence is 1.0D-10 RMS, and 1.0D-09 maximum.
          NewPWx=F KeepS1=T KeepF1=T KeepIn=T MapXYZ=F SortEE=F KeepMc=T.
 Keep R1 ints in memory in canonical form, NReq=17176179.
 FoFCou: FMM=F IPFlag=           0 FMFlag=           0 FMFlg1=           0
         NFxFlg=           0 DoJE=F BraDBF=F KetDBF=F FulRan=T
         wScrn=  0.000000 ICntrl=       600 IOpCl=  0 I1Cent=           0 NGrid=           0
         NMat0=    1 NMatS0=   5565 NMatT0=    0 NMatD0=    1 NMtDS0=    0 NMtDT0=    0
 Symmetry not used in FoFCou.
 Two-electron integral symmetry not used.
          MDV=    3758096384 using IRadAn=       5.
          Solving linear equations separately, MaxMat=       0.
          There are     1 degrees of freedom in the 1st order CPHF.  IDoFFX=0 NUNeed=     1.
 LinEq1:  Iter=  0 NonCon=     1 RMS=1.08D-02 Max=2.47D-01 NDo=     1
 AX will form     1 AO Fock derivatives at one time.
 LinEq1:  Iter=  1 NonCon=     1 RMS=4.19D-03 Max=5.94D-02 NDo=     1
 LinEq1:  Iter=  2 NonCon=     1 RMS=1.42D-03 Max=2.87D-02 NDo=     1
 LinEq1:  Iter=  3 NonCon=     1 RMS=4.98D-04 Max=8.37D-03 NDo=     1
 LinEq1:  Iter=  4 NonCon=     1 RMS=2.29D-04 Max=4.24D-03 NDo=     1
 LinEq1:  Iter=  5 NonCon=     1 RMS=9.39D-05 Max=1.12D-03 NDo=     1
 LinEq1:  Iter=  6 NonCon=     1 RMS=2.92D-05 Max=4.66D-04 NDo=     1
 LinEq1:  Iter=  7 NonCon=     1 RMS=1.58D-05 Max=2.93D-04 NDo=     1
 LinEq1:  Iter=  8 NonCon=     1 RMS=4.73D-06 Max=8.24D-05 NDo=     1
 LinEq1:  Iter=  9 NonCon=     1 RMS=1.39D-06 Max=3.14D-05 NDo=     1
 LinEq1:  Iter= 10 NonCon=     1 RMS=4.50D-07 Max=7.06D-06 NDo=     1
 LinEq1:  Iter= 11 NonCon=     1 RMS=1.64D-07 Max=2.05D-06 NDo=     1
 LinEq1:  Iter= 12 NonCon=     1 RMS=9.77D-08 Max=1.23D-06 NDo=     1
 LinEq1:  Iter= 13 NonCon=     1 RMS=3.03D-08 Max=4.15D-07 NDo=     1
 LinEq1:  Iter= 14 NonCon=     1 RMS=1.43D-08 Max=1.73D-07 NDo=     1
 LinEq1:  Iter= 15 NonCon=     1 RMS=3.03D-09 Max=2.69D-08 NDo=     1
 LinEq1:  Iter= 16 NonCon=     1 RMS=7.68D-10 Max=9.90D-09 NDo=     1
 LinEq1:  Iter= 17 NonCon=     1 RMS=2.07D-10 Max=2.56D-09 NDo=     1
 LinEq1:  Iter= 18 NonCon=     0 RMS=5.64D-11 Max=6.53D-10 NDo=     1
 Linear equations converged to 1.000D-10 1.000D-09 after    18 iterations.
 End of Minotr F.D. properties file   721 does not exist.
 End of Minotr F.D. properties file   722 does not exist.
 End of Minotr F.D. properties file   788 does not exist.
 Leave Link 1002 at Sat May 24 03:36:04 2025, MaxMem=  3758096384 cpu:               1.4 elap:               0.4
 (Enter /apps/easybuild-2022/easybuild/software/Compiler/NVHPC/22.11-CUDA-11.7.0/Gaussian/g16c01-CUDA-11.7.0/g16/l1102.exe)
 Use density number 2.
 Symmetrizing basis deriv contribution to polar:
 IMax=3 JMax=2 DiffMx= 0.00D+00
 Leave Link 1102 at Sat May 24 03:36:04 2025, MaxMem=  3758096384 cpu:               0.1 elap:               0.0
 (Enter /apps/easybuild-2022/easybuild/software/Compiler/NVHPC/22.11-CUDA-11.7.0/Gaussian/g16c01-CUDA-11.7.0/g16/l1110.exe)
 Leave Link 1110 at Sat May 24 03:36:04 2025, MaxMem=  3758096384 cpu:               0.0 elap:               0.0
 (Enter /apps/easybuild-2022/easybuild/software/Compiler/NVHPC/22.11-CUDA-11.7.0/Gaussian/g16c01-CUDA-11.7.0/g16/l1112.exe)
 Leave Link 1112 at Sat May 24 03:36:04 2025, MaxMem=  3758096384 cpu:               0.1 elap:               0.1
 (Enter /apps/easybuild-2022/easybuild/software/Compiler/NVHPC/22.11-CUDA-11.7.0/Gaussian/g16c01-CUDA-11.7.0/g16/l701.exe)
 ... and contract with generalized density number  2.
 Compute integral first derivatives.
 Leave Link  701 at Sat May 24 03:36:04 2025, MaxMem=  3758096384 cpu:               0.3 elap:               0.1
 (Enter /apps/easybuild-2022/easybuild/software/Compiler/NVHPC/22.11-CUDA-11.7.0/Gaussian/g16c01-CUDA-11.7.0/g16/l702.exe)
 L702 exits ... SP integral derivatives will be done elsewhere.
 Leave Link  702 at Sat May 24 03:36:04 2025, MaxMem=  3758096384 cpu:               0.1 elap:               0.0
 (Enter /apps/easybuild-2022/easybuild/software/Compiler/NVHPC/22.11-CUDA-11.7.0/Gaussian/g16c01-CUDA-11.7.0/g16/l703.exe)
 Integral derivatives from FoFJK, PRISM(SPDF).
 Compute integral first derivatives, UseDBF=F ICtDFT=           0.
 Calling FoFJK, ICntrl=  10002127 FMM=F ISym2X=0 I1Cent= 0 IOpClX= 0 NMat=1 NMatS=1 NMatT=0.
 FoFJK:  IHMeth= 1 ICntrl=10002127 DoSepK=F KAlg= 0 I1Cent=           0 FoldK=F
 IRaf=         0 NMat=       1 IRICut=       1 DoRegI=T DoRafI=F ISym2E= 0 IDoP0=0 IntGTp=1.
 FoFCou: FMM=F IPFlag=           0 FMFlag=      100000 FMFlg1=         800
         NFxFlg=           0 DoJE=F BraDBF=F KetDBF=F FulRan=T
         wScrn=  0.000000 ICntrl=  10002127 IOpCl=  0 I1Cent=           0 NGrid=           0
         NMat0=    1 NMatS0=      1 NMatT0=    0 NMatD0=    1 NMtDS0=    0 NMtDT0=    0
 Symmetry not used in FoFCou.
 Leave Link  703 at Sat May 24 03:36:04 2025, MaxMem=  3758096384 cpu:               0.9 elap:               0.2
 (Enter /apps/easybuild-2022/easybuild/software/Compiler/NVHPC/22.11-CUDA-11.7.0/Gaussian/g16c01-CUDA-11.7.0/g16/l716.exe)
 Dipole        =-8.94278555D-01 1.19803999D-02-2.08554427D-01
 Polarizability= 0.00000000D+00 0.00000000D+00 0.00000000D+00
                 0.00000000D+00 0.00000000D+00 0.00000000D+00
 -------------------------------------------------------------------
 Center     Atomic                   Forces (Hartrees/Bohr)
 Number     Number              X              Y              Z
 -------------------------------------------------------------------
      1        6          -0.000041390    0.000024231    0.000017707
      2        6          -0.000031409   -0.000118281   -0.000046444
      3        9          -0.000003549   -0.000001310   -0.000011783
      4        9           0.000054177   -0.000040215   -0.000044845
      5       16          -0.000160607    0.001862025    0.001253820
      6        8           0.000018977   -0.000208533   -0.000149311
      7        8           0.000623861    0.000894219   -0.000920392
      8        8          -0.000653536   -0.000601714    0.001133071
      9        9           0.000020691    0.000002354   -0.000010502
     10        9           0.000002650   -0.000005512   -0.000005245
     11        9          -0.000008087   -0.000014721   -0.000004900
     12        1           0.000178224   -0.001792542   -0.001211176
 -------------------------------------------------------------------
 Cartesian Forces:  Max     0.001862025 RMS     0.000623151
 Leave Link  716 at Sat May 24 03:36:04 2025, MaxMem=  3758096384 cpu:               0.1 elap:               0.0
 (Enter /apps/easybuild-2022/easybuild/software/Compiler/NVHPC/22.11-CUDA-11.7.0/Gaussian/g16c01-CUDA-11.7.0/g16/l123.exe)
 IRC-IRC-IRC-IRC-IRC-IRC-IRC-IRC-IRC-IRC-IRC-IRC-IRC-IRC-IRC-IRC-IRC-IRC
 Pt  1 Step number   1 out of a maximum of  20
 Using modified Bulirsch-Stoer corrector integration.
   Using distance weighted interpolants to fit PES.
 PreDWI: IReCr0= 2 IReCr1= 1 IReCr2= 1 IReCr3= 1
 Modified Bulirsch-Stoer Extrapolation Cycles:
    EPS =    0.000010000000000
    Cycle     1 NS=    48
      PEZero:  N= 2 I= 1 D=  5.45D-05 Err=  1.29D-04
    Cycle     2 NS=    64 Truncation Error =  0.000129155
      PEZero:  N= 3 I= 2 D=  5.45D-05 Err=  8.61D-05
      PEZero:  N= 3 I= 1 D=  1.09D-04 Err=  6.22D-10
    Cycle     3 NS=    96 Truncation Error =  0.000000001
 BS completed in    3 cycles and     208 integration steps.
 Maximum DWI energy   std dev =  0.000000004 at pt    17
 Maximum DWI gradient std dev =  0.001327844 at pt     1
 SUMMARY OF CORRECTOR INTEGRATION:
   Predictor End Point Energy = -1196.201378
   Old End Point Energy       = -1196.201378
   Corrected End Point Energy = -1196.201378
   Predictor End-Start Dist.  =     0.020915
   Old End-Start Dist.        =     0.020915
   New End-Start Dist.        =     0.020915
   New End-Old End Dist.      =     0.000018
 CORRECTOR INTEGRATION CONVERGENCE:
   Recorrection delta-x convergence threshold:    0.010000
   Delta-x Convergence Met
 Point Number:   1          Path Number:   1
                    CURRENT STRUCTURE
                Cartesian Coordinates (Ang):                
 ---------------------------------------------------------------------
 Center     Atomic                     Coordinates (Angstroms)
 Number     Number                        X           Y           Z
 ---------------------------------------------------------------------
      1          6                   -1.216855   -0.976428    0.117180
      2          6                   -0.613527    0.428596   -0.038674
      3          9                   -0.890758    0.948190   -1.291723
      4          9                   -1.046925    1.280040    0.967895
      5         16                    1.386182    0.431265    0.083194
      6          8                    1.859653   -0.393428    1.351947
      7          8                    2.032072    0.144493   -1.485729
      8          8                    1.833492    2.070189   -0.180752
      9          9                   -0.511197   -1.858170   -0.699813
     10          9                   -1.115830   -1.395233    1.434215
     11          9                   -2.552143   -0.964967   -0.265501
     12          1                    2.263864    1.452862   -1.316873
 ---------------------------------------------------------------------
   CHANGE IN THE REACTION COORDINATE =    0.02091
   NET REACTION COORDINATE UP TO THIS POINT =    0.02091
  # OF POINTS ALONG THE PATH =   1
  # OF STEPS =   1

 Calculating another point on the path.
 Point Number  2 in FORWARD path direction.
 Using LQA Reaction Path Following.
   LQA: T_Est iteration completed in    3 iterations.
 IRC-IRC-IRC-IRC-IRC-IRC-IRC-IRC-IRC-IRC-IRC-IRC-IRC-IRC-IRC-IRC-IRC-IRC
 Leave Link  123 at Sat May 24 03:36:04 2025, MaxMem=  3758096384 cpu:               0.2 elap:               0.1
 (Enter /apps/easybuild-2022/easybuild/software/Compiler/NVHPC/22.11-CUDA-11.7.0/Gaussian/g16c01-CUDA-11.7.0/g16/l202.exe)
                          Input orientation:                          
 ---------------------------------------------------------------------
 Center     Atomic      Atomic             Coordinates (Angstroms)
 Number     Number       Type             X           Y           Z
 ---------------------------------------------------------------------
      1          6           0       -1.216872   -0.976418    0.117187
      2          6           0       -0.613540    0.428548   -0.038693
      3          9           0       -0.890759    0.948189   -1.291726
      4          9           0       -1.046911    1.280030    0.967883
      5         16           0        1.386157    0.431550    0.083387
      6          8           0        1.859659   -0.393492    1.351901
      7          8           0        2.032263    0.144767   -1.486011
      8          8           0        1.833291    2.070005   -0.180405
      9          9           0       -0.511191   -1.858170   -0.699816
     10          9           0       -1.115829   -1.395234    1.434214
     11          9           0       -2.552146   -0.964970   -0.265502
     12          1           0        2.264736    1.444152   -1.322772
 ---------------------------------------------------------------------
                    Distance matrix (angstroms):
                    1          2          3          4          5
     1  C    0.000000
     2  C    1.536957   0.000000
     3  F    2.407385   1.384547   0.000000
     4  F    2.417463   1.387814   2.289178   0.000000
     5  S    2.959608   2.003423   2.709650   2.724348   0.000000
     6  O    3.365912   2.954017   4.043968   3.375840   1.585568
     7  O    3.792648   3.029115   3.037646   4.097772   1.721252
     8  O    4.321198   2.949821   3.148644   3.199718   1.718734
     9  F    1.393903   2.382569   2.893109   3.593955   3.075086
    10  F    1.385704   2.397484   3.601810   2.716478   3.379617
    11  F    1.389078   2.398234   2.733774   2.971026   4.193116
    12  H    4.478196   3.311312   3.194385   4.030018   1.942819
                    6          7          8          9         10
     6  O    0.000000
     7  O    2.893659   0.000000
     8  O    2.901288   2.334682   0.000000
     9  F    3.460600   3.331519   4.604014   0.000000
    10  F    3.140667   4.561776   4.828269   2.265829   0.000000
    11  F    4.733561   4.872162   5.333889   2.269786   2.266531
    12  H    3.270305   1.330073   1.372166   4.358804   5.204931
                   11         12
    11  F    0.000000
    12  H    5.488537   0.000000
 Symmetry turned off by external request.
 Stoichiometry    C2HF5O3S
 Rotational constants (GHZ):           1.4404059           0.7367966           0.6982485
 Leave Link  202 at Sat May 24 03:36:05 2025, MaxMem=  3758096384 cpu:               0.0 elap:               0.0
 (Enter /apps/easybuild-2022/easybuild/software/Compiler/NVHPC/22.11-CUDA-11.7.0/Gaussian/g16c01-CUDA-11.7.0/g16/l301.exe)
 Standard basis: 6-31G (6D, 7F)
 Ernie: Thresh=  0.10000D-02 Tol=  0.10000D-05 Strict=F.
   105 basis functions,   270 primitive gaussians,   105 cartesian basis functions
    49 alpha electrons       49 beta electrons
       nuclear repulsion energy       871.8006158315 Hartrees.



 Warning!  S  atom    5 may be hypervalent but has no d functions.



 IExCor=    0 DFT=F Ex=HF Corr=None ExCW=0 ScaHFX=  1.000000
 ScaDFX=  1.000000  1.000000  1.000000  1.000000 ScalE2=  1.000000  1.000000
 IRadAn=      5 IRanWt=     -1 IRanGd=            0 ICorTp=0 IEmpDi=  4
 NAtoms=   12 NActive=   12 NUniq=   12 SFac= 1.00D+00 NAtFMM=   60 NAOKFM=F Big=F
 Integral buffers will be    131072 words long.
 Raffenetti 1 integral format.
 Two-electron integral symmetry is turned off.
 Leave Link  301 at Sat May 24 03:36:05 2025, MaxMem=  3758096384 cpu:               0.1 elap:               0.0
 (Enter /apps/easybuild-2022/easybuild/software/Compiler/NVHPC/22.11-CUDA-11.7.0/Gaussian/g16c01-CUDA-11.7.0/g16/l302.exe)
 NPDir=0 NMtPBC=     1 NCelOv=     1 NCel=       1 NClECP=     1 NCelD=      1
         NCelK=      1 NCelE2=     1 NClLst=     1 CellRange=     0.0.
 One-electron integrals computed using PRISM.
 NBasis=   105 RedAO= T EigKep=  5.50D-03  NBF=   105
 NBsUse=   105 1.00D-06 EigRej= -1.00D+00 NBFU=   105
 Leave Link  302 at Sat May 24 03:36:05 2025, MaxMem=  3758096384 cpu:               0.3 elap:               0.1
 (Enter /apps/easybuild-2022/easybuild/software/Compiler/NVHPC/22.11-CUDA-11.7.0/Gaussian/g16c01-CUDA-11.7.0/g16/l303.exe)
 DipDrv:  MaxL=1.
 Leave Link  303 at Sat May 24 03:36:05 2025, MaxMem=  3758096384 cpu:               0.1 elap:               0.0
 (Enter /apps/easybuild-2022/easybuild/software/Compiler/NVHPC/22.11-CUDA-11.7.0/Gaussian/g16c01-CUDA-11.7.0/g16/l401.exe)
 Initial guess from the checkpoint file:  "2003846667223680600001_R_Addition_MultipleBond_5_8_12_IRC_F.chk"
 B after Tr=     0.000007   -0.000080   -0.000054
         Rot=    1.000000    0.000021   -0.000006    0.000014 Ang=   0.00 deg.
 Guess basis will be translated and rotated to current coordinates.
 JPrj=2 DoOrth=T DoCkMO=T.
 Generating alternative initial guess.
 ExpMin= 1.17D-01 ExpMax= 2.19D+04 ExpMxC= 3.30D+03 IAcc=3 IRadAn=         5 AccDes= 0.00D+00
 Harris functional with IExCor=  205 and IRadAn=       5 diagonalized for initial guess.
 HarFok:  IExCor=  205 AccDes= 0.00D+00 IRadAn=         5 IDoV= 1 UseB2=F ITyADJ=14
 ICtDFT=  3500011 ScaDFX=  1.000000  1.000000  1.000000  1.000000
 FoFCou: FMM=F IPFlag=           0 FMFlag=      100000 FMFlg1=           0
         NFxFlg=           0 DoJE=T BraDBF=F KetDBF=T FulRan=T
         wScrn=  0.000000 ICntrl=       500 IOpCl=  0 I1Cent=   200000004 NGrid=           0
         NMat0=    1 NMatS0=      1 NMatT0=    0 NMatD0=    1 NMtDS0=    0 NMtDT0=    0
 Symmetry not used in FoFCou.
 Harris En= -1194.87305218391    
 Leave Link  401 at Sat May 24 03:36:05 2025, MaxMem=  3758096384 cpu:               0.8 elap:               0.2
 (Enter /apps/easybuild-2022/easybuild/software/Compiler/NVHPC/22.11-CUDA-11.7.0/Gaussian/g16c01-CUDA-11.7.0/g16/l502.exe)
 Keep R1 ints in memory in canonical form, NReq=17171995.
 FoFCou: FMM=F IPFlag=           0 FMFlag=           0 FMFlg1=           0
         NFxFlg=           0 DoJE=F BraDBF=F KetDBF=F FulRan=T
         wScrn=  0.000000 ICntrl=       600 IOpCl=  0 I1Cent=           0 NGrid=           0
         NMat0=    1 NMatS0=   5565 NMatT0=    0 NMatD0=    1 NMtDS0=    0 NMtDT0=    0
 Symmetry not used in FoFCou.
 Two-electron integral symmetry not used.
 Closed shell SCF:
 Using DIIS extrapolation, IDIIS=  1040.
 NGot=  3758096384 LenX=  3742584760 LenY=  3742573294
 Requested convergence on RMS density matrix=1.00D-08 within  32 cycles.
 Requested convergence on MAX density matrix=1.00D-06.
 Requested convergence on             energy=1.00D-06.
 No special actions if energy rises.

 Cycle   1  Pass 1  IDiag  1:
 E= -1194.90688819483    
 DIIS: error= 7.28D-04 at cycle   1 NSaved=   1.
 NSaved= 1 IEnMin= 1 EnMin= -1194.90688819483     IErMin= 1 ErrMin= 7.28D-04
 ErrMax= 7.28D-04  0.00D+00 EMaxC= 1.00D-01 BMatC= 2.29D-05 BMatP= 2.29D-05
 IDIUse=3 WtCom= 9.93D-01 WtEn= 7.28D-03
 Coeff-Com:  0.100D+01
 Coeff-En:   0.100D+01
 Coeff:      0.100D+01
 Gap=     1.255 Goal=   None    Shift=    0.000
 RMSDP=7.42D-05 MaxDP=1.62D-03              OVMax= 5.89D-04

 Cycle   2  Pass 1  IDiag  1:
 E= -1194.90692562830     Delta-E=       -0.000037433477 Rises=F Damp=F
 DIIS: error= 4.83D-04 at cycle   2 NSaved=   2.
 NSaved= 2 IEnMin= 2 EnMin= -1194.90692562830     IErMin= 2 ErrMin= 4.83D-04
 ErrMax= 4.83D-04  0.00D+00 EMaxC= 1.00D-01 BMatC= 4.51D-06 BMatP= 2.29D-05
 IDIUse=3 WtCom= 9.95D-01 WtEn= 4.83D-03
 Coeff-Com:  0.660D-01 0.934D+00
 Coeff-En:   0.000D+00 0.100D+01
 Coeff:      0.657D-01 0.934D+00
 Gap=     0.523 Goal=   None    Shift=    0.000
 RMSDP=2.53D-05 MaxDP=7.11D-04 DE=-3.74D-05 OVMax= 1.33D-03

 Cycle   3  Pass 1  IDiag  1:
 E= -1194.90693205480     Delta-E=       -0.000006426501 Rises=F Damp=F
 DIIS: error= 1.27D-04 at cycle   3 NSaved=   3.
 NSaved= 3 IEnMin= 3 EnMin= -1194.90693205480     IErMin= 3 ErrMin= 1.27D-04
 ErrMax= 1.27D-04  0.00D+00 EMaxC= 1.00D-01 BMatC= 1.94D-06 BMatP= 4.51D-06
 IDIUse=3 WtCom= 9.99D-01 WtEn= 1.27D-03
 Coeff-Com: -0.178D+00 0.376D+00 0.802D+00
 Coeff-En:   0.000D+00 0.000D+00 0.100D+01
 Coeff:     -0.177D+00 0.376D+00 0.802D+00
 Gap=     0.523 Goal=   None    Shift=    0.000
 RMSDP=2.03D-05 MaxDP=3.72D-04 DE=-6.43D-06 OVMax= 6.62D-04

 Cycle   4  Pass 1  IDiag  1:
 E= -1194.90693544865     Delta-E=       -0.000003393842 Rises=F Damp=F
 DIIS: error= 9.77D-05 at cycle   4 NSaved=   4.
 NSaved= 4 IEnMin= 4 EnMin= -1194.90693544865     IErMin= 4 ErrMin= 9.77D-05
 ErrMax= 9.77D-05  0.00D+00 EMaxC= 1.00D-01 BMatC= 2.04D-07 BMatP= 1.94D-06
 IDIUse=1 WtCom= 1.00D+00 WtEn= 0.00D+00
 Coeff-Com:  0.183D+00-0.548D+00-0.758D+00 0.212D+01
 Coeff:      0.183D+00-0.548D+00-0.758D+00 0.212D+01
 Gap=     0.523 Goal=   None    Shift=    0.000
 RMSDP=2.04D-05 MaxDP=3.85D-04 DE=-3.39D-06 OVMax= 8.48D-04

 Cycle   5  Pass 1  IDiag  1:
 E= -1194.90693668905     Delta-E=       -0.000001240407 Rises=F Damp=F
 DIIS: error= 1.38D-05 at cycle   5 NSaved=   5.
 NSaved= 5 IEnMin= 5 EnMin= -1194.90693668905     IErMin= 5 ErrMin= 1.38D-05
 ErrMax= 1.38D-05  0.00D+00 EMaxC= 1.00D-01 BMatC= 1.12D-08 BMatP= 2.04D-07
 IDIUse=1 WtCom= 1.00D+00 WtEn= 0.00D+00
 Coeff-Com: -0.314D-01 0.110D+00 0.124D+00-0.536D+00 0.133D+01
 Coeff:     -0.314D-01 0.110D+00 0.124D+00-0.536D+00 0.133D+01
 Gap=     0.523 Goal=   None    Shift=    0.000
 RMSDP=4.18D-06 MaxDP=7.84D-05 DE=-1.24D-06 OVMax= 1.70D-04

 Cycle   6  Pass 1  IDiag  1:
 E= -1194.90693675066     Delta-E=       -0.000000061607 Rises=F Damp=F
 DIIS: error= 4.19D-06 at cycle   6 NSaved=   6.
 NSaved= 6 IEnMin= 6 EnMin= -1194.90693675066     IErMin= 6 ErrMin= 4.19D-06
 ErrMax= 4.19D-06  0.00D+00 EMaxC= 1.00D-01 BMatC= 2.74D-09 BMatP= 1.12D-08
 IDIUse=1 WtCom= 1.00D+00 WtEn= 0.00D+00
 Coeff-Com: -0.311D-01 0.958D-01 0.131D+00-0.407D+00 0.326D+00 0.886D+00
 Coeff:     -0.311D-01 0.958D-01 0.131D+00-0.407D+00 0.326D+00 0.886D+00
 Gap=     0.523 Goal=   None    Shift=    0.000
 RMSDP=1.28D-06 MaxDP=2.40D-05 DE=-6.16D-08 OVMax= 5.49D-05

 Cycle   7  Pass 1  IDiag  1:
 E= -1194.90693675932     Delta-E=       -0.000000008658 Rises=F Damp=F
 DIIS: error= 3.17D-06 at cycle   7 NSaved=   7.
 NSaved= 7 IEnMin= 7 EnMin= -1194.90693675932     IErMin= 7 ErrMin= 3.17D-06
 ErrMax= 3.17D-06  0.00D+00 EMaxC= 1.00D-01 BMatC= 6.36D-10 BMatP= 2.74D-09
 IDIUse=1 WtCom= 1.00D+00 WtEn= 0.00D+00
 Coeff-Com:  0.131D-01-0.462D-01-0.474D-01 0.204D+00-0.431D+00-0.116D+00
 Coeff-Com:  0.142D+01
 Coeff:      0.131D-01-0.462D-01-0.474D-01 0.204D+00-0.431D+00-0.116D+00
 Coeff:      0.142D+01
 Gap=     0.523 Goal=   None    Shift=    0.000
 RMSDP=1.04D-06 MaxDP=2.20D-05 DE=-8.66D-09 OVMax= 4.56D-05

 Cycle   8  Pass 1  IDiag  1:
 E= -1194.90693676261     Delta-E=       -0.000000003290 Rises=F Damp=F
 DIIS: error= 1.28D-06 at cycle   8 NSaved=   8.
 NSaved= 8 IEnMin= 8 EnMin= -1194.90693676261     IErMin= 8 ErrMin= 1.28D-06
 ErrMax= 1.28D-06  0.00D+00 EMaxC= 1.00D-01 BMatC= 7.79D-11 BMatP= 6.36D-10
 IDIUse=1 WtCom= 1.00D+00 WtEn= 0.00D+00
 Coeff-Com:  0.640D-03-0.128D-02-0.361D-02 0.303D-02 0.453D-01-0.704D-01
 Coeff-Com: -0.291D+00 0.132D+01
 Coeff:      0.640D-03-0.128D-02-0.361D-02 0.303D-02 0.453D-01-0.704D-01
 Coeff:     -0.291D+00 0.132D+01
 Gap=     0.523 Goal=   None    Shift=    0.000
 RMSDP=3.51D-07 MaxDP=7.82D-06 DE=-3.29D-09 OVMax= 1.41D-05

 Cycle   9  Pass 1  IDiag  1:
 E= -1194.90693676303     Delta-E=       -0.000000000425 Rises=F Damp=F
 DIIS: error= 4.91D-07 at cycle   9 NSaved=   9.
 NSaved= 9 IEnMin= 9 EnMin= -1194.90693676303     IErMin= 9 ErrMin= 4.91D-07
 ErrMax= 4.91D-07  0.00D+00 EMaxC= 1.00D-01 BMatC= 2.66D-11 BMatP= 7.79D-11
 IDIUse=1 WtCom= 1.00D+00 WtEn= 0.00D+00
 Coeff-Com: -0.298D-02 0.109D-01 0.101D-01-0.488D-01 0.124D+00 0.251D-02
 Coeff-Com: -0.464D+00 0.500D+00 0.869D+00
 Coeff:     -0.298D-02 0.109D-01 0.101D-01-0.488D-01 0.124D+00 0.251D-02
 Coeff:     -0.464D+00 0.500D+00 0.869D+00
 Gap=     0.523 Goal=   None    Shift=    0.000
 RMSDP=1.54D-07 MaxDP=3.51D-06 DE=-4.25D-10 OVMax= 5.83D-06

 Cycle  10  Pass 1  IDiag  1:
 E= -1194.90693676312     Delta-E=       -0.000000000085 Rises=F Damp=F
 DIIS: error= 1.88D-07 at cycle  10 NSaved=  10.
 NSaved=10 IEnMin=10 EnMin= -1194.90693676312     IErMin=10 ErrMin= 1.88D-07
 ErrMax= 1.88D-07  0.00D+00 EMaxC= 1.00D-01 BMatC= 3.84D-12 BMatP= 2.66D-11
 IDIUse=1 WtCom= 1.00D+00 WtEn= 0.00D+00
 Coeff-Com:  0.353D-03-0.141D-02-0.114D-02 0.755D-02-0.302D-01 0.136D-01
 Coeff-Com:  0.145D+00-0.367D+00-0.166D+00 0.140D+01
 Coeff:      0.353D-03-0.141D-02-0.114D-02 0.755D-02-0.302D-01 0.136D-01
 Coeff:      0.145D+00-0.367D+00-0.166D+00 0.140D+01
 Gap=     0.523 Goal=   None    Shift=    0.000
 RMSDP=8.12D-08 MaxDP=1.18D-06 DE=-8.46D-11 OVMax= 2.33D-06

 Cycle  11  Pass 1  IDiag  1:
 E= -1194.90693676315     Delta-E=       -0.000000000036 Rises=F Damp=F
 DIIS: error= 8.46D-08 at cycle  11 NSaved=  11.
 NSaved=11 IEnMin=11 EnMin= -1194.90693676315     IErMin=11 ErrMin= 8.46D-08
 ErrMax= 8.46D-08  0.00D+00 EMaxC= 1.00D-01 BMatC= 8.24D-13 BMatP= 3.84D-12
 IDIUse=1 WtCom= 1.00D+00 WtEn= 0.00D+00
 Coeff-Com:  0.526D-03-0.192D-02-0.182D-02 0.894D-02-0.248D-01 0.265D-02
 Coeff-Com:  0.101D+00-0.161D+00-0.165D+00 0.332D+00 0.908D+00
 Coeff:      0.526D-03-0.192D-02-0.182D-02 0.894D-02-0.248D-01 0.265D-02
 Coeff:      0.101D+00-0.161D+00-0.165D+00 0.332D+00 0.908D+00
 Gap=     0.523 Goal=   None    Shift=    0.000
 RMSDP=2.48D-08 MaxDP=3.40D-07 DE=-3.64D-11 OVMax= 8.68D-07

 Cycle  12  Pass 1  IDiag  1:
 E= -1194.90693676312     Delta-E=        0.000000000034 Rises=F Damp=F
 DIIS: error= 4.96D-08 at cycle  12 NSaved=  12.
 NSaved=12 IEnMin=11 EnMin= -1194.90693676315     IErMin=12 ErrMin= 4.96D-08
 ErrMax= 4.96D-08  0.00D+00 EMaxC= 1.00D-01 BMatC= 2.18D-13 BMatP= 8.24D-13
 IDIUse=1 WtCom= 1.00D+00 WtEn= 0.00D+00
 Coeff-Com: -0.106D-03 0.434D-03 0.340D-03-0.234D-02 0.947D-02-0.384D-02
 Coeff-Com: -0.447D-01 0.109D+00 0.490D-01-0.424D+00 0.349D-01 0.127D+01
 Coeff:     -0.106D-03 0.434D-03 0.340D-03-0.234D-02 0.947D-02-0.384D-02
 Coeff:     -0.447D-01 0.109D+00 0.490D-01-0.424D+00 0.349D-01 0.127D+01
 Gap=     0.523 Goal=   None    Shift=    0.000
 RMSDP=1.73D-08 MaxDP=2.62D-07 DE= 3.41D-11 OVMax= 6.42D-07

 Cycle  13  Pass 1  IDiag  1:
 E= -1194.90693676315     Delta-E=       -0.000000000031 Rises=F Damp=F
 DIIS: error= 2.36D-08 at cycle  13 NSaved=  13.
 NSaved=13 IEnMin=11 EnMin= -1194.90693676315     IErMin=13 ErrMin= 2.36D-08
 ErrMax= 2.36D-08  0.00D+00 EMaxC= 1.00D-01 BMatC= 3.87D-14 BMatP= 2.18D-13
 IDIUse=1 WtCom= 1.00D+00 WtEn= 0.00D+00
 Coeff-Com: -0.119D-03 0.438D-03 0.418D-03-0.210D-02 0.605D-02-0.702D-03
 Coeff-Com: -0.251D-01 0.414D-01 0.375D-01-0.974D-01-0.179D+00 0.983D-01
 Coeff-Com:  0.112D+01
 Coeff:     -0.119D-03 0.438D-03 0.418D-03-0.210D-02 0.605D-02-0.702D-03
 Coeff:     -0.251D-01 0.414D-01 0.375D-01-0.974D-01-0.179D+00 0.983D-01
 Coeff:      0.112D+01
 Gap=     0.523 Goal=   None    Shift=    0.000
 RMSDP=7.03D-09 MaxDP=1.14D-07 DE=-3.14D-11 OVMax= 2.49D-07

 SCF Done:  E(RHF) =  -1194.90693676     A.U. after   13 cycles
            NFock= 13  Conv=0.70D-08     -V/T= 2.0008
 KE= 1.193991847384D+03 PE=-4.582556313414D+03 EE= 1.321856913435D+03
 Leave Link  502 at Sat May 24 03:36:05 2025, MaxMem=  3758096384 cpu:               1.2 elap:               0.3
 (Enter /apps/easybuild-2022/easybuild/software/Compiler/NVHPC/22.11-CUDA-11.7.0/Gaussian/g16c01-CUDA-11.7.0/g16/l508.exe)
 QCSCF skips out because SCF is already converged.
 Leave Link  508 at Sat May 24 03:36:05 2025, MaxMem=  3758096384 cpu:               0.0 elap:               0.0
 (Enter /apps/easybuild-2022/easybuild/software/Compiler/NVHPC/22.11-CUDA-11.7.0/Gaussian/g16c01-CUDA-11.7.0/g16/l801.exe)
 ExpMin= 1.17D-01 ExpMax= 2.19D+04 ExpMxC= 3.30D+03 IAcc=3 IRadAn=         5 AccDes= 0.00D+00
 HarFok:  IExCor=  205 AccDes= 0.00D+00 IRadAn=         5 IDoV=-2 UseB2=F ITyADJ=14
 ICtDFT= 12500011 ScaDFX=  1.000000  1.000000  1.000000  1.000000
 Largest valence mixing into a core orbital is  3.02D-04
 Largest core mixing into a valence orbital is  1.16D-04
 Range of M.O.s used for correlation:    16   105
 NBasis=   105 NAE=    49 NBE=    49 NFC=    15 NFV=     0
 NROrb=     90 NOA=    34 NOB=    34 NVA=    56 NVB=    56
 Leave Link  801 at Sat May 24 03:36:05 2025, MaxMem=  3758096384 cpu:               0.3 elap:               0.1
 (Enter /apps/easybuild-2022/easybuild/software/Compiler/NVHPC/22.11-CUDA-11.7.0/Gaussian/g16c01-CUDA-11.7.0/g16/l906.exe)
 Frozen-core derivative calculation, NFC=  15 NFV=   0.
 FulOut=F Deriv=T AODrv=T NAtomX=    12
   MMem=         830  MDisk=          34 MDiskD=          34
  W3Min=      540225 MinDsk=      689135 NBas6D=         105
 NBas2D=        5703    NTT=        5565    LW2=     2000000
    MDV=  3757946987 MDiskM=      372613 NBas2p=        5382
 Fully direct method using O(ONN) memory.
 IMap=   1   2   3   4   5   6   7   8   9  10  11  12  13  14  15  16  17  18  19  20
 IMap=  21  22  23  24  25  26  27  28  29  30  31  32  33  34  35  36  37  38  39  40
 IMap=  41  42  43  44  45  46  47  48  49
 JobTyp=1 Pass  1:  I=  16 to  49 NPSUse=  8 ParTrn=T ParDer=T DoDerP=T.
 Spin components of T(2) and E(2):
     alpha-alpha T2 =       0.5812286289D-01 E2=     -0.1749461553D+00
     alpha-beta  T2 =       0.3142293602D+00 E2=     -0.9446197398D+00
     beta-beta   T2 =       0.5812286289D-01 E2=     -0.1749461553D+00
 The integrals were generated   1 times.
 ANorm=    0.1196024701D+01
 E2 =    -0.1294512050D+01 EUMP2 =    -0.11962014488135D+04
 Leave Link  906 at Sat May 24 03:36:13 2025, MaxMem=  3758096384 cpu:              57.2 elap:               7.5
 (Enter /apps/easybuild-2022/easybuild/software/Compiler/NVHPC/22.11-CUDA-11.7.0/Gaussian/g16c01-CUDA-11.7.0/g16/l1101.exe)
 Leave Link 1101 at Sat May 24 03:36:13 2025, MaxMem=  3758096384 cpu:               0.1 elap:               0.0
 (Enter /apps/easybuild-2022/easybuild/software/Compiler/NVHPC/22.11-CUDA-11.7.0/Gaussian/g16c01-CUDA-11.7.0/g16/l1102.exe)
 Leave Link 1102 at Sat May 24 03:36:13 2025, MaxMem=  3758096384 cpu:               0.1 elap:               0.0
 (Enter /apps/easybuild-2022/easybuild/software/Compiler/NVHPC/22.11-CUDA-11.7.0/Gaussian/g16c01-CUDA-11.7.0/g16/l1110.exe)
 Leave Link 1110 at Sat May 24 03:36:13 2025, MaxMem=  3758096384 cpu:               0.1 elap:               0.0
 (Enter /apps/easybuild-2022/easybuild/software/Compiler/NVHPC/22.11-CUDA-11.7.0/Gaussian/g16c01-CUDA-11.7.0/g16/l1002.exe)
 Minotr:  Closed shell wavefunction.
 Leave Link 1002 at Sat May 24 03:36:13 2025, MaxMem=  3758096384 cpu:               0.1 elap:               0.0
 (Enter /apps/easybuild-2022/easybuild/software/Compiler/NVHPC/22.11-CUDA-11.7.0/Gaussian/g16c01-CUDA-11.7.0/g16/l811.exe)
 Leave Link  811 at Sat May 24 03:36:13 2025, MaxMem=  3758096384 cpu:               0.1 elap:               0.0
 (Enter /apps/easybuild-2022/easybuild/software/Compiler/NVHPC/22.11-CUDA-11.7.0/Gaussian/g16c01-CUDA-11.7.0/g16/l804.exe)
 Leave Link  804 at Sat May 24 03:36:13 2025, MaxMem=  3758096384 cpu:               0.1 elap:               0.0
 (Enter /apps/easybuild-2022/easybuild/software/Compiler/NVHPC/22.11-CUDA-11.7.0/Gaussian/g16c01-CUDA-11.7.0/g16/l1002.exe)
 Minotr:  Closed shell wavefunction.
          Computing MP2/KS-MP2 derivatives.
          Using Z-Vector for PSCF gradient.
          Skipping F1 and S1 gradient terms here.
          IDoAtm=111111111111
          Frozen-core window.
          Direct CPHF calculation.
          Differentiating once with respect to electric field.
                with respect to dipole field.
          Differentiating once with respect to nuclear coordinates.
          Requested convergence is 1.0D-10 RMS, and 1.0D-09 maximum.
          NewPWx=F KeepS1=T KeepF1=T KeepIn=T MapXYZ=F SortEE=F KeepMc=T.
 Keep R1 ints in memory in canonical form, NReq=17176179.
 FoFCou: FMM=F IPFlag=           0 FMFlag=           0 FMFlg1=           0
         NFxFlg=           0 DoJE=F BraDBF=F KetDBF=F FulRan=T
         wScrn=  0.000000 ICntrl=       600 IOpCl=  0 I1Cent=           0 NGrid=           0
         NMat0=    1 NMatS0=   5565 NMatT0=    0 NMatD0=    1 NMtDS0=    0 NMtDT0=    0
 Symmetry not used in FoFCou.
 Two-electron integral symmetry not used.
          MDV=    3758096384 using IRadAn=       5.
          Solving linear equations separately, MaxMat=       0.
          There are     1 degrees of freedom in the 1st order CPHF.  IDoFFX=0 NUNeed=     1.
 LinEq1:  Iter=  0 NonCon=     1 RMS=1.08D-02 Max=2.43D-01 NDo=     1
 AX will form     1 AO Fock derivatives at one time.
 LinEq1:  Iter=  1 NonCon=     1 RMS=4.19D-03 Max=5.88D-02 NDo=     1
 LinEq1:  Iter=  2 NonCon=     1 RMS=1.42D-03 Max=2.83D-02 NDo=     1
 LinEq1:  Iter=  3 NonCon=     1 RMS=4.99D-04 Max=8.16D-03 NDo=     1
 LinEq1:  Iter=  4 NonCon=     1 RMS=2.30D-04 Max=4.21D-03 NDo=     1
 LinEq1:  Iter=  5 NonCon=     1 RMS=9.39D-05 Max=1.09D-03 NDo=     1
 LinEq1:  Iter=  6 NonCon=     1 RMS=2.92D-05 Max=4.54D-04 NDo=     1
 LinEq1:  Iter=  7 NonCon=     1 RMS=1.59D-05 Max=2.95D-04 NDo=     1
 LinEq1:  Iter=  8 NonCon=     1 RMS=4.73D-06 Max=8.00D-05 NDo=     1
 LinEq1:  Iter=  9 NonCon=     1 RMS=1.40D-06 Max=3.15D-05 NDo=     1
 LinEq1:  Iter= 10 NonCon=     1 RMS=4.62D-07 Max=7.54D-06 NDo=     1
 LinEq1:  Iter= 11 NonCon=     1 RMS=1.81D-07 Max=2.30D-06 NDo=     1
 LinEq1:  Iter= 12 NonCon=     1 RMS=1.04D-07 Max=1.42D-06 NDo=     1
 LinEq1:  Iter= 13 NonCon=     1 RMS=3.09D-08 Max=4.25D-07 NDo=     1
 LinEq1:  Iter= 14 NonCon=     1 RMS=1.44D-08 Max=1.76D-07 NDo=     1
 LinEq1:  Iter= 15 NonCon=     1 RMS=3.05D-09 Max=2.70D-08 NDo=     1
 LinEq1:  Iter= 16 NonCon=     1 RMS=7.87D-10 Max=1.00D-08 NDo=     1
 LinEq1:  Iter= 17 NonCon=     1 RMS=2.24D-10 Max=2.63D-09 NDo=     1
 LinEq1:  Iter= 18 NonCon=     0 RMS=6.30D-11 Max=7.86D-10 NDo=     1
 Linear equations converged to 1.000D-10 1.000D-09 after    18 iterations.
 End of Minotr F.D. properties file   721 does not exist.
 End of Minotr F.D. properties file   722 does not exist.
 End of Minotr F.D. properties file   788 does not exist.
 Leave Link 1002 at Sat May 24 03:36:14 2025, MaxMem=  3758096384 cpu:               1.6 elap:               0.6
 (Enter /apps/easybuild-2022/easybuild/software/Compiler/NVHPC/22.11-CUDA-11.7.0/Gaussian/g16c01-CUDA-11.7.0/g16/l1102.exe)
 Use density number 2.
 Symmetrizing basis deriv contribution to polar:
 IMax=3 JMax=2 DiffMx= 0.00D+00
 Leave Link 1102 at Sat May 24 03:36:14 2025, MaxMem=  3758096384 cpu:               0.1 elap:               0.0
 (Enter /apps/easybuild-2022/easybuild/software/Compiler/NVHPC/22.11-CUDA-11.7.0/Gaussian/g16c01-CUDA-11.7.0/g16/l1110.exe)
 Leave Link 1110 at Sat May 24 03:36:14 2025, MaxMem=  3758096384 cpu:               0.1 elap:               0.0
 (Enter /apps/easybuild-2022/easybuild/software/Compiler/NVHPC/22.11-CUDA-11.7.0/Gaussian/g16c01-CUDA-11.7.0/g16/l1112.exe)
 Leave Link 1112 at Sat May 24 03:36:14 2025, MaxMem=  3758096384 cpu:               0.1 elap:               0.0
 (Enter /apps/easybuild-2022/easybuild/software/Compiler/NVHPC/22.11-CUDA-11.7.0/Gaussian/g16c01-CUDA-11.7.0/g16/l701.exe)
 ... and contract with generalized density number  2.
 Compute integral first derivatives.
 Leave Link  701 at Sat May 24 03:36:14 2025, MaxMem=  3758096384 cpu:               0.3 elap:               0.1
 (Enter /apps/easybuild-2022/easybuild/software/Compiler/NVHPC/22.11-CUDA-11.7.0/Gaussian/g16c01-CUDA-11.7.0/g16/l702.exe)
 L702 exits ... SP integral derivatives will be done elsewhere.
 Leave Link  702 at Sat May 24 03:36:14 2025, MaxMem=  3758096384 cpu:               0.1 elap:               0.0
 (Enter /apps/easybuild-2022/easybuild/software/Compiler/NVHPC/22.11-CUDA-11.7.0/Gaussian/g16c01-CUDA-11.7.0/g16/l703.exe)
 Integral derivatives from FoFJK, PRISM(SPDF).
 Compute integral first derivatives, UseDBF=F ICtDFT=           0.
 Calling FoFJK, ICntrl=  10002127 FMM=F ISym2X=0 I1Cent= 0 IOpClX= 0 NMat=1 NMatS=1 NMatT=0.
 FoFJK:  IHMeth= 1 ICntrl=10002127 DoSepK=F KAlg= 0 I1Cent=           0 FoldK=F
 IRaf=         0 NMat=       1 IRICut=       1 DoRegI=T DoRafI=F ISym2E= 0 IDoP0=0 IntGTp=1.
 FoFCou: FMM=F IPFlag=           0 FMFlag=      100000 FMFlg1=         800
         NFxFlg=           0 DoJE=F BraDBF=F KetDBF=F FulRan=T
         wScrn=  0.000000 ICntrl=  10002127 IOpCl=  0 I1Cent=           0 NGrid=           0
         NMat0=    1 NMatS0=      1 NMatT0=    0 NMatD0=    1 NMtDS0=    0 NMtDT0=    0
 Symmetry not used in FoFCou.
 Leave Link  703 at Sat May 24 03:36:14 2025, MaxMem=  3758096384 cpu:               1.1 elap:               0.3
 (Enter /apps/easybuild-2022/easybuild/software/Compiler/NVHPC/22.11-CUDA-11.7.0/Gaussian/g16c01-CUDA-11.7.0/g16/l716.exe)
 Dipole        =-8.93159764D-01 1.73671190D-03-2.15705850D-01
 Polarizability= 0.00000000D+00 0.00000000D+00 0.00000000D+00
                 0.00000000D+00 0.00000000D+00 0.00000000D+00
 -------------------------------------------------------------------
 Center     Atomic                   Forces (Hartrees/Bohr)
 Number     Number              X              Y              Z
 -------------------------------------------------------------------
      1        6          -0.000082297    0.000049203    0.000035262
      2        6          -0.000062127   -0.000237666   -0.000091709
      3        9          -0.000007247   -0.000002437   -0.000023988
      4        9           0.000107784   -0.000080091   -0.000089409
      5       16          -0.000308382    0.003730763    0.002488335
      6        8           0.000036087   -0.000415901   -0.000299840
      7        8           0.001241869    0.001773623   -0.001835013
      8        8          -0.001309180   -0.001201169    0.002272135
      9        9           0.000041074    0.000004524   -0.000021031
     10        9           0.000005204   -0.000011159   -0.000010393
     11        9          -0.000016583   -0.000029727   -0.000009829
     12        1           0.000353799   -0.003579962   -0.002414520
 -------------------------------------------------------------------
 Cartesian Forces:  Max     0.003730763 RMS     0.001244153
 Leave Link  716 at Sat May 24 03:36:14 2025, MaxMem=  3758096384 cpu:               0.1 elap:               0.0
 (Enter /apps/easybuild-2022/easybuild/software/Compiler/NVHPC/22.11-CUDA-11.7.0/Gaussian/g16c01-CUDA-11.7.0/g16/l123.exe)
 IRC-IRC-IRC-IRC-IRC-IRC-IRC-IRC-IRC-IRC-IRC-IRC-IRC-IRC-IRC-IRC-IRC-IRC
 Pt  2 Step number   1 out of a maximum of  20
 Using modified Bulirsch-Stoer corrector integration.
   Using distance weighted interpolants to fit PES.
 PreDWI: IReCr0= 2 IReCr1= 1 IReCr2= 1 IReCr3= 1
 Modified Bulirsch-Stoer Extrapolation Cycles:
    EPS =    0.000010000000000
    Cycle     1 NS=    48
      PEZero:  N= 2 I= 1 D=  1.09D-04 Err=  1.15D-07
    Cycle     2 NS=    64 Truncation Error =  0.000000115
 BS completed in    2 cycles and     112 integration steps.
 Maximum DWI energy   std dev =  0.000000007 at pt    15
 Maximum DWI gradient std dev =  0.000917470 at pt    27
 SUMMARY OF CORRECTOR INTEGRATION:
   Predictor End Point Energy = -1196.201449
   Old End Point Energy       = -1196.201449
   Corrected End Point Energy = -1196.201449
   Predictor End-Start Dist.  =     0.020908
   Old End-Start Dist.        =     0.020908
   New End-Start Dist.        =     0.020908
   New End-Old End Dist.      =     0.000020
 CORRECTOR INTEGRATION CONVERGENCE:
   Recorrection delta-x convergence threshold:    0.010000
   Delta-x Convergence Met
 Point Number:   2          Path Number:   1
                    CURRENT STRUCTURE
                Cartesian Coordinates (Ang):                
 ---------------------------------------------------------------------
 Center     Atomic                     Coordinates (Angstroms)
 Number     Number                        X           Y           Z
 ---------------------------------------------------------------------
      1          6                   -1.216872   -0.976418    0.117187
      2          6                   -0.613540    0.428548   -0.038693
      3          9                   -0.890759    0.948189   -1.291726
      4          9                   -1.046911    1.280030    0.967883
      5         16                    1.386158    0.431551    0.083386
      6          8                    1.859659   -0.393492    1.351901
      7          8                    2.032263    0.144766   -1.486011
      8          8                    1.833291    2.070005   -0.180404
      9          9                   -0.511191   -1.858170   -0.699816
     10          9                   -1.115829   -1.395234    1.434214
     11          9                   -2.552146   -0.964970   -0.265502
     12          1                    2.264733    1.444148   -1.322766
 ---------------------------------------------------------------------
   CHANGE IN THE REACTION COORDINATE =    0.02091
   NET REACTION COORDINATE UP TO THIS POINT =    0.04182
  # OF POINTS ALONG THE PATH =   2
  # OF STEPS =   1

 Calculating another point on the path.
 Point Number  3 in FORWARD path direction.
 Using LQA Reaction Path Following.
   LQA: T_Est iteration completed in    3 iterations.
 IRC-IRC-IRC-IRC-IRC-IRC-IRC-IRC-IRC-IRC-IRC-IRC-IRC-IRC-IRC-IRC-IRC-IRC
 Leave Link  123 at Sat May 24 03:36:14 2025, MaxMem=  3758096384 cpu:               0.1 elap:               0.1
 (Enter /apps/easybuild-2022/easybuild/software/Compiler/NVHPC/22.11-CUDA-11.7.0/Gaussian/g16c01-CUDA-11.7.0/g16/l202.exe)
                          Input orientation:                          
 ---------------------------------------------------------------------
 Center     Atomic      Atomic             Coordinates (Angstroms)
 Number     Number       Type             X           Y           Z
 ---------------------------------------------------------------------
      1          6           0       -1.216889   -0.976408    0.117194
      2          6           0       -0.613553    0.428499   -0.038711
      3          9           0       -0.890760    0.948189   -1.291729
      4          9           0       -1.046897    1.280020    0.967872
      5         16           0        1.386134    0.431837    0.083577
      6          8           0        1.859664   -0.393556    1.351855
      7          8           0        2.032454    0.145038   -1.486293
      8          8           0        1.833090    2.069820   -0.180055
      9          9           0       -0.511186   -1.858169   -0.699819
     10          9           0       -1.115829   -1.395235    1.434212
     11          9           0       -2.552148   -0.964974   -0.265503
     12          1           0        2.265597    1.435429   -1.328652
 ---------------------------------------------------------------------
                    Distance matrix (angstroms):
                    1          2          3          4          5
     1  C    0.000000
     2  C    1.536908   0.000000
     3  F    2.407384   1.384549   0.000000
     4  F    2.417440   1.387834   2.289167   0.000000
     5  S    2.959732   2.003425   2.709674   2.724157   0.000000
     6  O    3.365900   2.954023   4.043965   3.375855   1.585570
     7  O    3.793025   3.029388   3.037776   4.097988   1.721765
     8  O    4.320907   2.949572   3.148529   3.199351   1.718214
     9  F    1.393926   2.382518   2.893109   3.593940   3.075331
    10  F    1.385700   2.397456   3.601812   2.716471   3.379679
    11  F    1.389066   2.398198   2.733778   2.971025   4.193209
    12  H    4.476063   3.311700   3.193956   4.033707   1.942947
                    6          7          8          9         10
     6  O    0.000000
     7  O    2.893963   0.000000
     8  O    2.900978   2.334693   0.000000
     9  F    3.460547   3.331889   4.603790   0.000000
    10  F    3.140653   4.562179   4.827897   2.265831   0.000000
    11  F    4.733545   4.872476   5.333628   2.269791   2.266533
    12  H    3.270334   1.320725   1.381590   4.353590   5.203857
                   11         12
    11  F    0.000000
    12  H    5.486610   0.000000
 Symmetry turned off by external request.
 Stoichiometry    C2HF5O3S
 Rotational constants (GHZ):           1.4403581           0.7367801           0.6982741
 Leave Link  202 at Sat May 24 03:36:14 2025, MaxMem=  3758096384 cpu:               0.1 elap:               0.0
 (Enter /apps/easybuild-2022/easybuild/software/Compiler/NVHPC/22.11-CUDA-11.7.0/Gaussian/g16c01-CUDA-11.7.0/g16/l301.exe)
 Standard basis: 6-31G (6D, 7F)
 Ernie: Thresh=  0.10000D-02 Tol=  0.10000D-05 Strict=F.
   105 basis functions,   270 primitive gaussians,   105 cartesian basis functions
    49 alpha electrons       49 beta electrons
       nuclear repulsion energy       871.8014863905 Hartrees.



 Warning!  S  atom    5 may be hypervalent but has no d functions.



 IExCor=    0 DFT=F Ex=HF Corr=None ExCW=0 ScaHFX=  1.000000
 ScaDFX=  1.000000  1.000000  1.000000  1.000000 ScalE2=  1.000000  1.000000
 IRadAn=      5 IRanWt=     -1 IRanGd=            0 ICorTp=0 IEmpDi=  4
 NAtoms=   12 NActive=   12 NUniq=   12 SFac= 1.00D+00 NAtFMM=   60 NAOKFM=F Big=F
 Integral buffers will be    131072 words long.
 Raffenetti 1 integral format.
 Two-electron integral symmetry is turned off.
 Leave Link  301 at Sat May 24 03:36:14 2025, MaxMem=  3758096384 cpu:               0.1 elap:               0.1
 (Enter /apps/easybuild-2022/easybuild/software/Compiler/NVHPC/22.11-CUDA-11.7.0/Gaussian/g16c01-CUDA-11.7.0/g16/l302.exe)
 NPDir=0 NMtPBC=     1 NCelOv=     1 NCel=       1 NClECP=     1 NCelD=      1
         NCelK=      1 NCelE2=     1 NClLst=     1 CellRange=     0.0.
 One-electron integrals computed using PRISM.
 NBasis=   105 RedAO= T EigKep=  5.50D-03  NBF=   105
 NBsUse=   105 1.00D-06 EigRej= -1.00D+00 NBFU=   105
 Leave Link  302 at Sat May 24 03:36:14 2025, MaxMem=  3758096384 cpu:               0.3 elap:               0.1
 (Enter /apps/easybuild-2022/easybuild/software/Compiler/NVHPC/22.11-CUDA-11.7.0/Gaussian/g16c01-CUDA-11.7.0/g16/l303.exe)
 DipDrv:  MaxL=1.
 Leave Link  303 at Sat May 24 03:36:15 2025, MaxMem=  3758096384 cpu:               0.1 elap:               0.0
 (Enter /apps/easybuild-2022/easybuild/software/Compiler/NVHPC/22.11-CUDA-11.7.0/Gaussian/g16c01-CUDA-11.7.0/g16/l401.exe)
 Initial guess from the checkpoint file:  "2003846667223680600001_R_Addition_MultipleBond_5_8_12_IRC_F.chk"
 B after Tr=     0.000007   -0.000080   -0.000054
         Rot=    1.000000    0.000021   -0.000006    0.000014 Ang=   0.00 deg.
 Guess basis will be translated and rotated to current coordinates.
 JPrj=2 DoOrth=T DoCkMO=T.
 Generating alternative initial guess.
[...]
 Leave Link 1101 at Sat May 24 03:47:39 2025, MaxMem=  3758096384 cpu:               0.0 elap:               0.0
 (Enter /apps/easybuild-2022/easybuild/software/Compiler/NVHPC/22.11-CUDA-11.7.0/Gaussian/g16c01-CUDA-11.7.0/g16/l1102.exe)
 Leave Link 1102 at Sat May 24 03:47:39 2025, MaxMem=  3758096384 cpu:               0.1 elap:               0.0
 (Enter /apps/easybuild-2022/easybuild/software/Compiler/NVHPC/22.11-CUDA-11.7.0/Gaussian/g16c01-CUDA-11.7.0/g16/l1110.exe)
 Leave Link 1110 at Sat May 24 03:47:39 2025, MaxMem=  3758096384 cpu:               0.1 elap:               0.0
 (Enter /apps/easybuild-2022/easybuild/software/Compiler/NVHPC/22.11-CUDA-11.7.0/Gaussian/g16c01-CUDA-11.7.0/g16/l1002.exe)
 Minotr:  Closed shell wavefunction.
 Leave Link 1002 at Sat May 24 03:47:39 2025, MaxMem=  3758096384 cpu:               0.1 elap:               0.0
 (Enter /apps/easybuild-2022/easybuild/software/Compiler/NVHPC/22.11-CUDA-11.7.0/Gaussian/g16c01-CUDA-11.7.0/g16/l811.exe)
 Leave Link  811 at Sat May 24 03:47:39 2025, MaxMem=  3758096384 cpu:               0.1 elap:               0.0
 (Enter /apps/easybuild-2022/easybuild/software/Compiler/NVHPC/22.11-CUDA-11.7.0/Gaussian/g16c01-CUDA-11.7.0/g16/l804.exe)
 Leave Link  804 at Sat May 24 03:47:39 2025, MaxMem=  3758096384 cpu:               0.1 elap:               0.0
 (Enter /apps/easybuild-2022/easybuild/software/Compiler/NVHPC/22.11-CUDA-11.7.0/Gaussian/g16c01-CUDA-11.7.0/g16/l1002.exe)
 Minotr:  Closed shell wavefunction.
          Computing MP2/KS-MP2 derivatives.
          Using Z-Vector for PSCF gradient.
          Skipping F1 and S1 gradient terms here.
          IDoAtm=111111111111
          Frozen-core window.
          Direct CPHF calculation.
          Differentiating once with respect to electric field.
                with respect to dipole field.
          Differentiating once with respect to nuclear coordinates.
          Requested convergence is 1.0D-10 RMS, and 1.0D-09 maximum.
          NewPWx=F KeepS1=T KeepF1=T KeepIn=T MapXYZ=F SortEE=F KeepMc=T.
 Keep R1 ints in memory in canonical form, NReq=17175894.
 FoFCou: FMM=F IPFlag=           0 FMFlag=           0 FMFlg1=           0
         NFxFlg=           0 DoJE=F BraDBF=F KetDBF=F FulRan=T
         wScrn=  0.000000 ICntrl=       600 IOpCl=  0 I1Cent=           0 NGrid=           0
         NMat0=    1 NMatS0=   5565 NMatT0=    0 NMatD0=    1 NMtDS0=    0 NMtDT0=    0
 Symmetry not used in FoFCou.
 Two-electron integral symmetry not used.
          MDV=    3758096384 using IRadAn=       5.
          Solving linear equations separately, MaxMat=       0.
          There are     1 degrees of freedom in the 1st order CPHF.  IDoFFX=0 NUNeed=     1.
 LinEq1:  Iter=  0 NonCon=     1 RMS=1.07D-02 Max=1.64D-01 NDo=     1
 AX will form     1 AO Fock derivatives at one time.
 LinEq1:  Iter=  1 NonCon=     1 RMS=4.39D-03 Max=6.19D-02 NDo=     1
 LinEq1:  Iter=  2 NonCon=     1 RMS=1.42D-03 Max=1.88D-02 NDo=     1
 LinEq1:  Iter=  3 NonCon=     1 RMS=5.09D-04 Max=6.90D-03 NDo=     1
 LinEq1:  Iter=  4 NonCon=     1 RMS=2.22D-04 Max=2.65D-03 NDo=     1
 LinEq1:  Iter=  5 NonCon=     1 RMS=9.77D-05 Max=1.10D-03 NDo=     1
 LinEq1:  Iter=  6 NonCon=     1 RMS=2.89D-05 Max=4.79D-04 NDo=     1
 LinEq1:  Iter=  7 NonCon=     1 RMS=1.63D-05 Max=2.54D-04 NDo=     1
 LinEq1:  Iter=  8 NonCon=     1 RMS=4.84D-06 Max=7.05D-05 NDo=     1
 LinEq1:  Iter=  9 NonCon=     1 RMS=2.51D-06 Max=3.59D-05 NDo=     1
 LinEq1:  Iter= 10 NonCon=     1 RMS=7.83D-07 Max=1.44D-05 NDo=     1
 LinEq1:  Iter= 11 NonCon=     1 RMS=3.13D-07 Max=5.27D-06 NDo=     1
 LinEq1:  Iter= 12 NonCon=     1 RMS=1.09D-07 Max=1.39D-06 NDo=     1
 LinEq1:  Iter= 13 NonCon=     1 RMS=2.73D-08 Max=2.38D-07 NDo=     1
 LinEq1:  Iter= 14 NonCon=     1 RMS=1.25D-08 Max=1.63D-07 NDo=     1
 LinEq1:  Iter= 15 NonCon=     1 RMS=2.83D-09 Max=3.10D-08 NDo=     1
 LinEq1:  Iter= 16 NonCon=     1 RMS=7.61D-10 Max=9.42D-09 NDo=     1
 LinEq1:  Iter= 17 NonCon=     1 RMS=2.25D-10 Max=2.75D-09 NDo=     1
 LinEq1:  Iter= 18 NonCon=     1 RMS=8.14D-11 Max=1.17D-09 NDo=     1
 LinEq1:  Iter= 19 NonCon=     0 RMS=3.73D-11 Max=5.94D-10 NDo=     1
 Linear equations converged to 1.000D-10 1.000D-09 after    19 iterations.
 End of Minotr F.D. properties file   721 does not exist.
 End of Minotr F.D. properties file   722 does not exist.
 End of Minotr F.D. properties file   788 does not exist.
 Leave Link 1002 at Sat May 24 03:47:39 2025, MaxMem=  3758096384 cpu:               1.5 elap:               0.5
 (Enter /apps/easybuild-2022/easybuild/software/Compiler/NVHPC/22.11-CUDA-11.7.0/Gaussian/g16c01-CUDA-11.7.0/g16/l1102.exe)
 Use density number 2.
 Symmetrizing basis deriv contribution to polar:
 IMax=3 JMax=2 DiffMx= 0.00D+00
 Leave Link 1102 at Sat May 24 03:47:39 2025, MaxMem=  3758096384 cpu:               0.1 elap:               0.0
 (Enter /apps/easybuild-2022/easybuild/software/Compiler/NVHPC/22.11-CUDA-11.7.0/Gaussian/g16c01-CUDA-11.7.0/g16/l1110.exe)
 Leave Link 1110 at Sat May 24 03:47:39 2025, MaxMem=  3758096384 cpu:               0.1 elap:               0.0
 (Enter /apps/easybuild-2022/easybuild/software/Compiler/NVHPC/22.11-CUDA-11.7.0/Gaussian/g16c01-CUDA-11.7.0/g16/l1112.exe)
 Leave Link 1112 at Sat May 24 03:47:39 2025, MaxMem=  3758096384 cpu:               0.1 elap:               0.0
 (Enter /apps/easybuild-2022/easybuild/software/Compiler/NVHPC/22.11-CUDA-11.7.0/Gaussian/g16c01-CUDA-11.7.0/g16/l701.exe)
 ... and contract with generalized density number  2.
 Compute integral first derivatives.
 Leave Link  701 at Sat May 24 03:47:39 2025, MaxMem=  3758096384 cpu:               0.4 elap:               0.1
 (Enter /apps/easybuild-2022/easybuild/software/Compiler/NVHPC/22.11-CUDA-11.7.0/Gaussian/g16c01-CUDA-11.7.0/g16/l702.exe)
 L702 exits ... SP integral derivatives will be done elsewhere.
 Leave Link  702 at Sat May 24 03:47:39 2025, MaxMem=  3758096384 cpu:               0.1 elap:               0.0
 (Enter /apps/easybuild-2022/easybuild/software/Compiler/NVHPC/22.11-CUDA-11.7.0/Gaussian/g16c01-CUDA-11.7.0/g16/l703.exe)
 Integral derivatives from FoFJK, PRISM(SPDF).
 Compute integral first derivatives, UseDBF=F ICtDFT=           0.
 Calling FoFJK, ICntrl=  10002127 FMM=F ISym2X=0 I1Cent= 0 IOpClX= 0 NMat=1 NMatS=1 NMatT=0.
 FoFJK:  IHMeth= 1 ICntrl=10002127 DoSepK=F KAlg= 0 I1Cent=           0 FoldK=F
 IRaf=         0 NMat=       1 IRICut=       1 DoRegI=T DoRafI=F ISym2E= 0 IDoP0=0 IntGTp=1.
 FoFCou: FMM=F IPFlag=           0 FMFlag=      100000 FMFlg1=         800
         NFxFlg=           0 DoJE=F BraDBF=F KetDBF=F FulRan=T
         wScrn=  0.000000 ICntrl=  10002127 IOpCl=  0 I1Cent=           0 NGrid=           0
         NMat0=    1 NMatS0=      1 NMatT0=    0 NMatD0=    1 NMtDS0=    0 NMtDT0=    0
 Symmetry not used in FoFCou.
 Leave Link  703 at Sat May 24 03:47:40 2025, MaxMem=  3758096384 cpu:               1.0 elap:               0.3
 (Enter /apps/easybuild-2022/easybuild/software/Compiler/NVHPC/22.11-CUDA-11.7.0/Gaussian/g16c01-CUDA-11.7.0/g16/l716.exe)
 Dipole        =-5.67664115D-01 1.85430507D-02-5.85213923D-01
 Polarizability= 0.00000000D+00 0.00000000D+00 0.00000000D+00
                 0.00000000D+00 0.00000000D+00 0.00000000D+00
 -------------------------------------------------------------------
 Center     Atomic                   Forces (Hartrees/Bohr)
 Number     Number              X              Y              Z
 -------------------------------------------------------------------
      1        6           0.000985483   -0.000182815   -0.000289499
      2        6           0.001638210   -0.000174436   -0.000884025
      3        9          -0.000912799   -0.000085813   -0.001054992
      4        9           0.000289578   -0.000916718   -0.001015549
      5       16           0.008525157    0.021480684   -0.001265346
      6        8          -0.000877307   -0.000301823   -0.007878922
      7        8          -0.004452269   -0.022232189   -0.004908480
      8        8          -0.005931110    0.006165416    0.019748450
      9        9          -0.000198629   -0.000831334   -0.000375439
     10        9          -0.000131559   -0.000151894   -0.000153142
     11        9           0.000291337   -0.000332297    0.000131742
     12        1           0.000773907   -0.002436781   -0.002054797
 -------------------------------------------------------------------
 Cartesian Forces:  Max     0.022232189 RMS     0.006709064
 Leave Link  716 at Sat May 24 03:47:40 2025, MaxMem=  3758096384 cpu:               0.1 elap:               0.0
 (Enter /apps/easybuild-2022/easybuild/software/Compiler/NVHPC/22.11-CUDA-11.7.0/Gaussian/g16c01-CUDA-11.7.0/g16/l123.exe)
 IRC-IRC-IRC-IRC-IRC-IRC-IRC-IRC-IRC-IRC-IRC-IRC-IRC-IRC-IRC-IRC-IRC-IRC
 Pt100 Step number   1 out of a maximum of  20
 Using modified Bulirsch-Stoer corrector integration.
   Using distance weighted interpolants to fit PES.
 PreDWI: IReCr0= 2 IReCr1= 1 IReCr2= 1 IReCr3= 1
 Modified Bulirsch-Stoer Extrapolation Cycles:
    EPS =    0.000010000000000
    Cycle     1 NS=    48
      PEZero:  N= 2 I= 1 D=  1.09D-04 Err=  8.72D-07
    Cycle     2 NS=    64 Truncation Error =  0.000000872
 BS completed in    2 cycles and     112 integration steps.
 Maximum DWI energy   std dev =  0.000000000 at pt    47
 Maximum DWI gradient std dev =  0.000149809 at pt    29
 SUMMARY OF CORRECTOR INTEGRATION:
   Predictor End Point Energy = -1196.242709
   Old End Point Energy       = -1196.242709
   Corrected End Point Energy = -1196.242709
   Predictor End-Start Dist.  =     0.020911
   Old End-Start Dist.        =     0.020911
   New End-Start Dist.        =     0.020911
   New End-Old End Dist.      =     0.000004
 CORRECTOR INTEGRATION CONVERGENCE:
   Recorrection delta-x convergence threshold:    0.010000
   Delta-x Convergence Met
 Point Number: 100          Path Number:   1
                    CURRENT STRUCTURE
                Cartesian Coordinates (Ang):                
 ---------------------------------------------------------------------
 Center     Atomic                     Coordinates (Angstroms)
 Number     Number                        X           Y           Z
 ---------------------------------------------------------------------
      1          6                   -1.215504   -0.976780    0.116716
      2          6                   -0.610772    0.420778   -0.043421
      3          9                   -0.892531    0.947828   -1.293809
      4          9                   -1.044638    1.276935    0.964561
      5         16                    1.402251    0.500796    0.095877
      6          8                    1.855837   -0.401560    1.325212
      7          8                    2.033307    0.070872   -1.533622
      8          8                    1.793016    2.057496   -0.090023
      9          9                   -0.511276   -1.859078   -0.700525
     10          9                   -1.116246   -1.395758    1.434006
     11          9                   -2.553145   -0.966465   -0.265567
     12          1                    2.407060    0.963841   -1.791917
 ---------------------------------------------------------------------
   CHANGE IN THE REACTION COORDINATE =    0.02091
   NET REACTION COORDINATE UP TO THIS POINT =    2.09101
  # OF POINTS ALONG THE PATH = 100
  # OF STEPS =   1

 Maximum number of steps reached.
 Calculation of FORWARD path complete.
 Reaction path calculation complete.
 
 Energies reported relative to the TS energy of       -1196.201354
 --------------------------------------------------------------------------
    Summary of reaction path following
 --------------------------------------------------------------------------
                        Energy    RxCoord
   1                    0.00000   0.00000
   2                   -0.00002   0.02091
   3                   -0.00009   0.04182
   4                   -0.00021   0.06273
   5                   -0.00038   0.08364
   6                   -0.00059   0.10455
   7                   -0.00084   0.12546
   8                   -0.00114   0.14637
   9                   -0.00148   0.16728
  10                   -0.00187   0.18819
  11                   -0.00230   0.20910
  12                   -0.00276   0.23001
  13                   -0.00326   0.25092
  14                   -0.00380   0.27183
  15                   -0.00437   0.29274
  16                   -0.00498   0.31365
  17                   -0.00561   0.33456
  18                   -0.00626   0.35547
  19                   -0.00694   0.37639
  20                   -0.00764   0.39730
  21                   -0.00836   0.41821
  22                   -0.00909   0.43912
  23                   -0.00984   0.46003
  24                   -0.01058   0.48094
  25                   -0.01134   0.50185
  26                   -0.01209   0.52276
  27                   -0.01284   0.54367
  28                   -0.01359   0.56458
  29                   -0.01432   0.58549
  30                   -0.01505   0.60640
  31                   -0.01576   0.62731
  32                   -0.01646   0.64822
  33                   -0.01713   0.66913
  34                   -0.01780   0.69004
  35                   -0.01844   0.71094
  36                   -0.01906   0.73185
  37                   -0.01967   0.75276
  38                   -0.02025   0.77367
  39                   -0.02082   0.79458
  40                   -0.02137   0.81549
  41                   -0.02191   0.83639
  42                   -0.02244   0.85730
  43                   -0.02294   0.87821
  44                   -0.02344   0.89912
  45                   -0.02393   0.92003
  46                   -0.02440   0.94094
  47                   -0.02486   0.96185
  48                   -0.02532   0.98276
  49                   -0.02576   1.00367
  50                   -0.02619   1.02458
  51                   -0.02662   1.04549
  52                   -0.02704   1.06640
  53                   -0.02745   1.08731
  54                   -0.02785   1.10822
  55                   -0.02825   1.12913
  56                   -0.02864   1.15004
  57                   -0.02902   1.17095
  58                   -0.02940   1.19186
  59                   -0.02977   1.21277
  60                   -0.03014   1.23368
  61                   -0.03049   1.25459
  62                   -0.03085   1.27550
  63                   -0.03120   1.29641
  64                   -0.03154   1.31732
  65                   -0.03188   1.33823
  66                   -0.03221   1.35914
  67                   -0.03254   1.38005
  68                   -0.03287   1.40096
  69                   -0.03319   1.42188
  70                   -0.03350   1.44279
  71                   -0.03381   1.46370
  72                   -0.03412   1.48461
  73                   -0.03442   1.50552
  74                   -0.03472   1.52643
  75                   -0.03501   1.54734
  76                   -0.03530   1.56825
  77                   -0.03558   1.58916
  78                   -0.03586   1.61007
  79                   -0.03614   1.63098
  80                   -0.03641   1.65189
  81                   -0.03668   1.67280
  82                   -0.03695   1.69371
  83                   -0.03721   1.71462
  84                   -0.03747   1.73553
  85                   -0.03772   1.75644
  86                   -0.03797   1.77735
  87                   -0.03822   1.79827
  88                   -0.03846   1.81918
  89                   -0.03871   1.84009
  90                   -0.03894   1.86100
  91                   -0.03918   1.88191
  92                   -0.03941   1.90282
  93                   -0.03964   1.92373
  94                   -0.03986   1.94464
  95                   -0.04008   1.96555
  96                   -0.04030   1.98646
  97                   -0.04052   2.00737
  98                   -0.04073   2.02828
  99                   -0.04094   2.04919
 100                   -0.04115   2.07010
 101                   -0.04135   2.09101
 --------------------------------------------------------------------------
 
 Total number of points:                  100
 Total number of gradient calculations:   100
 Total number of Hessian calculations:      0
 IRC-IRC-IRC-IRC-IRC-IRC-IRC-IRC-IRC-IRC-IRC-IRC-IRC-IRC-IRC-IRC-IRC-IRC
 Leave Link  123 at Sat May 24 03:47:40 2025, MaxMem=  3758096384 cpu:               0.1 elap:               0.0
 (Enter /apps/easybuild-2022/easybuild/software/Compiler/NVHPC/22.11-CUDA-11.7.0/Gaussian/g16c01-CUDA-11.7.0/g16/l202.exe)
                          Input orientation:                          
 ---------------------------------------------------------------------
 Center     Atomic      Atomic             Coordinates (Angstroms)
 Number     Number       Type             X           Y           Z
 ---------------------------------------------------------------------
      1          6           0       -1.215504   -0.976780    0.116716
      2          6           0       -0.610772    0.420778   -0.043421
      3          9           0       -0.892531    0.947828   -1.293809
      4          9           0       -1.044638    1.276935    0.964561
      5         16           0        1.402251    0.500796    0.095877
      6          8           0        1.855837   -0.401560    1.325212
      7          8           0        2.033307    0.070872   -1.533622
      8          8           0        1.793016    2.057496   -0.090023
      9          9           0       -0.511276   -1.859077   -0.700525
     10          9           0       -1.116246   -1.395758    1.434006
     11          9           0       -2.553145   -0.966465   -0.265567
     12          1           0        2.407060    0.963842   -1.791919
 ---------------------------------------------------------------------
                    Distance matrix (angstroms):
                    1          2          3          4          5
     1  C    0.000000
     2  C    1.531180   0.000000
     3  F    2.407906   1.385872   0.000000
     4  F    2.413974   1.391860   2.287287   0.000000
     5  S    3.006045   2.019423   2.719759   2.710032   0.000000
     6  O    3.350295   2.938292   4.029100   3.370486   1.590991
     7  O    3.791565   3.055207   3.063836   4.143580   1.799537
     8  O    4.277939   2.908473   3.145255   3.126293   1.615725
     9  F    1.393653   2.374747   2.894142   3.590482   3.140835
    10  F    1.385875   2.395433   3.603252   2.714553   3.424958
    11  F    1.391233   2.397207   2.734856   2.970126   4.234224
    12  H    4.531211   3.529798   3.337016   4.428366   2.188110
                    6          7          8          9         10
     6  O    0.000000
     7  O    2.903037   0.000000
     8  O    2.837920   2.467466   0.000000
     9  F    3.439650   3.300554   4.584978   0.000000
    10  F    3.135848   4.569191   4.765652   2.266468   0.000000
    11  F    4.721103   4.870275   5.297572   2.270501   2.266610
    12  H    3.447416   1.001900   2.114137   4.204367   5.328039
                   11         12
    11  F    0.000000
    12  H    5.537100   0.000000
 Symmetry turned off by external request.
 Stoichiometry    C2HF5O3S
 Rotational constants (GHZ):           1.4248811           0.7328861           0.7021119
 Leave Link  202 at Sat May 24 03:47:40 2025, MaxMem=  3758096384 cpu:               0.1 elap:               0.0
 (Enter /apps/easybuild-2022/easybuild/software/Compiler/NVHPC/22.11-CUDA-11.7.0/Gaussian/g16c01-CUDA-11.7.0/g16/l9999.exe)

 This type of calculation cannot be archived.


 Cherishing children is the mark of a civilized society.
 -- Joan Ganz Cooney
 Job cpu time:       0 days  1 hours 10 minutes 34.8 seconds.
 Elapsed time:       0 days  0 hours 11 minutes 24.4 seconds.
 File lengths (MBytes):  RWF=     10 Int=      0 D2E=      0 Chk=      4 Scr=      1
 Normal termination of Gaussian 16 at Sat May 24 03:47:40 2025.
done
