 Entering Gaussian System, Link 0=g16
 Initial command:
 /apps/easybuild-2022/easybuild/software/Compiler/NVHPC/22.11-CUDA-11.7.0/Gaussian/g16c01-CUDA-11.7.0/g16/l1.exe "/tmp/Gau-42239.inp" -scrdir="/tmp/"
 Entering Link 1 = /apps/easybuild-2022/easybuild/software/Compiler/NVHPC/22.11-CUDA-11.7.0/Gaussian/g16c01-CUDA-11.7.0/g16/l1.exe PID=     42240.
  
 Copyright (c) 1988-2019, Gaussian, Inc.  All Rights Reserved.
  
 This is part of the Gaussian(R) 16 program.  It is based on
 the Gaussian(R) 09 system (copyright 2009, Gaussian, Inc.),
 the Gaussian(R) 03 system (copyright 2003, Gaussian, Inc.),
 the Gaussian(R) 98 system (copyright 1998, Gaussian, Inc.),
 the Gaussian(R) 94 system (copyright 1995, Gaussian, Inc.),
 the Gaussian 92(TM) system (copyright 1992, Gaussian, Inc.),
 the Gaussian 90(TM) system (copyright 1990, Gaussian, Inc.),
 the Gaussian 88(TM) system (copyright 1988, Gaussian, Inc.),
 the Gaussian 86(TM) system (copyright 1986, Carnegie Mellon
 University), and the Gaussian 82(TM) system (copyright 1983,
 Carnegie Mellon University). Gaussian is a federally registered
 trademark of Gaussian, Inc.
  
 This software contains proprietary and confidential information,
 including trade secrets, belonging to Gaussian, Inc.
  
 This software is provided under written license and may be
 used, copied, transmitted, or stored only in accord with that
 written license.
  
 The following legend is applicable only to US Government
 contracts under FAR:
  
                    RESTRICTED RIGHTS LEGEND
  
 Use, reproduction and disclosure by the US Government is
 subject to restrictions as set forth in subparagraphs (a)
 and (c) of the Commercial Computer Software - Restricted
 Rights clause in FAR 52.227-19.
  
 Gaussian, Inc.
 340 Quinnipiac St., Bldg. 40, Wallingford CT 06492
  
  
 ---------------------------------------------------------------
 Warning -- This program may not be used in any manner that
 competes with the business of Gaussian, Inc. or will provide
 assistance to any competitor of Gaussian, Inc.  The licensee
 of this program is prohibited from giving any competitor of
 Gaussian, Inc. access to this program.  By using this program,
 the user acknowledges that Gaussian, Inc. is engaged in the
 business of creating and licensing software in the field of
 computational chemistry and represents and warrants to the
 licensee that it is not a competitor of Gaussian, Inc. and that
 it will not use this program in any manner prohibited above.
 ---------------------------------------------------------------
  

 Cite this work as:
 Gaussian 16, Revision C.01,
 M. J. Frisch, G. W. Trucks, H. B. Schlegel, G. E. Scuseria, 
 M. A. Robb, J. R. Cheeseman, G. Scalmani, V. Barone, 
 G. A. Petersson, H. Nakatsuji, X. Li, M. Caricato, A. V. Marenich, 
 J. Bloino, B. G. Janesko, R. Gomperts, B. Mennucci, H. P. Hratchian, 
 J. V. Ortiz, A. F. Izmaylov, J. L. Sonnenberg, D. Williams-Young, 
 F. Ding, F. Lipparini, F. Egidi, J. Goings, B. Peng, A. Petrone, 
 T. Henderson, D. Ranasinghe, V. G. Zakrzewski, J. Gao, N. Rega, 
 G. Zheng, W. Liang, M. Hada, M. Ehara, K. Toyota, R. Fukuda, 
 J. Hasegawa, M. Ishida, T. Nakajima, Y. Honda, O. Kitao, H. Nakai, 
 T. Vreven, K. Throssell, J. A. Montgomery, Jr., J. E. Peralta, 
 F. Ogliaro, M. J. Bearpark, J. J. Heyd, E. N. Brothers, K. N. Kudin, 
 V. N. Staroverov, T. A. Keith, R. Kobayashi, J. Normand, 
 K. Raghavachari, A. P. Rendell, J. C. Burant, S. S. Iyengar, 
 J. Tomasi, M. Cossi, J. M. Millam, M. Klene, C. Adamo, R. Cammi, 
 J. W. Ochterski, R. L. Martin, K. Morokuma, O. Farkas, 
 J. B. Foresman, and D. J. Fox, Gaussian, Inc., Wallingford CT, 2019.
 
 ******************************************
 Gaussian 16:  ES64L-G16RevC.01  3-Jul-2019
                24-May-2025 
 ******************************************
 %mem=28GB
 %chk=2003846667223680600001_intra_H_migration_suprafacial_6_12_IRC_R_prod
 %nprocshared=8
 Will use up to    8 processors via shared memory.
 -----------------------------------------------------------------
 #P M062X/Def2TZVPP Symm(None) scf(xqc) pop(None) freq opt(CalcFC)
 -----------------------------------------------------------------
 1/10=4,18=20,19=15,26=3,38=1/1,3;
 2/9=110,12=2,15=3,17=6,18=5,40=1/2;
 3/5=44,7=202,11=2,25=1,30=1,71=2,74=-55,140=1/1,2,3;
 4//1;
 5/5=2,8=3,13=1,38=5/2,8;
 8/6=4,10=90,11=11/1;
 11/6=1,8=1,9=11,15=111,16=1,31=1/1,2,10;
 10/6=1,13=1,31=1/2;
 7/10=1,25=1,30=1/1,2,3,16;
 1/10=4,18=20,19=15,26=3/3(2);
 2/9=110,15=3/2;
 99//99;
 2/9=110,15=3/2;
 3/5=44,7=202,11=2,25=1,30=1,71=1,74=-55/1,2,3;
 4/5=5,16=3,69=1/1;
 5/5=2,8=3,13=1,38=5/2,8;
 7/30=1/1,2,3,16;
 1/18=20,19=15,26=3/3(-5);
 2/9=110,15=3/2;
 99/9=1/99;
 Leave Link    1 at Sat May 24 06:25:31 2025, MaxMem=  3758096384 cpu:               0.0 elap:               0.0
 (Enter /apps/easybuild-2022/easybuild/software/Compiler/NVHPC/22.11-CUDA-11.7.0/Gaussian/g16c01-CUDA-11.7.0/g16/l101.exe)
 ------------------------------
 Gaussian input prepared by ASE
 ------------------------------
 Symbolic Z-matrix:
 Charge =  0 Multiplicity = 1
 C                     0.91929  -1.18136  -0.65653 
 C                     0.26775   0.20453  -0.91112 
 F                     0.9459    0.76744  -1.93042 
 F                    -0.98424  -0.00353  -1.33218 
 S                    -0.95456   0.99342   1.64417 
 O                     0.28364   0.99639   0.20814 
 O                    -2.05883   0.158     1.37369 
 O                    -1.09678   2.34305   2.02893 
 F                     2.21803  -1.05967  -0.42138 
 F                     0.34794  -1.72134   0.42397 
 F                     0.74647  -2.00194  -1.68087 
 H                     0.00891   0.3717    2.3414 
 
 ITRead=  0  0  0  0  0  0  0  0  0  0  0  0
 MicOpt= -1 -1 -1 -1 -1 -1 -1 -1 -1 -1 -1 -1
 NAtoms=     12 NQM=       12 NQMF=       0 NMMI=      0 NMMIF=      0
                NMic=       0 NMicF=      0.
                    Isotopes and Nuclear Properties:
 (Nuclear quadrupole moments (NQMom) in fm**2, nuclear magnetic moments (NMagM)
  in nuclear magnetons)

  Atom         1           2           3           4           5           6           7           8           9          10
 IAtWgt=          12          12          19          19          32          16          16          16          19          19
 AtmWgt=  12.0000000  12.0000000  18.9984032  18.9984032  31.9720718  15.9949146  15.9949146  15.9949146  18.9984032  18.9984032
 NucSpn=           0           0           1           1           0           0           0           0           1           1
 AtZEff=  -0.0000000  -0.0000000  -0.0000000  -0.0000000  -0.0000000  -0.0000000  -0.0000000  -0.0000000  -0.0000000  -0.0000000
 NQMom=    0.0000000   0.0000000   0.0000000   0.0000000   0.0000000   0.0000000   0.0000000   0.0000000   0.0000000   0.0000000
 NMagM=    0.0000000   0.0000000   2.6288670   2.6288670   0.0000000   0.0000000   0.0000000   0.0000000   2.6288670   2.6288670
 AtZNuc=   6.0000000   6.0000000   9.0000000   9.0000000  16.0000000   8.0000000   8.0000000   8.0000000   9.0000000   9.0000000

  Atom        11          12
 IAtWgt=          19           1
 AtmWgt=  18.9984032   1.0078250
 NucSpn=           1           1
 AtZEff=  -0.0000000  -0.0000000
 NQMom=    0.0000000   0.0000000
 NMagM=    2.6288670   2.7928460
 AtZNuc=   9.0000000   1.0000000
 Leave Link  101 at Sat May 24 06:25:32 2025, MaxMem=  3758096384 cpu:               0.2 elap:               0.2
 (Enter /apps/easybuild-2022/easybuild/software/Compiler/NVHPC/22.11-CUDA-11.7.0/Gaussian/g16c01-CUDA-11.7.0/g16/l103.exe)

 GradGradGradGradGradGradGradGradGradGradGradGradGradGradGradGradGradGrad
 Berny optimization.
 Initialization pass.
                           ----------------------------
                           !    Initial Parameters    !
                           ! (Angstroms and Degrees)  !
 --------------------------                            --------------------------
 ! Name  Definition              Value          Derivative Info.                !
 --------------------------------------------------------------------------------
 ! R1    R(1,2)                  1.5524         calculate D2E/DX2 analytically  !
 ! R2    R(1,9)                  1.3255         calculate D2E/DX2 analytically  !
 ! R3    R(1,10)                 1.3362         calculate D2E/DX2 analytically  !
 ! R4    R(1,11)                 1.3238         calculate D2E/DX2 analytically  !
 ! R5    R(2,3)                  1.3475         calculate D2E/DX2 analytically  !
 ! R6    R(2,4)                  1.3372         calculate D2E/DX2 analytically  !
 ! R7    R(2,6)                  1.3711         calculate D2E/DX2 analytically  !
 ! R8    R(5,6)                  1.8961         calculate D2E/DX2 analytically  !
 ! R9    R(5,7)                  1.4109         calculate D2E/DX2 analytically  !
 ! R10   R(5,8)                  1.4106         calculate D2E/DX2 analytically  !
 ! R11   R(5,12)                 1.342          calculate D2E/DX2 analytically  !
 ! A1    A(2,1,9)              110.9995         calculate D2E/DX2 analytically  !
 ! A2    A(2,1,10)             108.2953         calculate D2E/DX2 analytically  !
 ! A3    A(2,1,11)             111.8192         calculate D2E/DX2 analytically  !
 ! A4    A(9,1,10)             108.2165         calculate D2E/DX2 analytically  !
 ! A5    A(9,1,11)             108.7902         calculate D2E/DX2 analytically  !
 ! A6    A(10,1,11)            108.626          calculate D2E/DX2 analytically  !
 ! A7    A(1,2,3)              106.6047         calculate D2E/DX2 analytically  !
 ! A8    A(1,2,4)              107.7992         calculate D2E/DX2 analytically  !
 ! A9    A(1,2,6)              112.1375         calculate D2E/DX2 analytically  !
 ! A10   A(3,2,4)              107.3386         calculate D2E/DX2 analytically  !
 ! A11   A(3,2,6)              111.7404         calculate D2E/DX2 analytically  !
 ! A12   A(4,2,6)              110.9618         calculate D2E/DX2 analytically  !
 ! A13   A(6,5,7)              111.5212         calculate D2E/DX2 analytically  !
 ! A14   A(6,5,8)              105.719          calculate D2E/DX2 analytically  !
 ! A15   A(6,5,12)              85.7204         calculate D2E/DX2 analytically  !
 ! A16   A(7,5,8)              122.6789         calculate D2E/DX2 analytically  !
 ! A17   A(7,5,12)             112.781          calculate D2E/DX2 analytically  !
 ! A18   A(8,5,12)             111.9579         calculate D2E/DX2 analytically  !
 ! A19   A(2,6,5)              127.5714         calculate D2E/DX2 analytically  !
 ! D1    D(9,1,2,3)             56.0458         calculate D2E/DX2 analytically  !
 ! D2    D(9,1,2,4)            171.0295         calculate D2E/DX2 analytically  !
 ! D3    D(9,1,2,6)            -66.5423         calculate D2E/DX2 analytically  !
 ! D4    D(10,1,2,3)           174.7044         calculate D2E/DX2 analytically  !
 ! D5    D(10,1,2,4)           -70.312          calculate D2E/DX2 analytically  !
 ! D6    D(10,1,2,6)            52.1163         calculate D2E/DX2 analytically  !
 ! D7    D(11,1,2,3)           -65.6442         calculate D2E/DX2 analytically  !
 ! D8    D(11,1,2,4)            49.3394         calculate D2E/DX2 analytically  !
 ! D9    D(11,1,2,6)           171.7677         calculate D2E/DX2 analytically  !
 ! D10   D(1,2,6,5)            -83.6413         calculate D2E/DX2 analytically  !
 ! D11   D(3,2,6,5)            156.7311         calculate D2E/DX2 analytically  !
 ! D12   D(4,2,6,5)             36.9726         calculate D2E/DX2 analytically  !
 ! D13   D(7,5,6,2)             -7.3864         calculate D2E/DX2 analytically  !
 ! D14   D(8,5,6,2)           -142.9418         calculate D2E/DX2 analytically  !
 ! D15   D(12,5,6,2)           105.4364         calculate D2E/DX2 analytically  !
 --------------------------------------------------------------------------------
 Trust Radius=3.00D-01 FncErr=1.00D-07 GrdErr=1.00D-06 EigMax=2.50D+02 EigMin=1.00D-04
 Number of steps in this run=     55 maximum allowed number of steps=    100.
 GradGradGradGradGradGradGradGradGradGradGradGradGradGradGradGradGradGrad

 Leave Link  103 at Sat May 24 06:25:32 2025, MaxMem=  3758096384 cpu:               0.0 elap:               0.0
 (Enter /apps/easybuild-2022/easybuild/software/Compiler/NVHPC/22.11-CUDA-11.7.0/Gaussian/g16c01-CUDA-11.7.0/g16/l202.exe)
                          Input orientation:                          
 ---------------------------------------------------------------------
 Center     Atomic      Atomic             Coordinates (Angstroms)
 Number     Number       Type             X           Y           Z
 ---------------------------------------------------------------------
      1          6           0        0.919287   -1.181365   -0.656532
      2          6           0        0.267750    0.204534   -0.911124
      3          9           0        0.945903    0.767436   -1.930423
      4          9           0       -0.984235   -0.003529   -1.332176
      5         16           0       -0.954562    0.993419    1.644167
      6          8           0        0.283637    0.996388    0.208138
      7          8           0       -2.058833    0.157996    1.373689
      8          8           0       -1.096780    2.343047    2.028933
      9          9           0        2.218035   -1.059670   -0.421381
     10          9           0        0.347944   -1.721336    0.423965
     11          9           0        0.746465   -2.001943   -1.680874
     12          1           0        0.008913    0.371700    2.341397
 ---------------------------------------------------------------------
                    Distance matrix (angstroms):
                    1          2          3          4          5
     1  C    0.000000
     2  C    1.552428   0.000000
     3  F    2.328375   1.347487   0.000000
     4  F    2.338202   1.337177   2.162804   0.000000
     5  S    3.678887   2.940391   4.054692   3.139013   0.000000
     6  O    2.427821   1.371143   2.250435   2.231569   1.896134
     7  O    3.845112   3.261215   4.507440   2.915914   1.410852
     8  O    4.868031   3.883184   4.725633   4.100749   1.410591
     9  F    1.325463   2.375220   2.689581   3.492780   4.306627
    10  F    1.336217   2.344753   3.477741   2.794565   3.248894
    11  F    1.323817   2.385419   2.787743   2.666565   4.787649
    12  H    3.496909   3.267083   4.391242   3.823909   1.341994
                    6          7          8          9         10
     6  O    0.000000
     7  O    2.747467   0.000000
     8  O    2.652232   2.475750   0.000000
     9  F    2.892329   4.795476   5.345140   0.000000
    10  F    2.727039   3.197881   4.602430   2.156305   0.000000
    11  F    3.573873   4.676044   6.003262   2.154001   2.160534
    12  H    2.239755   2.292968   2.281754   3.816017   2.858721
                   11         12
    11  F    0.000000
    12  H    4.728301   0.000000
 Symmetry turned off by external request.
 Stoichiometry    C2HF5O3S
 Rotational constants (GHZ):           1.7517932           0.6410249           0.6037286
 Leave Link  202 at Sat May 24 06:25:32 2025, MaxMem=  3758096384 cpu:               0.0 elap:               0.0
 (Enter /apps/easybuild-2022/easybuild/software/Compiler/NVHPC/22.11-CUDA-11.7.0/Gaussian/g16c01-CUDA-11.7.0/g16/l301.exe)
 Standard basis: def2TZVPP (5D, 7F)
 Ernie: Thresh=  0.10000D-02 Tol=  0.10000D-05 Strict=F.
   366 basis functions,   596 primitive gaussians,   423 cartesian basis functions
    49 alpha electrons       49 beta electrons
       nuclear repulsion energy       884.1887336459 Hartrees.
 IExCor= 4336 DFT=T Ex+Corr=M062X ExCW=0 ScaHFX=  0.540000
 ScaDFX=  1.000000  1.000000  1.000000  1.000000 ScalE2=  1.000000  1.000000
 IRadAn=      5 IRanWt=     -1 IRanGd=            0 ICorTp=0 IEmpDi=  4
 NAtoms=   12 NActive=   12 NUniq=   12 SFac= 1.00D+00 NAtFMM=   60 NAOKFM=F Big=F
 Integral buffers will be    131072 words long.
 Raffenetti 2 integral format.
 Two-electron integral symmetry is turned off.
 Leave Link  301 at Sat May 24 06:25:32 2025, MaxMem=  3758096384 cpu:               0.0 elap:               0.0
 (Enter /apps/easybuild-2022/easybuild/software/Compiler/NVHPC/22.11-CUDA-11.7.0/Gaussian/g16c01-CUDA-11.7.0/g16/l302.exe)
 NPDir=0 NMtPBC=     1 NCelOv=     1 NCel=       1 NClECP=     1 NCelD=      1
         NCelK=      1 NCelE2=     1 NClLst=     1 CellRange=     0.0.
 One-electron integrals computed using PRISM.
   1 Symmetry operations used in ECPInt.
 ECPInt:  NShTT=    8515 NPrTT=   27988 LenC2=    7871 LenP2D=   19038.
 LDataN:  DoStor=T MaxTD1= 6 Len=  172
 NBasis=   366 RedAO= T EigKep=  5.64D-04  NBF=   366
 NBsUse=   366 1.00D-06 EigRej= -1.00D+00 NBFU=   366
 Precomputing XC quadrature grid using
 IXCGrd= 4 IRadAn=           5 IRanWt=          -1 IRanGd=           0 AccXCQ= 0.00D+00.
 Generated NRdTot=       0 NPtTot=           0 NUsed=           0 NTot=          32
 NSgBfM=   419   419   419   419   419 MxSgAt=    12 MxSgA2=    12.
 Leave Link  302 at Sat May 24 06:25:32 2025, MaxMem=  3758096384 cpu:               0.6 elap:               0.1
 (Enter /apps/easybuild-2022/easybuild/software/Compiler/NVHPC/22.11-CUDA-11.7.0/Gaussian/g16c01-CUDA-11.7.0/g16/l303.exe)
 DipDrv:  MaxL=1.
 Leave Link  303 at Sat May 24 06:25:32 2025, MaxMem=  3758096384 cpu:               0.1 elap:               0.0
 (Enter /apps/easybuild-2022/easybuild/software/Compiler/NVHPC/22.11-CUDA-11.7.0/Gaussian/g16c01-CUDA-11.7.0/g16/l401.exe)
 ExpMin= 9.52D-02 ExpMax= 6.07D+04 ExpMxC= 2.07D+03 IAcc=3 IRadAn=         5 AccDes= 0.00D+00
 Harris functional with IExCor= 1009 and IRadAn=       5 diagonalized for initial guess.
 HarFok:  IExCor= 1009 AccDes= 0.00D+00 IRadAn=         5 IDoV= 1 UseB2=F ITyADJ=14
 ICtDFT=  3500011 ScaDFX=  1.000000  1.000000  1.000000  1.000000
 FoFCou: FMM=F IPFlag=           0 FMFlag=      100000 FMFlg1=           0
         NFxFlg=           0 DoJE=T BraDBF=F KetDBF=T FulRan=T
         wScrn=  0.000000 ICntrl=       500 IOpCl=  0 I1Cent=   200000004 NGrid=           0
         NMat0=    1 NMatS0=      1 NMatT0=    0 NMatD0=    1 NMtDS0=    0 NMtDT0=    0
 Symmetry not used in FoFCou.
 Harris En= -1199.31501402709    
 JPrj=0 DoOrth=F DoCkMO=F.
 Leave Link  401 at Sat May 24 06:25:32 2025, MaxMem=  3758096384 cpu:               3.1 elap:               0.4
 (Enter /apps/easybuild-2022/easybuild/software/Compiler/NVHPC/22.11-CUDA-11.7.0/Gaussian/g16c01-CUDA-11.7.0/g16/l502.exe)
 Keep R1 ints in memory in canonical form, NReq=2293446996.
 FoFCou: FMM=F IPFlag=           0 FMFlag=           0 FMFlg1=           0
         NFxFlg=           0 DoJE=F BraDBF=F KetDBF=F FulRan=T
         wScrn=  0.000000 ICntrl=       600 IOpCl=  0 I1Cent=           0 NGrid=           0
         NMat0=    1 NMatS0=  67161 NMatT0=    0 NMatD0=    1 NMtDS0=    0 NMtDT0=    0
 Symmetry not used in FoFCou.
 Two-electron integral symmetry not used.
 Closed shell SCF:
 Using DIIS extrapolation, IDIIS=  1040.
 NGot=  3758096384 LenX=  1502398672 LenY=  1502219302
 Requested convergence on RMS density matrix=1.00D-08 within  32 cycles.
 Requested convergence on MAX density matrix=1.00D-06.
 Requested convergence on             energy=1.00D-06.
 No special actions if energy rises.
 Integral accuracy reduced to 1.0D-05 until final iterations.

 Cycle   1  Pass 0  IDiag  1:
 E= -1199.61110359947    
 DIIS: error= 2.69D-02 at cycle   1 NSaved=   1.
 NSaved= 1 IEnMin= 1 EnMin= -1199.61110359947     IErMin= 1 ErrMin= 2.69D-02
 ErrMax= 2.69D-02  0.00D+00 EMaxC= 1.00D-01 BMatC= 5.84D-01 BMatP= 5.84D-01
 IDIUse=3 WtCom= 7.31D-01 WtEn= 2.69D-01
 Coeff-Com:  0.100D+01
 Coeff-En:   0.100D+01
 Coeff:      0.100D+01
 Gap=     0.352 Goal=   None    Shift=    0.000
 GapD=    0.352 DampG=1.000 DampE=0.500 DampFc=0.5000 IDamp=-1.
 Damping current iteration by 5.00D-01
 RMSDP=2.29D-03 MaxDP=2.71D-01              OVMax= 1.75D-01

 Cycle   2  Pass 0  IDiag  1:
 E= -1199.71570942806     Delta-E=       -0.104605828591 Rises=F Damp=T
 DIIS: error= 8.25D-03 at cycle   2 NSaved=   2.
 NSaved= 2 IEnMin= 2 EnMin= -1199.71570942806     IErMin= 2 ErrMin= 8.25D-03
 ErrMax= 8.25D-03  0.00D+00 EMaxC= 1.00D-01 BMatC= 5.51D-02 BMatP= 5.84D-01
 IDIUse=3 WtCom= 9.17D-01 WtEn= 8.25D-02
 Coeff-Com:  0.960D-01 0.904D+00
 Coeff-En:   0.273D+00 0.727D+00
 Coeff:      0.111D+00 0.889D+00
 Gap=     0.424 Goal=   None    Shift=    0.000
 RMSDP=5.73D-04 MaxDP=5.54D-02 DE=-1.05D-01 OVMax= 1.23D-01

 Cycle   3  Pass 0  IDiag  1:
 E= -1199.90331107362     Delta-E=       -0.187601645560 Rises=F Damp=F
 DIIS: error= 4.69D-03 at cycle   3 NSaved=   3.
 NSaved= 3 IEnMin= 3 EnMin= -1199.90331107362     IErMin= 3 ErrMin= 4.69D-03
 ErrMax= 4.69D-03  0.00D+00 EMaxC= 1.00D-01 BMatC= 1.13D-02 BMatP= 5.51D-02
 IDIUse=3 WtCom= 9.53D-01 WtEn= 4.69D-02
 Coeff-Com: -0.550D-01 0.243D+00 0.812D+00
 Coeff-En:   0.000D+00 0.000D+00 0.100D+01
 Coeff:     -0.524D-01 0.232D+00 0.820D+00
 Gap=     0.394 Goal=   None    Shift=    0.000
 RMSDP=2.37D-04 MaxDP=2.52D-02 DE=-1.88D-01 OVMax= 2.62D-02

 Cycle   4  Pass 0  IDiag  1:
 E= -1199.90800443945     Delta-E=       -0.004693365828 Rises=F Damp=F
 DIIS: error= 2.27D-03 at cycle   4 NSaved=   4.
 NSaved= 4 IEnMin= 4 EnMin= -1199.90800443945     IErMin= 4 ErrMin= 2.27D-03
 ErrMax= 2.27D-03  0.00D+00 EMaxC= 1.00D-01 BMatC= 5.11D-03 BMatP= 1.13D-02
 IDIUse=3 WtCom= 9.77D-01 WtEn= 2.27D-02
 Coeff-Com: -0.368D-01 0.785D-01 0.479D+00 0.479D+00
 Coeff-En:   0.000D+00 0.000D+00 0.286D+00 0.714D+00
 Coeff:     -0.360D-01 0.767D-01 0.475D+00 0.484D+00
 Gap=     0.389 Goal=   None    Shift=    0.000
 RMSDP=9.81D-05 MaxDP=6.20D-03 DE=-4.69D-03 OVMax= 1.56D-02

 Cycle   5  Pass 0  IDiag  1:
 E= -1199.91126001037     Delta-E=       -0.003255570925 Rises=F Damp=F
 DIIS: error= 2.24D-04 at cycle   5 NSaved=   5.
 NSaved= 5 IEnMin= 5 EnMin= -1199.91126001037     IErMin= 5 ErrMin= 2.24D-04
 ErrMax= 2.24D-04  0.00D+00 EMaxC= 1.00D-01 BMatC= 8.05D-05 BMatP= 5.11D-03
 IDIUse=3 WtCom= 9.98D-01 WtEn= 2.24D-03
 Coeff-Com: -0.882D-02 0.133D-01 0.119D+00 0.171D+00 0.705D+00
 Coeff-En:   0.000D+00 0.000D+00 0.000D+00 0.000D+00 0.100D+01
 Coeff:     -0.880D-02 0.132D-01 0.119D+00 0.171D+00 0.706D+00
 Gap=     0.389 Goal=   None    Shift=    0.000
 RMSDP=1.71D-05 MaxDP=1.18D-03 DE=-3.26D-03 OVMax= 2.54D-03

 Cycle   6  Pass 0  IDiag  1:
 E= -1199.91130529462     Delta-E=       -0.000045284244 Rises=F Damp=F
 DIIS: error= 1.25D-04 at cycle   6 NSaved=   6.
 NSaved= 6 IEnMin= 6 EnMin= -1199.91130529462     IErMin= 6 ErrMin= 1.25D-04
 ErrMax= 1.25D-04  0.00D+00 EMaxC= 1.00D-01 BMatC= 1.85D-05 BMatP= 8.05D-05
 IDIUse=3 WtCom= 9.99D-01 WtEn= 1.25D-03
 Coeff-Com: -0.132D-02-0.330D-04 0.164D-01 0.427D-01 0.371D+00 0.571D+00
 Coeff-En:   0.000D+00 0.000D+00 0.000D+00 0.000D+00 0.104D+00 0.896D+00
 Coeff:     -0.132D-02-0.330D-04 0.164D-01 0.427D-01 0.371D+00 0.571D+00
 Gap=     0.388 Goal=   None    Shift=    0.000
 RMSDP=6.17D-06 MaxDP=3.48D-04 DE=-4.53D-05 OVMax= 7.90D-04

 Initial convergence to 1.0D-05 achieved.  Increase integral accuracy.
 Cycle   7  Pass 1  IDiag  1:
 E= -1199.91131250185     Delta-E=       -0.000007207233 Rises=F Damp=F
 DIIS: error= 3.08D-05 at cycle   1 NSaved=   1.
 NSaved= 1 IEnMin= 1 EnMin= -1199.91131250185     IErMin= 1 ErrMin= 3.08D-05
 ErrMax= 3.08D-05  0.00D+00 EMaxC= 1.00D-01 BMatC= 1.22D-06 BMatP= 1.22D-06
 IDIUse=1 WtCom= 1.00D+00 WtEn= 0.00D+00
 Coeff-Com:  0.100D+01
 Coeff:      0.100D+01
 Gap=     0.388 Goal=   None    Shift=    0.000
 RMSDP=6.17D-06 MaxDP=3.48D-04 DE=-7.21D-06 OVMax= 2.59D-04

 Cycle   8  Pass 1  IDiag  1:
 E= -1199.91131315459     Delta-E=       -0.000000652738 Rises=F Damp=F
 DIIS: error= 2.73D-05 at cycle   2 NSaved=   2.
 NSaved= 2 IEnMin= 2 EnMin= -1199.91131315459     IErMin= 2 ErrMin= 2.73D-05
 ErrMax= 2.73D-05  0.00D+00 EMaxC= 1.00D-01 BMatC= 5.82D-07 BMatP= 1.22D-06
 IDIUse=1 WtCom= 1.00D+00 WtEn= 0.00D+00
 Coeff-Com:  0.375D+00 0.625D+00
 Coeff:      0.375D+00 0.625D+00
 Gap=     0.388 Goal=   None    Shift=    0.000
 RMSDP=1.63D-06 MaxDP=5.85D-05 DE=-6.53D-07 OVMax= 1.94D-04

 Cycle   9  Pass 1  IDiag  1:
 E= -1199.91131344736     Delta-E=       -0.000000292771 Rises=F Damp=F
 DIIS: error= 1.08D-05 at cycle   3 NSaved=   3.
 NSaved= 3 IEnMin= 3 EnMin= -1199.91131344736     IErMin= 3 ErrMin= 1.08D-05
 ErrMax= 1.08D-05  0.00D+00 EMaxC= 1.00D-01 BMatC= 1.49D-07 BMatP= 5.82D-07
 IDIUse=1 WtCom= 1.00D+00 WtEn= 0.00D+00
 Coeff-Com: -0.224D-01 0.324D+00 0.698D+00
 Coeff:     -0.224D-01 0.324D+00 0.698D+00
 Gap=     0.388 Goal=   None    Shift=    0.000
 RMSDP=7.50D-07 MaxDP=4.03D-05 DE=-2.93D-07 OVMax= 8.15D-05

 Cycle  10  Pass 1  IDiag  1:
 E= -1199.91131354172     Delta-E=       -0.000000094354 Rises=F Damp=F
 DIIS: error= 3.17D-06 at cycle   4 NSaved=   4.
 NSaved= 4 IEnMin= 4 EnMin= -1199.91131354172     IErMin= 4 ErrMin= 3.17D-06
 ErrMax= 3.17D-06  0.00D+00 EMaxC= 1.00D-01 BMatC= 1.23D-08 BMatP= 1.49D-07
 IDIUse=1 WtCom= 1.00D+00 WtEn= 0.00D+00
 Coeff-Com: -0.318D-01 0.138D+00 0.355D+00 0.539D+00
 Coeff:     -0.318D-01 0.138D+00 0.355D+00 0.539D+00
 Gap=     0.388 Goal=   None    Shift=    0.000
 RMSDP=1.99D-07 MaxDP=9.85D-06 DE=-9.44D-08 OVMax= 2.93D-05

 Cycle  11  Pass 1  IDiag  1:
 E= -1199.91131355021     Delta-E=       -0.000000008497 Rises=F Damp=F
 DIIS: error= 1.14D-06 at cycle   5 NSaved=   5.
 NSaved= 5 IEnMin= 5 EnMin= -1199.91131355021     IErMin= 5 ErrMin= 1.14D-06
 ErrMax= 1.14D-06  0.00D+00 EMaxC= 1.00D-01 BMatC= 9.82D-10 BMatP= 1.23D-08
 IDIUse=1 WtCom= 1.00D+00 WtEn= 0.00D+00
 Coeff-Com: -0.761D-02-0.120D-01-0.137D-01 0.190D+00 0.843D+00
 Coeff:     -0.761D-02-0.120D-01-0.137D-01 0.190D+00 0.843D+00
 Gap=     0.388 Goal=   None    Shift=    0.000
 RMSDP=9.26D-08 MaxDP=3.89D-06 DE=-8.50D-09 OVMax= 1.15D-05

 Cycle  12  Pass 1  IDiag  1:
 E= -1199.91131355124     Delta-E=       -0.000000001024 Rises=F Damp=F
 DIIS: error= 3.47D-07 at cycle   6 NSaved=   6.
 NSaved= 6 IEnMin= 6 EnMin= -1199.91131355124     IErMin= 6 ErrMin= 3.47D-07
 ErrMax= 3.47D-07  0.00D+00 EMaxC= 1.00D-01 BMatC= 6.32D-11 BMatP= 9.82D-10
 IDIUse=1 WtCom= 1.00D+00 WtEn= 0.00D+00
 Coeff-Com:  0.144D-02-0.174D-01-0.409D-01-0.883D-02 0.215D+00 0.851D+00
 Coeff:      0.144D-02-0.174D-01-0.409D-01-0.883D-02 0.215D+00 0.851D+00
 Gap=     0.388 Goal=   None    Shift=    0.000
 RMSDP=3.10D-08 MaxDP=1.23D-06 DE=-1.02D-09 OVMax= 4.85D-06

 Cycle  13  Pass 1  IDiag  1:
 E= -1199.91131355128     Delta-E=       -0.000000000048 Rises=F Damp=F
 DIIS: error= 2.26D-07 at cycle   7 NSaved=   7.
 NSaved= 7 IEnMin= 7 EnMin= -1199.91131355128     IErMin= 7 ErrMin= 2.26D-07
 ErrMax= 2.26D-07  0.00D+00 EMaxC= 1.00D-01 BMatC= 2.46D-11 BMatP= 6.32D-11
 IDIUse=1 WtCom= 1.00D+00 WtEn= 0.00D+00
 Coeff-Com:  0.142D-02-0.837D-02-0.210D-01-0.198D-01 0.475D-01 0.461D+00
 Coeff-Com:  0.539D+00
 Coeff:      0.142D-02-0.837D-02-0.210D-01-0.198D-01 0.475D-01 0.461D+00
 Coeff:      0.539D+00
 Gap=     0.388 Goal=   None    Shift=    0.000
 RMSDP=9.49D-09 MaxDP=5.58D-07 DE=-4.77D-11 OVMax= 1.37D-06

 SCF Done:  E(RM062X) =  -1199.91131355     A.U. after   13 cycles
            NFock= 13  Conv=0.95D-08     -V/T= 2.0031
 KE= 1.196149331570D+03 PE=-4.614614487647D+03 EE= 1.334365108880D+03
 Leave Link  502 at Sat May 24 06:26:03 2025, MaxMem=  3758096384 cpu:             117.7 elap:              31.1
 (Enter /apps/easybuild-2022/easybuild/software/Compiler/NVHPC/22.11-CUDA-11.7.0/Gaussian/g16c01-CUDA-11.7.0/g16/l508.exe)
 QCSCF skips out because SCF is already converged.
 Leave Link  508 at Sat May 24 06:26:04 2025, MaxMem=  3758096384 cpu:               0.0 elap:               0.0
 (Enter /apps/easybuild-2022/easybuild/software/Compiler/NVHPC/22.11-CUDA-11.7.0/Gaussian/g16c01-CUDA-11.7.0/g16/l801.exe)
 DoSCS=F DFT=T ScalE2(SS,OS)=  1.000000  1.000000
 Range of M.O.s used for correlation:     1   366
 NBasis=   366 NAE=    49 NBE=    49 NFC=     0 NFV=     0
 NROrb=    366 NOA=    49 NOB=    49 NVA=   317 NVB=   317

 **** Warning!!: The largest alpha MO coefficient is  0.15952045D+02

 Leave Link  801 at Sat May 24 06:26:04 2025, MaxMem=  3758096384 cpu:               0.0 elap:               0.0
 (Enter /apps/easybuild-2022/easybuild/software/Compiler/NVHPC/22.11-CUDA-11.7.0/Gaussian/g16c01-CUDA-11.7.0/g16/l1101.exe)
 Using compressed storage, NAtomX=    12.
 Will process     13 centers per pass.
   1 Symmetry operations used in ECPInt.
 ECPInt:  NShTT=    8515 NPrTT=   27988 LenC2=    7871 LenP2D=   19038.
 LDataN:  DoStor=T MaxTD1= 7 Len=  274
 Leave Link 1101 at Sat May 24 06:26:04 2025, MaxMem=  3758096384 cpu:               0.8 elap:               0.2
 (Enter /apps/easybuild-2022/easybuild/software/Compiler/NVHPC/22.11-CUDA-11.7.0/Gaussian/g16c01-CUDA-11.7.0/g16/l1102.exe)
 Symmetrizing basis deriv contribution to polar:
 IMax=3 JMax=2 DiffMx= 0.00D+00
 Leave Link 1102 at Sat May 24 06:26:04 2025, MaxMem=  3758096384 cpu:               0.0 elap:               0.0
 (Enter /apps/easybuild-2022/easybuild/software/Compiler/NVHPC/22.11-CUDA-11.7.0/Gaussian/g16c01-CUDA-11.7.0/g16/l1110.exe)
 Forming Gx(P) for the SCF density, NAtomX=    12.
 Integral derivatives from FoFJK, PRISM(SPDF).
 Do as many integral derivatives as possible in FoFJK.
 G2DrvN: MDV=    3758095012.
 G2DrvN: will do    13 centers at a time, making    1 passes.
 Calling FoFCou, ICntrl=  3107 FMM=F I1Cent=   0 AccDes= 0.00D+00.
 FoFJK:  IHMeth= 1 ICntrl=    3107 DoSepK=F KAlg= 0 I1Cent=           0 FoldK=F
 IRaf=         0 NMat=       1 IRICut=       1 DoRegI=T DoRafI=F ISym2E= 0 IDoP0=0 IntGTp=1.
 FoFCou: FMM=F IPFlag=           0 FMFlag=      100000 FMFlg1=           0
         NFxFlg=           0 DoJE=F BraDBF=F KetDBF=F FulRan=T
         wScrn=  0.000000 ICntrl=      3107 IOpCl=  0 I1Cent=           0 NGrid=           0
         NMat0=    1 NMatS0=      1 NMatT0=    0 NMatD0=    1 NMtDS0=    0 NMtDT0=    0
 Symmetry not used in FoFCou.
 End of G2Drv F.D. properties file   721 does not exist.
 End of G2Drv F.D. properties file   722 does not exist.
 End of G2Drv F.D. properties file   788 does not exist.
 Leave Link 1110 at Sat May 24 06:26:49 2025, MaxMem=  3758096384 cpu:             355.0 elap:              44.7
 (Enter /apps/easybuild-2022/easybuild/software/Compiler/NVHPC/22.11-CUDA-11.7.0/Gaussian/g16c01-CUDA-11.7.0/g16/l1002.exe)
 Minotr:  Closed shell wavefunction.
          IDoAtm=111111111111
          Direct CPHF calculation.
          Differentiating once with respect to nuclear coordinates.
          Requested convergence is 1.0D-08 RMS, and 1.0D-07 maximum.
          Secondary convergence is 1.0D-12 RMS, and 1.0D-12 maximum.
          NewPWx=T KeepS1=F KeepF1=F KeepIn=T MapXYZ=F SortEE=F KeepMc=T.
         3598 words used for storage of precomputed grid.
 Keep R1 ints in memory in canonical form, NReq=2293452904.
 FoFCou: FMM=F IPFlag=           0 FMFlag=           0 FMFlg1=           0
         NFxFlg=           0 DoJE=F BraDBF=F KetDBF=F FulRan=T
         wScrn=  0.000000 ICntrl=       600 IOpCl=  0 I1Cent=           0 NGrid=           0
         NMat0=    1 NMatS0=  67161 NMatT0=    0 NMatD0=    1 NMtDS0=    0 NMtDT0=    0
 Symmetry not used in FoFCou.
 Two-electron integral symmetry not used.
          MDV=    3758096384 using IRadAn=       1.
          Solving linear equations simultaneously, MaxMat=       0.
          There are    39 degrees of freedom in the 1st order CPHF.  IDoFFX=6 NUNeed=     0.
     33 vectors produced by pass  0 Test12= 3.98D-14 2.56D-09 XBig12= 2.07D-01 9.48D-02.
 AX will form    33 AO Fock derivatives at one time.
     33 vectors produced by pass  1 Test12= 3.98D-14 2.56D-09 XBig12= 1.17D-01 9.21D-02.
     33 vectors produced by pass  2 Test12= 3.98D-14 2.56D-09 XBig12= 6.09D-03 1.31D-02.
     33 vectors produced by pass  3 Test12= 3.98D-14 2.56D-09 XBig12= 1.43D-04 2.02D-03.
     33 vectors produced by pass  4 Test12= 3.98D-14 2.56D-09 XBig12= 2.27D-06 2.19D-04.
     33 vectors produced by pass  5 Test12= 3.98D-14 2.56D-09 XBig12= 2.59D-08 2.69D-05.
     33 vectors produced by pass  6 Test12= 3.98D-14 2.56D-09 XBig12= 1.72D-10 1.59D-06.
     18 vectors produced by pass  7 Test12= 3.98D-14 2.56D-09 XBig12= 1.03D-12 1.12D-07.
      6 vectors produced by pass  8 Test12= 3.98D-14 2.56D-09 XBig12= 6.67D-15 1.24D-08.
 InvSVY:  IOpt=1 It=  1 EMax= 1.11D-15
 Solved reduced A of dimension   255 with    33 vectors.
 End of Minotr F.D. properties file   721 does not exist.
 End of Minotr F.D. properties file   722 does not exist.
 End of Minotr F.D. properties file   788 does not exist.
 Leave Link 1002 at Sat May 24 06:28:08 2025, MaxMem=  3758096384 cpu:             628.7 elap:              79.9
 (Enter /apps/easybuild-2022/easybuild/software/Compiler/NVHPC/22.11-CUDA-11.7.0/Gaussian/g16c01-CUDA-11.7.0/g16/l701.exe)
 ... and contract with generalized density number  0.
 Compute integral second derivatives.
   1 Symmetry operations used in ECPInt.
 ECPInt:  NShTT=    8515 NPrTT=   27988 LenC2=    7871 LenP2D=   19038.
 LDataN:  DoStor=T MaxTD1= 8 Len=  415
 Leave Link  701 at Sat May 24 06:28:09 2025, MaxMem=  3758096384 cpu:               0.8 elap:               0.1
 (Enter /apps/easybuild-2022/easybuild/software/Compiler/NVHPC/22.11-CUDA-11.7.0/Gaussian/g16c01-CUDA-11.7.0/g16/l702.exe)
 L702 exits ... SP integral derivatives will be done elsewhere.
 Leave Link  702 at Sat May 24 06:28:09 2025, MaxMem=  3758096384 cpu:               0.0 elap:               0.0
 (Enter /apps/easybuild-2022/easybuild/software/Compiler/NVHPC/22.11-CUDA-11.7.0/Gaussian/g16c01-CUDA-11.7.0/g16/l703.exe)
 Integral derivatives from FoFJK, PRISM(SPDF).
 Compute integral second derivatives, UseDBF=F ICtDFT=           0.
 Calling FoFJK, ICntrl=    100127 FMM=F ISym2X=0 I1Cent= 0 IOpClX= 0 NMat=1 NMatS=1 NMatT=0.
 FoFJK:  IHMeth= 1 ICntrl=  100127 DoSepK=F KAlg= 0 I1Cent=           0 FoldK=F
 IRaf=         0 NMat=       1 IRICut=       1 DoRegI=T DoRafI=F ISym2E= 0 IDoP0=0 IntGTp=1.
 FoFCou: FMM=F IPFlag=           0 FMFlag=      100000 FMFlg1=         800
         NFxFlg=           0 DoJE=F BraDBF=F KetDBF=F FulRan=T
         wScrn=  0.000000 ICntrl=    100127 IOpCl=  0 I1Cent=           0 NGrid=           0
         NMat0=    1 NMatS0=      1 NMatT0=    0 NMatD0=    1 NMtDS0=    0 NMtDT0=    0
 Symmetry not used in FoFCou.
 Leave Link  703 at Sat May 24 06:29:48 2025, MaxMem=  3758096384 cpu:             786.2 elap:              98.9
 (Enter /apps/easybuild-2022/easybuild/software/Compiler/NVHPC/22.11-CUDA-11.7.0/Gaussian/g16c01-CUDA-11.7.0/g16/l716.exe)
 Dipole        = 2.82492582D-01-2.71530414D-01 1.03101845D+00
 Polarizability= 0.00000000D+00 0.00000000D+00 0.00000000D+00
                 0.00000000D+00 0.00000000D+00 0.00000000D+00
 -------------------------------------------------------------------
 Center     Atomic                   Forces (Hartrees/Bohr)
 Number     Number              X              Y              Z
 -------------------------------------------------------------------
      1        6          -0.000882079    0.000131707    0.003182305
      2        6          -0.006835471   -0.000973136    0.004756879
      3        9          -0.004117970    0.003112851    0.015190691
      4        9          -0.002186451   -0.001281935   -0.001009634
      5       16           0.027747303   -0.002080853   -0.044408697
      6        8          -0.023806473    0.004114270    0.021958254
      7        8           0.007641571   -0.001592870   -0.001985449
      8        8           0.008294354   -0.005516602   -0.004552248
      9        9          -0.001247502    0.001695284   -0.000151917
     10        9          -0.000289767   -0.000886339    0.000703408
     11        9          -0.000525068    0.003286673    0.001295237
     12        1          -0.003792449   -0.000009051    0.005021172
 -------------------------------------------------------------------
 Cartesian Forces:  Max     0.044408697 RMS     0.011057021
 Force constants in Cartesian coordinates: 
                1             2             3             4             5 
      1  0.602175D+00
      2 -0.239625D-01  0.629577D+00
      3  0.126525D-01  0.497661D-02  0.587258D+00
      4 -0.672624D-01  0.665822D-01 -0.129331D-01  0.562501D+00
      5  0.646533D-01 -0.184902D+00  0.271107D-01 -0.203952D-01  0.567971D+00
      6 -0.135380D-01  0.213417D-01 -0.377490D-01  0.228827D-02 -0.215349D-01
      7 -0.234215D-02 -0.121004D-02  0.481440D-02 -0.108460D+00 -0.438641D-01
      8 -0.272150D-01 -0.106390D-01  0.341751D-01 -0.346003D-01 -0.137972D+00
      9  0.222996D-01  0.110479D-01 -0.250928D-01  0.575875D-01  0.898001D-01
     10 -0.430096D-01 -0.156635D-01 -0.137038D-01 -0.266331D+00  0.405843D-02
     11  0.216782D-01  0.896764D-02  0.541674D-02 -0.893379D-02 -0.816378D-01
     12 -0.162395D-01 -0.626473D-02 -0.361943D-02 -0.712939D-01 -0.458373D-03
     13 -0.187293D-03  0.123833D-01 -0.326006D-02  0.230022D-01  0.361438D-01
     14  0.601156D-02  0.227580D-02 -0.138525D-01  0.198666D-01 -0.617796D-02
     15  0.637963D-02 -0.144174D-01  0.837699D-02 -0.923296D-03 -0.192000D-01
     16  0.441304D-02 -0.177138D-02  0.139589D-01 -0.961106D-01 -0.718695D-02
     17 -0.507073D-02 -0.888387D-02 -0.340223D-01 -0.306018D-02 -0.148410D+00
     18 -0.576375D-02  0.435941D-02 -0.287818D-01  0.163029D-01 -0.789072D-01
     19 -0.380480D-03 -0.367064D-02  0.273938D-03 -0.740336D-02 -0.113726D-01
     20 -0.234798D-02 -0.300297D-02  0.396586D-02 -0.581774D-02 -0.631173D-02
     21 -0.162997D-02  0.185651D-02 -0.859008D-03 -0.472826D-02  0.515535D-03
     22  0.184161D-03 -0.173801D-02  0.769212D-03 -0.583333D-02 -0.244176D-02
     23 -0.269754D-02  0.927796D-03  0.251709D-02  0.107596D-02  0.467957D-02
     24 -0.175483D-02  0.257904D-02 -0.254340D-02  0.606182D-02  0.181817D-02
     25 -0.312511D+00  0.174506D-01 -0.474889D-01 -0.376931D-01 -0.202218D-01
     26  0.448952D-02 -0.872538D-01  0.103060D-02  0.223815D-01  0.121823D-01
     27 -0.441097D-01  0.448691D-02 -0.847908D-01 -0.937350D-02 -0.483207D-02
     28 -0.102014D+00 -0.367314D-01  0.606328D-01  0.135217D-02  0.199043D-02
     29 -0.309046D-01 -0.142357D+00  0.843312D-01 -0.236365D-01 -0.790892D-02
     30  0.539797D-01  0.944554D-01 -0.208403D+00  0.213093D-01  0.211869D-02
     31 -0.797312D-01 -0.111273D-01 -0.162802D-01  0.290102D-02  0.373359D-02
     32 -0.508507D-02 -0.205285D+00 -0.114447D+00 -0.116279D-01 -0.119265D-01
     33 -0.126870D-01 -0.125680D+00 -0.201732D+00 -0.615891D-02 -0.505204D-02
     34  0.666050D-03 -0.541420D-03  0.564260D-03 -0.662139D-03 -0.509717D-02
     35  0.450905D-03  0.575442D-03 -0.120201D-02 -0.183467D-02  0.413379D-03
     36  0.411278D-03  0.125901D-02 -0.206373D-02  0.186111D-02  0.862146D-02
                6             7             8             9            10 
      6  0.525493D+00
      7  0.587393D-01  0.161135D+00
      8  0.742759D-01  0.748528D-01  0.140606D+00
      9 -0.174064D+00 -0.116153D+00 -0.107296D+00  0.242789D+00
     10 -0.671415D-01 -0.612882D-01 -0.277751D-01  0.192654D-01  0.383995D+00
     11 -0.459314D-02 -0.367557D-01  0.191995D-02  0.304928D-02  0.493152D-01
     12 -0.984084D-01  0.344743D-01  0.738986D-02  0.118451D-01  0.993451D-01
     13  0.404274D-01  0.431718D-02 -0.316858D-02 -0.172628D-01 -0.171990D-01
     14 -0.524406D-02 -0.213925D-02 -0.798131D-03  0.489939D-02 -0.406428D-02
     15 -0.552722D-01 -0.374827D-02 -0.707516D-03  0.108188D-01  0.756048D-02
     16 -0.538056D-03  0.255345D-05  0.916289D-02  0.327184D-01 -0.615064D-02
     17 -0.680354D-01  0.466560D-02  0.184020D-01 -0.878776D-02 -0.247123D-01
     18 -0.134616D+00  0.239072D-01 -0.132860D-01 -0.659890D-01 -0.425893D-01
     19 -0.155911D-01 -0.165666D-03  0.126945D-02  0.412268D-02  0.587577D-02
     20 -0.611755D-02  0.275694D-03  0.118576D-02  0.112989D-02  0.312613D-02
     21  0.562115D-02  0.705684D-03  0.419595D-03 -0.715180D-03  0.270081D-02
     22 -0.640277D-02 -0.360127D-03  0.159701D-03  0.191567D-02  0.255400D-02
     23  0.792327D-02  0.125268D-02  0.236797D-03 -0.355697D-02 -0.123693D-03
     24  0.996084D-02  0.607668D-03  0.965935D-04 -0.190105D-02 -0.151539D-02
     25 -0.584117D-02  0.540877D-02  0.387986D-02 -0.250500D-02 -0.735891D-02
     26  0.546388D-02  0.119472D-02 -0.360970D-03 -0.470519D-03  0.817371D-02
     27  0.133643D-03 -0.166805D-02 -0.613099D-03  0.194125D-02 -0.232134D-02
     28  0.253111D-02  0.149606D-02  0.128950D-02 -0.197714D-02  0.464442D-02
     29  0.354483D-01  0.104232D-02 -0.115643D-01  0.680916D-02  0.468791D-02
     30 -0.284212D-01 -0.183314D-02  0.855761D-02 -0.254712D-02 -0.278040D-02
     31  0.613977D-02  0.109690D-02  0.151616D-02 -0.218710D-02  0.342994D-02
     32 -0.396282D-01  0.540811D-03 -0.919991D-03  0.339861D-02  0.273161D-02
     33 -0.154079D-01 -0.654323D-03 -0.179299D-02  0.585022D-02  0.213722D-02
     34 -0.107322D-02 -0.839704D-03  0.628660D-03  0.217567D-02  0.838019D-03
     35  0.700253D-03  0.144415D-03 -0.964211D-04 -0.231639D-04  0.245937D-03
     36  0.272936D-02  0.808175D-03 -0.121925D-02 -0.293549D-02 -0.957229D-03
               11            12            13            14            15 
     11  0.787626D-01
     12  0.197491D-01  0.115124D+00
     13 -0.623435D-02 -0.721857D-02  0.767542D+00
     14 -0.490416D-03  0.156014D-02  0.165984D+00  0.117308D+01
     15  0.481875D-02  0.760332D-02  0.238242D+00  0.182148D+00  0.377796D+00
     16 -0.320661D-01 -0.425469D-01 -0.327465D-01 -0.187431D-01 -0.251283D-01
     17 -0.429365D-02 -0.260973D-01 -0.327123D-01 -0.458216D-01  0.128368D-01
     18 -0.316930D-01 -0.344067D-01 -0.458113D-01  0.351127D-02 -0.183532D-01
     19  0.197340D-02  0.263014D-02 -0.492216D+00 -0.310843D+00 -0.124904D+00
     20  0.151374D-02  0.554282D-03 -0.291030D+00 -0.319554D+00 -0.810037D-01
     21 -0.137302D-03 -0.230345D-02 -0.114254D+00 -0.768147D-01 -0.107913D+00
     22  0.589072D-03  0.857924D-03 -0.956946D-01  0.761484D-01  0.312203D-02
     23 -0.179565D-03 -0.136332D-02  0.581715D-01 -0.703757D+00 -0.156306D+00
     24 -0.478975D-03 -0.935402D-03  0.143046D-02 -0.163331D+00 -0.119503D+00
     25  0.820496D-02 -0.281355D-02  0.154289D-03 -0.302667D-02 -0.336812D-02
     26 -0.474276D-02  0.294049D-02 -0.239789D-02 -0.398022D-03  0.306458D-02
     27  0.219414D-02 -0.753505D-04  0.161944D-03  0.872085D-03 -0.140145D-02
     28 -0.241502D-03  0.958394D-05 -0.240770D-02 -0.392305D-02  0.965736D-04
     29 -0.730663D-04 -0.530609D-03 -0.426543D-02 -0.227199D-02  0.521969D-02
     30  0.724403D-03  0.214076D-02  0.234843D-02  0.661211D-02 -0.503063D-02
     31  0.189483D-02  0.249065D-02  0.372368D-03 -0.232682D-03 -0.139607D-02
     32  0.477881D-03  0.276371D-02 -0.686429D-02 -0.969499D-03  0.734420D-02
     33  0.160871D-02  0.341917D-02 -0.269026D-02  0.211607D-02  0.163962D-02
     34  0.575782D-03  0.304763D-03 -0.154936D+00  0.749620D-01 -0.959332D-01
     35 -0.224586D-03 -0.243303D-03  0.739906D-01 -0.951130D-01  0.562028D-01
     36 -0.658690D-03 -0.383963D-03 -0.921136D-01  0.575238D-01 -0.987614D-01
               16            17            18            19            20 
     16  0.129642D+00
     17  0.391755D-01  0.193517D+00
     18  0.576273D-02  0.136939D+00  0.287642D+00
     19 -0.590386D-02 -0.765644D-03  0.115364D-01  0.493329D+00
     20  0.138283D-02  0.878533D-02  0.242072D-02  0.326749D+00  0.316474D+00
     21  0.162614D-01  0.663790D-02  0.646928D-02  0.114648D+00  0.918890D-01
     22  0.375524D-02  0.110810D-01  0.147617D-01  0.132175D-01 -0.398672D-01
     23 -0.515849D-02 -0.165905D-02 -0.760275D-02  0.105485D-01 -0.105888D-01
     24  0.169752D-02 -0.176021D-01 -0.877085D-02  0.761154D-02 -0.112401D-01
     25  0.224979D-02  0.534764D-02  0.413561D-02  0.253688D-03  0.104480D-02
     26  0.101497D-02 -0.153943D-02 -0.252810D-02  0.736160D-03  0.624177D-03
     27  0.445174D-03  0.305990D-02  0.421645D-02  0.124893D-03 -0.270325D-03
     28  0.175798D-02  0.801346D-03 -0.222172D-02  0.197063D-03  0.215830D-02
     29  0.300990D-02 -0.236701D-02 -0.296099D-02  0.158813D-02  0.111806D-02
     30 -0.415979D-02  0.771166D-03  0.120092D-01 -0.276646D-03 -0.252702D-02
     31 -0.625361D-03  0.293465D-02  0.256993D-02 -0.709682D-05  0.132084D-03
     32  0.771271D-02 -0.131527D-01 -0.992877D-02  0.199969D-02  0.973531D-03
     33  0.239057D-02 -0.375982D-02 -0.762869D-04  0.965250D-03 -0.391012D-03
     34 -0.283645D-03  0.231545D-02  0.174096D-01 -0.679670D-02  0.419428D-02
     35  0.346724D-02  0.542331D-02 -0.323875D-03 -0.182121D-01  0.878289D-02
     36 -0.861659D-03 -0.194042D-02 -0.193430D-01 -0.114100D-02  0.158996D-02
               21            22            23            24            25 
     21  0.751349D-01
     22 -0.671975D-02  0.728678D-01
     23 -0.128470D-01 -0.624909D-01  0.721935D+00
     24  0.165155D-01 -0.139823D-01  0.183686D+00  0.955169D-01
     25  0.915857D-03  0.652365D-04  0.117086D-02  0.691662D-03  0.435849D+00
     26 -0.452463D-03  0.293043D-03 -0.148971D-03 -0.461265D-03  0.384863D-01
     27  0.290570D-03  0.294082D-04 -0.165903D-03  0.323471D-03  0.612833D-01
     28  0.615995D-03  0.383855D-03  0.110504D-02  0.326148D-04 -0.585545D-01
     29 -0.864462D-03  0.645607D-03 -0.142688D-03 -0.102913D-02 -0.238344D-01
     30  0.682498D-03 -0.210253D-03 -0.148997D-02  0.106461D-02  0.318095D-01
     31  0.277783D-03 -0.912292D-04  0.300153D-03  0.365352D-03 -0.274455D-01
     32 -0.645145D-03  0.121524D-02 -0.872339D-03 -0.166193D-02 -0.284200D-01
     33 -0.253990D-04  0.544393D-03 -0.994272D-03 -0.373729D-03 -0.368488D-01
     34 -0.879330D-02  0.895152D-02 -0.315407D-02 -0.124614D-02 -0.417882D-03
     35 -0.955748D-02  0.164058D-01 -0.104306D-01  0.762504D-02 -0.821595D-04
     36  0.710203D-02  0.531474D-02 -0.980017D-02  0.106458D-01  0.295630D-04
               26            27            28            29            30 
     26  0.777369D-01
     27  0.822454D-02  0.937983D-01
     28 -0.336531D-01  0.450155D-01  0.142834D+00
     29  0.601370D-02  0.837164D-02  0.633853D-01  0.138920D+00
     30  0.771917D-02  0.451230D-02 -0.119425D+00 -0.112676D+00  0.302860D+00
     31 -0.408202D-01 -0.493323D-01  0.104979D-01  0.811017D-02  0.193938D-01
     32 -0.195473D-02 -0.214895D-01  0.394509D-02  0.210189D-01 -0.493786D-02
     33 -0.242380D-01 -0.192448D-01  0.150257D-01 -0.216718D-01 -0.800932D-01
     34  0.101143D-03 -0.255333D-03 -0.187752D-03  0.171662D-03 -0.155468D-03
     35 -0.158388D-03  0.161661D-03 -0.126014D-03 -0.385763D-03  0.672793D-03
     36 -0.292934D-03  0.296399D-03 -0.336037D-03 -0.446492D-03  0.122611D-02
               31            32            33            34            35 
     31  0.897114D-01
     32  0.335620D-01  0.212621D+00
     33  0.379328D-01  0.179550D+00  0.305734D+00
     34 -0.109167D-03  0.290119D-03  0.432655D-04  0.153778D+00
     35 -0.350175D-05 -0.107679D-04  0.305936D-03 -0.744464D-01  0.912246D-01
     36  0.255807D-04 -0.317574D-03  0.310297D-03  0.869591D-01 -0.543187D-01
               36 
     36  0.101178D+00
 FormGI is forming the generalized inverse of G from B-inverse, IUseBI=4.
 Leave Link  716 at Sat May 24 06:29:48 2025, MaxMem=  3758096384 cpu:               0.0 elap:               0.0
 (Enter /apps/easybuild-2022/easybuild/software/Compiler/NVHPC/22.11-CUDA-11.7.0/Gaussian/g16c01-CUDA-11.7.0/g16/l103.exe)

 GradGradGradGradGradGradGradGradGradGradGradGradGradGradGradGradGradGrad
 Berny optimization.
 Red2BG is reusing G-inverse.
 Internal  Forces:  Max     0.060818489 RMS     0.011521674
 Search for a local minimum.
 Step number   1 out of a maximum of   55
 All quantities printed in internal units (Hartrees-Bohrs-Radians)
 RMS Force = .11522D-01 SwitMx=.10000D-02 MixMth= 1
 Mixed Optimization -- RFO/linear search
 Second derivative matrix not updated -- analytic derivatives used.
 ITU=  0
     Eigenvalues ---   -0.00065   0.00328   0.00559   0.02744   0.07783
     Eigenvalues ---    0.10180   0.10454   0.10702   0.11066   0.11460
     Eigenvalues ---    0.17365   0.18602   0.19105   0.20636   0.22021
     Eigenvalues ---    0.22543   0.24237   0.25137   0.26748   0.27300
     Eigenvalues ---    0.33346   0.36661   0.36883   0.38818   0.41111
     Eigenvalues ---    0.41760   0.51758   0.58175   0.77705   0.78059
 Eigenvalue     1 is  -6.54D-04 should be greater than     0.000000 Eigenvector:
                          D13       D15       D14       D12       D11
   1                   -0.54994  -0.53006  -0.51772   0.21127   0.21113
                          D10       A15       A14       D7        D8
   1                    0.20871   0.06668  -0.04489  -0.03729  -0.03443
 RFO step:  Lambda=-5.06540629D-02 EMin=-6.54325116D-04
 Linear search not attempted -- first point.
 Maximum step size (   0.300) exceeded in Quadratic search.
    -- Step size scaled by   0.376
 Iteration  1 RMS(Cart)=  0.10497789 RMS(Int)=  0.01215547
 Iteration  2 RMS(Cart)=  0.01745419 RMS(Int)=  0.00012888
 Iteration  3 RMS(Cart)=  0.00003424 RMS(Int)=  0.00012537
 Iteration  4 RMS(Cart)=  0.00000000 RMS(Int)=  0.00012537
 ITry= 1 IFail=0 DXMaxC= 3.09D-01 DCOld= 1.00D+10 DXMaxT= 3.00D-01 DXLimC= 3.00D+00 Rises=F
 Variable       Old X    -DE/DX   Delta X   Delta X   Delta X     New X
                                 (Linear)    (Quad)   (Total)
    R1        2.93366  -0.00419   0.00000  -0.00337  -0.00337   2.93030
    R2        2.50476  -0.00110   0.00000  -0.00259  -0.00259   2.50217
    R3        2.52508   0.00105   0.00000   0.00201   0.00201   2.52710
    R4        2.50165  -0.00297   0.00000  -0.00559  -0.00559   2.49606
    R5        2.54638  -0.01226   0.00000  -0.01870  -0.01870   2.52768
    R6        2.52690   0.00257   0.00000  -0.00902  -0.00902   2.51788
    R7        2.59108  -0.02231   0.00000   0.00848   0.00848   2.59956
    R8        3.58317  -0.06082   0.00000  -0.27016  -0.27016   3.31301
    R9        2.66612  -0.00466   0.00000   0.00021   0.00021   2.66634
   R10        2.66563  -0.00736   0.00000  -0.00174  -0.00174   2.66389
   R11        2.53600  -0.00010   0.00000  -0.00206  -0.00206   2.53394
    A1        1.93731  -0.00273   0.00000  -0.00533  -0.00534   1.93197
    A2        1.89011   0.00198   0.00000   0.00127   0.00127   1.89138
    A3        1.95161  -0.00316   0.00000  -0.00423  -0.00424   1.94738
    A4        1.88873   0.00069   0.00000   0.00022   0.00022   1.88895
    A5        1.89875   0.00258   0.00000   0.00565   0.00564   1.90439
    A6        1.89588   0.00081   0.00000   0.00267   0.00267   1.89856
    A7        1.86060   0.00883   0.00000   0.01436   0.01421   1.87481
    A8        1.88145  -0.00055   0.00000   0.00647   0.00640   1.88785
    A9        1.95717  -0.00336   0.00000  -0.00419  -0.00421   1.95296
   A10        1.87341   0.00096   0.00000   0.00953   0.00940   1.88281
   A11        1.95024  -0.00969   0.00000  -0.03148  -0.03145   1.91878
   A12        1.93665   0.00436   0.00000   0.00723   0.00725   1.94390
   A13        1.94641  -0.00745   0.00000  -0.01258  -0.01287   1.93354
   A14        1.84515  -0.01223   0.00000  -0.02425  -0.02449   1.82065
   A15        1.49610   0.01399   0.00000   0.10303   0.10290   1.59900
   A16        2.14115   0.01084   0.00000   0.00539   0.00499   2.14614
   A17        1.96840  -0.00319   0.00000  -0.02182  -0.02216   1.94624
   A18        1.95403  -0.00296   0.00000  -0.01937  -0.01937   1.93466
   A19        2.22654  -0.02523   0.00000  -0.03750  -0.03750   2.18904
    D1        0.97818  -0.00475   0.00000  -0.02618  -0.02625   0.95194
    D2        2.98503   0.00045   0.00000  -0.00501  -0.00496   2.98007
    D3       -1.16138   0.00340   0.00000   0.00582   0.00585  -1.15553
    D4        3.04917  -0.00428   0.00000  -0.02826  -0.02833   3.02084
    D5       -1.22718   0.00092   0.00000  -0.00709  -0.00704  -1.23421
    D6        0.90960   0.00386   0.00000   0.00374   0.00377   0.91337
    D7       -1.14571  -0.00392   0.00000  -0.02671  -0.02678  -1.17248
    D8        0.86114   0.00128   0.00000  -0.00553  -0.00549   0.85564
    D9        2.99791   0.00422   0.00000   0.00530   0.00531   3.00323
   D10       -1.45982   0.00116   0.00000   0.07187   0.07197  -1.38785
   D11        2.73547  -0.00111   0.00000   0.07824   0.07812   2.81360
   D12        0.64529   0.00121   0.00000   0.08233   0.08235   0.72764
   D13       -0.12892  -0.00087   0.00000  -0.20526  -0.20526  -0.33418
   D14       -2.49481   0.00096   0.00000  -0.18177  -0.18208  -2.67689
   D15        1.84021   0.00060   0.00000  -0.18903  -0.18872   1.65149
         Item               Value     Threshold  Converged?
 Maximum Force            0.060818     0.000450     NO 
 RMS     Force            0.011522     0.000300     NO 
 Maximum Displacement     0.309350     0.001800     NO 
 RMS     Displacement     0.115225     0.001200     NO 
 Predicted change in Energy=-1.886205D-02
 Lowest energy point so far.  Saving SCF results.
 GradGradGradGradGradGradGradGradGradGradGradGradGradGradGradGradGradGrad

 Leave Link  103 at Sat May 24 06:29:48 2025, MaxMem=  3758096384 cpu:               0.0 elap:               0.0
 (Enter /apps/easybuild-2022/easybuild/software/Compiler/NVHPC/22.11-CUDA-11.7.0/Gaussian/g16c01-CUDA-11.7.0/g16/l202.exe)
                          Input orientation:                          
 ---------------------------------------------------------------------
 Center     Atomic      Atomic             Coordinates (Angstroms)
 Number     Number       Type             X           Y           Z
 ---------------------------------------------------------------------
      1          6           0        0.906122   -1.142957   -0.595306
      2          6           0        0.216259    0.211884   -0.900254
      3          9           0        0.880327    0.780433   -1.912636
      4          9           0       -1.025193   -0.038051   -1.314532
      5         16           0       -0.881126    0.949887    1.551839
      6          8           0        0.221545    1.047653    0.192367
      7          8           0       -2.033047    0.210268    1.209988
      8          8           0       -0.935527    2.266750    2.051919
      9          9           0        2.199354   -0.969339   -0.370292
     10          9           0        0.354740   -1.657447    0.509051
     11          9           0        0.751124   -2.001113   -1.587383
     12          1           0       -0.011054    0.208708    2.253018
 ---------------------------------------------------------------------
                    Distance matrix (angstroms):
                    1          2          3          4          5
     1  C    0.000000
     2  C    1.550645   0.000000
     3  F    2.331407   1.337592   0.000000
     4  F    2.338393   1.332403   2.158391   0.000000
     5  S    3.490628   2.785975   3.890246   3.035269   0.000000
     6  O    2.426489   1.375630   2.221809   2.236929   1.753170
     7  O    3.705269   3.084234   4.308552   2.729584   1.410965
     8  O    4.693141   3.776825   4.606968   4.080826   1.409669
     9  F    1.324093   2.368294   2.679620   3.486630   4.106991
    10  F    1.337282   2.345147   3.476214   2.802162   3.068055
    11  F    1.320860   2.378147   2.803477   2.661458   4.607315
    12  H    3.283468   3.161456   4.298152   3.717093   1.340904
                    6          7          8          9         10
     6  O    0.000000
     7  O    2.611504   0.000000
     8  O    2.506580   2.478410   0.000000
     9  F    2.880377   4.669259   5.115355   0.000000
    10  F    2.726829   3.111462   4.409597   2.156232   0.000000
    11  F    3.569725   4.524057   5.856958   2.154817   2.161078
    12  H    2.237011   2.275164   2.265089   3.627045   2.580264
                   11         12
    11  F    0.000000
    12  H    4.495876   0.000000
 Symmetry turned off by external request.
 Stoichiometry    C2HF5O3S
 Rotational constants (GHZ):           1.7459040           0.6826697           0.6489788
 Leave Link  202 at Sat May 24 06:29:48 2025, MaxMem=  3758096384 cpu:               0.0 elap:               0.0
 (Enter /apps/easybuild-2022/easybuild/software/Compiler/NVHPC/22.11-CUDA-11.7.0/Gaussian/g16c01-CUDA-11.7.0/g16/l301.exe)
 Standard basis: def2TZVPP (5D, 7F)
 Ernie: Thresh=  0.10000D-02 Tol=  0.10000D-05 Strict=F.
   366 basis functions,   596 primitive gaussians,   423 cartesian basis functions
    49 alpha electrons       49 beta electrons
       nuclear repulsion energy       900.0064620174 Hartrees.
 IExCor= 4336 DFT=T Ex+Corr=M062X ExCW=0 ScaHFX=  0.540000
 ScaDFX=  1.000000  1.000000  1.000000  1.000000 ScalE2=  1.000000  1.000000
 IRadAn=      5 IRanWt=     -1 IRanGd=            0 ICorTp=0 IEmpDi=  4
 NAtoms=   12 NActive=   12 NUniq=   12 SFac= 1.00D+00 NAtFMM=   60 NAOKFM=F Big=F
 Integral buffers will be    131072 words long.
 Raffenetti 2 integral format.
 Two-electron integral symmetry is turned off.
 Leave Link  301 at Sat May 24 06:29:48 2025, MaxMem=  3758096384 cpu:               0.0 elap:               0.0
 (Enter /apps/easybuild-2022/easybuild/software/Compiler/NVHPC/22.11-CUDA-11.7.0/Gaussian/g16c01-CUDA-11.7.0/g16/l302.exe)
 NPDir=0 NMtPBC=     1 NCelOv=     1 NCel=       1 NClECP=     1 NCelD=      1
         NCelK=      1 NCelE2=     1 NClLst=     1 CellRange=     0.0.
 One-electron integrals computed using PRISM.
   1 Symmetry operations used in ECPInt.
 ECPInt:  NShTT=    8515 NPrTT=   27988 LenC2=    7924 LenP2D=   19238.
 LDataN:  DoStor=T MaxTD1= 6 Len=  172
 NBasis=   366 RedAO= T EigKep=  5.10D-04  NBF=   366
 NBsUse=   366 1.00D-06 EigRej= -1.00D+00 NBFU=   366
 Precomputing XC quadrature grid using
 IXCGrd= 4 IRadAn=           5 IRanWt=          -1 IRanGd=           0 AccXCQ= 0.00D+00.
 Generated NRdTot=       0 NPtTot=           0 NUsed=           0 NTot=          32
 NSgBfM=   418   418   418   418   418 MxSgAt=    12 MxSgA2=    12.
 Leave Link  302 at Sat May 24 06:29:48 2025, MaxMem=  3758096384 cpu:               0.5 elap:               0.1
 (Enter /apps/easybuild-2022/easybuild/software/Compiler/NVHPC/22.11-CUDA-11.7.0/Gaussian/g16c01-CUDA-11.7.0/g16/l303.exe)
 DipDrv:  MaxL=1.
 Leave Link  303 at Sat May 24 06:29:48 2025, MaxMem=  3758096384 cpu:               0.1 elap:               0.0
 (Enter /apps/easybuild-2022/easybuild/software/Compiler/NVHPC/22.11-CUDA-11.7.0/Gaussian/g16c01-CUDA-11.7.0/g16/l401.exe)
 Initial guess from the checkpoint file:  "2003846667223680600001_intra_H_migration_suprafacial_6_12_IRC_R_prod.chk"
 B after Tr=     0.014136    0.015441    0.000333
         Rot=    0.999975    0.005845   -0.002955   -0.002660 Ang=   0.81 deg.
 Guess basis will be translated and rotated to current coordinates.
 JPrj=2 DoOrth=T DoCkMO=T.
 Generating alternative initial guess.
 ExpMin= 9.52D-02 ExpMax= 6.07D+04 ExpMxC= 2.07D+03 IAcc=3 IRadAn=         5 AccDes= 0.00D+00
 Harris functional with IExCor= 1009 and IRadAn=       5 diagonalized for initial guess.
 HarFok:  IExCor= 1009 AccDes= 0.00D+00 IRadAn=         5 IDoV= 1 UseB2=F ITyADJ=14
 ICtDFT=  3500011 ScaDFX=  1.000000  1.000000  1.000000  1.000000
 FoFCou: FMM=F IPFlag=           0 FMFlag=      100000 FMFlg1=           0
         NFxFlg=           0 DoJE=T BraDBF=F KetDBF=T FulRan=T
         wScrn=  0.000000 ICntrl=       500 IOpCl=  0 I1Cent=   200000004 NGrid=           0
         NMat0=    1 NMatS0=      1 NMatT0=    0 NMatD0=    1 NMtDS0=    0 NMtDT0=    0
 Symmetry not used in FoFCou.
 Harris En= -1199.32488500436    
 Leave Link  401 at Sat May 24 06:29:49 2025, MaxMem=  3758096384 cpu:               3.3 elap:               0.5
 (Enter /apps/easybuild-2022/easybuild/software/Compiler/NVHPC/22.11-CUDA-11.7.0/Gaussian/g16c01-CUDA-11.7.0/g16/l502.exe)
 Keep R1 ints in memory in canonical form, NReq=2293446996.
 FoFCou: FMM=F IPFlag=           0 FMFlag=           0 FMFlg1=           0
         NFxFlg=           0 DoJE=F BraDBF=F KetDBF=F FulRan=T
         wScrn=  0.000000 ICntrl=       600 IOpCl=  0 I1Cent=           0 NGrid=           0
         NMat0=    1 NMatS0=  67161 NMatT0=    0 NMatD0=    1 NMtDS0=    0 NMtDT0=    0
 Symmetry not used in FoFCou.
 Two-electron integral symmetry not used.
 Closed shell SCF:
 Using DIIS extrapolation, IDIIS=  1040.
 NGot=  3758096384 LenX=  1502398672 LenY=  1502219302
 Requested convergence on RMS density matrix=1.00D-08 within  32 cycles.
 Requested convergence on MAX density matrix=1.00D-06.
 Requested convergence on             energy=1.00D-06.
 No special actions if energy rises.
 Integral accuracy reduced to 1.0D-05 until final iterations.

 Cycle   1  Pass 0  IDiag  1:
 E= -1199.89930474828    
 DIIS: error= 9.52D-03 at cycle   1 NSaved=   1.
 NSaved= 1 IEnMin= 1 EnMin= -1199.89930474828     IErMin= 1 ErrMin= 9.52D-03
 ErrMax= 9.52D-03  0.00D+00 EMaxC= 1.00D-01 BMatC= 2.71D-02 BMatP= 2.71D-02
 IDIUse=3 WtCom= 9.05D-01 WtEn= 9.52D-02
 Coeff-Com:  0.100D+01
 Coeff-En:   0.100D+01
 Coeff:      0.100D+01
 Gap=     1.053 Goal=   None    Shift=    0.000
 GapD=    1.053 DampG=2.000 DampE=1.000 DampFc=2.0000 IDamp=-1.
 RMSDP=4.21D-04 MaxDP=1.34D-02              OVMax= 4.16D-02

 Cycle   2  Pass 0  IDiag  1:
 E= -1199.92716095499     Delta-E=       -0.027856206711 Rises=F Damp=F
 DIIS: error= 1.10D-03 at cycle   2 NSaved=   2.
 NSaved= 2 IEnMin= 2 EnMin= -1199.92716095499     IErMin= 2 ErrMin= 1.10D-03
 ErrMax= 1.10D-03  0.00D+00 EMaxC= 1.00D-01 BMatC= 1.44D-03 BMatP= 2.71D-02
 IDIUse=3 WtCom= 9.89D-01 WtEn= 1.10D-02
 Coeff-Com: -0.261D-01 0.103D+01
 Coeff-En:   0.000D+00 0.100D+01
 Coeff:     -0.259D-01 0.103D+01
 Gap=     0.451 Goal=   None    Shift=    0.000
 RMSDP=1.40D-04 MaxDP=1.25D-02 DE=-2.79D-02 OVMax= 1.38D-02

 Cycle   3  Pass 0  IDiag  1:
 E= -1199.92755544954     Delta-E=       -0.000394494554 Rises=F Damp=F
 DIIS: error= 2.04D-03 at cycle   3 NSaved=   3.
 NSaved= 3 IEnMin= 3 EnMin= -1199.92755544954     IErMin= 2 ErrMin= 1.10D-03
 ErrMax= 2.04D-03  0.00D+00 EMaxC= 1.00D-01 BMatC= 2.15D-03 BMatP= 1.44D-03
 IDIUse=3 WtCom= 1.81D-01 WtEn= 8.19D-01
 Coeff-Com: -0.706D-01 0.603D+00 0.468D+00
 Coeff-En:   0.000D+00 0.403D+00 0.597D+00
 Coeff:     -0.128D-01 0.439D+00 0.574D+00
 Gap=     0.448 Goal=   None    Shift=    0.000
 RMSDP=9.12D-05 MaxDP=8.33D-03 DE=-3.94D-04 OVMax= 9.86D-03

 Cycle   4  Pass 0  IDiag  1:
 E= -1199.92871810456     Delta-E=       -0.001162655011 Rises=F Damp=F
 DIIS: error= 9.56D-04 at cycle   4 NSaved=   4.
 NSaved= 4 IEnMin= 4 EnMin= -1199.92871810456     IErMin= 4 ErrMin= 9.56D-04
 ErrMax= 9.56D-04  0.00D+00 EMaxC= 1.00D-01 BMatC= 4.39D-04 BMatP= 1.44D-03
 IDIUse=3 WtCom= 9.90D-01 WtEn= 9.56D-03
 Coeff-Com: -0.880D-02-0.502D-01 0.309D+00 0.750D+00
 Coeff-En:   0.000D+00 0.000D+00 0.175D+00 0.825D+00
 Coeff:     -0.872D-02-0.498D-01 0.308D+00 0.750D+00
 Gap=     0.447 Goal=   None    Shift=    0.000
 RMSDP=3.19D-05 MaxDP=2.29D-03 DE=-1.16D-03 OVMax= 4.10D-03

 Cycle   5  Pass 0  IDiag  1:
 E= -1199.92902712831     Delta-E=       -0.000309023753 Rises=F Damp=F
 DIIS: error= 7.84D-05 at cycle   5 NSaved=   5.
 NSaved= 5 IEnMin= 5 EnMin= -1199.92902712831     IErMin= 5 ErrMin= 7.84D-05
 ErrMax= 7.84D-05  0.00D+00 EMaxC= 1.00D-01 BMatC= 4.60D-06 BMatP= 4.39D-04
 IDIUse=1 WtCom= 1.00D+00 WtEn= 0.00D+00
 Coeff-Com:  0.100D-02-0.571D-01 0.841D-01 0.285D+00 0.687D+00
 Coeff:      0.100D-02-0.571D-01 0.841D-01 0.285D+00 0.687D+00
 Gap=     0.447 Goal=   None    Shift=    0.000
 RMSDP=5.56D-06 MaxDP=4.06D-04 DE=-3.09D-04 OVMax= 4.49D-04

 Initial convergence to 1.0D-05 achieved.  Increase integral accuracy.
 Cycle   6  Pass 1  IDiag  1:
 E= -1199.92906230458     Delta-E=       -0.000035176271 Rises=F Damp=F
 DIIS: error= 2.53D-05 at cycle   1 NSaved=   1.
 NSaved= 1 IEnMin= 1 EnMin= -1199.92906230458     IErMin= 1 ErrMin= 2.53D-05
 ErrMax= 2.53D-05  0.00D+00 EMaxC= 1.00D-01 BMatC= 1.29D-06 BMatP= 1.29D-06
 IDIUse=1 WtCom= 1.00D+00 WtEn= 0.00D+00
 Coeff-Com:  0.100D+01
 Coeff:      0.100D+01
 Gap=     0.447 Goal=   None    Shift=    0.000
 RMSDP=5.56D-06 MaxDP=4.06D-04 DE=-3.52D-05 OVMax= 3.39D-04

 Cycle   7  Pass 1  IDiag  1:
 E= -1199.92906282203     Delta-E=       -0.000000517452 Rises=F Damp=F
 DIIS: error= 3.10D-05 at cycle   2 NSaved=   2.
 NSaved= 2 IEnMin= 2 EnMin= -1199.92906282203     IErMin= 1 ErrMin= 2.53D-05
 ErrMax= 3.10D-05  0.00D+00 EMaxC= 1.00D-01 BMatC= 8.38D-07 BMatP= 1.29D-06
 IDIUse=1 WtCom= 1.00D+00 WtEn= 0.00D+00
 Coeff-Com:  0.430D+00 0.570D+00
 Coeff:      0.430D+00 0.570D+00
 Gap=     0.447 Goal=   None    Shift=    0.000
 RMSDP=1.79D-06 MaxDP=1.09D-04 DE=-5.17D-07 OVMax= 2.17D-04

 Cycle   8  Pass 1  IDiag  1:
 E= -1199.92906329390     Delta-E=       -0.000000471865 Rises=F Damp=F
 DIIS: error= 1.69D-05 at cycle   3 NSaved=   3.
 NSaved= 3 IEnMin= 3 EnMin= -1199.92906329390     IErMin= 3 ErrMin= 1.69D-05
 ErrMax= 1.69D-05  0.00D+00 EMaxC= 1.00D-01 BMatC= 1.34D-07 BMatP= 8.38D-07
 IDIUse=1 WtCom= 1.00D+00 WtEn= 0.00D+00
 Coeff-Com: -0.215D-01 0.271D+00 0.751D+00
 Coeff:     -0.215D-01 0.271D+00 0.751D+00
 Gap=     0.447 Goal=   None    Shift=    0.000
 RMSDP=7.29D-07 MaxDP=3.53D-05 DE=-4.72D-07 OVMax= 9.87D-05

 Cycle   9  Pass 1  IDiag  1:
 E= -1199.92906338131     Delta-E=       -0.000000087410 Rises=F Damp=F
 DIIS: error= 4.80D-06 at cycle   4 NSaved=   4.
 NSaved= 4 IEnMin= 4 EnMin= -1199.92906338131     IErMin= 4 ErrMin= 4.80D-06
 ErrMax= 4.80D-06  0.00D+00 EMaxC= 1.00D-01 BMatC= 1.35D-08 BMatP= 1.34D-07
 IDIUse=1 WtCom= 1.00D+00 WtEn= 0.00D+00
 Coeff-Com: -0.329D-01 0.112D+00 0.391D+00 0.530D+00
 Coeff:     -0.329D-01 0.112D+00 0.391D+00 0.530D+00
 Gap=     0.447 Goal=   None    Shift=    0.000
 RMSDP=2.03D-07 MaxDP=1.08D-05 DE=-8.74D-08 OVMax= 2.73D-05

 Cycle  10  Pass 1  IDiag  1:
 E= -1199.92906339113     Delta-E=       -0.000000009825 Rises=F Damp=F
 DIIS: error= 1.28D-06 at cycle   5 NSaved=   5.
 NSaved= 5 IEnMin= 5 EnMin= -1199.92906339113     IErMin= 5 ErrMin= 1.28D-06
 ErrMax= 1.28D-06  0.00D+00 EMaxC= 1.00D-01 BMatC= 7.16D-10 BMatP= 1.35D-08
 IDIUse=1 WtCom= 1.00D+00 WtEn= 0.00D+00
 Coeff-Com: -0.584D-02-0.652D-02 0.640D-02 0.158D+00 0.848D+00
 Coeff:     -0.584D-02-0.652D-02 0.640D-02 0.158D+00 0.848D+00
 Gap=     0.447 Goal=   None    Shift=    0.000
 RMSDP=7.70D-08 MaxDP=4.47D-06 DE=-9.82D-09 OVMax= 1.10D-05

 Cycle  11  Pass 1  IDiag  1:
 E= -1199.92906339176     Delta-E=       -0.000000000626 Rises=F Damp=F
 DIIS: error= 3.87D-07 at cycle   6 NSaved=   6.
 NSaved= 6 IEnMin= 6 EnMin= -1199.92906339176     IErMin= 6 ErrMin= 3.87D-07
 ErrMax= 3.87D-07  0.00D+00 EMaxC= 1.00D-01 BMatC= 1.43D-10 BMatP= 7.16D-10
 IDIUse=1 WtCom= 1.00D+00 WtEn= 0.00D+00
 Coeff-Com:  0.216D-02-0.195D-01-0.545D-01-0.971D-02 0.360D+00 0.721D+00
 Coeff:      0.216D-02-0.195D-01-0.545D-01-0.971D-02 0.360D+00 0.721D+00
 Gap=     0.447 Goal=   None    Shift=    0.000
 RMSDP=3.25D-08 MaxDP=1.47D-06 DE=-6.26D-10 OVMax= 4.06D-06

 Cycle  12  Pass 1  IDiag  1:
 E= -1199.92906339193     Delta-E=       -0.000000000174 Rises=F Damp=F
 DIIS: error= 1.07D-07 at cycle   7 NSaved=   7.
 NSaved= 7 IEnMin= 7 EnMin= -1199.92906339193     IErMin= 7 ErrMin= 1.07D-07
 ErrMax= 1.07D-07  0.00D+00 EMaxC= 1.00D-01 BMatC= 8.73D-12 BMatP= 1.43D-10
 IDIUse=1 WtCom= 1.00D+00 WtEn= 0.00D+00
 Coeff-Com:  0.108D-02-0.555D-02-0.177D-01-0.177D-01 0.375D-01 0.220D+00
 Coeff-Com:  0.782D+00
 Coeff:      0.108D-02-0.555D-02-0.177D-01-0.177D-01 0.375D-01 0.220D+00
 Coeff:      0.782D+00
 Gap=     0.447 Goal=   None    Shift=    0.000
 RMSDP=8.79D-09 MaxDP=4.68D-07 DE=-1.74D-10 OVMax= 1.21D-06

 SCF Done:  E(RM062X) =  -1199.92906339     A.U. after   12 cycles
            NFock= 12  Conv=0.88D-08     -V/T= 2.0030
 KE= 1.196300748632D+03 PE=-4.645942440315D+03 EE= 1.349706166273D+03
 Leave Link  502 at Sat May 24 06:30:18 2025, MaxMem=  3758096384 cpu:             113.3 elap:              29.7
 (Enter /apps/easybuild-2022/easybuild/software/Compiler/NVHPC/22.11-CUDA-11.7.0/Gaussian/g16c01-CUDA-11.7.0/g16/l508.exe)
 QCSCF skips out because SCF is already converged.
 Leave Link  508 at Sat May 24 06:30:18 2025, MaxMem=  3758096384 cpu:               0.0 elap:               0.0
 (Enter /apps/easybuild-2022/easybuild/software/Compiler/NVHPC/22.11-CUDA-11.7.0/Gaussian/g16c01-CUDA-11.7.0/g16/l701.exe)
 ... and contract with generalized density number  0.
 Compute integral first derivatives.
   1 Symmetry operations used in ECPInt.
 ECPInt:  NShTT=    8515 NPrTT=   27988 LenC2=    7924 LenP2D=   19238.
 LDataN:  DoStor=T MaxTD1= 7 Len=  274
 Leave Link  701 at Sat May 24 06:30:18 2025, MaxMem=  3758096384 cpu:               0.4 elap:               0.1
 (Enter /apps/easybuild-2022/easybuild/software/Compiler/NVHPC/22.11-CUDA-11.7.0/Gaussian/g16c01-CUDA-11.7.0/g16/l702.exe)
 L702 exits ... SP integral derivatives will be done elsewhere.
 Leave Link  702 at Sat May 24 06:30:18 2025, MaxMem=  3758096384 cpu:               0.0 elap:               0.0
 (Enter /apps/easybuild-2022/easybuild/software/Compiler/NVHPC/22.11-CUDA-11.7.0/Gaussian/g16c01-CUDA-11.7.0/g16/l703.exe)
 Integral derivatives from FoFJK, PRISM(SPDF).
 Compute integral first derivatives, UseDBF=F ICtDFT=           0.
 Calling FoFJK, ICntrl=      2127 FMM=F ISym2X=0 I1Cent= 0 IOpClX= 0 NMat=1 NMatS=1 NMatT=0.
 FoFJK:  IHMeth= 1 ICntrl=    2127 DoSepK=F KAlg= 0 I1Cent=           0 FoldK=F
 IRaf=         0 NMat=       1 IRICut=       1 DoRegI=T DoRafI=F ISym2E= 0 IDoP0=0 IntGTp=1.
 FoFCou: FMM=F IPFlag=           0 FMFlag=      100000 FMFlg1=         800
         NFxFlg=           0 DoJE=F BraDBF=F KetDBF=F FulRan=T
         wScrn=  0.000000 ICntrl=      2127 IOpCl=  0 I1Cent=           0 NGrid=           0
         NMat0=    1 NMatS0=      1 NMatT0=    0 NMatD0=    1 NMtDS0=    0 NMtDT0=    0
 Symmetry not used in FoFCou.
 Leave Link  703 at Sat May 24 06:30:28 2025, MaxMem=  3758096384 cpu:              78.6 elap:              10.0
 (Enter /apps/easybuild-2022/easybuild/software/Compiler/NVHPC/22.11-CUDA-11.7.0/Gaussian/g16c01-CUDA-11.7.0/g16/l716.exe)
 Dipole        = 5.13782642D-01-4.84173227D-01 6.00119946D-01
 -------------------------------------------------------------------
 Center     Atomic                   Forces (Hartrees/Bohr)
 Number     Number              X              Y              Z
 -------------------------------------------------------------------
      1        6          -0.000395215   -0.000270617    0.002941469
      2        6          -0.004908246   -0.003606994    0.000401781
      3        9          -0.002185469    0.002773857    0.010738627
      4        9          -0.000468403   -0.000616489   -0.001240310
      5       16           0.022028429    0.001273972   -0.032370775
      6        8          -0.018198807    0.002318130    0.017191307
      7        8           0.004225004   -0.001612455   -0.000219216
      8        8           0.004511221   -0.002827053   -0.001859670
      9        9          -0.000915958    0.001213396   -0.000224710
     10        9          -0.000015429   -0.000671486    0.000070085
     11        9          -0.000381162    0.002521457    0.000703905
     12        1          -0.003295967   -0.000495718    0.003867508
 -------------------------------------------------------------------
 Cartesian Forces:  Max     0.032370775 RMS     0.008217710
 Leave Link  716 at Sat May 24 06:30:28 2025, MaxMem=  3758096384 cpu:               0.0 elap:               0.0
 (Enter /apps/easybuild-2022/easybuild/software/Compiler/NVHPC/22.11-CUDA-11.7.0/Gaussian/g16c01-CUDA-11.7.0/g16/l103.exe)

 GradGradGradGradGradGradGradGradGradGradGradGradGradGradGradGradGradGrad
 Berny optimization.
 Using GEDIIS/GDIIS optimizer.
 FormGI is forming the generalized inverse of G from B-inverse, IUseBI=4.
 Internal  Forces:  Max     0.040785642 RMS     0.007294931
 Search for a local minimum.
 Step number   2 out of a maximum of   55
 All quantities printed in internal units (Hartrees-Bohrs-Radians)
 RMS Force = .72949D-02 SwitMx=.10000D-02 MixMth= 1
 Mixed Optimization -- RFO/linear search
 Update second derivatives using D2CorX and points    1    2
 DE= -1.77D-02 DEPred=-1.89D-02 R= 9.41D-01
 TightC=F SS=  1.41D+00  RLast= 4.69D-01 DXNew= 5.0454D-01 1.4072D+00
 Trust test= 9.41D-01 RLast= 4.69D-01 DXMaxT set to 5.05D-01
 ITU=  1  0
 Use linear search instead of GDIIS.
     Eigenvalues ---   -0.00075   0.00328   0.00559   0.04381   0.07764
     Eigenvalues ---    0.10180   0.10449   0.10715   0.11063   0.13711
     Eigenvalues ---    0.17145   0.18568   0.19054   0.20631   0.22023
     Eigenvalues ---    0.22486   0.24206   0.25105   0.26740   0.27317
     Eigenvalues ---    0.34119   0.36480   0.36759   0.38776   0.41119
     Eigenvalues ---    0.41688   0.51511   0.58146   0.77679   0.78056
 Eigenvalue     1 is  -7.50D-04 should be greater than     0.000000 Eigenvector:
                          D13       D15       D14       D11       D12
   1                   -0.55125  -0.53125  -0.52195   0.20733   0.20648
                          D10       A15       A14       D8        D7
   1                    0.20576   0.05415  -0.04349  -0.03565  -0.03528
 RFO step:  Lambda=-1.51243805D-02 EMin=-7.49534299D-04
 Quartic linear search produced a step of  0.87853.
 Iteration  1 RMS(Cart)=  0.12365565 RMS(Int)=  0.06521881
 Iteration  2 RMS(Cart)=  0.11547142 RMS(Int)=  0.01612290
 Iteration  3 RMS(Cart)=  0.02304701 RMS(Int)=  0.00057356
 Iteration  4 RMS(Cart)=  0.00005436 RMS(Int)=  0.00057195
 Iteration  5 RMS(Cart)=  0.00000004 RMS(Int)=  0.00057195
 ITry= 1 IFail=0 DXMaxC= 6.11D-01 DCOld= 1.00D+10 DXMaxT= 5.05D-01 DXLimC= 3.00D+00 Rises=F
 Variable       Old X    -DE/DX   Delta X   Delta X   Delta X     New X
                                 (Linear)    (Quad)   (Total)
    R1        2.93030  -0.00251  -0.00296  -0.00469  -0.00765   2.92265
    R2        2.50217  -0.00077  -0.00227   0.00267   0.00040   2.50257
    R3        2.52710   0.00032   0.00177  -0.02372  -0.02195   2.50515
    R4        2.49606  -0.00212  -0.00491   0.00175  -0.00316   2.49290
    R5        2.52768  -0.00803  -0.01643  -0.01448  -0.03091   2.49678
    R6        2.51788   0.00094  -0.00793  -0.01243  -0.02036   2.49752
    R7        2.59956  -0.01142   0.00745   0.01416   0.02161   2.62117
    R8        3.31301  -0.04079  -0.23735  -0.24377  -0.48111   2.83190
    R9        2.66634  -0.00255   0.00019   0.00384   0.00403   2.67037
   R10        2.66389  -0.00348  -0.00153   0.00307   0.00154   2.66543
   R11        2.53394   0.00016  -0.00181  -0.00060  -0.00241   2.53153
    A1        1.93197  -0.00204  -0.00469  -0.01405  -0.01901   1.91296
    A2        1.89138   0.00184   0.00111   0.02005   0.02131   1.91268
    A3        1.94738  -0.00261  -0.00372  -0.02561  -0.02955   1.91783
    A4        1.88895   0.00049   0.00019   0.01047   0.01076   1.89971
    A5        1.90439   0.00190   0.00495   0.00145   0.00578   1.91017
    A6        1.89856   0.00055   0.00235   0.00926   0.01180   1.91036
    A7        1.87481   0.00590   0.01248   0.01192   0.02332   1.89814
    A8        1.88785  -0.00034   0.00562   0.01688   0.02204   1.90989
    A9        1.95296  -0.00188  -0.00370  -0.00822  -0.01213   1.94083
   A10        1.88281   0.00064   0.00826   0.00989   0.01746   1.90027
   A11        1.91878  -0.00774  -0.02763  -0.04269  -0.07026   1.84852
   A12        1.94390   0.00370   0.00637   0.01362   0.02006   1.96396
   A13        1.93354  -0.00275  -0.01131   0.00574  -0.00642   1.92712
   A14        1.82065  -0.00594  -0.02152   0.04932   0.02679   1.84745
   A15        1.59900   0.01069   0.09040   0.00945   0.09875   1.69775
   A16        2.14614   0.00562   0.00439  -0.00791  -0.00446   2.14169
   A17        1.94624  -0.00373  -0.01946  -0.02653  -0.04715   1.89909
   A18        1.93466  -0.00277  -0.01702  -0.01723  -0.03609   1.89858
   A19        2.18904  -0.00938  -0.03294   0.10825   0.07531   2.26435
    D1        0.95194  -0.00377  -0.02306  -0.00055  -0.02376   0.92818
    D2        2.98007  -0.00014  -0.00436   0.02586   0.02195   3.00201
    D3       -1.15553   0.00307   0.00514   0.04935   0.05478  -1.10075
    D4        3.02084  -0.00325  -0.02488   0.01624  -0.00896   3.01188
    D5       -1.23421   0.00039  -0.00618   0.04265   0.03674  -1.19747
    D6        0.91337   0.00359   0.00331   0.06615   0.06958   0.98295
    D7       -1.17248  -0.00297  -0.02352   0.02504   0.00095  -1.17153
    D8        0.85564   0.00067  -0.00482   0.05145   0.04666   0.90230
    D9        3.00323   0.00387   0.00467   0.07495   0.07949   3.08272
   D10       -1.38785   0.00098   0.06322  -0.17317  -0.10929  -1.49714
   D11        2.81360  -0.00007   0.06863  -0.15451  -0.08673   2.72686
   D12        0.72764   0.00185   0.07235  -0.14760  -0.07505   0.65259
   D13       -0.33418   0.00017  -0.18033   0.56892   0.38827   0.05409
   D14       -2.67689  -0.00047  -0.15996   0.53660   0.37765  -2.29924
   D15        1.65149   0.00014  -0.16580   0.54523   0.37875   2.03024
         Item               Value     Threshold  Converged?
 Maximum Force            0.040786     0.000450     NO 
 RMS     Force            0.007295     0.000300     NO 
 Maximum Displacement     0.610717     0.001800     NO 
 RMS     Displacement     0.215116     0.001200     NO 
 Predicted change in Energy=-1.451816D-02
 Lowest energy point so far.  Saving SCF results.
 GradGradGradGradGradGradGradGradGradGradGradGradGradGradGradGradGradGrad

 Leave Link  103 at Sat May 24 06:30:28 2025, MaxMem=  3758096384 cpu:               0.0 elap:               0.0
 (Enter /apps/easybuild-2022/easybuild/software/Compiler/NVHPC/22.11-CUDA-11.7.0/Gaussian/g16c01-CUDA-11.7.0/g16/l202.exe)
                          Input orientation:                          
 ---------------------------------------------------------------------
 Center     Atomic      Atomic             Coordinates (Angstroms)
 Number     Number       Type             X           Y           Z
 ---------------------------------------------------------------------
      1          6           0        0.844030   -1.186584   -0.621826
      2          6           0        0.184369    0.196169   -0.833513
      3          9           0        0.901912    0.879878   -1.707208
      4          9           0       -1.034893    0.032275   -1.316469
      5         16           0       -0.775048    0.952216    1.476293
      6          8           0        0.196952    0.942234    0.335748
      7          8           0       -1.785838   -0.013701    1.270993
      8          8           0       -1.058835    2.310598    1.728742
      9          9           0        2.119477   -1.026372   -0.303481
     10          9           0        0.232717   -1.823980    0.366819
     11          9           0        0.753687   -1.900752   -1.727295
     12          1           0        0.064994    0.504695    2.418977
 ---------------------------------------------------------------------
                    Distance matrix (angstroms):
                    1          2          3          4          5
     1  C    0.000000
     2  C    1.546599   0.000000
     3  F    2.334881   1.321238   0.000000
     4  F    2.344888   1.321631   2.149959   0.000000
     5  S    3.405581   2.612909   3.598904   2.951835   0.000000
     6  O    2.422298   1.387063   2.162065   2.252840   1.498575
     7  O    3.445958   2.890451   4.110008   2.694623   1.413096
     8  O    4.623457   3.547044   4.206809   3.803240   1.410485
     9  F    1.324303   2.349507   2.662086   3.478064   3.932007
    10  F    1.325668   2.350348   3.472788   2.808198   3.154962
    11  F    1.319188   2.349478   2.784650   2.665406   4.554057
    12  H    3.565642   3.269271   4.226890   3.922561   1.339626
                    6          7          8          9         10
     6  O    0.000000
     7  O    2.391642   0.000000
     8  O    2.321606   2.477990   0.000000
     9  F    2.824912   4.330815   5.036563   0.000000
    10  F    2.766620   2.858182   4.540669   2.155306   0.000000
    11  F    3.556497   4.358885   5.741506   2.158048   2.159309
    12  H    2.132767   2.238790   2.236225   3.738562   3.108409
                   11         12
    11  F    0.000000
[...]
    D4        3.10695  -0.00001   0.00000   0.00044   0.00044   3.10739
    D5       -1.10991   0.00001   0.00000   0.00049   0.00049  -1.10942
    D6        1.07143  -0.00001   0.00000   0.00041   0.00041   1.07184
    D7       -1.07765  -0.00000   0.00000   0.00043   0.00043  -1.07722
    D8        0.98868   0.00001   0.00000   0.00048   0.00048   0.98916
    D9       -3.11316  -0.00001   0.00000   0.00040   0.00040  -3.11276
   D10       -1.21332   0.00001   0.00000   0.00086   0.00086  -1.21247
   D11        3.01335   0.00000   0.00000   0.00082   0.00082   3.01417
   D12        0.93788   0.00000   0.00000   0.00084   0.00084   0.93872
   D13       -0.55658  -0.00003   0.00000  -0.00107  -0.00107  -0.55765
   D14       -2.89735   0.00001   0.00000  -0.00091  -0.00091  -2.89826
   D15        1.42976   0.00001   0.00000  -0.00089  -0.00089   1.42887
         Item               Value     Threshold  Converged?
 Maximum Force            0.000116     0.000450     YES
 RMS     Force            0.000025     0.000300     YES
 Maximum Displacement     0.001479     0.001800     YES
 RMS     Displacement     0.000509     0.001200     YES
 Predicted change in Energy=-5.592442D-08
 Optimization completed.
    -- Stationary point found.
                           ----------------------------
                           !   Optimized Parameters   !
                           ! (Angstroms and Degrees)  !
 --------------------------                            --------------------------
 ! Name  Definition              Value          Derivative Info.                !
 --------------------------------------------------------------------------------
 ! R1    R(1,2)                  1.5472         -DE/DX =    0.0                 !
 ! R2    R(1,9)                  1.3247         -DE/DX =    0.0                 !
 ! R3    R(1,10)                 1.3318         -DE/DX =    0.0                 !
 ! R4    R(1,11)                 1.3183         -DE/DX =    0.0                 !
 ! R5    R(2,3)                  1.3263         -DE/DX =    0.0                 !
 ! R6    R(2,4)                  1.3249         -DE/DX =    0.0                 !
 ! R7    R(2,6)                  1.3822         -DE/DX =    0.0                 !
 ! R8    R(5,6)                  1.6216         -DE/DX =    0.0                 !
 ! R9    R(5,7)                  1.4126         -DE/DX =    0.0                 !
 ! R10   R(5,8)                  1.4101         -DE/DX =    0.0                 !
 ! R11   R(5,12)                 1.3422         -DE/DX =    0.0                 !
 ! A1    A(2,1,9)              109.7549         -DE/DX =    0.0                 !
 ! A2    A(2,1,10)             109.6726         -DE/DX =    0.0                 !
 ! A3    A(2,1,11)             110.3163         -DE/DX =    0.0                 !
 ! A4    A(9,1,10)             108.4427         -DE/DX =    0.0                 !
 ! A5    A(9,1,11)             109.4849         -DE/DX =    0.0                 !
 ! A6    A(10,1,11)            109.138          -DE/DX =    0.0                 !
 ! A7    A(1,2,3)              108.0859         -DE/DX =    0.0                 !
 ! A8    A(1,2,4)              109.0867         -DE/DX =    0.0                 !
 ! A9    A(1,2,6)              112.2402         -DE/DX =    0.0                 !
 ! A10   A(3,2,4)              109.0045         -DE/DX =    0.0                 !
 ! A11   A(3,2,6)              106.0714         -DE/DX =    0.0                 !
 ! A12   A(4,2,6)              112.1928         -DE/DX =    0.0                 !
 ! A13   A(6,5,7)              109.8079         -DE/DX =    0.0                 !
 ! A14   A(6,5,8)              103.9099         -DE/DX =   -0.0001              !
 ! A15   A(6,5,12)              98.2927         -DE/DX =    0.0                 !
 ! A16   A(7,5,8)              123.6597         -DE/DX =    0.0                 !
 ! A17   A(7,5,12)             109.0846         -DE/DX =    0.0                 !
 ! A18   A(8,5,12)             109.0447         -DE/DX =    0.0                 !
 ! A19   A(2,6,5)              125.5263         -DE/DX =   -0.0001              !
 ! D1    D(9,1,2,3)             58.9785         -DE/DX =    0.0                 !
 ! D2    D(9,1,2,4)            177.3704         -DE/DX =    0.0                 !
 ! D3    D(9,1,2,6)            -57.648          -DE/DX =    0.0                 !
 ! D4    D(10,1,2,3)           178.0151         -DE/DX =    0.0                 !
 ! D5    D(10,1,2,4)           -63.593          -DE/DX =    0.0                 !
 ! D6    D(10,1,2,6)            61.3887         -DE/DX =    0.0                 !
 ! D7    D(11,1,2,3)           -61.7446         -DE/DX =    0.0                 !
 ! D8    D(11,1,2,4)            56.6472         -DE/DX =    0.0                 !
 ! D9    D(11,1,2,6)          -178.3711         -DE/DX =    0.0                 !
 ! D10   D(1,2,6,5)            -69.5182         -DE/DX =    0.0                 !
 ! D11   D(3,2,6,5)            172.6524         -DE/DX =    0.0                 !
 ! D12   D(4,2,6,5)             53.7363         -DE/DX =    0.0                 !
 ! D13   D(7,5,6,2)            -31.8899         -DE/DX =    0.0                 !
 ! D14   D(8,5,6,2)           -166.0059         -DE/DX =    0.0                 !
 ! D15   D(12,5,6,2)            81.9195         -DE/DX =    0.0                 !
 --------------------------------------------------------------------------------
 GradGradGradGradGradGradGradGradGradGradGradGradGradGradGradGradGradGrad

 Leave Link  103 at Sat May 24 06:46:27 2025, MaxMem=  3758096384 cpu:               0.0 elap:               0.0
 (Enter /apps/easybuild-2022/easybuild/software/Compiler/NVHPC/22.11-CUDA-11.7.0/Gaussian/g16c01-CUDA-11.7.0/g16/l9999.exe)

 ----------------------------------------------------------------------

 Electric dipole moment (input orientation):
 (Debye = 10**-18 statcoulomb cm , SI units = C m)
                  (au)            (Debye)         (10**-30 SI)
   Tot        0.972833D+00      0.247270D+01      0.824802D+01
   x          0.719536D+00      0.182888D+01      0.610048D+01
   y         -0.633875D+00     -0.161115D+01     -0.537421D+01
   z          0.163938D+00      0.416689D+00      0.138992D+01

 Dipole polarizability, Alpha (input orientation).
 (esu units = cm**3 , SI units = C**2 m**2 J**-1)
 Alpha(0;0):
               (au)            (10**-24 esu)      (10**-40 SI)
   iso        0.532984D+02      0.789800D+01      0.878771D+01
   aniso      0.134898D+02      0.199899D+01      0.222417D+01
   xx         0.512591D+02      0.759582D+01      0.845149D+01
   yx        -0.610825D+00     -0.905150D-01     -0.100711D+00
   yy         0.526158D+02      0.779686D+01      0.867517D+01
   zx        -0.396421D+01     -0.587435D+00     -0.653610D+00
   zy         0.620922D+01      0.920111D+00      0.102376D+01
   zz         0.560201D+02      0.830132D+01      0.923647D+01

 ----------------------------------------------------------------------

 Dipole orientation:
     6          0.72289687         -1.33557837          2.41184342
     6          1.57778395         -0.79011487         -0.33054687
     9          4.08321897         -0.73138084         -0.36742722
     9          0.78358988         -2.64016669         -1.81901551
    16         -2.11104053          2.34686811         -1.76792838
     8          0.78715245          1.55549808         -1.16450468
     8         -3.45962442          0.22556041         -2.66653455
     8         -1.88300327          4.63262011         -3.11850639
     9          1.59550661          0.44472965          3.94005924
     9         -1.79086226         -1.32714249          2.53321021
     9          1.56908593         -3.55750973          3.15591980
     1         -2.85223379          2.85713482          0.60344520

 Electric dipole moment (dipole orientation):
 (Debye = 10**-18 statcoulomb cm , SI units = C m)
                  (au)            (Debye)         (10**-30 SI)
   Tot        0.972833D+00      0.247270D+01      0.824802D+01
   x          0.000000D+00      0.000000D+00      0.000000D+00
   y          0.000000D+00      0.000000D+00      0.000000D+00
   z          0.972833D+00      0.247270D+01      0.824802D+01

 Dipole polarizability, Alpha (dipole orientation).
 (esu units = cm**3 , SI units = C**2 m**2 J**-1)
 Alpha(0;0):
               (au)            (10**-24 esu)      (10**-40 SI)
   iso        0.532984D+02      0.789800D+01      0.878771D+01
   aniso      0.134898D+02      0.199899D+01      0.222417D+01
   xx         0.531571D+02      0.787707D+01      0.876442D+01
   yx        -0.366878D+01     -0.543658D+00     -0.604901D+00
   yy         0.565307D+02      0.837698D+01      0.932065D+01
   zx         0.430463D+01      0.637880D+00      0.709737D+00
   zy        -0.431944D+01     -0.640074D+00     -0.712179D+00
   zz         0.502073D+02      0.743996D+01      0.827807D+01

 ----------------------------------------------------------------------
 Unable to Open any file for archive entry.
 1\1\GINC-SPARTAN-BM200\Freq\RM062X\def2TZVPP\C2H1F5O3S1\AKHALILOV\24-M
 ay-2025\0\\#P Geom=AllCheck Guess=TCheck SCRF=Check GenChk RM062X/def2
 TZVPP Freq\\Gaussian input prepared by ASE\\0,1\C,0.8559499608,-1.1238
 072542,-0.5283685137\C,0.1422350819,0.1921158473,-0.9194439546\F,0.845
 7436056,0.7714205421,-1.8830958855\F,-1.067626067,-0.0912992379,-1.379
 2304737\S,-0.7738918888,0.9395474185,1.4777936577\O,0.105234008,1.0973
 816492,0.1244022179\O,-1.9681106647,0.2403653125,1.194064639\O,-0.7394
 676774,2.22509531,2.056228514\F,2.0882158322,-0.8604807478,-0.11977663
 32\F,0.1978258106,-1.7114290121,0.4692356228\F,0.9004008645,-1.9442867
 766,-1.5593295003\H,0.0570151344,0.1320539491,2.1552993098\\Version=ES
 64L-G16RevC.01\HF=-1199.9369513\RMSD=4.357e-09\RMSF=2.517e-05\ZeroPoin
 t=0.0533495\Thermal=0.0632096\ETot=-1199.8737417\HTot=-1199.8727976\GT
 ot=-1199.9204994\Dipole=0.7195359,-0.6338745,0.163938\DipoleDeriv=1.56
 52524,0.0373983,-0.1420605,0.0573269,1.375281,0.2227531,-0.067392,0.16
 94509,1.5258086,1.3717617,0.1122712,-0.0115134,-0.0520776,1.243325,0.3
 91963,-0.2911794,0.1728444,1.917092,-0.4437525,-0.0692259,0.25842,-0.1
 280103,-0.409825,0.2118951,0.3165635,0.1607037,-0.7357621,-0.6970233,-
 0.1152642,-0.2568651,-0.0051859,-0.3292162,-0.0911626,-0.1825133,-0.08
 23517,-0.4505338,2.0660227,0.046683,-0.6017685,0.1898591,1.9786161,0.3
 615421,-0.4179195,0.5965306,2.4257491,-0.7452903,0.1504184,0.5483893,0
 .1371705,-0.7193055,-0.4731048,0.547299,-0.4025458,-1.7735604,-0.97253
 63,-0.1600807,0.0668548,-0.2317524,-0.6406759,-0.0360188,-0.0710142,-0
 .1239638,-0.5829478,-0.5321173,-0.0108053,0.0172904,0.0521339,-1.03306
 45,-0.3459599,0.0411347,-0.2492126,-0.6849139,-0.8353184,-0.0723897,-0
 .1421623,-0.0072246,-0.3321703,-0.0304214,-0.1861653,-0.0423673,-0.324
 8713,-0.4224936,-0.031198,0.2036645,-0.0981096,-0.48608,0.1869772,0.26
 01679,0.1275871,-0.6214278,-0.2910666,0.0785351,0.0635102,0.0845659,-0
 .6121635,-0.4143993,0.031626,-0.2988025,-0.6540952,-0.0634383,0.033657
 8,-0.0037595,0.001304,-0.0347213,0.0159363,0.0193924,-0.027873,-0.0405
 375\Polar=51.2591473,-0.6108254,52.6157942,-3.9642105,6.2092151,56.020
 1177\PG=Unknown\NImag=0\\0.60427400,-0.02226588,0.63528922,0.01122069,
 0.00585391,0.60712654,-0.07612255,0.07343528,-0.01958935,0.60128590,0.
 07325877,-0.17480439,0.03947075,-0.00640281,0.58727638,-0.02021919,0.0
 3636509,-0.04978511,-0.00157506,-0.04509712,0.56596819,-0.00162057,-0.
 00111794,0.00318804,-0.12625711,-0.05732696,0.08077975,0.18221292,-0.0
 2847996,-0.01072713,0.03215039,-0.04789504,-0.14566870,0.09443300,0.09
 056592,0.15110913,0.02344008,0.01032997,-0.02465465,0.07745215,0.10218
 216,-0.20261543,-0.14310393,-0.11728385,0.28108847,-0.03903321,-0.0204
 5964,-0.01469516,-0.28588566,-0.01057770,-0.08476476,-0.06143590,-0.03
 227046,0.01561647,0.39500391,0.01746092,0.01052513,0.00537050,-0.02496
 378,-0.08539258,-0.00936624,-0.03990852,-0.00120606,0.00221188,0.07254
 126,0.08855519,-0.01866425,-0.00972555,-0.00427392,-0.08649452,-0.0043
 4653,-0.10949023,0.03147803,0.00720166,0.01567264,0.11288855,0.0276716
 5,0.12500541,0.00247667,0.01399614,-0.00342470,0.01455566,0.03466522,0
 .04206896,0.00469587,-0.00264330,-0.01156358,-0.01928176,-0.00938512,-
 0.00851623,0.87855285,0.00938212,0.00313824,-0.01849485,0.02407601,0.0
 0626812,-0.00842818,-0.00076049,-0.00196381,-0.00048880,-0.00653177,-0
 .00243694,-0.00052375,0.18870247,1.10473872,0.00781507,-0.01765555,0.0
 1612340,0.00894453,-0.02792469,-0.07288606,-0.00524306,-0.00094284,0.0
 1230289,0.00950354,0.00810989,0.00907438,0.15822869,0.23004782,0.59470
 585,0.00299974,-0.00069918,0.01755254,-0.08224879,-0.00097918,0.002288
 05,-0.00455879,0.01129639,0.03950644,0.00097105,-0.02918405,-0.0328910
 1,-0.09072723,-0.02032606,0.04302573,0.17956554,-0.00315865,-0.0127910
 2,-0.03771644,0.00333050,-0.16972417,-0.06483416,0.00351350,0.01745542
 ,-0.00474654,-0.02245611,-0.00937132,-0.02546375,-0.02689934,-0.078311
 53,0.02353924,0.03510508,0.24908140,-0.00505753,0.00513380,-0.02422221
 ,0.01843282,-0.06604959,-0.10973297,0.03363137,-0.02188238,-0.08005572
 ,-0.03653575,-0.03636505,-0.03289670,0.03824314,0.01608827,-0.14487980
 ,-0.10365859,0.12404274,0.41708416,-0.00057542,-0.00372598,-0.00057954
 ,-0.00747424,-0.01158830,-0.01610834,-0.00000722,0.00136004,0.00362224
 ,0.00621154,0.00225842,0.00275157,-0.55999454,-0.26713266,-0.12856168,
 -0.01699691,-0.00965934,0.01280544,0.58041620,-0.00367443,-0.00359943,
 0.00494337,-0.00568116,-0.00816875,-0.00603462,0.00022636,0.00143304,0
 .00142241,0.00376459,0.00207345,-0.00049915,-0.25456813,-0.24906516,-0
 .06605401,-0.00978414,0.01144706,0.00369908,0.29562432,0.23543660,-0.0
 0228139,0.00203366,-0.00196294,-0.00737545,0.00116232,0.00502686,0.000
 91278,0.00053757,-0.00084416,0.00529771,-0.00064374,-0.00540384,-0.126
 61256,-0.06474890,-0.12086209,0.03171310,0.00982724,0.00672866,0.12052
 274,0.07579319,0.09335906,-0.00074064,-0.00159320,0.00011043,-0.002889
 30,-0.00390638,-0.00392964,-0.00041972,0.00030341,0.00145924,0.0030996
 3,0.00133803,0.00123452,-0.09294142,-0.00339048,-0.01541613,0.00371909
 ,0.01726936,0.02034307,0.01145863,-0.03899146,-0.01227152,0.06830884,-
 0.00349792,0.00038950,0.00422025,-0.00159740,0.00571532,0.00681153,0.0
 0167988,0.00035857,-0.00353116,0.00017716,-0.00033870,-0.00122637,-0.0
 1327115,-0.64946008,-0.23086799,-0.00129515,-0.00345829,-0.01252347,0.
 00510479,-0.00207417,-0.01420298,0.01235069,0.66508697,-0.00220437,0.0
 0294825,-0.00353935,0.00532112,0.00565541,0.01092470,0.00150802,-0.000
 08914,-0.00366192,-0.00213230,-0.00122908,-0.00131757,-0.02030115,-0.2
 2864073,-0.18234669,0.00875257,-0.03924758,-0.02845174,0.00744996,-0.0
 1215391,0.01406335,0.00189588,0.27063018,0.18216624,-0.29653620,-0.007
 70051,-0.07670704,-0.03810118,-0.02220429,-0.01137408,0.00518138,0.004
 51940,-0.00232965,-0.00817590,0.00793947,-0.00418923,-0.00146915,-0.00
 298234,-0.00419101,0.00168112,0.00364979,0.00338800,0.00060938,0.00135
 547,0.00127633,0.00042791,0.00127283,0.00103128,0.40639618,-0.01948334
 ,-0.08718096,-0.00682111,0.01806705,0.01025413,0.00598543,0.00127321,0
 .00011936,-0.00018549,0.00736990,-0.00345139,0.00347195,-0.00287250,-0
 .00126414,0.00367630,0.00257568,-0.00035992,-0.00145169,0.00083645,0.0
 0094422,-0.00044404,0.00035304,0.00001888,-0.00054601,0.07104809,0.089
 88902,-0.07356058,-0.00129978,-0.10176381,-0.01597273,-0.00882695,-0.0
 0233415,-0.00089582,-0.00031841,0.00167418,-0.00396038,0.00336341,-0.0
 0114403,-0.00077288,0.00111928,-0.00292261,0.00077673,0.00337226,0.004
 58219,0.00053539,-0.00013405,0.00071608,0.00024531,-0.00028638,0.00059
 655,0.10410072,0.02363317,0.11607577,-0.11531332,-0.04866564,0.0710513
 4,0.00035867,0.00175729,0.00191251,0.00156343,0.00142888,-0.00204235,0
 .00469989,0.00016154,0.00035079,-0.00445747,-0.00481129,0.00102934,0.0
 0199153,-0.00040327,-0.00268616,-0.00010992,0.00392763,0.00120644,0.00
 070399,0.00159020,0.00010994,-0.06092748,-0.04091082,0.03494170,0.1683
 5838,-0.04278889,-0.15157981,0.09204256,-0.02822841,-0.00679646,0.0321
 4936,0.00152457,-0.01095881,0.00734725,0.00488252,0.00017492,-0.000426
 20,-0.00351193,-0.00415420,0.00291042,0.00291991,0.00129586,-0.0048668
 9,0.00198198,0.00059444,-0.00100448,0.00082762,-0.00051437,-0.00093740
 ,-0.03089960,-0.00032650,0.00885913,0.08322033,0.15148555,0.06269678,0
 .09589552,-0.19990988,0.02400966,0.00377457,-0.02326599,-0.00191039,0.
 00808529,-0.00312375,-0.00261207,0.00043135,0.00165966,0.00282569,0.00
 732415,-0.00976495,-0.00556754,0.00379158,0.01106871,0.00031575,-0.003
 09080,0.00124640,0.00011999,-0.00278800,0.00144641,0.02117365,0.005724
 44,0.01383559,-0.13316901,-0.11587605,0.27916267,-0.08094204,0.0189961
 3,0.01192192,0.00298784,0.00718201,0.01372806,0.00124275,0.00143995,-0
 .00292931,0.00268920,0.00098035,0.00147973,0.00113249,-0.00043679,-0.0
 0282166,-0.00203504,0.00474911,0.00281489,-0.00026369,0.00017032,0.000
 40513,-0.00007715,0.00050818,0.00070146,-0.00865235,-0.03815714,-0.045
 09023,0.00321630,0.00932725,0.03127267,0.08095744,0.02272148,-0.209311
 92,-0.12056298,-0.00326448,-0.01811309,-0.04312504,0.00037266,-0.00004
 054,0.00238961,0.00322907,0.00079253,0.00388661,-0.00709093,-0.0010442
 1,0.00871379,0.00840565,-0.01202098,-0.00721098,0.00205325,0.00092212,
 -0.00062636,0.00085041,-0.00077625,-0.00193397,-0.02578678,-0.00851043
 ,-0.02952509,0.00286757,0.02276496,-0.00228289,-0.00474644,0.22535651,
 0.01649741,-0.13113450,-0.20950578,-0.00256940,-0.00702725,-0.01564421
 ,-0.00125381,-0.00082426,0.00570177,0.00219485,0.00145409,0.00366848,-
 0.00255596,0.00298697,0.00080204,0.00203840,-0.00232325,0.00124102,0.0
 0114787,-0.00069826,0.00018528,0.00042286,-0.00133398,-0.00033113,-0.0
 3232385,-0.03279491,-0.02987546,0.02777328,-0.01921325,-0.07371908,-0.
 01162457,0.19075861,0.31698671,0.00113356,-0.00019958,-0.00004916,-0.0
 0020924,-0.00387769,-0.00280628,-0.00059704,0.00037478,0.00087219,0.00
 113720,0.00076148,0.00057205,-0.13254196,0.08421128,-0.07231338,0.0056
 3869,-0.00504064,0.01827930,-0.01327381,0.00763063,-0.01279329,0.00935
 013,-0.00302211,-0.00213241,-0.00043369,-0.00009962,-0.00034724,-0.000
 08399,0.00074464,0.00084483,-0.00025575,0.00038855,0.00025293,0.130135
 90,0.00052578,0.00065258,-0.00045634,-0.00087576,-0.00084583,0.0011409
 6,-0.00004219,0.00008954,0.00035257,0.00033118,0.00007575,-0.00002057,
 0.08287854,-0.12644501,0.06644762,0.00196506,0.00675748,0.00138616,-0.
 01711297,0.01005660,-0.00768348,0.01458896,-0.01494739,0.00554398,-0.0
 0021154,-0.00013227,0.00004341,-0.00016243,-0.00198557,-0.00098917,-0.
 00001293,-0.00001871,0.00014999,-0.08187172,0.12674283,0.00031726,0.00
 125518,-0.00363229,-0.00058376,0.00702691,0.00383441,0.00090902,-0.001
 06702,-0.00148433,-0.00080071,-0.00100865,-0.00055428,-0.06761942,0.06
 375873,-0.09934635,-0.00353641,0.00975866,-0.02046559,-0.00390141,0.00
 280674,0.00774734,0.00578598,-0.01490164,0.01045114,0.00014488,-0.0002
 4804,0.00055970,-0.00047782,-0.00098444,0.00136421,0.00014193,-0.00048
 131,0.00049035,0.06962046,-0.06591513,0.10103569\\-0.00000149,-0.00000
 833,0.00000647,0.00001246,0.00003144,0.00000150,-0.00001185,-0.0000159
 8,0.00001901,0.00001452,-0.00000798,-0.00001439,0.00000467,0.00007023,
 -0.00004969,-0.00001357,-0.00009018,0.00000327,0.00002589,0.00000135,0
 .00000424,-0.00003087,0.00000537,0.00004848,-0.00000344,0.00000553,0.0
 0000239,0.00000888,0.00000456,-0.00001327,-0.00000021,0.00000855,0.000
 00145,-0.00000498,-0.00000458,-0.00000946\\\@
 The archive entry for this job was punched.


 HERE WE GO......
 SLIDING DOWN THE RAZOR BLADE OF LIFE......
                                 TOM LEHRER
 Job cpu time:       0 days  0 hours 32 minutes 16.2 seconds.
 Elapsed time:       0 days  0 hours  4 minutes  6.4 seconds.
 File lengths (MBytes):  RWF=    164 Int=      0 D2E=      0 Chk=     11 Scr=      1
 Normal termination of Gaussian 16 at Sat May 24 06:46:27 2025.
done
