 Entering Gaussian System, Link 0=g16
 Initial command:
 /apps/easybuild-2022/easybuild/software/Compiler/NVHPC/22.11-CUDA-11.7.0/Gaussian/g16c01-CUDA-11.7.0/g16/l1.exe "/tmp/Gau-158377.inp" -scrdir="/tmp/"
 Entering Link 1 = /apps/easybuild-2022/easybuild/software/Compiler/NVHPC/22.11-CUDA-11.7.0/Gaussian/g16c01-CUDA-11.7.0/g16/l1.exe PID=    158378.
  
 Copyright (c) 1988-2019, Gaussian, Inc.  All Rights Reserved.
  
 This is part of the Gaussian(R) 16 program.  It is based on
 the Gaussian(R) 09 system (copyright 2009, Gaussian, Inc.),
 the Gaussian(R) 03 system (copyright 2003, Gaussian, Inc.),
 the Gaussian(R) 98 system (copyright 1998, Gaussian, Inc.),
 the Gaussian(R) 94 system (copyright 1995, Gaussian, Inc.),
 the Gaussian 92(TM) system (copyright 1992, Gaussian, Inc.),
 the Gaussian 90(TM) system (copyright 1990, Gaussian, Inc.),
 the Gaussian 88(TM) system (copyright 1988, Gaussian, Inc.),
 the Gaussian 86(TM) system (copyright 1986, Carnegie Mellon
 University), and the Gaussian 82(TM) system (copyright 1983,
 Carnegie Mellon University). Gaussian is a federally registered
 trademark of Gaussian, Inc.
  
 This software contains proprietary and confidential information,
 including trade secrets, belonging to Gaussian, Inc.
  
 This software is provided under written license and may be
 used, copied, transmitted, or stored only in accord with that
 written license.
  
 The following legend is applicable only to US Government
 contracts under FAR:
  
                    RESTRICTED RIGHTS LEGEND
  
 Use, reproduction and disclosure by the US Government is
 subject to restrictions as set forth in subparagraphs (a)
 and (c) of the Commercial Computer Software - Restricted
 Rights clause in FAR 52.227-19.
  
 Gaussian, Inc.
 340 Quinnipiac St., Bldg. 40, Wallingford CT 06492
  
  
 ---------------------------------------------------------------
 Warning -- This program may not be used in any manner that
 competes with the business of Gaussian, Inc. or will provide
 assistance to any competitor of Gaussian, Inc.  The licensee
 of this program is prohibited from giving any competitor of
 Gaussian, Inc. access to this program.  By using this program,
 the user acknowledges that Gaussian, Inc. is engaged in the
 business of creating and licensing software in the field of
 computational chemistry and represents and warrants to the
 licensee that it is not a competitor of Gaussian, Inc. and that
 it will not use this program in any manner prohibited above.
 ---------------------------------------------------------------
  

 Cite this work as:
 Gaussian 16, Revision C.01,
 M. J. Frisch, G. W. Trucks, H. B. Schlegel, G. E. Scuseria, 
 M. A. Robb, J. R. Cheeseman, G. Scalmani, V. Barone, 
 G. A. Petersson, H. Nakatsuji, X. Li, M. Caricato, A. V. Marenich, 
 J. Bloino, B. G. Janesko, R. Gomperts, B. Mennucci, H. P. Hratchian, 
 J. V. Ortiz, A. F. Izmaylov, J. L. Sonnenberg, D. Williams-Young, 
 F. Ding, F. Lipparini, F. Egidi, J. Goings, B. Peng, A. Petrone, 
 T. Henderson, D. Ranasinghe, V. G. Zakrzewski, J. Gao, N. Rega, 
 G. Zheng, W. Liang, M. Hada, M. Ehara, K. Toyota, R. Fukuda, 
 J. Hasegawa, M. Ishida, T. Nakajima, Y. Honda, O. Kitao, H. Nakai, 
 T. Vreven, K. Throssell, J. A. Montgomery, Jr., J. E. Peralta, 
 F. Ogliaro, M. J. Bearpark, J. J. Heyd, E. N. Brothers, K. N. Kudin, 
 V. N. Staroverov, T. A. Keith, R. Kobayashi, J. Normand, 
 K. Raghavachari, A. P. Rendell, J. C. Burant, S. S. Iyengar, 
 J. Tomasi, M. Cossi, J. M. Millam, M. Klene, C. Adamo, R. Cammi, 
 J. W. Ochterski, R. L. Martin, K. Morokuma, O. Farkas, 
 J. B. Foresman, and D. J. Fox, Gaussian, Inc., Wallingford CT, 2019.
 
 ******************************************
 Gaussian 16:  ES64L-G16RevC.01  3-Jul-2019
                24-May-2025 
 ******************************************
 %mem=28GB
 %chk=2003846667223680600001_r12_insertion_R_8_5_6_IRC_F
 %nprocshared=8
 Will use up to    8 processors via shared memory.
 ----------------------------------------------------------------------
 #P M062X/Def2TZVPP Symm(None) scf(xqc) pop(None) geom(AllCheck,NoKeepC
 onstants) guess(Read) irc(RCFC,forward,MaxPoints=100,StepSize=2)
 ----------------------------------------------------------------------
 1/10=5,18=10,22=1,26=3,29=20007,38=1,39=2,42=100,44=3,172=1/1,23;
 2/12=2,15=3,29=1,40=1/2;
 3/5=44,7=202,11=2,14=-4,25=1,30=1,71=2,74=-55,116=-2,140=1/1,2,3;
 4/5=1/1;
 5/5=2,8=3,13=1,38=6/2,8;
 8/6=4,10=90,11=11/1;
 11/6=1,8=1,9=11,15=111,16=1,31=1/1,2,10;
 10/6=1,13=1,31=1/2;
 7/10=1,25=1,30=1/1,2,3,16;
 1/18=10,22=1,26=3,39=2,42=100,44=3/23(2);
 2/15=3,29=1/2;
 99/5=20/99;
 2/15=3,29=1/2;
 3/5=44,7=202,11=2,14=-2,25=1,30=1,71=2,74=-55,140=1/1,2,3;
 4/5=5,16=3,69=1/1;
 5/5=2,8=3,13=1,38=5/2,8;
 8/6=4,10=90,11=11/1;
 11/6=1,8=1,9=11,15=111,16=1,31=1/1,2,10;
 10/6=1,13=1,31=1/2;
 7/10=1,25=1,30=1/1,2,3,16;
 1/18=10,22=1,26=3,39=2,42=100,44=3/23(-8);
 2/15=3,29=1/2;
 99/5=20,9=1/99;
 Leave Link    1 at Sat May 24 04:09:28 2025, MaxMem=  3758096384 cpu:               0.1 elap:               0.1
 (Enter /apps/easybuild-2022/easybuild/software/Compiler/NVHPC/22.11-CUDA-11.7.0/Gaussian/g16c01-CUDA-11.7.0/g16/l101.exe)
 Structure from the checkpoint file:  "2003846667223680600001_r12_insertion_R_8_5_6_IRC_F.chk"
 ------------------------------
 Gaussian input prepared by ASE
 ------------------------------
 Charge =  0 Multiplicity = 1
 Redundant internal coordinates found in file.  (old form).
 C,0,-0.4795362368,-1.4251797742,0.2485896991
 C,0,-0.3697688634,0.1312067877,0.0448675032
 F,0,-0.8824933788,0.4610062833,-1.1100481996
 F,0,-0.94482911,0.7914383721,1.0046211599
 S,0,1.6772804291,0.6220546063,0.059109637
 O,0,1.5627387161,0.3922076028,1.4866686697
 O,0,1.7274784992,-0.3814537879,-1.0073982586
 O,0,3.2521484749,1.0003473174,0.0720275022
 F,0,-0.3945321621,-2.0359202716,-0.9117489717
 F,0,0.3949861342,-1.9186555935,1.0858312677
 F,0,-1.7049345928,-1.6167597208,0.737718225
 H,0,3.6094010903,0.8593071784,-0.8160432339
 Recover connectivity data from disk.
 ITRead=  0  0  0  0  0  0  0  0  0  0  0  0
 MicOpt= -1 -1 -1 -1 -1 -1 -1 -1 -1 -1 -1 -1
 NAtoms=     12 NQM=       12 NQMF=       0 NMMI=      0 NMMIF=      0
                NMic=       0 NMicF=      0.
                    Isotopes and Nuclear Properties:
 (Nuclear quadrupole moments (NQMom) in fm**2, nuclear magnetic moments (NMagM)
  in nuclear magnetons)

  Atom         1           2           3           4           5           6           7           8           9          10
 IAtWgt=          12          12          19          19          32          16          16          16          19          19
 AtmWgt=  12.0000000  12.0000000  18.9984032  18.9984032  31.9720718  15.9949146  15.9949146  15.9949146  18.9984032  18.9984032
 NucSpn=           0           0           1           1           0           0           0           0           1           1
 AtZEff=   3.6000000   3.6000000   6.7500000   6.7500000  13.6000000   5.6000000   5.6000000   5.6000000   6.7500000   6.7500000
 NQMom=    0.0000000   0.0000000   0.0000000   0.0000000   0.0000000   0.0000000   0.0000000   0.0000000   0.0000000   0.0000000
 NMagM=    0.0000000   0.0000000   2.6288670   2.6288670   0.0000000   0.0000000   0.0000000   0.0000000   2.6288670   2.6288670
 AtZNuc=   6.0000000   6.0000000   9.0000000   9.0000000  16.0000000   8.0000000   8.0000000   8.0000000   9.0000000   9.0000000

  Atom        11          12
 IAtWgt=          19           1
 AtmWgt=  18.9984032   1.0078250
 NucSpn=           1           1
 AtZEff=   6.7500000   1.0000000
 NQMom=    0.0000000   0.0000000
 NMagM=    2.6288670   2.7928460
 AtZNuc=   9.0000000   1.0000000
 Leave Link  101 at Sat May 24 04:09:28 2025, MaxMem=  3758096384 cpu:               0.2 elap:               0.2
 (Enter /apps/easybuild-2022/easybuild/software/Compiler/NVHPC/22.11-CUDA-11.7.0/Gaussian/g16c01-CUDA-11.7.0/g16/l123.exe)
 IRC-IRC-IRC-IRC-IRC-IRC-IRC-IRC-IRC-IRC-IRC-IRC-IRC-IRC-IRC-IRC-IRC-IRC
 ------------------------------------------------------------------------
 INPUT DATA FOR L123
 ------------------------------------------------------------------------
 GENERAL PARAMETERS:
 Rxn path following direction = Forward
 Maximum points per path      = 100
 Step size                    =   0.020 bohr
 Integration scheme           = HPC                                 
    Redo corrector integration= Yes                                 
    DWI Weight Power          =  2
    DWI will use Hessian update vectors when possible.
    Max correction cycles     =  20
 Initial Hessian              = ReadFC from chk
 Hessian evaluation           = All updating
 Hessian updating method      = Bofill                              
 ------------------------------------------------------------------------
          ******** Start new reaction path calculation ********
 RCFC Option Requested - Data Read From Chk File:
 "2003846667223680600001_r12_insertion_R_8_5_6_IRC_F.chk"
   Energy From Chk =  -1199.8169606

 Current Structure is TS -> form Hessian eigenvectors.
                            Recovering Hessian eigenvectors from chk file.
 Supplied step size of   0.0200 bohr.
    Integration on MW PES will use step size of   0.0720 sqrt(amu)*bohr.
 Point Number:   0          Path Number:   1
 Calculating another point on the path.
 Point Number  1 in FORWARD path direction.
 Using LQA Reaction Path Following.
 IRC-IRC-IRC-IRC-IRC-IRC-IRC-IRC-IRC-IRC-IRC-IRC-IRC-IRC-IRC-IRC-IRC-IRC
 Leave Link  123 at Sat May 24 04:09:28 2025, MaxMem=  3758096384 cpu:               0.1 elap:               0.0
 (Enter /apps/easybuild-2022/easybuild/software/Compiler/NVHPC/22.11-CUDA-11.7.0/Gaussian/g16c01-CUDA-11.7.0/g16/l202.exe)
                          Input orientation:                          
 ---------------------------------------------------------------------
 Center     Atomic      Atomic             Coordinates (Angstroms)
 Number     Number       Type             X           Y           Z
 ---------------------------------------------------------------------
      1          6           0       -0.902555   -1.120879    0.104685
      2          6           0       -0.791032    0.435907   -0.099103
      3          9           0       -1.305402    0.764892   -1.254123
      4          9           0       -1.367555    1.095295    0.861058
      5         16           0        1.252730    0.921504   -0.083565
      6          8           0        1.141089    0.695146    1.344306
      7          8           0        1.306518   -0.079636   -1.151419
      8          8           0        2.825399    1.307875   -0.073129
      9          9           0       -0.817694   -1.732102   -1.055518
     10          9           0       -0.028168   -1.615114    0.942016
     11          9           0       -2.127850   -1.312340    0.593852
     12          1           0        3.182226    1.167276   -0.961491
 ---------------------------------------------------------------------
                    Distance matrix (angstroms):
                    1          2          3          4          5
     1  C    0.000000
     2  C    1.574023   0.000000
     3  F    2.358978   1.306475   0.000000
     4  F    2.387415   1.299646   2.141732   0.000000
     5  S    2.975235   2.100716   2.817583   2.790772   0.000000
     6  O    3.001848   2.425639   3.569596   2.585912   1.450006
     7  O    2.746268   2.402679   2.746980   3.546997   1.464748
     8  O    4.452876   3.720158   4.330484   4.301018   1.619468
     9  F    1.314102   2.369747   2.551917   3.459737   3.503281
    10  F    1.307649   2.423340   3.481204   3.024372   3.021084
    11  F    1.333150   2.307301   2.899366   2.538927   4.108196
    12  H    4.801856   4.131028   4.515125   4.901773   2.134036
                    6          7          8          9         10
     6  O    0.000000
     7  O    2.618453   0.000000
     8  O    2.285051   2.322691   0.000000
     9  F    3.935419   2.692976   4.845480   0.000000
    10  F    2.620363   2.919170   4.209184   2.151089   0.000000
    11  F    3.908854   4.044801   5.643143   2.147820   2.149780
    12  H    3.115421   2.260341   0.967616   4.941113   4.655284
                   11         12
    11  F    0.000000
    12  H    6.063373   0.000000
 Symmetry turned off by external request.
 Stoichiometry    C2HF5O3S
 Rotational constants (GHZ):           1.6623443           0.7775765           0.7482826
 Leave Link  202 at Sat May 24 04:09:28 2025, MaxMem=  3758096384 cpu:               0.0 elap:               0.0
 (Enter /apps/easybuild-2022/easybuild/software/Compiler/NVHPC/22.11-CUDA-11.7.0/Gaussian/g16c01-CUDA-11.7.0/g16/l301.exe)
 Standard basis: def2TZVPP (5D, 7F)
 Ernie: Thresh=  0.10000D-02 Tol=  0.10000D-05 Strict=F.
   366 basis functions,   596 primitive gaussians,   423 cartesian basis functions
    49 alpha electrons       49 beta electrons
       nuclear repulsion energy       917.7550107082 Hartrees.
 IExCor= 4336 DFT=T Ex+Corr=M062X ExCW=0 ScaHFX=  0.540000
 ScaDFX=  1.000000  1.000000  1.000000  1.000000 ScalE2=  1.000000  1.000000
 IRadAn=      5 IRanWt=     -1 IRanGd=            0 ICorTp=0 IEmpDi=  4
 NAtoms=   12 NActive=   12 NUniq=   12 SFac= 1.00D+00 NAtFMM=   60 NAOKFM=F Big=F
 Integral buffers will be    131072 words long.
 Raffenetti 2 integral format.
 Two-electron integral symmetry is turned off.
 Leave Link  301 at Sat May 24 04:09:28 2025, MaxMem=  3758096384 cpu:               0.1 elap:               0.0
 (Enter /apps/easybuild-2022/easybuild/software/Compiler/NVHPC/22.11-CUDA-11.7.0/Gaussian/g16c01-CUDA-11.7.0/g16/l302.exe)
 NPDir=0 NMtPBC=     1 NCelOv=     1 NCel=       1 NClECP=     1 NCelD=      1
         NCelK=      1 NCelE2=     1 NClLst=     1 CellRange=     0.0.
 One-electron integrals computed using PRISM.
   1 Symmetry operations used in ECPInt.
 ECPInt:  NShTT=    8515 NPrTT=   27988 LenC2=    7933 LenP2D=   19248.
 LDataN:  DoStor=T MaxTD1= 6 Len=  172
 NBasis=   366 RedAO= T EigKep=  4.38D-04  NBF=   366
 NBsUse=   366 1.00D-06 EigRej= -1.00D+00 NBFU=   366
 Precomputing XC quadrature grid using
 IXCGrd= 4 IRadAn=           5 IRanWt=          -1 IRanGd=           0 AccXCQ= 0.00D+00.
 Generated NRdTot=       0 NPtTot=           0 NUsed=           0 NTot=          32
 NSgBfM=   420   420   420   420   420 MxSgAt=    12 MxSgA2=    12.
 Leave Link  302 at Sat May 24 04:09:29 2025, MaxMem=  3758096384 cpu:               1.2 elap:               0.3
 (Enter /apps/easybuild-2022/easybuild/software/Compiler/NVHPC/22.11-CUDA-11.7.0/Gaussian/g16c01-CUDA-11.7.0/g16/l303.exe)
 DipDrv:  MaxL=1.
 Leave Link  303 at Sat May 24 04:09:29 2025, MaxMem=  3758096384 cpu:               0.1 elap:               0.0
 (Enter /apps/easybuild-2022/easybuild/software/Compiler/NVHPC/22.11-CUDA-11.7.0/Gaussian/g16c01-CUDA-11.7.0/g16/l401.exe)
 Initial guess from the checkpoint file:  "2003846667223680600001_r12_insertion_R_8_5_6_IRC_F.chk"
 B after Tr=    -0.799771    0.573199   -0.271470
         Rot=    1.000000   -0.000006   -0.000011   -0.000017 Ang=  -0.00 deg.
 Guess basis will be translated and rotated to current coordinates.
 JPrj=2 DoOrth=T DoCkMO=T.
 Leave Link  401 at Sat May 24 04:09:29 2025, MaxMem=  3758096384 cpu:               0.4 elap:               0.2
 (Enter /apps/easybuild-2022/easybuild/software/Compiler/NVHPC/22.11-CUDA-11.7.0/Gaussian/g16c01-CUDA-11.7.0/g16/l502.exe)
 Keep R1 ints in memory in canonical form, NReq=2293446996.
 FoFCou: FMM=F IPFlag=           0 FMFlag=           0 FMFlg1=           0
         NFxFlg=           0 DoJE=F BraDBF=F KetDBF=F FulRan=T
         wScrn=  0.000000 ICntrl=       600 IOpCl=  0 I1Cent=           0 NGrid=           0
         NMat0=    1 NMatS0=  67161 NMatT0=    0 NMatD0=    1 NMtDS0=    0 NMtDT0=    0
 Symmetry not used in FoFCou.
 Two-electron integral symmetry not used.
 Closed shell SCF:
 Using DIIS extrapolation, IDIIS=  1040.
 NGot=  3758096384 LenX=  1502398672 LenY=  1502219302
 Requested convergence on RMS density matrix=1.00D-08 within  32 cycles.
 Requested convergence on MAX density matrix=1.00D-06.
 Requested convergence on             energy=1.00D-06.
 No special actions if energy rises.

 Cycle   1  Pass 1  IDiag  1:
 E= -1199.81765302348    
 DIIS: error= 2.25D-04 at cycle   1 NSaved=   1.
 NSaved= 1 IEnMin= 1 EnMin= -1199.81765302348     IErMin= 1 ErrMin= 2.25D-04
 ErrMax= 2.25D-04  0.00D+00 EMaxC= 1.00D-01 BMatC= 2.59D-05 BMatP= 2.59D-05
 IDIUse=3 WtCom= 9.98D-01 WtEn= 2.25D-03
 Coeff-Com:  0.100D+01
 Coeff-En:   0.100D+01
 Coeff:      0.100D+01
 Gap=     0.208 Goal=   None    Shift=    0.000
 RMSDP=2.11D-05 MaxDP=1.39D-03              OVMax= 4.43D-03

 Cycle   2  Pass 1  IDiag  1:
 E= -1199.81769205849     Delta-E=       -0.000039035005 Rises=F Damp=F
 DIIS: error= 6.56D-05 at cycle   2 NSaved=   2.
 NSaved= 2 IEnMin= 2 EnMin= -1199.81769205849     IErMin= 2 ErrMin= 6.56D-05
 ErrMax= 6.56D-05  0.00D+00 EMaxC= 1.00D-01 BMatC= 4.38D-06 BMatP= 2.59D-05
 IDIUse=1 WtCom= 1.00D+00 WtEn= 0.00D+00
 Coeff-Com:  0.541D-01 0.946D+00
 Coeff:      0.541D-01 0.946D+00
 Gap=     0.207 Goal=   None    Shift=    0.000
 RMSDP=8.81D-06 MaxDP=3.24D-04 DE=-3.90D-05 OVMax= 7.17D-04

 Cycle   3  Pass 1  IDiag  1:
 E= -1199.81769427786     Delta-E=       -0.000002219372 Rises=F Damp=F
 DIIS: error= 6.18D-05 at cycle   3 NSaved=   3.
 NSaved= 3 IEnMin= 3 EnMin= -1199.81769427786     IErMin= 3 ErrMin= 6.18D-05
 ErrMax= 6.18D-05  0.00D+00 EMaxC= 1.00D-01 BMatC= 3.81D-06 BMatP= 4.38D-06
 IDIUse=1 WtCom= 1.00D+00 WtEn= 0.00D+00
 Coeff-Com: -0.813D-01 0.527D+00 0.554D+00
 Coeff:     -0.813D-01 0.527D+00 0.554D+00
 Gap=     0.207 Goal=   None    Shift=    0.000
 RMSDP=6.16D-06 MaxDP=3.17D-04 DE=-2.22D-06 OVMax= 1.50D-03

 Cycle   4  Pass 1  IDiag  1:
 E= -1199.81769817683     Delta-E=       -0.000003898969 Rises=F Damp=F
 DIIS: error= 1.95D-05 at cycle   4 NSaved=   4.
 NSaved= 4 IEnMin= 4 EnMin= -1199.81769817683     IErMin= 4 ErrMin= 1.95D-05
 ErrMax= 1.95D-05  0.00D+00 EMaxC= 1.00D-01 BMatC= 3.42D-07 BMatP= 3.81D-06
 IDIUse=1 WtCom= 1.00D+00 WtEn= 0.00D+00
 Coeff-Com: -0.170D-01-0.363D-02 0.215D+00 0.806D+00
 Coeff:     -0.170D-01-0.363D-02 0.215D+00 0.806D+00
 Gap=     0.207 Goal=   None    Shift=    0.000
 RMSDP=2.35D-06 MaxDP=1.37D-04 DE=-3.90D-06 OVMax= 5.73D-04

 Cycle   5  Pass 1  IDiag  1:
 E= -1199.81769866428     Delta-E=       -0.000000487451 Rises=F Damp=F
 DIIS: error= 9.18D-06 at cycle   5 NSaved=   5.
 NSaved= 5 IEnMin= 5 EnMin= -1199.81769866428     IErMin= 5 ErrMin= 9.18D-06
 ErrMax= 9.18D-06  0.00D+00 EMaxC= 1.00D-01 BMatC= 1.00D-07 BMatP= 3.42D-07
 IDIUse=1 WtCom= 1.00D+00 WtEn= 0.00D+00
 Coeff-Com:  0.811D-02-0.129D+00 0.461D-01 0.441D+00 0.633D+00
 Coeff:      0.811D-02-0.129D+00 0.461D-01 0.441D+00 0.633D+00
 Gap=     0.207 Goal=   None    Shift=    0.000
 RMSDP=1.41D-06 MaxDP=6.06D-05 DE=-4.87D-07 OVMax= 2.92D-04

 Cycle   6  Pass 1  IDiag  1:
 E= -1199.81769884073     Delta-E=       -0.000000176448 Rises=F Damp=F
 DIIS: error= 4.94D-06 at cycle   6 NSaved=   6.
 NSaved= 6 IEnMin= 6 EnMin= -1199.81769884073     IErMin= 6 ErrMin= 4.94D-06
 ErrMax= 4.94D-06  0.00D+00 EMaxC= 1.00D-01 BMatC= 1.95D-08 BMatP= 1.00D-07
 IDIUse=1 WtCom= 1.00D+00 WtEn= 0.00D+00
 Coeff-Com:  0.110D-01-0.781D-01-0.219D-01-0.212D-01 0.206D+00 0.905D+00
 Coeff:      0.110D-01-0.781D-01-0.219D-01-0.212D-01 0.206D+00 0.905D+00
 Gap=     0.207 Goal=   None    Shift=    0.000
 RMSDP=1.14D-06 MaxDP=5.88D-05 DE=-1.76D-07 OVMax= 2.92D-04

 Cycle   7  Pass 1  IDiag  1:
 E= -1199.81769890735     Delta-E=       -0.000000066621 Rises=F Damp=F
 DIIS: error= 2.28D-06 at cycle   7 NSaved=   7.
 NSaved= 7 IEnMin= 7 EnMin= -1199.81769890735     IErMin= 7 ErrMin= 2.28D-06
 ErrMax= 2.28D-06  0.00D+00 EMaxC= 1.00D-01 BMatC= 4.90D-09 BMatP= 1.95D-08
 IDIUse=1 WtCom= 1.00D+00 WtEn= 0.00D+00
 Coeff-Com:  0.222D-02 0.687D-02-0.132D-01-0.146D+00-0.169D+00 0.424D+00
 Coeff-Com:  0.896D+00
 Coeff:      0.222D-02 0.687D-02-0.132D-01-0.146D+00-0.169D+00 0.424D+00
 Coeff:      0.896D+00
 Gap=     0.207 Goal=   None    Shift=    0.000
 RMSDP=6.77D-07 MaxDP=3.24D-05 DE=-6.66D-08 OVMax= 1.72D-04

 Cycle   8  Pass 1  IDiag  1:
 E= -1199.81769892278     Delta-E=       -0.000000015426 Rises=F Damp=F
 DIIS: error= 1.02D-06 at cycle   8 NSaved=   8.
 NSaved= 8 IEnMin= 8 EnMin= -1199.81769892278     IErMin= 8 ErrMin= 1.02D-06
 ErrMax= 1.02D-06  0.00D+00 EMaxC= 1.00D-01 BMatC= 9.87D-10 BMatP= 4.90D-09
 IDIUse=1 WtCom= 1.00D+00 WtEn= 0.00D+00
 Coeff-Com: -0.460D-03 0.163D-01-0.356D-02-0.809D-01-0.133D+00 0.110D+00
 Coeff-Com:  0.507D+00 0.585D+00
 Coeff:     -0.460D-03 0.163D-01-0.356D-02-0.809D-01-0.133D+00 0.110D+00
 Coeff:      0.507D+00 0.585D+00
 Gap=     0.207 Goal=   None    Shift=    0.000
 RMSDP=1.52D-07 MaxDP=6.28D-06 DE=-1.54D-08 OVMax= 3.25D-05

 Cycle   9  Pass 1  IDiag  1:
 E= -1199.81769892408     Delta-E=       -0.000000001301 Rises=F Damp=F
 DIIS: error= 2.65D-07 at cycle   9 NSaved=   9.
 NSaved= 9 IEnMin= 9 EnMin= -1199.81769892408     IErMin= 9 ErrMin= 2.65D-07
 ErrMax= 2.65D-07  0.00D+00 EMaxC= 1.00D-01 BMatC= 9.02D-11 BMatP= 9.87D-10
 IDIUse=1 WtCom= 1.00D+00 WtEn= 0.00D+00
 Coeff-Com: -0.535D-03 0.671D-02 0.191D-03-0.144D-01-0.339D-01-0.110D-01
 Coeff-Com:  0.949D-01 0.262D+00 0.696D+00
 Coeff:     -0.535D-03 0.671D-02 0.191D-03-0.144D-01-0.339D-01-0.110D-01
 Coeff:      0.949D-01 0.262D+00 0.696D+00
 Gap=     0.207 Goal=   None    Shift=    0.000
 RMSDP=3.23D-08 MaxDP=1.84D-06 DE=-1.30D-09 OVMax= 6.01D-06

 Cycle  10  Pass 1  IDiag  1:
 E= -1199.81769892417     Delta-E=       -0.000000000087 Rises=F Damp=F
 DIIS: error= 2.13D-07 at cycle  10 NSaved=  10.
 NSaved=10 IEnMin=10 EnMin= -1199.81769892417     IErMin=10 ErrMin= 2.13D-07
 ErrMax= 2.13D-07  0.00D+00 EMaxC= 1.00D-01 BMatC= 1.72D-11 BMatP= 9.02D-11
 IDIUse=1 WtCom= 1.00D+00 WtEn= 0.00D+00
 Coeff-Com: -0.154D-03 0.216D-03 0.559D-03 0.799D-02 0.918D-02-0.232D-01
 Coeff-Com: -0.467D-01 0.134D-01 0.322D+00 0.717D+00
 Coeff:     -0.154D-03 0.216D-03 0.559D-03 0.799D-02 0.918D-02-0.232D-01
 Coeff:     -0.467D-01 0.134D-01 0.322D+00 0.717D+00
 Gap=     0.207 Goal=   None    Shift=    0.000
 RMSDP=1.35D-08 MaxDP=1.37D-06 DE=-8.73D-11 OVMax= 2.16D-06

 Cycle  11  Pass 1  IDiag  1:
 E= -1199.81769892416     Delta-E=        0.000000000005 Rises=F Damp=F
 DIIS: error= 4.31D-08 at cycle  11 NSaved=  11.
 NSaved=11 IEnMin=10 EnMin= -1199.81769892417     IErMin=11 ErrMin= 4.31D-08
 ErrMax= 4.31D-08  0.00D+00 EMaxC= 1.00D-01 BMatC= 1.79D-12 BMatP= 1.72D-11
 IDIUse=1 WtCom= 1.00D+00 WtEn= 0.00D+00
 Coeff-Com:  0.393D-04-0.113D-02-0.105D-03 0.443D-02 0.798D-02-0.490D-02
 Coeff-Com: -0.292D-01-0.441D-01-0.192D-01 0.238D+00 0.849D+00
 Coeff:      0.393D-04-0.113D-02-0.105D-03 0.443D-02 0.798D-02-0.490D-02
 Coeff:     -0.292D-01-0.441D-01-0.192D-01 0.238D+00 0.849D+00
 Gap=     0.207 Goal=   None    Shift=    0.000
 RMSDP=8.06D-09 MaxDP=4.70D-07 DE= 4.55D-12 OVMax= 1.35D-06

 SCF Done:  E(RM062X) =  -1199.81769892     A.U. after   11 cycles
            NFock= 11  Conv=0.81D-08     -V/T= 2.0028
 KE= 1.196412048413D+03 PE=-4.682412868123D+03 EE= 1.368428110077D+03
 Leave Link  502 at Sat May 24 04:10:02 2025, MaxMem=  3758096384 cpu:             130.0 elap:              32.8
 (Enter /apps/easybuild-2022/easybuild/software/Compiler/NVHPC/22.11-CUDA-11.7.0/Gaussian/g16c01-CUDA-11.7.0/g16/l508.exe)
 QCSCF skips out because SCF is already converged.
 Leave Link  508 at Sat May 24 04:10:02 2025, MaxMem=  3758096384 cpu:               0.1 elap:               0.0
 (Enter /apps/easybuild-2022/easybuild/software/Compiler/NVHPC/22.11-CUDA-11.7.0/Gaussian/g16c01-CUDA-11.7.0/g16/l801.exe)
 DoSCS=F DFT=T ScalE2(SS,OS)=  1.000000  1.000000
 Range of M.O.s used for correlation:     1   366
 NBasis=   366 NAE=    49 NBE=    49 NFC=     0 NFV=     0
 NROrb=    366 NOA=    49 NOB=    49 NVA=   317 NVB=   317

 **** Warning!!: The largest alpha MO coefficient is  0.15314147D+02

 Leave Link  801 at Sat May 24 04:10:02 2025, MaxMem=  3758096384 cpu:               0.0 elap:               0.0
 (Enter /apps/easybuild-2022/easybuild/software/Compiler/NVHPC/22.11-CUDA-11.7.0/Gaussian/g16c01-CUDA-11.7.0/g16/l1101.exe)
 Leave Link 1101 at Sat May 24 04:10:02 2025, MaxMem=  3758096384 cpu:               0.0 elap:               0.0
 (Enter /apps/easybuild-2022/easybuild/software/Compiler/NVHPC/22.11-CUDA-11.7.0/Gaussian/g16c01-CUDA-11.7.0/g16/l1102.exe)
 Symmetrizing basis deriv contribution to polar:
 IMax=3 JMax=2 DiffMx= 0.00D+00
 Leave Link 1102 at Sat May 24 04:10:02 2025, MaxMem=  3758096384 cpu:               0.1 elap:               0.1
 (Enter /apps/easybuild-2022/easybuild/software/Compiler/NVHPC/22.11-CUDA-11.7.0/Gaussian/g16c01-CUDA-11.7.0/g16/l1110.exe)
 Leave Link 1110 at Sat May 24 04:10:02 2025, MaxMem=  3758096384 cpu:               0.1 elap:               0.0
 (Enter /apps/easybuild-2022/easybuild/software/Compiler/NVHPC/22.11-CUDA-11.7.0/Gaussian/g16c01-CUDA-11.7.0/g16/l1002.exe)
 Minotr:  Closed shell wavefunction.
 Leave Link 1002 at Sat May 24 04:10:02 2025, MaxMem=  3758096384 cpu:               0.1 elap:               0.0
 (Enter /apps/easybuild-2022/easybuild/software/Compiler/NVHPC/22.11-CUDA-11.7.0/Gaussian/g16c01-CUDA-11.7.0/g16/l701.exe)
 ... and contract with generalized density number  0.
 Compute integral first derivatives.
   1 Symmetry operations used in ECPInt.
 ECPInt:  NShTT=    8515 NPrTT=   27988 LenC2=    7933 LenP2D=   19248.
 LDataN:  DoStor=T MaxTD1= 7 Len=  274
 Leave Link  701 at Sat May 24 04:10:02 2025, MaxMem=  3758096384 cpu:               0.4 elap:               0.1
 (Enter /apps/easybuild-2022/easybuild/software/Compiler/NVHPC/22.11-CUDA-11.7.0/Gaussian/g16c01-CUDA-11.7.0/g16/l702.exe)
 L702 exits ... SP integral derivatives will be done elsewhere.
 Leave Link  702 at Sat May 24 04:10:02 2025, MaxMem=  3758096384 cpu:               0.1 elap:               0.0
 (Enter /apps/easybuild-2022/easybuild/software/Compiler/NVHPC/22.11-CUDA-11.7.0/Gaussian/g16c01-CUDA-11.7.0/g16/l703.exe)
 Integral derivatives from FoFJK, PRISM(SPDF).
 Compute integral first derivatives, UseDBF=F ICtDFT=           0.
 Calling FoFJK, ICntrl=      2127 FMM=F ISym2X=0 I1Cent= 0 IOpClX= 0 NMat=1 NMatS=1 NMatT=0.
 FoFJK:  IHMeth= 1 ICntrl=    2127 DoSepK=F KAlg= 0 I1Cent=           0 FoldK=F
 IRaf=         0 NMat=       1 IRICut=       1 DoRegI=T DoRafI=F ISym2E= 0 IDoP0=0 IntGTp=1.
 FoFCou: FMM=F IPFlag=           0 FMFlag=      100000 FMFlg1=         800
         NFxFlg=           0 DoJE=F BraDBF=F KetDBF=F FulRan=T
         wScrn=  0.000000 ICntrl=      2127 IOpCl=  0 I1Cent=           0 NGrid=           0
         NMat0=    1 NMatS0=      1 NMatT0=    0 NMatD0=    1 NMtDS0=    0 NMtDT0=    0
 Symmetry not used in FoFCou.
 Leave Link  703 at Sat May 24 04:10:12 2025, MaxMem=  3758096384 cpu:              74.2 elap:               9.8
 (Enter /apps/easybuild-2022/easybuild/software/Compiler/NVHPC/22.11-CUDA-11.7.0/Gaussian/g16c01-CUDA-11.7.0/g16/l716.exe)
 Dipole        =-1.76816071D-01 5.61629200D-01-7.28639476D-01
 Polarizability= 0.00000000D+00 0.00000000D+00 0.00000000D+00
                 0.00000000D+00 0.00000000D+00 0.00000000D+00
 -------------------------------------------------------------------
 Center     Atomic                   Forces (Hartrees/Bohr)
 Number     Number              X              Y              Z
 -------------------------------------------------------------------
      1        6          -0.000010077    0.000046280   -0.000000168
      2        6          -0.005281675    0.022638432   -0.007700492
      3        9           0.000009679    0.000049263   -0.000030290
      4        9           0.000046707    0.000039461    0.000006167
      5       16           0.012185333   -0.052300610    0.017780522
      6        8           0.000131155   -0.000084412    0.000025886
      7        8           0.000117286   -0.000092623    0.000002134
      8        8          -0.007198888    0.029579691   -0.010038548
      9        9          -0.000002900    0.000037070   -0.000012705
     10        9          -0.000000729    0.000010527   -0.000009986
     11        9           0.000010516    0.000070909   -0.000011758
     12        1          -0.000006406    0.000006012   -0.000010761
 -------------------------------------------------------------------
 Cartesian Forces:  Max     0.052300610 RMS     0.011579788
 Leave Link  716 at Sat May 24 04:10:12 2025, MaxMem=  3758096384 cpu:               0.1 elap:               0.0
 (Enter /apps/easybuild-2022/easybuild/software/Compiler/NVHPC/22.11-CUDA-11.7.0/Gaussian/g16c01-CUDA-11.7.0/g16/l123.exe)
 IRC-IRC-IRC-IRC-IRC-IRC-IRC-IRC-IRC-IRC-IRC-IRC-IRC-IRC-IRC-IRC-IRC-IRC
 Pt  1 Step number   1 out of a maximum of  20
 Using modified Bulirsch-Stoer corrector integration.
   Using distance weighted interpolants to fit PES.
 PreDWI: IReCr0= 2 IReCr1= 1 IReCr2= 1 IReCr3= 1
 Modified Bulirsch-Stoer Extrapolation Cycles:
    EPS =    0.000010000000000
    Cycle     1 NS=    48
      PEZero:  N= 2 I= 1 D=  1.87D-04 Err=  3.63D-04
    Cycle     2 NS=    64 Truncation Error =  0.000363131
      PEZero:  N= 3 I= 2 D=  1.87D-04 Err=  2.42D-04
      PEZero:  N= 3 I= 1 D=  3.75D-04 Err=  1.46D-07
    Cycle     3 NS=    96 Truncation Error =  0.000000146
 BS completed in    3 cycles and     208 integration steps.
 Maximum DWI energy   std dev =  0.000000061 at pt    -1
 Maximum DWI gradient std dev =  0.000270578 at pt    -1
 SUMMARY OF CORRECTOR INTEGRATION:
   Predictor End Point Energy = -1199.817699
   Old End Point Energy       = -1199.817699
   Corrected End Point Energy = -1199.817845
   Predictor End-Start Dist.  =     0.071957
   Old End-Start Dist.        =     0.071957
   New End-Start Dist.        =     0.066668
   New End-Old End Dist.      =     0.027065
 CORRECTOR INTEGRATION CONVERGENCE:
   Recorrection delta-x convergence threshold:    0.010000
   Delta-x Convergence NOT Met
 IRC-IRC-IRC-IRC-IRC-IRC-IRC-IRC-IRC-IRC-IRC-IRC-IRC-IRC-IRC-IRC-IRC-IRC
 Leave Link  123 at Sat May 24 04:10:12 2025, MaxMem=  3758096384 cpu:               0.1 elap:               0.1
 (Enter /apps/easybuild-2022/easybuild/software/Compiler/NVHPC/22.11-CUDA-11.7.0/Gaussian/g16c01-CUDA-11.7.0/g16/l202.exe)
                          Input orientation:                          
 ---------------------------------------------------------------------
 Center     Atomic      Atomic             Coordinates (Angstroms)
 Number     Number       Type             X           Y           Z
 ---------------------------------------------------------------------
      1          6           0       -0.902639   -1.121313    0.104796
      2          6           0       -0.792511    0.437604   -0.099757
      3          9           0       -1.305561    0.764638   -1.253956
      4          9           0       -1.367799    1.095058    0.861022
      5         16           0        1.253907    0.921301   -0.083335
      6          8           0        1.140346    0.695326    1.343690
      7          8           0        1.305434   -0.078909   -1.151257
      8          8           0        2.826582    1.308213   -0.073204
      9          9           0       -0.817704   -1.732345   -1.055466
     10          9           0       -0.028182   -1.615217    0.942090
     11          9           0       -2.127982   -1.312882    0.593953
     12          1           0        3.184201    1.164962   -0.960703
 ---------------------------------------------------------------------
                    Distance matrix (angstroms):
                    1          2          3          4          5
     1  C    0.000000
     2  C    1.576132   0.000000
     3  F    2.359102   1.304740   0.000000
     4  F    2.387583   1.298576   2.141538   0.000000
     5  S    2.976299   2.102869   2.818825   2.792014   0.000000
     6  O    3.001470   2.426087   3.568617   2.585255   1.449261
     7  O    2.745881   2.402875   2.745799   3.545933   1.464081
     8  O    4.454366   3.722432   4.331773   4.302447   1.619602
     9  F    1.314071   2.371221   2.551925   3.459731   3.504061
    10  F    1.307546   2.425638   3.481095   3.024357   3.021452
    11  F    1.333206   2.308445   2.899523   2.539169   4.109436
    12  H    4.802563   4.133342   4.517103   4.903496   2.134288
                    6          7          8          9         10
     6  O    0.000000
     7  O    2.617528   0.000000
     8  O    2.286178   2.323833   0.000000
     9  F    3.934907   2.692720   4.846716   0.000000
    10  F    2.620182   2.919054   4.210339   2.151115   0.000000
    11  F    3.908577   4.044353   5.644727   2.147873   2.149829
    12  H    3.115787   2.261259   0.967506   4.941520   4.655044
                   11         12
    11  F    0.000000
    12  H    6.064319   0.000000
 Symmetry turned off by external request.
 Stoichiometry    C2HF5O3S
 Rotational constants (GHZ):           1.6624604           0.7773217           0.7479988
 Leave Link  202 at Sat May 24 04:10:12 2025, MaxMem=  3758096384 cpu:               0.1 elap:               0.0
 (Enter /apps/easybuild-2022/easybuild/software/Compiler/NVHPC/22.11-CUDA-11.7.0/Gaussian/g16c01-CUDA-11.7.0/g16/l301.exe)
 Standard basis: def2TZVPP (5D, 7F)
 Ernie: Thresh=  0.10000D-02 Tol=  0.10000D-05 Strict=F.
   366 basis functions,   596 primitive gaussians,   423 cartesian basis functions
    49 alpha electrons       49 beta electrons
       nuclear repulsion energy       917.7239022283 Hartrees.
 IExCor= 4336 DFT=T Ex+Corr=M062X ExCW=0 ScaHFX=  0.540000
 ScaDFX=  1.000000  1.000000  1.000000  1.000000 ScalE2=  1.000000  1.000000
 IRadAn=      5 IRanWt=     -1 IRanGd=            0 ICorTp=0 IEmpDi=  4
 NAtoms=   12 NActive=   12 NUniq=   12 SFac= 1.00D+00 NAtFMM=   60 NAOKFM=F Big=F
 Integral buffers will be    131072 words long.
 Raffenetti 2 integral format.
 Two-electron integral symmetry is turned off.
 Leave Link  301 at Sat May 24 04:10:13 2025, MaxMem=  3758096384 cpu:               0.1 elap:               0.0
 (Enter /apps/easybuild-2022/easybuild/software/Compiler/NVHPC/22.11-CUDA-11.7.0/Gaussian/g16c01-CUDA-11.7.0/g16/l302.exe)
 NPDir=0 NMtPBC=     1 NCelOv=     1 NCel=       1 NClECP=     1 NCelD=      1
         NCelK=      1 NCelE2=     1 NClLst=     1 CellRange=     0.0.
 One-electron integrals computed using PRISM.
   1 Symmetry operations used in ECPInt.
 ECPInt:  NShTT=    8515 NPrTT=   27988 LenC2=    7933 LenP2D=   19248.
 LDataN:  DoStor=T MaxTD1= 6 Len=  172
 NBasis=   366 RedAO= T EigKep=  4.40D-04  NBF=   366
 NBsUse=   366 1.00D-06 EigRej= -1.00D+00 NBFU=   366
 Precomputing XC quadrature grid using
 IXCGrd= 4 IRadAn=           5 IRanWt=          -1 IRanGd=           0 AccXCQ= 0.00D+00.
 Generated NRdTot=       0 NPtTot=           0 NUsed=           0 NTot=          32
 NSgBfM=   420   420   420   420   420 MxSgAt=    12 MxSgA2=    12.
 Leave Link  302 at Sat May 24 04:10:13 2025, MaxMem=  3758096384 cpu:               0.6 elap:               0.1
 (Enter /apps/easybuild-2022/easybuild/software/Compiler/NVHPC/22.11-CUDA-11.7.0/Gaussian/g16c01-CUDA-11.7.0/g16/l303.exe)
 DipDrv:  MaxL=1.
 Leave Link  303 at Sat May 24 04:10:13 2025, MaxMem=  3758096384 cpu:               0.1 elap:               0.1
 (Enter /apps/easybuild-2022/easybuild/software/Compiler/NVHPC/22.11-CUDA-11.7.0/Gaussian/g16c01-CUDA-11.7.0/g16/l401.exe)
 Initial guess from the checkpoint file:  "2003846667223680600001_r12_insertion_R_8_5_6_IRC_F.chk"
 B after Tr=     0.000024   -0.000007    0.000004
         Rot=    1.000000    0.000003    0.000005    0.000009 Ang=   0.00 deg.
 Guess basis will be translated and rotated to current coordinates.
 JPrj=2 DoOrth=T DoCkMO=T.
 Generating alternative initial guess.
 ExpMin= 9.52D-02 ExpMax= 6.07D+04 ExpMxC= 2.07D+03 IAcc=3 IRadAn=         5 AccDes= 0.00D+00
 Harris functional with IExCor= 1009 and IRadAn=       5 diagonalized for initial guess.
 HarFok:  IExCor= 1009 AccDes= 0.00D+00 IRadAn=         5 IDoV= 1 UseB2=F ITyADJ=14
 ICtDFT=  3500011 ScaDFX=  1.000000  1.000000  1.000000  1.000000
 FoFCou: FMM=F IPFlag=           0 FMFlag=      100000 FMFlg1=           0
         NFxFlg=           0 DoJE=T BraDBF=F KetDBF=T FulRan=T
         wScrn=  0.000000 ICntrl=       500 IOpCl=  0 I1Cent=   200000004 NGrid=           0
         NMat0=    1 NMatS0=      1 NMatT0=    0 NMatD0=    1 NMtDS0=    0 NMtDT0=    0
 Symmetry not used in FoFCou.
 Harris En= -1199.25593365504    
 Leave Link  401 at Sat May 24 04:10:14 2025, MaxMem=  3758096384 cpu:               3.6 elap:               0.8
 (Enter /apps/easybuild-2022/easybuild/software/Compiler/NVHPC/22.11-CUDA-11.7.0/Gaussian/g16c01-CUDA-11.7.0/g16/l502.exe)
 Keep R1 ints in memory in canonical form, NReq=2293446996.
 FoFCou: FMM=F IPFlag=           0 FMFlag=           0 FMFlg1=           0
         NFxFlg=           0 DoJE=F BraDBF=F KetDBF=F FulRan=T
         wScrn=  0.000000 ICntrl=       600 IOpCl=  0 I1Cent=           0 NGrid=           0
         NMat0=    1 NMatS0=  67161 NMatT0=    0 NMatD0=    1 NMtDS0=    0 NMtDT0=    0
 Symmetry not used in FoFCou.
 Two-electron integral symmetry not used.
 Closed shell SCF:
 Using DIIS extrapolation, IDIIS=  1040.
 NGot=  3758096384 LenX=  1502398672 LenY=  1502219302
 Requested convergence on RMS density matrix=1.00D-08 within  32 cycles.
 Requested convergence on MAX density matrix=1.00D-06.
 Requested convergence on             energy=1.00D-06.
 No special actions if energy rises.
 Integral accuracy reduced to 1.0D-05 until final iterations.

 Cycle   1  Pass 0  IDiag  1:
 E= -1199.81789417351    
 DIIS: error= 1.14D-04 at cycle   1 NSaved=   1.
 NSaved= 1 IEnMin= 1 EnMin= -1199.81789417351     IErMin= 1 ErrMin= 1.14D-04
 ErrMax= 1.14D-04  0.00D+00 EMaxC= 1.00D-01 BMatC= 1.24D-05 BMatP= 1.24D-05
 IDIUse=3 WtCom= 9.99D-01 WtEn= 1.14D-03
 Coeff-Com:  0.100D+01
 Coeff-En:   0.100D+01
 Coeff:      0.100D+01
 Gap=     1.042 Goal=   None    Shift=    0.000
 RMSDP=1.86D-05 MaxDP=1.00D-03              OVMax= 1.03D-03

 Cycle   2  Pass 0  IDiag  1:
 E= -1199.81790542713     Delta-E=       -0.000011253627 Rises=F Damp=F
 DIIS: error= 3.78D-05 at cycle   2 NSaved=   2.
 NSaved= 2 IEnMin= 2 EnMin= -1199.81790542713     IErMin= 2 ErrMin= 3.78D-05
 ErrMax= 3.78D-05  0.00D+00 EMaxC= 1.00D-01 BMatC= 1.83D-06 BMatP= 1.24D-05
 IDIUse=1 WtCom= 1.00D+00 WtEn= 0.00D+00
 Coeff-Com:  0.125D+00 0.875D+00
 Coeff:      0.125D+00 0.875D+00
 Gap=     0.207 Goal=   None    Shift=    0.000
 RMSDP=4.43D-06 MaxDP=1.58D-04 DE=-1.13D-05 OVMax= 4.64D-04

 Initial convergence to 1.0D-05 achieved.  Increase integral accuracy.
 Cycle   3  Pass 1  IDiag  1:
 E= -1199.81784269376     Delta-E=        0.000062733371 Rises=F Damp=F
 DIIS: error= 5.04D-05 at cycle   1 NSaved=   1.
 NSaved= 1 IEnMin= 1 EnMin= -1199.81784269376     IErMin= 1 ErrMin= 5.04D-05
 ErrMax= 5.04D-05  0.00D+00 EMaxC= 1.00D-01 BMatC= 2.60D-06 BMatP= 2.60D-06
 IDIUse=1 WtCom= 1.00D+00 WtEn= 0.00D+00
 Coeff-Com:  0.100D+01
 Coeff:      0.100D+01
 Gap=     0.208 Goal=   None    Shift=    0.000
 RMSDP=4.43D-06 MaxDP=1.58D-04 DE= 6.27D-05 OVMax= 7.42D-04

 Cycle   4  Pass 1  IDiag  1:
 E= -1199.81784194756     Delta-E=        0.000000746199 Rises=F Damp=F
 DIIS: error= 6.35D-05 at cycle   2 NSaved=   2.
 NSaved= 2 IEnMin= 1 EnMin= -1199.81784269376     IErMin= 1 ErrMin= 5.04D-05
 ErrMax= 6.35D-05  0.00D+00 EMaxC= 1.00D-01 BMatC= 4.08D-06 BMatP= 2.60D-06
 IDIUse=1 WtCom= 1.00D+00 WtEn= 0.00D+00
 Coeff-Com:  0.562D+00 0.438D+00
 Coeff:      0.562D+00 0.438D+00
 Gap=     0.207 Goal=   None    Shift=    0.000
 RMSDP=3.73D-06 MaxDP=1.51D-04 DE= 7.46D-07 OVMax= 3.91D-04

 Cycle   5  Pass 1  IDiag  1:
 E= -1199.81784465590     Delta-E=       -0.000002708340 Rises=F Damp=F
 DIIS: error= 8.11D-06 at cycle   3 NSaved=   3.
 NSaved= 3 IEnMin= 3 EnMin= -1199.81784465590     IErMin= 3 ErrMin= 8.11D-06
 ErrMax= 8.11D-06  0.00D+00 EMaxC= 1.00D-01 BMatC= 4.75D-08 BMatP= 2.60D-06
 IDIUse=1 WtCom= 1.00D+00 WtEn= 0.00D+00
 Coeff-Com: -0.942D-04 0.790D-01 0.921D+00
 Coeff:     -0.942D-04 0.790D-01 0.921D+00
 Gap=     0.207 Goal=   None    Shift=    0.000
 RMSDP=9.04D-07 MaxDP=3.89D-05 DE=-2.71D-06 OVMax= 8.20D-05

 Cycle   6  Pass 1  IDiag  1:
 E= -1199.81784468326     Delta-E=       -0.000000027357 Rises=F Damp=F
 DIIS: error= 4.33D-06 at cycle   4 NSaved=   4.
 NSaved= 4 IEnMin= 4 EnMin= -1199.81784468326     IErMin= 4 ErrMin= 4.33D-06
 ErrMax= 4.33D-06  0.00D+00 EMaxC= 1.00D-01 BMatC= 2.65D-08 BMatP= 4.75D-08
 IDIUse=1 WtCom= 1.00D+00 WtEn= 0.00D+00
 Coeff-Com: -0.300D-01 0.189D-01 0.541D+00 0.470D+00
 Coeff:     -0.300D-01 0.189D-01 0.541D+00 0.470D+00
 Gap=     0.207 Goal=   None    Shift=    0.000
 RMSDP=3.01D-07 MaxDP=1.54D-05 DE=-2.74D-08 OVMax= 3.89D-05

 Cycle   7  Pass 1  IDiag  1:
 E= -1199.81784470098     Delta-E=       -0.000000017722 Rises=F Damp=F
 DIIS: error= 7.95D-07 at cycle   5 NSaved=   5.
 NSaved= 5 IEnMin= 5 EnMin= -1199.81784470098     IErMin= 5 ErrMin= 7.95D-07
 ErrMax= 7.95D-07  0.00D+00 EMaxC= 1.00D-01 BMatC= 9.54D-10 BMatP= 2.65D-08
 IDIUse=1 WtCom= 1.00D+00 WtEn= 0.00D+00
 Coeff-Com: -0.806D-02-0.561D-02 0.696D-01 0.146D+00 0.798D+00
 Coeff:     -0.806D-02-0.561D-02 0.696D-01 0.146D+00 0.798D+00
 Gap=     0.207 Goal=   None    Shift=    0.000
 RMSDP=1.25D-07 MaxDP=4.76D-06 DE=-1.77D-08 OVMax= 1.49D-05

 Cycle   8  Pass 1  IDiag  1:
 E= -1199.81784470213     Delta-E=       -0.000000001150 Rises=F Damp=F
 DIIS: error= 5.29D-07 at cycle   6 NSaved=   6.
 NSaved= 6 IEnMin= 6 EnMin= -1199.81784470213     IErMin= 6 ErrMin= 5.29D-07
 ErrMax= 5.29D-07  0.00D+00 EMaxC= 1.00D-01 BMatC= 2.79D-10 BMatP= 9.54D-10
 IDIUse=1 WtCom= 1.00D+00 WtEn= 0.00D+00
 Coeff-Com:  0.193D-02-0.822D-02-0.760D-01-0.254D-01 0.398D+00 0.710D+00
 Coeff:      0.193D-02-0.822D-02-0.760D-01-0.254D-01 0.398D+00 0.710D+00
 Gap=     0.207 Goal=   None    Shift=    0.000
 RMSDP=7.32D-08 MaxDP=4.05D-06 DE=-1.15D-09 OVMax= 1.51D-05

 Cycle   9  Pass 1  IDiag  1:
 E= -1199.81784470244     Delta-E=       -0.000000000313 Rises=F Damp=F
 DIIS: error= 2.97D-07 at cycle   7 NSaved=   7.
 NSaved= 7 IEnMin= 7 EnMin= -1199.81784470244     IErMin= 7 ErrMin= 2.97D-07
 ErrMax= 2.97D-07  0.00D+00 EMaxC= 1.00D-01 BMatC= 5.78D-11 BMatP= 2.79D-10
 IDIUse=1 WtCom= 1.00D+00 WtEn= 0.00D+00
 Coeff-Com:  0.195D-02-0.359D-02-0.428D-01-0.308D-01 0.591D-01 0.354D+00
 Coeff-Com:  0.663D+00
 Coeff:      0.195D-02-0.359D-02-0.428D-01-0.308D-01 0.591D-01 0.354D+00
 Coeff:      0.663D+00
 Gap=     0.207 Goal=   None    Shift=    0.000
 RMSDP=3.46D-08 MaxDP=1.80D-06 DE=-3.13D-10 OVMax= 7.62D-06

 Cycle  10  Pass 1  IDiag  1:
 E= -1199.81784470248     Delta-E=       -0.000000000035 Rises=F Damp=F
 DIIS: error= 1.24D-07 at cycle   8 NSaved=   8.
 NSaved= 8 IEnMin= 8 EnMin= -1199.81784470248     IErMin= 8 ErrMin= 1.24D-07
 ErrMax= 1.24D-07  0.00D+00 EMaxC= 1.00D-01 BMatC= 1.36D-11 BMatP= 5.78D-11
 IDIUse=1 WtCom= 1.00D+00 WtEn= 0.00D+00
 Coeff-Com:  0.413D-03 0.390D-04-0.755D-03-0.823D-02-0.982D-01-0.205D-02
 Coeff-Com:  0.325D+00 0.784D+00
 Coeff:      0.413D-03 0.390D-04-0.755D-03-0.823D-02-0.982D-01-0.205D-02
 Coeff:      0.325D+00 0.784D+00
 Gap=     0.207 Goal=   None    Shift=    0.000
 RMSDP=2.24D-08 MaxDP=8.99D-07 DE=-3.46D-11 OVMax= 4.47D-06

 Cycle  11  Pass 1  IDiag  1:
 E= -1199.81784470250     Delta-E=       -0.000000000025 Rises=F Damp=F
 DIIS: error= 3.94D-08 at cycle   9 NSaved=   9.
 NSaved= 9 IEnMin= 9 EnMin= -1199.81784470250     IErMin= 9 ErrMin= 3.94D-08
 ErrMax= 3.94D-08  0.00D+00 EMaxC= 1.00D-01 BMatC= 2.18D-12 BMatP= 1.36D-11
 IDIUse=1 WtCom= 1.00D+00 WtEn= 0.00D+00
 Coeff-Com: -0.279D-03 0.760D-03 0.104D-01 0.532D-02-0.626D-01-0.692D-01
 Coeff-Com:  0.383D-02 0.339D+00 0.772D+00
 Coeff:     -0.279D-03 0.760D-03 0.104D-01 0.532D-02-0.626D-01-0.692D-01
 Coeff:      0.383D-02 0.339D+00 0.772D+00
 Gap=     0.207 Goal=   None    Shift=    0.000
 RMSDP=1.05D-08 MaxDP=3.86D-07 DE=-2.50D-11 OVMax= 2.82D-06

 Cycle  12  Pass 1  IDiag  1:
 E= -1199.81784470255     Delta-E=       -0.000000000045 Rises=F Damp=F
 DIIS: error= 2.36D-08 at cycle  10 NSaved=  10.
 NSaved=10 IEnMin=10 EnMin= -1199.81784470255     IErMin=10 ErrMin= 2.36D-08
 ErrMax= 2.36D-08  0.00D+00 EMaxC= 1.00D-01 BMatC= 3.85D-13 BMatP= 2.18D-12
 IDIUse=1 WtCom= 1.00D+00 WtEn= 0.00D+00
 Coeff-Com: -0.131D-03 0.179D-03 0.253D-02 0.329D-02-0.153D-02-0.120D-01
 Coeff-Com: -0.528D-01-0.942D-01 0.216D+00 0.938D+00
 Coeff:     -0.131D-03 0.179D-03 0.253D-02 0.329D-02-0.153D-02-0.120D-01
 Coeff:     -0.528D-01-0.942D-01 0.216D+00 0.938D+00
 Gap=     0.207 Goal=   None    Shift=    0.000
 RMSDP=5.31D-09 MaxDP=2.23D-07 DE=-4.50D-11 OVMax= 1.29D-06

 SCF Done:  E(RM062X) =  -1199.81784470     A.U. after   12 cycles
            NFock= 12  Conv=0.53D-08     -V/T= 2.0028
 KE= 1.196418065899D+03 PE=-4.682357234205D+03 EE= 1.368397421375D+03
 Leave Link  502 at Sat May 24 04:10:47 2025, MaxMem=  3758096384 cpu:             129.1 elap:              33.9
 (Enter /apps/easybuild-2022/easybuild/software/Compiler/NVHPC/22.11-CUDA-11.7.0/Gaussian/g16c01-CUDA-11.7.0/g16/l508.exe)
 QCSCF skips out because SCF is already converged.
 Leave Link  508 at Sat May 24 04:10:47 2025, MaxMem=  3758096384 cpu:               0.1 elap:               0.0
 (Enter /apps/easybuild-2022/easybuild/software/Compiler/NVHPC/22.11-CUDA-11.7.0/Gaussian/g16c01-CUDA-11.7.0/g16/l801.exe)
 DoSCS=F DFT=T ScalE2(SS,OS)=  1.000000  1.000000
 Range of M.O.s used for correlation:     1   366
 NBasis=   366 NAE=    49 NBE=    49 NFC=     0 NFV=     0
 NROrb=    366 NOA=    49 NOB=    49 NVA=   317 NVB=   317

 **** Warning!!: The largest alpha MO coefficient is  0.15234597D+02

 Leave Link  801 at Sat May 24 04:10:47 2025, MaxMem=  3758096384 cpu:               0.1 elap:               0.0
 (Enter /apps/easybuild-2022/easybuild/software/Compiler/NVHPC/22.11-CUDA-11.7.0/Gaussian/g16c01-CUDA-11.7.0/g16/l1101.exe)
 Leave Link 1101 at Sat May 24 04:10:48 2025, MaxMem=  3758096384 cpu:               0.0 elap:               0.0
 (Enter /apps/easybuild-2022/easybuild/software/Compiler/NVHPC/22.11-CUDA-11.7.0/Gaussian/g16c01-CUDA-11.7.0/g16/l1102.exe)
 Symmetrizing basis deriv contribution to polar:
 IMax=3 JMax=2 DiffMx= 0.00D+00
 Leave Link 1102 at Sat May 24 04:10:48 2025, MaxMem=  3758096384 cpu:               0.1 elap:               0.0
 (Enter /apps/easybuild-2022/easybuild/software/Compiler/NVHPC/22.11-CUDA-11.7.0/Gaussian/g16c01-CUDA-11.7.0/g16/l1110.exe)
 Leave Link 1110 at Sat May 24 04:10:48 2025, MaxMem=  3758096384 cpu:               0.1 elap:               0.0
 (Enter /apps/easybuild-2022/easybuild/software/Compiler/NVHPC/22.11-CUDA-11.7.0/Gaussian/g16c01-CUDA-11.7.0/g16/l1002.exe)
 Minotr:  Closed shell wavefunction.
 Leave Link 1002 at Sat May 24 04:10:48 2025, MaxMem=  3758096384 cpu:               0.1 elap:               0.0
 (Enter /apps/easybuild-2022/easybuild/software/Compiler/NVHPC/22.11-CUDA-11.7.0/Gaussian/g16c01-CUDA-11.7.0/g16/l701.exe)
 ... and contract with generalized density number  0.
 Compute integral first derivatives.
   1 Symmetry operations used in ECPInt.
 ECPInt:  NShTT=    8515 NPrTT=   27988 LenC2=    7933 LenP2D=   19248.
 LDataN:  DoStor=T MaxTD1= 7 Len=  274
 Leave Link  701 at Sat May 24 04:10:48 2025, MaxMem=  3758096384 cpu:               0.8 elap:               0.2
 (Enter /apps/easybuild-2022/easybuild/software/Compiler/NVHPC/22.11-CUDA-11.7.0/Gaussian/g16c01-CUDA-11.7.0/g16/l702.exe)
 L702 exits ... SP integral derivatives will be done elsewhere.
 Leave Link  702 at Sat May 24 04:10:48 2025, MaxMem=  3758096384 cpu:               0.1 elap:               0.0
 (Enter /apps/easybuild-2022/easybuild/software/Compiler/NVHPC/22.11-CUDA-11.7.0/Gaussian/g16c01-CUDA-11.7.0/g16/l703.exe)
 Integral derivatives from FoFJK, PRISM(SPDF).
 Compute integral first derivatives, UseDBF=F ICtDFT=           0.
 Calling FoFJK, ICntrl=      2127 FMM=F ISym2X=0 I1Cent= 0 IOpClX= 0 NMat=1 NMatS=1 NMatT=0.
 FoFJK:  IHMeth= 1 ICntrl=    2127 DoSepK=F KAlg= 0 I1Cent=           0 FoldK=F
 IRaf=         0 NMat=       1 IRICut=       1 DoRegI=T DoRafI=F ISym2E= 0 IDoP0=0 IntGTp=1.
 FoFCou: FMM=F IPFlag=           0 FMFlag=      100000 FMFlg1=         800
         NFxFlg=           0 DoJE=F BraDBF=F KetDBF=F FulRan=T
         wScrn=  0.000000 ICntrl=      2127 IOpCl=  0 I1Cent=           0 NGrid=           0
         NMat0=    1 NMatS0=      1 NMatT0=    0 NMatD0=    1 NMtDS0=    0 NMtDT0=    0
 Symmetry not used in FoFCou.
 Leave Link  703 at Sat May 24 04:10:57 2025, MaxMem=  3758096384 cpu:              71.5 elap:               9.2
 (Enter /apps/easybuild-2022/easybuild/software/Compiler/NVHPC/22.11-CUDA-11.7.0/Gaussian/g16c01-CUDA-11.7.0/g16/l716.exe)
 Dipole        =-1.81359956D-01 5.60102854D-01-7.28996204D-01
 Polarizability= 0.00000000D+00 0.00000000D+00 0.00000000D+00
                 0.00000000D+00 0.00000000D+00 0.00000000D+00
 -------------------------------------------------------------------
 Center     Atomic                   Forces (Hartrees/Bohr)
 Number     Number              X              Y              Z
 -------------------------------------------------------------------
      1        6          -0.000024955    0.000859529   -0.000154188
      2        6          -0.004101415    0.020504455   -0.006908146
      3        9          -0.000604135    0.000631370   -0.001045524
      4        9          -0.000459095    0.000714757    0.000421757
      5       16           0.011505823   -0.051136030    0.017220057
      6        8           0.000472613   -0.000316811    0.000825378
      7        8           0.000577935   -0.000661314   -0.000382116
      8        8          -0.007360199    0.029240708   -0.009803914
      9        9           0.000000890    0.000030224   -0.000004332
     10        9          -0.000007975    0.000067428   -0.000036952
     11        9           0.000042231    0.000050711   -0.000003409
     12        1          -0.000041719    0.000014973   -0.000128610
 -------------------------------------------------------------------
 Cartesian Forces:  Max     0.051136030 RMS     0.011229382
 Leave Link  716 at Sat May 24 04:10:57 2025, MaxMem=  3758096384 cpu:               0.0 elap:               0.0
 (Enter /apps/easybuild-2022/easybuild/software/Compiler/NVHPC/22.11-CUDA-11.7.0/Gaussian/g16c01-CUDA-11.7.0/g16/l123.exe)
 IRC-IRC-IRC-IRC-IRC-IRC-IRC-IRC-IRC-IRC-IRC-IRC-IRC-IRC-IRC-IRC-IRC-IRC
 Error in corrector energy =          -0.0000000464
 Magnitude of corrector gradient =     0.0673875518
 Magnitude of analytic gradient =      0.0673762906
 Magnitude of difference =             0.0000250927
 Angle between gradients (degrees)=    0.0191
 Pt  1 Step number   2 out of a maximum of  20
 Using modified Bulirsch-Stoer corrector integration.
   Using distance weighted interpolants to fit PES.
 PreDWI: IReCr0= 2 IReCr1= 1 IReCr2= 1 IReCr3= 1
 Modified Bulirsch-Stoer Extrapolation Cycles:
    EPS =    0.000010000000000
    Cycle     1 NS=    48
      PEZero:  N= 2 I= 1 D=  1.87D-04 Err=  3.63D-04
    Cycle     2 NS=    64 Truncation Error =  0.000363060
      PEZero:  N= 3 I= 2 D=  1.87D-04 Err=  2.42D-04
      PEZero:  N= 3 I= 1 D=  3.75D-04 Err=  1.46D-07
    Cycle     3 NS=    96 Truncation Error =  0.000000146
 BS completed in    3 cycles and     208 integration steps.
 Maximum DWI energy   std dev =  0.000000032 at pt    45
 Maximum DWI gradient std dev =  0.000210479 at pt    21
 SUMMARY OF CORRECTOR INTEGRATION:
   Predictor End Point Energy = -1199.817699
   Old End Point Energy       = -1199.817845
   Corrected End Point Energy = -1199.817845
   Predictor End-Start Dist.  =     0.071957
   Old End-Start Dist.        =     0.066668
   New End-Start Dist.        =     0.066670
   New End-Old End Dist.      =     0.000010
 CORRECTOR INTEGRATION CONVERGENCE:
   Recorrection delta-x convergence threshold:    0.010000
   Delta-x Convergence Met
 Point Number:   1          Path Number:   1
                    CURRENT STRUCTURE
                Cartesian Coordinates (Ang):                
 ---------------------------------------------------------------------
 Center     Atomic                     Coordinates (Angstroms)
 Number     Number                        X           Y           Z
 ---------------------------------------------------------------------
      1          6                   -0.902639   -1.121314    0.104796
      2          6                   -0.792510    0.437605   -0.099757
      3          9                   -1.305561    0.764638   -1.253956
      4          9                   -1.367799    1.095058    0.861023
      5         16                    1.253907    0.921301   -0.083335
      6          8                    1.140346    0.695326    1.343690
      7          8                    1.305434   -0.078910   -1.151257
      8          8                    2.826582    1.308213   -0.073204
      9          9                   -0.817704   -1.732344   -1.055466
     10          9                   -0.028182   -1.615217    0.942090
     11          9                   -2.127982   -1.312882    0.593953
     12          1                    3.184201    1.164964   -0.960703
 ---------------------------------------------------------------------
   CHANGE IN THE REACTION COORDINATE =    0.06667
   NET REACTION COORDINATE UP TO THIS POINT =    0.06667
  # OF POINTS ALONG THE PATH =   1
  # OF STEPS =   2

 Calculating another point on the path.
 Point Number  2 in FORWARD path direction.
 Using LQA Reaction Path Following.
   LQA: T_Est iteration completed in    2 iterations.
 IRC-IRC-IRC-IRC-IRC-IRC-IRC-IRC-IRC-IRC-IRC-IRC-IRC-IRC-IRC-IRC-IRC-IRC
 Leave Link  123 at Sat May 24 04:10:57 2025, MaxMem=  3758096384 cpu:               0.1 elap:               0.1
 (Enter /apps/easybuild-2022/easybuild/software/Compiler/NVHPC/22.11-CUDA-11.7.0/Gaussian/g16c01-CUDA-11.7.0/g16/l202.exe)
                          Input orientation:                          
 ---------------------------------------------------------------------
 Center     Atomic      Atomic             Coordinates (Angstroms)
 Number     Number       Type             X           Y           Z
 ---------------------------------------------------------------------
      1          6           0       -0.902649   -1.120956    0.104730
      2          6           0       -0.793215    0.441923   -0.101197
      3          9           0       -1.305724    0.764807   -1.254235
      4          9           0       -1.367927    1.095250    0.861133
      5         16           0        1.254843    0.916934   -0.081878
      6          8           0        1.140494    0.695232    1.343963
      7          8           0        1.305623   -0.079122   -1.151384
      8          8           0        2.825261    1.313251   -0.074886
      9          9           0       -0.817704   -1.732335   -1.055465
     10          9           0       -0.028186   -1.615196    0.942078
     11          9           0       -2.127968   -1.312870    0.593951
     12          1           0        3.183909    1.165080   -0.961195
 ---------------------------------------------------------------------
                    Distance matrix (angstroms):
                    1          2          3          4          5
     1  C    0.000000
     2  C    1.580181   0.000000
     3  F    2.359101   1.302465   0.000000
     4  F    2.387509   1.297386   2.141925   0.000000
     5  S    2.973649   2.102511   2.820295   2.792846   0.000000
     6  O    3.001444   2.427321   3.569237   2.585598   1.447498
     7  O    2.745852   2.404059   2.746257   3.546441   1.462378
     8  O    4.455888   3.721999   4.330900   4.301916   1.619669
     9  F    1.314173   2.374579   2.552135   3.459961   3.501707
    10  F    1.307712   2.430109   3.481423   3.024561   3.017670
    11  F    1.333258   2.311730   2.899762   2.539309   4.107576
    12  H    4.802302   4.132804   4.516956   4.903566   2.134495
                    6          7          8          9         10
     6  O    0.000000
     7  O    2.617947   0.000000
     8  O    2.287689   2.325263   0.000000
     9  F    3.935082   2.692737   4.848538   0.000000
    10  F    2.620191   2.919101   4.213334   2.151101   0.000000
    11  F    3.908687   4.044487   5.646090   2.147863   2.149809
    12  H    3.116096   2.261010   0.967536   4.941336   4.655098
                   11         12
    11  F    0.000000
    12  H    6.064219   0.000000
 Symmetry turned off by external request.
 Stoichiometry    C2HF5O3S
 Rotational constants (GHZ):           1.6622097           0.7773054           0.7480042
 Leave Link  202 at Sat May 24 04:10:57 2025, MaxMem=  3758096384 cpu:               0.1 elap:               0.0
 (Enter /apps/easybuild-2022/easybuild/software/Compiler/NVHPC/22.11-CUDA-11.7.0/Gaussian/g16c01-CUDA-11.7.0/g16/l301.exe)
 Standard basis: def2TZVPP (5D, 7F)
 Ernie: Thresh=  0.10000D-02 Tol=  0.10000D-05 Strict=F.
   366 basis functions,   596 primitive gaussians,   423 cartesian basis functions
    49 alpha electrons       49 beta electrons
       nuclear repulsion energy       917.7915157318 Hartrees.
 IExCor= 4336 DFT=T Ex+Corr=M062X ExCW=0 ScaHFX=  0.540000
 ScaDFX=  1.000000  1.000000  1.000000  1.000000 ScalE2=  1.000000  1.000000
 IRadAn=      5 IRanWt=     -1 IRanGd=            0 ICorTp=0 IEmpDi=  4
 NAtoms=   12 NActive=   12 NUniq=   12 SFac= 1.00D+00 NAtFMM=   60 NAOKFM=F Big=F
 Integral buffers will be    131072 words long.
 Raffenetti 2 integral format.
 Two-electron integral symmetry is turned off.
 Leave Link  301 at Sat May 24 04:10:57 2025, MaxMem=  3758096384 cpu:               0.0 elap:               0.0
 (Enter /apps/easybuild-2022/easybuild/software/Compiler/NVHPC/22.11-CUDA-11.7.0/Gaussian/g16c01-CUDA-11.7.0/g16/l302.exe)
 NPDir=0 NMtPBC=     1 NCelOv=     1 NCel=       1 NClECP=     1 NCelD=      1
         NCelK=      1 NCelE2=     1 NClLst=     1 CellRange=     0.0.
 One-electron integrals computed using PRISM.
   1 Symmetry operations used in ECPInt.
 ECPInt:  NShTT=    8515 NPrTT=   27988 LenC2=    7933 LenP2D=   19248.
 LDataN:  DoStor=T MaxTD1= 6 Len=  172
 NBasis=   366 RedAO= T EigKep=  4.44D-04  NBF=   366
 NBsUse=   366 1.00D-06 EigRej= -1.00D+00 NBFU=   366
 Precomputing XC quadrature grid using
 IXCGrd= 4 IRadAn=           5 IRanWt=          -1 IRanGd=           0 AccXCQ= 0.00D+00.
 Generated NRdTot=       0 NPtTot=           0 NUsed=           0 NTot=          32
 NSgBfM=   420   420   420   420   420 MxSgAt=    12 MxSgA2=    12.
 Leave Link  302 at Sat May 24 04:10:58 2025, MaxMem=  3758096384 cpu:               0.8 elap:               0.3
 (Enter /apps/easybuild-2022/easybuild/software/Compiler/NVHPC/22.11-CUDA-11.7.0/Gaussian/g16c01-CUDA-11.7.0/g16/l303.exe)
 DipDrv:  MaxL=1.
 Leave Link  303 at Sat May 24 04:10:58 2025, MaxMem=  3758096384 cpu:               0.1 elap:               0.0
 (Enter /apps/easybuild-2022/easybuild/software/Compiler/NVHPC/22.11-CUDA-11.7.0/Gaussian/g16c01-CUDA-11.7.0/g16/l401.exe)
 Initial guess from the checkpoint file:  "2003846667223680600001_r12_insertion_R_8_5_6_IRC_F.chk"
 B after Tr=     0.000000   -0.000004   -0.000002
         Rot=    1.000000   -0.000000   -0.000002   -0.000001 Ang=  -0.00 deg.
 Guess basis will be translated and rotated to current coordinates.
 JPrj=2 DoOrth=T DoCkMO=T.
 Generating alternative initial guess.
 ExpMin= 9.52D-02 ExpMax= 6.07D+04 ExpMxC= 2.07D+03 IAcc=3 IRadAn=         5 AccDes= 0.00D+00
 Harris functional with IExCor= 1009 and IRadAn=       5 diagonalized for initial guess.
 HarFok:  IExCor= 1009 AccDes= 0.00D+00 IRadAn=         5 IDoV= 1 UseB2=F ITyADJ=14
 ICtDFT=  3500011 ScaDFX=  1.000000  1.000000  1.000000  1.000000
 FoFCou: FMM=F IPFlag=           0 FMFlag=      100000 FMFlg1=           0
         NFxFlg=           0 DoJE=T BraDBF=F KetDBF=T FulRan=T
         wScrn=  0.000000 ICntrl=       500 IOpCl=  0 I1Cent=   200000004 NGrid=           0
         NMat0=    1 NMatS0=      1 NMatT0=    0 NMatD0=    1 NMtDS0=    0 NMtDT0=    0
 Symmetry not used in FoFCou.
 Harris En= -1199.25612801055    
 Leave Link  401 at Sat May 24 04:10:58 2025, MaxMem=  3758096384 cpu:               3.7 elap:               0.7
 (Enter /apps/easybuild-2022/easybuild/software/Compiler/NVHPC/22.11-CUDA-11.7.0/Gaussian/g16c01-CUDA-11.7.0/g16/l502.exe)
 Keep R1 ints in memory in canonical form, NReq=2293446996.
 FoFCou: FMM=F IPFlag=           0 FMFlag=           0 FMFlg1=           0
         NFxFlg=           0 DoJE=F BraDBF=F KetDBF=F FulRan=T
         wScrn=  0.000000 ICntrl=       600 IOpCl=  0 I1Cent=           0 NGrid=           0
         NMat0=    1 NMatS0=  67161 NMatT0=    0 NMatD0=    1 NMtDS0=    0 NMtDT0=    0
 Symmetry not used in FoFCou.
 Two-electron integral symmetry not used.
 Closed shell SCF:
 Using DIIS extrapolation, IDIIS=  1040.
 NGot=  3758096384 LenX=  1502398672 LenY=  1502219302
 Requested convergence on RMS density matrix=1.00D-08 within  32 cycles.
 Requested convergence on MAX density matrix=1.00D-06.
 Requested convergence on             energy=1.00D-06.
 No special actions if energy rises.
 Integral accuracy reduced to 1.0D-05 until final iterations.

 Cycle   1  Pass 0  IDiag  1:
 E= -1199.81882743046    
 DIIS: error= 2.16D-04 at cycle   1 NSaved=   1.
 NSaved= 1 IEnMin= 1 EnMin= -1199.81882743046     IErMin= 1 ErrMin= 2.16D-04
 ErrMax= 2.16D-04  0.00D+00 EMaxC= 1.00D-01 BMatC= 4.93D-05 BMatP= 4.93D-05
 IDIUse=3 WtCom= 9.98D-01 WtEn= 2.16D-03
 Coeff-Com:  0.100D+01
 Coeff-En:   0.100D+01
 Coeff:      0.100D+01
 Gap=     1.042 Goal=   None    Shift=    0.000
 RMSDP=3.13D-05 MaxDP=1.30D-03              OVMax= 3.32D-03

 Cycle   2  Pass 0  IDiag  1:
 E= -1199.81888609486     Delta-E=       -0.000058664397 Rises=F Damp=F
 DIIS: error= 8.74D-05 at cycle   2 NSaved=   2.
 NSaved= 2 IEnMin= 2 EnMin= -1199.81888609486     IErMin= 2 ErrMin= 8.74D-05
 ErrMax= 8.74D-05  0.00D+00 EMaxC= 1.00D-01 BMatC= 7.12D-06 BMatP= 4.93D-05
 IDIUse=1 WtCom= 1.00D+00 WtEn= 0.00D+00
 Coeff-Com:  0.841D-01 0.916D+00
 Coeff:      0.841D-01 0.916D+00
 Gap=     0.208 Goal=   None    Shift=    0.000
 RMSDP=8.44D-06 MaxDP=5.08D-04 DE=-5.87D-05 OVMax= 9.67D-04

 Initial convergence to 1.0D-05 achieved.  Increase integral accuracy.
 Cycle   3  Pass 1  IDiag  1:
 E= -1199.81882360563     Delta-E=        0.000062489225 Rises=F Damp=F
 DIIS: error= 1.02D-04 at cycle   1 NSaved=   1.
 NSaved= 1 IEnMin= 1 EnMin= -1199.81882360563     IErMin= 1 ErrMin= 1.02D-04
 ErrMax= 1.02D-04  0.00D+00 EMaxC= 1.00D-01 BMatC= 7.92D-06 BMatP= 7.92D-06
 IDIUse=3 WtCom= 9.99D-01 WtEn= 1.02D-03
 Coeff-Com:  0.100D+01
 Coeff-En:   0.100D+01
 Coeff:      0.100D+01
 Gap=     0.209 Goal=   None    Shift=    0.000
 RMSDP=8.44D-06 MaxDP=5.08D-04 DE= 6.25D-05 OVMax= 1.59D-03

 Cycle   4  Pass 1  IDiag  1:
 E= -1199.81881791201     Delta-E=        0.000005693621 Rises=F Damp=F
 DIIS: error= 1.76D-04 at cycle   2 NSaved=   2.
 NSaved= 2 IEnMin= 1 EnMin= -1199.81882360563     IErMin= 1 ErrMin= 1.02D-04
 ErrMax= 1.76D-04  0.00D+00 EMaxC= 1.00D-01 BMatC= 1.84D-05 BMatP= 7.92D-06
 IDIUse=3 WtCom= 4.30D-01 WtEn= 5.70D-01
 Coeff-Com:  0.608D+00 0.392D+00
 Coeff-En:   0.648D+00 0.352D+00
 Coeff:      0.631D+00 0.369D+00
 Gap=     0.209 Goal=   None    Shift=    0.000
 RMSDP=6.09D-06 MaxDP=5.21D-04 DE= 5.69D-06 OVMax= 9.24D-04

 Cycle   5  Pass 1  IDiag  1:
 E= -1199.81883002317     Delta-E=       -0.000012111153 Rises=F Damp=F
 DIIS: error= 1.01D-05 at cycle   3 NSaved=   3.
 NSaved= 3 IEnMin= 3 EnMin= -1199.81883002317     IErMin= 3 ErrMin= 1.01D-05
 ErrMax= 1.01D-05  0.00D+00 EMaxC= 1.00D-01 BMatC= 1.19D-07 BMatP= 7.92D-06
 IDIUse=1 WtCom= 1.00D+00 WtEn= 0.00D+00
 Coeff-Com:  0.769D-01 0.750D-02 0.916D+00
 Coeff:      0.769D-01 0.750D-02 0.916D+00
 Gap=     0.209 Goal=   None    Shift=    0.000
 RMSDP=1.45D-06 MaxDP=5.52D-05 DE=-1.21D-05 OVMax= 2.70D-04

 Cycle   6  Pass 1  IDiag  1:
 E= -1199.81883018910     Delta-E=       -0.000000165933 Rises=F Damp=F
 DIIS: error= 6.66D-06 at cycle   4 NSaved=   4.
 NSaved= 4 IEnMin= 4 EnMin= -1199.81883018910     IErMin= 4 ErrMin= 6.66D-06
 ErrMax= 6.66D-06  0.00D+00 EMaxC= 1.00D-01 BMatC= 5.90D-08 BMatP= 1.19D-07
 IDIUse=1 WtCom= 1.00D+00 WtEn= 0.00D+00
 Coeff-Com: -0.539D-01-0.654D-01 0.465D+00 0.655D+00
 Coeff:     -0.539D-01-0.654D-01 0.465D+00 0.655D+00
 Gap=     0.209 Goal=   None    Shift=    0.000
 RMSDP=8.39D-07 MaxDP=3.99D-05 DE=-1.66D-07 OVMax= 1.98D-04

 Cycle   7  Pass 1  IDiag  1:
 E= -1199.81883027137     Delta-E=       -0.000000082269 Rises=F Damp=F
 DIIS: error= 3.07D-06 at cycle   5 NSaved=   5.
 NSaved= 5 IEnMin= 5 EnMin= -1199.81883027137     IErMin= 5 ErrMin= 3.07D-06
 ErrMax= 3.07D-06  0.00D+00 EMaxC= 1.00D-01 BMatC= 5.64D-09 BMatP= 5.90D-08
 IDIUse=1 WtCom= 1.00D+00 WtEn= 0.00D+00
 Coeff-Com: -0.112D-01-0.110D-01-0.103D+00 0.645D-01 0.106D+01
 Coeff:     -0.112D-01-0.110D-01-0.103D+00 0.645D-01 0.106D+01
 Gap=     0.209 Goal=   None    Shift=    0.000
 RMSDP=7.27D-07 MaxDP=4.73D-05 DE=-8.23D-08 OVMax= 1.86D-04

 Cycle   8  Pass 1  IDiag  1:
 E= -1199.81883029948     Delta-E=       -0.000000028112 Rises=F Damp=F
 DIIS: error= 1.79D-06 at cycle   6 NSaved=   6.
 NSaved= 6 IEnMin= 6 EnMin= -1199.81883029948     IErMin= 6 ErrMin= 1.79D-06
 ErrMax= 1.79D-06  0.00D+00 EMaxC= 1.00D-01 BMatC= 2.90D-09 BMatP= 5.64D-09
 IDIUse=1 WtCom= 1.00D+00 WtEn= 0.00D+00
 Coeff-Com:  0.126D-01 0.151D-01-0.222D+00-0.198D+00 0.590D+00 0.804D+00
 Coeff:      0.126D-01 0.151D-01-0.222D+00-0.198D+00 0.590D+00 0.804D+00
 Gap=     0.209 Goal=   None    Shift=    0.000
 RMSDP=4.49D-07 MaxDP=1.78D-05 DE=-2.81D-08 OVMax= 1.05D-04

 Cycle   9  Pass 1  IDiag  1:
 E= -1199.81883030813     Delta-E=       -0.000000008647 Rises=F Damp=F
 DIIS: error= 5.51D-07 at cycle   7 NSaved=   7.
 NSaved= 7 IEnMin= 7 EnMin= -1199.81883030813     IErMin= 7 ErrMin= 5.51D-07
 ErrMax= 5.51D-07  0.00D+00 EMaxC= 1.00D-01 BMatC= 2.94D-10 BMatP= 2.90D-09
 IDIUse=1 WtCom= 1.00D+00 WtEn= 0.00D+00
 Coeff-Com:  0.684D-02 0.772D-02-0.818D-01-0.891D-01 0.125D+00 0.326D+00
 Coeff-Com:  0.705D+00
 Coeff:      0.684D-02 0.772D-02-0.818D-01-0.891D-01 0.125D+00 0.326D+00
 Coeff:      0.705D+00
 Gap=     0.209 Goal=   None    Shift=    0.000
 RMSDP=1.18D-07 MaxDP=5.18D-06 DE=-8.65D-09 OVMax= 3.19D-05

 Cycle  10  Pass 1  IDiag  1:
 E= -1199.81883030884     Delta-E=       -0.000000000712 Rises=F Damp=F
 DIIS: error= 4.00D-07 at cycle   8 NSaved=   8.
 NSaved= 8 IEnMin= 8 EnMin= -1199.81883030884     IErMin= 8 ErrMin= 4.00D-07
 ErrMax= 4.00D-07  0.00D+00 EMaxC= 1.00D-01 BMatC= 1.16D-10 BMatP= 2.94D-10
 IDIUse=1 WtCom= 1.00D+00 WtEn= 0.00D+00
 Coeff-Com:  0.175D-03 0.583D-05 0.178D-01 0.112D-01-0.949D-01-0.805D-01
 Coeff-Com:  0.389D+00 0.757D+00
 Coeff:      0.175D-03 0.583D-05 0.178D-01 0.112D-01-0.949D-01-0.805D-01
 Coeff:      0.389D+00 0.757D+00
 Gap=     0.209 Goal=   None    Shift=    0.000
 RMSDP=6.13D-08 MaxDP=3.12D-06 DE=-7.12D-10 OVMax= 1.39D-05

 Cycle  11  Pass 1  IDiag  1:
 E= -1199.81883030901     Delta-E=       -0.000000000176 Rises=F Damp=F
 DIIS: error= 1.37D-07 at cycle   9 NSaved=   9.
 NSaved= 9 IEnMin= 9 EnMin= -1199.81883030901     IErMin= 9 ErrMin= 1.37D-07
 ErrMax= 1.37D-07  0.00D+00 EMaxC= 1.00D-01 BMatC= 2.04D-11 BMatP= 1.16D-10
 IDIUse=1 WtCom= 1.00D+00 WtEn= 0.00D+00
 Coeff-Com: -0.913D-03-0.103D-02 0.222D-01 0.194D-01-0.780D-01-0.980D-01
 Coeff-Com:  0.152D+00 0.433D+00 0.551D+00
 Coeff:     -0.913D-03-0.103D-02 0.222D-01 0.194D-01-0.780D-01-0.980D-01
 Coeff:      0.152D+00 0.433D+00 0.551D+00
 Gap=     0.209 Goal=   None    Shift=    0.000
 RMSDP=1.74D-08 MaxDP=7.09D-07 DE=-1.76D-10 OVMax= 2.95D-06

 Cycle  12  Pass 1  IDiag  1:
 E= -1199.81883030903     Delta-E=       -0.000000000017 Rises=F Damp=F
 DIIS: error= 2.93D-08 at cycle  10 NSaved=  10.
 NSaved=10 IEnMin=10 EnMin= -1199.81883030903     IErMin=10 ErrMin= 2.93D-08
 ErrMax= 2.93D-08  0.00D+00 EMaxC= 1.00D-01 BMatC= 9.75D-13 BMatP= 2.04D-11
 IDIUse=1 WtCom= 1.00D+00 WtEn= 0.00D+00
 Coeff-Com: -0.199D-03-0.141D-03 0.251D-02 0.332D-02-0.398D-02-0.113D-01
 Coeff-Com: -0.820D-02-0.168D-01 0.130D+00 0.904D+00
 Coeff:     -0.199D-03-0.141D-03 0.251D-02 0.332D-02-0.398D-02-0.113D-01
 Coeff:     -0.820D-02-0.168D-01 0.130D+00 0.904D+00
 Gap=     0.209 Goal=   None    Shift=    0.000
 RMSDP=4.52D-09 MaxDP=1.83D-07 DE=-1.73D-11 OVMax= 6.86D-07

 SCF Done:  E(RM062X) =  -1199.81883031     A.U. after   12 cycles
            NFock= 12  Conv=0.45D-08     -V/T= 2.0028
 KE= 1.196426642118D+03 PE=-4.682502891649D+03 EE= 1.368465903490D+03
 Leave Link  502 at Sat May 24 04:11:31 2025, MaxMem=  3758096384 cpu:             128.6 elap:              32.7
 (Enter /apps/easybuild-2022/easybuild/software/Compiler/NVHPC/22.11-CUDA-11.7.0/Gaussian/g16c01-CUDA-11.7.0/g16/l508.exe)
 QCSCF skips out because SCF is already converged.
 Leave Link  508 at Sat May 24 04:11:31 2025, MaxMem=  3758096384 cpu:               0.1 elap:               0.0
 (Enter /apps/easybuild-2022/easybuild/software/Compiler/NVHPC/22.11-CUDA-11.7.0/Gaussian/g16c01-CUDA-11.7.0/g16/l801.exe)
 DoSCS=F DFT=T ScalE2(SS,OS)=  1.000000  1.000000
 Range of M.O.s used for correlation:     1   366
 NBasis=   366 NAE=    49 NBE=    49 NFC=     0 NFV=     0
 NROrb=    366 NOA=    49 NOB=    49 NVA=   317 NVB=   317

 **** Warning!!: The largest alpha MO coefficient is  0.15075607D+02

 Leave Link  801 at Sat May 24 04:11:31 2025, MaxMem=  3758096384 cpu:               0.1 elap:               0.0
 (Enter /apps/easybuild-2022/easybuild/software/Compiler/NVHPC/22.11-CUDA-11.7.0/Gaussian/g16c01-CUDA-11.7.0/g16/l1101.exe)
 Leave Link 1101 at Sat May 24 04:11:31 2025, MaxMem=  3758096384 cpu:               0.1 elap:               0.0
 (Enter /apps/easybuild-2022/easybuild/software/Compiler/NVHPC/22.11-CUDA-11.7.0/Gaussian/g16c01-CUDA-11.7.0/g16/l1102.exe)
 Symmetrizing basis deriv contribution to polar:
 IMax=3 JMax=2 DiffMx= 0.00D+00
 Leave Link 1102 at Sat May 24 04:11:31 2025, MaxMem=  3758096384 cpu:               0.2 elap:               0.1
 (Enter /apps/easybuild-2022/easybuild/software/Compiler/NVHPC/22.11-CUDA-11.7.0/Gaussian/g16c01-CUDA-11.7.0/g16/l1110.exe)
 Leave Link 1110 at Sat May 24 04:11:31 2025, MaxMem=  3758096384 cpu:               0.1 elap:               0.0
 (Enter /apps/easybuild-2022/easybuild/software/Compiler/NVHPC/22.11-CUDA-11.7.0/Gaussian/g16c01-CUDA-11.7.0/g16/l1002.exe)
 Minotr:  Closed shell wavefunction.
 Leave Link 1002 at Sat May 24 04:11:32 2025, MaxMem=  3758096384 cpu:               0.1 elap:               0.0
 (Enter /apps/easybuild-2022/easybuild/software/Compiler/NVHPC/22.11-CUDA-11.7.0/Gaussian/g16c01-CUDA-11.7.0/g16/l701.exe)
 ... and contract with generalized density number  0.
 Compute integral first derivatives.
   1 Symmetry operations used in ECPInt.
 ECPInt:  NShTT=    8515 NPrTT=   27988 LenC2=    7933 LenP2D=   19248.
 LDataN:  DoStor=T MaxTD1= 7 Len=  274
 Leave Link  701 at Sat May 24 04:11:32 2025, MaxMem=  3758096384 cpu:               0.5 elap:               0.1
 (Enter /apps/easybuild-2022/easybuild/software/Compiler/NVHPC/22.11-CUDA-11.7.0/Gaussian/g16c01-CUDA-11.7.0/g16/l702.exe)
 L702 exits ... SP integral derivatives will be done elsewhere.
 Leave Link  702 at Sat May 24 04:11:32 2025, MaxMem=  3758096384 cpu:               0.1 elap:               0.0
 (Enter /apps/easybuild-2022/easybuild/software/Compiler/NVHPC/22.11-CUDA-11.7.0/Gaussian/g16c01-CUDA-11.7.0/g16/l703.exe)
 Integral derivatives from FoFJK, PRISM(SPDF).
 Compute integral first derivatives, UseDBF=F ICtDFT=           0.
 Calling FoFJK, ICntrl=      2127 FMM=F ISym2X=0 I1Cent= 0 IOpClX= 0 NMat=1 NMatS=1 NMatT=0.
 FoFJK:  IHMeth= 1 ICntrl=    2127 DoSepK=F KAlg= 0 I1Cent=           0 FoldK=F
 IRaf=         0 NMat=       1 IRICut=       1 DoRegI=T DoRafI=F ISym2E= 0 IDoP0=0 IntGTp=1.
 FoFCou: FMM=F IPFlag=           0 FMFlag=      100000 FMFlg1=         800
         NFxFlg=           0 DoJE=F BraDBF=F KetDBF=F FulRan=T
         wScrn=  0.000000 ICntrl=      2127 IOpCl=  0 I1Cent=           0 NGrid=           0
         NMat0=    1 NMatS0=      1 NMatT0=    0 NMatD0=    1 NMtDS0=    0 NMtDT0=    0
 Symmetry not used in FoFCou.
 Leave Link  703 at Sat May 24 04:11:41 2025, MaxMem=  3758096384 cpu:              71.4 elap:               9.0
 (Enter /apps/easybuild-2022/easybuild/software/Compiler/NVHPC/22.11-CUDA-11.7.0/Gaussian/g16c01-CUDA-11.7.0/g16/l716.exe)
 Dipole        =-1.71821618D-01 5.62225931D-01-7.29836689D-01
 Polarizability= 0.00000000D+00 0.00000000D+00 0.00000000D+00
                 0.00000000D+00 0.00000000D+00 0.00000000D+00
 -------------------------------------------------------------------
 Center     Atomic                   Forces (Hartrees/Bohr)
 Number     Number              X              Y              Z
 -------------------------------------------------------------------
      1        6          -0.000068068    0.002105486   -0.000399906
      2        6          -0.002047530    0.017005158   -0.005580452
      3        9          -0.001576187    0.001637202   -0.002680851
      4        9          -0.001239870    0.001848936    0.001041970
      5       16           0.010090143   -0.049321996    0.016315551
      6        8           0.001210308   -0.000770822    0.002274866
      7        8           0.001571856   -0.001771937   -0.001052706
      8        8          -0.007860260    0.028722688   -0.009609581
      9        9           0.000004352    0.000103588    0.000028724
     10        9          -0.000052703    0.000230600   -0.000128721
     11        9           0.000144588    0.000130874   -0.000022373
     12        1          -0.000176630    0.000080221   -0.000186521
 -------------------------------------------------------------------
 Cartesian Forces:  Max     0.049321996 RMS     0.010725665
 Leave Link  716 at Sat May 24 04:11:41 2025, MaxMem=  3758096384 cpu:               0.1 elap:               0.0
 (Enter /apps/easybuild-2022/easybuild/software/Compiler/NVHPC/22.11-CUDA-11.7.0/Gaussian/g16c01-CUDA-11.7.0/g16/l123.exe)
 IRC-IRC-IRC-IRC-IRC-IRC-IRC-IRC-IRC-IRC-IRC-IRC-IRC-IRC-IRC-IRC-IRC-IRC
 Pt  2 Step number   1 out of a maximum of  20
 Using modified Bulirsch-Stoer corrector integration.
   Using distance weighted interpolants to fit PES.
 PreDWI: IReCr0= 2 IReCr1= 1 IReCr2= 1 IReCr3= 1
 Modified Bulirsch-Stoer Extrapolation Cycles:
    EPS =    0.000010000000000
    Cycle     1 NS=    48
      PEZero:  N= 2 I= 1 D=  3.75D-04 Err=  2.54D-05
    Cycle     2 NS=    64 Truncation Error =  0.000025370
      PEZero:  N= 3 I= 2 D=  3.75D-04 Err=  1.69D-05
      PEZero:  N= 3 I= 1 D=  7.49D-04 Err=  3.88D-08
    Cycle     3 NS=    96 Truncation Error =  0.000000039
 BS completed in    3 cycles and     208 integration steps.
 Maximum DWI energy   std dev =  0.000000047 at pt    35
 Maximum DWI gradient std dev =  0.000800471 at pt    29
 SUMMARY OF CORRECTOR INTEGRATION:
   Predictor End Point Energy = -1199.818830
   Old End Point Energy       = -1199.818830
   Corrected End Point Energy = -1199.818830
   Predictor End-Start Dist.  =     0.071911
   Old End-Start Dist.        =     0.071911
   New End-Start Dist.        =     0.071879
   New End-Old End Dist.      =     0.000067
 CORRECTOR INTEGRATION CONVERGENCE:
   Recorrection delta-x convergence threshold:    0.010000
   Delta-x Convergence Met
 Point Number:   2          Path Number:   1
                    CURRENT STRUCTURE
                Cartesian Coordinates (Ang):                
 ---------------------------------------------------------------------
 Center     Atomic                     Coordinates (Angstroms)
 Number     Number                        X           Y           Z
 ---------------------------------------------------------------------
      1          6                   -0.902649   -1.120958    0.104730
      2          6                   -0.793212    0.441924   -0.101196
      3          9                   -1.305724    0.764807   -1.254236
      4          9                   -1.367927    1.095250    0.861133
      5         16                    1.254844    0.916938   -0.081879
      6          8                    1.140494    0.695230    1.343964
      7          8                    1.305622   -0.079124   -1.151384
      8          8                    2.825260    1.313248   -0.074887
      9          9                   -0.817704   -1.732335   -1.055465
     10          9                   -0.028186   -1.615196    0.942078
     11          9                   -2.127968   -1.312869    0.593951
     12          1                    3.183907    1.165086   -0.961180
 ---------------------------------------------------------------------
   CHANGE IN THE REACTION COORDINATE =    0.07188
   NET REACTION COORDINATE UP TO THIS POINT =    0.13855
  # OF POINTS ALONG THE PATH =   2
  # OF STEPS =   1

 Calculating another point on the path.
 Point Number  3 in FORWARD path direction.
 Using LQA Reaction Path Following.
   LQA: T_Est iteration completed in    2 iterations.
 IRC-IRC-IRC-IRC-IRC-IRC-IRC-IRC-IRC-IRC-IRC-IRC-IRC-IRC-IRC-IRC-IRC-IRC
 Leave Link  123 at Sat May 24 04:11:41 2025, MaxMem=  3758096384 cpu:               0.2 elap:               0.1
 (Enter /apps/easybuild-2022/easybuild/software/Compiler/NVHPC/22.11-CUDA-11.7.0/Gaussian/g16c01-CUDA-11.7.0/g16/l202.exe)
                          Input orientation:                          
 ---------------------------------------------------------------------
 Center     Atomic      Atomic             Coordinates (Angstroms)
 Number     Number       Type             X           Y           Z
 ---------------------------------------------------------------------
      1          6           0       -0.902672   -1.120339    0.104611
      2          6           0       -0.793507    0.445709   -0.102421
      3          9           0       -1.306022    0.765120   -1.254739
      4          9           0       -1.368162    1.095602    0.861325
      5         16           0        1.255699    0.912519   -0.080428
      6          8           0        1.140780    0.695054    1.344488
      7          8           0        1.305997   -0.079534   -1.151626
      8          8           0        2.823781    1.318429   -0.076618
      9          9           0       -0.817703   -1.732311   -1.055457
     10          9           0       -0.028199   -1.615146    0.942050
     11          9           0       -2.127937   -1.312840    0.593945
     12          1           0        3.183241    1.165410   -0.961834
 ---------------------------------------------------------------------
                    Distance matrix (angstroms):
                    1          2          3          4          5
     1  C    0.000000
     2  C    1.583440   0.000000
     3  F    2.359127   1.300974   0.000000
     4  F    2.387402   1.296686   2.142617   0.000000
     5  S    2.970743   2.101818   2.821905   2.793754   0.000000
     6  O    3.001440   2.428412   3.570397   2.586248   1.445989
     7  O    2.745837   2.405125   2.747129   3.547399   1.460878
     8  O    4.457228   3.721167   4.330057   4.301369   1.619772
     9  F    1.314339   2.377526   2.552514   3.460368   3.499257
    10  F    1.307991   2.433873   3.482008   3.024925   3.013793
    11  F    1.333334   2.314762   2.900189   2.539556   4.105605
    12  H    4.801733   4.131717   4.516582   4.903473   2.134537
                    6          7          8          9         10
     6  O    0.000000
     7  O    2.618753   0.000000
     8  O    2.289242   2.326718   0.000000
     9  F    3.935415   2.692771   4.850314   0.000000
    10  F    2.620209   2.919188   4.216319   2.151064   0.000000
    11  F    3.908896   4.044745   5.647366   2.147835   2.149759
    12  H    3.116409   2.260521   0.967592   4.940962   4.655064
                   11         12
    11  F    0.000000
    12  H    6.063892   0.000000
 Symmetry turned off by external request.
 Stoichiometry    C2HF5O3S
 Rotational constants (GHZ):           1.6617518           0.7772788           0.7480172
[...]
 Coeff-Com:  0.386D+00 0.614D+00
 Coeff:      0.386D+00 0.614D+00
 Gap=     0.335 Goal=   None    Shift=    0.000
 RMSDP=1.59D-06 MaxDP=9.38D-05 DE=-4.87D-07 OVMax= 1.45D-04

 Cycle   5  Pass 1  IDiag  1:
 E= -1199.88995104669     Delta-E=       -0.000000274943 Rises=F Damp=F
 DIIS: error= 8.54D-06 at cycle   3 NSaved=   3.
 NSaved= 3 IEnMin= 3 EnMin= -1199.88995104669     IErMin= 3 ErrMin= 8.54D-06
 ErrMax= 8.54D-06  0.00D+00 EMaxC= 1.00D-01 BMatC= 1.07D-07 BMatP= 5.19D-07
 IDIUse=1 WtCom= 1.00D+00 WtEn= 0.00D+00
 Coeff-Com: -0.321D-01 0.301D+00 0.732D+00
 Coeff:     -0.321D-01 0.301D+00 0.732D+00
 Gap=     0.335 Goal=   None    Shift=    0.000
 RMSDP=7.42D-07 MaxDP=3.20D-05 DE=-2.75D-07 OVMax= 5.96D-05

 Cycle   6  Pass 1  IDiag  1:
 E= -1199.88995111592     Delta-E=       -0.000000069228 Rises=F Damp=F
 DIIS: error= 2.52D-06 at cycle   4 NSaved=   4.
 NSaved= 4 IEnMin= 4 EnMin= -1199.88995111592     IErMin= 4 ErrMin= 2.52D-06
 ErrMax= 2.52D-06  0.00D+00 EMaxC= 1.00D-01 BMatC= 5.19D-09 BMatP= 1.07D-07
 IDIUse=1 WtCom= 1.00D+00 WtEn= 0.00D+00
 Coeff-Com: -0.262D-01 0.132D+00 0.360D+00 0.535D+00
 Coeff:     -0.262D-01 0.132D+00 0.360D+00 0.535D+00
 Gap=     0.335 Goal=   None    Shift=    0.000
 RMSDP=1.46D-07 MaxDP=5.78D-06 DE=-6.92D-08 OVMax= 1.54D-05

 Cycle   7  Pass 1  IDiag  1:
 E= -1199.88995111957     Delta-E=       -0.000000003656 Rises=F Damp=F
 DIIS: error= 4.81D-07 at cycle   5 NSaved=   5.
 NSaved= 5 IEnMin= 5 EnMin= -1199.88995111957     IErMin= 5 ErrMin= 4.81D-07
 ErrMax= 4.81D-07  0.00D+00 EMaxC= 1.00D-01 BMatC= 3.45D-10 BMatP= 5.19D-09
 IDIUse=1 WtCom= 1.00D+00 WtEn= 0.00D+00
 Coeff-Com: -0.174D-02-0.132D-01-0.189D-01 0.166D+00 0.867D+00
 Coeff:     -0.174D-02-0.132D-01-0.189D-01 0.166D+00 0.867D+00
 Gap=     0.335 Goal=   None    Shift=    0.000
 RMSDP=6.62D-08 MaxDP=2.19D-06 DE=-3.66D-09 OVMax= 7.41D-06

 Cycle   8  Pass 1  IDiag  1:
 E= -1199.88995111987     Delta-E=       -0.000000000302 Rises=F Damp=F
 DIIS: error= 1.96D-07 at cycle   6 NSaved=   6.
 NSaved= 6 IEnMin= 6 EnMin= -1199.88995111987     IErMin= 6 ErrMin= 1.96D-07
 ErrMax= 1.96D-07  0.00D+00 EMaxC= 1.00D-01 BMatC= 5.44D-11 BMatP= 3.45D-10
 IDIUse=1 WtCom= 1.00D+00 WtEn= 0.00D+00
 Coeff-Com:  0.232D-02-0.219D-01-0.502D-01 0.123D-01 0.363D+00 0.694D+00
 Coeff:      0.232D-02-0.219D-01-0.502D-01 0.123D-01 0.363D+00 0.694D+00
 Gap=     0.335 Goal=   None    Shift=    0.000
 RMSDP=2.07D-08 MaxDP=6.77D-07 DE=-3.02D-10 OVMax= 2.82D-06

 Cycle   9  Pass 1  IDiag  1:
 E= -1199.88995111992     Delta-E=       -0.000000000051 Rises=F Damp=F
 DIIS: error= 8.54D-08 at cycle   7 NSaved=   7.
 NSaved= 7 IEnMin= 7 EnMin= -1199.88995111992     IErMin= 7 ErrMin= 8.54D-08
 ErrMax= 8.54D-08  0.00D+00 EMaxC= 1.00D-01 BMatC= 4.95D-12 BMatP= 5.44D-11
 IDIUse=1 WtCom= 1.00D+00 WtEn= 0.00D+00
 Coeff-Com:  0.910D-03-0.673D-02-0.159D-01-0.807D-02 0.605D-01 0.244D+00
 Coeff-Com:  0.725D+00
 Coeff:      0.910D-03-0.673D-02-0.159D-01-0.807D-02 0.605D-01 0.244D+00
 Coeff:      0.725D+00
 Gap=     0.335 Goal=   None    Shift=    0.000
 RMSDP=7.62D-09 MaxDP=4.75D-07 DE=-5.14D-11 OVMax= 1.01D-06

 SCF Done:  E(RM062X) =  -1199.88995112     A.U. after    9 cycles
            NFock=  9  Conv=0.76D-08     -V/T= 2.0029
 KE= 1.196404900326D+03 PE=-4.698704445326D+03 EE= 1.376377756480D+03
 Leave Link  502 at Sat May 24 05:25:21 2025, MaxMem=  3758096384 cpu:             122.2 elap:              28.3
 (Enter /apps/easybuild-2022/easybuild/software/Compiler/NVHPC/22.11-CUDA-11.7.0/Gaussian/g16c01-CUDA-11.7.0/g16/l508.exe)
 QCSCF skips out because SCF is already converged.
 Leave Link  508 at Sat May 24 05:25:21 2025, MaxMem=  3758096384 cpu:               0.1 elap:               0.0
 (Enter /apps/easybuild-2022/easybuild/software/Compiler/NVHPC/22.11-CUDA-11.7.0/Gaussian/g16c01-CUDA-11.7.0/g16/l801.exe)
 DoSCS=F DFT=T ScalE2(SS,OS)=  1.000000  1.000000
 Range of M.O.s used for correlation:     1   366
 NBasis=   366 NAE=    49 NBE=    49 NFC=     0 NFV=     0
 NROrb=    366 NOA=    49 NOB=    49 NVA=   317 NVB=   317

 **** Warning!!: The largest alpha MO coefficient is  0.14706332D+02

 Leave Link  801 at Sat May 24 05:25:21 2025, MaxMem=  3758096384 cpu:               0.1 elap:               0.0
 (Enter /apps/easybuild-2022/easybuild/software/Compiler/NVHPC/22.11-CUDA-11.7.0/Gaussian/g16c01-CUDA-11.7.0/g16/l1101.exe)
 Leave Link 1101 at Sat May 24 05:25:21 2025, MaxMem=  3758096384 cpu:               0.1 elap:               0.0
 (Enter /apps/easybuild-2022/easybuild/software/Compiler/NVHPC/22.11-CUDA-11.7.0/Gaussian/g16c01-CUDA-11.7.0/g16/l1102.exe)
 Symmetrizing basis deriv contribution to polar:
 IMax=3 JMax=2 DiffMx= 0.00D+00
 Leave Link 1102 at Sat May 24 05:25:21 2025, MaxMem=  3758096384 cpu:               0.1 elap:               0.1
 (Enter /apps/easybuild-2022/easybuild/software/Compiler/NVHPC/22.11-CUDA-11.7.0/Gaussian/g16c01-CUDA-11.7.0/g16/l1110.exe)
 Leave Link 1110 at Sat May 24 05:25:21 2025, MaxMem=  3758096384 cpu:               0.0 elap:               0.0
 (Enter /apps/easybuild-2022/easybuild/software/Compiler/NVHPC/22.11-CUDA-11.7.0/Gaussian/g16c01-CUDA-11.7.0/g16/l1002.exe)
 Minotr:  Closed shell wavefunction.
 Leave Link 1002 at Sat May 24 05:25:21 2025, MaxMem=  3758096384 cpu:               0.1 elap:               0.0
 (Enter /apps/easybuild-2022/easybuild/software/Compiler/NVHPC/22.11-CUDA-11.7.0/Gaussian/g16c01-CUDA-11.7.0/g16/l701.exe)
 ... and contract with generalized density number  0.
 Compute integral first derivatives.
   1 Symmetry operations used in ECPInt.
 ECPInt:  NShTT=    8515 NPrTT=   27988 LenC2=    7974 LenP2D=   19345.
 LDataN:  DoStor=T MaxTD1= 7 Len=  274
 Leave Link  701 at Sat May 24 05:25:21 2025, MaxMem=  3758096384 cpu:               0.8 elap:               0.2
 (Enter /apps/easybuild-2022/easybuild/software/Compiler/NVHPC/22.11-CUDA-11.7.0/Gaussian/g16c01-CUDA-11.7.0/g16/l702.exe)
 L702 exits ... SP integral derivatives will be done elsewhere.
 Leave Link  702 at Sat May 24 05:25:21 2025, MaxMem=  3758096384 cpu:               0.1 elap:               0.0
 (Enter /apps/easybuild-2022/easybuild/software/Compiler/NVHPC/22.11-CUDA-11.7.0/Gaussian/g16c01-CUDA-11.7.0/g16/l703.exe)
 Integral derivatives from FoFJK, PRISM(SPDF).
 Compute integral first derivatives, UseDBF=F ICtDFT=           0.
 Calling FoFJK, ICntrl=      2127 FMM=F ISym2X=0 I1Cent= 0 IOpClX= 0 NMat=1 NMatS=1 NMatT=0.
 FoFJK:  IHMeth= 1 ICntrl=    2127 DoSepK=F KAlg= 0 I1Cent=           0 FoldK=F
 IRaf=         0 NMat=       1 IRICut=       1 DoRegI=T DoRafI=F ISym2E= 0 IDoP0=0 IntGTp=1.
 FoFCou: FMM=F IPFlag=           0 FMFlag=      100000 FMFlg1=         800
         NFxFlg=           0 DoJE=F BraDBF=F KetDBF=F FulRan=T
         wScrn=  0.000000 ICntrl=      2127 IOpCl=  0 I1Cent=           0 NGrid=           0
         NMat0=    1 NMatS0=      1 NMatT0=    0 NMatD0=    1 NMtDS0=    0 NMtDT0=    0
 Symmetry not used in FoFCou.
 Leave Link  703 at Sat May 24 05:25:37 2025, MaxMem=  3758096384 cpu:              78.4 elap:              15.8
 (Enter /apps/easybuild-2022/easybuild/software/Compiler/NVHPC/22.11-CUDA-11.7.0/Gaussian/g16c01-CUDA-11.7.0/g16/l716.exe)
 Dipole        = 2.39915494D-01 7.71091755D-01-8.06545366D-01
 Polarizability= 0.00000000D+00 0.00000000D+00 0.00000000D+00
                 0.00000000D+00 0.00000000D+00 0.00000000D+00
 -------------------------------------------------------------------
 Center     Atomic                   Forces (Hartrees/Bohr)
 Number     Number              X              Y              Z
 -------------------------------------------------------------------
      1        6          -0.000665593    0.000817261   -0.000428947
      2        6           0.003030744   -0.000136852    0.000119714
      3        9           0.006766628    0.002880367   -0.000529196
      4        9           0.005373759    0.002238365   -0.000398158
      5       16           0.000100587   -0.011041308    0.003893850
      6        8           0.007134002   -0.006289751    0.001025532
      7        8           0.007649779   -0.007598085    0.006546235
      8        8          -0.022117350    0.013176154   -0.006873807
      9        9          -0.001608759    0.001866459   -0.001139160
     10        9          -0.002646752   -0.001249010   -0.000430509
     11        9          -0.001469023    0.004231887   -0.001263321
     12        1          -0.001548022    0.001104512   -0.000522231
 -------------------------------------------------------------------
 Cartesian Forces:  Max     0.022117350 RMS     0.005864974
 Leave Link  716 at Sat May 24 05:25:37 2025, MaxMem=  3758096384 cpu:               0.1 elap:               0.0
 (Enter /apps/easybuild-2022/easybuild/software/Compiler/NVHPC/22.11-CUDA-11.7.0/Gaussian/g16c01-CUDA-11.7.0/g16/l123.exe)
 IRC-IRC-IRC-IRC-IRC-IRC-IRC-IRC-IRC-IRC-IRC-IRC-IRC-IRC-IRC-IRC-IRC-IRC
 Pt100 Step number   1 out of a maximum of  20
 Using modified Bulirsch-Stoer corrector integration.
   Using distance weighted interpolants to fit PES.
 PreDWI: IReCr0= 2 IReCr1= 1 IReCr2= 1 IReCr3= 1
 Modified Bulirsch-Stoer Extrapolation Cycles:
    EPS =    0.000010000000000
    Cycle     1 NS=    48
      PEZero:  N= 2 I= 1 D=  3.75D-04 Err=  1.40D-06
    Cycle     2 NS=    64 Truncation Error =  0.000001398
 BS completed in    2 cycles and     112 integration steps.
 Maximum DWI energy   std dev =  0.000000004 at pt    36
 Maximum DWI gradient std dev =  0.000270595 at pt    29
 SUMMARY OF CORRECTOR INTEGRATION:
   Predictor End Point Energy = -1199.889951
   Old End Point Energy       = -1199.889951
   Corrected End Point Energy = -1199.889951
   Predictor End-Start Dist.  =     0.071943
   Old End-Start Dist.        =     0.071943
   New End-Start Dist.        =     0.071943
   New End-Old End Dist.      =     0.000023
 CORRECTOR INTEGRATION CONVERGENCE:
   Recorrection delta-x convergence threshold:    0.010000
   Delta-x Convergence Met
 Point Number: 100          Path Number:   1
                    CURRENT STRUCTURE
                Cartesian Coordinates (Ang):                
 ---------------------------------------------------------------------
 Center     Atomic                     Coordinates (Angstroms)
 Number     Number                        X           Y           Z
 ---------------------------------------------------------------------
      1          6                   -0.913839   -1.062302    0.085577
      2          6                   -0.693840    0.511608   -0.122444
      3          9                   -1.241595    0.840025   -1.282915
      4          9                   -1.311204    1.160876    0.847202
      5         16                    1.246443    0.657009   -0.000633
      6          8                    1.301442    0.537053    1.413211
      7          8                    1.493086   -0.286586   -1.050511
      8          8                    2.373751    1.752500   -0.258127
      9          9                   -0.834884   -1.690633   -1.071021
     10          9                   -0.055050   -1.603069    0.927951
     11          9                   -2.134143   -1.238445    0.576744
     12          1                    2.705049    1.642073   -1.162258
 ---------------------------------------------------------------------
   CHANGE IN THE REACTION COORDINATE =    0.07194
   NET REACTION COORDINATE UP TO THIS POINT =    7.18876
  # OF POINTS ALONG THE PATH = 100
  # OF STEPS =   1

 Maximum number of steps reached.
 Calculation of FORWARD path complete.
 Reaction path calculation complete.
 
 Energies reported relative to the TS energy of       -1199.816961
 --------------------------------------------------------------------------
    Summary of reaction path following
 --------------------------------------------------------------------------
                        Energy    RxCoord
   1                    0.00000   0.00000
   2                   -0.00088   0.06667
   3                   -0.00187   0.13855
   4                   -0.00281   0.21045
   5                   -0.00372   0.28236
   6                   -0.00461   0.35428
   7                   -0.00548   0.42621
   8                   -0.00634   0.49814
   9                   -0.00720   0.57007
  10                   -0.00804   0.64201
  11                   -0.00888   0.71395
  12                   -0.00971   0.78589
  13                   -0.01054   0.85783
  14                   -0.01136   0.92977
  15                   -0.01218   1.00171
  16                   -0.01299   1.07365
  17                   -0.01380   1.14559
  18                   -0.01461   1.21753
  19                   -0.01541   1.28947
  20                   -0.01620   1.36141
  21                   -0.01700   1.43335
  22                   -0.01779   1.50529
  23                   -0.01857   1.57723
  24                   -0.01936   1.64918
  25                   -0.02013   1.72112
  26                   -0.02091   1.79306
  27                   -0.02168   1.86500
  28                   -0.02245   1.93694
  29                   -0.02321   2.00888
  30                   -0.02397   2.08083
  31                   -0.02473   2.15277
  32                   -0.02548   2.22471
  33                   -0.02623   2.29665
  34                   -0.02698   2.36859
  35                   -0.02773   2.44054
  36                   -0.02847   2.51248
  37                   -0.02921   2.58442
  38                   -0.02995   2.65636
  39                   -0.03068   2.72830
  40                   -0.03141   2.80025
  41                   -0.03214   2.87219
  42                   -0.03287   2.94413
  43                   -0.03359   3.01607
  44                   -0.03432   3.08802
  45                   -0.03504   3.15996
  46                   -0.03576   3.23190
  47                   -0.03648   3.30384
  48                   -0.03719   3.37579
  49                   -0.03791   3.44773
  50                   -0.03862   3.51967
  51                   -0.03933   3.59161
  52                   -0.04004   3.66356
  53                   -0.04075   3.73550
  54                   -0.04145   3.80744
  55                   -0.04216   3.87938
  56                   -0.04286   3.95133
  57                   -0.04357   4.02327
  58                   -0.04427   4.09521
  59                   -0.04497   4.16715
  60                   -0.04567   4.23910
  61                   -0.04637   4.31104
  62                   -0.04706   4.38298
  63                   -0.04776   4.45493
  64                   -0.04845   4.52687
  65                   -0.04914   4.59881
  66                   -0.04983   4.67075
  67                   -0.05052   4.74270
  68                   -0.05121   4.81464
  69                   -0.05190   4.88658
  70                   -0.05258   4.95853
  71                   -0.05327   5.03047
  72                   -0.05395   5.10241
  73                   -0.05463   5.17435
  74                   -0.05531   5.24630
  75                   -0.05599   5.31824
  76                   -0.05667   5.39018
  77                   -0.05734   5.46213
  78                   -0.05802   5.53407
  79                   -0.05869   5.60601
  80                   -0.05936   5.67796
  81                   -0.06003   5.74990
  82                   -0.06069   5.82184
  83                   -0.06136   5.89378
  84                   -0.06202   5.96573
  85                   -0.06268   6.03767
  86                   -0.06334   6.10961
  87                   -0.06400   6.18156
  88                   -0.06466   6.25350
  89                   -0.06531   6.32544
  90                   -0.06596   6.39738
  91                   -0.06661   6.46933
  92                   -0.06726   6.54127
  93                   -0.06791   6.61321
  94                   -0.06855   6.68516
  95                   -0.06919   6.75710
  96                   -0.06983   6.82904
  97                   -0.07047   6.90099
  98                   -0.07110   6.97293
  99                   -0.07173   7.04487
 100                   -0.07236   7.11681
 101                   -0.07299   7.18876
 --------------------------------------------------------------------------
 
 Total number of points:                  100
 Total number of gradient calculations:   101
 Total number of Hessian calculations:      0
 IRC-IRC-IRC-IRC-IRC-IRC-IRC-IRC-IRC-IRC-IRC-IRC-IRC-IRC-IRC-IRC-IRC-IRC
 Leave Link  123 at Sat May 24 05:25:37 2025, MaxMem=  3758096384 cpu:               0.1 elap:               0.0
 (Enter /apps/easybuild-2022/easybuild/software/Compiler/NVHPC/22.11-CUDA-11.7.0/Gaussian/g16c01-CUDA-11.7.0/g16/l202.exe)
                          Input orientation:                          
 ---------------------------------------------------------------------
 Center     Atomic      Atomic             Coordinates (Angstroms)
 Number     Number       Type             X           Y           Z
 ---------------------------------------------------------------------
      1          6           0       -0.913839   -1.062302    0.085577
      2          6           0       -0.693839    0.511609   -0.122444
      3          9           0       -1.241595    0.840025   -1.282915
      4          9           0       -1.311204    1.160876    0.847202
      5         16           0        1.246443    0.657009   -0.000633
      6          8           0        1.301442    0.537053    1.413212
      7          8           0        1.493086   -0.286586   -1.050512
      8          8           0        2.373753    1.752501   -0.258127
      9          9           0       -0.834884   -1.690633   -1.071021
     10          9           0       -0.055050   -1.603069    0.927951
     11          9           0       -2.134143   -1.238445    0.576744
     12          1           0        2.705046    1.642079   -1.162262
 ---------------------------------------------------------------------
                    Distance matrix (angstroms):
                    1          2          3          4          5
     1  C    0.000000
     2  C    1.602769   0.000000
     3  F    2.366230   1.324607   0.000000
     4  F    2.383379   1.320190   2.155270   0.000000
     5  S    2.762296   1.949532   2.805008   2.741216   0.000000
     6  O    3.037766   2.517943   3.718592   2.745076   1.419990
     7  O    2.772313   2.506206   2.966773   3.682460   1.432987
     8  O    4.341602   3.311849   3.866980   3.892387   1.592870
     9  F    1.318617   2.401991   2.571875   3.469520   3.314977
    10  F    1.318917   2.446067   3.502074   3.037077   2.768412
    11  F    1.327182   2.371925   2.928312   2.550905   3.918478
    12  H    4.686908   3.729827   4.029122   4.516611   2.108855
                    6          7          8          9         10
     6  O    0.000000
     7  O    2.604811   0.000000
     8  O    2.328205   2.358246   0.000000
     9  F    3.962056   2.718678   4.776120   0.000000
    10  F    2.579858   2.836224   4.308795   2.147487   0.000000
    11  F    3.956680   4.087883   5.473928   2.146550   2.139842
    12  H    3.134366   2.280589   0.969231   4.862756   4.745324
                   11         12
    11  F    0.000000
    12  H    5.894006   0.000000
 Symmetry turned off by external request.
 Stoichiometry    C2HF5O3S
 Rotational constants (GHZ):           1.6193528           0.8176608           0.7808445
 Leave Link  202 at Sat May 24 05:25:37 2025, MaxMem=  3758096384 cpu:               0.0 elap:               0.0
 (Enter /apps/easybuild-2022/easybuild/software/Compiler/NVHPC/22.11-CUDA-11.7.0/Gaussian/g16c01-CUDA-11.7.0/g16/l9999.exe)

 This type of calculation cannot be archived.


 WISDOM IS KNOWING WHAT TO DO,
 SKILL IS KNOWING HOW TO DO IT,
 AND VIRTUE IS NOT DOING IT.
 Job cpu time:       0 days  5 hours 54 minutes 10.2 seconds.
 Elapsed time:       0 days  1 hours 15 minutes 48.6 seconds.
 File lengths (MBytes):  RWF=     63 Int=      0 D2E=      0 Chk=     13 Scr=      1
 Normal termination of Gaussian 16 at Sat May 24 05:25:37 2025.
done
