 Entering Gaussian System, Link 0=g16
 Initial command:
 /apps/easybuild-2022/easybuild/software/Compiler/NVHPC/22.11-CUDA-11.7.0/Gaussian/g16c01-CUDA-11.7.0/g16/l1.exe "/tmp/Gau-206517.inp" -scrdir="/tmp/"
 Entering Link 1 = /apps/easybuild-2022/easybuild/software/Compiler/NVHPC/22.11-CUDA-11.7.0/Gaussian/g16c01-CUDA-11.7.0/g16/l1.exe PID=    206518.
  
 Copyright (c) 1988-2019, Gaussian, Inc.  All Rights Reserved.
  
 This is part of the Gaussian(R) 16 program.  It is based on
 the Gaussian(R) 09 system (copyright 2009, Gaussian, Inc.),
 the Gaussian(R) 03 system (copyright 2003, Gaussian, Inc.),
 the Gaussian(R) 98 system (copyright 1998, Gaussian, Inc.),
 the Gaussian(R) 94 system (copyright 1995, Gaussian, Inc.),
 the Gaussian 92(TM) system (copyright 1992, Gaussian, Inc.),
 the Gaussian 90(TM) system (copyright 1990, Gaussian, Inc.),
 the Gaussian 88(TM) system (copyright 1988, Gaussian, Inc.),
 the Gaussian 86(TM) system (copyright 1986, Carnegie Mellon
 University), and the Gaussian 82(TM) system (copyright 1983,
 Carnegie Mellon University). Gaussian is a federally registered
 trademark of Gaussian, Inc.
  
 This software contains proprietary and confidential information,
 including trade secrets, belonging to Gaussian, Inc.
  
 This software is provided under written license and may be
 used, copied, transmitted, or stored only in accord with that
 written license.
  
 The following legend is applicable only to US Government
 contracts under FAR:
  
                    RESTRICTED RIGHTS LEGEND
  
 Use, reproduction and disclosure by the US Government is
 subject to restrictions as set forth in subparagraphs (a)
 and (c) of the Commercial Computer Software - Restricted
 Rights clause in FAR 52.227-19.
  
 Gaussian, Inc.
 340 Quinnipiac St., Bldg. 40, Wallingford CT 06492
  
  
 ---------------------------------------------------------------
 Warning -- This program may not be used in any manner that
 competes with the business of Gaussian, Inc. or will provide
 assistance to any competitor of Gaussian, Inc.  The licensee
 of this program is prohibited from giving any competitor of
 Gaussian, Inc. access to this program.  By using this program,
 the user acknowledges that Gaussian, Inc. is engaged in the
 business of creating and licensing software in the field of
 computational chemistry and represents and warrants to the
 licensee that it is not a competitor of Gaussian, Inc. and that
 it will not use this program in any manner prohibited above.
 ---------------------------------------------------------------
  

 Cite this work as:
 Gaussian 16, Revision C.01,
 M. J. Frisch, G. W. Trucks, H. B. Schlegel, G. E. Scuseria, 
 M. A. Robb, J. R. Cheeseman, G. Scalmani, V. Barone, 
 G. A. Petersson, H. Nakatsuji, X. Li, M. Caricato, A. V. Marenich, 
 J. Bloino, B. G. Janesko, R. Gomperts, B. Mennucci, H. P. Hratchian, 
 J. V. Ortiz, A. F. Izmaylov, J. L. Sonnenberg, D. Williams-Young, 
 F. Ding, F. Lipparini, F. Egidi, J. Goings, B. Peng, A. Petrone, 
 T. Henderson, D. Ranasinghe, V. G. Zakrzewski, J. Gao, N. Rega, 
 G. Zheng, W. Liang, M. Hada, M. Ehara, K. Toyota, R. Fukuda, 
 J. Hasegawa, M. Ishida, T. Nakajima, Y. Honda, O. Kitao, H. Nakai, 
 T. Vreven, K. Throssell, J. A. Montgomery, Jr., J. E. Peralta, 
 F. Ogliaro, M. J. Bearpark, J. J. Heyd, E. N. Brothers, K. N. Kudin, 
 V. N. Staroverov, T. A. Keith, R. Kobayashi, J. Normand, 
 K. Raghavachari, A. P. Rendell, J. C. Burant, S. S. Iyengar, 
 J. Tomasi, M. Cossi, J. M. Millam, M. Klene, C. Adamo, R. Cammi, 
 J. W. Ochterski, R. L. Martin, K. Morokuma, O. Farkas, 
 J. B. Foresman, and D. J. Fox, Gaussian, Inc., Wallingford CT, 2019.
 
 ******************************************
 Gaussian 16:  ES64L-G16RevC.01  3-Jul-2019
                24-May-2025 
 ******************************************
 %mem=28GB
 %chk=2003846667223680600001_r12_insertion_R_9_1_10_IRC_R_prod
 %nprocshared=8
 Will use up to    8 processors via shared memory.
 -----------------------------------------------------------------
 #P M062X/Def2TZVPP Symm(None) scf(xqc) pop(None) freq opt(CalcFC)
 -----------------------------------------------------------------
 1/10=4,18=20,19=15,26=3,38=1/1,3;
 2/9=110,12=2,15=3,17=6,18=5,40=1/2;
 3/5=44,7=202,11=2,25=1,30=1,71=2,74=-55,140=1/1,2,3;
 4//1;
 5/5=2,8=3,13=1,38=5/2,8;
 8/6=4,10=90,11=11/1;
 11/6=1,8=1,9=11,15=111,16=1,31=1/1,2,10;
 10/6=1,13=1,31=1/2;
 7/10=1,25=1,30=1/1,2,3,16;
 1/10=4,18=20,19=15,26=3/3(2);
 2/9=110,15=3/2;
 99//99;
 2/9=110,15=3/2;
 3/5=44,7=202,11=2,25=1,30=1,71=1,74=-55/1,2,3;
 4/5=5,16=3,69=1/1;
 5/5=2,8=3,13=1,38=5/2,8;
 7/30=1/1,2,3,16;
 1/18=20,19=15,26=3/3(-5);
 2/9=110,15=3/2;
 99/9=1/99;
 Leave Link    1 at Sat May 24 06:00:48 2025, MaxMem=  3758096384 cpu:               0.0 elap:               0.0
 (Enter /apps/easybuild-2022/easybuild/software/Compiler/NVHPC/22.11-CUDA-11.7.0/Gaussian/g16c01-CUDA-11.7.0/g16/l101.exe)
 ------------------------------
 Gaussian input prepared by ASE
 ------------------------------
 Symbolic Z-matrix:
 Charge =  0 Multiplicity = 1
 C                    -0.97636  -0.91524   0.21358 
 C                    -0.57577   0.55818   0.3775 
 F                    -1.23689   1.45685  -0.33384 
 F                    -0.65386   0.87377   1.66085 
 S                     1.19275   0.36051  -0.38359 
 O                     2.25612   0.40689   0.5577 
 O                     1.02879  -0.68511  -1.32621 
 O                     1.21629   1.6875   -1.21628 
 F                    -1.84529  -1.5956    0.90481 
 F                     0.22176  -1.39073   0.8097 
 F                    -1.40104  -1.03394  -1.05371 
 H                     1.86306   2.29987  -0.84053 
 
 ITRead=  0  0  0  0  0  0  0  0  0  0  0  0
 MicOpt= -1 -1 -1 -1 -1 -1 -1 -1 -1 -1 -1 -1
 NAtoms=     12 NQM=       12 NQMF=       0 NMMI=      0 NMMIF=      0
                NMic=       0 NMicF=      0.
                    Isotopes and Nuclear Properties:
 (Nuclear quadrupole moments (NQMom) in fm**2, nuclear magnetic moments (NMagM)
  in nuclear magnetons)

  Atom         1           2           3           4           5           6           7           8           9          10
 IAtWgt=          12          12          19          19          32          16          16          16          19          19
 AtmWgt=  12.0000000  12.0000000  18.9984032  18.9984032  31.9720718  15.9949146  15.9949146  15.9949146  18.9984032  18.9984032
 NucSpn=           0           0           1           1           0           0           0           0           1           1
 AtZEff=  -0.0000000  -0.0000000  -0.0000000  -0.0000000  -0.0000000  -0.0000000  -0.0000000  -0.0000000  -0.0000000  -0.0000000
 NQMom=    0.0000000   0.0000000   0.0000000   0.0000000   0.0000000   0.0000000   0.0000000   0.0000000   0.0000000   0.0000000
 NMagM=    0.0000000   0.0000000   2.6288670   2.6288670   0.0000000   0.0000000   0.0000000   0.0000000   2.6288670   2.6288670
 AtZNuc=   6.0000000   6.0000000   9.0000000   9.0000000  16.0000000   8.0000000   8.0000000   8.0000000   9.0000000   9.0000000

  Atom        11          12
 IAtWgt=          19           1
 AtmWgt=  18.9984032   1.0078250
 NucSpn=           1           1
 AtZEff=  -0.0000000  -0.0000000
 NQMom=    0.0000000   0.0000000
 NMagM=    2.6288670   2.7928460
 AtZNuc=   9.0000000   1.0000000
 Leave Link  101 at Sat May 24 06:00:48 2025, MaxMem=  3758096384 cpu:               0.2 elap:               0.2
 (Enter /apps/easybuild-2022/easybuild/software/Compiler/NVHPC/22.11-CUDA-11.7.0/Gaussian/g16c01-CUDA-11.7.0/g16/l103.exe)

 GradGradGradGradGradGradGradGradGradGradGradGradGradGradGradGradGradGrad
 Berny optimization.
 Initialization pass.
                           ----------------------------
                           !    Initial Parameters    !
                           ! (Angstroms and Degrees)  !
 --------------------------                            --------------------------
 ! Name  Definition              Value          Derivative Info.                !
 --------------------------------------------------------------------------------
 ! R1    R(1,2)                  1.5357         calculate D2E/DX2 analytically  !
 ! R2    R(1,9)                  1.3022         calculate D2E/DX2 analytically  !
 ! R3    R(1,10)                 1.4202         calculate D2E/DX2 analytically  !
 ! R4    R(1,11)                 1.3418         calculate D2E/DX2 analytically  !
 ! R5    R(2,3)                  1.3231         calculate D2E/DX2 analytically  !
 ! R6    R(2,4)                  1.3239         calculate D2E/DX2 analytically  !
 ! R7    R(2,5)                  1.9355         calculate D2E/DX2 analytically  !
 ! R8    R(5,6)                  1.4209         calculate D2E/DX2 analytically  !
 ! R9    R(5,7)                  1.4173         calculate D2E/DX2 analytically  !
 ! R10   R(5,8)                  1.5668         calculate D2E/DX2 analytically  !
 ! R11   R(8,12)                 0.9667         calculate D2E/DX2 analytically  !
 ! A1    A(2,1,9)              128.2209         calculate D2E/DX2 analytically  !
 ! A2    A(2,1,10)              93.2308         calculate D2E/DX2 analytically  !
 ! A3    A(2,1,11)             105.5598         calculate D2E/DX2 analytically  !
 ! A4    A(9,1,10)              99.5094         calculate D2E/DX2 analytically  !
 ! A5    A(9,1,11)             104.1183         calculate D2E/DX2 analytically  !
 ! A6    A(10,1,11)            129.3326         calculate D2E/DX2 analytically  !
 ! A7    A(1,2,3)              117.6415         calculate D2E/DX2 analytically  !
 ! A8    A(1,2,4)              108.4694         calculate D2E/DX2 analytically  !
 ! A9    A(1,2,5)               95.6468         calculate D2E/DX2 analytically  !
 ! A10   A(3,2,4)              109.2549         calculate D2E/DX2 analytically  !
 ! A11   A(3,2,5)              108.3321         calculate D2E/DX2 analytically  !
 ! A12   A(4,2,5)              117.3508         calculate D2E/DX2 analytically  !
 ! A13   A(2,5,6)              114.8346         calculate D2E/DX2 analytically  !
 ! A14   A(2,5,7)              103.3658         calculate D2E/DX2 analytically  !
 ! A15   A(2,5,8)               97.829          calculate D2E/DX2 analytically  !
 ! A16   A(6,5,7)              123.4531         calculate D2E/DX2 analytically  !
 ! A17   A(6,5,8)              108.2512         calculate D2E/DX2 analytically  !
 ! A18   A(7,5,8)              105.8495         calculate D2E/DX2 analytically  !
 ! A19   A(5,8,12)             109.8765         calculate D2E/DX2 analytically  !
 ! D1    D(9,1,2,3)            -91.629          calculate D2E/DX2 analytically  !
 ! D2    D(9,1,2,4)             32.9395         calculate D2E/DX2 analytically  !
 ! D3    D(9,1,2,5)            154.2565         calculate D2E/DX2 analytically  !
 ! D4    D(10,1,2,3)           163.5928         calculate D2E/DX2 analytically  !
 ! D5    D(10,1,2,4)           -71.8387         calculate D2E/DX2 analytically  !
 ! D6    D(10,1,2,5)            49.4783         calculate D2E/DX2 analytically  !
 ! D7    D(11,1,2,3)            31.1619         calculate D2E/DX2 analytically  !
 ! D8    D(11,1,2,4)           155.7305         calculate D2E/DX2 analytically  !
 ! D9    D(11,1,2,5)           -82.9525         calculate D2E/DX2 analytically  !
 ! D10   D(1,2,5,6)           -106.4619         calculate D2E/DX2 analytically  !
 ! D11   D(1,2,5,7)             30.7862         calculate D2E/DX2 analytically  !
 ! D12   D(1,2,5,8)            139.209          calculate D2E/DX2 analytically  !
 ! D13   D(3,2,5,6)            131.9448         calculate D2E/DX2 analytically  !
 ! D14   D(3,2,5,7)            -90.8071         calculate D2E/DX2 analytically  !
 ! D15   D(3,2,5,8)             17.6157         calculate D2E/DX2 analytically  !
 ! D16   D(4,2,5,6)              7.7149         calculate D2E/DX2 analytically  !
 ! D17   D(4,2,5,7)            144.9629         calculate D2E/DX2 analytically  !
 ! D18   D(4,2,5,8)           -106.6143         calculate D2E/DX2 analytically  !
 ! D19   D(2,5,8,12)           111.8994         calculate D2E/DX2 analytically  !
 ! D20   D(6,5,8,12)            -7.5564         calculate D2E/DX2 analytically  !
 ! D21   D(7,5,8,12)          -141.7448         calculate D2E/DX2 analytically  !
 --------------------------------------------------------------------------------
 Trust Radius=3.00D-01 FncErr=1.00D-07 GrdErr=1.00D-06 EigMax=2.50D+02 EigMin=1.00D-04
 Number of steps in this run=     61 maximum allowed number of steps=    100.
 GradGradGradGradGradGradGradGradGradGradGradGradGradGradGradGradGradGrad

 Leave Link  103 at Sat May 24 06:00:48 2025, MaxMem=  3758096384 cpu:               0.0 elap:               0.0
 (Enter /apps/easybuild-2022/easybuild/software/Compiler/NVHPC/22.11-CUDA-11.7.0/Gaussian/g16c01-CUDA-11.7.0/g16/l202.exe)
                          Input orientation:                          
 ---------------------------------------------------------------------
 Center     Atomic      Atomic             Coordinates (Angstroms)
 Number     Number       Type             X           Y           Z
 ---------------------------------------------------------------------
      1          6           0       -0.976363   -0.915242    0.213582
      2          6           0       -0.575770    0.558180    0.377497
      3          9           0       -1.236887    1.456846   -0.333837
      4          9           0       -0.653864    0.873769    1.660849
      5         16           0        1.192753    0.360512   -0.383586
      6          8           0        2.256121    0.406894    0.557699
      7          8           0        1.028786   -0.685109   -1.326208
      8          8           0        1.216293    1.687501   -1.216276
      9          9           0       -1.845288   -1.595600    0.904805
     10          9           0        0.221761   -1.390726    0.809697
     11          9           0       -1.401043   -1.033939   -1.053712
     12          1           0        1.863059    2.299873   -0.840530
 ---------------------------------------------------------------------
                    Distance matrix (angstroms):
                    1          2          3          4          5
     1  C    0.000000
     2  C    1.535681   0.000000
     3  F    2.448334   1.323130   0.000000
     4  F    2.323607   1.323891   2.158395   0.000000
     5  S    2.586353   1.935457   2.666003   2.802346   0.000000
     6  O    3.509332   2.841649   3.754776   3.146891   1.420887
     7  O    2.538609   2.650090   3.272009   3.766155   1.417302
     8  O    3.691410   2.650843   2.617249   3.526683   1.566789
     9  F    1.302193   2.555093   3.349897   2.844095   3.836146
    10  F    1.420190   2.149671   3.397645   2.572764   2.331005
    11  F    1.341818   2.294401   2.597918   3.400951   3.020156
    12  H    4.417062   3.234961   3.252245   3.824339   2.102196
                    6          7          8          9         10
     6  O    0.000000
     7  O    2.499585   0.000000
     8  O    2.422433   2.382545   0.000000
     9  F    4.577338   3.750562   4.964979   0.000000
    10  F    2.726456   2.389827   3.816955   2.079353   0.000000
    11  F    4.248234   2.469819   3.779300   2.085331   2.496614
    12  H    2.385982   3.137198   0.966691   5.654444   4.363213
                   11         12
    11  F    0.000000
    12  H    4.670558   0.000000
 Symmetry turned off by external request.
 Stoichiometry    C2HF5O3S
 Rotational constants (GHZ):           1.5373646           0.9136378           0.8627939
 Leave Link  202 at Sat May 24 06:00:48 2025, MaxMem=  3758096384 cpu:               0.0 elap:               0.0
 (Enter /apps/easybuild-2022/easybuild/software/Compiler/NVHPC/22.11-CUDA-11.7.0/Gaussian/g16c01-CUDA-11.7.0/g16/l301.exe)
 Standard basis: def2TZVPP (5D, 7F)
 Ernie: Thresh=  0.10000D-02 Tol=  0.10000D-05 Strict=F.
   366 basis functions,   596 primitive gaussians,   423 cartesian basis functions
    49 alpha electrons       49 beta electrons
       nuclear repulsion energy       945.2108506591 Hartrees.
 IExCor= 4336 DFT=T Ex+Corr=M062X ExCW=0 ScaHFX=  0.540000
 ScaDFX=  1.000000  1.000000  1.000000  1.000000 ScalE2=  1.000000  1.000000
 IRadAn=      5 IRanWt=     -1 IRanGd=            0 ICorTp=0 IEmpDi=  4
 NAtoms=   12 NActive=   12 NUniq=   12 SFac= 1.00D+00 NAtFMM=   60 NAOKFM=F Big=F
 Integral buffers will be    131072 words long.
 Raffenetti 2 integral format.
 Two-electron integral symmetry is turned off.
 Leave Link  301 at Sat May 24 06:00:48 2025, MaxMem=  3758096384 cpu:               0.0 elap:               0.0
 (Enter /apps/easybuild-2022/easybuild/software/Compiler/NVHPC/22.11-CUDA-11.7.0/Gaussian/g16c01-CUDA-11.7.0/g16/l302.exe)
 NPDir=0 NMtPBC=     1 NCelOv=     1 NCel=       1 NClECP=     1 NCelD=      1
         NCelK=      1 NCelE2=     1 NClLst=     1 CellRange=     0.0.
 One-electron integrals computed using PRISM.
   1 Symmetry operations used in ECPInt.
 ECPInt:  NShTT=    8515 NPrTT=   27988 LenC2=    8044 LenP2D=   19622.
 LDataN:  DoStor=T MaxTD1= 6 Len=  172
 NBasis=   366 RedAO= T EigKep=  3.48D-04  NBF=   366
 NBsUse=   366 1.00D-06 EigRej= -1.00D+00 NBFU=   366
 Precomputing XC quadrature grid using
 IXCGrd= 4 IRadAn=           5 IRanWt=          -1 IRanGd=           0 AccXCQ= 0.00D+00.
 Generated NRdTot=       0 NPtTot=           0 NUsed=           0 NTot=          32
 NSgBfM=   419   419   419   419   419 MxSgAt=    12 MxSgA2=    12.
 Leave Link  302 at Sat May 24 06:00:48 2025, MaxMem=  3758096384 cpu:               0.7 elap:               0.2
 (Enter /apps/easybuild-2022/easybuild/software/Compiler/NVHPC/22.11-CUDA-11.7.0/Gaussian/g16c01-CUDA-11.7.0/g16/l303.exe)
 DipDrv:  MaxL=1.
 Leave Link  303 at Sat May 24 06:00:48 2025, MaxMem=  3758096384 cpu:               0.1 elap:               0.0
 (Enter /apps/easybuild-2022/easybuild/software/Compiler/NVHPC/22.11-CUDA-11.7.0/Gaussian/g16c01-CUDA-11.7.0/g16/l401.exe)
 ExpMin= 9.52D-02 ExpMax= 6.07D+04 ExpMxC= 2.07D+03 IAcc=3 IRadAn=         5 AccDes= 0.00D+00
 Harris functional with IExCor= 1009 and IRadAn=       5 diagonalized for initial guess.
 HarFok:  IExCor= 1009 AccDes= 0.00D+00 IRadAn=         5 IDoV= 1 UseB2=F ITyADJ=14
 ICtDFT=  3500011 ScaDFX=  1.000000  1.000000  1.000000  1.000000
 FoFCou: FMM=F IPFlag=           0 FMFlag=      100000 FMFlg1=           0
         NFxFlg=           0 DoJE=T BraDBF=F KetDBF=T FulRan=T
         wScrn=  0.000000 ICntrl=       500 IOpCl=  0 I1Cent=   200000004 NGrid=           0
         NMat0=    1 NMatS0=      1 NMatT0=    0 NMatD0=    1 NMtDS0=    0 NMtDT0=    0
 Symmetry not used in FoFCou.
 Harris En= -1199.28885340410    
 JPrj=0 DoOrth=F DoCkMO=F.
 Leave Link  401 at Sat May 24 06:00:49 2025, MaxMem=  3758096384 cpu:               4.4 elap:               0.6
 (Enter /apps/easybuild-2022/easybuild/software/Compiler/NVHPC/22.11-CUDA-11.7.0/Gaussian/g16c01-CUDA-11.7.0/g16/l502.exe)
 Keep R1 ints in memory in canonical form, NReq=2293446996.
 FoFCou: FMM=F IPFlag=           0 FMFlag=           0 FMFlg1=           0
         NFxFlg=           0 DoJE=F BraDBF=F KetDBF=F FulRan=T
         wScrn=  0.000000 ICntrl=       600 IOpCl=  0 I1Cent=           0 NGrid=           0
         NMat0=    1 NMatS0=  67161 NMatT0=    0 NMatD0=    1 NMtDS0=    0 NMtDT0=    0
 Symmetry not used in FoFCou.
 Two-electron integral symmetry not used.
 Closed shell SCF:
 Using DIIS extrapolation, IDIIS=  1040.
 NGot=  3758096384 LenX=  1502398672 LenY=  1502219302
 Requested convergence on RMS density matrix=1.00D-08 within  32 cycles.
 Requested convergence on MAX density matrix=1.00D-06.
 Requested convergence on             energy=1.00D-06.
 No special actions if energy rises.
 Integral accuracy reduced to 1.0D-05 until final iterations.

 Cycle   1  Pass 0  IDiag  1:
 E= -1199.54189297958    
 DIIS: error= 2.37D-02 at cycle   1 NSaved=   1.
 NSaved= 1 IEnMin= 1 EnMin= -1199.54189297958     IErMin= 1 ErrMin= 2.37D-02
 ErrMax= 2.37D-02  0.00D+00 EMaxC= 1.00D-01 BMatC= 6.32D-01 BMatP= 6.32D-01
 IDIUse=3 WtCom= 7.63D-01 WtEn= 2.37D-01
 Coeff-Com:  0.100D+01
 Coeff-En:   0.100D+01
 Coeff:      0.100D+01
 Gap=     0.426 Goal=   None    Shift=    0.000
 GapD=    0.426 DampG=2.000 DampE=0.500 DampFc=1.0000 IDamp=-1.
 RMSDP=2.66D-03 MaxDP=2.60D-01              OVMax= 2.38D-01

 Cycle   2  Pass 0  IDiag  1:
 E= -1199.21465131199     Delta-E=        0.327241667588 Rises=F Damp=F
 DIIS: error= 3.30D-02 at cycle   2 NSaved=   2.
 NSaved= 2 IEnMin= 1 EnMin= -1199.54189297958     IErMin= 1 ErrMin= 2.37D-02
 ErrMax= 3.30D-02  0.00D+00 EMaxC= 1.00D-01 BMatC= 1.03D+00 BMatP= 6.32D-01
 IDIUse=2 WtCom= 0.00D+00 WtEn= 1.00D+00
 Coeff-En:   0.652D+00 0.348D+00
 Coeff:      0.652D+00 0.348D+00
 Gap=     0.417 Goal=   None    Shift=    0.000
 RMSDP=1.41D-03 MaxDP=1.55D-01 DE= 3.27D-01 OVMax= 1.25D-01

 Cycle   3  Pass 0  IDiag  1:
 E= -1199.86178515410     Delta-E=       -0.647133842112 Rises=F Damp=F
 DIIS: error= 3.86D-03 at cycle   3 NSaved=   3.
 NSaved= 3 IEnMin= 3 EnMin= -1199.86178515410     IErMin= 3 ErrMin= 3.86D-03
 ErrMax= 3.86D-03  0.00D+00 EMaxC= 1.00D-01 BMatC= 1.75D-02 BMatP= 6.32D-01
 IDIUse=3 WtCom= 9.61D-01 WtEn= 3.86D-02
 Coeff-Com:  0.902D-01-0.392D-01 0.949D+00
 Coeff-En:   0.000D+00 0.000D+00 0.100D+01
 Coeff:      0.867D-01-0.377D-01 0.951D+00
 Gap=     0.427 Goal=   None    Shift=    0.000
 RMSDP=2.53D-04 MaxDP=1.39D-02 DE=-6.47D-01 OVMax= 1.78D-02

 Cycle   4  Pass 0  IDiag  1:
 E= -1199.86886293228     Delta-E=       -0.007077778177 Rises=F Damp=F
 DIIS: error= 2.32D-03 at cycle   4 NSaved=   4.
 NSaved= 4 IEnMin= 4 EnMin= -1199.86886293228     IErMin= 4 ErrMin= 2.32D-03
 ErrMax= 2.32D-03  0.00D+00 EMaxC= 1.00D-01 BMatC= 4.21D-03 BMatP= 1.75D-02
 IDIUse=3 WtCom= 9.77D-01 WtEn= 2.32D-02
 Coeff-Com:  0.829D-02-0.494D-01 0.495D+00 0.546D+00
 Coeff-En:   0.000D+00 0.000D+00 0.985D-01 0.902D+00
 Coeff:      0.809D-02-0.483D-01 0.486D+00 0.554D+00
 Gap=     0.428 Goal=   None    Shift=    0.000
 RMSDP=1.10D-04 MaxDP=6.60D-03 DE=-7.08D-03 OVMax= 1.07D-02

 Cycle   5  Pass 0  IDiag  1:
 E= -1199.87152056070     Delta-E=       -0.002657628416 Rises=F Damp=F
 DIIS: error= 4.21D-04 at cycle   5 NSaved=   5.
 NSaved= 5 IEnMin= 5 EnMin= -1199.87152056070     IErMin= 5 ErrMin= 4.21D-04
 ErrMax= 4.21D-04  0.00D+00 EMaxC= 1.00D-01 BMatC= 1.54D-04 BMatP= 4.21D-03
 IDIUse=3 WtCom= 9.96D-01 WtEn= 4.21D-03
 Coeff-Com: -0.104D-02-0.171D-01 0.135D+00 0.223D+00 0.660D+00
 Coeff-En:   0.000D+00 0.000D+00 0.000D+00 0.000D+00 0.100D+01
 Coeff:     -0.104D-02-0.170D-01 0.134D+00 0.223D+00 0.661D+00
 Gap=     0.426 Goal=   None    Shift=    0.000
 RMSDP=2.71D-05 MaxDP=1.04D-03 DE=-2.66D-03 OVMax= 2.17D-03

 Cycle   6  Pass 0  IDiag  1:
 E= -1199.87161982056     Delta-E=       -0.000099259869 Rises=F Damp=F
 DIIS: error= 1.04D-04 at cycle   6 NSaved=   6.
 NSaved= 6 IEnMin= 6 EnMin= -1199.87161982056     IErMin= 6 ErrMin= 1.04D-04
 ErrMax= 1.04D-04  0.00D+00 EMaxC= 1.00D-01 BMatC= 7.97D-06 BMatP= 1.54D-04
 IDIUse=3 WtCom= 9.99D-01 WtEn= 1.04D-03
 Coeff-Com: -0.792D-03-0.311D-02 0.179D-01 0.436D-01 0.242D+00 0.700D+00
 Coeff-En:   0.000D+00 0.000D+00 0.000D+00 0.000D+00 0.000D+00 0.100D+01
 Coeff:     -0.791D-03-0.310D-02 0.179D-01 0.435D-01 0.242D+00 0.700D+00
 Gap=     0.426 Goal=   None    Shift=    0.000
 RMSDP=7.08D-06 MaxDP=2.73D-04 DE=-9.93D-05 OVMax= 5.10D-04

 Initial convergence to 1.0D-05 achieved.  Increase integral accuracy.
 Cycle   7  Pass 1  IDiag  1:
 E= -1199.87164992511     Delta-E=       -0.000030104543 Rises=F Damp=F
 DIIS: error= 2.60D-05 at cycle   1 NSaved=   1.
 NSaved= 1 IEnMin= 1 EnMin= -1199.87164992511     IErMin= 1 ErrMin= 2.60D-05
 ErrMax= 2.60D-05  0.00D+00 EMaxC= 1.00D-01 BMatC= 1.66D-06 BMatP= 1.66D-06
 IDIUse=1 WtCom= 1.00D+00 WtEn= 0.00D+00
 Coeff-Com:  0.100D+01
 Coeff:      0.100D+01
 Gap=     0.427 Goal=   None    Shift=    0.000
 RMSDP=7.08D-06 MaxDP=2.73D-04 DE=-3.01D-05 OVMax= 3.07D-04

 Cycle   8  Pass 1  IDiag  1:
 E= -1199.87165072652     Delta-E=       -0.000000801409 Rises=F Damp=F
 DIIS: error= 2.61D-05 at cycle   2 NSaved=   2.
 NSaved= 2 IEnMin= 2 EnMin= -1199.87165072652     IErMin= 1 ErrMin= 2.60D-05
 ErrMax= 2.61D-05  0.00D+00 EMaxC= 1.00D-01 BMatC= 9.75D-07 BMatP= 1.66D-06
 IDIUse=1 WtCom= 1.00D+00 WtEn= 0.00D+00
 Coeff-Com:  0.412D+00 0.588D+00
 Coeff:      0.412D+00 0.588D+00
 Gap=     0.427 Goal=   None    Shift=    0.000
 RMSDP=2.05D-06 MaxDP=1.42D-04 DE=-8.01D-07 OVMax= 2.02D-04

 Cycle   9  Pass 1  IDiag  1:
 E= -1199.87165126255     Delta-E=       -0.000000536034 Rises=F Damp=F
 DIIS: error= 1.26D-05 at cycle   3 NSaved=   3.
 NSaved= 3 IEnMin= 3 EnMin= -1199.87165126255     IErMin= 3 ErrMin= 1.26D-05
 ErrMax= 1.26D-05  0.00D+00 EMaxC= 1.00D-01 BMatC= 1.62D-07 BMatP= 9.75D-07
 IDIUse=1 WtCom= 1.00D+00 WtEn= 0.00D+00
 Coeff-Com: -0.260D-01 0.273D+00 0.753D+00
 Coeff:     -0.260D-01 0.273D+00 0.753D+00
 Gap=     0.427 Goal=   None    Shift=    0.000
 RMSDP=1.02D-06 MaxDP=4.60D-05 DE=-5.36D-07 OVMax= 8.05D-05

 Cycle  10  Pass 1  IDiag  1:
 E= -1199.87165136476     Delta-E=       -0.000000102205 Rises=F Damp=F
 DIIS: error= 3.97D-06 at cycle   4 NSaved=   4.
 NSaved= 4 IEnMin= 4 EnMin= -1199.87165136476     IErMin= 4 ErrMin= 3.97D-06
 ErrMax= 3.97D-06  0.00D+00 EMaxC= 1.00D-01 BMatC= 1.85D-08 BMatP= 1.62D-07
 IDIUse=1 WtCom= 1.00D+00 WtEn= 0.00D+00
 Coeff-Com: -0.377D-01 0.110D+00 0.396D+00 0.531D+00
 Coeff:     -0.377D-01 0.110D+00 0.396D+00 0.531D+00
 Gap=     0.427 Goal=   None    Shift=    0.000
 RMSDP=2.40D-07 MaxDP=1.04D-05 DE=-1.02D-07 OVMax= 2.54D-05

 Cycle  11  Pass 1  IDiag  1:
 E= -1199.87165137749     Delta-E=       -0.000000012735 Rises=F Damp=F
 DIIS: error= 7.20D-07 at cycle   5 NSaved=   5.
 NSaved= 5 IEnMin= 5 EnMin= -1199.87165137749     IErMin= 5 ErrMin= 7.20D-07
 ErrMax= 7.20D-07  0.00D+00 EMaxC= 1.00D-01 BMatC= 5.48D-10 BMatP= 1.85D-08
 IDIUse=1 WtCom= 1.00D+00 WtEn= 0.00D+00
 Coeff-Com: -0.458D-02-0.945D-02-0.938D-02 0.110D+00 0.913D+00
 Coeff:     -0.458D-02-0.945D-02-0.938D-02 0.110D+00 0.913D+00
 Gap=     0.427 Goal=   None    Shift=    0.000
 RMSDP=9.24D-08 MaxDP=4.05D-06 DE=-1.27D-08 OVMax= 9.22D-06

 Cycle  12  Pass 1  IDiag  1:
 E= -1199.87165137811     Delta-E=       -0.000000000616 Rises=F Damp=F
 DIIS: error= 2.61D-07 at cycle   6 NSaved=   6.
 NSaved= 6 IEnMin= 6 EnMin= -1199.87165137811     IErMin= 6 ErrMin= 2.61D-07
 ErrMax= 2.61D-07  0.00D+00 EMaxC= 1.00D-01 BMatC= 1.14D-10 BMatP= 5.48D-10
 IDIUse=1 WtCom= 1.00D+00 WtEn= 0.00D+00
 Coeff-Com:  0.179D-02-0.150D-01-0.440D-01-0.903D-02 0.388D+00 0.678D+00
 Coeff:      0.179D-02-0.150D-01-0.440D-01-0.903D-02 0.388D+00 0.678D+00
 Gap=     0.427 Goal=   None    Shift=    0.000
 RMSDP=2.75D-08 MaxDP=9.27D-07 DE=-6.16D-10 OVMax= 2.41D-06

 Cycle  13  Pass 1  IDiag  1:
 E= -1199.87165137820     Delta-E=       -0.000000000092 Rises=F Damp=F
 DIIS: error= 8.30D-08 at cycle   7 NSaved=   7.
 NSaved= 7 IEnMin= 7 EnMin= -1199.87165137820     IErMin= 7 ErrMin= 8.30D-08
 ErrMax= 8.30D-08  0.00D+00 EMaxC= 1.00D-01 BMatC= 8.36D-12 BMatP= 1.14D-10
 IDIUse=1 WtCom= 1.00D+00 WtEn= 0.00D+00
 Coeff-Com:  0.102D-02-0.526D-02-0.166D-01-0.119D-01 0.858D-01 0.256D+00
 Coeff-Com:  0.691D+00
 Coeff:      0.102D-02-0.526D-02-0.166D-01-0.119D-01 0.858D-01 0.256D+00
 Coeff:      0.691D+00
 Gap=     0.427 Goal=   None    Shift=    0.000
 RMSDP=7.96D-09 MaxDP=3.71D-07 DE=-9.23D-11 OVMax= 9.43D-07

 SCF Done:  E(RM062X) =  -1199.87165138     A.U. after   13 cycles
            NFock= 13  Conv=0.80D-08     -V/T= 2.0028
 KE= 1.196551576673D+03 PE=-4.737016680798D+03 EE= 1.395382602087D+03
 Leave Link  502 at Sat May 24 06:01:27 2025, MaxMem=  3758096384 cpu:             152.7 elap:              37.5
 (Enter /apps/easybuild-2022/easybuild/software/Compiler/NVHPC/22.11-CUDA-11.7.0/Gaussian/g16c01-CUDA-11.7.0/g16/l508.exe)
 QCSCF skips out because SCF is already converged.
 Leave Link  508 at Sat May 24 06:01:27 2025, MaxMem=  3758096384 cpu:               0.0 elap:               0.0
 (Enter /apps/easybuild-2022/easybuild/software/Compiler/NVHPC/22.11-CUDA-11.7.0/Gaussian/g16c01-CUDA-11.7.0/g16/l801.exe)
 DoSCS=F DFT=T ScalE2(SS,OS)=  1.000000  1.000000
 Range of M.O.s used for correlation:     1   366
 NBasis=   366 NAE=    49 NBE=    49 NFC=     0 NFV=     0
 NROrb=    366 NOA=    49 NOB=    49 NVA=   317 NVB=   317

 **** Warning!!: The largest alpha MO coefficient is  0.14855545D+02

 Leave Link  801 at Sat May 24 06:01:27 2025, MaxMem=  3758096384 cpu:               0.0 elap:               0.0
 (Enter /apps/easybuild-2022/easybuild/software/Compiler/NVHPC/22.11-CUDA-11.7.0/Gaussian/g16c01-CUDA-11.7.0/g16/l1101.exe)
 Using compressed storage, NAtomX=    12.
 Will process     13 centers per pass.
   1 Symmetry operations used in ECPInt.
 ECPInt:  NShTT=    8515 NPrTT=   27988 LenC2=    8044 LenP2D=   19622.
 LDataN:  DoStor=T MaxTD1= 7 Len=  274
 Leave Link 1101 at Sat May 24 06:01:27 2025, MaxMem=  3758096384 cpu:               1.1 elap:               0.2
 (Enter /apps/easybuild-2022/easybuild/software/Compiler/NVHPC/22.11-CUDA-11.7.0/Gaussian/g16c01-CUDA-11.7.0/g16/l1102.exe)
 Symmetrizing basis deriv contribution to polar:
 IMax=3 JMax=2 DiffMx= 0.00D+00
 Leave Link 1102 at Sat May 24 06:01:27 2025, MaxMem=  3758096384 cpu:               0.1 elap:               0.0
 (Enter /apps/easybuild-2022/easybuild/software/Compiler/NVHPC/22.11-CUDA-11.7.0/Gaussian/g16c01-CUDA-11.7.0/g16/l1110.exe)
 Forming Gx(P) for the SCF density, NAtomX=    12.
 Integral derivatives from FoFJK, PRISM(SPDF).
 Do as many integral derivatives as possible in FoFJK.
 G2DrvN: MDV=    3758095012.
 G2DrvN: will do    13 centers at a time, making    1 passes.
 Calling FoFCou, ICntrl=  3107 FMM=F I1Cent=   0 AccDes= 0.00D+00.
 FoFJK:  IHMeth= 1 ICntrl=    3107 DoSepK=F KAlg= 0 I1Cent=           0 FoldK=F
 IRaf=         0 NMat=       1 IRICut=       1 DoRegI=T DoRafI=F ISym2E= 0 IDoP0=0 IntGTp=1.
 FoFCou: FMM=F IPFlag=           0 FMFlag=      100000 FMFlg1=           0
         NFxFlg=           0 DoJE=F BraDBF=F KetDBF=F FulRan=T
         wScrn=  0.000000 ICntrl=      3107 IOpCl=  0 I1Cent=           0 NGrid=           0
         NMat0=    1 NMatS0=      1 NMatT0=    0 NMatD0=    1 NMtDS0=    0 NMtDT0=    0
 Symmetry not used in FoFCou.
 End of G2Drv F.D. properties file   721 does not exist.
 End of G2Drv F.D. properties file   722 does not exist.
 End of G2Drv F.D. properties file   788 does not exist.
 Leave Link 1110 at Sat May 24 06:02:27 2025, MaxMem=  3758096384 cpu:             477.2 elap:              60.2
 (Enter /apps/easybuild-2022/easybuild/software/Compiler/NVHPC/22.11-CUDA-11.7.0/Gaussian/g16c01-CUDA-11.7.0/g16/l1002.exe)
 Minotr:  Closed shell wavefunction.
          IDoAtm=111111111111
          Direct CPHF calculation.
          Differentiating once with respect to nuclear coordinates.
          Requested convergence is 1.0D-08 RMS, and 1.0D-07 maximum.
          Secondary convergence is 1.0D-12 RMS, and 1.0D-12 maximum.
          NewPWx=T KeepS1=F KeepF1=F KeepIn=T MapXYZ=F SortEE=F KeepMc=T.
         3605 words used for storage of precomputed grid.
 Keep R1 ints in memory in canonical form, NReq=2293452911.
 FoFCou: FMM=F IPFlag=           0 FMFlag=           0 FMFlg1=           0
         NFxFlg=           0 DoJE=F BraDBF=F KetDBF=F FulRan=T
         wScrn=  0.000000 ICntrl=       600 IOpCl=  0 I1Cent=           0 NGrid=           0
         NMat0=    1 NMatS0=  67161 NMatT0=    0 NMatD0=    1 NMtDS0=    0 NMtDT0=    0
 Symmetry not used in FoFCou.
 Two-electron integral symmetry not used.
          MDV=    3758096384 using IRadAn=       1.
          Solving linear equations simultaneously, MaxMat=       0.
          There are    39 degrees of freedom in the 1st order CPHF.  IDoFFX=6 NUNeed=     0.
     33 vectors produced by pass  0 Test12= 3.98D-14 2.56D-09 XBig12= 1.60D-01 6.74D-02.
 AX will form    33 AO Fock derivatives at one time.
     33 vectors produced by pass  1 Test12= 3.98D-14 2.56D-09 XBig12= 3.57D-02 3.25D-02.
     33 vectors produced by pass  2 Test12= 3.98D-14 2.56D-09 XBig12= 1.34D-03 5.04D-03.
     33 vectors produced by pass  3 Test12= 3.98D-14 2.56D-09 XBig12= 3.26D-05 8.71D-04.
     33 vectors produced by pass  4 Test12= 3.98D-14 2.56D-09 XBig12= 4.58D-07 8.91D-05.
     33 vectors produced by pass  5 Test12= 3.98D-14 2.56D-09 XBig12= 5.26D-09 1.04D-05.
     33 vectors produced by pass  6 Test12= 3.98D-14 2.56D-09 XBig12= 4.43D-11 1.19D-06.
     19 vectors produced by pass  7 Test12= 3.98D-14 2.56D-09 XBig12= 2.62D-13 6.96D-08.
      4 vectors produced by pass  8 Test12= 3.98D-14 2.56D-09 XBig12= 1.51D-15 3.84D-09.
 InvSVY:  IOpt=1 It=  1 EMax= 1.11D-15
 Solved reduced A of dimension   254 with    33 vectors.
 End of Minotr F.D. properties file   721 does not exist.
 End of Minotr F.D. properties file   722 does not exist.
 End of Minotr F.D. properties file   788 does not exist.
 Leave Link 1002 at Sat May 24 06:03:52 2025, MaxMem=  3758096384 cpu:             668.6 elap:              85.0
 (Enter /apps/easybuild-2022/easybuild/software/Compiler/NVHPC/22.11-CUDA-11.7.0/Gaussian/g16c01-CUDA-11.7.0/g16/l701.exe)
 ... and contract with generalized density number  0.
 Compute integral second derivatives.
   1 Symmetry operations used in ECPInt.
 ECPInt:  NShTT=    8515 NPrTT=   27988 LenC2=    8044 LenP2D=   19622.
 LDataN:  DoStor=T MaxTD1= 8 Len=  415
 Leave Link  701 at Sat May 24 06:03:52 2025, MaxMem=  3758096384 cpu:               0.8 elap:               0.1
 (Enter /apps/easybuild-2022/easybuild/software/Compiler/NVHPC/22.11-CUDA-11.7.0/Gaussian/g16c01-CUDA-11.7.0/g16/l702.exe)
 L702 exits ... SP integral derivatives will be done elsewhere.
 Leave Link  702 at Sat May 24 06:03:52 2025, MaxMem=  3758096384 cpu:               0.0 elap:               0.0
 (Enter /apps/easybuild-2022/easybuild/software/Compiler/NVHPC/22.11-CUDA-11.7.0/Gaussian/g16c01-CUDA-11.7.0/g16/l703.exe)
 Integral derivatives from FoFJK, PRISM(SPDF).
 Compute integral second derivatives, UseDBF=F ICtDFT=           0.
 Calling FoFJK, ICntrl=    100127 FMM=F ISym2X=0 I1Cent= 0 IOpClX= 0 NMat=1 NMatS=1 NMatT=0.
 FoFJK:  IHMeth= 1 ICntrl=  100127 DoSepK=F KAlg= 0 I1Cent=           0 FoldK=F
 IRaf=         0 NMat=       1 IRICut=       1 DoRegI=T DoRafI=F ISym2E= 0 IDoP0=0 IntGTp=1.
 FoFCou: FMM=F IPFlag=           0 FMFlag=      100000 FMFlg1=         800
         NFxFlg=           0 DoJE=F BraDBF=F KetDBF=F FulRan=T
         wScrn=  0.000000 ICntrl=    100127 IOpCl=  0 I1Cent=           0 NGrid=           0
         NMat0=    1 NMatS0=      1 NMatT0=    0 NMatD0=    1 NMtDS0=    0 NMtDT0=    0
 Symmetry not used in FoFCou.
 Leave Link  703 at Sat May 24 06:06:05 2025, MaxMem=  3758096384 cpu:            1055.8 elap:             133.0
 (Enter /apps/easybuild-2022/easybuild/software/Compiler/NVHPC/22.11-CUDA-11.7.0/Gaussian/g16c01-CUDA-11.7.0/g16/l716.exe)
 Dipole        =-2.20680505D-01 1.04783220D+00 1.10886636D-01
 Polarizability= 0.00000000D+00 0.00000000D+00 0.00000000D+00
                 0.00000000D+00 0.00000000D+00 0.00000000D+00
 -------------------------------------------------------------------
 Center     Atomic                   Forces (Hartrees/Bohr)
 Number     Number              X              Y              Z
 -------------------------------------------------------------------
      1        6           0.001594759   -0.004315644    0.009308250
      2        6           0.000419907   -0.001233466    0.001497841
      3        9          -0.003405472   -0.005926972    0.000872490
      4        9           0.010642968    0.006851948    0.001493343
      5       16           0.003581922    0.015857302   -0.011136100
      6        8          -0.006289207    0.001235931    0.003857909
      7        8           0.012703733    0.007756484   -0.006047821
      8        8           0.003289079    0.010070777   -0.002106170
      9        9          -0.021477520    0.015234870    0.015131727
     10        9          -0.026283012   -0.028647570   -0.024758765
     11        9           0.025667185   -0.017827826    0.011406358
     12        1          -0.000444341    0.000944167    0.000480938
 -------------------------------------------------------------------
 Cartesian Forces:  Max     0.028647570 RMS     0.012128530
 Force constants in Cartesian coordinates: 
                1             2             3             4             5 
      1  0.479244D+00
      2  0.141064D+00  0.604927D+00
      3 -0.617916D-01 -0.184360D-01  0.536500D+00
      4 -0.568682D-01 -0.368412D-01  0.183450D-01  0.383237D+00
      5 -0.478840D-01 -0.198386D+00 -0.249102D-01 -0.641981D-01  0.616288D+00
      6  0.101039D-01 -0.250112D-01 -0.376466D-01  0.483402D-01  0.129570D-01
      7 -0.200715D-02  0.149812D-02 -0.424634D-02 -0.144585D+00  0.103465D+00
      8  0.297966D-01 -0.120721D-01  0.228206D-01  0.971345D-01 -0.218230D+00
      9 -0.724642D-02  0.460859D-02 -0.820710D-02 -0.659807D-01  0.968908D-01
     10  0.307401D-02 -0.319952D-02 -0.113867D-01 -0.676547D-01  0.835424D-02
     11  0.590213D-02 -0.343715D-02 -0.429437D-01  0.771296D-02 -0.105463D+00
     12  0.327709D-02 -0.493098D-02 -0.390468D-01  0.168189D-01 -0.960901D-01
     13 -0.330263D-01 -0.361089D-01  0.858359D-02 -0.108535D+00  0.443814D-02
     14 -0.597195D-01  0.166423D-01  0.182615D-01 -0.120146D-01 -0.380539D-01
     15  0.108809D-01  0.176591D-01  0.379719D-01  0.324707D-01 -0.260447D-01
     16 -0.499277D-02  0.112711D-01  0.321777D-02  0.139143D-01 -0.117055D-01
     17  0.655917D-02 -0.420805D-02 -0.809232D-03  0.308561D-02  0.385167D-02
     18 -0.176566D-02  0.114293D-02 -0.738524D-02  0.688348D-02  0.305271D-03
     19  0.980524D-03  0.188106D-02 -0.842504D-02  0.149001D-01  0.106730D-01
     20  0.940508D-02 -0.101948D-01 -0.790543D-02 -0.182057D-01 -0.382901D-02
     21 -0.347178D-02 -0.457280D-02 -0.142654D-01 -0.209779D-01 -0.663266D-02
     22 -0.271556D-02  0.631999D-02  0.247317D-02  0.201614D-02 -0.161925D-01
     23  0.410908D-02  0.372707D-02  0.496423D-03  0.154139D-01 -0.184845D-01
     24  0.202384D-02 -0.600780D-02 -0.570832D-02 -0.762537D-02  0.211901D-01
     25 -0.199208D+00 -0.108886D+00  0.107738D+00 -0.886753D-02 -0.145605D-02
     26 -0.117123D+00 -0.173857D+00  0.834532D-01 -0.274702D-01  0.321669D-02
     27  0.101706D+00  0.805125D-01 -0.151388D+00  0.327400D-02  0.732947D-03
     28 -0.961919D-01  0.468431D-01  0.198442D-02 -0.313201D-01  0.164362D-01
     29  0.413556D-01 -0.119020D+00  0.110930D-01  0.419317D-01 -0.416229D-01
     30 -0.123850D-01  0.194193D-01 -0.704101D-01 -0.156629D-01  0.160756D-01
     31 -0.878709D-01 -0.234107D-01 -0.566961D-01  0.413060D-02 -0.296246D-03
     32 -0.127571D-01 -0.102998D+00 -0.408009D-01 -0.608249D-02 -0.935618D-03
     33 -0.417196D-01 -0.636168D-01 -0.240252D+00 -0.153833D-01  0.165633D-02
     34 -0.418369D-03 -0.431370D-03  0.204028D-03 -0.367733D-03 -0.163403D-02
     35 -0.708358D-03 -0.112345D-02 -0.319173D-03 -0.466492D-03  0.164903D-02
     36  0.387907D-03 -0.766802D-03 -0.161924D-03 -0.502099D-03  0.386976D-02
                6             7             8             9            10 
      6  0.582846D+00
      7 -0.696620D-01  0.157649D+00
      8  0.856631D-01 -0.133442D+00  0.240204D+00
      9 -0.129927D+00  0.101029D+00 -0.138815D+00  0.193803D+00
     10  0.266791D-01  0.642728D-02 -0.406279D-03 -0.323798D-01  0.495682D-01
     11 -0.790828D-01  0.266372D-02  0.136185D-01  0.355124D-01 -0.138681D-01
     12 -0.319207D+00 -0.187252D-01  0.190192D-01 -0.657258D-01 -0.342063D-02
     13  0.235256D-01 -0.907049D-02  0.317894D-02  0.165530D-03  0.139487D-01
     14 -0.140825D-01  0.224405D-01 -0.144757D-01  0.738322D-02  0.108599D-01
     15 -0.485694D-01 -0.258581D-01  0.198081D-01 -0.550945D-02  0.172087D-01
     16 -0.261403D-01 -0.117262D-01  0.651018D-02 -0.232474D-02  0.417763D-03
     17  0.194168D-02 -0.681307D-03  0.134967D-02 -0.974585D-03 -0.167225D-02
     18 -0.244689D-02  0.939357D-03 -0.210600D-02  0.167546D-02 -0.233929D-02
     19  0.108898D-01 -0.235558D-02  0.106289D-02 -0.162996D-02 -0.691931D-02
     20 -0.310570D-02  0.418280D-02  0.366180D-03  0.154225D-02  0.511005D-02
     21 -0.219480D-02  0.922856D-02 -0.478421D-02  0.365750D-02  0.587256D-02
     22  0.499600D-02 -0.416573D-02 -0.424927D-02  0.439090D-02 -0.233845D-02
     23  0.399637D-02 -0.425047D-02  0.801686D-02 -0.413718D-02 -0.468246D-02
     24  0.241162D-02  0.392120D-02 -0.362772D-02  0.173975D-02  0.643506D-03
     25  0.761888D-02  0.201706D-02 -0.467673D-02  0.123783D-02  0.172303D-02
     26  0.215343D-01  0.256800D-02 -0.364252D-02  0.106472D-02  0.331186D-02
     27 -0.340470D-02 -0.341591D-03  0.103929D-02  0.861135D-03 -0.993272D-03
     28 -0.153997D-01  0.561649D-02  0.699002D-02 -0.275945D-03  0.327959D-02
     29  0.285852D-01  0.168373D-02 -0.138204D-01  0.518583D-04 -0.448911D-05
     30 -0.486221D-02  0.525467D-03  0.208663D-02  0.199229D-02  0.280767D-02
     31 -0.216192D-01  0.221369D-02 -0.228726D-02  0.294323D-02 -0.153232D-02
     32 -0.351521D-01 -0.135758D-02 -0.722610D-03 -0.255395D-02 -0.386661D-02
     33 -0.354823D-01  0.339276D-02 -0.918567D-03  0.539814D-02 -0.346899D-02
     34  0.667678D-03 -0.136910D-04  0.388463D-03  0.708452D-04  0.625316D-05
     35  0.175675D-02  0.122968D-02 -0.591542D-03 -0.573562D-03  0.636717D-04
     36 -0.151602D-02 -0.203368D-03 -0.185775D-03  0.242234D-03  0.777135D-03
               11            12            13            14            15 
     11  0.103933D+00
     12  0.972406D-01  0.435579D+00
     13 -0.372627D-02 -0.159201D-01  0.758098D+00
     14 -0.179058D-02 -0.783312D-02  0.105116D+00  0.837110D+00
     15 -0.185150D-02 -0.170105D-01  0.307472D+00  0.212364D+00  0.911596D+00
     16  0.174353D-02  0.784618D-02 -0.432930D+00 -0.160200D-01 -0.305556D+00
     17  0.684733D-03  0.210306D-02 -0.107850D-01 -0.924164D-01 -0.114196D-01
     18  0.148361D-02  0.677622D-02 -0.287661D+00 -0.168114D-01 -0.352018D+00
     19  0.153748D-02  0.731919D-02 -0.104403D+00 -0.418883D-01 -0.371495D-01
     20  0.832431D-03 -0.480785D-02 -0.462431D-01 -0.413790D+00 -0.306005D+00
     21 -0.225161D-03 -0.517246D-02 -0.443984D-01 -0.305896D+00 -0.358733D+00
     22  0.159575D-02  0.591096D-02 -0.846911D-01 -0.275778D-01 -0.469649D-03
     23  0.278874D-02  0.699188D-02 -0.639116D-02 -0.226748D+00  0.105856D+00
     24 -0.183503D-02 -0.252233D-02 -0.114274D-01  0.895415D-01 -0.139725D+00
     25 -0.660389D-04 -0.286417D-02  0.389747D-02  0.534831D-02 -0.547746D-02
     26  0.258623D-02 -0.138607D-02  0.703594D-02 -0.659085D-02 -0.655346D-02
     27  0.200455D-02  0.545144D-02 -0.255473D-02 -0.210949D-02 -0.155353D-02
     28  0.126056D-02  0.191107D-02 -0.442685D-02  0.962359D-02 -0.210778D-02
     29 -0.380925D-02 -0.246123D-02  0.701433D-02 -0.209383D-01  0.674805D-02
     30 -0.145141D-02  0.553132D-02 -0.991939D-04  0.695087D-02 -0.200304D-01
     31 -0.499020D-02 -0.225674D-02 -0.190716D-02  0.927999D-02  0.396279D-02
     32 -0.957779D-02 -0.724561D-02  0.320216D-02 -0.296633D-02 -0.152853D-02
     33 -0.818817D-02 -0.292968D-02  0.371538D-02 -0.478304D-02 -0.143997D-01
     34  0.234476D-03  0.103444D-03  0.304564D-02 -0.544809D-02  0.462270D-02
     35 -0.365541D-03 -0.599696D-03 -0.267310D-01 -0.359825D-01 -0.903287D-02
     36 -0.663350D-03 -0.172251D-02  0.185986D-01  0.170142D-01  0.798202D-02
               16            17            18            19            20 
     16  0.422610D+00
     17  0.102261D-01  0.748486D-01
     18  0.336370D+00  0.282637D-02  0.364989D+00
     19  0.119314D-01 -0.235087D-01 -0.275902D-01  0.959967D-01
     20  0.608808D-02  0.991872D-02  0.196754D-02  0.676294D-01  0.453723D+00
     21 -0.215262D-02 -0.222766D-01 -0.176750D-02  0.383460D-01  0.316395D+00
     22  0.811967D-02  0.256812D-01 -0.249204D-01  0.133536D-01 -0.157740D-01
     23  0.116938D-02 -0.142487D-02  0.147995D-01 -0.815917D-02 -0.415389D-01
     24 -0.914046D-02  0.313251D-01 -0.151067D-01 -0.362760D-02 -0.231269D-01
     25 -0.162278D-02 -0.158215D-02  0.539919D-03 -0.492471D-03 -0.108740D-02
     26 -0.442585D-02  0.740863D-03 -0.299081D-03 -0.195935D-03  0.208564D-02
     27  0.781664D-03  0.439528D-03  0.799233D-03  0.162543D-02  0.101847D-02
     28 -0.125916D-02 -0.852594D-02  0.453437D-02 -0.963960D-03 -0.104694D-01
     29 -0.484274D-02 -0.899969D-03  0.773312D-03 -0.503023D-02  0.311760D-02
     30  0.825340D-03 -0.146505D-02  0.436186D-02  0.141515D-01  0.172817D-01
     31  0.211351D-03 -0.133324D-02 -0.133093D-02 -0.229533D-01 -0.837579D-02
     32 -0.169449D-02  0.522229D-03 -0.276104D-03 -0.484976D-02  0.335901D-02
     33 -0.181230D-02  0.633765D-03  0.297487D-02  0.661986D-02  0.493220D-02
     34 -0.467346D-02  0.253645D-02 -0.365978D-02  0.925524D-03  0.773999D-02
     35  0.168018D-02  0.703277D-02 -0.380593D-02  0.848261D-03 -0.404984D-02
     36 -0.191511D-02 -0.232432D-02 -0.285159D-02 -0.529496D-03  0.181411D-02
               21            22            23            24            25 
     21  0.378714D+00
     22 -0.125383D-03  0.303788D+00
     23  0.130105D-01  0.233995D+00  0.487415D+00
     24  0.128358D-01  0.160012D+00 -0.158520D-01  0.241186D+00
     25  0.195080D-02 -0.843536D-03 -0.219361D-02  0.135876D-02  0.304491D+00
     26  0.157769D-02 -0.261989D-02 -0.239172D-02  0.267546D-02  0.144343D+00
     27  0.109710D-02  0.369725D-03  0.948228D-03 -0.124773D-03 -0.143266D+00
     28  0.158250D-01  0.101341D-02 -0.298309D-02  0.529045D-03 -0.115671D+00
     29  0.928761D-02 -0.269610D-02 -0.101196D-02  0.132891D-02 -0.238516D-01
     30 -0.227985D-01  0.733884D-03  0.164770D-02  0.130077D-02  0.122451D-01
     31 -0.240595D-03  0.299979D-03 -0.200461D-02  0.256875D-03  0.144063D-01
     32  0.164970D-02 -0.128563D-02 -0.538767D-03  0.116186D-02 -0.638128D-02
     33  0.784664D-02 -0.160005D-02 -0.116953D-02  0.282928D-02  0.188138D-01
     34  0.143818D-03 -0.233836D+00 -0.224023D+00 -0.136924D+00  0.170307D-03
     35  0.246702D-02 -0.197197D+00 -0.209809D+00 -0.967734D-01  0.489911D-03
     36  0.781025D-03 -0.151771D+00 -0.126588D+00 -0.991157D-01  0.104700D-03
               26            27            28            29            30 
     26  0.145591D+00
     27 -0.125213D+00  0.225882D+00
     28 -0.451794D-02  0.407499D-02  0.246478D+00
     29  0.198284D-01 -0.196742D-03 -0.521142D-01  0.163959D+00
     30 -0.404624D-02  0.187429D-01  0.139425D-01 -0.654065D-01  0.969444D-01
     31 -0.111947D-02  0.354414D-01 -0.654404D-02 -0.371652D-02 -0.168219D-01
     32  0.118908D-01  0.410454D-01 -0.309079D-02  0.136582D-01  0.887378D-02
     33  0.268305D-01 -0.962823D-01 -0.249335D-01  0.965200D-02 -0.105619D-01
     34  0.213927D-03 -0.118063D-03 -0.107668D-04  0.270427D-03 -0.262466D-03
     35  0.542217D-03 -0.221338D-03  0.547830D-03  0.558864D-03  0.337122D-04
     36  0.362339D-03 -0.801830D-04 -0.844382D-04  0.544560D-03 -0.210436D-03
               31            32            33            34            35 
     31  0.994199D-01
     32  0.380527D-01  0.881573D-01
     33  0.563587D-01  0.347231D-01  0.380748D+00
     34  0.125939D-03  0.110887D-03  0.172690D-04  0.235047D+00
     35  0.201357D-03  0.152079D-03  0.248252D-03  0.220042D+00  0.241987D+00
     36  0.247403D-05  0.103371D-03  0.110529D-03  0.135135D+00  0.106820D+00
               36 
     36  0.965425D-01
 FormGI is forming the generalized inverse of G from B-inverse, IUseBI=4.
 Leave Link  716 at Sat May 24 06:06:05 2025, MaxMem=  3758096384 cpu:               0.0 elap:               0.0
 (Enter /apps/easybuild-2022/easybuild/software/Compiler/NVHPC/22.11-CUDA-11.7.0/Gaussian/g16c01-CUDA-11.7.0/g16/l103.exe)

 GradGradGradGradGradGradGradGradGradGradGradGradGradGradGradGradGradGrad
 Berny optimization.
 Red2BG is reusing G-inverse.
 Internal  Forces:  Max     0.107913725 RMS     0.026175219
 Search for a local minimum.
 Step number   1 out of a maximum of   61
 All quantities printed in internal units (Hartrees-Bohrs-Radians)
 RMS Force = .26175D-01 SwitMx=.10000D-02 MixMth= 1
 Mixed Optimization -- RFO/linear search
 Second derivative matrix not updated -- analytic derivatives used.
 ITU=  0
     Eigenvalues ---    0.00055   0.00236   0.03011   0.06520   0.07357
     Eigenvalues ---    0.07723   0.09165   0.10433   0.10781   0.11933
     Eigenvalues ---    0.13087   0.14152   0.16155   0.17490   0.18709
     Eigenvalues ---    0.24044   0.26445   0.29590   0.33059   0.36631
     Eigenvalues ---    0.38723   0.40075   0.42440   0.49755   0.52860
     Eigenvalues ---    0.54882   0.63488   0.73648   0.75081   1.01668
 RFO step:  Lambda=-9.12311286D-02 EMin= 5.48708430D-04
 Linear search not attempted -- first point.
 Maximum step size (   0.300) exceeded in Quadratic search.
    -- Step size scaled by   0.513
 Iteration  1 RMS(Cart)=  0.11061731 RMS(Int)=  0.00880223
 Iteration  2 RMS(Cart)=  0.01030680 RMS(Int)=  0.00188058
 Iteration  3 RMS(Cart)=  0.00010849 RMS(Int)=  0.00187971
 Iteration  4 RMS(Cart)=  0.00000062 RMS(Int)=  0.00187971
 ITry= 1 IFail=0 DXMaxC= 3.78D-01 DCOld= 1.00D+10 DXMaxT= 3.00D-01 DXLimC= 3.00D+00 Rises=F
 Variable       Old X    -DE/DX   Delta X   Delta X   Delta X     New X
                                 (Linear)    (Quad)   (Total)
    R1        2.90202   0.03828   0.00000   0.00817   0.00817   2.91018
    R2        2.46079   0.01440   0.00000   0.02150   0.02150   2.48229
    R3        2.68377  -0.02298   0.00000  -0.09805  -0.09805   2.58572
    R4        2.53567  -0.01732   0.00000  -0.03413  -0.03413   2.50154
    R5        2.50035  -0.00279   0.00000   0.00069   0.00069   2.50105
    R6        2.50179   0.00245   0.00000   0.00236   0.00236   2.50415
    R7        3.65748   0.01395   0.00000  -0.04550  -0.04550   3.61199
    R8        2.68509  -0.00211   0.00000  -0.00199  -0.00199   2.68309
    R9        2.67831  -0.00317   0.00000  -0.00396  -0.00396   2.67435
   R10        2.96080   0.01023   0.00000   0.00730   0.00730   2.96810
   R11        1.82678   0.00049   0.00000   0.00078   0.00078   1.82757
    A1        2.23788  -0.06152   0.00000  -0.15666  -0.15305   2.08483
    A2        1.62719   0.07208   0.00000   0.10226   0.10599   1.73318
    A3        1.84237   0.02858   0.00000   0.05567   0.05536   1.89773
    A4        1.73677  -0.02138   0.00000   0.04540   0.05462   1.79139
    A5        1.81721   0.00739   0.00000   0.03955   0.04080   1.85801
    A6        2.25728  -0.04363   0.00000  -0.14272  -0.14548   2.11180
    A7        2.05323  -0.03011   0.00000  -0.03353  -0.03420   2.01903
    A8        1.89315  -0.03005   0.00000  -0.01320  -0.01208   1.88107
    A9        1.66935   0.10791   0.00000   0.08772   0.08840   1.75776
   A10        1.90686   0.02245   0.00000   0.01664   0.01571   1.92257
   A11        1.89075  -0.03658   0.00000  -0.00813  -0.00777   1.88298
   A12        2.04816  -0.03072   0.00000  -0.04908  -0.04943   1.99873
   A13        2.00424  -0.01685   0.00000  -0.04345  -0.04346   1.96078
   A14        1.80407   0.02544   0.00000   0.01718   0.01710   1.82117
   A15        1.70744  -0.00143   0.00000   0.01028   0.01023   1.71767
   A16        2.15466  -0.00244   0.00000   0.00874   0.00868   2.16335
   A17        1.88934   0.00059   0.00000   0.00579   0.00579   1.89513
   A18        1.84742  -0.00496   0.00000   0.00461   0.00443   1.85185
   A19        1.91771   0.00072   0.00000   0.00038   0.00038   1.91809
    D1       -1.59923   0.02398   0.00000   0.06618   0.06358  -1.53565
    D2        0.57490   0.00551   0.00000   0.05175   0.04943   0.62433
    D3        2.69228   0.01077   0.00000   0.03305   0.03128   2.72356
    D4        2.85523   0.00838   0.00000  -0.03598  -0.03301   2.82222
    D5       -1.25382  -0.01009   0.00000  -0.05041  -0.04716  -1.30098
    D6        0.86356  -0.00483   0.00000  -0.06911  -0.06531   0.79825
    D7        0.54388   0.01555   0.00000   0.05724   0.05576   0.59964
    D8        2.71801  -0.00292   0.00000   0.04281   0.04162   2.75963
    D9       -1.44779   0.00234   0.00000   0.02411   0.02347  -1.42433
   D10       -1.85811  -0.00620   0.00000   0.01519   0.01587  -1.84225
   D11        0.53732  -0.00005   0.00000   0.00652   0.00717   0.54449
   D12        2.42965   0.00000   0.00000   0.01827   0.01902   2.44867
   D13        2.30287  -0.00989   0.00000   0.01524   0.01512   2.31799
   D14       -1.58488  -0.00374   0.00000   0.00658   0.00643  -1.57845
   D15        0.30745  -0.00369   0.00000   0.01832   0.01828   0.32573
   D16        0.13465   0.01396   0.00000   0.03657   0.03597   0.17062
   D17        2.53008   0.02011   0.00000   0.02791   0.02728   2.55736
   D18       -1.86077   0.02016   0.00000   0.03966   0.03913  -1.82164
   D19        1.95301  -0.01541   0.00000  -0.02626  -0.02629   1.92672
   D20       -0.13188   0.00371   0.00000   0.01519   0.01522  -0.11666
   D21       -2.47391   0.01005   0.00000  -0.00348  -0.00349  -2.47740
         Item               Value     Threshold  Converged?
 Maximum Force            0.107914     0.000450     NO 
 RMS     Force            0.026175     0.000300     NO 
 Maximum Displacement     0.378346     0.001800     NO 
 RMS     Displacement     0.114862     0.001200     NO 
 Predicted change in Energy=-4.006146D-02
 Lowest energy point so far.  Saving SCF results.
 GradGradGradGradGradGradGradGradGradGradGradGradGradGradGradGradGradGrad

 Leave Link  103 at Sat May 24 06:06:05 2025, MaxMem=  3758096384 cpu:               0.1 elap:               0.0
 (Enter /apps/easybuild-2022/easybuild/software/Compiler/NVHPC/22.11-CUDA-11.7.0/Gaussian/g16c01-CUDA-11.7.0/g16/l202.exe)
                          Input orientation:                          
 ---------------------------------------------------------------------
 Center     Atomic      Atomic             Coordinates (Angstroms)
 Number     Number       Type             X           Y           Z
 ---------------------------------------------------------------------
      1          6           0       -0.996430   -0.947273    0.224688
      2          6           0       -0.533705    0.516648    0.344811
      3          9           0       -1.218562    1.395153   -0.369923
      4          9           0       -0.566073    0.847230    1.627644
      5         16           0        1.222802    0.396227   -0.399203
      6          8           0        2.235423    0.464178    0.593725
      7          8           0        1.126374   -0.638134   -1.360247
      8          8           0        1.222983    1.743059   -1.207281
      9          9           0       -1.936197   -1.395388    1.025624
     10          9           0        0.124309   -1.573112    0.698522
     11          9           0       -1.424287   -1.157909   -1.010181
     12          1           0        1.832921    2.372280   -0.798198
 ---------------------------------------------------------------------
                    Distance matrix (angstroms):
                    1          2          3          4          5
     1  C    0.000000
     2  C    1.540003   0.000000
     3  F    2.426905   1.323497   0.000000
     4  F    2.318132   1.325139   2.171689   0.000000
     5  S    2.668188   1.911380   2.637986   2.740728   0.000000
     6  O    3.545879   2.780787   3.704772   3.010664   1.419832
     7  O    2.667187   2.645110   3.257871   3.741414   1.415205
     8  O    3.770175   2.645567   2.604486   3.469875   1.570652
     9  F    1.313570   2.467057   3.201511   2.696109   3.901191
    10  F    1.368302   2.219277   3.428626   2.682900   2.507984
    11  F    1.323757   2.330940   2.640148   3.422753   3.129811
    12  H    4.480063   3.217260   3.232607   3.737066   2.106236
                    6          7          8          9         10
     6  O    0.000000
     7  O    2.502616   0.000000
     8  O    2.429855   2.388056   0.000000
     9  F    4.587693   3.955396   4.981579   0.000000
    10  F    2.935699   2.473226   3.979467   2.093864   0.000000
    11  F    4.312442   2.626516   3.932239   2.112570   2.343121
    12  H    2.395895   3.142881   0.967106   5.632753   4.552543
                   11         12
    11  F    0.000000
    12  H    4.807971   0.000000
 Symmetry turned off by external request.
 Stoichiometry    C2HF5O3S
 Rotational constants (GHZ):           1.5703394           0.8887821           0.8395150
 Leave Link  202 at Sat May 24 06:06:05 2025, MaxMem=  3758096384 cpu:               0.0 elap:               0.0
 (Enter /apps/easybuild-2022/easybuild/software/Compiler/NVHPC/22.11-CUDA-11.7.0/Gaussian/g16c01-CUDA-11.7.0/g16/l301.exe)
 Standard basis: def2TZVPP (5D, 7F)
 Ernie: Thresh=  0.10000D-02 Tol=  0.10000D-05 Strict=F.
   366 basis functions,   596 primitive gaussians,   423 cartesian basis functions
    49 alpha electrons       49 beta electrons
       nuclear repulsion energy       940.4021485557 Hartrees.
 IExCor= 4336 DFT=T Ex+Corr=M062X ExCW=0 ScaHFX=  0.540000
 ScaDFX=  1.000000  1.000000  1.000000  1.000000 ScalE2=  1.000000  1.000000
 IRadAn=      5 IRanWt=     -1 IRanGd=            0 ICorTp=0 IEmpDi=  4
 NAtoms=   12 NActive=   12 NUniq=   12 SFac= 1.00D+00 NAtFMM=   60 NAOKFM=F Big=F
 Integral buffers will be    131072 words long.
 Raffenetti 2 integral format.
 Two-electron integral symmetry is turned off.
 Leave Link  301 at Sat May 24 06:06:05 2025, MaxMem=  3758096384 cpu:               0.0 elap:               0.0
 (Enter /apps/easybuild-2022/easybuild/software/Compiler/NVHPC/22.11-CUDA-11.7.0/Gaussian/g16c01-CUDA-11.7.0/g16/l302.exe)
 NPDir=0 NMtPBC=     1 NCelOv=     1 NCel=       1 NClECP=     1 NCelD=      1
         NCelK=      1 NCelE2=     1 NClLst=     1 CellRange=     0.0.
 One-electron integrals computed using PRISM.
   1 Symmetry operations used in ECPInt.
 ECPInt:  NShTT=    8515 NPrTT=   27988 LenC2=    8028 LenP2D=   19580.
 LDataN:  DoStor=T MaxTD1= 6 Len=  172
 NBasis=   366 RedAO= T EigKep=  4.17D-04  NBF=   366
 NBsUse=   366 1.00D-06 EigRej= -1.00D+00 NBFU=   366
 Precomputing XC quadrature grid using
 IXCGrd= 4 IRadAn=           5 IRanWt=          -1 IRanGd=           0 AccXCQ= 0.00D+00.
 Generated NRdTot=       0 NPtTot=           0 NUsed=           0 NTot=          32
 NSgBfM=   419   419   419   419   419 MxSgAt=    12 MxSgA2=    12.
 Leave Link  302 at Sat May 24 06:06:06 2025, MaxMem=  3758096384 cpu:               0.7 elap:               0.2
 (Enter /apps/easybuild-2022/easybuild/software/Compiler/NVHPC/22.11-CUDA-11.7.0/Gaussian/g16c01-CUDA-11.7.0/g16/l303.exe)
 DipDrv:  MaxL=1.
 Leave Link  303 at Sat May 24 06:06:06 2025, MaxMem=  3758096384 cpu:               0.1 elap:               0.0
 (Enter /apps/easybuild-2022/easybuild/software/Compiler/NVHPC/22.11-CUDA-11.7.0/Gaussian/g16c01-CUDA-11.7.0/g16/l401.exe)
 Initial guess from the checkpoint file:  "2003846667223680600001_r12_insertion_R_9_1_10_IRC_R_prod.chk"
 B after Tr=     0.005664   -0.004676   -0.007285
         Rot=    0.999993    0.002510   -0.000952    0.002744 Ang=   0.44 deg.
 Guess basis will be translated and rotated to current coordinates.
 JPrj=2 DoOrth=T DoCkMO=T.
 Generating alternative initial guess.
 ExpMin= 9.52D-02 ExpMax= 6.07D+04 ExpMxC= 2.07D+03 IAcc=3 IRadAn=         5 AccDes= 0.00D+00
 Harris functional with IExCor= 1009 and IRadAn=       5 diagonalized for initial guess.
 HarFok:  IExCor= 1009 AccDes= 0.00D+00 IRadAn=         5 IDoV= 1 UseB2=F ITyADJ=14
 ICtDFT=  3500011 ScaDFX=  1.000000  1.000000  1.000000  1.000000
 FoFCou: FMM=F IPFlag=           0 FMFlag=      100000 FMFlg1=           0
         NFxFlg=           0 DoJE=T BraDBF=F KetDBF=T FulRan=T
         wScrn=  0.000000 ICntrl=       500 IOpCl=  0 I1Cent=   200000004 NGrid=           0
         NMat0=    1 NMatS0=      1 NMatT0=    0 NMatD0=    1 NMtDS0=    0 NMtDT0=    0
 Symmetry not used in FoFCou.
 Harris En= -1199.31884046097    
 Leave Link  401 at Sat May 24 06:06:06 2025, MaxMem=  3758096384 cpu:               4.7 elap:               0.7
 (Enter /apps/easybuild-2022/easybuild/software/Compiler/NVHPC/22.11-CUDA-11.7.0/Gaussian/g16c01-CUDA-11.7.0/g16/l502.exe)
 Keep R1 ints in memory in canonical form, NReq=2293446996.
 FoFCou: FMM=F IPFlag=           0 FMFlag=           0 FMFlg1=           0
         NFxFlg=           0 DoJE=F BraDBF=F KetDBF=F FulRan=T
         wScrn=  0.000000 ICntrl=       600 IOpCl=  0 I1Cent=           0 NGrid=           0
         NMat0=    1 NMatS0=  67161 NMatT0=    0 NMatD0=    1 NMtDS0=    0 NMtDT0=    0
 Symmetry not used in FoFCou.
 Two-electron integral symmetry not used.
 Closed shell SCF:
 Using DIIS extrapolation, IDIIS=  1040.
 NGot=  3758096384 LenX=  1502398672 LenY=  1502219302
 Requested convergence on RMS density matrix=1.00D-08 within  32 cycles.
 Requested convergence on MAX density matrix=1.00D-06.
 Requested convergence on             energy=1.00D-06.
 No special actions if energy rises.
 Integral accuracy reduced to 1.0D-05 until final iterations.

 Cycle   1  Pass 0  IDiag  1:
 E= -1199.87182339674    
 DIIS: error= 5.09D-03 at cycle   1 NSaved=   1.
 NSaved= 1 IEnMin= 1 EnMin= -1199.87182339674     IErMin= 1 ErrMin= 5.09D-03
 ErrMax= 5.09D-03  0.00D+00 EMaxC= 1.00D-01 BMatC= 3.02D-02 BMatP= 3.02D-02
 IDIUse=3 WtCom= 9.49D-01 WtEn= 5.09D-02
 Coeff-Com:  0.100D+01
 Coeff-En:   0.100D+01
 Coeff:      0.100D+01
 Gap=     1.090 Goal=   None    Shift=    0.000
 GapD=    1.090 DampG=2.000 DampE=1.000 DampFc=2.0000 IDamp=-1.
 RMSDP=4.68D-04 MaxDP=1.45D-02              OVMax= 3.55D-02

 Cycle   2  Pass 0  IDiag  1:
 E= -1199.90869650910     Delta-E=       -0.036873112364 Rises=F Damp=F
 DIIS: error= 1.39D-03 at cycle   2 NSaved=   2.
 NSaved= 2 IEnMin= 2 EnMin= -1199.90869650910     IErMin= 2 ErrMin= 1.39D-03
 ErrMax= 1.39D-03  0.00D+00 EMaxC= 1.00D-01 BMatC= 1.48D-03 BMatP= 3.02D-02
 IDIUse=3 WtCom= 9.86D-01 WtEn= 1.39D-02
 Coeff-Com: -0.820D-01 0.108D+01
 Coeff-En:   0.000D+00 0.100D+01
 Coeff:     -0.808D-01 0.108D+01
 Gap=     0.437 Goal=   None    Shift=    0.000
 RMSDP=1.25D-04 MaxDP=6.09D-03 DE=-3.69D-02 OVMax= 1.04D-02

 Cycle   3  Pass 0  IDiag  1:
 E= -1199.91010799753     Delta-E=       -0.001411488426 Rises=F Damp=F
 DIIS: error= 1.27D-03 at cycle   3 NSaved=   3.
 NSaved= 3 IEnMin= 3 EnMin= -1199.91010799753     IErMin= 3 ErrMin= 1.27D-03
 ErrMax= 1.27D-03  0.00D+00 EMaxC= 1.00D-01 BMatC= 1.13D-03 BMatP= 1.48D-03
 IDIUse=3 WtCom= 9.87D-01 WtEn= 1.27D-02
 Coeff-Com: -0.823D-01 0.537D+00 0.545D+00
 Coeff-En:   0.000D+00 0.000D+00 0.100D+01
 Coeff:     -0.813D-01 0.530D+00 0.551D+00
 Gap=     0.437 Goal=   None    Shift=    0.000
 RMSDP=5.04D-05 MaxDP=3.17D-03 DE=-1.41D-03 OVMax= 3.54D-03

 Cycle   4  Pass 0  IDiag  1:
 E= -1199.91075533002     Delta-E=       -0.000647332490 Rises=F Damp=F
 DIIS: error= 1.84D-04 at cycle   4 NSaved=   4.
 NSaved= 4 IEnMin= 4 EnMin= -1199.91075533002     IErMin= 4 ErrMin= 1.84D-04
 ErrMax= 1.84D-04  0.00D+00 EMaxC= 1.00D-01 BMatC= 3.96D-05 BMatP= 1.13D-03
 IDIUse=3 WtCom= 9.98D-01 WtEn= 1.84D-03
 Coeff-Com: -0.813D-02-0.736D-02 0.140D+00 0.876D+00
 Coeff-En:   0.000D+00 0.000D+00 0.000D+00 0.100D+01
 Coeff:     -0.812D-02-0.735D-02 0.139D+00 0.876D+00
 Gap=     0.437 Goal=   None    Shift=    0.000
 RMSDP=1.55D-05 MaxDP=7.69D-04 DE=-6.47D-04 OVMax= 1.14D-03

 Cycle   5  Pass 0  IDiag  1:
 E= -1199.91078327910     Delta-E=       -0.000027949085 Rises=F Damp=F
 DIIS: error= 6.93D-05 at cycle   5 NSaved=   5.
 NSaved= 5 IEnMin= 5 EnMin= -1199.91078327910     IErMin= 5 ErrMin= 6.93D-05
 ErrMax= 6.93D-05  0.00D+00 EMaxC= 1.00D-01 BMatC= 7.79D-06 BMatP= 3.96D-05
 IDIUse=1 WtCom= 1.00D+00 WtEn= 0.00D+00
 Coeff-Com:  0.197D-02-0.422D-01 0.288D-01 0.425D+00 0.586D+00
 Coeff:      0.197D-02-0.422D-01 0.288D-01 0.425D+00 0.586D+00
 Gap=     0.437 Goal=   None    Shift=    0.000
 RMSDP=5.33D-06 MaxDP=3.45D-04 DE=-2.79D-05 OVMax= 5.88D-04

 Initial convergence to 1.0D-05 achieved.  Increase integral accuracy.
 Cycle   6  Pass 1  IDiag  1:
 E= -1199.91078577075     Delta-E=       -0.000002491649 Rises=F Damp=F
 DIIS: error= 2.63D-05 at cycle   1 NSaved=   1.
 NSaved= 1 IEnMin= 1 EnMin= -1199.91078577075     IErMin= 1 ErrMin= 2.63D-05
 ErrMax= 2.63D-05  0.00D+00 EMaxC= 1.00D-01 BMatC= 1.60D-06 BMatP= 1.60D-06
 IDIUse=1 WtCom= 1.00D+00 WtEn= 0.00D+00
 Coeff-Com:  0.100D+01
 Coeff:      0.100D+01
 Gap=     0.437 Goal=   None    Shift=    0.000
 RMSDP=5.33D-06 MaxDP=3.45D-04 DE=-2.49D-06 OVMax= 3.64D-04

 Cycle   7  Pass 1  IDiag  1:
 E= -1199.91078610795     Delta-E=       -0.000000337198 Rises=F Damp=F
 DIIS: error= 3.49D-05 at cycle   2 NSaved=   2.
 NSaved= 2 IEnMin= 2 EnMin= -1199.91078610795     IErMin= 1 ErrMin= 2.63D-05
 ErrMax= 3.49D-05  0.00D+00 EMaxC= 1.00D-01 BMatC= 1.42D-06 BMatP= 1.60D-06
 IDIUse=1 WtCom= 1.00D+00 WtEn= 0.00D+00
 Coeff-Com:  0.481D+00 0.519D+00
 Coeff:      0.481D+00 0.519D+00
 Gap=     0.437 Goal=   None    Shift=    0.000
 RMSDP=2.33D-06 MaxDP=1.59D-04 DE=-3.37D-07 OVMax= 2.67D-04

 Cycle   8  Pass 1  IDiag  1:
 E= -1199.91078695317     Delta-E=       -0.000000845217 Rises=F Damp=F
 DIIS: error= 1.08D-05 at cycle   3 NSaved=   3.
 NSaved= 3 IEnMin= 3 EnMin= -1199.91078695317     IErMin= 3 ErrMin= 1.08D-05
 ErrMax= 1.08D-05  0.00D+00 EMaxC= 1.00D-01 BMatC= 1.22D-07 BMatP= 1.42D-06
 IDIUse=1 WtCom= 1.00D+00 WtEn= 0.00D+00
 Coeff-Com: -0.279D-01 0.209D+00 0.819D+00
 Coeff:     -0.279D-01 0.209D+00 0.819D+00
 Gap=     0.437 Goal=   None    Shift=    0.000
 RMSDP=8.16D-07 MaxDP=3.68D-05 DE=-8.45D-07 OVMax= 8.03D-05

 Cycle   9  Pass 1  IDiag  1:
 E= -1199.91078703655     Delta-E=       -0.000000083384 Rises=F Damp=F
 DIIS: error= 2.77D-06 at cycle   4 NSaved=   4.
 NSaved= 4 IEnMin= 4 EnMin= -1199.91078703655     IErMin= 4 ErrMin= 2.77D-06
 ErrMax= 2.77D-06  0.00D+00 EMaxC= 1.00D-01 BMatC= 8.12D-09 BMatP= 1.22D-07
 IDIUse=1 WtCom= 1.00D+00 WtEn= 0.00D+00
 Coeff-Com: -0.302D-01 0.766D-01 0.372D+00 0.581D+00
 Coeff:     -0.302D-01 0.766D-01 0.372D+00 0.581D+00
 Gap=     0.437 Goal=   None    Shift=    0.000
 RMSDP=1.65D-07 MaxDP=8.24D-06 DE=-8.34D-08 OVMax= 1.49D-05

 Cycle  10  Pass 1  IDiag  1:
 E= -1199.91078704126     Delta-E=       -0.000000004711 Rises=F Damp=F
 DIIS: error= 7.72D-07 at cycle   5 NSaved=   5.
 NSaved= 5 IEnMin= 5 EnMin= -1199.91078704126     IErMin= 5 ErrMin= 7.72D-07
 ErrMax= 7.72D-07  0.00D+00 EMaxC= 1.00D-01 BMatC= 6.24D-10 BMatP= 8.12D-09
 IDIUse=1 WtCom= 1.00D+00 WtEn= 0.00D+00
 Coeff-Com: -0.540D-02-0.593D-02 0.421D-03 0.192D+00 0.819D+00
 Coeff:     -0.540D-02-0.593D-02 0.421D-03 0.192D+00 0.819D+00
 Gap=     0.437 Goal=   None    Shift=    0.000
 RMSDP=7.10D-08 MaxDP=3.32D-06 DE=-4.71D-09 OVMax= 7.34D-06

 Cycle  11  Pass 1  IDiag  1:
 E= -1199.91078704177     Delta-E=       -0.000000000506 Rises=F Damp=F
 DIIS: error= 3.52D-07 at cycle   6 NSaved=   6.
 NSaved= 6 IEnMin= 6 EnMin= -1199.91078704177     IErMin= 6 ErrMin= 3.52D-07
 ErrMax= 3.52D-07  0.00D+00 EMaxC= 1.00D-01 BMatC= 1.18D-10 BMatP= 6.24D-10
 IDIUse=1 WtCom= 1.00D+00 WtEn= 0.00D+00
 Coeff-Com:  0.102D-02-0.119D-01-0.437D-01 0.135D-01 0.365D+00 0.676D+00
 Coeff:      0.102D-02-0.119D-01-0.437D-01 0.135D-01 0.365D+00 0.676D+00
 Gap=     0.437 Goal=   None    Shift=    0.000
 RMSDP=2.37D-08 MaxDP=1.34D-06 DE=-5.06D-10 OVMax= 2.16D-06

 Cycle  12  Pass 1  IDiag  1:
 E= -1199.91078704181     Delta-E=       -0.000000000037 Rises=F Damp=F
 DIIS: error= 1.11D-07 at cycle   7 NSaved=   7.
 NSaved= 7 IEnMin= 7 EnMin= -1199.91078704181     IErMin= 7 ErrMin= 1.11D-07
 ErrMax= 1.11D-07  0.00D+00 EMaxC= 1.00D-01 BMatC= 1.75D-11 BMatP= 1.18D-10
 IDIUse=1 WtCom= 1.00D+00 WtEn= 0.00D+00
 Coeff-Com:  0.105D-02-0.522D-02-0.212D-01-0.154D-01 0.897D-01 0.338D+00
 Coeff-Com:  0.613D+00
 Coeff:      0.105D-02-0.522D-02-0.212D-01-0.154D-01 0.897D-01 0.338D+00
 Coeff:      0.613D+00
 Gap=     0.437 Goal=   None    Shift=    0.000
 RMSDP=8.13D-09 MaxDP=4.20D-07 DE=-3.68D-11 OVMax= 8.38D-07

 SCF Done:  E(RM062X) =  -1199.91078704     A.U. after   12 cycles
            NFock= 12  Conv=0.81D-08     -V/T= 2.0028
 KE= 1.196547582363D+03 PE=-4.727307279659D+03 EE= 1.390446761699D+03
 Leave Link  502 at Sat May 24 06:06:42 2025, MaxMem=  3758096384 cpu:             146.2 elap:              35.4
 (Enter /apps/easybuild-2022/easybuild/software/Compiler/NVHPC/22.11-CUDA-11.7.0/Gaussian/g16c01-CUDA-11.7.0/g16/l508.exe)
 QCSCF skips out because SCF is already converged.
 Leave Link  508 at Sat May 24 06:06:42 2025, MaxMem=  3758096384 cpu:               0.0 elap:               0.0
 (Enter /apps/easybuild-2022/easybuild/software/Compiler/NVHPC/22.11-CUDA-11.7.0/Gaussian/g16c01-CUDA-11.7.0/g16/l701.exe)
 ... and contract with generalized density number  0.
 Compute integral first derivatives.
   1 Symmetry operations used in ECPInt.
 ECPInt:  NShTT=    8515 NPrTT=   27988 LenC2=    8028 LenP2D=   19580.
 LDataN:  DoStor=T MaxTD1= 7 Len=  274
 Leave Link  701 at Sat May 24 06:06:42 2025, MaxMem=  3758096384 cpu:               0.5 elap:               0.1
 (Enter /apps/easybuild-2022/easybuild/software/Compiler/NVHPC/22.11-CUDA-11.7.0/Gaussian/g16c01-CUDA-11.7.0/g16/l702.exe)
 L702 exits ... SP integral derivatives will be done elsewhere.
 Leave Link  702 at Sat May 24 06:06:42 2025, MaxMem=  3758096384 cpu:               0.0 elap:               0.0
 (Enter /apps/easybuild-2022/easybuild/software/Compiler/NVHPC/22.11-CUDA-11.7.0/Gaussian/g16c01-CUDA-11.7.0/g16/l703.exe)
 Integral derivatives from FoFJK, PRISM(SPDF).
 Compute integral first derivatives, UseDBF=F ICtDFT=           0.
 Calling FoFJK, ICntrl=      2127 FMM=F ISym2X=0 I1Cent= 0 IOpClX= 0 NMat=1 NMatS=1 NMatT=0.
 FoFJK:  IHMeth= 1 ICntrl=    2127 DoSepK=F KAlg= 0 I1Cent=           0 FoldK=F
 IRaf=         0 NMat=       1 IRICut=       1 DoRegI=T DoRafI=F ISym2E= 0 IDoP0=0 IntGTp=1.
 FoFCou: FMM=F IPFlag=           0 FMFlag=      100000 FMFlg1=         800
         NFxFlg=           0 DoJE=F BraDBF=F KetDBF=F FulRan=T
         wScrn=  0.000000 ICntrl=      2127 IOpCl=  0 I1Cent=           0 NGrid=           0
         NMat0=    1 NMatS0=      1 NMatT0=    0 NMatD0=    1 NMtDS0=    0 NMtDT0=    0
 Symmetry not used in FoFCou.
 Leave Link  703 at Sat May 24 06:06:55 2025, MaxMem=  3758096384 cpu:             107.5 elap:              13.6
 (Enter /apps/easybuild-2022/easybuild/software/Compiler/NVHPC/22.11-CUDA-11.7.0/Gaussian/g16c01-CUDA-11.7.0/g16/l716.exe)
 Dipole        =-1.39253569D-01 1.07945964D+00 8.50677674D-02
 -------------------------------------------------------------------
 Center     Atomic                   Forces (Hartrees/Bohr)
 Number     Number              X              Y              Z
 -------------------------------------------------------------------
      1        6           0.001920764   -0.003217713    0.013202737
      2        6           0.005296168   -0.005417352   -0.001285705
      3        9          -0.005000724   -0.003720954    0.002008155
      4        9           0.007326386    0.006646321    0.000084079
      5       16          -0.001719361    0.011492594   -0.007147901
      6        8          -0.004098644   -0.000926238    0.002964509
      7        8           0.006941897    0.004134724   -0.003163475
      8        8           0.003372768    0.006451237    0.000001947
      9        9          -0.013503767    0.013817348    0.006884214
     10        9          -0.017319163   -0.016606148   -0.019218130
     11        9           0.017532019   -0.013401349    0.005034953
     12        1          -0.000748342    0.000747529    0.000634615
 -------------------------------------------------------------------
 Cartesian Forces:  Max     0.019218130 RMS     0.008512354
 Leave Link  716 at Sat May 24 06:06:55 2025, MaxMem=  3758096384 cpu:               0.0 elap:               0.0
 (Enter /apps/easybuild-2022/easybuild/software/Compiler/NVHPC/22.11-CUDA-11.7.0/Gaussian/g16c01-CUDA-11.7.0/g16/l103.exe)

 GradGradGradGradGradGradGradGradGradGradGradGradGradGradGradGradGradGrad
 Berny optimization.
 Using GEDIIS/GDIIS optimizer.
 FormGI is forming the generalized inverse of G from B-inverse, IUseBI=4.
 Internal  Forces:  Max     0.063959366 RMS     0.015874395
 Search for a local minimum.
 Step number   2 out of a maximum of   61
 All quantities printed in internal units (Hartrees-Bohrs-Radians)
 RMS Force = .15874D-01 SwitMx=.10000D-02 MixMth= 1
 Mixed Optimization -- RFO/linear search
 Update second derivatives using D2CorX and points    1    2
 DE= -3.91D-02 DEPred=-4.01D-02 R= 9.77D-01
 TightC=F SS=  1.41D+00  RLast= 3.43D-01 DXNew= 5.0454D-01 1.0283D+00
 Trust test= 9.77D-01 RLast= 3.43D-01 DXMaxT set to 5.05D-01
 ITU=  1  0
 Use linear search instead of GDIIS.
     Eigenvalues ---    0.00056   0.00237   0.03180   0.07037   0.07386
     Eigenvalues ---    0.08552   0.09337   0.10291   0.10779   0.11954
     Eigenvalues ---    0.13120   0.14462   0.16240   0.17300   0.18674
     Eigenvalues ---    0.24172   0.26419   0.29498   0.33052   0.36586
     Eigenvalues ---    0.38755   0.40002   0.42376   0.49563   0.52859
     Eigenvalues ---    0.54646   0.63243   0.73650   0.75082   0.91393
 RFO step:  Lambda=-2.06675829D-03 EMin= 5.56092653D-04
 Quartic linear search produced a step of  1.28041.
 Iteration  1 RMS(Cart)=  0.16888487 RMS(Int)=  0.01855480
 Iteration  2 RMS(Cart)=  0.02155439 RMS(Int)=  0.00486939
 Iteration  3 RMS(Cart)=  0.00044638 RMS(Int)=  0.00486097
 Iteration  4 RMS(Cart)=  0.00000451 RMS(Int)=  0.00486097
 Iteration  5 RMS(Cart)=  0.00000006 RMS(Int)=  0.00486097
 ITry= 1 IFail=0 DXMaxC= 5.60D-01 DCOld= 1.00D+10 DXMaxT= 5.05D-01 DXLimC= 3.00D+00 Rises=F
 Variable       Old X    -DE/DX   Delta X   Delta X   Delta X     New X
                                 (Linear)    (Quad)   (Total)
    R1        2.91018   0.02141   0.01046  -0.00001   0.01045   2.92064
    R2        2.48229   0.00914   0.02753  -0.00716   0.02037   2.50265
    R3        2.58572  -0.01325  -0.12555   0.01190  -0.11365   2.47207
    R4        2.50154  -0.00823  -0.04370   0.01851  -0.02519   2.47635
    R5        2.50105  -0.00096   0.00089   0.00444   0.00533   2.50638
    R6        2.50415   0.00156   0.00302   0.00466   0.00768   2.51183
    R7        3.61199   0.00468  -0.05826  -0.05638  -0.11463   3.49735
    R8        2.68309  -0.00089  -0.00255  -0.00006  -0.00261   2.68048
    R9        2.67435  -0.00135  -0.00507   0.00118  -0.00389   2.67046
   R10        2.96810   0.00584   0.00935  -0.00341   0.00594   2.97405
   R11        1.82757   0.00028   0.00100  -0.00004   0.00097   1.82853
    A1        2.08483  -0.03806  -0.19596   0.00334  -0.18079   1.90404
    A2        1.73318   0.04627   0.13571   0.02063   0.16480   1.89798
    A3        1.89773   0.01639   0.07089  -0.01641   0.05308   1.95081
    A4        1.79139  -0.00432   0.06994   0.01794   0.11054   1.90193
    A5        1.85801   0.00641   0.05224  -0.00128   0.05279   1.91079
    A6        2.11180  -0.03327  -0.18627  -0.02316  -0.21410   1.89770
    A7        2.01903  -0.01975  -0.04379  -0.03632  -0.08422   1.93482
    A8        1.88107  -0.01463  -0.01547   0.02213   0.01124   1.89231
    A9        1.75776   0.06396   0.11319   0.01838   0.13310   1.89086
   A10        1.92257   0.01107   0.02012  -0.00998   0.00769   1.93026
   A11        1.88298  -0.01837  -0.00995   0.03527   0.02827   1.91125
   A12        1.99873  -0.02063  -0.06329  -0.03029  -0.09511   1.90362
   A13        1.96078  -0.01135  -0.05564   0.00702  -0.04881   1.91197
   A14        1.82117   0.01456   0.02189  -0.01987   0.00149   1.82266
   A15        1.71767   0.00046   0.01310   0.00855   0.02163   1.73930
   A16        2.16335  -0.00118   0.01112   0.00095   0.01143   2.17477
   A17        1.89513   0.00008   0.00741  -0.00703   0.00059   1.89572
   A18        1.85185  -0.00189   0.00567   0.01282   0.01808   1.86992
   A19        1.91809   0.00042   0.00049  -0.00134  -0.00085   1.91724
    D1       -1.53565   0.01575   0.08140   0.01302   0.08642  -1.44923
    D2        0.62433   0.00475   0.06329  -0.00825   0.04838   0.67271
    D3        2.72356   0.00638   0.04005  -0.02451   0.01284   2.73640
    D4        2.82222   0.00491  -0.04227  -0.02366  -0.06062   2.76160
    D5       -1.30098  -0.00609  -0.06038  -0.04493  -0.09866  -1.39964
    D6        0.79825  -0.00445  -0.08362  -0.06119  -0.13420   0.66405
    D7        0.59964   0.01017   0.07140  -0.00069   0.06675   0.66639
    D8        2.75963  -0.00083   0.05329  -0.02197   0.02871   2.78834
    D9       -1.42433   0.00080   0.03005  -0.03823  -0.00683  -1.43116
   D10       -1.84225  -0.00244   0.02031   0.10433   0.12834  -1.71391
   D11        0.54449  -0.00054   0.00918   0.09398   0.10710   0.65160
   D12        2.44867   0.00117   0.02435   0.10546   0.13389   2.58256
   D13        2.31799  -0.00405   0.01936   0.12149   0.13908   2.45708
   D14       -1.57845  -0.00215   0.00823   0.11114   0.11785  -1.46060
   D15        0.32573  -0.00044   0.02340   0.12262   0.14464   0.47037
   D16        0.17062   0.00955   0.04606   0.12845   0.17195   0.34258
   D17        2.55736   0.01145   0.03493   0.11810   0.15072   2.70808
   D18       -1.82164   0.01316   0.05010   0.12958   0.17751  -1.64414
   D19        1.92672  -0.00988  -0.03366  -0.04513  -0.07894   1.84778
   D20       -0.11666   0.00246   0.01949  -0.05440  -0.03479  -0.15145
   D21       -2.47740   0.00539  -0.00447  -0.06022  -0.06464  -2.54204
         Item               Value     Threshold  Converged?
 Maximum Force            0.063959     0.000450     NO 
 RMS     Force            0.015874     0.000300     NO 
 Maximum Displacement     0.559881     0.001800     NO 
 RMS     Displacement     0.174242     0.001200     NO 
 Predicted change in Energy=-3.082638D-02
 Lowest energy point so far.  Saving SCF results.
 GradGradGradGradGradGradGradGradGradGradGradGradGradGradGradGradGradGrad

 Leave Link  103 at Sat May 24 06:06:56 2025, MaxMem=  3758096384 cpu:               0.1 elap:               0.0
 (Enter /apps/easybuild-2022/easybuild/software/Compiler/NVHPC/22.11-CUDA-11.7.0/Gaussian/g16c01-CUDA-11.7.0/g16/l202.exe)
                          Input orientation:                          
 ---------------------------------------------------------------------
 Center     Atomic      Atomic             Coordinates (Angstroms)
 Number     Number       Type             X           Y           Z
 ---------------------------------------------------------------------
      1          6           0       -1.002881   -0.995368    0.267783
      2          6           0       -0.469654    0.455234    0.257956
      3          9           0       -1.242567    1.237443   -0.483577
      4          9           0       -0.425090    0.894866    1.511559
      5         16           0        1.244755    0.440703   -0.439006
      6          8           0        2.187888    0.453094    0.620404
      7          8           0        1.200493   -0.532407   -1.462763
      8          8           0        1.257020    1.850160   -1.139089
      9          9           0       -1.959534   -1.099111    1.177699
     10          9           0       -0.023125   -1.801277    0.586965
     11          9           0       -1.473457   -1.348207   -0.903236
     12          1           0        1.795709    2.467829   -0.624715
 ---------------------------------------------------------------------
                    Distance matrix (angstroms):
                    1          2          3          4          5
     1  C    0.000000
     2  C    1.545534   0.000000
     3  F    2.368003   1.326317   0.000000
     4  F    2.335339   1.329204   2.183162   0.000000
     5  S    2.759297   1.850720   2.612193   2.607556   0.000000
     6  O    3.521845   2.682145   3.688089   2.795885   1.418451
     7  O    2.839715   2.593395   3.171706   3.677801   1.413146
     8  O    3.896598   2.622776   2.655759   3.281466   1.573797
     9  F    1.324347   2.341295   2.955227   2.538095   3.905410
    10  F    1.308162   2.323677   3.444840   2.878478   2.772473
    11  F    1.310428   2.368204   2.629641   3.458567   3.287003
[...]
   D17       -2.85571   0.00000   0.00000   0.00022   0.00022  -2.85549
   D18       -0.91064   0.00000   0.00000   0.00024   0.00024  -0.91041
   D19        1.54798  -0.00000   0.00000  -0.00014  -0.00014   1.54784
   D20       -0.39726  -0.00000   0.00000  -0.00012  -0.00012  -0.39738
   D21       -2.78398   0.00001   0.00000  -0.00008  -0.00008  -2.78407
         Item               Value     Threshold  Converged?
 Maximum Force            0.000016     0.000450     YES
 RMS     Force            0.000005     0.000300     YES
 Maximum Displacement     0.000675     0.001800     YES
 RMS     Displacement     0.000221     0.001200     YES
 Predicted change in Energy=-5.908836D-09
 Optimization completed.
    -- Stationary point found.
                           ----------------------------
                           !   Optimized Parameters   !
                           ! (Angstroms and Degrees)  !
 --------------------------                            --------------------------
 ! Name  Definition              Value          Derivative Info.                !
 --------------------------------------------------------------------------------
 ! R1    R(1,2)                  1.5459         -DE/DX =    0.0                 !
 ! R2    R(1,9)                  1.3254         -DE/DX =    0.0                 !
 ! R3    R(1,10)                 1.3211         -DE/DX =    0.0                 !
 ! R4    R(1,11)                 1.3231         -DE/DX =    0.0                 !
 ! R5    R(2,3)                  1.33           -DE/DX =    0.0                 !
 ! R6    R(2,4)                  1.3388         -DE/DX =    0.0                 !
 ! R7    R(2,5)                  1.8433         -DE/DX =    0.0                 !
 ! R8    R(5,6)                  1.4191         -DE/DX =    0.0                 !
 ! R9    R(5,7)                  1.411          -DE/DX =    0.0                 !
 ! R10   R(5,8)                  1.5718         -DE/DX =    0.0                 !
 ! R11   R(8,12)                 0.9683         -DE/DX =    0.0                 !
 ! A1    A(2,1,9)              108.6568         -DE/DX =    0.0                 !
 ! A2    A(2,1,10)             110.5344         -DE/DX =    0.0                 !
 ! A3    A(2,1,11)             110.1035         -DE/DX =    0.0                 !
 ! A4    A(9,1,10)             108.9579         -DE/DX =    0.0                 !
 ! A5    A(9,1,11)             109.1121         -DE/DX =    0.0                 !
 ! A6    A(10,1,11)            109.4458         -DE/DX =    0.0                 !
 ! A7    A(1,2,3)              108.9678         -DE/DX =    0.0                 !
 ! A8    A(1,2,4)              108.5203         -DE/DX =    0.0                 !
 ! A9    A(1,2,5)              113.7636         -DE/DX =    0.0                 !
 ! A10   A(3,2,4)              109.3132         -DE/DX =    0.0                 !
 ! A11   A(3,2,5)              108.5057         -DE/DX =    0.0                 !
 ! A12   A(4,2,5)              107.6982         -DE/DX =    0.0                 !
 ! A13   A(2,5,6)              106.985          -DE/DX =    0.0                 !
 ! A14   A(2,5,7)              107.8352         -DE/DX =    0.0                 !
 ! A15   A(2,5,8)               98.4956         -DE/DX =    0.0                 !
 ! A16   A(6,5,7)              123.7981         -DE/DX =    0.0                 !
 ! A17   A(6,5,8)              109.402          -DE/DX =    0.0                 !
 ! A18   A(7,5,8)              107.3949         -DE/DX =    0.0                 !
 ! A19   A(5,8,12)             110.2949         -DE/DX =    0.0                 !
 ! D1    D(9,1,2,3)            -52.4285         -DE/DX =    0.0                 !
 ! D2    D(9,1,2,4)             66.5157         -DE/DX =    0.0                 !
 ! D3    D(9,1,2,5)           -173.6296         -DE/DX =    0.0                 !
 ! D4    D(10,1,2,3)          -171.9419         -DE/DX =    0.0                 !
 ! D5    D(10,1,2,4)           -52.9978         -DE/DX =    0.0                 !
 ! D6    D(10,1,2,5)            66.8569         -DE/DX =    0.0                 !
 ! D7    D(11,1,2,3)            67.016          -DE/DX =    0.0                 !
 ! D8    D(11,1,2,4)          -174.0398         -DE/DX =    0.0                 !
 ! D9    D(11,1,2,5)           -54.1851         -DE/DX =    0.0                 !
 ! D10   D(1,2,5,6)            -59.1151         -DE/DX =    0.0                 !
 ! D11   D(1,2,5,7)             76.0611         -DE/DX =    0.0                 !
 ! D12   D(1,2,5,8)           -172.4948         -DE/DX =    0.0                 !
 ! D13   D(3,2,5,6)            179.4263         -DE/DX =    0.0                 !
 ! D14   D(3,2,5,7)            -45.3975         -DE/DX =    0.0                 !
 ! D15   D(3,2,5,8)             66.0465         -DE/DX =    0.0                 !
 ! D16   D(4,2,5,6)             61.2036         -DE/DX =    0.0                 !
 ! D17   D(4,2,5,7)           -163.6202         -DE/DX =    0.0                 !
 ! D18   D(4,2,5,8)            -52.1761         -DE/DX =    0.0                 !
 ! D19   D(2,5,8,12)            88.6927         -DE/DX =    0.0                 !
 ! D20   D(6,5,8,12)           -22.7613         -DE/DX =    0.0                 !
 ! D21   D(7,5,8,12)          -159.5105         -DE/DX =    0.0                 !
 --------------------------------------------------------------------------------
 GradGradGradGradGradGradGradGradGradGradGradGradGradGradGradGradGradGrad

 Leave Link  103 at Sat May 24 06:26:11 2025, MaxMem=  3758096384 cpu:               0.0 elap:               0.0
 (Enter /apps/easybuild-2022/easybuild/software/Compiler/NVHPC/22.11-CUDA-11.7.0/Gaussian/g16c01-CUDA-11.7.0/g16/l9999.exe)

 ----------------------------------------------------------------------

 Electric dipole moment (input orientation):
 (Debye = 10**-18 statcoulomb cm , SI units = C m)
                  (au)            (Debye)         (10**-30 SI)
   Tot        0.108792D+01      0.276521D+01      0.922376D+01
   x          0.603104D-01      0.153294D+00      0.511333D+00
   y          0.862454D+00      0.219214D+01      0.731219D+01
   z          0.660381D+00      0.167852D+01      0.559894D+01

 Dipole polarizability, Alpha (input orientation).
 (esu units = cm**3 , SI units = C**2 m**2 J**-1)
 Alpha(0;0):
               (au)            (10**-24 esu)      (10**-40 SI)
   iso        0.534734D+02      0.792394D+01      0.881657D+01
   aniso      0.564449D+01      0.836427D+00      0.930651D+00
   xx         0.552354D+02      0.818504D+01      0.910708D+01
   yx         0.250336D+01      0.370959D+00      0.412748D+00
   yy         0.516343D+02      0.765142D+01      0.851335D+01
   zx        -0.102254D+01     -0.151524D+00     -0.168594D+00
   zy        -0.247807D+00     -0.367212D-01     -0.408579D-01
   zz         0.535505D+02      0.793537D+01      0.882928D+01

 ----------------------------------------------------------------------

 Dipole orientation:
     6         -1.77378813         -1.80057407         -1.05825153
     6         -0.90532352          0.36660755          0.69770665
     9         -2.55282293          2.25791560          0.53742208
     9         -0.85215125         -0.49757062          3.07495591
    16          2.26605510          1.59628173         -0.05321087
     8          3.97436497         -0.45996587          0.16025602
     8          2.05445786          3.12951071         -2.22432934
     8          2.60010837          3.40298850          2.28064663
     9         -4.15641717         -2.35844617         -0.52432292
     9         -0.36628453         -3.83185093         -0.70427497
     9         -1.61645441         -1.08512702         -3.44880169
     1          3.34474045          2.49557516          3.68423412

 Electric dipole moment (dipole orientation):
 (Debye = 10**-18 statcoulomb cm , SI units = C m)
                  (au)            (Debye)         (10**-30 SI)
   Tot        0.108792D+01      0.276521D+01      0.922376D+01
   x          0.000000D+00      0.000000D+00      0.000000D+00
   y          0.000000D+00      0.000000D+00      0.000000D+00
   z          0.108792D+01      0.276521D+01      0.922376D+01

 Dipole polarizability, Alpha (dipole orientation).
 (esu units = cm**3 , SI units = C**2 m**2 J**-1)
 Alpha(0;0):
               (au)            (10**-24 esu)      (10**-40 SI)
   iso        0.534734D+02      0.792394D+01      0.881657D+01
   aniso      0.564449D+01      0.836427D+00      0.930651D+00
   xx         0.552032D+02      0.818028D+01      0.910179D+01
   yx         0.231975D+01      0.343751D+00      0.382475D+00
   yy         0.529528D+02      0.784680D+01      0.873074D+01
   zx         0.151037D+01      0.223813D+00      0.249026D+00
   zy        -0.771250D+00     -0.114287D+00     -0.127162D+00
   zz         0.522642D+02      0.774475D+01      0.861720D+01

 ----------------------------------------------------------------------
 Unable to Open any file for archive entry.
 1\1\GINC-SPARTAN-BM199\Freq\RM062X\def2TZVPP\C2H1F5O3S1\AKHALILOV\24-M
 ay-2025\0\\#P Geom=AllCheck Guess=TCheck SCRF=Check GenChk RM062X/def2
 TZVPP Freq\\Gaussian input prepared by ASE\\0,1\C,-0.9418405913,-0.998
 4739213,0.4674620887\C,-0.4629980539,0.4239270078,0.0968791164\F,-1.36
 5222317,0.989963716,-0.6996958234\F,-0.3526698495,1.1419694383,1.22146
 34722\S,1.1721897408,0.4592533232,-0.7532220797\O,2.1104790585,-0.1385
 013959,0.1278455382\O,0.9745517223,0.0455650948,-2.0876184259\O,1.3909
 44557,2.0156659206,-0.7712740784\F,-2.1765258808,-0.9197688534,0.94289
 7538\F,-0.1586660922,-1.5248842064,1.3920128361\F,-0.9392246658,-1.773
 0681254,-0.6051761723\H,1.838540372,2.3013110016,0.0384059901\\Version
 =ES64L-G16RevC.01\HF=-1199.9406747\RMSD=1.537e-09\RMSF=6.017e-06\ZeroP
 oint=0.0531651\Thermal=0.0634713\ETot=-1199.8772034\HTot=-1199.8762592
 \GTot=-1199.9247382\Dipole=0.0603104,0.8624537,0.660381\DipoleDeriv=1.
 614411,-0.0680961,-0.0268894,0.2062388,1.4311481,-0.0868161,-0.0564382
 ,0.0469999,1.5692316,0.9286088,-0.1474906,0.1170068,-0.2766559,0.66221
 24,0.1629096,0.130524,0.1060839,1.0149841,-0.6915845,0.1545285,-0.2037
 35,0.2351637,-0.3665616,0.1763885,-0.2146407,0.1183605,-0.4023871,-0.3
 232151,-0.0084439,0.0648356,-0.004721,-0.4467166,-0.3305129,0.0829918,
 -0.2332078,-0.7333386,1.926003,0.1115362,0.0860289,0.0754572,2.226635,
 0.0637271,0.1005048,-0.0373411,2.0401873,-0.9573439,0.1733499,-0.15765
 89,0.134853,-0.6590283,0.0705466,-0.2453345,0.1797694,-0.7043685,-0.59
 29107,-0.0394042,0.0033143,0.0094538,-0.5374204,-0.113493,0.0958194,-0
 .1563092,-1.0779531,-0.6135157,-0.2497772,0.0498467,-0.3514835,-1.3438
 599,-0.0040498,0.0068001,-0.1222019,-0.4373748,-0.9139209,-0.0383678,0
 .2700963,-0.1175561,-0.3533092,0.0627649,0.2719719,0.0252993,-0.374474
 8,-0.4484429,0.086055,-0.1949401,0.1047961,-0.4398572,0.2403689,-0.209
 7036,0.188345,-0.5663278,-0.2938138,-0.0547409,-0.0048997,-0.070133,-0
 .5546384,-0.2848474,0.0138308,-0.2261564,-0.6110475,0.3657247,0.080851
 2,-0.0030055,0.054587,0.3813961,0.0430135,0.0236743,0.1103584,0.282869
 4\Polar=55.2353743,2.5033562,51.6343486,-1.0225366,-0.2478072,53.55049
 97\PG=Unknown\NImag=0\\0.59654677,0.00682055,0.61892504,0.00506674,-0.
 00711039,0.60705018,-0.07273926,-0.02610162,0.01983382,0.49842079,-0.0
 6201333,-0.17308036,0.04314475,-0.02552781,0.56807890,0.02249038,0.023
 93811,-0.05273950,0.03942593,0.00497498,0.52967188,-0.01018776,0.00111
 943,-0.00758557,-0.19868644,0.09732034,-0.10072960,0.23961032,0.038098
 57,-0.01116899,0.02588203,0.08317142,-0.14050600,0.06917220,-0.1124042
 1,0.13972392,-0.02102904,0.00978227,-0.01560904,-0.09562577,0.07677338
 ,-0.14435855,0.15685549,-0.09614137,0.20913709,0.00081841,-0.00700696,
 -0.01213717,-0.06924574,-0.00324324,0.00266449,-0.00486653,-0.01291549
 ,-0.04362955,0.06902607,0.00363330,-0.01902488,-0.04724990,-0.00354875
 ,-0.16430561,-0.11202619,-0.00629451,0.02139759,0.00305977,0.01243754,
 0.17609666,-0.00042291,-0.00700198,-0.01918501,-0.00209372,-0.12728954
 ,-0.22849318,-0.03141286,-0.00834318,-0.05691430,0.02790007,0.16267103
 ,0.32408145,-0.00097492,-0.03322730,0.01711838,-0.13675214,0.01546698,
 0.05750819,-0.02371829,0.00494133,-0.00168033,0.00518157,-0.00906306,-
 0.01301415,0.72336030,-0.03164860,0.01667703,0.01644697,-0.02647110,-0
 .04834381,0.01736977,0.02612635,-0.00605244,0.00007908,0.01567775,-0.0
 1202251,-0.02539764,-0.09049909,0.69092624,0.01577328,0.01732538,0.014
 86417,0.05843663,-0.00543202,-0.05643423,-0.03467548,0.01064663,-0.005
 56205,0.01869227,-0.01256169,-0.03248300,0.28717801,0.03144622,1.18545
 440,-0.00003371,0.00949681,-0.00213205,0.00727619,0.00766582,-0.031152
 50,-0.01575048,0.00308777,0.00025392,-0.00104162,0.00267699,0.00781375
 ,-0.37601352,0.17086236,-0.25162535,0.36011326,0.00737085,-0.00676420,
 0.00075488,0.00021019,0.00550976,0.00554241,0.00160561,0.00082235,-0.0
 0005556,-0.00079063,0.00158079,0.00085998,0.16708332,-0.19467037,0.154
 56079,-0.19557734,0.19383880,-0.00599272,0.00230956,-0.00627476,0.0052
 3565,-0.00173854,-0.00285440,0.00233918,-0.00128993,0.00221837,-0.0002
 5590,0.00215262,0.00703183,-0.24457306,0.14914149,-0.32260176,0.278096
 40,-0.17671030,0.31960485,-0.00142531,0.00400331,-0.00532223,0.0107473
 3,0.00288844,0.00936014,0.00175682,-0.00062615,0.00233153,-0.00447601,
 0.00399421,0.00959919,-0.10891541,-0.02007892,-0.07211888,0.01488707,-
 0.00597267,-0.03217961,0.07625746,0.00323166,-0.00637550,-0.00513842,-
 0.00154845,0.00703781,-0.00380419,-0.00185298,0.00110099,-0.00008666,0
 .00037175,0.00088809,-0.00053660,-0.02390900,-0.13447495,-0.17005950,0
 .00774926,0.01639032,0.01776399,0.02660088,0.13315833,-0.00104709,-0.0
 1007830,-0.00446991,-0.02823308,-0.00088775,-0.01010711,0.00809611,-0.
 00251260,0.00589542,0.00733706,-0.00272855,-0.00843834,-0.07826447,-0.
 17396879,-0.68070791,-0.00109950,-0.01383818,-0.00873202,0.09354295,0.
 20104193,0.70514233,-0.00414036,0.01080839,-0.00036487,0.00096106,-0.0
 2995194,0.00148914,0.00038998,0.00061503,-0.00072686,-0.00050522,-0.00
 002174,0.00173584,-0.08282960,-0.04382244,-0.00988013,0.01572385,0.028
 10946,-0.00615196,0.00900985,-0.01246099,-0.00611289,0.17624326,0.0011
 7214,0.00766222,-0.00125491,0.01026699,-0.03045169,-0.00874673,-0.0066
 1864,0.00549364,-0.00190190,-0.00003252,0.00756199,0.00586999,-0.02680
 567,-0.27635003,0.02240638,-0.00069637,-0.02711220,0.00606597,-0.00629
 882,-0.01543728,-0.00408129,0.10746804,0.40075159,0.00026636,-0.003352
 01,-0.00271121,0.00201043,0.00721308,-0.00020515,0.00305203,-0.0016304
 3,0.00176655,-0.00004347,0.00509384,0.00467755,-0.01276699,-0.00392567
 ,-0.08965990,-0.00312431,0.02506397,0.00876771,-0.01026020,-0.04534405
 ,-0.00603176,0.21614287,0.10409288,0.44386626,-0.28336600,-0.01634796,
 0.08401268,-0.04634807,0.00205439,0.02030974,0.00720079,-0.00142983,-0
 .00006690,0.00341540,-0.00138803,-0.00262247,0.00800398,-0.00104067,-0
 .00523735,-0.00189972,-0.00020254,0.00045434,-0.00106710,0.00027476,0.
 00264225,-0.00304512,-0.00432723,0.00069648,0.40193978,-0.01167738,-0.
 08384274,0.00601442,-0.03340285,0.00053098,0.01546134,-0.00167270,0.00
 107880,-0.00061643,0.00051912,0.00162364,0.00054141,0.00784734,-0.0061
 5402,-0.00357717,-0.00221761,0.00173898,-0.00079747,-0.00102035,0.0016
 3600,0.00251723,-0.00309324,-0.00216402,0.00089473,-0.02236971,0.07547
 217,0.08218232,0.00731038,-0.10901424,0.02281973,0.00019797,-0.0068238
 2,0.00108814,-0.00115908,0.00176375,-0.00135435,0.00338226,0.00426658,
 -0.00531658,0.00062618,0.00001643,0.00125589,-0.00045854,0.00086338,0.
 00107766,0.00017665,-0.00054464,0.00167771,0.00199160,0.00007887,-0.12
 205953,0.00814027,0.12968739,-0.14682521,0.06225340,-0.09292280,0.0013
 6506,0.00250267,-0.00802346,0.00201553,-0.00042089,0.00037798,0.001216
 71,-0.00057624,0.00184702,-0.00705459,0.00516566,-0.00494053,0.0007514
 0,-0.00398481,0.00434616,0.00161360,-0.00021239,0.00084445,0.00175915,
 -0.00026911,0.00018811,-0.07242944,0.03322913,-0.03022446,0.21566627,0
 .05735696,-0.14546830,0.08487163,0.02469674,-0.00721521,0.02927685,0.0
 0048690,-0.01128281,0.00599429,-0.00046140,-0.00025155,0.00007440,0.00
 636301,-0.00287236,-0.00193191,-0.00334291,0.00141548,-0.00042478,-0.0
 0117288,0.00080106,0.00135944,-0.00193846,-0.00103166,0.00039223,0.022
 90890,0.00787379,0.00300986,-0.09393640,0.13570759,-0.08992291,0.09153
 281,-0.19929651,-0.02057939,0.00521774,-0.01844580,0.00098332,0.007173
 16,-0.00239827,0.00238986,0.00203872,0.00589478,-0.00630180,0.00013685
 ,-0.00279092,0.00276445,-0.00080181,0.00218560,0.00175588,0.00046764,0
 .00049648,0.00139598,0.00100119,0.00035995,-0.01499602,0.00024627,0.01
 671198,0.15835445,-0.10459218,0.26828486,-0.07748829,-0.01097071,-0.00
 585104,0.00624559,-0.00388551,-0.01103327,0.00180007,-0.00220285,0.002
 40234,-0.00027319,-0.00415927,-0.00071234,0.00017889,0.00385767,0.0002
 8151,-0.00014813,-0.00073284,0.00025582,-0.00103191,-0.00190318,0.0004
 5910,0.00032421,-0.00057397,-0.00022283,-0.01252418,0.03367923,0.04889
 441,0.00200316,-0.01125193,-0.03569443,0.08081042,-0.01128345,-0.19699
 654,-0.11619931,-0.00036642,-0.01627619,-0.04227965,0.00078748,-0.0004
 7805,0.00308322,-0.00481777,-0.01386450,-0.00210767,0.00557337,-0.0035
 0514,-0.00457597,-0.00215872,0.00124494,0.00034226,-0.00185305,0.00110
 581,0.00370166,-0.00163183,-0.00062625,0.00092653,0.02139183,0.0020660
 2,-0.02309235,-0.00408522,0.02221093,-0.00245233,-0.00201550,0.2049209
 5,-0.00767049,-0.12330407,-0.21296542,-0.00117191,-0.00719181,-0.01214
 071,0.00185435,-0.00166654,0.00450247,-0.00150818,-0.00217909,0.002093
 97,-0.00041391,-0.00503379,-0.00915098,-0.00038510,0.00014742,0.002214
 89,0.00224069,0.00366320,0.00357468,-0.00071644,0.00028704,0.00148215,
 0.03615079,-0.02928398,-0.03658733,-0.02972113,-0.01826382,-0.07066353
 ,0.00123233,0.18269394,0.32778844,-0.00018436,-0.00084735,0.00028413,-
 0.00124437,-0.00327681,-0.00230916,0.00043600,0.00008530,0.00053719,0.
 00075016,0.00230955,0.00138256,-0.00046629,-0.00812897,-0.00188398,-0.
 00386459,0.00288141,-0.00157431,0.00264361,0.00365867,0.00183511,-0.11
 389108,-0.07328484,-0.19593849,0.00011967,0.00017901,-0.00004096,-0.00
 008164,0.00029148,-0.00014938,0.00010335,0.00045928,0.00010902,0.11567
 955,-0.00106126,-0.00054278,-0.00016174,-0.00137833,-0.00097859,0.0011
 2110,0.00139693,-0.00012899,0.00002991,0.00026184,0.00032028,0.0006598
 0,-0.02377123,-0.02315764,-0.03824714,0.00245394,0.00600536,0.00318512
 ,-0.00046400,-0.00583066,-0.00052477,-0.05408029,-0.06829632,-0.089425
 09,0.00047607,0.00014039,-0.00012520,0.00033420,0.00011304,0.00003195,
 0.00015886,0.00019802,0.00013151,0.07567326,0.09215789,0.00030609,-0.0
 0135173,0.00035124,-0.00005832,0.00501776,0.00293057,0.00013488,-0.000
 13088,-0.00044146,-0.00005513,-0.00165282,-0.00253235,0.00052670,-0.00
 692067,-0.00094426,-0.00066560,0.00493495,-0.00242369,-0.00002711,0.00
 185602,0.00392278,-0.19848839,-0.12573023,-0.36239102,0.00071600,0.000
 45938,-0.00041835,-0.00012579,0.00023399,-0.00033863,-0.00001161,-0.00
 004032,-0.00014863,0.19774828,0.12332454,0.36243379\\-0.00001444,0.000
 00995,-0.00001087,0.00000222,-0.00000008,0.00000928,0.00000179,-0.0000
 0451,-0.00000864,-0.00000027,0.00000101,0.00000060,0.00001018,-0.00000
 792,-0.00000158,-0.00000150,0.00000257,0.00000277,-0.00000121,-0.00000
 666,0.00000234,-0.00000577,0.00000206,0.00000080,-0.00000812,0.0000070
 8,-0.00000352,0.00001082,-0.00000016,0.00001048,0.00000664,-0.00000327
 ,-0.00000122,-0.00000031,-0.00000007,-0.00000045\\\@
 The archive entry for this job was punched.


 K N O W I N G  IS A BARRIER WHICH PREVENTS LEARNING

                     -- TEACHING OF THE BENE GESSERIT
 Job cpu time:       0 days  0 hours 37 minutes 40.4 seconds.
 Elapsed time:       0 days  0 hours  4 minutes 47.8 seconds.
 File lengths (MBytes):  RWF=    164 Int=      0 D2E=      0 Chk=     11 Scr=      1
 Normal termination of Gaussian 16 at Sat May 24 06:26:11 2025.
done
