 Entering Gaussian System, Link 0=g16
 Initial command:
 /apps/easybuild-2022/easybuild/software/Compiler/NVHPC/22.11-CUDA-11.7.0/Gaussian/g16c01-CUDA-11.7.0/g16/l1.exe "/tmp/Gau-95010.inp" -scrdir="/tmp/"
 Entering Link 1 = /apps/easybuild-2022/easybuild/software/Compiler/NVHPC/22.11-CUDA-11.7.0/Gaussian/g16c01-CUDA-11.7.0/g16/l1.exe PID=     95011.
  
 Copyright (c) 1988-2019, Gaussian, Inc.  All Rights Reserved.
  
 This is part of the Gaussian(R) 16 program.  It is based on
 the Gaussian(R) 09 system (copyright 2009, Gaussian, Inc.),
 the Gaussian(R) 03 system (copyright 2003, Gaussian, Inc.),
 the Gaussian(R) 98 system (copyright 1998, Gaussian, Inc.),
 the Gaussian(R) 94 system (copyright 1995, Gaussian, Inc.),
 the Gaussian 92(TM) system (copyright 1992, Gaussian, Inc.),
 the Gaussian 90(TM) system (copyright 1990, Gaussian, Inc.),
 the Gaussian 88(TM) system (copyright 1988, Gaussian, Inc.),
 the Gaussian 86(TM) system (copyright 1986, Carnegie Mellon
 University), and the Gaussian 82(TM) system (copyright 1983,
 Carnegie Mellon University). Gaussian is a federally registered
 trademark of Gaussian, Inc.
  
 This software contains proprietary and confidential information,
 including trade secrets, belonging to Gaussian, Inc.
  
 This software is provided under written license and may be
 used, copied, transmitted, or stored only in accord with that
 written license.
  
 The following legend is applicable only to US Government
 contracts under FAR:
  
                    RESTRICTED RIGHTS LEGEND
  
 Use, reproduction and disclosure by the US Government is
 subject to restrictions as set forth in subparagraphs (a)
 and (c) of the Commercial Computer Software - Restricted
 Rights clause in FAR 52.227-19.
  
 Gaussian, Inc.
 340 Quinnipiac St., Bldg. 40, Wallingford CT 06492
  
  
 ---------------------------------------------------------------
 Warning -- This program may not be used in any manner that
 competes with the business of Gaussian, Inc. or will provide
 assistance to any competitor of Gaussian, Inc.  The licensee
 of this program is prohibited from giving any competitor of
 Gaussian, Inc. access to this program.  By using this program,
 the user acknowledges that Gaussian, Inc. is engaged in the
 business of creating and licensing software in the field of
 computational chemistry and represents and warrants to the
 licensee that it is not a competitor of Gaussian, Inc. and that
 it will not use this program in any manner prohibited above.
 ---------------------------------------------------------------
  

 Cite this work as:
 Gaussian 16, Revision C.01,
 M. J. Frisch, G. W. Trucks, H. B. Schlegel, G. E. Scuseria, 
 M. A. Robb, J. R. Cheeseman, G. Scalmani, V. Barone, 
 G. A. Petersson, H. Nakatsuji, X. Li, M. Caricato, A. V. Marenich, 
 J. Bloino, B. G. Janesko, R. Gomperts, B. Mennucci, H. P. Hratchian, 
 J. V. Ortiz, A. F. Izmaylov, J. L. Sonnenberg, D. Williams-Young, 
 F. Ding, F. Lipparini, F. Egidi, J. Goings, B. Peng, A. Petrone, 
 T. Henderson, D. Ranasinghe, V. G. Zakrzewski, J. Gao, N. Rega, 
 G. Zheng, W. Liang, M. Hada, M. Ehara, K. Toyota, R. Fukuda, 
 J. Hasegawa, M. Ishida, T. Nakajima, Y. Honda, O. Kitao, H. Nakai, 
 T. Vreven, K. Throssell, J. A. Montgomery, Jr., J. E. Peralta, 
 F. Ogliaro, M. J. Bearpark, J. J. Heyd, E. N. Brothers, K. N. Kudin, 
 V. N. Staroverov, T. A. Keith, R. Kobayashi, J. Normand, 
 K. Raghavachari, A. P. Rendell, J. C. Burant, S. S. Iyengar, 
 J. Tomasi, M. Cossi, J. M. Millam, M. Klene, C. Adamo, R. Cammi, 
 J. W. Ochterski, R. L. Martin, K. Morokuma, O. Farkas, 
 J. B. Foresman, and D. J. Fox, Gaussian, Inc., Wallingford CT, 2019.
 
 ******************************************
 Gaussian 16:  ES64L-G16RevC.01  3-Jul-2019
                24-May-2025 
 ******************************************
 %mem=28GB
 %chk=2003846667223680600001_r13_insertion_ROR_3_2_5_6_IRC_R_prod
 %nprocshared=8
 Will use up to    8 processors via shared memory.
 -----------------------------------------------------------------
 #P M062X/Def2TZVPP Symm(None) scf(xqc) pop(None) freq opt(CalcFC)
 -----------------------------------------------------------------
 1/10=4,18=20,19=15,26=3,38=1/1,3;
 2/9=110,12=2,15=3,17=6,18=5,40=1/2;
 3/5=44,7=202,11=2,25=1,30=1,71=2,74=-55,140=1/1,2,3;
 4//1;
 5/5=2,8=3,13=1,38=5/2,8;
 8/6=4,10=90,11=11/1;
 11/6=1,8=1,9=11,15=111,16=1,31=1/1,2,10;
 10/6=1,13=1,31=1/2;
 7/10=1,25=1,30=1/1,2,3,16;
 1/10=4,18=20,19=15,26=3/3(2);
 2/9=110,15=3/2;
 99//99;
 2/9=110,15=3/2;
 3/5=44,7=202,11=2,25=1,30=1,71=1,74=-55/1,2,3;
 4/5=5,16=3,69=1/1;
 5/5=2,8=3,13=1,38=5/2,8;
 7/30=1/1,2,3,16;
 1/18=20,19=15,26=3/3(-5);
 2/9=110,15=3/2;
 99/9=1/99;
 Leave Link    1 at Sat May 24 07:24:38 2025, MaxMem=  3758096384 cpu:               0.0 elap:               0.0
 (Enter /apps/easybuild-2022/easybuild/software/Compiler/NVHPC/22.11-CUDA-11.7.0/Gaussian/g16c01-CUDA-11.7.0/g16/l101.exe)
 ------------------------------
 Gaussian input prepared by ASE
 ------------------------------
 Symbolic Z-matrix:
 Charge =  0 Multiplicity = 1
 C                     0.22968  -1.35956  -0.70909 
 C                     0.67819  -0.36333   0.31136 
 F                    -2.13561   0.59941   0.29686 
 F                     1.08277  -0.93162   1.46505 
 S                     0.23078   1.1795    0.42144 
 O                    -1.31283   1.56106   0.88899 
 O                     0.94325   2.00524   1.32095 
 O                     0.0705    1.70609  -1.03194 
 F                    -0.36865  -0.78214  -1.7551 
 F                     1.27934  -2.04279  -1.17756 
 F                    -0.61193  -2.25486  -0.19538 
 H                     0.80565   1.41161  -1.58934 
 
 ITRead=  0  0  0  0  0  0  0  0  0  0  0  0
 MicOpt= -1 -1 -1 -1 -1 -1 -1 -1 -1 -1 -1 -1
 NAtoms=     12 NQM=       12 NQMF=       0 NMMI=      0 NMMIF=      0
                NMic=       0 NMicF=      0.
                    Isotopes and Nuclear Properties:
 (Nuclear quadrupole moments (NQMom) in fm**2, nuclear magnetic moments (NMagM)
  in nuclear magnetons)

  Atom         1           2           3           4           5           6           7           8           9          10
 IAtWgt=          12          12          19          19          32          16          16          16          19          19
 AtmWgt=  12.0000000  12.0000000  18.9984032  18.9984032  31.9720718  15.9949146  15.9949146  15.9949146  18.9984032  18.9984032
 NucSpn=           0           0           1           1           0           0           0           0           1           1
 AtZEff=  -0.0000000  -0.0000000  -0.0000000  -0.0000000  -0.0000000  -0.0000000  -0.0000000  -0.0000000  -0.0000000  -0.0000000
 NQMom=    0.0000000   0.0000000   0.0000000   0.0000000   0.0000000   0.0000000   0.0000000   0.0000000   0.0000000   0.0000000
 NMagM=    0.0000000   0.0000000   2.6288670   2.6288670   0.0000000   0.0000000   0.0000000   0.0000000   2.6288670   2.6288670
 AtZNuc=   6.0000000   6.0000000   9.0000000   9.0000000  16.0000000   8.0000000   8.0000000   8.0000000   9.0000000   9.0000000

  Atom        11          12
 IAtWgt=          19           1
 AtmWgt=  18.9984032   1.0078250
 NucSpn=           1           1
 AtZEff=  -0.0000000  -0.0000000
 NQMom=    0.0000000   0.0000000
 NMagM=    2.6288670   2.7928460
 AtZNuc=   9.0000000   1.0000000
 Leave Link  101 at Sat May 24 07:24:38 2025, MaxMem=  3758096384 cpu:               0.2 elap:               0.2
 (Enter /apps/easybuild-2022/easybuild/software/Compiler/NVHPC/22.11-CUDA-11.7.0/Gaussian/g16c01-CUDA-11.7.0/g16/l103.exe)

 GradGradGradGradGradGradGradGradGradGradGradGradGradGradGradGradGradGrad
 Berny optimization.
 Initialization pass.
                           ----------------------------
                           !    Initial Parameters    !
                           ! (Angstroms and Degrees)  !
 --------------------------                            --------------------------
 ! Name  Definition              Value          Derivative Info.                !
 --------------------------------------------------------------------------------
 ! R1    R(1,2)                  1.495          calculate D2E/DX2 analytically  !
 ! R2    R(1,9)                  1.3363         calculate D2E/DX2 analytically  !
 ! R3    R(1,10)                 1.3372         calculate D2E/DX2 analytically  !
 ! R4    R(1,11)                 1.3318         calculate D2E/DX2 analytically  !
 ! R5    R(2,4)                  1.3482         calculate D2E/DX2 analytically  !
 ! R6    R(2,5)                  1.6102         calculate D2E/DX2 analytically  !
 ! R7    R(3,6)                  1.3973         calculate D2E/DX2 analytically  !
 ! R8    R(5,6)                  1.6574         calculate D2E/DX2 analytically  !
 ! R9    R(5,7)                  1.4137         calculate D2E/DX2 analytically  !
 ! R10   R(5,8)                  1.5541         calculate D2E/DX2 analytically  !
 ! R11   R(8,12)                 0.9684         calculate D2E/DX2 analytically  !
 ! A1    A(2,1,9)              112.3774         calculate D2E/DX2 analytically  !
 ! A2    A(2,1,10)             110.1288         calculate D2E/DX2 analytically  !
 ! A3    A(2,1,11)             111.9789         calculate D2E/DX2 analytically  !
 ! A4    A(9,1,10)             107.3391         calculate D2E/DX2 analytically  !
 ! A5    A(9,1,11)             108.0273         calculate D2E/DX2 analytically  !
 ! A6    A(10,1,11)            106.7203         calculate D2E/DX2 analytically  !
 ! A7    A(1,2,4)              113.1565         calculate D2E/DX2 analytically  !
 ! A8    A(1,2,5)              127.0009         calculate D2E/DX2 analytically  !
 ! A9    A(4,2,5)              115.3894         calculate D2E/DX2 analytically  !
 ! A10   A(2,5,6)              119.9118         calculate D2E/DX2 analytically  !
 ! A11   A(2,5,7)              117.5896         calculate D2E/DX2 analytically  !
 ! A12   A(2,5,8)              106.8212         calculate D2E/DX2 analytically  !
 ! A13   A(6,5,7)               98.9404         calculate D2E/DX2 analytically  !
 ! A14   A(6,5,8)               95.1493         calculate D2E/DX2 analytically  !
 ! A15   A(7,5,8)              116.6862         calculate D2E/DX2 analytically  !
 ! A16   A(3,6,5)              105.6905         calculate D2E/DX2 analytically  !
 ! A17   A(5,8,12)             110.9125         calculate D2E/DX2 analytically  !
 ! D1    D(9,1,2,4)            169.7655         calculate D2E/DX2 analytically  !
 ! D2    D(9,1,2,5)             14.7753         calculate D2E/DX2 analytically  !
 ! D3    D(10,1,2,4)           -70.6201         calculate D2E/DX2 analytically  !
 ! D4    D(10,1,2,5)           134.3898         calculate D2E/DX2 analytically  !
 ! D5    D(11,1,2,4)            47.958          calculate D2E/DX2 analytically  !
 ! D6    D(11,1,2,5)          -107.0321         calculate D2E/DX2 analytically  !
 ! D7    D(1,2,5,6)             70.2822         calculate D2E/DX2 analytically  !
 ! D8    D(1,2,5,7)           -169.5245         calculate D2E/DX2 analytically  !
 ! D9    D(1,2,5,8)            -36.1033         calculate D2E/DX2 analytically  !
 ! D10   D(4,2,5,6)            -84.233          calculate D2E/DX2 analytically  !
 ! D11   D(4,2,5,7)             35.9603         calculate D2E/DX2 analytically  !
 ! D12   D(4,2,5,8)            169.3814         calculate D2E/DX2 analytically  !
 ! D13   D(2,5,6,3)            -37.7676         calculate D2E/DX2 analytically  !
 ! D14   D(7,5,6,3)           -166.92           calculate D2E/DX2 analytically  !
 ! D15   D(8,5,6,3)             75.0038         calculate D2E/DX2 analytically  !
 ! D16   D(2,5,8,12)           -43.8398         calculate D2E/DX2 analytically  !
 ! D17   D(6,5,8,12)          -167.2282         calculate D2E/DX2 analytically  !
 ! D18   D(7,5,8,12)            90.0665         calculate D2E/DX2 analytically  !
 --------------------------------------------------------------------------------
 Trust Radius=3.00D-01 FncErr=1.00D-07 GrdErr=1.00D-06 EigMax=2.50D+02 EigMin=1.00D-04
 Number of steps in this run=     56 maximum allowed number of steps=    100.
 GradGradGradGradGradGradGradGradGradGradGradGradGradGradGradGradGradGrad

 Leave Link  103 at Sat May 24 07:24:38 2025, MaxMem=  3758096384 cpu:               0.0 elap:               0.0
 (Enter /apps/easybuild-2022/easybuild/software/Compiler/NVHPC/22.11-CUDA-11.7.0/Gaussian/g16c01-CUDA-11.7.0/g16/l202.exe)
                          Input orientation:                          
 ---------------------------------------------------------------------
 Center     Atomic      Atomic             Coordinates (Angstroms)
 Number     Number       Type             X           Y           Z
 ---------------------------------------------------------------------
      1          6           0        0.229681   -1.359558   -0.709085
      2          6           0        0.678186   -0.363331    0.311355
      3          9           0       -2.135612    0.599412    0.296864
      4          9           0        1.082766   -0.931620    1.465054
      5         16           0        0.230783    1.179502    0.421438
      6          8           0       -1.312826    1.561062    0.888986
      7          8           0        0.943245    2.005236    1.320954
      8          8           0        0.070498    1.706088   -1.031935
      9          9           0       -0.368650   -0.782141   -1.755104
     10          9           0        1.279340   -2.042794   -1.177563
     11          9           0       -0.611928   -2.254856   -0.195375
     12          1           0        0.805647    1.411606   -1.589343
 ---------------------------------------------------------------------
                    Distance matrix (angstroms):
                    1          2          3          4          5
     1  C    0.000000
     2  C    1.494966   0.000000
     3  F    3.231734   2.973978   0.000000
     4  F    2.374398   1.348206   3.750558   0.000000
     5  S    2.779372   1.610162   2.439641   2.504365   0.000000
     6  O    3.669221   2.828617   1.397267   3.504879   1.657383
     7  O    3.994004   2.588369   3.536165   2.943697   1.413707
     8  O    3.086706   2.540907   2.803098   3.770563   1.554116
     9  F    1.336251   2.354043   3.039970   3.535303   2.990769
    10  F    1.337186   2.323544   4.562574   2.873460   3.746928
    11  F    1.331827   2.345002   3.272729   2.716609   3.589629
    12  H    2.964109   2.603709   3.587261   3.859643   2.104182
                    6          7          8          9         10
     6  O    0.000000
     7  O    2.339603   0.000000
     8  O    2.371614   2.527304   0.000000
     9  F    3.656950   4.353467   2.628138   0.000000
    10  F    4.896706   4.768867   3.941652   2.153757   0.000000
    11  F    4.028440   4.781862   4.105437   2.158895   2.141625
    12  H    3.263798   2.973409   0.968436   2.493787   3.510958
                   11         12
    11  F    0.000000
    12  H    4.170804   0.000000
 Symmetry turned off by external request.
 Stoichiometry    C2HF5O3S
 Rotational constants (GHZ):           1.4770585           0.8068779           0.7264960
 Leave Link  202 at Sat May 24 07:24:38 2025, MaxMem=  3758096384 cpu:               0.0 elap:               0.0
 (Enter /apps/easybuild-2022/easybuild/software/Compiler/NVHPC/22.11-CUDA-11.7.0/Gaussian/g16c01-CUDA-11.7.0/g16/l301.exe)
 Standard basis: def2TZVPP (5D, 7F)
 Ernie: Thresh=  0.10000D-02 Tol=  0.10000D-05 Strict=F.
   366 basis functions,   596 primitive gaussians,   423 cartesian basis functions
    49 alpha electrons       49 beta electrons
       nuclear repulsion energy       910.9659048766 Hartrees.
 IExCor= 4336 DFT=T Ex+Corr=M062X ExCW=0 ScaHFX=  0.540000
 ScaDFX=  1.000000  1.000000  1.000000  1.000000 ScalE2=  1.000000  1.000000
 IRadAn=      5 IRanWt=     -1 IRanGd=            0 ICorTp=0 IEmpDi=  4
 NAtoms=   12 NActive=   12 NUniq=   12 SFac= 1.00D+00 NAtFMM=   60 NAOKFM=F Big=F
 Integral buffers will be    131072 words long.
 Raffenetti 2 integral format.
 Two-electron integral symmetry is turned off.
 Leave Link  301 at Sat May 24 07:24:38 2025, MaxMem=  3758096384 cpu:               0.0 elap:               0.0
 (Enter /apps/easybuild-2022/easybuild/software/Compiler/NVHPC/22.11-CUDA-11.7.0/Gaussian/g16c01-CUDA-11.7.0/g16/l302.exe)
 NPDir=0 NMtPBC=     1 NCelOv=     1 NCel=       1 NClECP=     1 NCelD=      1
         NCelK=      1 NCelE2=     1 NClLst=     1 CellRange=     0.0.
 One-electron integrals computed using PRISM.
   1 Symmetry operations used in ECPInt.
 ECPInt:  NShTT=    8515 NPrTT=   27988 LenC2=    7971 LenP2D=   19265.
 LDataN:  DoStor=T MaxTD1= 6 Len=  172
 NBasis=   366 RedAO= T EigKep=  3.72D-04  NBF=   366
 NBsUse=   366 1.00D-06 EigRej= -1.00D+00 NBFU=   366
 Precomputing XC quadrature grid using
 IXCGrd= 4 IRadAn=           5 IRanWt=          -1 IRanGd=           0 AccXCQ= 0.00D+00.
 Generated NRdTot=       0 NPtTot=           0 NUsed=           0 NTot=          32
 NSgBfM=   419   419   419   419   419 MxSgAt=    12 MxSgA2=    12.
 Leave Link  302 at Sat May 24 07:24:39 2025, MaxMem=  3758096384 cpu:               0.5 elap:               0.1
 (Enter /apps/easybuild-2022/easybuild/software/Compiler/NVHPC/22.11-CUDA-11.7.0/Gaussian/g16c01-CUDA-11.7.0/g16/l303.exe)
 DipDrv:  MaxL=1.
 Leave Link  303 at Sat May 24 07:24:39 2025, MaxMem=  3758096384 cpu:               0.1 elap:               0.0
 (Enter /apps/easybuild-2022/easybuild/software/Compiler/NVHPC/22.11-CUDA-11.7.0/Gaussian/g16c01-CUDA-11.7.0/g16/l401.exe)
 ExpMin= 9.52D-02 ExpMax= 6.07D+04 ExpMxC= 2.07D+03 IAcc=3 IRadAn=         5 AccDes= 0.00D+00
 Harris functional with IExCor= 1009 and IRadAn=       5 diagonalized for initial guess.
 HarFok:  IExCor= 1009 AccDes= 0.00D+00 IRadAn=         5 IDoV= 1 UseB2=F ITyADJ=14
 ICtDFT=  3500011 ScaDFX=  1.000000  1.000000  1.000000  1.000000
 FoFCou: FMM=F IPFlag=           0 FMFlag=      100000 FMFlg1=           0
         NFxFlg=           0 DoJE=T BraDBF=F KetDBF=T FulRan=T
         wScrn=  0.000000 ICntrl=       500 IOpCl=  0 I1Cent=   200000004 NGrid=           0
         NMat0=    1 NMatS0=      1 NMatT0=    0 NMatD0=    1 NMtDS0=    0 NMtDT0=    0
 Symmetry not used in FoFCou.
 Harris En= -1199.13097521419    
 JPrj=0 DoOrth=F DoCkMO=F.
 Leave Link  401 at Sat May 24 07:24:39 2025, MaxMem=  3758096384 cpu:               3.1 elap:               0.4
 (Enter /apps/easybuild-2022/easybuild/software/Compiler/NVHPC/22.11-CUDA-11.7.0/Gaussian/g16c01-CUDA-11.7.0/g16/l502.exe)
 Keep R1 ints in memory in canonical form, NReq=2293446996.
 FoFCou: FMM=F IPFlag=           0 FMFlag=           0 FMFlg1=           0
         NFxFlg=           0 DoJE=F BraDBF=F KetDBF=F FulRan=T
         wScrn=  0.000000 ICntrl=       600 IOpCl=  0 I1Cent=           0 NGrid=           0
         NMat0=    1 NMatS0=  67161 NMatT0=    0 NMatD0=    1 NMtDS0=    0 NMtDT0=    0
 Symmetry not used in FoFCou.
 Two-electron integral symmetry not used.
 Closed shell SCF:
 Using DIIS extrapolation, IDIIS=  1040.
 NGot=  3758096384 LenX=  1502398672 LenY=  1502219302
 Requested convergence on RMS density matrix=1.00D-08 within  32 cycles.
 Requested convergence on MAX density matrix=1.00D-06.
 Requested convergence on             energy=1.00D-06.
 No special actions if energy rises.
 Integral accuracy reduced to 1.0D-05 until final iterations.

 Cycle   1  Pass 0  IDiag  1:
 E= -1199.46050960392    
 DIIS: error= 1.83D-02 at cycle   1 NSaved=   1.
 NSaved= 1 IEnMin= 1 EnMin= -1199.46050960392     IErMin= 1 ErrMin= 1.83D-02
 ErrMax= 1.83D-02  0.00D+00 EMaxC= 1.00D-01 BMatC= 5.10D-01 BMatP= 5.10D-01
 IDIUse=3 WtCom= 8.17D-01 WtEn= 1.83D-01
 Coeff-Com:  0.100D+01
 Coeff-En:   0.100D+01
 Coeff:      0.100D+01
 Gap=     0.273 Goal=   None    Shift=    0.000
 GapD=    0.273 DampG=1.000 DampE=0.500 DampFc=0.5000 IDamp=-1.
 Damping current iteration by 5.00D-01
 RMSDP=2.19D-03 MaxDP=2.59D-01              OVMax= 2.19D-01

 Cycle   2  Pass 0  IDiag  1:
 E= -1199.54997074094     Delta-E=       -0.089461137012 Rises=F Damp=T
 DIIS: error= 5.90D-03 at cycle   2 NSaved=   2.
 NSaved= 2 IEnMin= 2 EnMin= -1199.54997074094     IErMin= 2 ErrMin= 5.90D-03
 ErrMax= 5.90D-03  0.00D+00 EMaxC= 1.00D-01 BMatC= 5.54D-02 BMatP= 5.10D-01
 IDIUse=3 WtCom= 9.41D-01 WtEn= 5.90D-02
 Coeff-Com:  0.707D-01 0.929D+00
 Coeff-En:   0.258D+00 0.742D+00
 Coeff:      0.817D-01 0.918D+00
 Gap=     0.338 Goal=   None    Shift=    0.000
 RMSDP=6.62D-04 MaxDP=4.91D-02 DE=-8.95D-02 OVMax= 1.32D-01

 Cycle   3  Pass 0  IDiag  1:
 E= -1199.69966115461     Delta-E=       -0.149690413671 Rises=F Damp=F
 DIIS: error= 5.82D-03 at cycle   3 NSaved=   3.
 NSaved= 3 IEnMin= 3 EnMin= -1199.69966115461     IErMin= 3 ErrMin= 5.82D-03
 ErrMax= 5.82D-03  0.00D+00 EMaxC= 1.00D-01 BMatC= 2.51D-02 BMatP= 5.54D-02
 IDIUse=3 WtCom= 9.42D-01 WtEn= 5.82D-02
 Coeff-Com: -0.775D-01 0.380D+00 0.697D+00
 Coeff-En:   0.000D+00 0.000D+00 0.100D+01
 Coeff:     -0.730D-01 0.358D+00 0.715D+00
 Gap=     0.320 Goal=   None    Shift=    0.000
 RMSDP=3.38D-04 MaxDP=1.91D-02 DE=-1.50D-01 OVMax= 4.26D-02

 Cycle   4  Pass 0  IDiag  1:
 E= -1199.71393784636     Delta-E=       -0.014276691748 Rises=F Damp=F
 DIIS: error= 2.27D-03 at cycle   4 NSaved=   4.
 NSaved= 4 IEnMin= 4 EnMin= -1199.71393784636     IErMin= 4 ErrMin= 2.27D-03
 ErrMax= 2.27D-03  0.00D+00 EMaxC= 1.00D-01 BMatC= 5.21D-03 BMatP= 2.51D-02
 IDIUse=3 WtCom= 9.77D-01 WtEn= 2.27D-02
 Coeff-Com: -0.468D-01 0.104D+00 0.381D+00 0.562D+00
 Coeff-En:   0.000D+00 0.000D+00 0.131D+00 0.869D+00
 Coeff:     -0.458D-01 0.102D+00 0.375D+00 0.569D+00
 Gap=     0.317 Goal=   None    Shift=    0.000
 RMSDP=1.12D-04 MaxDP=5.66D-03 DE=-1.43D-02 OVMax= 1.24D-02

 Cycle   5  Pass 0  IDiag  1:
 E= -1199.71736447953     Delta-E=       -0.003426633173 Rises=F Damp=F
 DIIS: error= 3.19D-04 at cycle   5 NSaved=   5.
 NSaved= 5 IEnMin= 5 EnMin= -1199.71736447953     IErMin= 5 ErrMin= 3.19D-04
 ErrMax= 3.19D-04  0.00D+00 EMaxC= 1.00D-01 BMatC= 1.10D-04 BMatP= 5.21D-03
 IDIUse=3 WtCom= 9.97D-01 WtEn= 3.19D-03
 Coeff-Com: -0.123D-01 0.198D-01 0.942D-01 0.206D+00 0.692D+00
 Coeff-En:   0.000D+00 0.000D+00 0.000D+00 0.000D+00 0.100D+01
 Coeff:     -0.122D-01 0.197D-01 0.939D-01 0.205D+00 0.693D+00
 Gap=     0.316 Goal=   None    Shift=    0.000
 RMSDP=2.29D-05 MaxDP=1.02D-03 DE=-3.43D-03 OVMax= 2.13D-03

 Cycle   6  Pass 0  IDiag  1:
 E= -1199.71743620614     Delta-E=       -0.000071726614 Rises=F Damp=F
 DIIS: error= 1.01D-04 at cycle   6 NSaved=   6.
 NSaved= 6 IEnMin= 6 EnMin= -1199.71743620614     IErMin= 6 ErrMin= 1.01D-04
 ErrMax= 1.01D-04  0.00D+00 EMaxC= 1.00D-01 BMatC= 1.39D-05 BMatP= 1.10D-04
 IDIUse=3 WtCom= 9.99D-01 WtEn= 1.01D-03
 Coeff-Com: -0.220D-02 0.149D-02 0.109D-01 0.452D-01 0.310D+00 0.634D+00
 Coeff-En:   0.000D+00 0.000D+00 0.000D+00 0.000D+00 0.000D+00 0.100D+01
 Coeff:     -0.220D-02 0.149D-02 0.109D-01 0.451D-01 0.310D+00 0.635D+00
 Gap=     0.317 Goal=   None    Shift=    0.000
 RMSDP=8.11D-06 MaxDP=3.60D-04 DE=-7.17D-05 OVMax= 1.19D-03

 Initial convergence to 1.0D-05 achieved.  Increase integral accuracy.
 Cycle   7  Pass 1  IDiag  1:
 E= -1199.71748945306     Delta-E=       -0.000053246915 Rises=F Damp=F
 DIIS: error= 2.82D-05 at cycle   1 NSaved=   1.
 NSaved= 1 IEnMin= 1 EnMin= -1199.71748945306     IErMin= 1 ErrMin= 2.82D-05
 ErrMax= 2.82D-05  0.00D+00 EMaxC= 1.00D-01 BMatC= 1.81D-06 BMatP= 1.81D-06
 IDIUse=1 WtCom= 1.00D+00 WtEn= 0.00D+00
 Coeff-Com:  0.100D+01
 Coeff:      0.100D+01
 Gap=     0.316 Goal=   None    Shift=    0.000
 RMSDP=8.11D-06 MaxDP=3.60D-04 DE=-5.32D-05 OVMax= 9.32D-04

 Cycle   8  Pass 1  IDiag  1:
 E= -1199.71748985367     Delta-E=       -0.000000400616 Rises=F Damp=F
 DIIS: error= 4.07D-05 at cycle   2 NSaved=   2.
 NSaved= 2 IEnMin= 2 EnMin= -1199.71748985367     IErMin= 1 ErrMin= 2.82D-05
 ErrMax= 4.07D-05  0.00D+00 EMaxC= 1.00D-01 BMatC= 2.00D-06 BMatP= 1.81D-06
 IDIUse=1 WtCom= 1.00D+00 WtEn= 0.00D+00
 Coeff-Com:  0.514D+00 0.486D+00
 Coeff:      0.514D+00 0.486D+00
 Gap=     0.316 Goal=   None    Shift=    0.000
 RMSDP=2.67D-06 MaxDP=1.54D-04 DE=-4.01D-07 OVMax= 4.18D-04

 Cycle   9  Pass 1  IDiag  1:
 E= -1199.71749123444     Delta-E=       -0.000001380768 Rises=F Damp=F
 DIIS: error= 1.39D-05 at cycle   3 NSaved=   3.
 NSaved= 3 IEnMin= 3 EnMin= -1199.71749123444     IErMin= 3 ErrMin= 1.39D-05
 ErrMax= 1.39D-05  0.00D+00 EMaxC= 1.00D-01 BMatC= 1.32D-07 BMatP= 1.81D-06
 IDIUse=1 WtCom= 1.00D+00 WtEn= 0.00D+00
 Coeff-Com:  0.488D-01 0.193D+00 0.758D+00
 Coeff:      0.488D-01 0.193D+00 0.758D+00
 Gap=     0.316 Goal=   None    Shift=    0.000
 RMSDP=9.84D-07 MaxDP=4.71D-05 DE=-1.38D-06 OVMax= 1.55D-04

 Cycle  10  Pass 1  IDiag  1:
 E= -1199.71749132974     Delta-E=       -0.000000095294 Rises=F Damp=F
 DIIS: error= 5.98D-06 at cycle   4 NSaved=   4.
 NSaved= 4 IEnMin= 4 EnMin= -1199.71749132974     IErMin= 4 ErrMin= 5.98D-06
 ErrMax= 5.98D-06  0.00D+00 EMaxC= 1.00D-01 BMatC= 3.68D-08 BMatP= 1.32D-07
 IDIUse=1 WtCom= 1.00D+00 WtEn= 0.00D+00
 Coeff-Com: -0.427D-01 0.388D-01 0.415D+00 0.588D+00
 Coeff:     -0.427D-01 0.388D-01 0.415D+00 0.588D+00
 Gap=     0.316 Goal=   None    Shift=    0.000
 RMSDP=4.07D-07 MaxDP=2.53D-05 DE=-9.53D-08 OVMax= 6.68D-05

 Cycle  11  Pass 1  IDiag  1:
 E= -1199.71749135773     Delta-E=       -0.000000027997 Rises=F Damp=F
 DIIS: error= 1.06D-06 at cycle   5 NSaved=   5.
 NSaved= 5 IEnMin= 5 EnMin= -1199.71749135773     IErMin= 5 ErrMin= 1.06D-06
 ErrMax= 1.06D-06  0.00D+00 EMaxC= 1.00D-01 BMatC= 1.07D-09 BMatP= 3.68D-08
 IDIUse=1 WtCom= 1.00D+00 WtEn= 0.00D+00
 Coeff-Com: -0.105D-01-0.162D-01-0.985D-02 0.830D-01 0.954D+00
 Coeff:     -0.105D-01-0.162D-01-0.985D-02 0.830D-01 0.954D+00
 Gap=     0.316 Goal=   None    Shift=    0.000
 RMSDP=2.16D-07 MaxDP=1.01D-05 DE=-2.80D-08 OVMax= 4.63D-05

 Cycle  12  Pass 1  IDiag  1:
 E= -1199.71749136023     Delta-E=       -0.000000002493 Rises=F Damp=F
 DIIS: error= 6.97D-07 at cycle   6 NSaved=   6.
 NSaved= 6 IEnMin= 6 EnMin= -1199.71749136023     IErMin= 6 ErrMin= 6.97D-07
 ErrMax= 6.97D-07  0.00D+00 EMaxC= 1.00D-01 BMatC= 4.41D-10 BMatP= 1.07D-09
 IDIUse=1 WtCom= 1.00D+00 WtEn= 0.00D+00
 Coeff-Com:  0.208D-02-0.148D-01-0.709D-01-0.581D-01 0.463D+00 0.679D+00
 Coeff:      0.208D-02-0.148D-01-0.709D-01-0.581D-01 0.463D+00 0.679D+00
 Gap=     0.316 Goal=   None    Shift=    0.000
 RMSDP=7.41D-08 MaxDP=2.16D-06 DE=-2.49D-09 OVMax= 1.73D-05

 Cycle  13  Pass 1  IDiag  1:
 E= -1199.71749136082     Delta-E=       -0.000000000592 Rises=F Damp=F
 DIIS: error= 2.25D-07 at cycle   7 NSaved=   7.
 NSaved= 7 IEnMin= 7 EnMin= -1199.71749136082     IErMin= 7 ErrMin= 2.25D-07
 ErrMax= 2.25D-07  0.00D+00 EMaxC= 1.00D-01 BMatC= 4.30D-11 BMatP= 4.41D-10
 IDIUse=1 WtCom= 1.00D+00 WtEn= 0.00D+00
 Coeff-Com:  0.240D-02-0.484D-02-0.315D-01-0.380D-01 0.811D-01 0.274D+00
 Coeff-Com:  0.716D+00
 Coeff:      0.240D-02-0.484D-02-0.315D-01-0.380D-01 0.811D-01 0.274D+00
 Coeff:      0.716D+00
 Gap=     0.316 Goal=   None    Shift=    0.000
 RMSDP=2.53D-08 MaxDP=8.04D-07 DE=-5.92D-10 OVMax= 6.35D-06

 Cycle  14  Pass 1  IDiag  1:
 E= -1199.71749136089     Delta-E=       -0.000000000074 Rises=F Damp=F
 DIIS: error= 5.39D-08 at cycle   8 NSaved=   8.
 NSaved= 8 IEnMin= 8 EnMin= -1199.71749136089     IErMin= 8 ErrMin= 5.39D-08
 ErrMax= 5.39D-08  0.00D+00 EMaxC= 1.00D-01 BMatC= 3.40D-12 BMatP= 4.30D-11
 IDIUse=1 WtCom= 1.00D+00 WtEn= 0.00D+00
 Coeff-Com:  0.181D-03 0.880D-03 0.284D-02 0.865D-03-0.414D-01-0.421D-01
 Coeff-Com:  0.122D+00 0.956D+00
 Coeff:      0.181D-03 0.880D-03 0.284D-02 0.865D-03-0.414D-01-0.421D-01
 Coeff:      0.122D+00 0.956D+00
 Gap=     0.316 Goal=   None    Shift=    0.000
 RMSDP=1.04D-08 MaxDP=3.41D-07 DE=-7.41D-11 OVMax= 2.56D-06

 Cycle  15  Pass 1  IDiag  1:
 E= -1199.71749136089     Delta-E=        0.000000000006 Rises=F Damp=F
 DIIS: error= 3.05D-08 at cycle   9 NSaved=   9.
 NSaved= 9 IEnMin= 8 EnMin= -1199.71749136089     IErMin= 9 ErrMin= 3.05D-08
 ErrMax= 3.05D-08  0.00D+00 EMaxC= 1.00D-01 BMatC= 1.42D-12 BMatP= 3.40D-12
 IDIUse=1 WtCom= 1.00D+00 WtEn= 0.00D+00
 Coeff-Com: -0.228D-03 0.119D-02 0.604D-02 0.602D-02-0.323D-01-0.603D-01
 Coeff-Com: -0.379D-01 0.481D+00 0.636D+00
 Coeff:     -0.228D-03 0.119D-02 0.604D-02 0.602D-02-0.323D-01-0.603D-01
 Coeff:     -0.379D-01 0.481D+00 0.636D+00
 Gap=     0.316 Goal=   None    Shift=    0.000
 RMSDP=3.36D-09 MaxDP=1.52D-07 DE= 5.91D-12 OVMax= 6.07D-07

 SCF Done:  E(RM062X) =  -1199.71749136     A.U. after   15 cycles
            NFock= 15  Conv=0.34D-08     -V/T= 2.0028
 KE= 1.196323909792D+03 PE=-4.667995525832D+03 EE= 1.360988219803D+03
 Leave Link  502 at Sat May 24 07:25:14 2025, MaxMem=  3758096384 cpu:             132.8 elap:              35.4
 (Enter /apps/easybuild-2022/easybuild/software/Compiler/NVHPC/22.11-CUDA-11.7.0/Gaussian/g16c01-CUDA-11.7.0/g16/l508.exe)
 QCSCF skips out because SCF is already converged.
 Leave Link  508 at Sat May 24 07:25:14 2025, MaxMem=  3758096384 cpu:               0.0 elap:               0.0
 (Enter /apps/easybuild-2022/easybuild/software/Compiler/NVHPC/22.11-CUDA-11.7.0/Gaussian/g16c01-CUDA-11.7.0/g16/l801.exe)
 DoSCS=F DFT=T ScalE2(SS,OS)=  1.000000  1.000000
 Range of M.O.s used for correlation:     1   366
 NBasis=   366 NAE=    49 NBE=    49 NFC=     0 NFV=     0
 NROrb=    366 NOA=    49 NOB=    49 NVA=   317 NVB=   317

 **** Warning!!: The largest alpha MO coefficient is  0.19342247D+02

 Leave Link  801 at Sat May 24 07:25:15 2025, MaxMem=  3758096384 cpu:               0.0 elap:               0.0
 (Enter /apps/easybuild-2022/easybuild/software/Compiler/NVHPC/22.11-CUDA-11.7.0/Gaussian/g16c01-CUDA-11.7.0/g16/l1101.exe)
 Using compressed storage, NAtomX=    12.
 Will process     13 centers per pass.
   1 Symmetry operations used in ECPInt.
 ECPInt:  NShTT=    8515 NPrTT=   27988 LenC2=    7971 LenP2D=   19265.
 LDataN:  DoStor=T MaxTD1= 7 Len=  274
 Leave Link 1101 at Sat May 24 07:25:15 2025, MaxMem=  3758096384 cpu:               0.9 elap:               0.2
 (Enter /apps/easybuild-2022/easybuild/software/Compiler/NVHPC/22.11-CUDA-11.7.0/Gaussian/g16c01-CUDA-11.7.0/g16/l1102.exe)
 Symmetrizing basis deriv contribution to polar:
 IMax=3 JMax=2 DiffMx= 0.00D+00
 Leave Link 1102 at Sat May 24 07:25:15 2025, MaxMem=  3758096384 cpu:               0.1 elap:               0.0
 (Enter /apps/easybuild-2022/easybuild/software/Compiler/NVHPC/22.11-CUDA-11.7.0/Gaussian/g16c01-CUDA-11.7.0/g16/l1110.exe)
 Forming Gx(P) for the SCF density, NAtomX=    12.
 Integral derivatives from FoFJK, PRISM(SPDF).
 Do as many integral derivatives as possible in FoFJK.
 G2DrvN: MDV=    3758095012.
 G2DrvN: will do    13 centers at a time, making    1 passes.
 Calling FoFCou, ICntrl=  3107 FMM=F I1Cent=   0 AccDes= 0.00D+00.
 FoFJK:  IHMeth= 1 ICntrl=    3107 DoSepK=F KAlg= 0 I1Cent=           0 FoldK=F
 IRaf=         0 NMat=       1 IRICut=       1 DoRegI=T DoRafI=F ISym2E= 0 IDoP0=0 IntGTp=1.
 FoFCou: FMM=F IPFlag=           0 FMFlag=      100000 FMFlg1=           0
         NFxFlg=           0 DoJE=F BraDBF=F KetDBF=F FulRan=T
         wScrn=  0.000000 ICntrl=      3107 IOpCl=  0 I1Cent=           0 NGrid=           0
         NMat0=    1 NMatS0=      1 NMatT0=    0 NMatD0=    1 NMtDS0=    0 NMtDT0=    0
 Symmetry not used in FoFCou.
 End of G2Drv F.D. properties file   721 does not exist.
 End of G2Drv F.D. properties file   722 does not exist.
 End of G2Drv F.D. properties file   788 does not exist.
 Leave Link 1110 at Sat May 24 07:25:57 2025, MaxMem=  3758096384 cpu:             334.2 elap:              42.0
 (Enter /apps/easybuild-2022/easybuild/software/Compiler/NVHPC/22.11-CUDA-11.7.0/Gaussian/g16c01-CUDA-11.7.0/g16/l1002.exe)
 Minotr:  Closed shell wavefunction.
          IDoAtm=111111111111
          Direct CPHF calculation.
          Differentiating once with respect to nuclear coordinates.
          Requested convergence is 1.0D-08 RMS, and 1.0D-07 maximum.
          Secondary convergence is 1.0D-12 RMS, and 1.0D-12 maximum.
          NewPWx=T KeepS1=F KeepF1=F KeepIn=T MapXYZ=F SortEE=F KeepMc=T.
         3598 words used for storage of precomputed grid.
 Keep R1 ints in memory in canonical form, NReq=2293452904.
 FoFCou: FMM=F IPFlag=           0 FMFlag=           0 FMFlg1=           0
         NFxFlg=           0 DoJE=F BraDBF=F KetDBF=F FulRan=T
         wScrn=  0.000000 ICntrl=       600 IOpCl=  0 I1Cent=           0 NGrid=           0
         NMat0=    1 NMatS0=  67161 NMatT0=    0 NMatD0=    1 NMtDS0=    0 NMtDT0=    0
 Symmetry not used in FoFCou.
 Two-electron integral symmetry not used.
          MDV=    3758096384 using IRadAn=       1.
          Solving linear equations simultaneously, MaxMat=       0.
          There are    39 degrees of freedom in the 1st order CPHF.  IDoFFX=6 NUNeed=     0.
     33 vectors produced by pass  0 Test12= 3.98D-14 2.56D-09 XBig12= 1.45D-01 1.16D-01.
 AX will form    33 AO Fock derivatives at one time.
     33 vectors produced by pass  1 Test12= 3.98D-14 2.56D-09 XBig12= 3.53D-02 4.29D-02.
     33 vectors produced by pass  2 Test12= 3.98D-14 2.56D-09 XBig12= 1.46D-03 1.06D-02.
     33 vectors produced by pass  3 Test12= 3.98D-14 2.56D-09 XBig12= 3.07D-05 8.27D-04.
     33 vectors produced by pass  4 Test12= 3.98D-14 2.56D-09 XBig12= 4.76D-07 1.31D-04.
     33 vectors produced by pass  5 Test12= 3.98D-14 2.56D-09 XBig12= 4.97D-09 9.83D-06.
     33 vectors produced by pass  6 Test12= 3.98D-14 2.56D-09 XBig12= 3.97D-11 8.97D-07.
     19 vectors produced by pass  7 Test12= 3.98D-14 2.56D-09 XBig12= 2.36D-13 4.84D-08.
      5 vectors produced by pass  8 Test12= 3.98D-14 2.56D-09 XBig12= 1.46D-15 4.63D-09.
 InvSVY:  IOpt=1 It=  1 EMax= 1.11D-15
 Solved reduced A of dimension   255 with    33 vectors.
 End of Minotr F.D. properties file   721 does not exist.
 End of Minotr F.D. properties file   722 does not exist.
 End of Minotr F.D. properties file   788 does not exist.
 Leave Link 1002 at Sat May 24 07:27:03 2025, MaxMem=  3758096384 cpu:             523.7 elap:              66.4
 (Enter /apps/easybuild-2022/easybuild/software/Compiler/NVHPC/22.11-CUDA-11.7.0/Gaussian/g16c01-CUDA-11.7.0/g16/l701.exe)
 ... and contract with generalized density number  0.
 Compute integral second derivatives.
   1 Symmetry operations used in ECPInt.
 ECPInt:  NShTT=    8515 NPrTT=   27988 LenC2=    7971 LenP2D=   19265.
 LDataN:  DoStor=T MaxTD1= 8 Len=  415
 Leave Link  701 at Sat May 24 07:27:03 2025, MaxMem=  3758096384 cpu:               0.6 elap:               0.1
 (Enter /apps/easybuild-2022/easybuild/software/Compiler/NVHPC/22.11-CUDA-11.7.0/Gaussian/g16c01-CUDA-11.7.0/g16/l702.exe)
 L702 exits ... SP integral derivatives will be done elsewhere.
 Leave Link  702 at Sat May 24 07:27:03 2025, MaxMem=  3758096384 cpu:               0.0 elap:               0.0
 (Enter /apps/easybuild-2022/easybuild/software/Compiler/NVHPC/22.11-CUDA-11.7.0/Gaussian/g16c01-CUDA-11.7.0/g16/l703.exe)
 Integral derivatives from FoFJK, PRISM(SPDF).
 Compute integral second derivatives, UseDBF=F ICtDFT=           0.
 Calling FoFJK, ICntrl=    100127 FMM=F ISym2X=0 I1Cent= 0 IOpClX= 0 NMat=1 NMatS=1 NMatT=0.
 FoFJK:  IHMeth= 1 ICntrl=  100127 DoSepK=F KAlg= 0 I1Cent=           0 FoldK=F
 IRaf=         0 NMat=       1 IRICut=       1 DoRegI=T DoRafI=F ISym2E= 0 IDoP0=0 IntGTp=1.
 FoFCou: FMM=F IPFlag=           0 FMFlag=      100000 FMFlg1=         800
         NFxFlg=           0 DoJE=F BraDBF=F KetDBF=F FulRan=T
         wScrn=  0.000000 ICntrl=    100127 IOpCl=  0 I1Cent=           0 NGrid=           0
         NMat0=    1 NMatS0=      1 NMatT0=    0 NMatD0=    1 NMtDS0=    0 NMtDT0=    0
 Symmetry not used in FoFCou.
 Leave Link  703 at Sat May 24 07:28:39 2025, MaxMem=  3758096384 cpu:             757.3 elap:              95.1
 (Enter /apps/easybuild-2022/easybuild/software/Compiler/NVHPC/22.11-CUDA-11.7.0/Gaussian/g16c01-CUDA-11.7.0/g16/l716.exe)
 Dipole        = 2.60419289D-01 4.38575617D-01-9.42295929D-01
 Polarizability= 0.00000000D+00 0.00000000D+00 0.00000000D+00
                 0.00000000D+00 0.00000000D+00 0.00000000D+00
 -------------------------------------------------------------------
 Center     Atomic                   Forces (Hartrees/Bohr)
 Number     Number              X              Y              Z
 -------------------------------------------------------------------
      1        6           0.000059136   -0.000114876    0.000057625
      2        6           0.000269370    0.000065057   -0.000164864
      3        9          -0.000334780    0.001767707   -0.001448135
      4        9           0.001796167    0.000130743   -0.000724285
      5       16          -0.000412098   -0.000368135    0.000406851
      6        8          -0.000276299   -0.000513683    0.000569644
      7        8          -0.000104900   -0.000316766    0.000276369
      8        8          -0.001310984    0.000223375    0.000742843
      9        9           0.000494812   -0.000255935   -0.000182967
     10        9          -0.000085865   -0.000745736    0.000550141
     11        9          -0.000358578    0.000310416    0.000205785
     12        1           0.000264019   -0.000182166   -0.000289008
 -------------------------------------------------------------------
 Cartesian Forces:  Max     0.001796167 RMS     0.000635374
 Force constants in Cartesian coordinates: 
                1             2             3             4             5 
      1  0.534089D+00
      2  0.127734D-01  0.570055D+00
      3  0.256446D-01  0.172128D-01  0.588202D+00
      4 -0.619822D-01 -0.233730D-01 -0.322294D-01  0.154278D+00
      5 -0.343836D-01 -0.120305D+00 -0.476554D-01 -0.639588D-01  0.670868D+00
      6 -0.394461D-01 -0.856069D-01 -0.132899D+00  0.151157D+00  0.797336D-02
      7 -0.124887D-02  0.227607D-03 -0.798225D-03  0.176471D-02  0.489360D-03
      8 -0.374884D-02 -0.165034D-02 -0.155658D-02  0.423609D-02  0.331643D-02
      9 -0.198762D-02 -0.500889D-04 -0.134257D-02  0.251546D-02  0.199987D-02
     10 -0.793816D-02  0.878359D-02 -0.158171D-01 -0.465582D-01  0.346509D-01
     11 -0.285353D-02  0.782497D-03 -0.824860D-02  0.471695D-01 -0.116012D+00
     12 -0.143344D-01  0.313562D-01 -0.343630D-01 -0.903370D-01  0.110991D+00
     13  0.904357D-02  0.124301D-02  0.248610D-01 -0.363808D-01  0.634386D-01
     14 -0.223049D-02 -0.445892D-01 -0.425317D-01  0.485544D-01 -0.351969D+00
     15  0.167547D-01 -0.220068D-01  0.205233D-01 -0.138549D-01 -0.373830D-01
     16 -0.861653D-02 -0.935113D-02 -0.659023D-02  0.303943D-02 -0.703305D-02
     17  0.131610D-01  0.130820D-01  0.112325D-01  0.205443D-02  0.157843D-04
     18  0.380771D-02  0.446684D-02  0.255983D-02 -0.266757D-02 -0.622789D-03
     19  0.184725D-02  0.124429D-02 -0.484460D-02  0.199521D-02  0.107531D-01
     20  0.435283D-02  0.572822D-02  0.147375D-01 -0.153038D-01 -0.131108D-01
     21 -0.262918D-02  0.617604D-02  0.597676D-02 -0.263674D-02 -0.650199D-02
     22 -0.367429D-02 -0.699516D-03 -0.462511D-02 -0.649098D-02  0.793711D-02
     23 -0.987164D-03  0.633427D-02  0.140518D-04  0.805616D-02  0.361173D-02
     24 -0.432339D-02 -0.393586D-03 -0.201091D-01 -0.193684D-02  0.187692D-02
     25 -0.121202D+00  0.304553D-01 -0.853061D-01 -0.344107D-02  0.787068D-02
     26  0.287270D-01 -0.102930D+00  0.519714D-01 -0.401208D-02  0.136827D-01
     27 -0.847143D-01  0.527808D-01 -0.225577D+00 -0.203484D-01  0.153246D-01
     28 -0.182198D+00  0.787071D-01  0.584161D-01  0.177527D-02  0.132878D-01
     29  0.856347D-01 -0.138902D+00 -0.480744D-01  0.248144D-01 -0.349021D-01
     30  0.588444D-01 -0.492694D-01 -0.111006D+00  0.196146D-01 -0.318742D-01
     31 -0.160812D+00 -0.972446D-01  0.399622D-01 -0.640954D-02 -0.336655D-01
     32 -0.100245D+00 -0.183973D+00  0.461660D-01 -0.284448D-01 -0.521768D-01
     33  0.407193D-01  0.423612D-01 -0.977809D-01 -0.966739D-02 -0.136693D-01
     34  0.269281D-02 -0.276604D-02  0.132694D-02 -0.158994D-02  0.613268D-03
     35 -0.200590D-03 -0.363291D-02  0.673251D-02  0.207425D-03 -0.301941D-02
     36  0.166439D-02  0.297282D-02  0.581585D-02  0.390775D-03 -0.458960D-03
                6             7             8             9            10 
      6  0.515678D+00
      7  0.123609D-02  0.187034D+00
      8  0.364568D-02  0.145975D+00  0.174648D+00
      9  0.119613D-02  0.852695D-01  0.104423D+00  0.715663D-01
     10 -0.880591D-01  0.550416D-03 -0.248179D-04 -0.108429D-03  0.598600D-01
     11  0.115768D+00 -0.162589D-03  0.364573D-03  0.239422D-03 -0.588970D-01
     12 -0.277238D+00  0.973683D-03 -0.865899D-03 -0.137326D-03  0.119511D+00
     13 -0.236841D-01 -0.360743D-01 -0.499510D-02 -0.137651D-02 -0.123891D-01
     14  0.947468D-02 -0.406057D-01 -0.126569D-01 -0.331707D-02  0.127992D-01
     15 -0.623305D-01 -0.323826D-01 -0.100210D-01 -0.842896D-02 -0.169533D-01
     16  0.119306D-01 -0.139853D+00 -0.141903D+00 -0.828112D-01 -0.354411D-02
     17 -0.226063D-01 -0.108865D+00 -0.171179D+00 -0.103757D+00  0.421758D-02
     18  0.256666D-03 -0.598895D-01 -0.101693D+00 -0.728416D-01  0.432928D-02
     19  0.384646D-02 -0.157325D-01 -0.263845D-02 -0.331958D-02 -0.115213D-02
     20 -0.356416D-01  0.109639D-02  0.452749D-02 -0.412108D-03 -0.873245D-04
     21 -0.132452D-01  0.288595D-02  0.156258D-02  0.556047D-02  0.250862D-02
     22 -0.322972D-02  0.126247D-02 -0.196380D-04  0.576178D-03  0.758430D-02
     23  0.290403D-01  0.481116D-03  0.738779D-03  0.114267D-02 -0.529979D-03
     24 -0.105219D-02  0.252510D-02  0.270228D-02  0.342865D-02 -0.995808D-03
     25 -0.189722D-01  0.440869D-04  0.106191D-02  0.109251D-02  0.722052D-03
     26 -0.653388D-02  0.424198D-03 -0.130121D-03 -0.449734D-03 -0.189844D-02
     27 -0.297806D-01  0.301005D-03  0.691740D-03  0.177097D-03 -0.481620D-02
     28  0.380781D-02  0.164829D-03  0.313992D-03  0.259002D-03  0.963210D-03
     29 -0.219437D-01 -0.168430D-03  0.850805D-03  0.223391D-03 -0.223646D-02
     30 -0.839151D-02 -0.601370D-04  0.682549D-03  0.311763D-03 -0.615141D-03
     31  0.277470D-02  0.940039D-03  0.991962D-03  0.421543D-03  0.176819D-02
     32  0.686122D-02  0.658003D-03  0.904207D-03  0.435425D-03  0.222280D-02
     33  0.680685D-02  0.545676D-04 -0.564847D-04  0.151623D-03  0.185785D-02
     34 -0.136197D-02  0.114742D-02  0.751130D-03 -0.530912D-03  0.133490D-03
     35 -0.430755D-03  0.450599D-03  0.265841D-03 -0.477025D-03  0.999870D-03
     36  0.999244D-03 -0.115471D-03  0.484994D-03  0.358382D-03 -0.841958D-03
               11            12            13            14            15 
     11  0.131570D+00
     12 -0.141371D+00  0.327019D+00
     13  0.875629D-02 -0.330482D-02  0.551752D+00
     14 -0.116964D-01 -0.916286D-02  0.759497D-01  0.872167D+00
     15  0.439720D-01 -0.293855D-01  0.208356D+00  0.201178D+00  0.816636D+00
     16  0.426969D-02 -0.995159D-02 -0.144773D+00  0.528705D-01  0.558705D-01
     17 -0.405033D-02  0.124725D-01  0.443569D-01 -0.697548D-01 -0.220489D-01
     18 -0.355183D-02  0.503118D-02  0.257672D-01 -0.191483D-01 -0.562747D-01
     19 -0.433525D-03  0.330689D-02 -0.240634D+00 -0.175376D+00 -0.200602D+00
     20  0.660394D-03  0.340392D-02 -0.194273D+00 -0.305463D+00 -0.246923D+00
     21 -0.313340D-02  0.100892D-01 -0.213077D+00 -0.232424D+00 -0.334587D+00
     22  0.353993D-02 -0.406777D-02 -0.754829D-01  0.176393D-01 -0.148273D-01
     23 -0.104103D-01  0.445688D-02  0.297392D-01 -0.107849D+00  0.738023D-01
     24  0.552125D-02 -0.294722D-02 -0.350169D-01  0.793430D-01 -0.292109D+00
     25 -0.264010D-02 -0.412027D-02 -0.543133D-02  0.557430D-02 -0.272858D-02
     26  0.951633D-04 -0.527114D-02  0.227243D-02 -0.404445D-02  0.921381D-02
     27 -0.558060D-02 -0.713952D-02 -0.613780D-02  0.125501D-01 -0.782078D-02
     28 -0.194283D-02  0.320085D-02 -0.152364D-02 -0.117665D-02 -0.157149D-04
     29  0.344357D-02 -0.292953D-02  0.179424D-03  0.105299D-01 -0.391862D-02
     30  0.110804D-02  0.269180D-02 -0.503055D-03  0.656775D-02 -0.708550D-02
     31  0.173890D-02  0.398415D-03 -0.111697D-01  0.911685D-02  0.635063D-03
     32  0.532104D-02 -0.278260D-02 -0.154001D-01  0.181220D-01  0.347449D-02
     33 -0.217184D-02  0.396365D-02 -0.415121D-02  0.451537D-02 -0.303388D-02
     34  0.145525D-02 -0.127520D-02  0.306289D-02 -0.311523D-02 -0.251921D-03
     35 -0.686303D-04 -0.296930D-03 -0.112674D-01  0.720407D-02  0.106603D-01
     36 -0.255079D-02  0.241554D-02  0.282671D-01 -0.704528D-02 -0.361036D-01
               16            17            18            19            20 
     16  0.315731D+00
     17  0.919115D-01  0.233869D+00
     18  0.170506D-01  0.132494D+00  0.152001D+00
     19 -0.151100D-01 -0.324352D-01 -0.224385D-01  0.256096D+00
     20  0.329525D-04  0.104876D-02 -0.301820D-02  0.204328D+00  0.301225D+00
     21  0.100619D-02 -0.463297D-02  0.743428D-03  0.227296D+00  0.263197D+00
     22 -0.126154D-01 -0.935430D-02  0.356162D-01  0.117472D-01  0.364178D-02
     23  0.396021D-02  0.676804D-02 -0.898462D-02 -0.607665D-02  0.145974D-01
     24  0.851225D-02  0.529691D-02 -0.274754D-01 -0.196301D-02  0.117955D-01
     25  0.202120D-02 -0.307335D-02 -0.114701D-02  0.889020D-03 -0.148038D-02
     26 -0.866215D-04  0.629181D-03 -0.422705D-03 -0.755866D-03  0.869269D-03
     27  0.269020D-02 -0.488049D-02 -0.101506D-02  0.959282D-03 -0.308381D-02
     28  0.298537D-03 -0.290409D-03 -0.286899D-03  0.653933D-03  0.115644D-02
     29  0.374331D-02 -0.588475D-02 -0.139779D-02 -0.157160D-02 -0.325361D-02
     30  0.244022D-02 -0.413421D-02 -0.731764D-03 -0.100777D-02 -0.308851D-02
     31  0.202481D-02 -0.261971D-02 -0.138869D-02  0.203943D-02 -0.355168D-02
     32  0.280892D-02 -0.417035D-02 -0.209066D-02  0.281692D-02 -0.542103D-02
     33  0.145020D-03 -0.438356D-03 -0.262975D-04  0.101891D-02 -0.160134D-02
     34  0.139699D-02  0.936797D-03  0.124704D-02 -0.264024D-02  0.876076D-04
     35 -0.122343D-02 -0.373188D-03  0.396910D-02  0.145065D-03 -0.140757D-02
     36 -0.292624D-03  0.100318D-02 -0.222687D-02 -0.225240D-02  0.634906D-03
               21            22            23            24            25 
     21  0.339559D+00
     22 -0.100262D-01  0.375811D+00
     23 -0.169374D-01 -0.152286D+00  0.162011D+00
     24 -0.131991D-01 -0.194718D+00 -0.118432D-01  0.516821D+00
     25 -0.117006D-03  0.173989D-02 -0.174742D-02  0.216925D-02  0.151603D+00
     26 -0.130093D-02 -0.412879D-02 -0.131766D-01 -0.984634D-02 -0.682998D-01
     27 -0.578094D-03  0.129530D-02 -0.336757D-02  0.727873D-02  0.121027D+00
     28  0.666811D-03  0.767267D-03  0.125908D-02  0.276412D-03 -0.444886D-01
     29 -0.872304D-03  0.197636D-03 -0.162178D-02  0.167280D-02  0.429134D-01
     30 -0.117136D-03  0.377911D-03 -0.861211D-03  0.308810D-02 -0.287519D-01
     31 -0.214517D-02  0.127494D-02 -0.107197D-02  0.130324D-02  0.182717D-01
     32 -0.442128D-02  0.148996D-02 -0.191964D-02  0.239334D-02 -0.102278D-01
     33 -0.580456D-03  0.691130D-03  0.274769D-03  0.333290D-02  0.177461D-01
     34 -0.373264D-02 -0.301924D+00  0.119203D+00  0.224168D+00 -0.727712D-03
     35 -0.710895D-03  0.132042D+00 -0.590837D-01 -0.885189D-01 -0.406760D-03
     36  0.377911D-03  0.192938D+00 -0.667370D-01 -0.177058D+00 -0.891656D-03
               26            27            28            29            30 
     26  0.155108D+00
     27 -0.115713D+00  0.288154D+00
     28  0.451014D-01 -0.151621D-01  0.293496D+00
     29 -0.204610D-01  0.111391D-01 -0.135609D+00  0.169982D+00
     30  0.236621D-01  0.151741D-01 -0.942439D-01  0.565328D-01  0.115104D+00
     31  0.500025D-03  0.598771D-02 -0.686611D-01 -0.186958D-01  0.434075D-01
     32 -0.313860D-01  0.430658D-01 -0.601332D-03  0.199825D-01  0.135768D-02
     33  0.548083D-01 -0.361538D-01  0.427726D-01  0.105396D-01 -0.776072D-02
     34  0.215654D-02 -0.108159D-02 -0.124756D-02  0.798632D-03  0.497375D-03
     35  0.174325D-02 -0.292666D-02 -0.205384D-03  0.236523D-03 -0.683363D-03
     36 -0.117741D-03 -0.271960D-02  0.308979D-03 -0.971211D-03 -0.127745D-02
               31            32            33            34            35 
     31  0.220708D+00
     32  0.144244D+00  0.234374D+00
     33 -0.908028D-01 -0.933855D-01  0.131985D+00
     34  0.251967D-04  0.678476D-03 -0.384026D-03  0.299670D+00
     35  0.257842D-03  0.342294D-03 -0.117645D-02 -0.120800D+00  0.577934D-01
     36 -0.553626D-03 -0.107395D-02 -0.904080D-03 -0.218621D+00  0.738590D-01
               36 
     36  0.210323D+00
 FormGI is forming the generalized inverse of G from B-inverse, IUseBI=4.
 Leave Link  716 at Sat May 24 07:28:39 2025, MaxMem=  3758096384 cpu:               0.0 elap:               0.0
 (Enter /apps/easybuild-2022/easybuild/software/Compiler/NVHPC/22.11-CUDA-11.7.0/Gaussian/g16c01-CUDA-11.7.0/g16/l103.exe)

 GradGradGradGradGradGradGradGradGradGradGradGradGradGradGradGradGradGrad
 Berny optimization.
 Red2BG is reusing G-inverse.
 Internal  Forces:  Max     0.003013727 RMS     0.001095790
 Search for a local minimum.
 Step number   1 out of a maximum of   56
 All quantities printed in internal units (Hartrees-Bohrs-Radians)
 RMS Force = .10958D-02 SwitMx=.10000D-02 MixMth= 1
 Mixed Optimization -- RFO/linear search
 Second derivative matrix not updated -- analytic derivatives used.
 ITU=  0
     Eigenvalues ---    0.00079   0.00335   0.00634   0.01188   0.01371
     Eigenvalues ---    0.09256   0.09773   0.12947   0.13363   0.13416
     Eigenvalues ---    0.13832   0.16505   0.18347   0.19182   0.21899
     Eigenvalues ---    0.23884   0.25953   0.26657   0.28915   0.32024
     Eigenvalues ---    0.39381   0.40347   0.41448   0.42116   0.44488
     Eigenvalues ---    0.47401   0.51867   0.54197   0.57561   0.77040
 RFO step:  Lambda=-2.16099545D-03 EMin= 7.91398202D-04
 Linear search not attempted -- first point.
 Iteration  1 RMS(Cart)=  0.10586754 RMS(Int)=  0.01265631
 Iteration  2 RMS(Cart)=  0.01769010 RMS(Int)=  0.00021002
 Iteration  3 RMS(Cart)=  0.00021413 RMS(Int)=  0.00008943
 Iteration  4 RMS(Cart)=  0.00000003 RMS(Int)=  0.00008943
 ITry= 1 IFail=0 DXMaxC= 3.07D-01 DCOld= 1.00D+10 DXMaxT= 3.00D-01 DXLimC= 3.00D+00 Rises=F
 Variable       Old X    -DE/DX   Delta X   Delta X   Delta X     New X
                                 (Linear)    (Quad)   (Total)
    R1        2.82508   0.00007   0.00000  -0.00343  -0.00343   2.82164
    R2        2.52515  -0.00019   0.00000   0.00352   0.00352   2.52866
    R3        2.52692   0.00012   0.00000  -0.00651  -0.00651   2.52040
    R4        2.51679   0.00010   0.00000   0.00430   0.00430   2.52109
    R5        2.54774  -0.00014   0.00000  -0.00007  -0.00007   2.54767
    R6        3.04277   0.00121   0.00000   0.00862   0.00862   3.05139
    R7        2.64045  -0.00040   0.00000   0.00022   0.00022   2.64067
    R8        3.13200   0.00061   0.00000  -0.00157  -0.00157   3.13043
    R9        2.67152  -0.00006   0.00000  -0.00018  -0.00018   2.67134
   R10        2.93685  -0.00030   0.00000  -0.00272  -0.00272   2.93413
   R11        1.83008   0.00042   0.00000   0.00070   0.00070   1.83077
    A1        1.96136   0.00063   0.00000  -0.00647  -0.00648   1.95488
    A2        1.92211   0.00020   0.00000  -0.01279  -0.01279   1.90932
    A3        1.95440  -0.00077   0.00000   0.01666   0.01669   1.97110
    A4        1.87342  -0.00003   0.00000   0.00911   0.00906   1.88248
    A5        1.88543   0.00008   0.00000  -0.00552  -0.00550   1.87993
    A6        1.86262  -0.00012   0.00000  -0.00084  -0.00079   1.86183
    A7        1.97495  -0.00109   0.00000  -0.01116  -0.01146   1.96350
    A8        2.21658   0.00202   0.00000  -0.00009  -0.00038   2.21620
    A9        2.01393  -0.00071   0.00000  -0.00556  -0.00589   2.00804
   A10        2.09286   0.00301   0.00000   0.02882   0.02888   2.12174
   A11        2.05233  -0.00195   0.00000  -0.02133  -0.02128   2.03105
   A12        1.86438   0.00137   0.00000   0.00091   0.00094   1.86532
   A13        1.72684  -0.00017   0.00000  -0.00486  -0.00471   1.72213
   A14        1.66067  -0.00281   0.00000  -0.01390  -0.01390   1.64677
   A15        2.03656   0.00057   0.00000   0.01529   0.01525   2.05181
   A16        1.84465   0.00115   0.00000  -0.00394  -0.00394   1.84070
   A17        1.93579   0.00007   0.00000   0.00244   0.00244   1.93822
    D1        2.96297   0.00069   0.00000   0.20181   0.20183  -3.11839
    D2        0.25788   0.00039   0.00000   0.24836   0.24829   0.50617
    D3       -1.23255   0.00120   0.00000   0.20036   0.20045  -1.03211
    D4        2.34554   0.00090   0.00000   0.24691   0.24690   2.59245
    D5        0.83702   0.00070   0.00000   0.20150   0.20153   1.03855
    D6       -1.86806   0.00040   0.00000   0.24804   0.24798  -1.62008
    D7        1.22666  -0.00112   0.00000  -0.07301  -0.07295   1.15371
    D8       -2.95876  -0.00043   0.00000  -0.07385  -0.07391  -3.03267
    D9       -0.63012  -0.00000   0.00000  -0.07020  -0.07021  -0.70033
   D10       -1.47014  -0.00137   0.00000  -0.02443  -0.02436  -1.49451
   D11        0.62763  -0.00068   0.00000  -0.02527  -0.02533   0.60230
   D12        2.95626  -0.00025   0.00000  -0.02162  -0.02162   2.93464
   D13       -0.65917  -0.00240   0.00000  -0.15045  -0.15037  -0.80954
   D14       -2.91330  -0.00167   0.00000  -0.13709  -0.13709  -3.05039
   D15        1.30906  -0.00159   0.00000  -0.14877  -0.14885   1.16021
   D16       -0.76515   0.00120   0.00000   0.09997   0.09998  -0.66516
   D17       -2.91868  -0.00132   0.00000   0.07416   0.07412  -2.84456
   D18        1.57196   0.00027   0.00000   0.08399   0.08402   1.65597
         Item               Value     Threshold  Converged?
 Maximum Force            0.003014     0.000450     NO 
 RMS     Force            0.001096     0.000300     NO 
 Maximum Displacement     0.307130     0.001800     NO 
 RMS     Displacement     0.117452     0.001200     NO 
 Predicted change in Energy=-1.525502D-03
 Lowest energy point so far.  Saving SCF results.
 GradGradGradGradGradGradGradGradGradGradGradGradGradGradGradGradGradGrad

 Leave Link  103 at Sat May 24 07:28:39 2025, MaxMem=  3758096384 cpu:               0.1 elap:               0.0
 (Enter /apps/easybuild-2022/easybuild/software/Compiler/NVHPC/22.11-CUDA-11.7.0/Gaussian/g16c01-CUDA-11.7.0/g16/l202.exe)
                          Input orientation:                          
 ---------------------------------------------------------------------
 Center     Atomic      Atomic             Coordinates (Angstroms)
 Number     Number       Type             X           Y           Z
 ---------------------------------------------------------------------
      1          6           0        0.248632   -1.364309   -0.707951
      2          6           0        0.738736   -0.351719    0.273862
      3          9           0       -2.152129    0.673764    0.210752
      4          9           0        1.225784   -0.915929    1.397253
      5         16           0        0.221316    1.168676    0.441242
      6          8           0       -1.316014    1.509881    0.955399
      7          8           0        0.935781    1.978223    1.353644
      8          8           0       -0.006160    1.727446   -0.989434
      9          9           0       -0.206124   -0.795230   -1.830397
     10          9           0        1.250029   -2.180360   -1.039806
     11          9           0       -0.725853   -2.133243   -0.219123
     12          1           0        0.677133    1.411405   -1.599197
 ---------------------------------------------------------------------
                    Distance matrix (angstroms):
                    1          2          3          4          5
     1  C    0.000000
     2  C    1.493150   0.000000
     3  F    3.280459   3.068012   0.000000
     4  F    2.363843   1.348169   3.917296   0.000000
     5  S    2.781619   1.614726   2.435427   2.503695   0.000000
     6  O    3.670943   2.855179   1.397383   3.541261   1.656552
     7  O    3.986837   2.575536   3.541611   2.908972   1.413614
     8  O    3.114980   2.544348   2.675047   3.768473   1.552676
     9  F    1.338111   2.348907   3.179806   3.533080   3.033146
    10  F    1.333740   2.308911   4.613523   2.745657   3.803655
    11  F    1.334104   2.358365   3.177789   2.811301   3.497982
    12  H    2.946612   2.573082   3.438714   3.833565   2.104775
                    6          7          8          9         10
     6  O    0.000000
     7  O    2.334208   0.000000
     8  O    2.354873   2.537746   0.000000
     9  F    3.782334   4.374255   2.666664   0.000000
    10  F    4.917652   4.808447   4.105057   2.159630   0.000000
    11  F    3.873002   4.705186   4.002031   2.157916   2.140059
    12  H    3.241650   3.017855   0.968804   2.388061   3.679933
                   11         12
    11  F    0.000000
    12  H    4.054319   0.000000
 Symmetry turned off by external request.
 Stoichiometry    C2HF5O3S
 Rotational constants (GHZ):           1.4756924           0.8151391           0.7122410
 Leave Link  202 at Sat May 24 07:28:39 2025, MaxMem=  3758096384 cpu:               0.0 elap:               0.0
 (Enter /apps/easybuild-2022/easybuild/software/Compiler/NVHPC/22.11-CUDA-11.7.0/Gaussian/g16c01-CUDA-11.7.0/g16/l301.exe)
 Standard basis: def2TZVPP (5D, 7F)
 Ernie: Thresh=  0.10000D-02 Tol=  0.10000D-05 Strict=F.
   366 basis functions,   596 primitive gaussians,   423 cartesian basis functions
    49 alpha electrons       49 beta electrons
       nuclear repulsion energy       910.3158603643 Hartrees.
 IExCor= 4336 DFT=T Ex+Corr=M062X ExCW=0 ScaHFX=  0.540000
 ScaDFX=  1.000000  1.000000  1.000000  1.000000 ScalE2=  1.000000  1.000000
 IRadAn=      5 IRanWt=     -1 IRanGd=            0 ICorTp=0 IEmpDi=  4
 NAtoms=   12 NActive=   12 NUniq=   12 SFac= 1.00D+00 NAtFMM=   60 NAOKFM=F Big=F
 Integral buffers will be    131072 words long.
 Raffenetti 2 integral format.
 Two-electron integral symmetry is turned off.
 Leave Link  301 at Sat May 24 07:28:39 2025, MaxMem=  3758096384 cpu:               0.0 elap:               0.0
 (Enter /apps/easybuild-2022/easybuild/software/Compiler/NVHPC/22.11-CUDA-11.7.0/Gaussian/g16c01-CUDA-11.7.0/g16/l302.exe)
 NPDir=0 NMtPBC=     1 NCelOv=     1 NCel=       1 NClECP=     1 NCelD=      1
         NCelK=      1 NCelE2=     1 NClLst=     1 CellRange=     0.0.
 One-electron integrals computed using PRISM.
   1 Symmetry operations used in ECPInt.
 ECPInt:  NShTT=    8515 NPrTT=   27988 LenC2=    7960 LenP2D=   19239.
 LDataN:  DoStor=T MaxTD1= 6 Len=  172
 NBasis=   366 RedAO= T EigKep=  3.75D-04  NBF=   366
 NBsUse=   366 1.00D-06 EigRej= -1.00D+00 NBFU=   366
 Precomputing XC quadrature grid using
 IXCGrd= 4 IRadAn=           5 IRanWt=          -1 IRanGd=           0 AccXCQ= 0.00D+00.
 Generated NRdTot=       0 NPtTot=           0 NUsed=           0 NTot=          32
 NSgBfM=   419   419   419   419   419 MxSgAt=    12 MxSgA2=    12.
 Leave Link  302 at Sat May 24 07:28:39 2025, MaxMem=  3758096384 cpu:               0.6 elap:               0.1
 (Enter /apps/easybuild-2022/easybuild/software/Compiler/NVHPC/22.11-CUDA-11.7.0/Gaussian/g16c01-CUDA-11.7.0/g16/l303.exe)
 DipDrv:  MaxL=1.
 Leave Link  303 at Sat May 24 07:28:39 2025, MaxMem=  3758096384 cpu:               0.1 elap:               0.0
 (Enter /apps/easybuild-2022/easybuild/software/Compiler/NVHPC/22.11-CUDA-11.7.0/Gaussian/g16c01-CUDA-11.7.0/g16/l401.exe)
 Initial guess from the checkpoint file:  "2003846667223680600001_r13_insertion_ROR_3_2_5_6_IRC_R_prod.chk"
 B after Tr=     0.015099   -0.000617    0.003320
         Rot=    0.999973   -0.000454    0.006203    0.003868 Ang=  -0.84 deg.
 Guess basis will be translated and rotated to current coordinates.
 JPrj=2 DoOrth=T DoCkMO=T.
 Generating alternative initial guess.
 ExpMin= 9.52D-02 ExpMax= 6.07D+04 ExpMxC= 2.07D+03 IAcc=3 IRadAn=         5 AccDes= 0.00D+00
 Harris functional with IExCor= 1009 and IRadAn=       5 diagonalized for initial guess.
 HarFok:  IExCor= 1009 AccDes= 0.00D+00 IRadAn=         5 IDoV= 1 UseB2=F ITyADJ=14
 ICtDFT=  3500011 ScaDFX=  1.000000  1.000000  1.000000  1.000000
 FoFCou: FMM=F IPFlag=           0 FMFlag=      100000 FMFlg1=           0
         NFxFlg=           0 DoJE=T BraDBF=F KetDBF=T FulRan=T
         wScrn=  0.000000 ICntrl=       500 IOpCl=  0 I1Cent=   200000004 NGrid=           0
         NMat0=    1 NMatS0=      1 NMatT0=    0 NMatD0=    1 NMtDS0=    0 NMtDT0=    0
 Symmetry not used in FoFCou.
 Harris En= -1199.13174616865    
 Leave Link  401 at Sat May 24 07:28:39 2025, MaxMem=  3758096384 cpu:               3.4 elap:               0.5
 (Enter /apps/easybuild-2022/easybuild/software/Compiler/NVHPC/22.11-CUDA-11.7.0/Gaussian/g16c01-CUDA-11.7.0/g16/l502.exe)
 Keep R1 ints in memory in canonical form, NReq=2293446996.
 FoFCou: FMM=F IPFlag=           0 FMFlag=           0 FMFlg1=           0
         NFxFlg=           0 DoJE=F BraDBF=F KetDBF=F FulRan=T
         wScrn=  0.000000 ICntrl=       600 IOpCl=  0 I1Cent=           0 NGrid=           0
         NMat0=    1 NMatS0=  67161 NMatT0=    0 NMatD0=    1 NMtDS0=    0 NMtDT0=    0
 Symmetry not used in FoFCou.
 Two-electron integral symmetry not used.
 Closed shell SCF:
 Using DIIS extrapolation, IDIIS=  1040.
 NGot=  3758096384 LenX=  1502398672 LenY=  1502219302
 Requested convergence on RMS density matrix=1.00D-08 within  32 cycles.
 Requested convergence on MAX density matrix=1.00D-06.
 Requested convergence on             energy=1.00D-06.
 No special actions if energy rises.
 Integral accuracy reduced to 1.0D-05 until final iterations.

 Cycle   1  Pass 0  IDiag  1:
 E= -1199.67988153164    
 DIIS: error= 6.09D-03 at cycle   1 NSaved=   1.
 NSaved= 1 IEnMin= 1 EnMin= -1199.67988153164     IErMin= 1 ErrMin= 6.09D-03
 ErrMax= 6.09D-03  0.00D+00 EMaxC= 1.00D-01 BMatC= 2.78D-02 BMatP= 2.78D-02
 IDIUse=3 WtCom= 9.39D-01 WtEn= 6.09D-02
 Coeff-Com:  0.100D+01
 Coeff-En:   0.100D+01
 Coeff:      0.100D+01
 Gap=     0.873 Goal=   None    Shift=    0.000
 GapD=    0.873 DampG=2.000 DampE=1.000 DampFc=2.0000 IDamp=-1.
 RMSDP=4.57D-04 MaxDP=1.19D-02              OVMax= 5.03D-02

 Cycle   2  Pass 0  IDiag  1:
 E= -1199.71612898855     Delta-E=       -0.036247456917 Rises=F Damp=F
 DIIS: error= 1.52D-03 at cycle   2 NSaved=   2.
 NSaved= 2 IEnMin= 2 EnMin= -1199.71612898855     IErMin= 2 ErrMin= 1.52D-03
 ErrMax= 1.52D-03  0.00D+00 EMaxC= 1.00D-01 BMatC= 1.26D-03 BMatP= 2.78D-02
 IDIUse=3 WtCom= 9.85D-01 WtEn= 1.52D-02
 Coeff-Com: -0.122D+00 0.112D+01
 Coeff-En:   0.000D+00 0.100D+01
 Coeff:     -0.120D+00 0.112D+01
 Gap=     0.312 Goal=   None    Shift=    0.000
 RMSDP=1.34D-04 MaxDP=4.18D-03 DE=-3.62D-02 OVMax= 2.09D-02

 Cycle   3  Pass 0  IDiag  1:
 E= -1199.71821465057     Delta-E=       -0.002085662015 Rises=F Damp=F
 DIIS: error= 1.12D-03 at cycle   3 NSaved=   3.
 NSaved= 3 IEnMin= 3 EnMin= -1199.71821465057     IErMin= 3 ErrMin= 1.12D-03
 ErrMax= 1.12D-03  0.00D+00 EMaxC= 1.00D-01 BMatC= 7.08D-04 BMatP= 1.26D-03
 IDIUse=3 WtCom= 9.89D-01 WtEn= 1.12D-02
 Coeff-Com: -0.861D-01 0.524D+00 0.562D+00
 Coeff-En:   0.000D+00 0.000D+00 0.100D+01
 Coeff:     -0.851D-01 0.518D+00 0.567D+00
 Gap=     0.317 Goal=   None    Shift=    0.000
 RMSDP=4.42D-05 MaxDP=2.67D-03 DE=-2.09D-03 OVMax= 4.06D-03

 Cycle   4  Pass 0  IDiag  1:
 E= -1199.71868327387     Delta-E=       -0.000468623302 Rises=F Damp=F
 DIIS: error= 2.48D-04 at cycle   4 NSaved=   4.
 NSaved= 4 IEnMin= 4 EnMin= -1199.71868327387     IErMin= 4 ErrMin= 2.48D-04
 ErrMax= 2.48D-04  0.00D+00 EMaxC= 1.00D-01 BMatC= 5.24D-05 BMatP= 7.08D-04
 IDIUse=3 WtCom= 9.98D-01 WtEn= 2.48D-03
 Coeff-Com:  0.553D-02-0.113D+00 0.144D+00 0.963D+00
 Coeff-En:   0.000D+00 0.000D+00 0.000D+00 0.100D+01
 Coeff:      0.552D-02-0.113D+00 0.144D+00 0.964D+00
 Gap=     0.316 Goal=   None    Shift=    0.000
 RMSDP=2.15D-05 MaxDP=1.02D-03 DE=-4.69D-04 OVMax= 4.07D-03

 Cycle   5  Pass 0  IDiag  1:
 E= -1199.71874548904     Delta-E=       -0.000062215173 Rises=F Damp=F
 DIIS: error= 8.91D-05 at cycle   5 NSaved=   5.
 NSaved= 5 IEnMin= 5 EnMin= -1199.71874548904     IErMin= 5 ErrMin= 8.91D-05
 ErrMax= 8.91D-05  0.00D+00 EMaxC= 1.00D-01 BMatC= 9.73D-06 BMatP= 5.24D-05
 IDIUse=1 WtCom= 1.00D+00 WtEn= 0.00D+00
 Coeff-Com:  0.798D-02-0.882D-01 0.356D-01 0.472D+00 0.572D+00
 Coeff:      0.798D-02-0.882D-01 0.356D-01 0.472D+00 0.572D+00
 Gap=     0.316 Goal=   None    Shift=    0.000
 RMSDP=6.58D-06 MaxDP=2.91D-04 DE=-6.22D-05 OVMax= 8.60D-04

 Initial convergence to 1.0D-05 achieved.  Increase integral accuracy.
 Cycle   6  Pass 1  IDiag  1:
 E= -1199.71877254483     Delta-E=       -0.000027055790 Rises=F Damp=F
 DIIS: error= 3.25D-05 at cycle   1 NSaved=   1.
 NSaved= 1 IEnMin= 1 EnMin= -1199.71877254483     IErMin= 1 ErrMin= 3.25D-05
 ErrMax= 3.25D-05  0.00D+00 EMaxC= 1.00D-01 BMatC= 1.77D-06 BMatP= 1.77D-06
 IDIUse=1 WtCom= 1.00D+00 WtEn= 0.00D+00
 Coeff-Com:  0.100D+01
 Coeff:      0.100D+01
 Gap=     0.316 Goal=   None    Shift=    0.000
 RMSDP=6.58D-06 MaxDP=2.91D-04 DE=-2.71D-05 OVMax= 5.89D-04

 Cycle   7  Pass 1  IDiag  1:
 E= -1199.71877279957     Delta-E=       -0.000000254736 Rises=F Damp=F
 DIIS: error= 4.82D-05 at cycle   2 NSaved=   2.
 NSaved= 2 IEnMin= 2 EnMin= -1199.71877279957     IErMin= 1 ErrMin= 3.25D-05
 ErrMax= 4.82D-05  0.00D+00 EMaxC= 1.00D-01 BMatC= 2.41D-06 BMatP= 1.77D-06
 IDIUse=1 WtCom= 1.00D+00 WtEn= 0.00D+00
 Coeff-Com:  0.546D+00 0.454D+00
 Coeff:      0.546D+00 0.454D+00
 Gap=     0.316 Goal=   None    Shift=    0.000
 RMSDP=2.60D-06 MaxDP=1.30D-04 DE=-2.55D-07 OVMax= 2.73D-04

 Cycle   8  Pass 1  IDiag  1:
 E= -1199.71877435985     Delta-E=       -0.000001560283 Rises=F Damp=F
 DIIS: error= 1.13D-05 at cycle   3 NSaved=   3.
 NSaved= 3 IEnMin= 3 EnMin= -1199.71877435985     IErMin= 3 ErrMin= 1.13D-05
 ErrMax= 1.13D-05  0.00D+00 EMaxC= 1.00D-01 BMatC= 1.04D-07 BMatP= 1.77D-06
 IDIUse=1 WtCom= 1.00D+00 WtEn= 0.00D+00
 Coeff-Com: -0.605D-01 0.129D+00 0.931D+00
 Coeff:     -0.605D-01 0.129D+00 0.931D+00
 Gap=     0.316 Goal=   None    Shift=    0.000
 RMSDP=1.08D-06 MaxDP=6.31D-05 DE=-1.56D-06 OVMax= 1.61D-04

 Cycle   9  Pass 1  IDiag  1:
 E= -1199.71877447733     Delta-E=       -0.000000117478 Rises=F Damp=F
 DIIS: error= 4.95D-06 at cycle   4 NSaved=   4.
 NSaved= 4 IEnMin= 4 EnMin= -1199.71877447733     IErMin= 4 ErrMin= 4.95D-06
 ErrMax= 4.95D-06  0.00D+00 EMaxC= 1.00D-01 BMatC= 1.79D-08 BMatP= 1.04D-07
 IDIUse=1 WtCom= 1.00D+00 WtEn= 0.00D+00
 Coeff-Com: -0.600D-01 0.318D-01 0.428D+00 0.600D+00
 Coeff:     -0.600D-01 0.318D-01 0.428D+00 0.600D+00
 Gap=     0.316 Goal=   None    Shift=    0.000
 RMSDP=2.95D-07 MaxDP=1.86D-05 DE=-1.17D-07 OVMax= 4.56D-05

 Cycle  10  Pass 1  IDiag  1:
 E= -1199.71877449385     Delta-E=       -0.000000016523 Rises=F Damp=F
 DIIS: error= 1.74D-06 at cycle   5 NSaved=   5.
 NSaved= 5 IEnMin= 5 EnMin= -1199.71877449385     IErMin= 5 ErrMin= 1.74D-06
 ErrMax= 1.74D-06  0.00D+00 EMaxC= 1.00D-01 BMatC= 2.33D-09 BMatP= 1.79D-08
 IDIUse=1 WtCom= 1.00D+00 WtEn= 0.00D+00
 Coeff-Com: -0.324D-02-0.270D-01-0.119D+00 0.182D+00 0.968D+00
 Coeff:     -0.324D-02-0.270D-01-0.119D+00 0.182D+00 0.968D+00
 Gap=     0.316 Goal=   None    Shift=    0.000
 RMSDP=2.42D-07 MaxDP=1.49D-05 DE=-1.65D-08 OVMax= 4.53D-05

 Cycle  11  Pass 1  IDiag  1:
 E= -1199.71877449822     Delta-E=       -0.000000004372 Rises=F Damp=F
 DIIS: error= 7.83D-07 at cycle   6 NSaved=   6.
 NSaved= 6 IEnMin= 6 EnMin= -1199.71877449822     IErMin= 6 ErrMin= 7.83D-07
 ErrMax= 7.83D-07  0.00D+00 EMaxC= 1.00D-01 BMatC= 7.74D-10 BMatP= 2.33D-09
 IDIUse=1 WtCom= 1.00D+00 WtEn= 0.00D+00
 Coeff-Com:  0.567D-02-0.193D-01-0.120D+00 0.215D-01 0.534D+00 0.578D+00
 Coeff:      0.567D-02-0.193D-01-0.120D+00 0.215D-01 0.534D+00 0.578D+00
 Gap=     0.316 Goal=   None    Shift=    0.000
 RMSDP=6.82D-08 MaxDP=3.60D-06 DE=-4.37D-09 OVMax= 1.16D-05

 Cycle  12  Pass 1  IDiag  1:
 E= -1199.71877449894     Delta-E=       -0.000000000719 Rises=F Damp=F
 DIIS: error= 2.49D-07 at cycle   7 NSaved=   7.
 NSaved= 7 IEnMin= 7 EnMin= -1199.71877449894     IErMin= 7 ErrMin= 2.49D-07
 ErrMax= 2.49D-07  0.00D+00 EMaxC= 1.00D-01 BMatC= 5.36D-11 BMatP= 7.74D-10
 IDIUse=1 WtCom= 1.00D+00 WtEn= 0.00D+00
 Coeff-Com:  0.210D-02-0.264D-02-0.224D-01-0.172D-01 0.449D-01 0.209D+00
 Coeff-Com:  0.787D+00
 Coeff:      0.210D-02-0.264D-02-0.224D-01-0.172D-01 0.449D-01 0.209D+00
 Coeff:      0.787D+00
 Gap=     0.316 Goal=   None    Shift=    0.000
 RMSDP=2.56D-08 MaxDP=1.36D-06 DE=-7.19D-10 OVMax= 4.75D-06

 Cycle  13  Pass 1  IDiag  1:
 E= -1199.71877449899     Delta-E=       -0.000000000050 Rises=F Damp=F
 DIIS: error= 9.44D-08 at cycle   8 NSaved=   8.
 NSaved= 8 IEnMin= 8 EnMin= -1199.71877449899     IErMin= 8 ErrMin= 9.44D-08
 ErrMax= 9.44D-08  0.00D+00 EMaxC= 1.00D-01 BMatC= 7.13D-12 BMatP= 5.36D-11
 IDIUse=1 WtCom= 1.00D+00 WtEn= 0.00D+00
 Coeff-Com: -0.606D-03 0.313D-02 0.175D-01-0.676D-02-0.903D-01-0.611D-01
 Coeff-Com:  0.171D+00 0.967D+00
 Coeff:     -0.606D-03 0.313D-02 0.175D-01-0.676D-02-0.903D-01-0.611D-01
 Coeff:      0.171D+00 0.967D+00
 Gap=     0.316 Goal=   None    Shift=    0.000
 RMSDP=1.40D-08 MaxDP=6.23D-07 DE=-5.05D-11 OVMax= 2.90D-06

 Cycle  14  Pass 1  IDiag  1:
 E= -1199.71877449903     Delta-E=       -0.000000000033 Rises=F Damp=F
 DIIS: error= 4.24D-08 at cycle   9 NSaved=   9.
 NSaved= 9 IEnMin= 9 EnMin= -1199.71877449903     IErMin= 9 ErrMin= 4.24D-08
 ErrMax= 4.24D-08  0.00D+00 EMaxC= 1.00D-01 BMatC= 1.94D-12 BMatP= 7.13D-12
 IDIUse=1 WtCom= 1.00D+00 WtEn= 0.00D+00
 Coeff-Com: -0.599D-03 0.185D-02 0.115D-01-0.695D-03-0.486D-01-0.604D-01
 Coeff-Com: -0.435D-01 0.428D+00 0.712D+00
 Coeff:     -0.599D-03 0.185D-02 0.115D-01-0.695D-03-0.486D-01-0.604D-01
 Coeff:     -0.435D-01 0.428D+00 0.712D+00
 Gap=     0.316 Goal=   None    Shift=    0.000
 RMSDP=4.68D-09 MaxDP=2.42D-07 DE=-3.27D-11 OVMax= 9.97D-07

 SCF Done:  E(RM062X) =  -1199.71877450     A.U. after   14 cycles
            NFock= 14  Conv=0.47D-08     -V/T= 2.0028
 KE= 1.196326151942D+03 PE=-4.666649738386D+03 EE= 1.360288951581D+03
 Leave Link  502 at Sat May 24 07:29:14 2025, MaxMem=  3758096384 cpu:             132.5 elap:              34.2
 (Enter /apps/easybuild-2022/easybuild/software/Compiler/NVHPC/22.11-CUDA-11.7.0/Gaussian/g16c01-CUDA-11.7.0/g16/l508.exe)
 QCSCF skips out because SCF is already converged.
 Leave Link  508 at Sat May 24 07:29:14 2025, MaxMem=  3758096384 cpu:               0.0 elap:               0.0
 (Enter /apps/easybuild-2022/easybuild/software/Compiler/NVHPC/22.11-CUDA-11.7.0/Gaussian/g16c01-CUDA-11.7.0/g16/l701.exe)
 ... and contract with generalized density number  0.
 Compute integral first derivatives.
   1 Symmetry operations used in ECPInt.
 ECPInt:  NShTT=    8515 NPrTT=   27988 LenC2=    7960 LenP2D=   19239.
 LDataN:  DoStor=T MaxTD1= 7 Len=  274
 Leave Link  701 at Sat May 24 07:29:14 2025, MaxMem=  3758096384 cpu:               0.4 elap:               0.1
 (Enter /apps/easybuild-2022/easybuild/software/Compiler/NVHPC/22.11-CUDA-11.7.0/Gaussian/g16c01-CUDA-11.7.0/g16/l702.exe)
 L702 exits ... SP integral derivatives will be done elsewhere.
 Leave Link  702 at Sat May 24 07:29:14 2025, MaxMem=  3758096384 cpu:               0.0 elap:               0.0
 (Enter /apps/easybuild-2022/easybuild/software/Compiler/NVHPC/22.11-CUDA-11.7.0/Gaussian/g16c01-CUDA-11.7.0/g16/l703.exe)
 Integral derivatives from FoFJK, PRISM(SPDF).
 Compute integral first derivatives, UseDBF=F ICtDFT=           0.
 Calling FoFJK, ICntrl=      2127 FMM=F ISym2X=0 I1Cent= 0 IOpClX= 0 NMat=1 NMatS=1 NMatT=0.
 FoFJK:  IHMeth= 1 ICntrl=    2127 DoSepK=F KAlg= 0 I1Cent=           0 FoldK=F
 IRaf=         0 NMat=       1 IRICut=       1 DoRegI=T DoRafI=F ISym2E= 0 IDoP0=0 IntGTp=1.
 FoFCou: FMM=F IPFlag=           0 FMFlag=      100000 FMFlg1=         800
         NFxFlg=           0 DoJE=F BraDBF=F KetDBF=F FulRan=T
         wScrn=  0.000000 ICntrl=      2127 IOpCl=  0 I1Cent=           0 NGrid=           0
         NMat0=    1 NMatS0=      1 NMatT0=    0 NMatD0=    1 NMtDS0=    0 NMtDT0=    0
 Symmetry not used in FoFCou.
 Leave Link  703 at Sat May 24 07:29:23 2025, MaxMem=  3758096384 cpu:              76.5 elap:               9.7
 (Enter /apps/easybuild-2022/easybuild/software/Compiler/NVHPC/22.11-CUDA-11.7.0/Gaussian/g16c01-CUDA-11.7.0/g16/l716.exe)
 Dipole        = 1.94370873D-01 4.26363140D-01-9.54920963D-01
 -------------------------------------------------------------------
 Center     Atomic                   Forces (Hartrees/Bohr)
 Number     Number              X              Y              Z
 -------------------------------------------------------------------
      1        6           0.000092820   -0.000449447    0.000116445
      2        6           0.000523290    0.000268410    0.000034339
      3        9          -0.000506253    0.000292315    0.000413154
      4        9           0.000544857    0.000298869    0.000225534
      5       16          -0.000096477   -0.000258443    0.000717227
      6        8          -0.000515807   -0.000482154   -0.000380427
      7        8           0.000126027    0.000142012    0.000029093
      8        8           0.000304194   -0.000219839   -0.000402123
      9        9          -0.000117325    0.000207236   -0.000305121
     10        9          -0.000145374    0.000043924   -0.000116427
     11        9          -0.000387609    0.000274593   -0.000258919
     12        1           0.000177655   -0.000117475   -0.000072775
 -------------------------------------------------------------------
 Cartesian Forces:  Max     0.000717227 RMS     0.000317268
 Leave Link  716 at Sat May 24 07:29:23 2025, MaxMem=  3758096384 cpu:               0.0 elap:               0.0
 (Enter /apps/easybuild-2022/easybuild/software/Compiler/NVHPC/22.11-CUDA-11.7.0/Gaussian/g16c01-CUDA-11.7.0/g16/l103.exe)

 GradGradGradGradGradGradGradGradGradGradGradGradGradGradGradGradGradGrad
 Berny optimization.
 Using GEDIIS/GDIIS optimizer.
 FormGI is forming the generalized inverse of G from B-inverse, IUseBI=4.
 Internal  Forces:  Max     0.001867799 RMS     0.000531381
 Search for a local minimum.
 Step number   2 out of a maximum of   56
 All quantities printed in internal units (Hartrees-Bohrs-Radians)
 RMS Force = .53138D-03 SwitMx=.10000D-02 MixMth= 2
 Mixed Optimization -- En-DIIS/RFO-DIIS
 Update second derivatives using D2CorX and points    1    2
 DE= -1.28D-03 DEPred=-1.53D-03 R= 8.41D-01
 TightC=F SS=  1.41D+00  RLast= 6.42D-01 DXNew= 5.0454D-01 1.9253D+00
 Trust test= 8.41D-01 RLast= 6.42D-01 DXMaxT set to 5.05D-01
 ITU=  1  0
 Use linear search instead of GDIIS.
     Eigenvalues ---    0.00133   0.00333   0.00640   0.01211   0.01230
     Eigenvalues ---    0.09179   0.09773   0.12920   0.13330   0.13373
     Eigenvalues ---    0.13694   0.16496   0.18311   0.19069   0.22044
     Eigenvalues ---    0.23871   0.25951   0.26661   0.28917   0.32232
     Eigenvalues ---    0.39385   0.40344   0.41464   0.42179   0.44554
     Eigenvalues ---    0.47437   0.51873   0.54418   0.57648   0.77045
 RFO step:  Lambda=-1.20951080D-04 EMin= 1.33475979D-03
 Quartic linear search produced a step of  0.08334.
 Iteration  1 RMS(Cart)=  0.04633290 RMS(Int)=  0.00137534
 Iteration  2 RMS(Cart)=  0.00158754 RMS(Int)=  0.00009132
 Iteration  3 RMS(Cart)=  0.00000155 RMS(Int)=  0.00009131
 Iteration  4 RMS(Cart)=  0.00000000 RMS(Int)=  0.00009131
 ITry= 1 IFail=0 DXMaxC= 1.41D-01 DCOld= 1.00D+10 DXMaxT= 5.05D-01 DXLimC= 3.00D+00 Rises=F
 Variable       Old X    -DE/DX   Delta X   Delta X   Delta X     New X
                                 (Linear)    (Quad)   (Total)
    R1        2.82164   0.00050  -0.00029   0.00308   0.00279   2.82443
    R2        2.52866   0.00038   0.00029   0.00236   0.00265   2.53131
    R3        2.52040  -0.00011  -0.00054  -0.00283  -0.00338   2.51703
    R4        2.52109   0.00003   0.00036   0.00098   0.00134   2.52243
    R5        2.54767   0.00026  -0.00001   0.00084   0.00083   2.54850
    R6        3.05139  -0.00041   0.00072   0.00452   0.00523   3.05662
    R7        2.64067  -0.00009   0.00002  -0.00110  -0.00108   2.63959
    R8        3.13043   0.00092  -0.00013   0.00224   0.00211   3.13254
    R9        2.67134   0.00016  -0.00001  -0.00021  -0.00022   2.67112
   R10        2.93413   0.00025  -0.00023   0.00027   0.00004   2.93417
   R11        1.83077   0.00021   0.00006   0.00037   0.00043   1.83121
    A1        1.95488  -0.00031  -0.00054  -0.00213  -0.00267   1.95221
    A2        1.90932   0.00035  -0.00107  -0.00308  -0.00415   1.90517
    A3        1.97110   0.00018   0.00139   0.00638   0.00778   1.97888
    A4        1.88248  -0.00009   0.00076   0.00130   0.00204   1.88452
    A5        1.87993  -0.00025  -0.00046  -0.00418  -0.00463   1.87530
    A6        1.86183   0.00011  -0.00007   0.00174   0.00168   1.86351
    A7        1.96350   0.00126  -0.00095   0.00025  -0.00108   1.96242
    A8        2.21620  -0.00166  -0.00003  -0.01351  -0.01387   2.20233
    A9        2.00804   0.00028  -0.00049  -0.00337  -0.00422   2.00382
   A10        2.12174   0.00026   0.00241   0.00219   0.00461   2.12635
   A11        2.03105   0.00028  -0.00177   0.00074  -0.00106   2.02999
   A12        1.86532  -0.00107   0.00008  -0.00449  -0.00442   1.86090
   A13        1.72213  -0.00019  -0.00039   0.00206   0.00169   1.72381
   A14        1.64677   0.00073  -0.00116   0.00509   0.00394   1.65071
   A15        2.05181   0.00019   0.00127  -0.00452  -0.00327   2.04854
   A16        1.84070   0.00187  -0.00033   0.00530   0.00498   1.84568
   A17        1.93822  -0.00016   0.00020  -0.00250  -0.00230   1.93592
    D1       -3.11839   0.00002   0.01682   0.04650   0.06333  -3.05506
    D2        0.50617   0.00011   0.02069   0.08628   0.10695   0.61311
    D3       -1.03211  -0.00005   0.01670   0.04473   0.06146  -0.97065
    D4        2.59245   0.00003   0.02058   0.08451   0.10508   2.69752
    D5        1.03855   0.00044   0.01680   0.04887   0.06568   1.10423
    D6       -1.62008   0.00052   0.02067   0.08865   0.10930  -1.51078
    D7        1.15371  -0.00000  -0.00608  -0.03208  -0.03812   1.11559
    D8       -3.03267   0.00024  -0.00616  -0.02621  -0.03234  -3.06502
    D9       -0.70033  -0.00028  -0.00585  -0.03638  -0.04219  -0.74252
   D10       -1.49451  -0.00013  -0.00203   0.00781   0.00574  -1.48877
   D11        0.60230   0.00012  -0.00211   0.01367   0.01151   0.61381
   D12        2.93464  -0.00041  -0.00180   0.00350   0.00167   2.93631
   D13       -0.80954   0.00040  -0.01253   0.02614   0.01361  -0.79593
   D14       -3.05039   0.00001  -0.01142   0.02177   0.01035  -3.04005
   D15        1.16021  -0.00031  -0.01240   0.02496   0.01255   1.17276
   D16       -0.66516   0.00026   0.00833   0.02347   0.03180  -0.63337
   D17       -2.84456  -0.00001   0.00618   0.02030   0.02647  -2.81809
   D18        1.65597  -0.00023   0.00700   0.01600   0.02301   1.67898
         Item               Value     Threshold  Converged?
 Maximum Force            0.001868     0.000450     NO 
 RMS     Force            0.000531     0.000300     NO 
 Maximum Displacement     0.141205     0.001800     NO 
 RMS     Displacement     0.046413     0.001200     NO 
 Predicted change in Energy=-8.618365D-05
 Lowest energy point so far.  Saving SCF results.
 GradGradGradGradGradGradGradGradGradGradGradGradGradGradGradGradGradGrad

 Leave Link  103 at Sat May 24 07:29:24 2025, MaxMem=  3758096384 cpu:               0.0 elap:               0.0
 (Enter /apps/easybuild-2022/easybuild/software/Compiler/NVHPC/22.11-CUDA-11.7.0/Gaussian/g16c01-CUDA-11.7.0/g16/l202.exe)
                          Input orientation:                          
 ---------------------------------------------------------------------
 Center     Atomic      Atomic             Coordinates (Angstroms)
 Number     Number       Type             X           Y           Z
 ---------------------------------------------------------------------
      1          6           0        0.249280   -1.355828   -0.710129
      2          6           0        0.767371   -0.341606    0.257779
[...]
    D7        1.13273   0.00000   0.00000   0.00034   0.00034   1.13306
    D8       -3.04894   0.00000   0.00000   0.00029   0.00029  -3.04864
    D9       -0.72357   0.00000   0.00000   0.00034   0.00034  -0.72323
   D10       -1.49461  -0.00000   0.00000   0.00005   0.00005  -1.49456
   D11        0.60691  -0.00000   0.00000   0.00001   0.00001   0.60692
   D12        2.93228  -0.00000   0.00000   0.00005   0.00005   2.93233
   D13       -0.81291   0.00000   0.00000  -0.00012  -0.00012  -0.81303
   D14       -3.05684  -0.00000   0.00000  -0.00010  -0.00010  -3.05694
   D15        1.15379  -0.00001   0.00000  -0.00014  -0.00014   1.15365
   D16       -0.63565   0.00000   0.00000  -0.00005  -0.00005  -0.63570
   D17       -2.82165  -0.00001   0.00000  -0.00008  -0.00008  -2.82173
   D18        1.67820   0.00000   0.00000  -0.00003  -0.00003   1.67817
         Item               Value     Threshold  Converged?
 Maximum Force            0.000016     0.000450     YES
 RMS     Force            0.000005     0.000300     YES
 Maximum Displacement     0.001212     0.001800     YES
 RMS     Displacement     0.000336     0.001200     YES
 Predicted change in Energy=-5.360416D-09
 Optimization completed.
    -- Stationary point found.
                           ----------------------------
                           !   Optimized Parameters   !
                           ! (Angstroms and Degrees)  !
 --------------------------                            --------------------------
 ! Name  Definition              Value          Derivative Info.                !
 --------------------------------------------------------------------------------
 ! R1    R(1,2)                  1.495          -DE/DX =    0.0                 !
 ! R2    R(1,9)                  1.3399         -DE/DX =    0.0                 !
 ! R3    R(1,10)                 1.3322         -DE/DX =    0.0                 !
 ! R4    R(1,11)                 1.3345         -DE/DX =    0.0                 !
 ! R5    R(2,4)                  1.3482         -DE/DX =    0.0                 !
 ! R6    R(2,5)                  1.6168         -DE/DX =    0.0                 !
 ! R7    R(3,6)                  1.3966         -DE/DX =    0.0                 !
 ! R8    R(5,6)                  1.6575         -DE/DX =    0.0                 !
 ! R9    R(5,7)                  1.4136         -DE/DX =    0.0                 !
 ! R10   R(5,8)                  1.5529         -DE/DX =    0.0                 !
 ! R11   R(8,12)                 0.9691         -DE/DX =    0.0                 !
 ! A1    A(2,1,9)              111.8069         -DE/DX =    0.0                 !
 ! A2    A(2,1,10)             109.2765         -DE/DX =    0.0                 !
 ! A3    A(2,1,11)             113.3545         -DE/DX =    0.0                 !
 ! A4    A(9,1,10)             107.8973         -DE/DX =    0.0                 !
 ! A5    A(9,1,11)             107.4409         -DE/DX =    0.0                 !
 ! A6    A(10,1,11)            106.8085         -DE/DX =    0.0                 !
 ! A7    A(1,2,4)              112.7707         -DE/DX =    0.0                 !
 ! A8    A(1,2,5)              126.2264         -DE/DX =    0.0                 !
 ! A9    A(4,2,5)              114.9823         -DE/DX =    0.0                 !
 ! A10   A(2,5,6)              121.9525         -DE/DX =    0.0                 !
 ! A11   A(2,5,7)              116.3258         -DE/DX =    0.0                 !
 ! A12   A(2,5,8)              106.5417         -DE/DX =    0.0                 !
 ! A13   A(6,5,7)               98.6404         -DE/DX =    0.0                 !
 ! A14   A(6,5,8)               94.4966         -DE/DX =    0.0                 !
 ! A15   A(7,5,8)              117.5333         -DE/DX =    0.0                 !
 ! A16   A(3,6,5)              105.8564         -DE/DX =    0.0                 !
 ! A17   A(5,8,12)             110.9359         -DE/DX =    0.0                 !
 ! D1    D(9,1,2,4)           -175.4714         -DE/DX =    0.0                 !
 ! D2    D(9,1,2,5)             33.4462         -DE/DX =    0.0                 !
 ! D3    D(10,1,2,4)           -56.0921         -DE/DX =    0.0                 !
 ! D4    D(10,1,2,5)           152.8255         -DE/DX =    0.0                 !
 ! D5    D(11,1,2,4)            62.9008         -DE/DX =    0.0                 !
 ! D6    D(11,1,2,5)           -88.1815         -DE/DX =    0.0                 !
 ! D7    D(1,2,5,6)             64.9005         -DE/DX =    0.0                 !
 ! D8    D(1,2,5,7)           -174.6912         -DE/DX =    0.0                 !
 ! D9    D(1,2,5,8)            -41.4573         -DE/DX =    0.0                 !
 ! D10   D(4,2,5,6)            -85.6349         -DE/DX =    0.0                 !
 ! D11   D(4,2,5,7)             34.7734         -DE/DX =    0.0                 !
 ! D12   D(4,2,5,8)            168.0073         -DE/DX =    0.0                 !
 ! D13   D(2,5,6,3)            -46.576          -DE/DX =    0.0                 !
 ! D14   D(7,5,6,3)           -175.1442         -DE/DX =    0.0                 !
 ! D15   D(8,5,6,3)             66.1074         -DE/DX =    0.0                 !
 ! D16   D(2,5,8,12)           -36.42           -DE/DX =    0.0                 !
 ! D17   D(6,5,8,12)          -161.6687         -DE/DX =    0.0                 !
 ! D18   D(7,5,8,12)            96.1538         -DE/DX =    0.0                 !
 --------------------------------------------------------------------------------
 GradGradGradGradGradGradGradGradGradGradGradGradGradGradGradGradGradGrad

 Leave Link  103 at Sat May 24 07:35:34 2025, MaxMem=  3758096384 cpu:               0.0 elap:               0.0
 (Enter /apps/easybuild-2022/easybuild/software/Compiler/NVHPC/22.11-CUDA-11.7.0/Gaussian/g16c01-CUDA-11.7.0/g16/l9999.exe)

 ----------------------------------------------------------------------

 Electric dipole moment (input orientation):
 (Debye = 10**-18 statcoulomb cm , SI units = C m)
                  (au)            (Debye)         (10**-30 SI)
   Tot        0.104302D+01      0.265108D+01      0.884306D+01
   x          0.184962D+00      0.470127D+00      0.156817D+01
   y          0.403242D+00      0.102494D+01      0.341882D+01
   z         -0.943964D+00     -0.239932D+01     -0.800326D+01

 Dipole polarizability, Alpha (input orientation).
 (esu units = cm**3 , SI units = C**2 m**2 J**-1)
 Alpha(0;0):
               (au)            (10**-24 esu)      (10**-40 SI)
   iso        0.592589D+02      0.878126D+01      0.977047D+01
   aniso      0.161598D+02      0.239464D+01      0.266439D+01
   xx         0.585182D+02      0.867150D+01      0.964834D+01
   yx        -0.371812D+01     -0.550969D+00     -0.613036D+00
   yy         0.653311D+02      0.968107D+01      0.107716D+02
   zx         0.177434D+01      0.262930D+00      0.292550D+00
   zy         0.609520D+01      0.903215D+00      0.100496D+01
   zz         0.539274D+02      0.799122D+01      0.889143D+01

 ----------------------------------------------------------------------

 Dipole orientation:
     6          0.32256611          2.89960070          0.30704115
     6          1.52622554          0.45974369         -0.45411199
     9         -3.98209273         -1.45625005         -0.62490764
     9          2.86881019          0.65309867         -2.61081039
    16          0.47707442         -2.34194448          0.16594278
     8         -2.23125029         -3.39436288         -1.00395079
     8          2.04513170         -4.38071289         -0.55558983
     8         -0.47865270         -2.28127723          2.93988509
     9         -0.84713057          2.71349979          2.54505867
     9          2.09645908          4.67482852          0.50645560
     9         -1.36904860          3.74329225         -1.36206974
     1          0.59084495         -1.21647553          3.97738032

 Electric dipole moment (dipole orientation):
 (Debye = 10**-18 statcoulomb cm , SI units = C m)
                  (au)            (Debye)         (10**-30 SI)
   Tot        0.104302D+01      0.265108D+01      0.884306D+01
   x          0.000000D+00      0.000000D+00      0.000000D+00
   y          0.000000D+00      0.000000D+00      0.000000D+00
   z          0.104302D+01      0.265108D+01      0.884306D+01

 Dipole polarizability, Alpha (dipole orientation).
 (esu units = cm**3 , SI units = C**2 m**2 J**-1)
 Alpha(0;0):
               (au)            (10**-24 esu)      (10**-40 SI)
   iso        0.592589D+02      0.878126D+01      0.977047D+01
   aniso      0.161598D+02      0.239464D+01      0.266439D+01
   xx         0.591869D+02      0.877060D+01      0.975861D+01
   yx         0.234073D+01      0.346861D+00      0.385935D+00
   yy         0.681582D+02      0.101000D+02      0.112378D+02
   zx        -0.165514D+01     -0.245267D+00     -0.272896D+00
   zy         0.515386D+00      0.763723D-01      0.849757D-01
   zz         0.504316D+02      0.747319D+01      0.831504D+01

 ----------------------------------------------------------------------
 Unable to Open any file for archive entry.
 1\1\GINC-SPARTAN-BM202\Freq\RM062X\def2TZVPP\C2H1F5O3S1\AKHALILOV\24-M
 ay-2025\0\\#P Geom=AllCheck Guess=TCheck SCRF=Check GenChk RM062X/def2
 TZVPP Freq\\Gaussian input prepared by ASE\\0,1\C,0.2519107815,-1.3573
 407341,-0.7099962046\C,0.7604527576,-0.3461685077,0.266650136\F,-2.158
 8228405,0.6581411043,0.2235268729\F,1.2604854531,-0.9072580816,1.38597
 39783\S,0.2192610656,1.1669323398,0.4444239746\O,-1.3200909797,1.49238
 72603,0.9658705143\O,0.9288074004,1.9836765391,1.3542335781\O,-0.01667
 43085,1.7230578165,-0.9861782708\F,-0.1503745653,-0.7864444558,-1.8535
 257208\F,1.2276400841,-2.2160302328,-1.0022227744\F,-0.7690398654,-2.0
 780346024,-0.2419711719\H,0.6575750171,1.3956875545,-1.6005389117\\Ver
 sion=ES64L-G16RevC.01\HF=-1199.7188457\RMSD=3.583e-09\RMSF=5.314e-06\Z
 eroPoint=0.0506404\Thermal=0.0614234\ETot=-1199.6574223\HTot=-1199.656
 4781\GTot=-1199.7057182\Dipole=0.184962,0.4032415,-0.9439636\DipoleDer
 iv=1.5113748,0.2119739,-0.0488936,-0.1292181,2.0808402,0.1066141,-0.21
 38711,0.410612,1.5770428,-0.1746636,-0.270559,0.2750026,-0.0643382,-0.
 3105166,-0.3934033,0.5322125,-0.7325919,0.0584467,-0.3622342,-0.113615
 6,-0.0620161,-0.254556,-0.1130437,-0.080588,-0.2058311,-0.0918619,-0.1
 180691,-0.2061845,0.1679652,-0.1997299,0.1943674,-0.4551315,0.1978267,
 -0.3981437,0.4280131,-0.5382705,2.1056841,-0.290523,0.0444583,-0.44879
 47,2.3207495,0.3224841,-0.1833185,0.1433431,2.0486007,-0.6128665,0.394
 9297,0.242437,0.5952626,-0.4471873,-0.0430267,0.4368375,-0.0431694,-0.
 1829157,-0.6839162,-0.107859,-0.1523044,-0.1116223,-0.8375256,-0.27428
 22,-0.1218952,-0.3461828,-0.696785,-0.3945558,0.0622469,-0.0237278,0.0
 271654,-0.5973516,0.2154842,0.0319769,0.3835225,-1.1299759,-0.3029934,
 0.0094998,-0.1801355,0.0364075,-0.461381,0.1132143,-0.1275326,0.133797
 5,-0.7640638,-0.5775906,0.2792383,0.089224,0.349182,-0.772971,-0.17505
 ,0.1517775,-0.2232478,-0.3403496,-0.5812338,-0.4287586,0.1095968,-0.24
 36316,-0.7448602,0.0193453,0.1255632,0.0063043,-0.3651998,0.2791797,0.
 0854615,-0.0939115,0.0497759,0.3383786,-0.0086186,-0.0277754,-0.068538
 7,0.4515392\Polar=58.518175,-3.7181223,65.3310797,1.7743427,6.0951997,
 53.9274394\PG=Unknown\NImag=0\\0.53782297,0.00326698,0.57158512,0.0225
 7794,0.02620274,0.57960466,-0.06541962,-0.03228920,-0.03740501,0.18387
 069,-0.03545087,-0.12232707,-0.04492602,-0.07279497,0.64265817,-0.0402
 4775,-0.08323113,-0.12539174,0.17465378,0.01549227,0.48906409,-0.00142
 260,0.00007975,-0.00063570,0.00308060,0.00158930,0.00117141,0.18988088
 ,-0.00396044,-0.00181149,-0.00117755,0.00167063,0.00268962,0.00367571,
 0.13200851,0.13438951,-0.00258892,-0.00044061,-0.00119131,0.00215729,0
 .00236032,0.00179684,0.11025023,0.11314439,0.11060806,-0.01038555,0.01
 265435,-0.01858941,-0.06269554,0.04403186,-0.10634561,0.00091475,0.000
 14121,0.00006235,0.08193008,-0.00276436,0.00100511,-0.00906667,0.05653
 302,-0.11346799,0.10933152,-0.00031498,0.00031590,0.00014907,-0.072694
 28,0.12886014,-0.01521945,0.02930163,-0.03368698,-0.10706132,0.1060490
 4,-0.26084707,0.00107387,-0.00072881,-0.00012932,0.13908513,-0.1320535
 4,0.30844051,0.01233422,0.00090228,0.02591812,-0.04235766,0.07130392,-
 0.02197186,-0.03333253,-0.00566360,-0.00160105,-0.01604595,0.01139410,
 -0.00394700,0.56148158,-0.00337429,-0.04352577,-0.04279410,0.05687256,
 -0.32718618,0.00401911,-0.03756440,-0.01114083,-0.00497640,0.01409813,
 -0.01166650,-0.01095983,0.05748799,0.84045468,0.01690136,-0.02217063,0
 .01742235,-0.01236483,-0.04587585,-0.06121734,-0.03743839,-0.00957315,
 -0.01175471,-0.02081882,0.04245616,-0.02721024,0.21702627,0.21086549,0
 .82786124,-0.00923852,-0.00997904,-0.00616882,0.00403843,-0.00813530,0
 .01208389,-0.14611717,-0.12554401,-0.11014912,-0.00445388,0.00440328,-
 0.01003739,-0.14686551,0.04716516,0.06665565,0.32188333,0.01310267,0.0
 1328420,0.01002900,0.00356899,0.00283304,-0.02252386,-0.09800931,-0.13
 122169,-0.11291084,0.00470357,-0.00382265,0.01172449,0.04434382,-0.064
 11648,-0.02445404,0.08272342,0.18659666,0.00541656,0.00576637,0.002588
 91,-0.00209110,-0.00042370,-0.00170630,-0.08039629,-0.10920458,-0.1110
 9814,0.00459135,-0.00349118,0.00538010,0.03003901,-0.01832933,-0.06119
 870,0.03604190,0.13936194,0.20173150,0.00113254,0.00170810,-0.00507970
 ,0.00186823,0.01173258,0.00423372,-0.01559575,-0.00295511,-0.00248258,
 -0.00071425,-0.00065291,0.00410730,-0.24036356,-0.17329054,-0.20123219
 ,-0.01464078,-0.03147049,-0.02508552,0.25583774,0.00654204,0.00562915,
 0.01340281,-0.01704928,-0.01332624,-0.03480168,0.00104006,0.00498776,-
 0.00000443,-0.00056281,0.00066344,0.00317570,-0.19120999,-0.30100367,-
 0.24763291,0.00048589,-0.00050339,-0.00390760,0.20078946,0.29777806,-0
 .00167061,0.00596251,0.00658406,-0.00394807,-0.00869143,-0.01551499,0.
 00392611,0.00102248,0.00614903,0.00338569,-0.00268484,0.00980376,-0.21
 382928,-0.23337191,-0.33982456,-0.00115800,-0.00317846,0.00067769,0.22
 870246,0.26441362,0.34489414,-0.00367029,-0.00102321,-0.00525388,-0.00
 766531,0.00937579,-0.00430545,0.00034975,0.00040342,0.00272282,0.00677
 554,0.00472417,-0.00474403,-0.07809159,0.02455590,-0.02649299,-0.01146
 253,-0.01180508,0.03453471,0.01142839,0.00405981,-0.00873356,0.3330827
 4,0.00008925,0.00608331,0.00036601,0.00824035,0.00309920,0.02863878,-0
 .00032007,0.00035520,0.00215954,0.00131245,-0.01043660,0.00410098,0.03
 613978,-0.11267605,0.07592031,0.00374089,0.00714914,-0.00958698,-0.006
 63274,0.01459216,-0.01619854,-0.16352930,0.17660872,-0.00484779,0.0002
 1740,-0.02065871,-0.00184201,0.00238330,0.00057261,0.00193141,0.001797
 99,0.00417551,-0.00153535,0.00507329,-0.00271238,-0.04425848,0.0819902
 3,-0.28927655,0.00903150,0.00824620,-0.03249770,-0.00254480,0.01191448
 ,-0.01173197,-0.18596772,0.00253940,0.54744884,-0.09535787,0.02074986,
 -0.06212564,-0.00134447,0.00405213,-0.02043625,0.00011873,0.00082818,0
 .00077957,0.00131010,-0.00168040,-0.00431203,-0.00502791,0.00564588,-0
 .00238565,0.00209557,-0.00293801,-0.00128109,0.00063239,-0.00147194,-0
 .00018259,0.00188444,-0.00046808,0.00258346,0.11217272,0.01625653,-0.0
 9994948,0.05140350,-0.00290844,0.01330927,-0.00810673,0.00024692,-0.00
 006413,-0.00019792,-0.00191528,0.00022879,-0.00533971,0.00209281,-0.00
 404904,0.00990958,0.00009331,0.00047121,-0.00074649,-0.00062062,0.0008
 2595,-0.00136902,-0.00285889,-0.01057613,-0.00979655,-0.04257317,0.148
 47880,-0.06221701,0.05252951,-0.24369499,-0.01710674,0.01626275,-0.033
 67385,0.00016748,0.00053673,0.00034082,-0.00326457,-0.00581670,-0.0077
 0518,-0.00579748,0.01189037,-0.00778907,0.00265517,-0.00449365,-0.0010
 9700,0.00072624,-0.00304453,-0.00039965,0.00153491,-0.00337350,0.00791
 756,0.08805804,-0.12142219,0.32260621,-0.17289541,0.09755320,0.0408063
 0,0.00179609,0.01236176,0.00017685,0.00010491,0.00043264,0.00028248,0.
 00133757,-0.00298848,0.00237562,-0.00087335,-0.00004095,-0.00076462,0.
 00067253,-0.00097995,-0.00049465,0.00039072,0.00088572,0.00079766,0.00
 063212,0.00088710,0.00084893,-0.02570493,0.04103831,-0.02132075,0.2736
 1098,0.10200367,-0.17999510,-0.04500048,0.02730556,-0.04310225,-0.0166
 0926,0.00012011,0.00075570,0.00038068,-0.00258017,0.00407301,-0.001289
 47,-0.00075792,0.00831016,-0.00478657,0.00339699,-0.00494963,-0.001609
 77,-0.00148747,-0.00402698,-0.00096611,0.00019190,-0.00161111,0.001191
 78,0.03846174,-0.02846548,0.02162168,-0.16480427,0.22749850,0.03762407
 ,-0.04551706,-0.09554694,0.01568542,-0.02751762,-0.00252738,0.00020225
 ,0.00040119,0.00031180,0.00097837,-0.00086705,0.00257729,-0.00210336,0
 .00355179,-0.00642989,0.00144704,-0.00223801,-0.00049539,-0.00035729,-
 0.00295565,-0.00015121,0.00048388,-0.00045299,0.00270007,-0.03200270,0
 .03528859,0.00714495,-0.05777537,0.04620434,0.09250713,-0.19519863,-0.
 09149156,0.04404416,-0.01329846,-0.03885714,0.00199805,0.00069761,0.00
 183617,0.00084247,0.00207488,0.00278615,-0.00036527,-0.01511608,0.0135
 3608,0.00322940,0.00322798,-0.00431730,-0.00263336,0.00278524,-0.00400
 704,-0.00328759,0.00195724,-0.00165711,0.00175831,0.01022230,-0.011057
 11,0.01761279,-0.07809381,-0.00270590,0.03571280,0.28068538,-0.0964487
 9,-0.14554384,0.03290077,-0.02983028,-0.04165805,0.00481823,0.00071085
 ,0.00045746,0.00065697,0.00012926,0.00435889,-0.00367723,-0.01439175,0
 .01764639,0.00474032,0.00315768,-0.00458921,-0.00264081,0.00239708,-0.
 00429410,-0.00432992,0.00180425,-0.00192815,0.00233360,-0.01996346,-0.
 02235046,0.03951200,0.01639438,0.02086004,-0.00524828,0.13565691,0.176
 70645,0.04197688,0.02846682,-0.09261221,-0.01150869,-0.01461350,0.0082
 1685,0.00005105,-0.00016812,0.00017475,0.00300752,-0.00007378,0.003557
 97,-0.00431143,0.00551645,-0.00211119,0.00028252,-0.00056340,-0.000079
 75,0.00095248,-0.00141479,-0.00085601,0.00074774,0.00008014,0.00342500
 ,0.03221565,0.05060036,-0.03987314,0.03511989,0.00178066,0.00097823,-0
 .09812768,-0.06804464,0.12032991,0.00229875,-0.00213151,0.00191164,-0.
 00187298,0.00079092,-0.00101078,0.00132082,0.00080238,-0.00027553,-0.0
 0004774,0.00125470,-0.00095542,0.00425832,-0.00509153,-0.00231519,0.00
 086056,0.00107766,0.00135850,-0.00276091,0.00049808,-0.00400222,-0.255
 22050,0.12219747,0.22484254,-0.00100107,0.00220562,-0.00104808,-0.0009
 7742,0.00085576,0.00010489,0.00005635,0.00038387,-0.00040591,0.2530858
 1,0.00073759,-0.00443414,0.00865998,0.00068105,-0.00352153,-0.00070295
 ,0.00041325,0.00028699,-0.00032076,0.00068172,-0.00011154,-0.00030325,
 -0.01164145,0.00895327,0.01060129,-0.00150828,-0.00113120,0.00481212,0
 .00048267,-0.00132215,-0.00060836,0.13410124,-0.07065968,-0.10789112,-
 0.00064274,0.00214071,-0.00420248,-0.00073947,0.00065315,-0.00064925,0
 .00027784,0.00033459,-0.00156621,-0.12284343,0.06881152,0.00229471,0.0
 0291243,0.00658292,0.00083128,-0.00049956,0.00122828,-0.00030341,0.000
 27371,0.00061669,-0.00055665,-0.00295626,0.00253152,0.02483654,-0.0074
 0188,-0.03847135,-0.00068433,0.00100065,-0.00220522,-0.00194012,0.0008
 5499,0.00036971,0.19547356,-0.08419316,-0.20936229,-0.00091075,-0.0002
 2342,-0.00377667,-0.00005235,-0.00091748,-0.00106865,-0.00078405,-0.00
 102102,-0.00115041,-0.21820443,0.09217100,0.24470548\\0.00000095,0.000
 00508,-0.00000833,0.00000103,-0.00000713,-0.00000759,-0.00000670,-0.00
 000278,0.00000456,0.00000088,-0.00000181,0.00000244,0.00000700,0.00001
 547,0.00000014,-0.00000514,-0.00000717,-0.00000677,0.00000292,0.000003
 22,-0.00000419,0.00000186,0.00000414,0.00000022,-0.00000098,-0.0000045
 8,0.00001014,0.00000444,-0.00000217,0.00000244,0.00000075,-0.00000202,
 0.00000702,-0.00000700,-0.00000025,-0.00000007\\\@
 The archive entry for this job was punched.


 THOSE WITH THE GOLD MAKE THE RULES.

             -- PETER'S GOLDEN RULE
 Job cpu time:       0 days  0 hours 29 minutes 14.9 seconds.
 Elapsed time:       0 days  0 hours  3 minutes 43.2 seconds.
 File lengths (MBytes):  RWF=    164 Int=      0 D2E=      0 Chk=     11 Scr=      1
 Normal termination of Gaussian 16 at Sat May 24 07:35:34 2025.
done
