 Entering Gaussian System, Link 0=g16
 Initial command:
 /apps/easybuild-2022/easybuild/software/Compiler/NVHPC/22.11-CUDA-11.7.0/Gaussian/g16c01-CUDA-11.7.0/g16/l1.exe "/tmp/Gau-258853.inp" -scrdir="/tmp/"
 Entering Link 1 = /apps/easybuild-2022/easybuild/software/Compiler/NVHPC/22.11-CUDA-11.7.0/Gaussian/g16c01-CUDA-11.7.0/g16/l1.exe PID=    258873.
  
 Copyright (c) 1988-2019, Gaussian, Inc.  All Rights Reserved.
  
 This is part of the Gaussian(R) 16 program.  It is based on
 the Gaussian(R) 09 system (copyright 2009, Gaussian, Inc.),
 the Gaussian(R) 03 system (copyright 2003, Gaussian, Inc.),
 the Gaussian(R) 98 system (copyright 1998, Gaussian, Inc.),
 the Gaussian(R) 94 system (copyright 1995, Gaussian, Inc.),
 the Gaussian 92(TM) system (copyright 1992, Gaussian, Inc.),
 the Gaussian 90(TM) system (copyright 1990, Gaussian, Inc.),
 the Gaussian 88(TM) system (copyright 1988, Gaussian, Inc.),
 the Gaussian 86(TM) system (copyright 1986, Carnegie Mellon
 University), and the Gaussian 82(TM) system (copyright 1983,
 Carnegie Mellon University). Gaussian is a federally registered
 trademark of Gaussian, Inc.
  
 This software contains proprietary and confidential information,
 including trade secrets, belonging to Gaussian, Inc.
  
 This software is provided under written license and may be
 used, copied, transmitted, or stored only in accord with that
 written license.
  
 The following legend is applicable only to US Government
 contracts under FAR:
  
                    RESTRICTED RIGHTS LEGEND
  
 Use, reproduction and disclosure by the US Government is
 subject to restrictions as set forth in subparagraphs (a)
 and (c) of the Commercial Computer Software - Restricted
 Rights clause in FAR 52.227-19.
  
 Gaussian, Inc.
 340 Quinnipiac St., Bldg. 40, Wallingford CT 06492
  
  
 ---------------------------------------------------------------
 Warning -- This program may not be used in any manner that
 competes with the business of Gaussian, Inc. or will provide
 assistance to any competitor of Gaussian, Inc.  The licensee
 of this program is prohibited from giving any competitor of
 Gaussian, Inc. access to this program.  By using this program,
 the user acknowledges that Gaussian, Inc. is engaged in the
 business of creating and licensing software in the field of
 computational chemistry and represents and warrants to the
 licensee that it is not a competitor of Gaussian, Inc. and that
 it will not use this program in any manner prohibited above.
 ---------------------------------------------------------------
  

 Cite this work as:
 Gaussian 16, Revision C.01,
 M. J. Frisch, G. W. Trucks, H. B. Schlegel, G. E. Scuseria, 
 M. A. Robb, J. R. Cheeseman, G. Scalmani, V. Barone, 
 G. A. Petersson, H. Nakatsuji, X. Li, M. Caricato, A. V. Marenich, 
 J. Bloino, B. G. Janesko, R. Gomperts, B. Mennucci, H. P. Hratchian, 
 J. V. Ortiz, A. F. Izmaylov, J. L. Sonnenberg, D. Williams-Young, 
 F. Ding, F. Lipparini, F. Egidi, J. Goings, B. Peng, A. Petrone, 
 T. Henderson, D. Ranasinghe, V. G. Zakrzewski, J. Gao, N. Rega, 
 G. Zheng, W. Liang, M. Hada, M. Ehara, K. Toyota, R. Fukuda, 
 J. Hasegawa, M. Ishida, T. Nakajima, Y. Honda, O. Kitao, H. Nakai, 
 T. Vreven, K. Throssell, J. A. Montgomery, Jr., J. E. Peralta, 
 F. Ogliaro, M. J. Bearpark, J. J. Heyd, E. N. Brothers, K. N. Kudin, 
 V. N. Staroverov, T. A. Keith, R. Kobayashi, J. Normand, 
 K. Raghavachari, A. P. Rendell, J. C. Burant, S. S. Iyengar, 
 J. Tomasi, M. Cossi, J. M. Millam, M. Klene, C. Adamo, R. Cammi, 
 J. W. Ochterski, R. L. Martin, K. Morokuma, O. Farkas, 
 J. B. Foresman, and D. J. Fox, Gaussian, Inc., Wallingford CT, 2019.
 
 ******************************************
 Gaussian 16:  ES64L-G16RevC.01  3-Jul-2019
                24-May-2025 
 ******************************************
 %mem=28GB
 %chk=2003846667223680600001_r12_insertion_R_3_2_1_IRC_F_prod
 %nprocshared=8
 Will use up to    8 processors via shared memory.
 -----------------------------------------------------------------
 #P M062X/Def2TZVPP Symm(None) scf(xqc) pop(None) freq opt(CalcFC)
 -----------------------------------------------------------------
 1/10=4,18=20,19=15,26=3,38=1/1,3;
 2/9=110,12=2,15=3,17=6,18=5,40=1/2;
 3/5=44,7=202,11=2,25=1,30=1,71=2,74=-55,140=1/1,2,3;
 4//1;
 5/5=2,8=3,13=1,38=5/2,8;
 8/6=4,10=90,11=11/1;
 11/6=1,8=1,9=11,15=111,16=1,31=1/1,2,10;
 10/6=1,13=1,31=1/2;
 7/10=1,25=1,30=1/1,2,3,16;
 1/10=4,18=20,19=15,26=3/3(2);
 2/9=110,15=3/2;
 99//99;
 2/9=110,15=3/2;
 3/5=44,7=202,11=2,25=1,30=1,71=1,74=-55/1,2,3;
 4/5=5,16=3,69=1/1;
 5/5=2,8=3,13=1,38=5/2,8;
 7/30=1/1,2,3,16;
 1/18=20,19=15,26=3/3(-5);
 2/9=110,15=3/2;
 99/9=1/99;
 Leave Link    1 at Sat May 24 05:00:24 2025, MaxMem=  3758096384 cpu:               0.0 elap:               0.0
 (Enter /apps/easybuild-2022/easybuild/software/Compiler/NVHPC/22.11-CUDA-11.7.0/Gaussian/g16c01-CUDA-11.7.0/g16/l101.exe)
 ------------------------------
 Gaussian input prepared by ASE
 ------------------------------
 Symbolic Z-matrix:
 Charge =  0 Multiplicity = 1
 C                    -1.32321  -1.04473  -0.15536 
 C                    -0.40748   0.33871   0.01377 
 F                    -0.47056   0.73397  -1.26155 
 F                    -0.9193    1.30417   0.78819 
 S                     1.48923   0.50313   0.36531 
 O                     1.84897   0.88444   1.67934 
 O                     2.04894  -0.61261  -0.30829 
 O                     1.69004   1.80815  -0.49538 
 F                    -1.63313  -1.29149  -1.42961 
 F                    -0.69805  -2.12623   0.26574 
 F                    -2.48536  -0.85705   0.45103 
 H                     1.67463   1.59698  -1.43978 
 
 ITRead=  0  0  0  0  0  0  0  0  0  0  0  0
 MicOpt= -1 -1 -1 -1 -1 -1 -1 -1 -1 -1 -1 -1
 NAtoms=     12 NQM=       12 NQMF=       0 NMMI=      0 NMMIF=      0
                NMic=       0 NMicF=      0.
                    Isotopes and Nuclear Properties:
 (Nuclear quadrupole moments (NQMom) in fm**2, nuclear magnetic moments (NMagM)
  in nuclear magnetons)

  Atom         1           2           3           4           5           6           7           8           9          10
 IAtWgt=          12          12          19          19          32          16          16          16          19          19
 AtmWgt=  12.0000000  12.0000000  18.9984032  18.9984032  31.9720718  15.9949146  15.9949146  15.9949146  18.9984032  18.9984032
 NucSpn=           0           0           1           1           0           0           0           0           1           1
 AtZEff=  -0.0000000  -0.0000000  -0.0000000  -0.0000000  -0.0000000  -0.0000000  -0.0000000  -0.0000000  -0.0000000  -0.0000000
 NQMom=    0.0000000   0.0000000   0.0000000   0.0000000   0.0000000   0.0000000   0.0000000   0.0000000   0.0000000   0.0000000
 NMagM=    0.0000000   0.0000000   2.6288670   2.6288670   0.0000000   0.0000000   0.0000000   0.0000000   2.6288670   2.6288670
 AtZNuc=   6.0000000   6.0000000   9.0000000   9.0000000  16.0000000   8.0000000   8.0000000   8.0000000   9.0000000   9.0000000

  Atom        11          12
 IAtWgt=          19           1
 AtmWgt=  18.9984032   1.0078250
 NucSpn=           1           1
 AtZEff=  -0.0000000  -0.0000000
 NQMom=    0.0000000   0.0000000
 NMagM=    2.6288670   2.7928460
 AtZNuc=   9.0000000   1.0000000
 Leave Link  101 at Sat May 24 05:00:24 2025, MaxMem=  3758096384 cpu:               0.2 elap:               0.2
 (Enter /apps/easybuild-2022/easybuild/software/Compiler/NVHPC/22.11-CUDA-11.7.0/Gaussian/g16c01-CUDA-11.7.0/g16/l103.exe)

 GradGradGradGradGradGradGradGradGradGradGradGradGradGradGradGradGradGrad
 Berny optimization.
 Initialization pass.
                           ----------------------------
                           !    Initial Parameters    !
                           ! (Angstroms and Degrees)  !
 --------------------------                            --------------------------
 ! Name  Definition              Value          Derivative Info.                !
 --------------------------------------------------------------------------------
 ! R1    R(1,2)                  1.6677         calculate D2E/DX2 analytically  !
 ! R2    R(1,9)                  1.3344         calculate D2E/DX2 analytically  !
 ! R3    R(1,10)                 1.3183         calculate D2E/DX2 analytically  !
 ! R4    R(1,11)                 1.3242         calculate D2E/DX2 analytically  !
 ! R5    R(2,3)                  1.3367         calculate D2E/DX2 analytically  !
 ! R6    R(2,4)                  1.3393         calculate D2E/DX2 analytically  !
 ! R7    R(2,5)                  1.936          calculate D2E/DX2 analytically  !
 ! R8    R(5,6)                  1.4147         calculate D2E/DX2 analytically  !
 ! R9    R(5,7)                  1.4184         calculate D2E/DX2 analytically  !
 ! R10   R(5,8)                  1.5761         calculate D2E/DX2 analytically  !
 ! R11   R(8,12)                 0.9678         calculate D2E/DX2 analytically  !
 ! A1    A(2,1,9)              112.1968         calculate D2E/DX2 analytically  !
 ! A2    A(2,1,10)             112.8164         calculate D2E/DX2 analytically  !
 ! A3    A(2,1,11)             108.5358         calculate D2E/DX2 analytically  !
 ! A4    A(9,1,10)             105.2758         calculate D2E/DX2 analytically  !
 ! A5    A(9,1,11)             105.05           calculate D2E/DX2 analytically  !
 ! A6    A(10,1,11)            112.7175         calculate D2E/DX2 analytically  !
 ! A7    A(1,2,3)               97.0437         calculate D2E/DX2 analytically  !
 ! A8    A(1,2,4)              116.5386         calculate D2E/DX2 analytically  !
 ! A9    A(1,2,5)              128.817          calculate D2E/DX2 analytically  !
 ! A10   A(3,2,4)              108.6922         calculate D2E/DX2 analytically  !
 ! A11   A(3,2,5)              101.2078         calculate D2E/DX2 analytically  !
 ! A12   A(4,2,5)              102.0159         calculate D2E/DX2 analytically  !
 ! A13   A(2,5,6)              116.1457         calculate D2E/DX2 analytically  !
 ! A14   A(2,5,7)              103.5067         calculate D2E/DX2 analytically  !
 ! A15   A(2,5,8)               95.5077         calculate D2E/DX2 analytically  !
 ! A16   A(6,5,7)              123.5574         calculate D2E/DX2 analytically  !
 ! A17   A(6,5,8)              104.5745         calculate D2E/DX2 analytically  !
 ! A18   A(7,5,8)              109.9808         calculate D2E/DX2 analytically  !
 ! A19   A(5,8,12)             110.4975         calculate D2E/DX2 analytically  !
 ! D1    D(9,1,2,3)              6.1            calculate D2E/DX2 analytically  !
 ! D2    D(9,1,2,4)            121.1028         calculate D2E/DX2 analytically  !
 ! D3    D(9,1,2,5)           -104.4339         calculate D2E/DX2 analytically  !
 ! D4    D(10,1,2,3)           124.8093         calculate D2E/DX2 analytically  !
 ! D5    D(10,1,2,4)          -120.1879         calculate D2E/DX2 analytically  !
 ! D6    D(10,1,2,5)            14.2754         calculate D2E/DX2 analytically  !
 ! D7    D(11,1,2,3)          -109.5324         calculate D2E/DX2 analytically  !
 ! D8    D(11,1,2,4)             5.4703         calculate D2E/DX2 analytically  !
 ! D9    D(11,1,2,5)           139.9336         calculate D2E/DX2 analytically  !
 ! D10   D(1,2,5,6)           -105.0152         calculate D2E/DX2 analytically  !
 ! D11   D(1,2,5,7)             33.6799         calculate D2E/DX2 analytically  !
 ! D12   D(1,2,5,8)            145.7794         calculate D2E/DX2 analytically  !
 ! D13   D(3,2,5,6)            146.3307         calculate D2E/DX2 analytically  !
 ! D14   D(3,2,5,7)            -74.9742         calculate D2E/DX2 analytically  !
 ! D15   D(3,2,5,8)             37.1253         calculate D2E/DX2 analytically  !
 ! D16   D(4,2,5,6)             34.2316         calculate D2E/DX2 analytically  !
 ! D17   D(4,2,5,7)            172.9267         calculate D2E/DX2 analytically  !
 ! D18   D(4,2,5,8)            -74.9738         calculate D2E/DX2 analytically  !
 ! D19   D(2,5,8,12)           -74.7711         calculate D2E/DX2 analytically  !
 ! D20   D(6,5,8,12)           166.3808         calculate D2E/DX2 analytically  !
 ! D21   D(7,5,8,12)            31.7716         calculate D2E/DX2 analytically  !
 --------------------------------------------------------------------------------
 Trust Radius=3.00D-01 FncErr=1.00D-07 GrdErr=1.00D-06 EigMax=2.50D+02 EigMin=1.00D-04
 Number of steps in this run=     61 maximum allowed number of steps=    100.
 GradGradGradGradGradGradGradGradGradGradGradGradGradGradGradGradGradGrad

 Leave Link  103 at Sat May 24 05:00:24 2025, MaxMem=  3758096384 cpu:               0.0 elap:               0.0
 (Enter /apps/easybuild-2022/easybuild/software/Compiler/NVHPC/22.11-CUDA-11.7.0/Gaussian/g16c01-CUDA-11.7.0/g16/l202.exe)
                          Input orientation:                          
 ---------------------------------------------------------------------
 Center     Atomic      Atomic             Coordinates (Angstroms)
 Number     Number       Type             X           Y           Z
 ---------------------------------------------------------------------
      1          6           0       -1.323211   -1.044726   -0.155362
      2          6           0       -0.407481    0.338710    0.013774
      3          9           0       -0.470564    0.733966   -1.261545
      4          9           0       -0.919302    1.304170    0.788190
      5         16           0        1.489232    0.503126    0.365307
      6          8           0        1.848965    0.884440    1.679336
      7          8           0        2.048936   -0.612605   -0.308291
      8          8           0        1.690035    1.808149   -0.495377
      9          9           0       -1.633129   -1.291490   -1.429605
     10          9           0       -0.698054   -2.126226    0.265739
     11          9           0       -2.485359   -0.857052    0.451028
     12          1           0        1.674631    1.596981   -1.439781
 ---------------------------------------------------------------------
                    Distance matrix (angstroms):
                    1          2          3          4          5
     1  C    0.000000
     2  C    1.667652   0.000000
     3  F    2.261502   1.336655   0.000000
     4  F    2.563346   1.339326   2.174376   0.000000
     5  S    3.252196   1.936008   2.557486   2.573235   0.000000
     6  O    4.141316   2.857178   3.748551   2.938302   1.414737
     7  O    3.403159   2.653811   3.011615   3.699559   1.418400
     8  O    4.163431   2.611141   2.531614   2.951301   1.576129
     9  F    1.334405   2.498621   2.341426   3.487924   4.023866
    10  F    1.318252   2.494760   3.250392   3.476999   3.421641
    11  F    1.324205   2.436927   3.086040   2.690185   4.201762
    12  H    4.197071   2.833947   2.319143   3.431921   2.118781
                    6          7          8          9         10
     6  O    0.000000
     7  O    2.496356   0.000000
     8  O    2.368095   2.454356   0.000000
     9  F    5.150259   3.908431   4.639393   0.000000
    10  F    4.189233   3.188497   4.664930   2.108398   0.000000
    11  F    4.829896   4.603928   5.043104   2.109932   2.199908
    12  H    3.204216   2.510507   0.967847   4.391429   4.732938
                   11         12
    11  F    0.000000
    12  H    5.186806   0.000000
 Symmetry turned off by external request.
 Stoichiometry    C2HF5O3S
 Rotational constants (GHZ):           1.7002920           0.7122658           0.6797953
 Leave Link  202 at Sat May 24 05:00:24 2025, MaxMem=  3758096384 cpu:               0.0 elap:               0.0
 (Enter /apps/easybuild-2022/easybuild/software/Compiler/NVHPC/22.11-CUDA-11.7.0/Gaussian/g16c01-CUDA-11.7.0/g16/l301.exe)
 Standard basis: def2TZVPP (5D, 7F)
 Ernie: Thresh=  0.10000D-02 Tol=  0.10000D-05 Strict=F.
   366 basis functions,   596 primitive gaussians,   423 cartesian basis functions
    49 alpha electrons       49 beta electrons
       nuclear repulsion energy       903.7937300079 Hartrees.
 IExCor= 4336 DFT=T Ex+Corr=M062X ExCW=0 ScaHFX=  0.540000
 ScaDFX=  1.000000  1.000000  1.000000  1.000000 ScalE2=  1.000000  1.000000
 IRadAn=      5 IRanWt=     -1 IRanGd=            0 ICorTp=0 IEmpDi=  4
 NAtoms=   12 NActive=   12 NUniq=   12 SFac= 1.00D+00 NAtFMM=   60 NAOKFM=F Big=F
 Integral buffers will be    131072 words long.
 Raffenetti 2 integral format.
 Two-electron integral symmetry is turned off.
 Leave Link  301 at Sat May 24 05:00:24 2025, MaxMem=  3758096384 cpu:               0.0 elap:               0.0
 (Enter /apps/easybuild-2022/easybuild/software/Compiler/NVHPC/22.11-CUDA-11.7.0/Gaussian/g16c01-CUDA-11.7.0/g16/l302.exe)
 NPDir=0 NMtPBC=     1 NCelOv=     1 NCel=       1 NClECP=     1 NCelD=      1
         NCelK=      1 NCelE2=     1 NClLst=     1 CellRange=     0.0.
 One-electron integrals computed using PRISM.
   1 Symmetry operations used in ECPInt.
 ECPInt:  NShTT=    8515 NPrTT=   27988 LenC2=    7906 LenP2D=   19116.
 LDataN:  DoStor=T MaxTD1= 6 Len=  172
 NBasis=   366 RedAO= T EigKep=  5.71D-04  NBF=   366
 NBsUse=   366 1.00D-06 EigRej= -1.00D+00 NBFU=   366
 Precomputing XC quadrature grid using
 IXCGrd= 4 IRadAn=           5 IRanWt=          -1 IRanGd=           0 AccXCQ= 0.00D+00.
 Generated NRdTot=       0 NPtTot=           0 NUsed=           0 NTot=          32
 NSgBfM=   419   419   419   419   419 MxSgAt=    12 MxSgA2=    12.
 Leave Link  302 at Sat May 24 05:00:24 2025, MaxMem=  3758096384 cpu:               0.7 elap:               0.2
 (Enter /apps/easybuild-2022/easybuild/software/Compiler/NVHPC/22.11-CUDA-11.7.0/Gaussian/g16c01-CUDA-11.7.0/g16/l303.exe)
 DipDrv:  MaxL=1.
 Leave Link  303 at Sat May 24 05:00:24 2025, MaxMem=  3758096384 cpu:               0.1 elap:               0.0
 (Enter /apps/easybuild-2022/easybuild/software/Compiler/NVHPC/22.11-CUDA-11.7.0/Gaussian/g16c01-CUDA-11.7.0/g16/l401.exe)
 ExpMin= 9.52D-02 ExpMax= 6.07D+04 ExpMxC= 2.07D+03 IAcc=3 IRadAn=         5 AccDes= 0.00D+00
 Harris functional with IExCor= 1009 and IRadAn=       5 diagonalized for initial guess.
 HarFok:  IExCor= 1009 AccDes= 0.00D+00 IRadAn=         5 IDoV= 1 UseB2=F ITyADJ=14
 ICtDFT=  3500011 ScaDFX=  1.000000  1.000000  1.000000  1.000000
 FoFCou: FMM=F IPFlag=           0 FMFlag=      100000 FMFlg1=           0
         NFxFlg=           0 DoJE=T BraDBF=F KetDBF=T FulRan=T
         wScrn=  0.000000 ICntrl=       500 IOpCl=  0 I1Cent=   200000004 NGrid=           0
         NMat0=    1 NMatS0=      1 NMatT0=    0 NMatD0=    1 NMtDS0=    0 NMtDT0=    0
 Symmetry not used in FoFCou.
 Harris En= -1199.31945675093    
 JPrj=0 DoOrth=F DoCkMO=F.
 Leave Link  401 at Sat May 24 05:00:25 2025, MaxMem=  3758096384 cpu:               4.0 elap:               0.6
 (Enter /apps/easybuild-2022/easybuild/software/Compiler/NVHPC/22.11-CUDA-11.7.0/Gaussian/g16c01-CUDA-11.7.0/g16/l502.exe)
 Keep R1 ints in memory in canonical form, NReq=2293446996.
 FoFCou: FMM=F IPFlag=           0 FMFlag=           0 FMFlg1=           0
         NFxFlg=           0 DoJE=F BraDBF=F KetDBF=F FulRan=T
         wScrn=  0.000000 ICntrl=       600 IOpCl=  0 I1Cent=           0 NGrid=           0
         NMat0=    1 NMatS0=  67161 NMatT0=    0 NMatD0=    1 NMtDS0=    0 NMtDT0=    0
 Symmetry not used in FoFCou.
 Two-electron integral symmetry not used.
 Closed shell SCF:
 Using DIIS extrapolation, IDIIS=  1040.
 NGot=  3758096384 LenX=  1502398672 LenY=  1502219302
 Requested convergence on RMS density matrix=1.00D-08 within  32 cycles.
 Requested convergence on MAX density matrix=1.00D-06.
 Requested convergence on             energy=1.00D-06.
 No special actions if energy rises.
 Integral accuracy reduced to 1.0D-05 until final iterations.

 Cycle   1  Pass 0  IDiag  1:
 E= -1199.57210890676    
 DIIS: error= 2.20D-02 at cycle   1 NSaved=   1.
 NSaved= 1 IEnMin= 1 EnMin= -1199.57210890676     IErMin= 1 ErrMin= 2.20D-02
 ErrMax= 2.20D-02  0.00D+00 EMaxC= 1.00D-01 BMatC= 6.34D-01 BMatP= 6.34D-01
 IDIUse=3 WtCom= 7.80D-01 WtEn= 2.20D-01
 Coeff-Com:  0.100D+01
 Coeff-En:   0.100D+01
 Coeff:      0.100D+01
 Gap=     0.415 Goal=   None    Shift=    0.000
 GapD=    0.415 DampG=2.000 DampE=0.500 DampFc=1.0000 IDamp=-1.
 RMSDP=2.54D-03 MaxDP=2.63D-01              OVMax= 2.44D-01

 Cycle   2  Pass 0  IDiag  1:
 E= -1199.21967300663     Delta-E=        0.352435900129 Rises=F Damp=F
 DIIS: error= 3.67D-02 at cycle   2 NSaved=   2.
 NSaved= 2 IEnMin= 1 EnMin= -1199.57210890676     IErMin= 1 ErrMin= 2.20D-02
 ErrMax= 3.67D-02  0.00D+00 EMaxC= 1.00D-01 BMatC= 1.06D+00 BMatP= 6.34D-01
 IDIUse=2 WtCom= 0.00D+00 WtEn= 1.00D+00
 Coeff-En:   0.658D+00 0.342D+00
 Coeff:      0.658D+00 0.342D+00
 Gap=     0.407 Goal=   None    Shift=    0.000
 RMSDP=1.32D-03 MaxDP=1.54D-01 DE= 3.52D-01 OVMax= 1.37D-01

 Cycle   3  Pass 0  IDiag  1:
 E= -1199.89342320357     Delta-E=       -0.673750196941 Rises=F Damp=F
 DIIS: error= 4.87D-03 at cycle   3 NSaved=   3.
 NSaved= 3 IEnMin= 3 EnMin= -1199.89342320357     IErMin= 3 ErrMin= 4.87D-03
 ErrMax= 4.87D-03  0.00D+00 EMaxC= 1.00D-01 BMatC= 1.98D-02 BMatP= 6.34D-01
 IDIUse=3 WtCom= 9.51D-01 WtEn= 4.87D-02
 Coeff-Com:  0.913D-01-0.483D-01 0.957D+00
 Coeff-En:   0.000D+00 0.000D+00 0.100D+01
 Coeff:      0.869D-01-0.460D-01 0.959D+00
 Gap=     0.415 Goal=   None    Shift=    0.000
 RMSDP=2.27D-04 MaxDP=1.36D-02 DE=-6.74D-01 OVMax= 1.82D-02

 Cycle   4  Pass 0  IDiag  1:
 E= -1199.90175260410     Delta-E=       -0.008329400535 Rises=F Damp=F
 DIIS: error= 2.74D-03 at cycle   4 NSaved=   4.
 NSaved= 4 IEnMin= 4 EnMin= -1199.90175260410     IErMin= 4 ErrMin= 2.74D-03
 ErrMax= 2.74D-03  0.00D+00 EMaxC= 1.00D-01 BMatC= 4.27D-03 BMatP= 1.98D-02
 IDIUse=3 WtCom= 9.73D-01 WtEn= 2.74D-02
 Coeff-Com:  0.903D-02-0.532D-01 0.502D+00 0.542D+00
 Coeff-En:   0.000D+00 0.000D+00 0.716D-01 0.928D+00
 Coeff:      0.878D-02-0.517D-01 0.490D+00 0.553D+00
 Gap=     0.417 Goal=   None    Shift=    0.000
 RMSDP=9.91D-05 MaxDP=5.77D-03 DE=-8.33D-03 OVMax= 1.09D-02

 Cycle   5  Pass 0  IDiag  1:
 E= -1199.90447845395     Delta-E=       -0.002725849849 Rises=F Damp=F
 DIIS: error= 5.30D-04 at cycle   5 NSaved=   5.
 NSaved= 5 IEnMin= 5 EnMin= -1199.90447845395     IErMin= 5 ErrMin= 5.30D-04
 ErrMax= 5.30D-04  0.00D+00 EMaxC= 1.00D-01 BMatC= 1.72D-04 BMatP= 4.27D-03
 IDIUse=3 WtCom= 9.95D-01 WtEn= 5.30D-03
 Coeff-Com: -0.688D-03-0.185D-01 0.142D+00 0.231D+00 0.647D+00
 Coeff-En:   0.000D+00 0.000D+00 0.000D+00 0.000D+00 0.100D+01
 Coeff:     -0.685D-03-0.184D-01 0.141D+00 0.229D+00 0.648D+00
 Gap=     0.416 Goal=   None    Shift=    0.000
 RMSDP=2.61D-05 MaxDP=1.21D-03 DE=-2.73D-03 OVMax= 2.30D-03

 Cycle   6  Pass 0  IDiag  1:
 E= -1199.90458790545     Delta-E=       -0.000109451494 Rises=F Damp=F
 DIIS: error= 9.74D-05 at cycle   6 NSaved=   6.
 NSaved= 6 IEnMin= 6 EnMin= -1199.90458790545     IErMin= 6 ErrMin= 9.74D-05
 ErrMax= 9.74D-05  0.00D+00 EMaxC= 1.00D-01 BMatC= 1.34D-05 BMatP= 1.72D-04
 IDIUse=1 WtCom= 1.00D+00 WtEn= 0.00D+00
 Coeff-Com: -0.726D-03-0.459D-02 0.292D-01 0.620D-01 0.289D+00 0.625D+00
 Coeff:     -0.726D-03-0.459D-02 0.292D-01 0.620D-01 0.289D+00 0.625D+00
 Gap=     0.416 Goal=   None    Shift=    0.000
 RMSDP=7.26D-06 MaxDP=3.34D-04 DE=-1.09D-04 OVMax= 7.52D-04

 Initial convergence to 1.0D-05 achieved.  Increase integral accuracy.
 Cycle   7  Pass 1  IDiag  1:
 E= -1199.90458104091     Delta-E=        0.000006864537 Rises=F Damp=F
 DIIS: error= 3.93D-05 at cycle   1 NSaved=   1.
 NSaved= 1 IEnMin= 1 EnMin= -1199.90458104091     IErMin= 1 ErrMin= 3.93D-05
 ErrMax= 3.93D-05  0.00D+00 EMaxC= 1.00D-01 BMatC= 2.06D-06 BMatP= 2.06D-06
 IDIUse=1 WtCom= 1.00D+00 WtEn= 0.00D+00
 Coeff-Com:  0.100D+01
 Coeff:      0.100D+01
 Gap=     0.416 Goal=   None    Shift=    0.000
 RMSDP=7.26D-06 MaxDP=3.34D-04 DE= 6.86D-06 OVMax= 4.57D-04

 Cycle   8  Pass 1  IDiag  1:
 E= -1199.90458110791     Delta-E=       -0.000000067003 Rises=F Damp=F
 DIIS: error= 4.85D-05 at cycle   2 NSaved=   2.
 NSaved= 2 IEnMin= 2 EnMin= -1199.90458110791     IErMin= 1 ErrMin= 3.93D-05
 ErrMax= 4.85D-05  0.00D+00 EMaxC= 1.00D-01 BMatC= 2.17D-06 BMatP= 2.06D-06
 IDIUse=1 WtCom= 1.00D+00 WtEn= 0.00D+00
 Coeff-Com:  0.508D+00 0.492D+00
 Coeff:      0.508D+00 0.492D+00
 Gap=     0.416 Goal=   None    Shift=    0.000
 RMSDP=2.56D-06 MaxDP=1.43D-04 DE=-6.70D-08 OVMax= 3.57D-04

 Cycle   9  Pass 1  IDiag  1:
 E= -1199.90458248157     Delta-E=       -0.000001373654 Rises=F Damp=F
 DIIS: error= 1.28D-05 at cycle   3 NSaved=   3.
 NSaved= 3 IEnMin= 3 EnMin= -1199.90458248157     IErMin= 3 ErrMin= 1.28D-05
 ErrMax= 1.28D-05  0.00D+00 EMaxC= 1.00D-01 BMatC= 1.37D-07 BMatP= 2.06D-06
 IDIUse=1 WtCom= 1.00D+00 WtEn= 0.00D+00
 Coeff-Com:  0.112D-01 0.193D+00 0.796D+00
 Coeff:      0.112D-01 0.193D+00 0.796D+00
 Gap=     0.416 Goal=   None    Shift=    0.000
 RMSDP=7.35D-07 MaxDP=3.29D-05 DE=-1.37D-06 OVMax= 8.80D-05

 Cycle  10  Pass 1  IDiag  1:
 E= -1199.90458257155     Delta-E=       -0.000000089984 Rises=F Damp=F
 DIIS: error= 3.86D-06 at cycle   4 NSaved=   4.
 NSaved= 4 IEnMin= 4 EnMin= -1199.90458257155     IErMin= 4 ErrMin= 3.86D-06
 ErrMax= 3.86D-06  0.00D+00 EMaxC= 1.00D-01 BMatC= 1.59D-08 BMatP= 1.37D-07
 IDIUse=1 WtCom= 1.00D+00 WtEn= 0.00D+00
 Coeff-Com: -0.254D-01 0.658D-01 0.391D+00 0.568D+00
 Coeff:     -0.254D-01 0.658D-01 0.391D+00 0.568D+00
 Gap=     0.416 Goal=   None    Shift=    0.000
 RMSDP=2.18D-07 MaxDP=1.64D-05 DE=-9.00D-08 OVMax= 1.92D-05

 Cycle  11  Pass 1  IDiag  1:
 E= -1199.90458258203     Delta-E=       -0.000000010481 Rises=F Damp=F
 DIIS: error= 6.55D-07 at cycle   5 NSaved=   5.
 NSaved= 5 IEnMin= 5 EnMin= -1199.90458258203     IErMin= 5 ErrMin= 6.55D-07
 ErrMax= 6.55D-07  0.00D+00 EMaxC= 1.00D-01 BMatC= 4.93D-10 BMatP= 1.59D-08
 IDIUse=1 WtCom= 1.00D+00 WtEn= 0.00D+00
 Coeff-Com: -0.829D-02 0.501D-02 0.540D-01 0.151D+00 0.798D+00
 Coeff:     -0.829D-02 0.501D-02 0.540D-01 0.151D+00 0.798D+00
 Gap=     0.416 Goal=   None    Shift=    0.000
 RMSDP=6.64D-08 MaxDP=3.01D-06 DE=-1.05D-08 OVMax= 8.27D-06

 Cycle  12  Pass 1  IDiag  1:
 E= -1199.90458258245     Delta-E=       -0.000000000416 Rises=F Damp=F
 DIIS: error= 3.35D-07 at cycle   6 NSaved=   6.
 NSaved= 6 IEnMin= 6 EnMin= -1199.90458258245     IErMin= 6 ErrMin= 3.35D-07
 ErrMax= 3.35D-07  0.00D+00 EMaxC= 1.00D-01 BMatC= 9.35D-11 BMatP= 4.93D-10
 IDIUse=1 WtCom= 1.00D+00 WtEn= 0.00D+00
 Coeff-Com:  0.136D-02-0.861D-02-0.436D-01-0.455D-01 0.274D+00 0.823D+00
 Coeff:      0.136D-02-0.861D-02-0.436D-01-0.455D-01 0.274D+00 0.823D+00
 Gap=     0.416 Goal=   None    Shift=    0.000
 RMSDP=2.94D-08 MaxDP=1.65D-06 DE=-4.16D-10 OVMax= 3.77D-06

 Cycle  13  Pass 1  IDiag  1:
 E= -1199.90458258267     Delta-E=       -0.000000000220 Rises=F Damp=F
 DIIS: error= 1.55D-07 at cycle   7 NSaved=   7.
 NSaved= 7 IEnMin= 7 EnMin= -1199.90458258267     IErMin= 7 ErrMin= 1.55D-07
 ErrMax= 1.55D-07  0.00D+00 EMaxC= 1.00D-01 BMatC= 2.03D-11 BMatP= 9.35D-11
 IDIUse=1 WtCom= 1.00D+00 WtEn= 0.00D+00
 Coeff-Com:  0.126D-02-0.504D-02-0.272D-01-0.354D-01 0.893D-01 0.439D+00
 Coeff-Com:  0.538D+00
 Coeff:      0.126D-02-0.504D-02-0.272D-01-0.354D-01 0.893D-01 0.439D+00
 Coeff:      0.538D+00
 Gap=     0.416 Goal=   None    Shift=    0.000
 RMSDP=8.10D-09 MaxDP=7.85D-07 DE=-2.20D-10 OVMax= 1.00D-06

 SCF Done:  E(RM062X) =  -1199.90458258     A.U. after   13 cycles
            NFock= 13  Conv=0.81D-08     -V/T= 2.0030
 KE= 1.196289244334D+03 PE=-4.653618604133D+03 EE= 1.353631047209D+03
 Leave Link  502 at Sat May 24 05:00:59 2025, MaxMem=  3758096384 cpu:             137.3 elap:              34.1
 (Enter /apps/easybuild-2022/easybuild/software/Compiler/NVHPC/22.11-CUDA-11.7.0/Gaussian/g16c01-CUDA-11.7.0/g16/l508.exe)
 QCSCF skips out because SCF is already converged.
 Leave Link  508 at Sat May 24 05:00:59 2025, MaxMem=  3758096384 cpu:               0.0 elap:               0.0
 (Enter /apps/easybuild-2022/easybuild/software/Compiler/NVHPC/22.11-CUDA-11.7.0/Gaussian/g16c01-CUDA-11.7.0/g16/l801.exe)
 DoSCS=F DFT=T ScalE2(SS,OS)=  1.000000  1.000000
 Range of M.O.s used for correlation:     1   366
 NBasis=   366 NAE=    49 NBE=    49 NFC=     0 NFV=     0
 NROrb=    366 NOA=    49 NOB=    49 NVA=   317 NVB=   317

 **** Warning!!: The largest alpha MO coefficient is  0.13346884D+02

 Leave Link  801 at Sat May 24 05:00:59 2025, MaxMem=  3758096384 cpu:               0.0 elap:               0.0
 (Enter /apps/easybuild-2022/easybuild/software/Compiler/NVHPC/22.11-CUDA-11.7.0/Gaussian/g16c01-CUDA-11.7.0/g16/l1101.exe)
 Using compressed storage, NAtomX=    12.
 Will process     13 centers per pass.
   1 Symmetry operations used in ECPInt.
 ECPInt:  NShTT=    8515 NPrTT=   27988 LenC2=    7906 LenP2D=   19116.
 LDataN:  DoStor=T MaxTD1= 7 Len=  274
 Leave Link 1101 at Sat May 24 05:00:59 2025, MaxMem=  3758096384 cpu:               1.0 elap:               0.2
 (Enter /apps/easybuild-2022/easybuild/software/Compiler/NVHPC/22.11-CUDA-11.7.0/Gaussian/g16c01-CUDA-11.7.0/g16/l1102.exe)
 Symmetrizing basis deriv contribution to polar:
 IMax=3 JMax=2 DiffMx= 0.00D+00
 Leave Link 1102 at Sat May 24 05:00:59 2025, MaxMem=  3758096384 cpu:               0.1 elap:               0.0
 (Enter /apps/easybuild-2022/easybuild/software/Compiler/NVHPC/22.11-CUDA-11.7.0/Gaussian/g16c01-CUDA-11.7.0/g16/l1110.exe)
 Forming Gx(P) for the SCF density, NAtomX=    12.
 Integral derivatives from FoFJK, PRISM(SPDF).
 Do as many integral derivatives as possible in FoFJK.
 G2DrvN: MDV=    3758095012.
 G2DrvN: will do    13 centers at a time, making    1 passes.
 Calling FoFCou, ICntrl=  3107 FMM=F I1Cent=   0 AccDes= 0.00D+00.
 FoFJK:  IHMeth= 1 ICntrl=    3107 DoSepK=F KAlg= 0 I1Cent=           0 FoldK=F
 IRaf=         0 NMat=       1 IRICut=       1 DoRegI=T DoRafI=F ISym2E= 0 IDoP0=0 IntGTp=1.
 FoFCou: FMM=F IPFlag=           0 FMFlag=      100000 FMFlg1=           0
         NFxFlg=           0 DoJE=F BraDBF=F KetDBF=F FulRan=T
         wScrn=  0.000000 ICntrl=      3107 IOpCl=  0 I1Cent=           0 NGrid=           0
         NMat0=    1 NMatS0=      1 NMatT0=    0 NMatD0=    1 NMtDS0=    0 NMtDT0=    0
 Symmetry not used in FoFCou.
 End of G2Drv F.D. properties file   721 does not exist.
 End of G2Drv F.D. properties file   722 does not exist.
 End of G2Drv F.D. properties file   788 does not exist.
 Leave Link 1110 at Sat May 24 05:01:50 2025, MaxMem=  3758096384 cpu:             405.4 elap:              51.1
 (Enter /apps/easybuild-2022/easybuild/software/Compiler/NVHPC/22.11-CUDA-11.7.0/Gaussian/g16c01-CUDA-11.7.0/g16/l1002.exe)
 Minotr:  Closed shell wavefunction.
          IDoAtm=111111111111
          Direct CPHF calculation.
          Differentiating once with respect to nuclear coordinates.
          Requested convergence is 1.0D-08 RMS, and 1.0D-07 maximum.
          Secondary convergence is 1.0D-12 RMS, and 1.0D-12 maximum.
          NewPWx=T KeepS1=F KeepF1=F KeepIn=T MapXYZ=F SortEE=F KeepMc=T.
         3605 words used for storage of precomputed grid.
 Keep R1 ints in memory in canonical form, NReq=2293452911.
 FoFCou: FMM=F IPFlag=           0 FMFlag=           0 FMFlg1=           0
         NFxFlg=           0 DoJE=F BraDBF=F KetDBF=F FulRan=T
         wScrn=  0.000000 ICntrl=       600 IOpCl=  0 I1Cent=           0 NGrid=           0
         NMat0=    1 NMatS0=  67161 NMatT0=    0 NMatD0=    1 NMtDS0=    0 NMtDT0=    0
 Symmetry not used in FoFCou.
 Two-electron integral symmetry not used.
          MDV=    3758096384 using IRadAn=       1.
          Solving linear equations simultaneously, MaxMat=       0.
          There are    39 degrees of freedom in the 1st order CPHF.  IDoFFX=6 NUNeed=     0.
     33 vectors produced by pass  0 Test12= 3.98D-14 2.56D-09 XBig12= 1.85D-01 7.71D-02.
 AX will form    33 AO Fock derivatives at one time.
     33 vectors produced by pass  1 Test12= 3.98D-14 2.56D-09 XBig12= 3.44D-02 2.99D-02.
     33 vectors produced by pass  2 Test12= 3.98D-14 2.56D-09 XBig12= 1.12D-03 7.70D-03.
     33 vectors produced by pass  3 Test12= 3.98D-14 2.56D-09 XBig12= 2.48D-05 1.04D-03.
     33 vectors produced by pass  4 Test12= 3.98D-14 2.56D-09 XBig12= 3.61D-07 8.39D-05.
     33 vectors produced by pass  5 Test12= 3.98D-14 2.56D-09 XBig12= 4.06D-09 7.64D-06.
     33 vectors produced by pass  6 Test12= 3.98D-14 2.56D-09 XBig12= 3.27D-11 7.73D-07.
     23 vectors produced by pass  7 Test12= 3.98D-14 2.56D-09 XBig12= 2.02D-13 6.49D-08.
      4 vectors produced by pass  8 Test12= 3.98D-14 2.56D-09 XBig12= 1.09D-15 3.92D-09.
 InvSVY:  IOpt=1 It=  1 EMax= 1.33D-15
 Solved reduced A of dimension   258 with    33 vectors.
 End of Minotr F.D. properties file   721 does not exist.
 End of Minotr F.D. properties file   722 does not exist.
 End of Minotr F.D. properties file   788 does not exist.
 Leave Link 1002 at Sat May 24 05:03:07 2025, MaxMem=  3758096384 cpu:             606.4 elap:              77.1
 (Enter /apps/easybuild-2022/easybuild/software/Compiler/NVHPC/22.11-CUDA-11.7.0/Gaussian/g16c01-CUDA-11.7.0/g16/l701.exe)
 ... and contract with generalized density number  0.
 Compute integral second derivatives.
   1 Symmetry operations used in ECPInt.
 ECPInt:  NShTT=    8515 NPrTT=   27988 LenC2=    7906 LenP2D=   19116.
 LDataN:  DoStor=T MaxTD1= 8 Len=  415
 Leave Link  701 at Sat May 24 05:03:07 2025, MaxMem=  3758096384 cpu:               0.7 elap:               0.1
 (Enter /apps/easybuild-2022/easybuild/software/Compiler/NVHPC/22.11-CUDA-11.7.0/Gaussian/g16c01-CUDA-11.7.0/g16/l702.exe)
 L702 exits ... SP integral derivatives will be done elsewhere.
 Leave Link  702 at Sat May 24 05:03:08 2025, MaxMem=  3758096384 cpu:               0.0 elap:               0.0
 (Enter /apps/easybuild-2022/easybuild/software/Compiler/NVHPC/22.11-CUDA-11.7.0/Gaussian/g16c01-CUDA-11.7.0/g16/l703.exe)
 Integral derivatives from FoFJK, PRISM(SPDF).
 Compute integral second derivatives, UseDBF=F ICtDFT=           0.
 Calling FoFJK, ICntrl=    100127 FMM=F ISym2X=0 I1Cent= 0 IOpClX= 0 NMat=1 NMatS=1 NMatT=0.
 FoFJK:  IHMeth= 1 ICntrl=  100127 DoSepK=F KAlg= 0 I1Cent=           0 FoldK=F
 IRaf=         0 NMat=       1 IRICut=       1 DoRegI=T DoRafI=F ISym2E= 0 IDoP0=0 IntGTp=1.
 FoFCou: FMM=F IPFlag=           0 FMFlag=      100000 FMFlg1=         800
         NFxFlg=           0 DoJE=F BraDBF=F KetDBF=F FulRan=T
         wScrn=  0.000000 ICntrl=    100127 IOpCl=  0 I1Cent=           0 NGrid=           0
         NMat0=    1 NMatS0=      1 NMatT0=    0 NMatD0=    1 NMtDS0=    0 NMtDT0=    0
 Symmetry not used in FoFCou.
 Leave Link  703 at Sat May 24 05:04:59 2025, MaxMem=  3758096384 cpu:             882.0 elap:             111.0
 (Enter /apps/easybuild-2022/easybuild/software/Compiler/NVHPC/22.11-CUDA-11.7.0/Gaussian/g16c01-CUDA-11.7.0/g16/l716.exe)
 Dipole        =-3.48382739D-01 3.25932750D-01-8.00577802D-01
 Polarizability= 0.00000000D+00 0.00000000D+00 0.00000000D+00
                 0.00000000D+00 0.00000000D+00 0.00000000D+00
 -------------------------------------------------------------------
 Center     Atomic                   Forces (Hartrees/Bohr)
 Number     Number              X              Y              Z
 -------------------------------------------------------------------
      1        6           0.004195749    0.004120159    0.002638390
      2        6          -0.000053086    0.000009728   -0.009286399
      3        9           0.003323349    0.018467487   -0.010727918
      4        9          -0.012286985   -0.018988083   -0.004265684
      5       16          -0.005781400   -0.009566092   -0.008581609
      6        8          -0.013190925   -0.006456198   -0.001133956
      7        8           0.004019583   -0.003397459   -0.000853136
      8        8           0.000620829   -0.001974310    0.001507140
      9        9           0.010743198    0.012171387    0.004850819
     10        9          -0.000135511    0.006042582    0.014097524
     11        9           0.008654312   -0.000696493    0.011741615
     12        1          -0.000109114    0.000267291    0.000013214
 -------------------------------------------------------------------
 Cartesian Forces:  Max     0.018988083 RMS     0.008011966
 Force constants in Cartesian coordinates: 
                1             2             3             4             5 
      1  0.553663D+00
      2 -0.553114D-01  0.539001D+00
      3 -0.170393D-01 -0.306769D-01  0.561994D+00
      4 -0.741537D-01  0.670357D-02 -0.835484D-02  0.375208D+00
      5 -0.371792D-01 -0.767587D-01 -0.132111D-01 -0.531678D-01  0.459551D+00
      6  0.355721D-02  0.545953D-02 -0.385521D-01 -0.339297D-01  0.276721D-02
      7  0.483260D-02 -0.164282D-01  0.142997D-01 -0.645716D-01  0.913985D-02
      8 -0.318071D-02 -0.212852D-01  0.427360D-01  0.615778D-02 -0.105416D+00
      9 -0.497880D-02  0.178985D-01 -0.406061D-01 -0.153832D-01  0.963717D-01
     10  0.183253D-02 -0.436921D-02 -0.579457D-04 -0.118835D+00  0.792546D-01
     11  0.271685D-01 -0.800094D-02 -0.177950D-01  0.730383D-01 -0.205929D+00
     12  0.721235D-02 -0.534961D-02 -0.588310D-02  0.502364D-01 -0.908820D-01
     13 -0.664210D-02 -0.323311D-01 -0.150920D-02 -0.107372D+00  0.178593D-01
     14 -0.169719D-01  0.167062D-01 -0.367520D-02 -0.354556D-01 -0.343666D-01
     15 -0.312479D-02 -0.143534D-02  0.717401D-02  0.378470D-02  0.406156D-02
     16  0.954373D-03  0.951133D-02  0.380992D-03  0.158125D-01 -0.923940D-02
     17  0.221826D-02 -0.111249D-03  0.203870D-03  0.109388D-01 -0.373671D-03
     18  0.178806D-02  0.613936D-02 -0.220575D-02  0.153253D-01 -0.993278D-02
     19  0.374148D-02  0.815557D-02  0.370693D-04  0.116213D-01  0.153054D-01
     20  0.487681D-02 -0.112536D-01  0.725983D-03 -0.478332D-02  0.455602D-03
     21  0.121859D-02 -0.435873D-02 -0.240727D-02 -0.922338D-02 -0.278052D-02
     22  0.865887D-03  0.105671D-01 -0.560259D-03 -0.405662D-02 -0.230549D-01
     23  0.382324D-02  0.574072D-02  0.960993D-03  0.646634D-02 -0.195209D-01
     24 -0.159450D-02 -0.533501D-02 -0.193684D-02 -0.746269D-02  0.158613D-01
     25 -0.943134D-01 -0.151136D-01 -0.502191D-01 -0.182224D-02 -0.293345D-02
     26 -0.138373D-01 -0.899894D-01 -0.432430D-01 -0.109289D-01 -0.359358D-02
     27 -0.510692D-01 -0.437569D-01 -0.256932D+00 -0.719721D-02  0.282838D-03
     28 -0.117824D+00  0.822481D-01 -0.314278D-01  0.820309D-02 -0.213079D-02
     29  0.822728D-01 -0.274556D+00  0.682214D-01  0.251249D-01 -0.165242D-01
     30 -0.308021D-01  0.654673D-01 -0.992419D-01 -0.243303D-02  0.264018D-02
     31 -0.272478D+00  0.692633D-02  0.940777D-01 -0.399430D-01  0.100253D-01
     32  0.694660D-02 -0.798131D-01 -0.467960D-02 -0.229995D-01  0.406779D-02
     33  0.938790D-01 -0.595081D-02 -0.121959D+00  0.129932D-01 -0.351307D-02
     34 -0.478485D-03 -0.558434D-03  0.373064D-03 -0.898806D-04 -0.387877D-02
     35 -0.825716D-03  0.320218D-03  0.432483D-03 -0.109457D-02 -0.159155D-02
     36  0.953407D-03  0.189858D-02  0.555809D-03  0.164446D-02 -0.166532D-02
                6             7             8             9            10 
      6  0.495754D+00
      7 -0.267489D-01  0.789813D-01
      8  0.885881D-01  0.216093D-01  0.132759D+00
      9 -0.275072D+00  0.198358D-01 -0.103517D+00  0.395160D+00
     10  0.557802D-01  0.934393D-02 -0.361124D-03  0.140071D-01  0.131606D+00
     11 -0.906388D-01 -0.283214D-02  0.173756D-01 -0.196612D-01 -0.101192D+00
     12 -0.125780D+00  0.261909D-01 -0.336281D-01 -0.652867D-01 -0.857944D-01
     13 -0.282040D-01 -0.676768D-02 -0.646247D-02  0.321998D-02 -0.110197D-01
     14 -0.714371D-02  0.837178D-02 -0.628083D-02  0.137865D-01  0.374367D-01
     15 -0.231670D-01 -0.311564D-01  0.140368D-01 -0.449158D-01  0.219878D-01
     16 -0.742446D-02 -0.638249D-02  0.334474D-02 -0.110638D-01 -0.847027D-03
     17 -0.234591D-02 -0.204273D-02  0.166718D-02 -0.262991D-02 -0.436566D-02
     18 -0.358015D-02 -0.350702D-02  0.611617D-04 -0.174284D-02 -0.438178D-02
     19  0.206887D-01 -0.204630D-02  0.126844D-02 -0.670310D-02 -0.166522D-01
     20 -0.102639D-01  0.639350D-03  0.132878D-02  0.292509D-02  0.434162D-02
     21 -0.340782D-02  0.292346D-02 -0.164052D-02  0.948755D-02  0.257851D-02
     22  0.715018D-02 -0.822600D-02 -0.800398D-02  0.194357D-02 -0.139462D-02
     23  0.138880D-01 -0.179870D-02  0.341041D-02 -0.469004D-02 -0.636143D-02
     24 -0.115963D-01 -0.305578D-02 -0.861300D-02  0.113470D-01  0.139434D-02
     25 -0.150579D-01 -0.310482D-02 -0.729730D-02 -0.340066D-02 -0.432702D-04
     26 -0.161011D-01 -0.996720D-02 -0.117450D-01 -0.899848D-02  0.457854D-05
     27 -0.237373D-01  0.412339D-02  0.415730D-02  0.875082D-02 -0.145978D-02
     28  0.574115D-03 -0.383714D-03 -0.964088D-03  0.242305D-02  0.639386D-03
     29  0.100214D-01 -0.687033D-02 -0.942652D-02  0.847805D-02 -0.340167D-02
     30  0.552908D-02  0.890186D-03 -0.132812D-02  0.189631D-02  0.536356D-03
     31  0.159783D-01 -0.805243D-03 -0.832410D-02  0.568700D-02  0.553052D-02
     32  0.375621D-02  0.108579D-02 -0.216877D-02  0.219372D-02 -0.185642D-02
     33  0.125228D-02 -0.112770D-02 -0.101441D-03  0.238686D-02 -0.352311D-02
     34  0.763630D-02 -0.869979D-03  0.221354D-02 -0.558700D-02 -0.159979D-03
     35  0.201296D-02 -0.906719D-03 -0.219421D-03 -0.215679D-02  0.870056D-03
     36  0.235774D-02 -0.266769D-02 -0.751158D-03 -0.140505D-02 -0.106723D-02
               11            12            13            14            15 
     11  0.218236D+00
     12  0.139783D+00  0.193126D+00
     13  0.287804D-02  0.373865D-02  0.524694D+00
     14 -0.209813D-01 -0.111502D-01 -0.129582D+00  0.864434D+00
     15 -0.172762D-01 -0.616555D-02  0.259027D-01  0.298886D+00  0.110006D+01
     16  0.129701D-03  0.706889D-03 -0.134526D+00 -0.435473D-01 -0.158569D+00
     17  0.479491D-02  0.351131D-02 -0.428464D-01 -0.135836D+00 -0.168903D+00
     18  0.585882D-02  0.512912D-02 -0.139203D+00 -0.161785D+00 -0.624234D+00
     19  0.860721D-02  0.321055D-02 -0.202171D+00  0.203850D+00  0.119489D+00
     20 -0.249511D-03 -0.264680D-04  0.190518D+00 -0.460545D+00 -0.228531D+00
     21  0.526110D-04  0.661614D-03  0.115679D+00 -0.227032D+00 -0.229722D+00
     22  0.243327D-02  0.872038D-03 -0.707431D-01 -0.291524D-01  0.152534D-01
     23  0.736747D-02  0.150701D-02 -0.215237D-01 -0.217088D+00  0.592034D-01
     24 -0.132771D-02  0.110847D-02  0.165394D-01  0.915653D-01 -0.143275D+00
     25 -0.538127D-02 -0.186922D-02  0.422658D-02  0.389582D-03  0.797025D-03
     26 -0.439144D-02 -0.164983D-02  0.752559D-02 -0.323993D-02  0.820191D-03
     27 -0.440260D-02  0.414831D-03  0.689420D-02 -0.525772D-03 -0.130939D-02
     28 -0.239803D-02 -0.594414D-03 -0.162927D-02  0.595344D-02  0.633272D-03
     29 -0.972035D-02 -0.330952D-02  0.889193D-02 -0.550382D-02  0.217631D-03
     30  0.274865D-02  0.740981D-03 -0.108627D-02  0.200590D-02 -0.162108D-02
     31 -0.220362D-02 -0.278510D-02  0.100520D-01 -0.303990D-03  0.246338D-02
     32  0.202221D-02  0.177763D-02  0.671125D-02 -0.356731D-02  0.193246D-03
     33  0.225381D-02  0.197860D-02 -0.288680D-02  0.131970D-03 -0.190249D-02
     34 -0.247923D-03 -0.112458D-02  0.189893D-02 -0.988640D-03  0.253879D-02
     35 -0.523188D-03 -0.582775D-03 -0.163897D-02  0.626878D-02  0.387274D-01
     36  0.405229D-03 -0.442339D-04  0.916050D-03  0.493707D-02 -0.309227D-01
               16            17            18            19            20 
     16  0.934764D-01
     17  0.395250D-01  0.119634D+00
     18  0.155416D+00  0.162139D+00  0.671745D+00
     19  0.216511D-01 -0.721122D-02 -0.123332D-01  0.172964D+00
     20  0.107099D-01  0.475114D-02 -0.156275D-02 -0.221223D+00  0.491304D+00
     21  0.171102D-01 -0.324453D-01 -0.628802D-02 -0.125543D+00  0.250726D+00
     22  0.104777D-01  0.538292D-02 -0.858397D-02  0.175313D-01  0.167460D-01
     23 -0.389300D-02  0.927689D-02 -0.381714D-02 -0.289980D-02 -0.334816D-01
     24  0.337600D-02  0.384037D-01 -0.433513D-01  0.106274D-02 -0.755149D-02
     25 -0.100031D-02 -0.349665D-03 -0.788884D-03 -0.122702D-02  0.346573D-03
     26 -0.183378D-02  0.691864D-05 -0.110915D-02 -0.194920D-02  0.220167D-02
     27 -0.150994D-02 -0.207692D-03 -0.182135D-03 -0.178353D-02  0.998022D-03
     28  0.591891D-03 -0.682388D-03 -0.192687D-04 -0.361020D-03 -0.312038D-02
     29 -0.269527D-02  0.369619D-03 -0.154166D-02 -0.321657D-02  0.409698D-02
     30  0.377460D-03 -0.177152D-03  0.741500D-03  0.614737D-03 -0.747774D-03
     31 -0.274948D-02 -0.968762D-03 -0.283302D-02 -0.220238D-02  0.522609D-03
     32 -0.189748D-02  0.635820D-04 -0.115682D-02 -0.150554D-02  0.208930D-02
     33  0.700505D-03  0.316276D-03  0.121561D-02  0.589522D-03 -0.610923D-04
     34  0.254112D-02  0.401793D-03 -0.878426D-03 -0.284878D-02  0.425331D-03
     35 -0.114505D-03 -0.424331D-02  0.670782D-02  0.818520D-03 -0.697523D-03
     36  0.499886D-03  0.213555D-02  0.275316D-02  0.670113D-03 -0.663041D-02
               21            22            23            24            25 
     21  0.211867D+00
     22 -0.672456D-02  0.662467D-01
     23  0.193171D-01  0.377649D-01  0.308045D+00
     24  0.145598D-01 -0.474269D-02  0.468033D-02  0.651704D+00
     25  0.351492D-03 -0.131623D-02 -0.131076D-02  0.915209D-03  0.103111D+00
     26  0.101204D-02 -0.257001D-02 -0.127960D-02  0.936039D-03  0.171037D-02
     27  0.154389D-02 -0.177998D-02 -0.212402D-02  0.213196D-02  0.598704D-01
     28 -0.487821D-03  0.722990D-03 -0.848700D-03  0.226190D-03 -0.736154D-02
     29  0.136255D-02 -0.249980D-02 -0.955442D-04  0.370656D-03  0.171466D-01
     30  0.351266D-03  0.530788D-03 -0.158095D-03  0.253809D-03 -0.453991D-01
     31  0.371019D-03 -0.297101D-02 -0.295625D-02  0.207469D-02  0.281396D-02
     32  0.882039D-03 -0.201280D-02 -0.104286D-02  0.114599D-02  0.126944D-01
     33  0.271811D-03  0.876144D-03  0.768496D-03 -0.309142D-03  0.552352D-01
     34  0.174681D-02 -0.713699D-02 -0.646215D-02 -0.873285D-02  0.373774D-04
     35 -0.509509D-02 -0.560025D-02 -0.613326D-01 -0.130136D+00  0.985688D-04
     36  0.308266D-02 -0.423462D-02 -0.895361D-01 -0.480636D+00 -0.434377D-03
               26            27            28            29            30 
     26  0.990924D-01
     27  0.382640D-01  0.405303D+00
     28  0.235085D-01 -0.407849D-01  0.159004D+00
     29  0.237525D-02  0.309551D-01 -0.151978D+00  0.319588D+00
     30  0.506003D-01 -0.587417D-01  0.710091D-01 -0.108488D+00  0.134571D+00
     31  0.811158D-02  0.351027D-01 -0.414921D-01  0.364724D-01  0.593010D-02
     32  0.105992D-01 -0.234272D-01  0.502330D-01 -0.105732D-01 -0.125208D-01
     33 -0.199634D-01 -0.764185D-01 -0.136020D-02 -0.601625D-02  0.155885D-01
     34  0.225777D-03 -0.406158D-03 -0.110314D-03  0.753373D-03 -0.168202D-03
     35 -0.364590D-04 -0.212980D-03  0.179627D-03 -0.296058D-04 -0.421945D-04
     36 -0.567680D-03 -0.823162D-03 -0.191290D-03 -0.271140D-03 -0.677235D-04
               31            32            33            34            35 
     31  0.344103D+00
     32 -0.474607D-01  0.784248D-01
     33 -0.155310D+00  0.322379D-01  0.177773D+00
     34  0.142096D-03  0.614097D-04 -0.660769D-04  0.707488D-02
     35  0.159266D-03 -0.101514D-03 -0.102444D-03  0.805470D-02  0.621861D-01
     36 -0.757058D-03 -0.402348D-03  0.122868D-03  0.466834D-02  0.904477D-01
               36 
     36  0.505027D+00
 FormGI is forming the generalized inverse of G from B-inverse, IUseBI=4.
 Leave Link  716 at Sat May 24 05:04:59 2025, MaxMem=  3758096384 cpu:               0.0 elap:               0.0
 (Enter /apps/easybuild-2022/easybuild/software/Compiler/NVHPC/22.11-CUDA-11.7.0/Gaussian/g16c01-CUDA-11.7.0/g16/l103.exe)

 GradGradGradGradGradGradGradGradGradGradGradGradGradGradGradGradGradGrad
 Berny optimization.
 Red2BG is reusing G-inverse.
 Internal  Forces:  Max     0.038611259 RMS     0.012745958
 Search for a local minimum.
 Step number   1 out of a maximum of   61
 All quantities printed in internal units (Hartrees-Bohrs-Radians)
 RMS Force = .12746D-01 SwitMx=.10000D-02 MixMth= 1
 Mixed Optimization -- RFO/linear search
 Second derivative matrix not updated -- analytic derivatives used.
 ITU=  0
     Eigenvalues ---   -0.00228   0.00211   0.00509   0.02923   0.07847
     Eigenvalues ---    0.08556   0.10138   0.10348   0.10992   0.11929
     Eigenvalues ---    0.12305   0.12862   0.14684   0.16104   0.19097
     Eigenvalues ---    0.22126   0.22649   0.23698   0.27080   0.36375
     Eigenvalues ---    0.36941   0.38121   0.38860   0.42067   0.44718
     Eigenvalues ---    0.49323   0.52555   0.60607   0.75430   0.75871
 Eigenvalue     1 is  -2.28D-03 should be greater than     0.000000 Eigenvector:
                          D4        D7        D1        D5        D6
   1                    0.34200   0.34029   0.33475   0.33082   0.32922
                          D8        D9        D2        D3        D14
   1                    0.32910   0.32750   0.32357   0.32197  -0.03977
 RFO step:  Lambda=-4.85009901D-02 EMin=-2.28035373D-03
 Linear search not attempted -- first point.
 Maximum step size (   0.300) exceeded in Quadratic search.
    -- Step size scaled by   0.589
 Iteration  1 RMS(Cart)=  0.15608441 RMS(Int)=  0.00766026
 Iteration  2 RMS(Cart)=  0.00919799 RMS(Int)=  0.00228609
 Iteration  3 RMS(Cart)=  0.00003325 RMS(Int)=  0.00228593
 Iteration  4 RMS(Cart)=  0.00000016 RMS(Int)=  0.00228593
 ITry= 1 IFail=0 DXMaxC= 4.38D-01 DCOld= 1.00D+10 DXMaxT= 3.00D-01 DXLimC= 3.00D+00 Rises=F
 Variable       Old X    -DE/DX   Delta X   Delta X   Delta X     New X
                                 (Linear)    (Quad)   (Total)
    R1        3.15141  -0.03421   0.00000  -0.12955  -0.12955   3.02186
    R2        2.52166  -0.00938   0.00000  -0.01633  -0.01633   2.50533
    R3        2.49114  -0.00052   0.00000   0.00521   0.00521   2.49635
    R4        2.50238  -0.00232   0.00000  -0.00003  -0.00003   2.50235
    R5        2.52591   0.01554   0.00000   0.01260   0.01260   2.53851
    R6        2.53096  -0.01146   0.00000  -0.02328  -0.02328   2.50768
    R7        3.65853  -0.01758   0.00000  -0.10777  -0.10777   3.55076
    R8        2.67347  -0.00615   0.00000  -0.00540  -0.00540   2.66807
    R9        2.68039   0.00466   0.00000   0.00157   0.00157   2.68196
   R10        2.97845  -0.00218   0.00000  -0.00610  -0.00610   2.97235
   R11        1.82897  -0.00007   0.00000   0.00039   0.00039   1.82936
    A1        1.95820  -0.01798   0.00000  -0.01757  -0.01755   1.94066
    A2        1.96902  -0.00811   0.00000  -0.01432  -0.01451   1.95451
    A3        1.89431  -0.00474   0.00000  -0.00069  -0.00085   1.89345
    A4        1.83741   0.01744   0.00000   0.03073   0.03072   1.86813
    A5        1.83347   0.01667   0.00000   0.03292   0.03298   1.86645
    A6        1.96729  -0.00156   0.00000  -0.02794  -0.02830   1.93900
    A7        1.69373   0.02538   0.00000   0.08803   0.09422   1.78796
    A8        2.03398  -0.01290   0.00000  -0.02643  -0.02878   2.00520
    A9        2.24828  -0.03861   0.00000  -0.16909  -0.17007   2.07821
   A10        1.89704  -0.00707   0.00000  -0.00790  -0.01086   1.88618
   A11        1.76641  -0.00208   0.00000   0.04518   0.05081   1.81722
   A12        1.78051   0.03692   0.00000   0.09787   0.08897   1.86948
   A13        2.02712  -0.02053   0.00000  -0.06459  -0.06494   1.96219
   A14        1.80653   0.00776   0.00000   0.01240   0.01186   1.81839
   A15        1.66692   0.00625   0.00000   0.03742   0.03772   1.70465
   A16        2.15648   0.00347   0.00000   0.00904   0.00826   2.16475
   A17        1.82517   0.00472   0.00000   0.01694   0.01798   1.84315
   A18        1.91953  -0.00064   0.00000  -0.00215  -0.00258   1.91694
   A19        1.92854   0.00044   0.00000   0.00269   0.00269   1.93123
    D1        0.10647   0.00181   0.00000   0.16248   0.16116   0.26763
    D2        2.11364   0.00416   0.00000   0.19701   0.19438   2.30802
    D3       -1.82272  -0.00162   0.00000   0.09485   0.09875  -1.72397
    D4        2.17833   0.00600   0.00000   0.17977   0.17837   2.35670
    D5       -2.09768   0.00836   0.00000   0.21429   0.21159  -1.88609
    D6        0.24915   0.00258   0.00000   0.11213   0.11596   0.36511
    D7       -1.91170  -0.00542   0.00000   0.13272   0.13153  -1.78018
    D8        0.09548  -0.00306   0.00000   0.16725   0.16474   0.26022
    D9        2.44230  -0.00884   0.00000   0.06508   0.06911   2.51142
   D10       -1.83286   0.01495   0.00000   0.08102   0.08100  -1.75186
   D11        0.58783   0.00892   0.00000   0.04711   0.04765   0.63548
   D12        2.54433   0.01168   0.00000   0.05852   0.05948   2.60381
   D13        2.55395   0.00064   0.00000   0.00027   0.00155   2.55550
   D14       -1.30855  -0.00538   0.00000  -0.03364  -0.03180  -1.34034
   D15        0.64796  -0.00263   0.00000  -0.02223  -0.01997   0.62798
   D16        0.59745  -0.00226   0.00000  -0.03471  -0.03751   0.55994
   D17        3.01814  -0.00829   0.00000  -0.06862  -0.07086   2.94728
   D18       -1.30854  -0.00553   0.00000  -0.05721  -0.05903  -1.36757
   D19       -1.30500  -0.00968   0.00000  -0.02804  -0.02782  -1.33282
   D20        2.90389   0.00878   0.00000   0.02329   0.02312   2.92702
   D21        0.55452   0.00115   0.00000   0.00022   0.00016   0.55468
         Item               Value     Threshold  Converged?
 Maximum Force            0.038611     0.000450     NO 
 RMS     Force            0.012746     0.000300     NO 
 Maximum Displacement     0.438388     0.001800     NO 
 RMS     Displacement     0.158524     0.001200     NO 
 Predicted change in Energy=-2.417600D-02
 Lowest energy point so far.  Saving SCF results.
 GradGradGradGradGradGradGradGradGradGradGradGradGradGradGradGradGradGrad

 Leave Link  103 at Sat May 24 05:04:59 2025, MaxMem=  3758096384 cpu:               0.0 elap:               0.0
 (Enter /apps/easybuild-2022/easybuild/software/Compiler/NVHPC/22.11-CUDA-11.7.0/Gaussian/g16c01-CUDA-11.7.0/g16/l202.exe)
                          Input orientation:                          
 ---------------------------------------------------------------------
 Center     Atomic      Atomic             Coordinates (Angstroms)
 Number     Number       Type             X           Y           Z
 ---------------------------------------------------------------------
      1          6           0       -1.218390   -0.987960   -0.125559
      2          6           0       -0.458123    0.415123   -0.023222
      3          9           0       -0.579280    0.901535   -1.269512
      4          9           0       -1.005461    1.287160    0.813985
      5         16           0        1.393438    0.429119    0.296290
      6          8           0        1.704812    0.694217    1.647650
      7          8           0        1.879446   -0.691996   -0.425594
      8          8           0        1.730965    1.752917   -0.483231
      9          9           0       -1.401144   -1.342923   -1.389779
     10          9           0       -0.540327   -1.961385    0.455598
     11          9           0       -2.419717   -0.855012    0.415374
     12          1           0        1.728480    1.596649   -1.438586
 ---------------------------------------------------------------------
                    Distance matrix (angstroms):
                    1          2          3          4          5
     1  C    0.000000
     2  C    1.599100   0.000000
     3  F    2.299410   1.343323   0.000000
     4  F    2.470679   1.327005   2.161319   0.000000
     5  S    3.001286   1.878979   2.562524   2.599800   0.000000
     6  O    3.810394   2.747362   3.710781   2.896922   1.411880
     7  O    3.126372   2.617603   3.049077   3.711644   1.419231
     8  O    4.042157   2.606417   2.584631   3.063939   1.572901
     9  F    1.325764   2.418159   2.393224   3.454053   3.713846
    10  F    1.321011   2.425658   3.342729   3.301187   3.078854
    11  F    1.324186   2.377701   3.051477   2.597675   4.025336
    12  H    4.133799   2.860157   2.416097   3.555882   2.117823
                    6          7          8          9         10
     6  O    0.000000
     7  O    2.500084   0.000000
     8  O    2.379534   2.450095   0.000000
     9  F    4.798216   3.480751   4.496239   0.000000
    10  F    3.676121   2.871089   4.453786   2.128125   0.000000
    11  F    4.574971   4.383675   4.983668   2.129348   2.181235
    12  H    3.215555   2.507357   0.968054   4.293951   4.625476
                   11         12
    11  F    0.000000
    12  H    5.162882   0.000000
 Symmetry turned off by external request.
 Stoichiometry    C2HF5O3S
 Rotational constants (GHZ):           1.6382295           0.7892855           0.7459363
 Leave Link  202 at Sat May 24 05:04:59 2025, MaxMem=  3758096384 cpu:               0.0 elap:               0.0
 (Enter /apps/easybuild-2022/easybuild/software/Compiler/NVHPC/22.11-CUDA-11.7.0/Gaussian/g16c01-CUDA-11.7.0/g16/l301.exe)
 Standard basis: def2TZVPP (5D, 7F)
 Ernie: Thresh=  0.10000D-02 Tol=  0.10000D-05 Strict=F.
   366 basis functions,   596 primitive gaussians,   423 cartesian basis functions
    49 alpha electrons       49 beta electrons
       nuclear repulsion energy       920.0653634219 Hartrees.
 IExCor= 4336 DFT=T Ex+Corr=M062X ExCW=0 ScaHFX=  0.540000
 ScaDFX=  1.000000  1.000000  1.000000  1.000000 ScalE2=  1.000000  1.000000
 IRadAn=      5 IRanWt=     -1 IRanGd=            0 ICorTp=0 IEmpDi=  4
 NAtoms=   12 NActive=   12 NUniq=   12 SFac= 1.00D+00 NAtFMM=   60 NAOKFM=F Big=F
 Integral buffers will be    131072 words long.
 Raffenetti 2 integral format.
 Two-electron integral symmetry is turned off.
 Leave Link  301 at Sat May 24 05:04:59 2025, MaxMem=  3758096384 cpu:               0.0 elap:               0.0
 (Enter /apps/easybuild-2022/easybuild/software/Compiler/NVHPC/22.11-CUDA-11.7.0/Gaussian/g16c01-CUDA-11.7.0/g16/l302.exe)
 NPDir=0 NMtPBC=     1 NCelOv=     1 NCel=       1 NClECP=     1 NCelD=      1
         NCelK=      1 NCelE2=     1 NClLst=     1 CellRange=     0.0.
 One-electron integrals computed using PRISM.
   1 Symmetry operations used in ECPInt.
 ECPInt:  NShTT=    8515 NPrTT=   27988 LenC2=    7981 LenP2D=   19340.
 LDataN:  DoStor=T MaxTD1= 6 Len=  172
 NBasis=   366 RedAO= T EigKep=  5.24D-04  NBF=   366
 NBsUse=   366 1.00D-06 EigRej= -1.00D+00 NBFU=   366
 Precomputing XC quadrature grid using
 IXCGrd= 4 IRadAn=           5 IRanWt=          -1 IRanGd=           0 AccXCQ= 0.00D+00.
 Generated NRdTot=       0 NPtTot=           0 NUsed=           0 NTot=          32
 NSgBfM=   419   419   419   419   419 MxSgAt=    12 MxSgA2=    12.
 Leave Link  302 at Sat May 24 05:04:59 2025, MaxMem=  3758096384 cpu:               0.6 elap:               0.1
 (Enter /apps/easybuild-2022/easybuild/software/Compiler/NVHPC/22.11-CUDA-11.7.0/Gaussian/g16c01-CUDA-11.7.0/g16/l303.exe)
 DipDrv:  MaxL=1.
 Leave Link  303 at Sat May 24 05:04:59 2025, MaxMem=  3758096384 cpu:               0.1 elap:               0.0
 (Enter /apps/easybuild-2022/easybuild/software/Compiler/NVHPC/22.11-CUDA-11.7.0/Gaussian/g16c01-CUDA-11.7.0/g16/l401.exe)
 Initial guess from the checkpoint file:  "2003846667223680600001_r12_insertion_R_3_2_1_IRC_F_prod.chk"
 B after Tr=    -0.019006   -0.011581   -0.006169
         Rot=    0.999997   -0.000229   -0.001920   -0.001315 Ang=  -0.27 deg.
 Guess basis will be translated and rotated to current coordinates.
 JPrj=2 DoOrth=T DoCkMO=T.
 Generating alternative initial guess.
 ExpMin= 9.52D-02 ExpMax= 6.07D+04 ExpMxC= 2.07D+03 IAcc=3 IRadAn=         5 AccDes= 0.00D+00
 Harris functional with IExCor= 1009 and IRadAn=       5 diagonalized for initial guess.
 HarFok:  IExCor= 1009 AccDes= 0.00D+00 IRadAn=         5 IDoV= 1 UseB2=F ITyADJ=14
 ICtDFT=  3500011 ScaDFX=  1.000000  1.000000  1.000000  1.000000
 FoFCou: FMM=F IPFlag=           0 FMFlag=      100000 FMFlg1=           0
         NFxFlg=           0 DoJE=T BraDBF=F KetDBF=T FulRan=T
         wScrn=  0.000000 ICntrl=       500 IOpCl=  0 I1Cent=   200000004 NGrid=           0
         NMat0=    1 NMatS0=      1 NMatT0=    0 NMatD0=    1 NMtDS0=    0 NMtDT0=    0
 Symmetry not used in FoFCou.
 Harris En= -1199.33489136883    
 Leave Link  401 at Sat May 24 05:04:59 2025, MaxMem=  3758096384 cpu:               4.1 elap:               0.6
 (Enter /apps/easybuild-2022/easybuild/software/Compiler/NVHPC/22.11-CUDA-11.7.0/Gaussian/g16c01-CUDA-11.7.0/g16/l502.exe)
 Keep R1 ints in memory in canonical form, NReq=2293446996.
 FoFCou: FMM=F IPFlag=           0 FMFlag=           0 FMFlg1=           0
         NFxFlg=           0 DoJE=F BraDBF=F KetDBF=F FulRan=T
         wScrn=  0.000000 ICntrl=       600 IOpCl=  0 I1Cent=           0 NGrid=           0
         NMat0=    1 NMatS0=  67161 NMatT0=    0 NMatD0=    1 NMtDS0=    0 NMtDT0=    0
 Symmetry not used in FoFCou.
 Two-electron integral symmetry not used.
 Closed shell SCF:
 Using DIIS extrapolation, IDIIS=  1040.
 NGot=  3758096384 LenX=  1502398672 LenY=  1502219302
 Requested convergence on RMS density matrix=1.00D-08 within  32 cycles.
 Requested convergence on MAX density matrix=1.00D-06.
 Requested convergence on             energy=1.00D-06.
 No special actions if energy rises.
 Integral accuracy reduced to 1.0D-05 until final iterations.

 Cycle   1  Pass 0  IDiag  1:
 E= -1199.88125869745    
 DIIS: error= 4.97D-03 at cycle   1 NSaved=   1.
 NSaved= 1 IEnMin= 1 EnMin= -1199.88125869745     IErMin= 1 ErrMin= 4.97D-03
 ErrMax= 4.97D-03  0.00D+00 EMaxC= 1.00D-01 BMatC= 3.68D-02 BMatP= 3.68D-02
 IDIUse=3 WtCom= 9.50D-01 WtEn= 4.97D-02
 Coeff-Com:  0.100D+01
 Coeff-En:   0.100D+01
 Coeff:      0.100D+01
 Gap=     1.066 Goal=   None    Shift=    0.000
 GapD=    1.066 DampG=2.000 DampE=1.000 DampFc=2.0000 IDamp=-1.
 RMSDP=5.21D-04 MaxDP=1.55D-02              OVMax= 3.73D-02

 Cycle   2  Pass 0  IDiag  1:
 E= -1199.92506640481     Delta-E=       -0.043807707362 Rises=F Damp=F
 DIIS: error= 1.31D-03 at cycle   2 NSaved=   2.
 NSaved= 2 IEnMin= 2 EnMin= -1199.92506640481     IErMin= 2 ErrMin= 1.31D-03
 ErrMax= 1.31D-03  0.00D+00 EMaxC= 1.00D-01 BMatC= 1.83D-03 BMatP= 3.68D-02
 IDIUse=3 WtCom= 9.87D-01 WtEn= 1.31D-02
 Coeff-Com: -0.796D-01 0.108D+01
 Coeff-En:   0.000D+00 0.100D+01
 Coeff:     -0.786D-01 0.108D+01
 Gap=     0.443 Goal=   None    Shift=    0.000
 RMSDP=1.52D-04 MaxDP=7.37D-03 DE=-4.38D-02 OVMax= 1.53D-02

 Cycle   3  Pass 0  IDiag  1:
 E= -1199.92628921047     Delta-E=       -0.001222805664 Rises=F Damp=F
 DIIS: error= 1.38D-03 at cycle   3 NSaved=   3.
 NSaved= 3 IEnMin= 3 EnMin= -1199.92628921047     IErMin= 2 ErrMin= 1.31D-03
 ErrMax= 1.38D-03  0.00D+00 EMaxC= 1.00D-01 BMatC= 2.00D-03 BMatP= 1.83D-03
 IDIUse=3 WtCom= 9.86D-01 WtEn= 1.38D-02
 Coeff-Com: -0.873D-01 0.594D+00 0.493D+00
 Coeff-En:   0.000D+00 0.117D+00 0.883D+00
 Coeff:     -0.861D-01 0.587D+00 0.499D+00
 Gap=     0.443 Goal=   None    Shift=    0.000
 RMSDP=7.31D-05 MaxDP=4.49D-03 DE=-1.22D-03 OVMax= 6.71D-03

 Cycle   4  Pass 0  IDiag  1:
 E= -1199.92759095893     Delta-E=       -0.001301748460 Rises=F Damp=F
 DIIS: error= 2.23D-04 at cycle   4 NSaved=   4.
 NSaved= 4 IEnMin= 4 EnMin= -1199.92759095893     IErMin= 4 ErrMin= 2.23D-04
 ErrMax= 2.23D-04  0.00D+00 EMaxC= 1.00D-01 BMatC= 4.61D-05 BMatP= 1.83D-03
 IDIUse=3 WtCom= 9.98D-01 WtEn= 2.23D-03
 Coeff-Com: -0.124D-01 0.297D-01 0.126D+00 0.857D+00
 Coeff-En:   0.000D+00 0.000D+00 0.000D+00 0.100D+01
 Coeff:     -0.124D-01 0.296D-01 0.125D+00 0.857D+00
 Gap=     0.443 Goal=   None    Shift=    0.000
 RMSDP=1.67D-05 MaxDP=1.03D-03 DE=-1.30D-03 OVMax= 1.59D-03

 Cycle   5  Pass 0  IDiag  1:
 E= -1199.92762000612     Delta-E=       -0.000029047187 Rises=F Damp=F
 DIIS: error= 1.14D-04 at cycle   5 NSaved=   5.
 NSaved= 5 IEnMin= 5 EnMin= -1199.92762000612     IErMin= 5 ErrMin= 1.14D-04
 ErrMax= 1.14D-04  0.00D+00 EMaxC= 1.00D-01 BMatC= 1.53D-05 BMatP= 4.61D-05
 IDIUse=3 WtCom= 9.99D-01 WtEn= 1.14D-03
 Coeff-Com:  0.216D-02-0.446D-01 0.197D-01 0.458D+00 0.565D+00
 Coeff-En:   0.000D+00 0.000D+00 0.000D+00 0.000D+00 0.100D+01
 Coeff:      0.216D-02-0.446D-01 0.197D-01 0.457D+00 0.565D+00
 Gap=     0.443 Goal=   None    Shift=    0.000
 RMSDP=6.60D-06 MaxDP=4.01D-04 DE=-2.90D-05 OVMax= 7.16D-04

 Initial convergence to 1.0D-05 achieved.  Increase integral accuracy.
 Cycle   6  Pass 1  IDiag  1:
 E= -1199.92776226171     Delta-E=       -0.000142255594 Rises=F Damp=F
 DIIS: error= 2.99D-05 at cycle   1 NSaved=   1.
 NSaved= 1 IEnMin= 1 EnMin= -1199.92776226171     IErMin= 1 ErrMin= 2.99D-05
 ErrMax= 2.99D-05  0.00D+00 EMaxC= 1.00D-01 BMatC= 1.34D-06 BMatP= 1.34D-06
 IDIUse=1 WtCom= 1.00D+00 WtEn= 0.00D+00
 Coeff-Com:  0.100D+01
 Coeff:      0.100D+01
 Gap=     0.443 Goal=   None    Shift=    0.000
 RMSDP=6.60D-06 MaxDP=4.01D-04 DE=-1.42D-04 OVMax= 3.57D-04

 Cycle   7  Pass 1  IDiag  1:
 E= -1199.92776260094     Delta-E=       -0.000000339227 Rises=F Damp=F
 DIIS: error= 3.77D-05 at cycle   2 NSaved=   2.
 NSaved= 2 IEnMin= 2 EnMin= -1199.92776260094     IErMin= 1 ErrMin= 2.99D-05
 ErrMax= 3.77D-05  0.00D+00 EMaxC= 1.00D-01 BMatC= 1.08D-06 BMatP= 1.34D-06
 IDIUse=1 WtCom= 1.00D+00 WtEn= 0.00D+00
 Coeff-Com:  0.466D+00 0.534D+00
 Coeff:      0.466D+00 0.534D+00
 Gap=     0.443 Goal=   None    Shift=    0.000
 RMSDP=2.01D-06 MaxDP=1.15D-04 DE=-3.39D-07 OVMax= 2.78D-04

 Cycle   8  Pass 1  IDiag  1:
 E= -1199.92776324608     Delta-E=       -0.000000645145 Rises=F Damp=F
 DIIS: error= 1.29D-05 at cycle   3 NSaved=   3.
 NSaved= 3 IEnMin= 3 EnMin= -1199.92776324608     IErMin= 3 ErrMin= 1.29D-05
 ErrMax= 1.29D-05  0.00D+00 EMaxC= 1.00D-01 BMatC= 1.32D-07 BMatP= 1.08D-06
 IDIUse=1 WtCom= 1.00D+00 WtEn= 0.00D+00
 Coeff-Com:  0.102D-02 0.249D+00 0.750D+00
 Coeff:      0.102D-02 0.249D+00 0.750D+00
 Gap=     0.443 Goal=   None    Shift=    0.000
 RMSDP=7.65D-07 MaxDP=4.00D-05 DE=-6.45D-07 OVMax= 8.56D-05

 Cycle   9  Pass 1  IDiag  1:
 E= -1199.92776333709     Delta-E=       -0.000000091003 Rises=F Damp=F
 DIIS: error= 2.51D-06 at cycle   4 NSaved=   4.
 NSaved= 4 IEnMin= 4 EnMin= -1199.92776333709     IErMin= 4 ErrMin= 2.51D-06
 ErrMax= 2.51D-06  0.00D+00 EMaxC= 1.00D-01 BMatC= 7.90D-09 BMatP= 1.32D-07
 IDIUse=1 WtCom= 1.00D+00 WtEn= 0.00D+00
 Coeff-Com: -0.277D-01 0.763D-01 0.315D+00 0.636D+00
 Coeff:     -0.277D-01 0.763D-01 0.315D+00 0.636D+00
 Gap=     0.443 Goal=   None    Shift=    0.000
 RMSDP=1.65D-07 MaxDP=6.69D-06 DE=-9.10D-08 OVMax= 1.62D-05

 Cycle  10  Pass 1  IDiag  1:
 E= -1199.92776334193     Delta-E=       -0.000000004846 Rises=F Damp=F
 DIIS: error= 1.08D-06 at cycle   5 NSaved=   5.
 NSaved= 5 IEnMin= 5 EnMin= -1199.92776334193     IErMin= 5 ErrMin= 1.08D-06
 ErrMax= 1.08D-06  0.00D+00 EMaxC= 1.00D-01 BMatC= 7.25D-10 BMatP= 7.90D-09
 IDIUse=1 WtCom= 1.00D+00 WtEn= 0.00D+00
 Coeff-Com: -0.889D-02 0.134D-02 0.289D-01 0.229D+00 0.749D+00
 Coeff:     -0.889D-02 0.134D-02 0.289D-01 0.229D+00 0.749D+00
 Gap=     0.443 Goal=   None    Shift=    0.000
 RMSDP=6.84D-08 MaxDP=2.68D-06 DE=-4.85D-09 OVMax= 8.78D-06

 Cycle  11  Pass 1  IDiag  1:
 E= -1199.92776334249     Delta-E=       -0.000000000552 Rises=F Damp=F
 DIIS: error= 4.24D-07 at cycle   6 NSaved=   6.
 NSaved= 6 IEnMin= 6 EnMin= -1199.92776334249     IErMin= 6 ErrMin= 4.24D-07
 ErrMax= 4.24D-07  0.00D+00 EMaxC= 1.00D-01 BMatC= 1.26D-10 BMatP= 7.25D-10
 IDIUse=1 WtCom= 1.00D+00 WtEn= 0.00D+00
 Coeff-Com:  0.196D-02-0.149D-01-0.531D-01-0.426D-01 0.310D+00 0.799D+00
 Coeff:      0.196D-02-0.149D-01-0.531D-01-0.426D-01 0.310D+00 0.799D+00
 Gap=     0.443 Goal=   None    Shift=    0.000
 RMSDP=3.18D-08 MaxDP=1.03D-06 DE=-5.52D-10 OVMax= 2.88D-06

 Cycle  12  Pass 1  IDiag  1:
 E= -1199.92776334266     Delta-E=       -0.000000000171 Rises=F Damp=F
 DIIS: error= 8.42D-08 at cycle   7 NSaved=   7.
 NSaved= 7 IEnMin= 7 EnMin= -1199.92776334266     IErMin= 7 ErrMin= 8.42D-08
 ErrMax= 8.42D-08  0.00D+00 EMaxC= 1.00D-01 BMatC= 7.15D-12 BMatP= 1.26D-10
 IDIUse=1 WtCom= 1.00D+00 WtEn= 0.00D+00
 Coeff-Com:  0.115D-02-0.592D-02-0.219D-01-0.274D-01 0.929D-01 0.321D+00
 Coeff-Com:  0.640D+00
 Coeff:      0.115D-02-0.592D-02-0.219D-01-0.274D-01 0.929D-01 0.321D+00
 Coeff:      0.640D+00
 Gap=     0.443 Goal=   None    Shift=    0.000
 RMSDP=5.87D-09 MaxDP=3.74D-07 DE=-1.71D-10 OVMax= 6.72D-07

 SCF Done:  E(RM062X) =  -1199.92776334     A.U. after   12 cycles
            NFock= 12  Conv=0.59D-08     -V/T= 2.0029
 KE= 1.196436392796D+03 PE=-4.686221324894D+03 EE= 1.369791805333D+03
 Leave Link  502 at Sat May 24 05:05:32 2025, MaxMem=  3758096384 cpu:             133.8 elap:              33.0
 (Enter /apps/easybuild-2022/easybuild/software/Compiler/NVHPC/22.11-CUDA-11.7.0/Gaussian/g16c01-CUDA-11.7.0/g16/l508.exe)
 QCSCF skips out because SCF is already converged.
 Leave Link  508 at Sat May 24 05:05:33 2025, MaxMem=  3758096384 cpu:               0.0 elap:               0.0
 (Enter /apps/easybuild-2022/easybuild/software/Compiler/NVHPC/22.11-CUDA-11.7.0/Gaussian/g16c01-CUDA-11.7.0/g16/l701.exe)
 ... and contract with generalized density number  0.
 Compute integral first derivatives.
   1 Symmetry operations used in ECPInt.
 ECPInt:  NShTT=    8515 NPrTT=   27988 LenC2=    7981 LenP2D=   19340.
 LDataN:  DoStor=T MaxTD1= 7 Len=  274
 Leave Link  701 at Sat May 24 05:05:33 2025, MaxMem=  3758096384 cpu:               0.5 elap:               0.1
 (Enter /apps/easybuild-2022/easybuild/software/Compiler/NVHPC/22.11-CUDA-11.7.0/Gaussian/g16c01-CUDA-11.7.0/g16/l702.exe)
 L702 exits ... SP integral derivatives will be done elsewhere.
 Leave Link  702 at Sat May 24 05:05:33 2025, MaxMem=  3758096384 cpu:               0.0 elap:               0.0
 (Enter /apps/easybuild-2022/easybuild/software/Compiler/NVHPC/22.11-CUDA-11.7.0/Gaussian/g16c01-CUDA-11.7.0/g16/l703.exe)
 Integral derivatives from FoFJK, PRISM(SPDF).
 Compute integral first derivatives, UseDBF=F ICtDFT=           0.
 Calling FoFJK, ICntrl=      2127 FMM=F ISym2X=0 I1Cent= 0 IOpClX= 0 NMat=1 NMatS=1 NMatT=0.
 FoFJK:  IHMeth= 1 ICntrl=    2127 DoSepK=F KAlg= 0 I1Cent=           0 FoldK=F
 IRaf=         0 NMat=       1 IRICut=       1 DoRegI=T DoRafI=F ISym2E= 0 IDoP0=0 IntGTp=1.
 FoFCou: FMM=F IPFlag=           0 FMFlag=      100000 FMFlg1=         800
         NFxFlg=           0 DoJE=F BraDBF=F KetDBF=F FulRan=T
         wScrn=  0.000000 ICntrl=      2127 IOpCl=  0 I1Cent=           0 NGrid=           0
         NMat0=    1 NMatS0=      1 NMatT0=    0 NMatD0=    1 NMtDS0=    0 NMtDT0=    0
 Symmetry not used in FoFCou.
 Leave Link  703 at Sat May 24 05:05:45 2025, MaxMem=  3758096384 cpu:              93.5 elap:              11.8
 (Enter /apps/easybuild-2022/easybuild/software/Compiler/NVHPC/22.11-CUDA-11.7.0/Gaussian/g16c01-CUDA-11.7.0/g16/l716.exe)
 Dipole        =-2.61240690D-01 4.56253871D-01-8.53052814D-01
 -------------------------------------------------------------------
 Center     Atomic                   Forces (Hartrees/Bohr)
 Number     Number              X              Y              Z
 -------------------------------------------------------------------
      1        6           0.002542117    0.001482577    0.002682216
      2        6           0.003042805    0.001239415   -0.012123466
      3        9           0.000828469    0.009052933   -0.003850097
      4        9          -0.005830930   -0.011008225    0.001636073
      5       16          -0.003090755   -0.004363585   -0.005827231
      6        8          -0.006807371   -0.003721715    0.000266689
      7        8           0.002767591   -0.000900919   -0.000736465
      8        8           0.000161524   -0.000746658    0.001014782
      9        9           0.005310970    0.005741947    0.001354550
     10        9          -0.002528827    0.003759551    0.008913286
     11        9           0.003329585   -0.000632618    0.006633090
     12        1           0.000274822    0.000097298    0.000036574
 -------------------------------------------------------------------
 Cartesian Forces:  Max     0.012123466 RMS     0.004657575
 Leave Link  716 at Sat May 24 05:05:45 2025, MaxMem=  3758096384 cpu:               0.0 elap:               0.0
 (Enter /apps/easybuild-2022/easybuild/software/Compiler/NVHPC/22.11-CUDA-11.7.0/Gaussian/g16c01-CUDA-11.7.0/g16/l103.exe)

 GradGradGradGradGradGradGradGradGradGradGradGradGradGradGradGradGradGrad
 Berny optimization.
 Using GEDIIS/GDIIS optimizer.
 FormGI is forming the generalized inverse of G from B-inverse, IUseBI=4.
 Internal  Forces:  Max     0.017666261 RMS     0.006465830
 Search for a local minimum.
 Step number   2 out of a maximum of   61
 All quantities printed in internal units (Hartrees-Bohrs-Radians)
 RMS Force = .64658D-02 SwitMx=.10000D-02 MixMth= 1
 Mixed Optimization -- RFO/linear search
 Update second derivatives using D2CorX and points    1    2
 DE= -2.32D-02 DEPred=-2.42D-02 R= 9.59D-01
 TightC=F SS=  1.41D+00  RLast= 5.71D-01 DXNew= 5.0454D-01 1.7129D+00
 Trust test= 9.59D-01 RLast= 5.71D-01 DXMaxT set to 5.05D-01
 ITU=  1  0
 Use linear search instead of GDIIS.
     Eigenvalues ---   -0.00227   0.00210   0.00509   0.03288   0.07999
     Eigenvalues ---    0.08959   0.10082   0.10911   0.11037   0.11906
     Eigenvalues ---    0.12416   0.13732   0.14813   0.16096   0.18112
     Eigenvalues ---    0.21887   0.22420   0.23524   0.26852   0.36371
     Eigenvalues ---    0.36942   0.38145   0.38879   0.42111   0.44583
     Eigenvalues ---    0.49309   0.52553   0.60561   0.75394   0.75896
 Eigenvalue     1 is  -2.27D-03 should be greater than     0.000000 Eigenvector:
                          D4        D7        D1        D5        D8
   1                    0.34157   0.34035   0.33485   0.33194   0.33072
                          D2        D6        D9        D3        D17
   1                    0.32522   0.32498   0.32376   0.31826  -0.04824
 RFO step:  Lambda=-6.33154386D-03 EMin=-2.26666206D-03
 Quartic linear search produced a step of  0.83946.
 Iteration  1 RMS(Cart)=  0.16342773 RMS(Int)=  0.03189257
 Iteration  2 RMS(Cart)=  0.05167814 RMS(Int)=  0.00513141
 Iteration  3 RMS(Cart)=  0.00211607 RMS(Int)=  0.00494712
 Iteration  4 RMS(Cart)=  0.00001029 RMS(Int)=  0.00494712
 Iteration  5 RMS(Cart)=  0.00000017 RMS(Int)=  0.00494712
 ITry= 1 IFail=0 DXMaxC= 5.50D-01 DCOld= 1.00D+10 DXMaxT= 5.05D-01 DXLimC= 3.00D+00 Rises=F
 Variable       Old X    -DE/DX   Delta X   Delta X   Delta X     New X
                                 (Linear)    (Quad)   (Total)
    R1        3.02186  -0.01445  -0.10875   0.01454  -0.09421   2.92765
    R2        2.50533  -0.00356  -0.01371   0.00098  -0.01272   2.49261
    R3        2.49635  -0.00014   0.00438   0.00035   0.00473   2.50108
    R4        2.50235  -0.00038  -0.00003   0.00082   0.00079   2.50314
    R5        2.53851   0.00678   0.01058  -0.01668  -0.00610   2.53241
    R6        2.50768  -0.00380  -0.01954   0.00911  -0.01043   2.49725
    R7        3.55076  -0.00757  -0.09047   0.01322  -0.07724   3.47351
    R8        2.66807  -0.00194  -0.00453   0.00177  -0.00276   2.66530
    R9        2.68196   0.00203   0.00132  -0.00245  -0.00113   2.68083
   R10        2.97235  -0.00097  -0.00512   0.00239  -0.00273   2.96962
   R11        1.82936  -0.00005   0.00033   0.00017   0.00050   1.82986
    A1        1.94066  -0.00849  -0.01473  -0.00796  -0.02273   1.91793
    A2        1.95451  -0.00391  -0.01218  -0.01594  -0.02840   1.92610
    A3        1.89345  -0.00108  -0.00072   0.02706   0.02618   1.91964
    A4        1.86813   0.00880   0.02579   0.01450   0.04013   1.90826
    A5        1.86645   0.00814   0.02768   0.00535   0.03312   1.89957
    A6        1.93900  -0.00297  -0.02375  -0.02292  -0.04707   1.89192
    A7        1.78796   0.01473   0.07910   0.04367   0.13289   1.92084
    A8        2.00520  -0.00942  -0.02416  -0.06305  -0.09415   1.91105
    A9        2.07821  -0.01767  -0.14277   0.02127  -0.12551   1.95270
   A10        1.88618  -0.00252  -0.00912   0.04021   0.03009   1.91626
   A11        1.81722  -0.00011   0.04266  -0.00292   0.04847   1.86569
   A12        1.86948   0.01639   0.07469  -0.02371   0.02711   1.89660
   A13        1.96219  -0.01146  -0.05451  -0.01922  -0.07384   1.88835
   A14        1.81839   0.00512   0.00995   0.03304   0.04263   1.86101
   A15        1.70465   0.00397   0.03167  -0.02056   0.01123   1.71588
   A16        2.16475   0.00122   0.00694  -0.00184   0.00457   2.16932
   A17        1.84315   0.00285   0.01509   0.01077   0.02690   1.87005
   A18        1.91694  -0.00111  -0.00217  -0.00810  -0.01110   1.90584
   A19        1.93123   0.00028   0.00226  -0.00555  -0.00330   1.92794
    D1        0.26763   0.00155   0.13529  -0.30953  -0.17574   0.09189
    D2        2.30802   0.00328   0.16317  -0.26397  -0.10820   2.19982
    D3       -1.72397  -0.00007   0.08290  -0.34724  -0.25565  -1.97962
    D4        2.35670   0.00428   0.14973  -0.30731  -0.15907   2.19764
    D5       -1.88609   0.00601   0.17762  -0.26175  -0.09153  -1.97762
    D6        0.36511   0.00266   0.09734  -0.34502  -0.23898   0.12613
    D7       -1.78018  -0.00281   0.11041  -0.32793  -0.21881  -1.99899
    D8        0.26022  -0.00108   0.13829  -0.28237  -0.15128   0.10894
    D9        2.51142  -0.00443   0.05802  -0.36565  -0.29873   2.21268
   D10       -1.75186   0.01053   0.06800   0.23242   0.30009  -1.45178
   D11        0.63548   0.00736   0.04000   0.24321   0.28320   0.91868
   D12        2.60381   0.00879   0.04993   0.23614   0.28678   2.89059
   D13        2.55550   0.00119   0.00130   0.16887   0.17198   2.72748
   D14       -1.34034  -0.00197  -0.02669   0.17965   0.15509  -1.18525
   D15        0.62798  -0.00054  -0.01677   0.17259   0.15868   0.78666
   D16        0.55994  -0.00273  -0.03149   0.13476   0.10043   0.66037
   D17        2.94728  -0.00589  -0.05948   0.14555   0.08354   3.03083
   D18       -1.36757  -0.00446  -0.04956   0.13848   0.08712  -1.28045
   D19       -1.33282  -0.00582  -0.02335  -0.07173  -0.09486  -1.42768
   D20        2.92702   0.00422   0.01941  -0.04638  -0.02704   2.89998
   D21        0.55468   0.00118   0.00014  -0.04639  -0.04641   0.50828
         Item               Value     Threshold  Converged?
 Maximum Force            0.017666     0.000450     NO 
 RMS     Force            0.006466     0.000300     NO 
 Maximum Displacement     0.550126     0.001800     NO 
 RMS     Displacement     0.200942     0.001200     NO 
 Predicted change in Energy=-9.892104D-03
 Lowest energy point so far.  Saving SCF results.
 GradGradGradGradGradGradGradGradGradGradGradGradGradGradGradGradGradGrad

 Leave Link  103 at Sat May 24 05:05:45 2025, MaxMem=  3758096384 cpu:               0.1 elap:               0.0
 (Enter /apps/easybuild-2022/easybuild/software/Compiler/NVHPC/22.11-CUDA-11.7.0/Gaussian/g16c01-CUDA-11.7.0/g16/l202.exe)
                          Input orientation:                          
 ---------------------------------------------------------------------
 Center     Atomic      Atomic             Coordinates (Angstroms)
 Number     Number       Type             X           Y           Z
 ---------------------------------------------------------------------
      1          6           0       -1.168441   -0.940291   -0.071807
      2          6           0       -0.482254    0.443480   -0.192154
      3          9           0       -0.560421    0.887005   -1.454306
      4          9           0       -1.073486    1.301137    0.620985
      5         16           0        1.303462    0.362160    0.235898
      6          8           0        1.424147    0.442788    1.638828
      7          8           0        1.864143   -0.672425   -0.556435
      8          8           0        1.740557    1.754324   -0.347457
      9          9           0       -1.544796   -1.359778   -1.264380
     10          9           0       -0.337001   -1.821765    0.460544
     11          9           0       -2.236460   -0.849894    0.706488
     12          1           0        1.885249    1.690704   -1.302790
 ---------------------------------------------------------------------
[...]
   D17       -3.13651   0.00000   0.00000   0.00035   0.00035  -3.13615
   D18       -1.15736   0.00000   0.00000   0.00034   0.00034  -1.15703
   D19       -1.54532  -0.00000   0.00000   0.00002   0.00002  -1.54530
   D20        2.78605   0.00001   0.00000   0.00007   0.00007   2.78612
   D21        0.39923  -0.00000   0.00000   0.00004   0.00004   0.39927
         Item               Value     Threshold  Converged?
 Maximum Force            0.000008     0.000450     YES
 RMS     Force            0.000003     0.000300     YES
 Maximum Displacement     0.000728     0.001800     YES
 RMS     Displacement     0.000289     0.001200     YES
 Predicted change in Energy=-2.176249D-09
 Optimization completed.
    -- Stationary point found.
                           ----------------------------
                           !   Optimized Parameters   !
                           ! (Angstroms and Degrees)  !
 --------------------------                            --------------------------
 ! Name  Definition              Value          Derivative Info.                !
 --------------------------------------------------------------------------------
 ! R1    R(1,2)                  1.5459         -DE/DX =    0.0                 !
 ! R2    R(1,9)                  1.321          -DE/DX =    0.0                 !
 ! R3    R(1,10)                 1.3231         -DE/DX =    0.0                 !
 ! R4    R(1,11)                 1.3254         -DE/DX =    0.0                 !
 ! R5    R(2,3)                  1.3389         -DE/DX =    0.0                 !
 ! R6    R(2,4)                  1.33           -DE/DX =    0.0                 !
 ! R7    R(2,5)                  1.8433         -DE/DX =    0.0                 !
 ! R8    R(5,6)                  1.411          -DE/DX =    0.0                 !
 ! R9    R(5,7)                  1.4191         -DE/DX =    0.0                 !
 ! R10   R(5,8)                  1.5717         -DE/DX =    0.0                 !
 ! R11   R(8,12)                 0.9683         -DE/DX =    0.0                 !
 ! A1    A(2,1,9)              110.5411         -DE/DX =    0.0                 !
 ! A2    A(2,1,10)             110.0816         -DE/DX =    0.0                 !
 ! A3    A(2,1,11)             108.6699         -DE/DX =    0.0                 !
 ! A4    A(9,1,10)             109.4486         -DE/DX =    0.0                 !
 ! A5    A(9,1,11)             108.9564         -DE/DX =    0.0                 !
 ! A6    A(10,1,11)            109.1132         -DE/DX =    0.0                 !
 ! A7    A(1,2,3)              108.5228         -DE/DX =    0.0                 !
 ! A8    A(1,2,4)              108.9756         -DE/DX =    0.0                 !
 ! A9    A(1,2,5)              113.7157         -DE/DX =    0.0                 !
 ! A10   A(3,2,4)              109.3133         -DE/DX =    0.0                 !
 ! A11   A(3,2,5)              107.7005         -DE/DX =    0.0                 !
 ! A12   A(4,2,5)              108.5419         -DE/DX =    0.0                 !
 ! A13   A(2,5,6)              107.856          -DE/DX =    0.0                 !
 ! A14   A(2,5,7)              106.9317         -DE/DX =    0.0                 !
 ! A15   A(2,5,8)               98.5281         -DE/DX =    0.0                 !
 ! A16   A(6,5,7)              123.795          -DE/DX =    0.0                 !
 ! A17   A(6,5,8)              107.3887         -DE/DX =    0.0                 !
 ! A18   A(7,5,8)              109.42           -DE/DX =    0.0                 !
 ! A19   A(5,8,12)             110.3058         -DE/DX =    0.0                 !
 ! D1    D(9,1,2,3)             53.034          -DE/DX =    0.0                 !
 ! D2    D(9,1,2,4)            171.9843         -DE/DX =    0.0                 !
 ! D3    D(9,1,2,5)            -66.7946         -DE/DX =    0.0                 !
 ! D4    D(10,1,2,3)           174.0694         -DE/DX =    0.0                 !
 ! D5    D(10,1,2,4)           -66.9803         -DE/DX =    0.0                 !
 ! D6    D(10,1,2,5)            54.2408         -DE/DX =    0.0                 !
 ! D7    D(11,1,2,3)           -66.4897         -DE/DX =    0.0                 !
 ! D8    D(11,1,2,4)            52.4606         -DE/DX =    0.0                 !
 ! D9    D(11,1,2,5)           173.6817         -DE/DX =    0.0                 !
 ! D10   D(1,2,5,6)            -76.3187         -DE/DX =    0.0                 !
 ! D11   D(1,2,5,7)             58.8284         -DE/DX =    0.0                 !
 ! D12   D(1,2,5,8)            172.2249         -DE/DX =    0.0                 !
 ! D13   D(3,2,5,6)            163.388          -DE/DX =    0.0                 !
 ! D14   D(3,2,5,7)            -61.4649         -DE/DX =    0.0                 !
 ! D15   D(3,2,5,8)             51.9315         -DE/DX =    0.0                 !
 ! D16   D(4,2,5,6)             45.1443         -DE/DX =    0.0                 !
 ! D17   D(4,2,5,7)           -179.7086         -DE/DX =    0.0                 !
 ! D18   D(4,2,5,8)            -66.3121         -DE/DX =    0.0                 !
 ! D19   D(2,5,8,12)           -88.5405         -DE/DX =    0.0                 !
 ! D20   D(6,5,8,12)           159.629          -DE/DX =    0.0                 !
 ! D21   D(7,5,8,12)            22.8743         -DE/DX =    0.0                 !
 --------------------------------------------------------------------------------
 GradGradGradGradGradGradGradGradGradGradGradGradGradGradGradGradGradGrad

 Leave Link  103 at Sat May 24 05:24:04 2025, MaxMem=  3758096384 cpu:               0.0 elap:               0.0
 (Enter /apps/easybuild-2022/easybuild/software/Compiler/NVHPC/22.11-CUDA-11.7.0/Gaussian/g16c01-CUDA-11.7.0/g16/l9999.exe)

 ----------------------------------------------------------------------

 Electric dipole moment (input orientation):
 (Debye = 10**-18 statcoulomb cm , SI units = C m)
                  (au)            (Debye)         (10**-30 SI)
   Tot        0.108914D+01      0.276831D+01      0.923410D+01
   x         -0.115778D+00     -0.294278D+00     -0.981604D+00
   y          0.748052D+00      0.190136D+01      0.634225D+01
   z         -0.783093D+00     -0.199042D+01     -0.663934D+01

 Dipole polarizability, Alpha (input orientation).
 (esu units = cm**3 , SI units = C**2 m**2 J**-1)
 Alpha(0;0):
               (au)            (10**-24 esu)      (10**-40 SI)
   iso        0.534886D+02      0.792620D+01      0.881909D+01
   aniso      0.564871D+01      0.837052D+00      0.931346D+00
   xx         0.561749D+02      0.832426D+01      0.926199D+01
   yx         0.192045D+01      0.284581D+00      0.316639D+00
   yy         0.509907D+02      0.755604D+01      0.840723D+01
   zx        -0.284246D+00     -0.421209D-01     -0.468659D-01
   zy        -0.348550D+00     -0.516497D-01     -0.574681D-01
   zz         0.533004D+02      0.789830D+01      0.878805D+01

 ----------------------------------------------------------------------

 Dipole orientation:
     6         -2.32032362          1.39489238         -0.96208414
     6         -0.83075410         -0.40902159          0.78767052
     9         -1.04470007          0.42147216          3.16796073
     9         -1.82030464         -2.71311489          0.61911125
    16          2.56480434         -0.60400122          0.03515846
     8          2.83493535         -2.12882225         -2.13538977
     8          3.55542419          1.87911908          0.24641227
     8          3.44113246         -2.21868740          2.36892006
     9         -1.60086831          3.75785930         -0.60087567
     9         -1.95177521          0.76889895         -3.35457229
     9         -4.75949734          1.19647775         -0.42882343
     1          3.86734858         -1.12578336          3.77315719

 Electric dipole moment (dipole orientation):
 (Debye = 10**-18 statcoulomb cm , SI units = C m)
                  (au)            (Debye)         (10**-30 SI)
   Tot        0.108914D+01      0.276831D+01      0.923410D+01
   x          0.000000D+00      0.000000D+00      0.000000D+00
   y          0.000000D+00      0.000000D+00      0.000000D+00
   z          0.108914D+01      0.276831D+01      0.923410D+01

 Dipole polarizability, Alpha (dipole orientation).
 (esu units = cm**3 , SI units = C**2 m**2 J**-1)
 Alpha(0;0):
               (au)            (10**-24 esu)      (10**-40 SI)
   iso        0.534886D+02      0.792620D+01      0.881909D+01
   aniso      0.564871D+01      0.837052D+00      0.931346D+00
   xx         0.563583D+02      0.835144D+01      0.929223D+01
   yx        -0.126190D+01     -0.186994D+00     -0.208059D+00
   yy         0.518440D+02      0.768249D+01      0.854792D+01
   zx         0.116665D+01      0.172880D+00      0.192355D+00
   zy         0.120927D+01      0.179195D+00      0.199381D+00
   zz         0.522637D+02      0.774468D+01      0.861712D+01

 ----------------------------------------------------------------------
 Unable to Open any file for archive entry.
 1\1\GINC-SPARTAN-BM168\Freq\RM062X\def2TZVPP\C2H1F5O3S1\AKHALILOV\24-M
 ay-2025\0\\#P Geom=AllCheck Guess=TCheck SCRF=Check GenChk RM062X/def2
 TZVPP Freq\\Gaussian input prepared by ASE\\0,1\C,-1.1970223677,-0.937
 4058611,-0.0104018754\C,-0.4718417258,0.4246578748,-0.1042999022\F,-0.
 7368765445,0.9661013873,-1.2997641748\F,-0.9307787415,1.2258295677,0.8
 529315483\S,1.3599116584,0.3023360101,0.0618727889\O,1.6582899014,0.10
 49798611,1.4267302926\O,1.8129853426,-0.5520330676,-0.9767314034\O,1.7
 25607166,1.7902209895,-0.2885073685\F,-0.8922343015,-1.6972339644,-1.0
 471367839\F,-0.8546234147,-1.5583275963,1.1066800934\F,-2.5048303357,-
 0.7222292777,-0.0039721113\H,1.8461123631,1.8905470766,-1.2439881037\\
 Version=ES64L-G16RevC.01\HF=-1199.940676\RMSD=1.803e-09\RMSF=5.025e-06
 \ZeroPoint=0.0531464\Thermal=0.063461\ETot=-1199.8772151\HTot=-1199.87
 62709\GTot=-1199.9247659\Dipole=-0.1157777,0.748052,-0.7830932\DipoleD
 eriv=1.6505838,-0.1025577,0.0158608,0.2044375,1.4197923,0.0244839,-0.0
 114952,0.0043044,1.545556,0.8026558,-0.198988,-0.0156472,-0.3399519,0.
 7123449,0.0334416,-0.0061368,0.035458,1.0891219,-0.4170782,0.0517032,-
 0.1719541,0.088576,-0.3716092,0.2773802,-0.2037856,0.192577,-0.7116237
 ,-0.4711901,0.1454162,0.1969092,0.1966493,-0.4829215,-0.2974931,0.2045
 228,-0.2154812,-0.5064562,1.8945906,0.1451374,-0.0520066,0.0697181,2.1
 861315,-0.1042215,-0.0466201,-0.0248171,2.1101168,-0.6942145,0.011124,
 -0.1593747,0.0243407,-0.5065213,0.0313766,-0.2466671,0.0974571,-1.0064
 109,-0.7530983,0.129793,0.1549223,0.1517695,-0.7574631,-0.1620867,0.22
 67233,-0.2849746,-0.809784,-0.6655591,-0.2407147,0.08166,-0.3679023,-1
 .1947331,0.2788617,0.1580151,0.3457384,-0.5346673,-0.3220306,0.0051182
 ,0.0647009,0.0035269,-0.5354127,-0.2982523,0.0845634,-0.2459944,-0.599
 3136,-0.3384455,0.0026598,-0.0799733,0.0083749,-0.463346,0.2797254,-0.
 1063078,0.2234666,-0.6549205,-1.0387798,0.0237108,0.0005143,-0.0631691
 ,-0.3440748,0.0014138,0.0165412,0.0065368,-0.2609623,0.3525661,0.02759
 79,-0.0356114,0.0236305,0.3378129,-0.0646295,-0.069353,-0.134271,0.339
 3436\Polar=56.1748838,1.9204457,50.9906826,-0.2842461,-0.3485496,53.30
 03836\PG=Unknown\NImag=0\\0.59619338,0.01139873,0.61785087,-0.00142280
 ,0.00251037,0.60751648,-0.09640469,-0.04170804,-0.00024925,0.46943202,
 -0.08207068,-0.16200434,0.00727875,-0.01820725,0.57405009,0.00476831,0
 .01115594,-0.04002973,-0.01228538,0.00344092,0.55139545,0.00384654,-0.
 00470209,0.00815451,-0.08572763,0.02932850,-0.05558574,0.07828918,0.01
 776301,-0.01160312,0.03985148,0.02432479,-0.13190395,0.09684868,-0.031
 41348,0.13235469,-0.01112559,0.00832342,-0.02978367,-0.04818171,0.1100
 9979,-0.24437701,0.06352559,-0.12953359,0.35842951,0.00141914,-0.00450
 766,-0.00182010,-0.10864262,0.06988689,0.06860412,0.01275534,-0.005661
 41,0.00345719,0.10856811,0.02579341,-0.02232995,-0.03906449,0.05862078
 ,-0.19291511,-0.11046043,-0.00523938,0.02151433,-0.00521769,-0.0806040
 7,0.20954423,0.00921201,-0.01129169,-0.01587652,0.06399009,-0.12240938
 ,-0.18161153,0.01446558,-0.01950662,-0.07464008,-0.09267136,0.16527253
 ,0.26987865,-0.01744640,-0.03462672,-0.00031307,-0.16595213,0.02564417
 ,-0.01600379,-0.00089541,-0.00411683,0.00265821,-0.00533520,0.00068508
 ,0.00156256,0.56829259,-0.03260333,0.02300815,-0.00182738,-0.02095224,
 -0.04828377,-0.00065887,0.01743744,-0.00807779,0.01406387,0.02974495,-
 0.01348236,-0.01195120,-0.08659716,0.73663563,0.00058131,-0.00212685,0
 .02504872,-0.00767330,0.00398795,-0.02691307,-0.03346777,0.01518040,-0
 .03061635,0.02932002,-0.01666446,-0.01637839,-0.01565881,0.12125923,1.
 29913742,0.00155455,0.00743038,0.00222511,0.01463658,-0.00140255,-0.01
 944376,-0.01059502,0.00432558,-0.00928674,-0.00140507,0.00075441,0.000
 73576,-0.13268062,0.02288287,-0.14616181,0.09438479,0.00407623,-0.0055
 9206,0.00296674,0.00263801,0.00689779,0.00227239,0.00057446,0.00065256
 ,0.00074420,-0.00232475,0.00214650,0.00200186,0.01906921,-0.09551934,0
 .07749089,-0.02334352,0.08576457,-0.00100324,0.00764039,-0.00827597,0.
 01735317,-0.00592825,-0.01374205,-0.00619010,0.00113850,-0.00213440,-0
 .00434475,0.00430274,0.00807711,-0.13883357,0.07882195,-0.69590562,0.1
 4805525,-0.10011930,0.73435141,0.00330915,0.00631034,-0.00292578,0.015
 59295,0.01105490,0.02131315,-0.00229511,0.00132382,-0.00406265,-0.0134
 4599,0.00585548,0.00552548,-0.16899992,0.12598006,0.15155324,0.0233222
 9,-0.00261451,-0.01071307,0.13075161,0.00573797,-0.00988490,-0.0031281
 4,-0.00523799,0.00310101,-0.01012045,0.00006639,0.00107456,0.00127984,
 0.00376142,-0.00012543,-0.00115619,0.11922911,-0.30746180,-0.26637292,
 0.00229756,0.01434905,0.01040246,-0.13564890,0.32248180,0.00088689,-0.
 00579977,-0.00653481,-0.01214953,-0.00269053,-0.00866679,0.00408358,-0
 .00207139,0.00890376,0.00389401,-0.00038151,0.00069082,0.14590762,-0.2
 6198349,-0.42005773,0.01631876,-0.02711792,-0.01500776,-0.15916164,0.2
 9924862,0.42348651,-0.00248506,0.01232031,-0.00132306,-0.00271517,-0.0
 3287789,0.00510135,-0.00064453,-0.00121694,0.00009752,-0.00055150,0.00
 216936,0.00166090,-0.08524693,-0.05702234,0.01359610,0.01251565,0.0032
 4736,-0.00186294,0.01887626,0.01141947,-0.00046089,0.07666972,0.002596
 92,0.00585708,-0.00102116,0.00947746,-0.02560612,0.00915240,-0.0010838
 0,0.00597192,-0.00562875,-0.00507604,0.00669266,0.00334139,-0.05069075
 ,-0.26013758,0.02044213,-0.00562728,-0.00565018,0.00568442,-0.00837824
 ,-0.03392793,0.00210279,0.07743132,0.34394835,-0.00035317,-0.00286516,
 -0.00255282,-0.00323468,0.01040796,-0.00143330,0.00192967,-0.00520404,
 0.00646618,-0.00120047,0.00063161,0.00148279,0.01854763,0.05087143,-0.
 10451470,0.00828548,0.04539273,-0.01935815,-0.00286601,-0.02617745,0.0
 1246631,-0.08136800,-0.09193587,0.60132135,-0.08557096,0.02181807,0.03
 260541,0.00979719,-0.00259753,-0.00674392,0.00024343,-0.00130168,0.000
 73553,0.00024201,-0.00464263,-0.00150183,-0.00131825,0.00527398,0.0037
 5822,0.00031356,-0.00049515,-0.00086500,-0.00236099,-0.00350232,-0.001
 94899,0.00070039,-0.00088781,-0.00025533,0.10106503,0.01908486,-0.1910
 9640,-0.11674793,0.01111906,-0.01613655,-0.03775206,-0.00051720,-0.000
 14512,0.00138641,-0.00349705,-0.01237510,-0.00348140,0.00742547,-0.004
 89136,-0.00165449,-0.00186647,0.00086946,-0.00059286,-0.00278469,0.002
 88935,0.00226783,-0.00242556,-0.00074957,0.00080002,-0.05541478,0.2022
 2162,0.02913572,-0.12454372,-0.21484151,0.00661989,-0.00828518,-0.0174
 7126,-0.00012942,-0.00038312,0.00676342,-0.00241094,-0.00412711,0.0005
 2521,0.00461036,-0.00325917,-0.00666764,-0.00145876,-0.00002606,0.0017
 3986,-0.00042361,0.00272884,0.00365970,-0.00132449,-0.00029951,0.00112
 295,-0.06863662,0.17308182,0.31622619,-0.08709053,0.02036615,-0.037972
 87,0.00910036,-0.00217412,0.00696867,0.00007580,-0.00400669,0.00234474
 ,0.00042021,-0.00164455,-0.00080656,-0.00011479,0.00443562,-0.00433150
 ,-0.00190558,-0.00261204,0.00187277,-0.00000883,-0.00049487,0.00070849
 ,0.00059599,-0.00065347,0.00059804,0.01385034,-0.00233131,0.00039129,0
 .10420180,0.01782741,-0.16098742,0.10856610,0.01224375,-0.00921848,0.0
 3778578,-0.00447432,-0.01122330,0.00588474,-0.00066115,-0.00027260,-0.
 00193308,0.00587153,-0.00378510,0.00161092,-0.00288951,0.00077002,-0.0
 0222900,-0.00171584,0.00161532,0.00050431,-0.00174517,-0.00035967,-0.0
 0000874,-0.00272407,0.02368999,-0.01586516,-0.04898475,0.15889249,-0.0
 3497248,0.11485417,-0.23915523,-0.00887921,0.00799052,-0.02230234,0.00
 322924,0.00563638,-0.00077820,0.00008456,0.00345767,0.00552992,-0.0037
 6064,0.00266974,-0.00867515,0.00016902,-0.00199496,0.00469757,0.001556
 10,0.00005736,0.00170026,0.00132394,0.00010861,0.00098464,-0.00381515,
 0.00195767,-0.08420647,0.08115333,-0.15083632,0.35054688,-0.31689067,0
 .00614086,0.00293861,-0.05872474,0.00777004,-0.00095587,0.00477409,-0.
 00235277,0.00270926,0.00576440,-0.00170207,-0.00136032,0.01116002,-0.0
 0280721,0.00127316,-0.00248225,0.00022906,-0.00214883,-0.00220565,0.00
 057786,0.00087873,-0.00423711,-0.00433242,0.00167739,-0.03698787,0.031
 02530,0.03366285,-0.03920971,0.02684475,-0.03580678,0.43920019,0.01128
 174,-0.08321575,-0.00003746,-0.03075616,0.00303702,-0.00127973,0.00017
 051,0.00136880,-0.00067698,-0.00222481,0.00192711,0.00155959,0.0069378
 3,-0.00665083,0.00087842,-0.00157289,0.00139292,-0.00184465,-0.0012851
 3,0.00222906,0.00131543,-0.00300093,-0.00129136,0.00064735,0.04418120,
 -0.00423835,-0.01879266,0.03800968,0.00079961,0.01629052,-0.06174277,0
 .08464525,0.00398810,0.00047170,-0.07558792,0.00351818,-0.00091081,0.0
 0301632,0.00078490,-0.00238526,0.00329928,-0.00235981,0.00208045,0.002
 32538,-0.00046942,0.00050816,-0.00268285,-0.00005207,-0.00036118,0.001
 10462,0.00029107,0.00028449,0.00072308,0.00035508,0.00020860,0.0003570
 4,0.04676534,-0.01886586,-0.00655285,-0.05083243,0.01668177,-0.0083278
 9,-0.00193077,0.00237066,0.08232654,-0.00043446,-0.00024032,0.00010329
 ,-0.00039212,-0.00435449,0.00426285,0.00017333,0.00233261,-0.00287136,
 0.00021117,-0.00004582,-0.00081231,-0.00146294,-0.00577264,0.00721114,
 0.00234111,0.00155564,-0.00131968,-0.00253576,0.00179431,0.00104297,-0
 .01347771,-0.01277589,0.05823945,0.00002612,0.00018237,-0.00003626,0.0
 0008495,0.00040737,-0.00028194,-0.00016069,0.00000173,-0.00005817,0.01
 562699,-0.00088629,-0.00000217,0.00065311,-0.00156216,-0.00101759,-0.0
 0038456,-0.00014703,0.00001642,-0.00072525,0.00116367,-0.00032430,-0.0
 0044581,-0.00883094,-0.01135385,0.04596878,-0.00098857,-0.00608128,0.0
 0272361,0.00190271,0.00365992,-0.00539437,-0.00829900,-0.03474762,0.01
 744015,0.00029272,-0.00003799,-0.00022897,0.00009036,0.00007915,-0.000
 19136,0.00034938,-0.00000348,-0.00008272,0.01691513,0.04981279,0.00030
 494,0.00167121,0.00007297,0.00117174,-0.00298173,0.00213531,-0.0008000
 4,0.00042857,-0.00153245,-0.00055248,0.00017070,-0.00000338,0.00175293
 ,0.01148573,-0.01177466,0.00061376,-0.00124938,0.00445339,-0.00008628,
 -0.00704647,-0.00136335,0.06420450,0.05784494,-0.49634230,-0.00009766,
 -0.00039915,-0.00029762,-0.00009399,-0.00016132,-0.00001398,-0.0009374
 2,-0.00043050,-0.00000074,-0.06548000,-0.05933260,0.50466681\\0.000001
 75,0.00000149,0.00000228,-0.00001106,0.00001144,-0.00000999,0.00000075
 ,0.00000599,0.00000560,0.00000398,-0.00001065,0.00000347,-0.00000169,-
 0.00000243,-0.00000225,0.00000760,-0.00000488,0.00000193,-0.00000090,0
 .00000061,-0.00000322,0.00000244,-0.00000056,0.00000716,-0.00000465,0.
 00000318,-0.00000325,0.00000080,-0.00000679,-0.00000537,-0.00000017,-0
 .00000031,-0.00000231,0.00000114,0.00000290,0.00000594\\\@
 The archive entry for this job was punched.


 STEINBACH'S GUIDELINES FOR SYSTEMS PROGRAMMING:
 NEVER TEST FOR AN ERROR CONDITION YOU DON'T KNOW HOW
 TO HANDLE.
 Job cpu time:       0 days  0 hours 35 minutes 13.5 seconds.
 Elapsed time:       0 days  0 hours  4 minutes 30.0 seconds.
 File lengths (MBytes):  RWF=    164 Int=      0 D2E=      0 Chk=     11 Scr=      1
 Normal termination of Gaussian 16 at Sat May 24 05:24:05 2025.
done
