 Entering Gaussian System, Link 0=g16
 Initial command:
 /apps/easybuild-2022/easybuild/software/Compiler/NVHPC/22.11-CUDA-11.7.0/Gaussian/g16c01-CUDA-11.7.0/g16/l1.exe "/tmp/Gau-24440.inp" -scrdir="/tmp/"
 Entering Link 1 = /apps/easybuild-2022/easybuild/software/Compiler/NVHPC/22.11-CUDA-11.7.0/Gaussian/g16c01-CUDA-11.7.0/g16/l1.exe PID=     24441.
  
 Copyright (c) 1988-2019, Gaussian, Inc.  All Rights Reserved.
  
 This is part of the Gaussian(R) 16 program.  It is based on
 the Gaussian(R) 09 system (copyright 2009, Gaussian, Inc.),
 the Gaussian(R) 03 system (copyright 2003, Gaussian, Inc.),
 the Gaussian(R) 98 system (copyright 1998, Gaussian, Inc.),
 the Gaussian(R) 94 system (copyright 1995, Gaussian, Inc.),
 the Gaussian 92(TM) system (copyright 1992, Gaussian, Inc.),
 the Gaussian 90(TM) system (copyright 1990, Gaussian, Inc.),
 the Gaussian 88(TM) system (copyright 1988, Gaussian, Inc.),
 the Gaussian 86(TM) system (copyright 1986, Carnegie Mellon
 University), and the Gaussian 82(TM) system (copyright 1983,
 Carnegie Mellon University). Gaussian is a federally registered
 trademark of Gaussian, Inc.
  
 This software contains proprietary and confidential information,
 including trade secrets, belonging to Gaussian, Inc.
  
 This software is provided under written license and may be
 used, copied, transmitted, or stored only in accord with that
 written license.
  
 The following legend is applicable only to US Government
 contracts under FAR:
  
                    RESTRICTED RIGHTS LEGEND
  
 Use, reproduction and disclosure by the US Government is
 subject to restrictions as set forth in subparagraphs (a)
 and (c) of the Commercial Computer Software - Restricted
 Rights clause in FAR 52.227-19.
  
 Gaussian, Inc.
 340 Quinnipiac St., Bldg. 40, Wallingford CT 06492
  
  
 ---------------------------------------------------------------
 Warning -- This program may not be used in any manner that
 competes with the business of Gaussian, Inc. or will provide
 assistance to any competitor of Gaussian, Inc.  The licensee
 of this program is prohibited from giving any competitor of
 Gaussian, Inc. access to this program.  By using this program,
 the user acknowledges that Gaussian, Inc. is engaged in the
 business of creating and licensing software in the field of
 computational chemistry and represents and warrants to the
 licensee that it is not a competitor of Gaussian, Inc. and that
 it will not use this program in any manner prohibited above.
 ---------------------------------------------------------------
  

 Cite this work as:
 Gaussian 16, Revision C.01,
 M. J. Frisch, G. W. Trucks, H. B. Schlegel, G. E. Scuseria, 
 M. A. Robb, J. R. Cheeseman, G. Scalmani, V. Barone, 
 G. A. Petersson, H. Nakatsuji, X. Li, M. Caricato, A. V. Marenich, 
 J. Bloino, B. G. Janesko, R. Gomperts, B. Mennucci, H. P. Hratchian, 
 J. V. Ortiz, A. F. Izmaylov, J. L. Sonnenberg, D. Williams-Young, 
 F. Ding, F. Lipparini, F. Egidi, J. Goings, B. Peng, A. Petrone, 
 T. Henderson, D. Ranasinghe, V. G. Zakrzewski, J. Gao, N. Rega, 
 G. Zheng, W. Liang, M. Hada, M. Ehara, K. Toyota, R. Fukuda, 
 J. Hasegawa, M. Ishida, T. Nakajima, Y. Honda, O. Kitao, H. Nakai, 
 T. Vreven, K. Throssell, J. A. Montgomery, Jr., J. E. Peralta, 
 F. Ogliaro, M. J. Bearpark, J. J. Heyd, E. N. Brothers, K. N. Kudin, 
 V. N. Staroverov, T. A. Keith, R. Kobayashi, J. Normand, 
 K. Raghavachari, A. P. Rendell, J. C. Burant, S. S. Iyengar, 
 J. Tomasi, M. Cossi, J. M. Millam, M. Klene, C. Adamo, R. Cammi, 
 J. W. Ochterski, R. L. Martin, K. Morokuma, O. Farkas, 
 J. B. Foresman, and D. J. Fox, Gaussian, Inc., Wallingford CT, 2019.
 
 ******************************************
 Gaussian 16:  ES64L-G16RevC.01  3-Jul-2019
                24-May-2025 
 ******************************************
 %mem=28GB
 %chk=2003846667223680600001_r12_insertion_R_3_2_1_IRC_R
 %nprocshared=8
 Will use up to    8 processors via shared memory.
 ----------------------------------------------------------------------
 #P M062X/Def2TZVPP Symm(None) scf(xqc) pop(None) geom(AllCheck,NoKeepC
 onstants) guess(Read) irc(RCFC,reverse,MaxPoints=100,StepSize=2)
 ----------------------------------------------------------------------
 1/10=5,18=10,22=2,26=3,29=20007,38=1,39=2,42=100,44=3,172=1/1,23;
 2/12=2,15=3,29=1,40=1/2;
 3/5=44,7=202,11=2,14=-4,25=1,30=1,71=2,74=-55,116=-2,140=1/1,2,3;
 4/5=1/1;
 5/5=2,8=3,13=1,38=6/2,8;
 8/6=4,10=90,11=11/1;
 11/6=1,8=1,9=11,15=111,16=1,31=1/1,2,10;
 10/6=1,13=1,31=1/2;
 7/10=1,25=1,30=1/1,2,3,16;
 1/18=10,22=2,26=3,39=2,42=100,44=3/23(2);
 2/15=3,29=1/2;
 99/5=20/99;
 2/15=3,29=1/2;
 3/5=44,7=202,11=2,14=-2,25=1,30=1,71=2,74=-55,140=1/1,2,3;
 4/5=5,16=3,69=1/1;
 5/5=2,8=3,13=1,38=5/2,8;
 8/6=4,10=90,11=11/1;
 11/6=1,8=1,9=11,15=111,16=1,31=1/1,2,10;
 10/6=1,13=1,31=1/2;
 7/10=1,25=1,30=1/1,2,3,16;
 1/18=10,22=2,26=3,39=2,42=100,44=3/23(-8);
 2/15=3,29=1/2;
 99/5=20,9=1/99;
 Leave Link    1 at Sat May 24 03:51:09 2025, MaxMem=  3758096384 cpu:               0.0 elap:               0.1
 (Enter /apps/easybuild-2022/easybuild/software/Compiler/NVHPC/22.11-CUDA-11.7.0/Gaussian/g16c01-CUDA-11.7.0/g16/l101.exe)
 Structure from the checkpoint file:  "2003846667223680600001_r12_insertion_R_3_2_1_IRC_R.chk"
 ------------------------------
 Gaussian input prepared by ASE
 ------------------------------
 Charge =  0 Multiplicity = 1
 Redundant internal coordinates found in file.  (old form).
 C,0,-0.8681011618,-1.466801626,-0.190317872
 C,0,0.2634424463,0.044997642,0.7220267762
 F,0,-0.1099693208,-0.07279689,-0.8458225248
 F,0,-0.2686415639,1.206620443,1.0251946183
 S,0,2.0560221133,0.2142038827,0.5934783766
 O,0,2.5077155384,0.5671946672,1.8883364844
 O,0,2.5346583495,-0.9294325471,-0.1081376122
 O,0,2.2564409175,1.4839608708,-0.3346257887
 F,0,-1.2538799428,-1.8392674127,-1.3835828924
 F,0,-0.1209984346,-2.3976600218,0.2893369364
 F,0,-1.9101522558,-1.1293774005,0.4905019116
 H,0,2.3613983147,1.1979563925,-1.2521924135
 Recover connectivity data from disk.
 ITRead=  0  0  0  0  0  0  0  0  0  0  0  0
 MicOpt= -1 -1 -1 -1 -1 -1 -1 -1 -1 -1 -1 -1
 NAtoms=     12 NQM=       12 NQMF=       0 NMMI=      0 NMMIF=      0
                NMic=       0 NMicF=      0.
                    Isotopes and Nuclear Properties:
 (Nuclear quadrupole moments (NQMom) in fm**2, nuclear magnetic moments (NMagM)
  in nuclear magnetons)

  Atom         1           2           3           4           5           6           7           8           9          10
 IAtWgt=          12          12          19          19          32          16          16          16          19          19
 AtmWgt=  12.0000000  12.0000000  18.9984032  18.9984032  31.9720718  15.9949146  15.9949146  15.9949146  18.9984032  18.9984032
 NucSpn=           0           0           1           1           0           0           0           0           1           1
 AtZEff=   3.6000000   3.6000000   6.7500000   6.7500000  13.6000000   5.6000000   5.6000000   5.6000000   6.7500000   6.7500000
 NQMom=    0.0000000   0.0000000   0.0000000   0.0000000   0.0000000   0.0000000   0.0000000   0.0000000   0.0000000   0.0000000
 NMagM=    0.0000000   0.0000000   2.6288670   2.6288670   0.0000000   0.0000000   0.0000000   0.0000000   2.6288670   2.6288670
 AtZNuc=   6.0000000   6.0000000   9.0000000   9.0000000  16.0000000   8.0000000   8.0000000   8.0000000   9.0000000   9.0000000

  Atom        11          12
 IAtWgt=          19           1
 AtmWgt=  18.9984032   1.0078250
 NucSpn=           1           1
 AtZEff=   6.7500000   1.0000000
 NQMom=    0.0000000   0.0000000
 NMagM=    2.6288670   2.7928460
 AtZNuc=   9.0000000   1.0000000
 Leave Link  101 at Sat May 24 03:51:09 2025, MaxMem=  3758096384 cpu:               0.2 elap:               0.2
 (Enter /apps/easybuild-2022/easybuild/software/Compiler/NVHPC/22.11-CUDA-11.7.0/Gaussian/g16c01-CUDA-11.7.0/g16/l123.exe)
 IRC-IRC-IRC-IRC-IRC-IRC-IRC-IRC-IRC-IRC-IRC-IRC-IRC-IRC-IRC-IRC-IRC-IRC
 ------------------------------------------------------------------------
 INPUT DATA FOR L123
 ------------------------------------------------------------------------
 GENERAL PARAMETERS:
 Rxn path following direction = Reverse
 Maximum points per path      = 100
 Step size                    =   0.020 bohr
 Integration scheme           = HPC                                 
    Redo corrector integration= Yes                                 
    DWI Weight Power          =  2
    DWI will use Hessian update vectors when possible.
    Max correction cycles     =  20
 Initial Hessian              = ReadFC from chk
 Hessian evaluation           = All updating
 Hessian updating method      = Bofill                              
 ------------------------------------------------------------------------
          ******** Start new reaction path calculation ********
 RCFC Option Requested - Data Read From Chk File:
 "2003846667223680600001_r12_insertion_R_3_2_1_IRC_R.chk"
   Energy From Chk =  -1199.7471250

 Current Structure is TS -> form Hessian eigenvectors.
                            Recovering Hessian eigenvectors from chk file.
 Supplied step size of   0.0200 bohr.
    Integration on MW PES will use step size of   0.0764 sqrt(amu)*bohr.
 Point Number:   0          Path Number:   1
 Calculating another point on the path.
 Point Number  1 in REVERSE path direction.
 Using LQA Reaction Path Following.
 IRC-IRC-IRC-IRC-IRC-IRC-IRC-IRC-IRC-IRC-IRC-IRC-IRC-IRC-IRC-IRC-IRC-IRC
 Leave Link  123 at Sat May 24 03:51:09 2025, MaxMem=  3758096384 cpu:               0.0 elap:               0.0
 (Enter /apps/easybuild-2022/easybuild/software/Compiler/NVHPC/22.11-CUDA-11.7.0/Gaussian/g16c01-CUDA-11.7.0/g16/l202.exe)
                          Input orientation:                          
 ---------------------------------------------------------------------
 Center     Atomic      Atomic             Coordinates (Angstroms)
 Number     Number       Type             X           Y           Z
 ---------------------------------------------------------------------
      1          6           0       -1.408575   -1.108686   -0.389863
      2          6           0       -0.274774    0.403530    0.532782
      3          9           0       -0.652441    0.279823   -1.039999
      4          9           0       -0.808338    1.565368    0.829290
      5         16           0        1.516023    0.572066    0.397679
      6          8           0        1.968055    0.924687    1.692615
      7          8           0        1.994328   -0.571833   -0.303954
      8          8           0        1.716662    1.841707   -0.530704
      9          9           0       -1.795121   -1.483086   -1.580872
     10          9           0       -0.661044   -2.038276    0.092665
     11          9           0       -2.449034   -0.771283    0.293888
     12          1           0        1.823102    1.555465   -1.447979
 ---------------------------------------------------------------------
                    Distance matrix (angstroms):
                    1          2          3          4          5
     1  C    0.000000
     2  C    2.103229   0.000000
     3  F    1.709494   1.622213   0.000000
     4  F    2.999530   1.312430   2.274020   0.000000
     5  S    3.463873   1.803777   2.618121   2.564291   0.000000
     6  O    4.457909   2.578197   3.840576   2.977275   1.416169
     7  O    3.446061   2.607736   2.876189   3.702270   1.424630
     8  O    4.300205   2.676785   2.882969   2.881245   1.585604
     9  F    1.306941   3.215323   2.169356   4.009450   4.370581
    10  F    1.286769   2.511040   2.580035   3.681108   3.412702
    11  F    1.289927   2.482873   2.472210   2.904905   4.187724
    12  H    4.319843   3.106679   2.814609   3.480019   2.113723
                    6          7          8          9         10
     6  O    0.000000
     7  O    2.495305   0.000000
     8  O    2.418114   2.440019   0.000000
     9  F    5.538463   4.101319   4.948709   0.000000
    10  F    4.272136   3.059209   4.593075   2.096448   0.000000
    11  F    4.933906   4.487835   4.986050   2.109263   2.200607
    12  H    3.206591   2.421468   0.966777   4.726731   4.632444
                   11         12
    11  F    0.000000
    12  H    5.167108   0.000000
 Symmetry turned off by external request.
 Stoichiometry    C2HF5O3S
 Rotational constants (GHZ):           1.7984399           0.6860563           0.6327854
 Leave Link  202 at Sat May 24 03:51:09 2025, MaxMem=  3758096384 cpu:               0.0 elap:               0.0
 (Enter /apps/easybuild-2022/easybuild/software/Compiler/NVHPC/22.11-CUDA-11.7.0/Gaussian/g16c01-CUDA-11.7.0/g16/l301.exe)
 Standard basis: def2TZVPP (5D, 7F)
 Ernie: Thresh=  0.10000D-02 Tol=  0.10000D-05 Strict=F.
   366 basis functions,   596 primitive gaussians,   423 cartesian basis functions
    49 alpha electrons       49 beta electrons
       nuclear repulsion energy       899.1179955231 Hartrees.
 IExCor= 4336 DFT=T Ex+Corr=M062X ExCW=0 ScaHFX=  0.540000
 ScaDFX=  1.000000  1.000000  1.000000  1.000000 ScalE2=  1.000000  1.000000
 IRadAn=      5 IRanWt=     -1 IRanGd=            0 ICorTp=0 IEmpDi=  4
 NAtoms=   12 NActive=   12 NUniq=   12 SFac= 1.00D+00 NAtFMM=   60 NAOKFM=F Big=F
 Integral buffers will be    131072 words long.
 Raffenetti 2 integral format.
 Two-electron integral symmetry is turned off.
 Leave Link  301 at Sat May 24 03:51:09 2025, MaxMem=  3758096384 cpu:               0.0 elap:               0.0
 (Enter /apps/easybuild-2022/easybuild/software/Compiler/NVHPC/22.11-CUDA-11.7.0/Gaussian/g16c01-CUDA-11.7.0/g16/l302.exe)
 NPDir=0 NMtPBC=     1 NCelOv=     1 NCel=       1 NClECP=     1 NCelD=      1
         NCelK=      1 NCelE2=     1 NClLst=     1 CellRange=     0.0.
 One-electron integrals computed using PRISM.
   1 Symmetry operations used in ECPInt.
 ECPInt:  NShTT=    8515 NPrTT=   27988 LenC2=    7882 LenP2D=   19035.
 LDataN:  DoStor=T MaxTD1= 6 Len=  172
 NBasis=   366 RedAO= T EigKep=  8.76D-04  NBF=   366
 NBsUse=   366 1.00D-06 EigRej= -1.00D+00 NBFU=   366
 Precomputing XC quadrature grid using
 IXCGrd= 4 IRadAn=           5 IRanWt=          -1 IRanGd=           0 AccXCQ= 0.00D+00.
 Generated NRdTot=       0 NPtTot=           0 NUsed=           0 NTot=          32
 NSgBfM=   420   420   420   420   420 MxSgAt=    12 MxSgA2=    12.
 Leave Link  302 at Sat May 24 03:51:09 2025, MaxMem=  3758096384 cpu:               0.7 elap:               0.2
 (Enter /apps/easybuild-2022/easybuild/software/Compiler/NVHPC/22.11-CUDA-11.7.0/Gaussian/g16c01-CUDA-11.7.0/g16/l303.exe)
 DipDrv:  MaxL=1.
 Leave Link  303 at Sat May 24 03:51:09 2025, MaxMem=  3758096384 cpu:               0.1 elap:               0.0
 (Enter /apps/easybuild-2022/easybuild/software/Compiler/NVHPC/22.11-CUDA-11.7.0/Gaussian/g16c01-CUDA-11.7.0/g16/l401.exe)
 Initial guess from the checkpoint file:  "2003846667223680600001_r12_insertion_R_3_2_1_IRC_R.chk"
 B after Tr=    -1.020633    0.675510   -0.370004
         Rot=    1.000000   -0.000003    0.000002    0.000002 Ang=  -0.00 deg.
 Guess basis will be translated and rotated to current coordinates.
 JPrj=2 DoOrth=T DoCkMO=T.
 Leave Link  401 at Sat May 24 03:51:09 2025, MaxMem=  3758096384 cpu:               0.4 elap:               0.3
 (Enter /apps/easybuild-2022/easybuild/software/Compiler/NVHPC/22.11-CUDA-11.7.0/Gaussian/g16c01-CUDA-11.7.0/g16/l502.exe)
 Keep R1 ints in memory in canonical form, NReq=2293446996.
 FoFCou: FMM=F IPFlag=           0 FMFlag=           0 FMFlg1=           0
         NFxFlg=           0 DoJE=F BraDBF=F KetDBF=F FulRan=T
         wScrn=  0.000000 ICntrl=       600 IOpCl=  0 I1Cent=           0 NGrid=           0
         NMat0=    1 NMatS0=  67161 NMatT0=    0 NMatD0=    1 NMtDS0=    0 NMtDT0=    0
 Symmetry not used in FoFCou.
 Two-electron integral symmetry not used.
 Closed shell SCF:
 Using DIIS extrapolation, IDIIS=  1040.
 NGot=  3758096384 LenX=  1502398672 LenY=  1502219302
 Requested convergence on RMS density matrix=1.00D-08 within  32 cycles.
 Requested convergence on MAX density matrix=1.00D-06.
 Requested convergence on             energy=1.00D-06.
 No special actions if energy rises.

 Cycle   1  Pass 1  IDiag  1:
 E= -1199.74706679707    
 DIIS: error= 1.47D-04 at cycle   1 NSaved=   1.
 NSaved= 1 IEnMin= 1 EnMin= -1199.74706679707     IErMin= 1 ErrMin= 1.47D-04
 ErrMax= 1.47D-04  0.00D+00 EMaxC= 1.00D-01 BMatC= 4.49D-05 BMatP= 4.49D-05
 IDIUse=3 WtCom= 9.99D-01 WtEn= 1.47D-03
 Coeff-Com:  0.100D+01
 Coeff-En:   0.100D+01
 Coeff:      0.100D+01
 Gap=     0.270 Goal=   None    Shift=    0.000
 RMSDP=2.99D-05 MaxDP=8.65D-04              OVMax= 5.91D-03

 Cycle   2  Pass 1  IDiag  1:
 E= -1199.74715690924     Delta-E=       -0.000090112178 Rises=F Damp=F
 DIIS: error= 7.08D-05 at cycle   2 NSaved=   2.
 NSaved= 2 IEnMin= 2 EnMin= -1199.74715690924     IErMin= 2 ErrMin= 7.08D-05
 ErrMax= 7.08D-05  0.00D+00 EMaxC= 1.00D-01 BMatC= 4.14D-06 BMatP= 4.49D-05
 IDIUse=1 WtCom= 1.00D+00 WtEn= 0.00D+00
 Coeff-Com: -0.938D-01 0.109D+01
 Coeff:     -0.938D-01 0.109D+01
 Gap=     0.269 Goal=   None    Shift=    0.000
 RMSDP=1.24D-05 MaxDP=4.60D-04 DE=-9.01D-05 OVMax= 2.41D-03

 Cycle   3  Pass 1  IDiag  1:
 E= -1199.74716817640     Delta-E=       -0.000011267160 Rises=F Damp=F
 DIIS: error= 6.00D-05 at cycle   3 NSaved=   3.
 NSaved= 3 IEnMin= 3 EnMin= -1199.74716817640     IErMin= 3 ErrMin= 6.00D-05
 ErrMax= 6.00D-05  0.00D+00 EMaxC= 1.00D-01 BMatC= 2.30D-06 BMatP= 4.14D-06
 IDIUse=1 WtCom= 1.00D+00 WtEn= 0.00D+00
 Coeff-Com: -0.942D-01 0.481D+00 0.614D+00
 Coeff:     -0.942D-01 0.481D+00 0.614D+00
 Gap=     0.269 Goal=   None    Shift=    0.000
 RMSDP=5.15D-06 MaxDP=2.00D-04 DE=-1.13D-05 OVMax= 1.15D-03

 Cycle   4  Pass 1  IDiag  1:
 E= -1199.74717075774     Delta-E=       -0.000002581334 Rises=F Damp=F
 DIIS: error= 2.22D-05 at cycle   4 NSaved=   4.
 NSaved= 4 IEnMin= 4 EnMin= -1199.74717075774     IErMin= 4 ErrMin= 2.22D-05
 ErrMax= 2.22D-05  0.00D+00 EMaxC= 1.00D-01 BMatC= 4.79D-07 BMatP= 2.30D-06
 IDIUse=1 WtCom= 1.00D+00 WtEn= 0.00D+00
 Coeff-Com: -0.705D-03-0.164D+00 0.234D+00 0.931D+00
 Coeff:     -0.705D-03-0.164D+00 0.234D+00 0.931D+00
 Gap=     0.269 Goal=   None    Shift=    0.000
 RMSDP=3.75D-06 MaxDP=1.36D-04 DE=-2.58D-06 OVMax= 7.78D-04

 Cycle   5  Pass 1  IDiag  1:
 E= -1199.74717164756     Delta-E=       -0.000000889825 Rises=F Damp=F
 DIIS: error= 1.12D-05 at cycle   5 NSaved=   5.
 NSaved= 5 IEnMin= 5 EnMin= -1199.74717164756     IErMin= 5 ErrMin= 1.12D-05
 ErrMax= 1.12D-05  0.00D+00 EMaxC= 1.00D-01 BMatC= 6.94D-08 BMatP= 4.79D-07
 IDIUse=1 WtCom= 1.00D+00 WtEn= 0.00D+00
 Coeff-Com:  0.151D-01-0.149D+00 0.322D-01 0.402D+00 0.700D+00
 Coeff:      0.151D-01-0.149D+00 0.322D-01 0.402D+00 0.700D+00
 Gap=     0.269 Goal=   None    Shift=    0.000
 RMSDP=1.33D-06 MaxDP=5.29D-05 DE=-8.90D-07 OVMax= 2.88D-04

 Cycle   6  Pass 1  IDiag  1:
 E= -1199.74717175033     Delta-E=       -0.000000102772 Rises=F Damp=F
 DIIS: error= 3.46D-06 at cycle   6 NSaved=   6.
 NSaved= 6 IEnMin= 6 EnMin= -1199.74717175033     IErMin= 6 ErrMin= 3.46D-06
 ErrMax= 3.46D-06  0.00D+00 EMaxC= 1.00D-01 BMatC= 1.46D-08 BMatP= 6.94D-08
 IDIUse=1 WtCom= 1.00D+00 WtEn= 0.00D+00
 Coeff-Com:  0.580D-02-0.256D-01-0.367D-01-0.565D-01 0.321D+00 0.792D+00
 Coeff:      0.580D-02-0.256D-01-0.367D-01-0.565D-01 0.321D+00 0.792D+00
 Gap=     0.269 Goal=   None    Shift=    0.000
 RMSDP=5.72D-07 MaxDP=2.66D-05 DE=-1.03D-07 OVMax= 1.10D-04

 Cycle   7  Pass 1  IDiag  1:
 E= -1199.74717176802     Delta-E=       -0.000000017688 Rises=F Damp=F
 DIIS: error= 9.05D-07 at cycle   7 NSaved=   7.
 NSaved= 7 IEnMin= 7 EnMin= -1199.74717176802     IErMin= 7 ErrMin= 9.05D-07
 ErrMax= 9.05D-07  0.00D+00 EMaxC= 1.00D-01 BMatC= 8.49D-10 BMatP= 1.46D-08
 IDIUse=1 WtCom= 1.00D+00 WtEn= 0.00D+00
 Coeff-Com:  0.837D-03 0.459D-02-0.120D-01-0.473D-01 0.505D-01 0.275D+00
 Coeff-Com:  0.728D+00
 Coeff:      0.837D-03 0.459D-02-0.120D-01-0.473D-01 0.505D-01 0.275D+00
 Coeff:      0.728D+00
 Gap=     0.269 Goal=   None    Shift=    0.000
 RMSDP=9.89D-08 MaxDP=3.11D-06 DE=-1.77D-08 OVMax= 1.91D-05

 Cycle   8  Pass 1  IDiag  1:
 E= -1199.74717176865     Delta-E=       -0.000000000628 Rises=F Damp=F
 DIIS: error= 7.38D-07 at cycle   8 NSaved=   8.
 NSaved= 8 IEnMin= 8 EnMin= -1199.74717176865     IErMin= 8 ErrMin= 7.38D-07
 ErrMax= 7.38D-07  0.00D+00 EMaxC= 1.00D-01 BMatC= 2.75D-10 BMatP= 8.49D-10
 IDIUse=1 WtCom= 1.00D+00 WtEn= 0.00D+00
 Coeff-Com: -0.386D-03 0.627D-02-0.229D-02-0.219D-01-0.202D-01 0.407D-01
 Coeff-Com:  0.400D+00 0.597D+00
 Coeff:     -0.386D-03 0.627D-02-0.229D-02-0.219D-01-0.202D-01 0.407D-01
 Coeff:      0.400D+00 0.597D+00
 Gap=     0.269 Goal=   None    Shift=    0.000
 RMSDP=3.83D-08 MaxDP=1.64D-06 DE=-6.28D-10 OVMax= 4.89D-06

 Cycle   9  Pass 1  IDiag  1:
 E= -1199.74717176889     Delta-E=       -0.000000000245 Rises=F Damp=F
 DIIS: error= 1.43D-07 at cycle   9 NSaved=   9.
 NSaved= 9 IEnMin= 9 EnMin= -1199.74717176889     IErMin= 9 ErrMin= 1.43D-07
 ErrMax= 1.43D-07  0.00D+00 EMaxC= 1.00D-01 BMatC= 1.91D-11 BMatP= 2.75D-10
 IDIUse=1 WtCom= 1.00D+00 WtEn= 0.00D+00
 Coeff-Com: -0.282D-03 0.262D-02 0.333D-03-0.586D-02-0.164D-01-0.104D-01
 Coeff-Com:  0.121D+00 0.272D+00 0.637D+00
 Coeff:     -0.282D-03 0.262D-02 0.333D-03-0.586D-02-0.164D-01-0.104D-01
 Coeff:      0.121D+00 0.272D+00 0.637D+00
 Gap=     0.269 Goal=   None    Shift=    0.000
 RMSDP=1.07D-08 MaxDP=5.44D-07 DE=-2.45D-10 OVMax= 1.27D-06

 Cycle  10  Pass 1  IDiag  1:
 E= -1199.74717176898     Delta-E=       -0.000000000081 Rises=F Damp=F
 DIIS: error= 3.67D-08 at cycle  10 NSaved=  10.
 NSaved=10 IEnMin=10 EnMin= -1199.74717176898     IErMin=10 ErrMin= 3.67D-08
 ErrMax= 3.67D-08  0.00D+00 EMaxC= 1.00D-01 BMatC= 1.42D-12 BMatP= 1.91D-11
 IDIUse=1 WtCom= 1.00D+00 WtEn= 0.00D+00
 Coeff-Com: -0.197D-04-0.210D-03 0.579D-03 0.184D-02-0.186D-02-0.920D-02
 Coeff-Com: -0.233D-01-0.153D-01 0.182D+00 0.865D+00
 Coeff:     -0.197D-04-0.210D-03 0.579D-03 0.184D-02-0.186D-02-0.920D-02
 Coeff:     -0.233D-01-0.153D-01 0.182D+00 0.865D+00
 Gap=     0.269 Goal=   None    Shift=    0.000
 RMSDP=3.50D-09 MaxDP=1.11D-07 DE=-8.09D-11 OVMax= 4.24D-07

 SCF Done:  E(RM062X) =  -1199.74717177     A.U. after   10 cycles
            NFock= 10  Conv=0.35D-08     -V/T= 2.0028
 KE= 1.196337798767D+03 PE=-4.644365868815D+03 EE= 1.349162902756D+03
 Leave Link  502 at Sat May 24 03:51:41 2025, MaxMem=  3758096384 cpu:             144.0 elap:              31.9
 (Enter /apps/easybuild-2022/easybuild/software/Compiler/NVHPC/22.11-CUDA-11.7.0/Gaussian/g16c01-CUDA-11.7.0/g16/l508.exe)
 QCSCF skips out because SCF is already converged.
 Leave Link  508 at Sat May 24 03:51:41 2025, MaxMem=  3758096384 cpu:               0.0 elap:               0.0
 (Enter /apps/easybuild-2022/easybuild/software/Compiler/NVHPC/22.11-CUDA-11.7.0/Gaussian/g16c01-CUDA-11.7.0/g16/l801.exe)
 DoSCS=F DFT=T ScalE2(SS,OS)=  1.000000  1.000000
 Range of M.O.s used for correlation:     1   366
 NBasis=   366 NAE=    49 NBE=    49 NFC=     0 NFV=     0
 NROrb=    366 NOA=    49 NOB=    49 NVA=   317 NVB=   317

 **** Warning!!: The largest alpha MO coefficient is  0.12446244D+02

 Leave Link  801 at Sat May 24 03:51:41 2025, MaxMem=  3758096384 cpu:               0.0 elap:               0.0
 (Enter /apps/easybuild-2022/easybuild/software/Compiler/NVHPC/22.11-CUDA-11.7.0/Gaussian/g16c01-CUDA-11.7.0/g16/l1101.exe)
 Leave Link 1101 at Sat May 24 03:51:42 2025, MaxMem=  3758096384 cpu:               0.0 elap:               0.0
 (Enter /apps/easybuild-2022/easybuild/software/Compiler/NVHPC/22.11-CUDA-11.7.0/Gaussian/g16c01-CUDA-11.7.0/g16/l1102.exe)
 Symmetrizing basis deriv contribution to polar:
 IMax=3 JMax=2 DiffMx= 0.00D+00
 Leave Link 1102 at Sat May 24 03:51:42 2025, MaxMem=  3758096384 cpu:               0.1 elap:               0.0
 (Enter /apps/easybuild-2022/easybuild/software/Compiler/NVHPC/22.11-CUDA-11.7.0/Gaussian/g16c01-CUDA-11.7.0/g16/l1110.exe)
 Leave Link 1110 at Sat May 24 03:51:42 2025, MaxMem=  3758096384 cpu:               0.0 elap:               0.0
 (Enter /apps/easybuild-2022/easybuild/software/Compiler/NVHPC/22.11-CUDA-11.7.0/Gaussian/g16c01-CUDA-11.7.0/g16/l1002.exe)
 Minotr:  Closed shell wavefunction.
 Leave Link 1002 at Sat May 24 03:51:42 2025, MaxMem=  3758096384 cpu:               0.0 elap:               0.0
 (Enter /apps/easybuild-2022/easybuild/software/Compiler/NVHPC/22.11-CUDA-11.7.0/Gaussian/g16c01-CUDA-11.7.0/g16/l701.exe)
 ... and contract with generalized density number  0.
 Compute integral first derivatives.
   1 Symmetry operations used in ECPInt.
 ECPInt:  NShTT=    8515 NPrTT=   27988 LenC2=    7882 LenP2D=   19035.
 LDataN:  DoStor=T MaxTD1= 7 Len=  274
 Leave Link  701 at Sat May 24 03:51:42 2025, MaxMem=  3758096384 cpu:               0.5 elap:               0.1
 (Enter /apps/easybuild-2022/easybuild/software/Compiler/NVHPC/22.11-CUDA-11.7.0/Gaussian/g16c01-CUDA-11.7.0/g16/l702.exe)
 L702 exits ... SP integral derivatives will be done elsewhere.
 Leave Link  702 at Sat May 24 03:51:42 2025, MaxMem=  3758096384 cpu:               0.0 elap:               0.0
 (Enter /apps/easybuild-2022/easybuild/software/Compiler/NVHPC/22.11-CUDA-11.7.0/Gaussian/g16c01-CUDA-11.7.0/g16/l703.exe)
 Integral derivatives from FoFJK, PRISM(SPDF).
 Compute integral first derivatives, UseDBF=F ICtDFT=           0.
 Calling FoFJK, ICntrl=      2127 FMM=F ISym2X=0 I1Cent= 0 IOpClX= 0 NMat=1 NMatS=1 NMatT=0.
 FoFJK:  IHMeth= 1 ICntrl=    2127 DoSepK=F KAlg= 0 I1Cent=           0 FoldK=F
 IRaf=         0 NMat=       1 IRICut=       1 DoRegI=T DoRafI=F ISym2E= 0 IDoP0=0 IntGTp=1.
 FoFCou: FMM=F IPFlag=           0 FMFlag=      100000 FMFlg1=         800
         NFxFlg=           0 DoJE=F BraDBF=F KetDBF=F FulRan=T
         wScrn=  0.000000 ICntrl=      2127 IOpCl=  0 I1Cent=           0 NGrid=           0
         NMat0=    1 NMatS0=      1 NMatT0=    0 NMatD0=    1 NMtDS0=    0 NMtDT0=    0
 Symmetry not used in FoFCou.
 Leave Link  703 at Sat May 24 03:51:54 2025, MaxMem=  3758096384 cpu:              95.5 elap:              12.1
 (Enter /apps/easybuild-2022/easybuild/software/Compiler/NVHPC/22.11-CUDA-11.7.0/Gaussian/g16c01-CUDA-11.7.0/g16/l716.exe)
 Dipole        =-1.07850948D+00-2.82978848D-01-1.13852291D+00
 Polarizability= 0.00000000D+00 0.00000000D+00 0.00000000D+00
                 0.00000000D+00 0.00000000D+00 0.00000000D+00
 -------------------------------------------------------------------
 Center     Atomic                   Forces (Hartrees/Bohr)
 Number     Number              X              Y              Z
 -------------------------------------------------------------------
      1        6          -0.000124399    0.000251595   -0.001359359
      2        6           0.000677314    0.000408188    0.002371992
      3        9          -0.001349843   -0.002774873    0.000946703
      4        9           0.000246796    0.000731816   -0.000058068
      5       16           0.000124391    0.000397275    0.000001224
      6        8           0.000219948    0.000019350    0.000042650
      7        8          -0.000105041    0.000073938   -0.000003444
      8        8           0.000162772    0.000140964   -0.000128762
      9        9          -0.000651579   -0.000731083   -0.000861972
     10        9           0.000039799    0.001111706   -0.000493497
     11        9           0.000703672    0.000369847   -0.000459593
     12        1           0.000056172    0.000001277    0.000002126
 -------------------------------------------------------------------
 Cartesian Forces:  Max     0.002774873 RMS     0.000808447
 Leave Link  716 at Sat May 24 03:51:54 2025, MaxMem=  3758096384 cpu:               0.0 elap:               0.0
 (Enter /apps/easybuild-2022/easybuild/software/Compiler/NVHPC/22.11-CUDA-11.7.0/Gaussian/g16c01-CUDA-11.7.0/g16/l123.exe)
 IRC-IRC-IRC-IRC-IRC-IRC-IRC-IRC-IRC-IRC-IRC-IRC-IRC-IRC-IRC-IRC-IRC-IRC
 Pt  1 Step number   1 out of a maximum of  20
 Using modified Bulirsch-Stoer corrector integration.
   Using distance weighted interpolants to fit PES.
 PreDWI: IReCr0= 2 IReCr1= 1 IReCr2= 1 IReCr3= 1
 Modified Bulirsch-Stoer Extrapolation Cycles:
    EPS =    0.000010000000000
    Cycle     1 NS=    48
      PEZero:  N= 2 I= 1 D=  1.99D-04 Err=  3.35D-04
    Cycle     2 NS=    64 Truncation Error =  0.000334791
      PEZero:  N= 3 I= 2 D=  1.99D-04 Err=  2.23D-04
      PEZero:  N= 3 I= 1 D=  3.98D-04 Err=  2.86D-09
    Cycle     3 NS=    96 Truncation Error =  0.000000003
 BS completed in    3 cycles and     208 integration steps.
 Maximum DWI energy   std dev =  0.000000030 at pt    29
 Maximum DWI gradient std dev =  0.003797449 at pt     1
 SUMMARY OF CORRECTOR INTEGRATION:
   Predictor End Point Energy = -1199.747172
   Old End Point Energy       = -1199.747172
   Corrected End Point Energy = -1199.747172
   Predictor End-Start Dist.  =     0.076353
   Old End-Start Dist.        =     0.076353
   New End-Start Dist.        =     0.076353
   New End-Old End Dist.      =     0.000143
 CORRECTOR INTEGRATION CONVERGENCE:
   Recorrection delta-x convergence threshold:    0.010000
   Delta-x Convergence Met
 Point Number:   1          Path Number:   1
                    CURRENT STRUCTURE
                Cartesian Coordinates (Ang):                
 ---------------------------------------------------------------------
 Center     Atomic                     Coordinates (Angstroms)
 Number     Number                        X           Y           Z
 ---------------------------------------------------------------------
      1          6                   -1.408571   -1.108677   -0.389865
      2          6                   -0.274781    0.403538    0.532776
      3          9                   -0.652440    0.279821   -1.039993
      4          9                   -0.808336    1.565363    0.829289
      5         16                    1.516026    0.572065    0.397678
      6          8                    1.968055    0.924685    1.692616
      7          8                    1.994327   -0.571833   -0.303953
      8          8                    1.716662    1.841706   -0.530702
      9          9                   -1.795124   -1.483087   -1.580877
     10          9                   -0.661045   -2.038274    0.092667
     11          9                   -2.449037   -0.771283    0.293889
     12          1                    1.823115    1.555459   -1.447974
 ---------------------------------------------------------------------
   CHANGE IN THE REACTION COORDINATE =    0.07635
   NET REACTION COORDINATE UP TO THIS POINT =    0.07635
  # OF POINTS ALONG THE PATH =   1
  # OF STEPS =   1

 Calculating another point on the path.
 Point Number  2 in REVERSE path direction.
 Using LQA Reaction Path Following.
   LQA: T_Est iteration completed in    3 iterations.
 IRC-IRC-IRC-IRC-IRC-IRC-IRC-IRC-IRC-IRC-IRC-IRC-IRC-IRC-IRC-IRC-IRC-IRC
 Leave Link  123 at Sat May 24 03:51:54 2025, MaxMem=  3758096384 cpu:               0.1 elap:               0.1
 (Enter /apps/easybuild-2022/easybuild/software/Compiler/NVHPC/22.11-CUDA-11.7.0/Gaussian/g16c01-CUDA-11.7.0/g16/l202.exe)
                          Input orientation:                          
 ---------------------------------------------------------------------
 Center     Atomic      Atomic             Coordinates (Angstroms)
 Number     Number       Type             X           Y           Z
 ---------------------------------------------------------------------
      1          6           0       -1.408923   -1.107996   -0.393606
      2          6           0       -0.272890    0.404631    0.539322
      3          9           0       -0.654794    0.274990   -1.038355
      4          9           0       -0.807915    1.566655    0.829190
      5         16           0        1.516148    0.572477    0.397684
      6          8           0        1.968511    0.924726    1.692703
      7          8           0        1.994114   -0.571684   -0.303964
      8          8           0        1.717000    1.842001   -0.530971
      9          9           0       -1.796254   -1.484355   -1.582368
     10          9           0       -0.660976   -2.036335    0.091804
     11          9           0       -2.447807   -0.770640    0.293084
     12          1           0        1.824966    1.555512   -1.447945
 ---------------------------------------------------------------------
                    Distance matrix (angstroms):
                    1          2          3          4          5
     1  C    0.000000
     2  C    2.109257   0.000000
     3  F    1.702076   1.628411   0.000000
     4  F    3.001700   1.311707   2.275867   0.000000
     5  S    3.464993   1.802469   2.619866   2.564344   0.000000
     6  O    4.460011   2.573842   3.842208   2.977628   1.416257
     7  O    3.446205   2.608377   2.876265   3.702418   1.424733
     8  O    4.300320   2.677915   2.887624   2.881155   1.585696
     9  F    1.305690   3.223426   2.166605   4.012617   4.373005
    10  F    1.287191   2.511812   2.572843   3.680607   3.411647
    11  F    1.290206   2.484382   2.465961   2.905100   4.186627
    12  H    4.320179   3.110428   2.820764   3.481025   2.113782
                    6          7          8          9         10
     6  O    0.000000
     7  O    2.495310   0.000000
     8  O    2.418548   2.440123   0.000000
     9  F    5.541048   4.102947   4.951064   0.000000
    10  F    4.271412   3.057996   4.591744   2.096756   0.000000
    11  F    4.933260   4.486280   4.985035   2.109794   2.198923
    12  H    3.206582   2.421212   0.966734   4.729915   4.631641
                   11         12
    11  F    0.000000
    12  H    5.167083   0.000000
 Symmetry turned off by external request.
 Stoichiometry    C2HF5O3S
 Rotational constants (GHZ):           1.7993692           0.6859251           0.6325461
 Leave Link  202 at Sat May 24 03:51:54 2025, MaxMem=  3758096384 cpu:               0.0 elap:               0.0
 (Enter /apps/easybuild-2022/easybuild/software/Compiler/NVHPC/22.11-CUDA-11.7.0/Gaussian/g16c01-CUDA-11.7.0/g16/l301.exe)
 Standard basis: def2TZVPP (5D, 7F)
 Ernie: Thresh=  0.10000D-02 Tol=  0.10000D-05 Strict=F.
   366 basis functions,   596 primitive gaussians,   423 cartesian basis functions
    49 alpha electrons       49 beta electrons
       nuclear repulsion energy       899.1418483786 Hartrees.
 IExCor= 4336 DFT=T Ex+Corr=M062X ExCW=0 ScaHFX=  0.540000
 ScaDFX=  1.000000  1.000000  1.000000  1.000000 ScalE2=  1.000000  1.000000
 IRadAn=      5 IRanWt=     -1 IRanGd=            0 ICorTp=0 IEmpDi=  4
 NAtoms=   12 NActive=   12 NUniq=   12 SFac= 1.00D+00 NAtFMM=   60 NAOKFM=F Big=F
 Integral buffers will be    131072 words long.
 Raffenetti 2 integral format.
 Two-electron integral symmetry is turned off.
 Leave Link  301 at Sat May 24 03:51:54 2025, MaxMem=  3758096384 cpu:               0.0 elap:               0.0
 (Enter /apps/easybuild-2022/easybuild/software/Compiler/NVHPC/22.11-CUDA-11.7.0/Gaussian/g16c01-CUDA-11.7.0/g16/l302.exe)
 NPDir=0 NMtPBC=     1 NCelOv=     1 NCel=       1 NClECP=     1 NCelD=      1
         NCelK=      1 NCelE2=     1 NClLst=     1 CellRange=     0.0.
 One-electron integrals computed using PRISM.
   1 Symmetry operations used in ECPInt.
 ECPInt:  NShTT=    8515 NPrTT=   27988 LenC2=    7881 LenP2D=   19036.
 LDataN:  DoStor=T MaxTD1= 6 Len=  172
 NBasis=   366 RedAO= T EigKep=  8.76D-04  NBF=   366
 NBsUse=   366 1.00D-06 EigRej= -1.00D+00 NBFU=   366
 Precomputing XC quadrature grid using
 IXCGrd= 4 IRadAn=           5 IRanWt=          -1 IRanGd=           0 AccXCQ= 0.00D+00.
 Generated NRdTot=       0 NPtTot=           0 NUsed=           0 NTot=          32
 NSgBfM=   420   420   420   420   420 MxSgAt=    12 MxSgA2=    12.
 Leave Link  302 at Sat May 24 03:51:54 2025, MaxMem=  3758096384 cpu:               0.7 elap:               0.2
 (Enter /apps/easybuild-2022/easybuild/software/Compiler/NVHPC/22.11-CUDA-11.7.0/Gaussian/g16c01-CUDA-11.7.0/g16/l303.exe)
 DipDrv:  MaxL=1.
 Leave Link  303 at Sat May 24 03:51:54 2025, MaxMem=  3758096384 cpu:               0.1 elap:               0.1
 (Enter /apps/easybuild-2022/easybuild/software/Compiler/NVHPC/22.11-CUDA-11.7.0/Gaussian/g16c01-CUDA-11.7.0/g16/l401.exe)
 Initial guess from the checkpoint file:  "2003846667223680600001_r12_insertion_R_3_2_1_IRC_R.chk"
 B after Tr=     0.000035    0.000023    0.000015
         Rot=    1.000000   -0.000003    0.000002    0.000003 Ang=  -0.00 deg.
 Guess basis will be translated and rotated to current coordinates.
 JPrj=2 DoOrth=T DoCkMO=T.
 Generating alternative initial guess.
 ExpMin= 9.52D-02 ExpMax= 6.07D+04 ExpMxC= 2.07D+03 IAcc=3 IRadAn=         5 AccDes= 0.00D+00
 Harris functional with IExCor= 1009 and IRadAn=       5 diagonalized for initial guess.
 HarFok:  IExCor= 1009 AccDes= 0.00D+00 IRadAn=         5 IDoV= 1 UseB2=F ITyADJ=14
 ICtDFT=  3500011 ScaDFX=  1.000000  1.000000  1.000000  1.000000
 FoFCou: FMM=F IPFlag=           0 FMFlag=      100000 FMFlg1=           0
         NFxFlg=           0 DoJE=T BraDBF=F KetDBF=T FulRan=T
         wScrn=  0.000000 ICntrl=       500 IOpCl=  0 I1Cent=   200000004 NGrid=           0
         NMat0=    1 NMatS0=      1 NMatT0=    0 NMatD0=    1 NMtDS0=    0 NMtDT0=    0
 Symmetry not used in FoFCou.
 Harris En= -1199.19320808008    
 Leave Link  401 at Sat May 24 03:51:55 2025, MaxMem=  3758096384 cpu:               4.3 elap:               0.7
 (Enter /apps/easybuild-2022/easybuild/software/Compiler/NVHPC/22.11-CUDA-11.7.0/Gaussian/g16c01-CUDA-11.7.0/g16/l502.exe)
 Keep R1 ints in memory in canonical form, NReq=2293446996.
 FoFCou: FMM=F IPFlag=           0 FMFlag=           0 FMFlg1=           0
         NFxFlg=           0 DoJE=F BraDBF=F KetDBF=F FulRan=T
         wScrn=  0.000000 ICntrl=       600 IOpCl=  0 I1Cent=           0 NGrid=           0
         NMat0=    1 NMatS0=  67161 NMatT0=    0 NMatD0=    1 NMtDS0=    0 NMtDT0=    0
 Symmetry not used in FoFCou.
 Two-electron integral symmetry not used.
 Closed shell SCF:
 Using DIIS extrapolation, IDIIS=  1040.
 NGot=  3758096384 LenX=  1502398672 LenY=  1502219302
 Requested convergence on RMS density matrix=1.00D-08 within  32 cycles.
 Requested convergence on MAX density matrix=1.00D-06.
 Requested convergence on             energy=1.00D-06.
 No special actions if energy rises.
 Integral accuracy reduced to 1.0D-05 until final iterations.

 Cycle   1  Pass 0  IDiag  1:
 E= -1199.74721631762    
 DIIS: error= 1.44D-04 at cycle   1 NSaved=   1.
 NSaved= 1 IEnMin= 1 EnMin= -1199.74721631762     IErMin= 1 ErrMin= 1.44D-04
 ErrMax= 1.44D-04  0.00D+00 EMaxC= 1.00D-01 BMatC= 4.56D-05 BMatP= 4.56D-05
 IDIUse=3 WtCom= 9.99D-01 WtEn= 1.44D-03
 Coeff-Com:  0.100D+01
 Coeff-En:   0.100D+01
 Coeff:      0.100D+01
 Gap=     0.936 Goal=   None    Shift=    0.000
 RMSDP=3.05D-05 MaxDP=8.12D-04              OVMax= 5.81D-03

 Cycle   2  Pass 0  IDiag  1:
 E= -1199.74730606786     Delta-E=       -0.000089750240 Rises=F Damp=F
 DIIS: error= 6.88D-05 at cycle   2 NSaved=   2.
 NSaved= 2 IEnMin= 2 EnMin= -1199.74730606786     IErMin= 2 ErrMin= 6.88D-05
 ErrMax= 6.88D-05  0.00D+00 EMaxC= 1.00D-01 BMatC= 3.93D-06 BMatP= 4.56D-05
 IDIUse=1 WtCom= 1.00D+00 WtEn= 0.00D+00
 Coeff-Com: -0.967D-01 0.110D+01
 Coeff:     -0.967D-01 0.110D+01
 Gap=     0.270 Goal=   None    Shift=    0.000
 RMSDP=1.25D-05 MaxDP=4.78D-04 DE=-8.98D-05 OVMax= 2.46D-03

 Cycle   3  Pass 0  IDiag  1:
 E= -1199.74731720808     Delta-E=       -0.000011140221 Rises=F Damp=F
 DIIS: error= 5.52D-05 at cycle   3 NSaved=   3.
 NSaved= 3 IEnMin= 3 EnMin= -1199.74731720808     IErMin= 3 ErrMin= 5.52D-05
 ErrMax= 5.52D-05  0.00D+00 EMaxC= 1.00D-01 BMatC= 2.16D-06 BMatP= 3.93D-06
 IDIUse=1 WtCom= 1.00D+00 WtEn= 0.00D+00
 Coeff-Com: -0.917D-01 0.478D+00 0.614D+00
 Coeff:     -0.917D-01 0.478D+00 0.614D+00
 Gap=     0.270 Goal=   None    Shift=    0.000
 RMSDP=4.95D-06 MaxDP=1.98D-04 DE=-1.11D-05 OVMax= 1.09D-03

 Initial convergence to 1.0D-05 achieved.  Increase integral accuracy.
 Cycle   4  Pass 1  IDiag  1:
 E= -1199.74730925020     Delta-E=        0.000007957884 Rises=F Damp=F
 DIIS: error= 2.22D-05 at cycle   1 NSaved=   1.
 NSaved= 1 IEnMin= 1 EnMin= -1199.74730925020     IErMin= 1 ErrMin= 2.22D-05
 ErrMax= 2.22D-05  0.00D+00 EMaxC= 1.00D-01 BMatC= 1.08D-06 BMatP= 1.08D-06
 IDIUse=1 WtCom= 1.00D+00 WtEn= 0.00D+00
 Coeff-Com:  0.100D+01
 Coeff:      0.100D+01
 Gap=     0.270 Goal=   None    Shift=    0.000
 RMSDP=4.95D-06 MaxDP=1.98D-04 DE= 7.96D-06 OVMax= 5.43D-04

 Cycle   5  Pass 1  IDiag  1:
 E= -1199.74731016854     Delta-E=       -0.000000918346 Rises=F Damp=F
 DIIS: error= 3.67D-05 at cycle   2 NSaved=   2.
 NSaved= 2 IEnMin= 2 EnMin= -1199.74731016854     IErMin= 1 ErrMin= 2.22D-05
 ErrMax= 3.67D-05  0.00D+00 EMaxC= 1.00D-01 BMatC= 6.34D-07 BMatP= 1.08D-06
 IDIUse=1 WtCom= 1.00D+00 WtEn= 0.00D+00
 Coeff-Com:  0.408D+00 0.592D+00
 Coeff:      0.408D+00 0.592D+00
 Gap=     0.270 Goal=   None    Shift=    0.000
 RMSDP=2.01D-06 MaxDP=8.27D-05 DE=-9.18D-07 OVMax= 3.66D-04

 Cycle   6  Pass 1  IDiag  1:
 E= -1199.74731058256     Delta-E=       -0.000000414016 Rises=F Damp=F
 DIIS: error= 1.60D-05 at cycle   3 NSaved=   3.
 NSaved= 3 IEnMin= 3 EnMin= -1199.74731058256     IErMin= 3 ErrMin= 1.60D-05
 ErrMax= 1.60D-05  0.00D+00 EMaxC= 1.00D-01 BMatC= 1.73D-07 BMatP= 6.34D-07
 IDIUse=1 WtCom= 1.00D+00 WtEn= 0.00D+00
 Coeff-Com: -0.707D-01 0.322D+00 0.748D+00
 Coeff:     -0.707D-01 0.322D+00 0.748D+00
 Gap=     0.270 Goal=   None    Shift=    0.000
 RMSDP=1.11D-06 MaxDP=4.78D-05 DE=-4.14D-07 OVMax= 1.68D-04

 Cycle   7  Pass 1  IDiag  1:
 E= -1199.74731074373     Delta-E=       -0.000000161170 Rises=F Damp=F
 DIIS: error= 3.23D-06 at cycle   4 NSaved=   4.
 NSaved= 4 IEnMin= 4 EnMin= -1199.74731074373     IErMin= 4 ErrMin= 3.23D-06
 ErrMax= 3.23D-06  0.00D+00 EMaxC= 1.00D-01 BMatC= 7.32D-09 BMatP= 1.73D-07
 IDIUse=1 WtCom= 1.00D+00 WtEn= 0.00D+00
 Coeff-Com: -0.392D-01 0.662D-01 0.144D+00 0.830D+00
 Coeff:     -0.392D-01 0.662D-01 0.144D+00 0.830D+00
 Gap=     0.270 Goal=   None    Shift=    0.000
 RMSDP=5.01D-07 MaxDP=1.95D-05 DE=-1.61D-07 OVMax= 1.11D-04

 Cycle   8  Pass 1  IDiag  1:
 E= -1199.74731076001     Delta-E=       -0.000000016286 Rises=F Damp=F
 DIIS: error= 2.20D-06 at cycle   5 NSaved=   5.
 NSaved= 5 IEnMin= 5 EnMin= -1199.74731076001     IErMin= 5 ErrMin= 2.20D-06
 ErrMax= 2.20D-06  0.00D+00 EMaxC= 1.00D-01 BMatC= 4.73D-09 BMatP= 7.32D-09
 IDIUse=1 WtCom= 1.00D+00 WtEn= 0.00D+00
 Coeff-Com:  0.111D-01-0.998D-01-0.285D+00 0.483D+00 0.892D+00
 Coeff:      0.111D-01-0.998D-01-0.285D+00 0.483D+00 0.892D+00
 Gap=     0.270 Goal=   None    Shift=    0.000
 RMSDP=4.21D-07 MaxDP=1.68D-05 DE=-1.63D-08 OVMax= 8.72D-05

 Cycle   9  Pass 1  IDiag  1:
 E= -1199.74731076756     Delta-E=       -0.000000007542 Rises=F Damp=F
 DIIS: error= 4.94D-07 at cycle   6 NSaved=   6.
 NSaved= 6 IEnMin= 6 EnMin= -1199.74731076756     IErMin= 6 ErrMin= 4.94D-07
 ErrMax= 4.94D-07  0.00D+00 EMaxC= 1.00D-01 BMatC= 2.45D-10 BMatP= 4.73D-09
 IDIUse=1 WtCom= 1.00D+00 WtEn= 0.00D+00
 Coeff-Com:  0.650D-02-0.475D-01-0.133D+00 0.172D+00 0.411D+00 0.592D+00
 Coeff:      0.650D-02-0.475D-01-0.133D+00 0.172D+00 0.411D+00 0.592D+00
 Gap=     0.270 Goal=   None    Shift=    0.000
 RMSDP=4.89D-08 MaxDP=1.97D-06 DE=-7.54D-09 OVMax= 9.56D-06

 Cycle  10  Pass 1  IDiag  1:
 E= -1199.74731076776     Delta-E=       -0.000000000208 Rises=F Damp=F
 DIIS: error= 2.80D-07 at cycle   7 NSaved=   7.
 NSaved= 7 IEnMin= 7 EnMin= -1199.74731076776     IErMin= 7 ErrMin= 2.80D-07
 ErrMax= 2.80D-07  0.00D+00 EMaxC= 1.00D-01 BMatC= 3.81D-11 BMatP= 2.45D-10
 IDIUse=1 WtCom= 1.00D+00 WtEn= 0.00D+00
 Coeff-Com:  0.114D-02-0.456D-02-0.101D-01-0.145D-01 0.318D-01 0.285D+00
 Coeff-Com:  0.711D+00
 Coeff:      0.114D-02-0.456D-02-0.101D-01-0.145D-01 0.318D-01 0.285D+00
 Coeff:      0.711D+00
 Gap=     0.270 Goal=   None    Shift=    0.000
 RMSDP=1.85D-08 MaxDP=6.49D-07 DE=-2.08D-10 OVMax= 3.22D-06

 Cycle  11  Pass 1  IDiag  1:
 E= -1199.74731076773     Delta-E=        0.000000000036 Rises=F Damp=F
 DIIS: error= 7.57D-08 at cycle   8 NSaved=   8.
 NSaved= 8 IEnMin= 7 EnMin= -1199.74731076776     IErMin= 8 ErrMin= 7.57D-08
 ErrMax= 7.57D-08  0.00D+00 EMaxC= 1.00D-01 BMatC= 2.72D-12 BMatP= 3.81D-11
 IDIUse=1 WtCom= 1.00D+00 WtEn= 0.00D+00
 Coeff-Com: -0.148D-03 0.287D-02 0.894D-02-0.212D-01-0.258D-01 0.612D-01
 Coeff-Com:  0.277D+00 0.697D+00
 Coeff:     -0.148D-03 0.287D-02 0.894D-02-0.212D-01-0.258D-01 0.612D-01
 Coeff:      0.277D+00 0.697D+00
 Gap=     0.270 Goal=   None    Shift=    0.000
 RMSDP=4.43D-09 MaxDP=1.70D-07 DE= 3.64D-11 OVMax= 6.67D-07

 SCF Done:  E(RM062X) =  -1199.74731077     A.U. after   11 cycles
            NFock= 11  Conv=0.44D-08     -V/T= 2.0028
 KE= 1.196342258135D+03 PE=-4.644410869956D+03 EE= 1.349179452675D+03
 Leave Link  502 at Sat May 24 03:52:28 2025, MaxMem=  3758096384 cpu:             138.6 elap:              32.7
 (Enter /apps/easybuild-2022/easybuild/software/Compiler/NVHPC/22.11-CUDA-11.7.0/Gaussian/g16c01-CUDA-11.7.0/g16/l508.exe)
 QCSCF skips out because SCF is already converged.
 Leave Link  508 at Sat May 24 03:52:28 2025, MaxMem=  3758096384 cpu:               0.0 elap:               0.0
 (Enter /apps/easybuild-2022/easybuild/software/Compiler/NVHPC/22.11-CUDA-11.7.0/Gaussian/g16c01-CUDA-11.7.0/g16/l801.exe)
 DoSCS=F DFT=T ScalE2(SS,OS)=  1.000000  1.000000
 Range of M.O.s used for correlation:     1   366
 NBasis=   366 NAE=    49 NBE=    49 NFC=     0 NFV=     0
 NROrb=    366 NOA=    49 NOB=    49 NVA=   317 NVB=   317

 **** Warning!!: The largest alpha MO coefficient is  0.12335112D+02

 Leave Link  801 at Sat May 24 03:52:28 2025, MaxMem=  3758096384 cpu:               0.0 elap:               0.0
 (Enter /apps/easybuild-2022/easybuild/software/Compiler/NVHPC/22.11-CUDA-11.7.0/Gaussian/g16c01-CUDA-11.7.0/g16/l1101.exe)
 Leave Link 1101 at Sat May 24 03:52:28 2025, MaxMem=  3758096384 cpu:               0.0 elap:               0.0
 (Enter /apps/easybuild-2022/easybuild/software/Compiler/NVHPC/22.11-CUDA-11.7.0/Gaussian/g16c01-CUDA-11.7.0/g16/l1102.exe)
 Symmetrizing basis deriv contribution to polar:
 IMax=3 JMax=2 DiffMx= 0.00D+00
 Leave Link 1102 at Sat May 24 03:52:28 2025, MaxMem=  3758096384 cpu:               0.0 elap:               0.0
 (Enter /apps/easybuild-2022/easybuild/software/Compiler/NVHPC/22.11-CUDA-11.7.0/Gaussian/g16c01-CUDA-11.7.0/g16/l1110.exe)
 Leave Link 1110 at Sat May 24 03:52:28 2025, MaxMem=  3758096384 cpu:               0.0 elap:               0.0
 (Enter /apps/easybuild-2022/easybuild/software/Compiler/NVHPC/22.11-CUDA-11.7.0/Gaussian/g16c01-CUDA-11.7.0/g16/l1002.exe)
 Minotr:  Closed shell wavefunction.
 Leave Link 1002 at Sat May 24 03:52:28 2025, MaxMem=  3758096384 cpu:               0.0 elap:               0.0
 (Enter /apps/easybuild-2022/easybuild/software/Compiler/NVHPC/22.11-CUDA-11.7.0/Gaussian/g16c01-CUDA-11.7.0/g16/l701.exe)
 ... and contract with generalized density number  0.
 Compute integral first derivatives.
   1 Symmetry operations used in ECPInt.
 ECPInt:  NShTT=    8515 NPrTT=   27988 LenC2=    7881 LenP2D=   19036.
 LDataN:  DoStor=T MaxTD1= 7 Len=  274
 Leave Link  701 at Sat May 24 03:52:28 2025, MaxMem=  3758096384 cpu:               0.6 elap:               0.1
 (Enter /apps/easybuild-2022/easybuild/software/Compiler/NVHPC/22.11-CUDA-11.7.0/Gaussian/g16c01-CUDA-11.7.0/g16/l702.exe)
 L702 exits ... SP integral derivatives will be done elsewhere.
 Leave Link  702 at Sat May 24 03:52:28 2025, MaxMem=  3758096384 cpu:               0.0 elap:               0.0
 (Enter /apps/easybuild-2022/easybuild/software/Compiler/NVHPC/22.11-CUDA-11.7.0/Gaussian/g16c01-CUDA-11.7.0/g16/l703.exe)
 Integral derivatives from FoFJK, PRISM(SPDF).
 Compute integral first derivatives, UseDBF=F ICtDFT=           0.
 Calling FoFJK, ICntrl=      2127 FMM=F ISym2X=0 I1Cent= 0 IOpClX= 0 NMat=1 NMatS=1 NMatT=0.
 FoFJK:  IHMeth= 1 ICntrl=    2127 DoSepK=F KAlg= 0 I1Cent=           0 FoldK=F
 IRaf=         0 NMat=       1 IRICut=       1 DoRegI=T DoRafI=F ISym2E= 0 IDoP0=0 IntGTp=1.
 FoFCou: FMM=F IPFlag=           0 FMFlag=      100000 FMFlg1=         800
         NFxFlg=           0 DoJE=F BraDBF=F KetDBF=F FulRan=T
         wScrn=  0.000000 ICntrl=      2127 IOpCl=  0 I1Cent=           0 NGrid=           0
         NMat0=    1 NMatS0=      1 NMatT0=    0 NMatD0=    1 NMtDS0=    0 NMtDT0=    0
 Symmetry not used in FoFCou.
 Leave Link  703 at Sat May 24 03:52:40 2025, MaxMem=  3758096384 cpu:              93.4 elap:              11.8
 (Enter /apps/easybuild-2022/easybuild/software/Compiler/NVHPC/22.11-CUDA-11.7.0/Gaussian/g16c01-CUDA-11.7.0/g16/l716.exe)
 Dipole        =-1.08663992D+00-2.83946660D-01-1.15189470D+00
 Polarizability= 0.00000000D+00 0.00000000D+00 0.00000000D+00
                 0.00000000D+00 0.00000000D+00 0.00000000D+00
 -------------------------------------------------------------------
 Center     Atomic                   Forces (Hartrees/Bohr)
 Number     Number              X              Y              Z
 -------------------------------------------------------------------
      1        6          -0.000240449    0.000505986   -0.002691073
      2        6           0.001330424    0.000819260    0.004684945
      3        9          -0.002671170   -0.005504645    0.001893546
      4        9           0.000490839    0.001440729   -0.000116968
      5       16           0.000257017    0.000786546    0.000003353
      6        8           0.000436145    0.000040985    0.000083978
      7        8          -0.000208844    0.000149581   -0.000006064
      8        8           0.000321194    0.000279574   -0.000255076
      9        9          -0.001295839   -0.001454388   -0.001715239
     10        9           0.000078823    0.002205642   -0.000975185
     11        9           0.001391869    0.000727205   -0.000907807
     12        1           0.000109990    0.000003524    0.000001589
 -------------------------------------------------------------------
 Cartesian Forces:  Max     0.005504645 RMS     0.001601689
 Leave Link  716 at Sat May 24 03:52:40 2025, MaxMem=  3758096384 cpu:               0.0 elap:               0.0
 (Enter /apps/easybuild-2022/easybuild/software/Compiler/NVHPC/22.11-CUDA-11.7.0/Gaussian/g16c01-CUDA-11.7.0/g16/l123.exe)
 IRC-IRC-IRC-IRC-IRC-IRC-IRC-IRC-IRC-IRC-IRC-IRC-IRC-IRC-IRC-IRC-IRC-IRC
 Pt  2 Step number   1 out of a maximum of  20
 Using modified Bulirsch-Stoer corrector integration.
   Using distance weighted interpolants to fit PES.
 PreDWI: IReCr0= 2 IReCr1= 1 IReCr2= 1 IReCr3= 1
 Modified Bulirsch-Stoer Extrapolation Cycles:
    EPS =    0.000010000000000
    Cycle     1 NS=    48
      PEZero:  N= 2 I= 1 D=  3.98D-04 Err=  9.01D-07
    Cycle     2 NS=    64 Truncation Error =  0.000000901
 BS completed in    2 cycles and     112 integration steps.
 Maximum DWI energy   std dev =  0.000000105 at pt    47
 Maximum DWI gradient std dev =  0.002965899 at pt    27
 SUMMARY OF CORRECTOR INTEGRATION:
   Predictor End Point Energy = -1199.747311
   Old End Point Energy       = -1199.747311
   Corrected End Point Energy = -1199.747311
   Predictor End-Start Dist.  =     0.076326
   Old End-Start Dist.        =     0.076326
   New End-Start Dist.        =     0.076326
   New End-Old End Dist.      =     0.000193
 CORRECTOR INTEGRATION CONVERGENCE:
   Recorrection delta-x convergence threshold:    0.010000
   Delta-x Convergence Met
 Point Number:   2          Path Number:   1
                    CURRENT STRUCTURE
                Cartesian Coordinates (Ang):                
 ---------------------------------------------------------------------
 Center     Atomic                     Coordinates (Angstroms)
 Number     Number                        X           Y           Z
 ---------------------------------------------------------------------
      1          6                   -1.408918   -1.107987   -0.393608
      2          6                   -0.272901    0.404643    0.539313
      3          9                   -0.654792    0.274986   -1.038346
      4          9                   -0.807912    1.566649    0.829190
      5         16                    1.516152    0.572477    0.397683
      6          8                    1.968511    0.924726    1.692703
      7          8                    1.994113   -0.571683   -0.303963
      8          8                    1.717000    1.842000   -0.530970
      9          9                   -1.796257   -1.484358   -1.582374
     10          9                   -0.660976   -2.036334    0.091805
     11          9                   -2.447809   -0.770641    0.293086
     12          1                    1.824957    1.555514   -1.447946
 ---------------------------------------------------------------------
   CHANGE IN THE REACTION COORDINATE =    0.07633
   NET REACTION COORDINATE UP TO THIS POINT =    0.15268
  # OF POINTS ALONG THE PATH =   2
  # OF STEPS =   1

 Calculating another point on the path.
 Point Number  3 in REVERSE path direction.
 Using LQA Reaction Path Following.
   LQA: T_Est iteration completed in    3 iterations.
 IRC-IRC-IRC-IRC-IRC-IRC-IRC-IRC-IRC-IRC-IRC-IRC-IRC-IRC-IRC-IRC-IRC-IRC
 Leave Link  123 at Sat May 24 03:52:40 2025, MaxMem=  3758096384 cpu:               0.1 elap:               0.0
 (Enter /apps/easybuild-2022/easybuild/software/Compiler/NVHPC/22.11-CUDA-11.7.0/Gaussian/g16c01-CUDA-11.7.0/g16/l202.exe)
                          Input orientation:                          
 ---------------------------------------------------------------------
 Center     Atomic      Atomic             Coordinates (Angstroms)
 Number     Number       Type             X           Y           Z
 ---------------------------------------------------------------------
      1          6           0       -1.409258   -1.107288   -0.397351
      2          6           0       -0.271030    0.405757    0.545839
      3          9           0       -0.657143    0.270146   -1.036686
      4          9           0       -0.807488    1.567930    0.829089
      5         16           0        1.516282    0.572889    0.397687
      6          8           0        1.968968    0.924769    1.692790
      7          8           0        1.993897   -0.571531   -0.303972
      8          8           0        1.717337    1.842294   -0.531238
      9          9           0       -1.797394   -1.485634   -1.583877
     10          9           0       -0.660908   -2.034392    0.090945
     11          9           0       -2.446583   -0.770003    0.292284
     12          1           0        1.826783    1.555574   -1.447922
 ---------------------------------------------------------------------
                    Distance matrix (angstroms):
                    1          2          3          4          5
     1  C    0.000000
     2  C    2.115296   0.000000
     3  F    1.694624   1.634583   0.000000
     4  F    3.003844   1.310978   2.277711   0.000000
     5  S    3.466103   1.801213   2.621614   2.564395   0.000000
     6  O    4.462103   2.569526   3.843831   2.977976   1.416346
     7  O    3.446334   2.609055   2.876335   3.702551   1.424830
     8  O    4.300414   2.679056   2.892280   2.881060   1.585785
     9  F    1.304469   3.231538   2.163875   4.015791   4.375451
    10  F    1.287627   2.512620   2.565631   3.680090   3.410595
    11  F    1.290504   2.485906   2.459709   2.905292   4.185543
    12  H    4.320474   3.114158   2.826894   3.481998   2.113848
                    6          7          8          9         10
     6  O    0.000000
     7  O    2.495315   0.000000
     8  O    2.418982   2.440223   0.000000
     9  F    5.543652   4.104587   4.953432   0.000000
    10  F    4.270689   3.056781   4.590409   2.097085   0.000000
    11  F    4.932622   4.484727   4.984026   2.110345   2.197238
    12  H    3.206588   2.420976   0.966693   4.733085   4.630828
                   11         12
    11  F    0.000000
    12  H    5.167038   0.000000
 Symmetry turned off by external request.
 Stoichiometry    C2HF5O3S
 Rotational constants (GHZ):           1.8002997           0.6857913           0.6323043
 Leave Link  202 at Sat May 24 03:52:40 2025, MaxMem=  3758096384 cpu:               0.0 elap:               0.0
 (Enter /apps/easybuild-2022/easybuild/software/Compiler/NVHPC/22.11-CUDA-11.7.0/Gaussian/g16c01-CUDA-11.7.0/g16/l301.exe)
 Standard basis: def2TZVPP (5D, 7F)
 Ernie: Thresh=  0.10000D-02 Tol=  0.10000D-05 Strict=F.
   366 basis functions,   596 primitive gaussians,   423 cartesian basis functions
    49 alpha electrons       49 beta electrons
       nuclear repulsion energy       899.1662486469 Hartrees.
 IExCor= 4336 DFT=T Ex+Corr=M062X ExCW=0 ScaHFX=  0.540000
 ScaDFX=  1.000000  1.000000  1.000000  1.000000 ScalE2=  1.000000  1.000000
 IRadAn=      5 IRanWt=     -1 IRanGd=            0 ICorTp=0 IEmpDi=  4
 NAtoms=   12 NActive=   12 NUniq=   12 SFac= 1.00D+00 NAtFMM=   60 NAOKFM=F Big=F
 Integral buffers will be    131072 words long.
 Raffenetti 2 integral format.
 Two-electron integral symmetry is turned off.
 Leave Link  301 at Sat May 24 03:52:40 2025, MaxMem=  3758096384 cpu:               0.0 elap:               0.0
 (Enter /apps/easybuild-2022/easybuild/software/Compiler/NVHPC/22.11-CUDA-11.7.0/Gaussian/g16c01-CUDA-11.7.0/g16/l302.exe)
 NPDir=0 NMtPBC=     1 NCelOv=     1 NCel=       1 NClECP=     1 NCelD=      1
         NCelK=      1 NCelE2=     1 NClLst=     1 CellRange=     0.0.
 One-electron integrals computed using PRISM.
   1 Symmetry operations used in ECPInt.
 ECPInt:  NShTT=    8515 NPrTT=   27988 LenC2=    7881 LenP2D=   19036.
 LDataN:  DoStor=T MaxTD1= 6 Len=  172
 NBasis=   366 RedAO= T EigKep=  8.75D-04  NBF=   366
 NBsUse=   366 1.00D-06 EigRej= -1.00D+00 NBFU=   366
 Precomputing XC quadrature grid using
 IXCGrd= 4 IRadAn=           5 IRanWt=          -1 IRanGd=           0 AccXCQ= 0.00D+00.
 Generated NRdTot=       0 NPtTot=           0 NUsed=           0 NTot=          32
 NSgBfM=   420   420   420   420   420 MxSgAt=    12 MxSgA2=    12.
 Leave Link  302 at Sat May 24 03:52:40 2025, MaxMem=  3758096384 cpu:               0.8 elap:               0.2
 (Enter /apps/easybuild-2022/easybuild/software/Compiler/NVHPC/22.11-CUDA-11.7.0/Gaussian/g16c01-CUDA-11.7.0/g16/l303.exe)
 DipDrv:  MaxL=1.
 Leave Link  303 at Sat May 24 03:52:40 2025, MaxMem=  3758096384 cpu:               0.1 elap:               0.0
 (Enter /apps/easybuild-2022/easybuild/software/Compiler/NVHPC/22.11-CUDA-11.7.0/Gaussian/g16c01-CUDA-11.7.0/g16/l401.exe)
 Initial guess from the checkpoint file:  "2003846667223680600001_r12_insertion_R_3_2_1_IRC_R.chk"
 B after Tr=     0.000034    0.000023    0.000015
         Rot=    1.000000   -0.000003    0.000002    0.000003 Ang=  -0.00 deg.
 Guess basis will be translated and rotated to current coordinates.
 JPrj=2 DoOrth=T DoCkMO=T.
 Generating alternative initial guess.
 ExpMin= 9.52D-02 ExpMax= 6.07D+04 ExpMxC= 2.07D+03 IAcc=3 IRadAn=         5 AccDes= 0.00D+00
 Harris functional with IExCor= 1009 and IRadAn=       5 diagonalized for initial guess.
 HarFok:  IExCor= 1009 AccDes= 0.00D+00 IRadAn=         5 IDoV= 1 UseB2=F ITyADJ=14
 ICtDFT=  3500011 ScaDFX=  1.000000  1.000000  1.000000  1.000000
 FoFCou: FMM=F IPFlag=           0 FMFlag=      100000 FMFlg1=           0
         NFxFlg=           0 DoJE=T BraDBF=F KetDBF=T FulRan=T
         wScrn=  0.000000 ICntrl=       500 IOpCl=  0 I1Cent=   200000004 NGrid=           0
         NMat0=    1 NMatS0=      1 NMatT0=    0 NMatD0=    1 NMtDS0=    0 NMtDT0=    0
 Symmetry not used in FoFCou.
 Harris En= -1199.19338627489    
 Leave Link  401 at Sat May 24 03:52:41 2025, MaxMem=  3758096384 cpu:               4.4 elap:               0.7
 (Enter /apps/easybuild-2022/easybuild/software/Compiler/NVHPC/22.11-CUDA-11.7.0/Gaussian/g16c01-CUDA-11.7.0/g16/l502.exe)
 Keep R1 ints in memory in canonical form, NReq=2293446996.
 FoFCou: FMM=F IPFlag=           0 FMFlag=           0 FMFlg1=           0
         NFxFlg=           0 DoJE=F BraDBF=F KetDBF=F FulRan=T
         wScrn=  0.000000 ICntrl=       600 IOpCl=  0 I1Cent=           0 NGrid=           0
         NMat0=    1 NMatS0=  67161 NMatT0=    0 NMatD0=    1 NMtDS0=    0 NMtDT0=    0
 Symmetry not used in FoFCou.
 Two-electron integral symmetry not used.
 Closed shell SCF:
 Using DIIS extrapolation, IDIIS=  1040.
 NGot=  3758096384 LenX=  1502398672 LenY=  1502219302
 Requested convergence on RMS density matrix=1.00D-08 within  32 cycles.
 Requested convergence on MAX density matrix=1.00D-06.
 Requested convergence on             energy=1.00D-06.
 No special actions if energy rises.
 Integral accuracy reduced to 1.0D-05 until final iterations.

 Cycle   1  Pass 0  IDiag  1:
 E= -1199.74744940238    
 DIIS: error= 1.42D-04 at cycle   1 NSaved=   1.
 NSaved= 1 IEnMin= 1 EnMin= -1199.74744940238     IErMin= 1 ErrMin= 1.42D-04
 ErrMax= 1.42D-04  0.00D+00 EMaxC= 1.00D-01 BMatC= 4.55D-05 BMatP= 4.55D-05
 IDIUse=3 WtCom= 9.99D-01 WtEn= 1.42D-03
 Coeff-Com:  0.100D+01
 Coeff-En:   0.100D+01
 Coeff:      0.100D+01
 Gap=     0.933 Goal=   None    Shift=    0.000
 RMSDP=3.03D-05 MaxDP=8.03D-04              OVMax= 5.72D-03

 Cycle   2  Pass 0  IDiag  1:
 E= -1199.74753835908     Delta-E=       -0.000088956701 Rises=F Damp=F
 DIIS: error= 6.69D-05 at cycle   2 NSaved=   2.
 NSaved= 2 IEnMin= 2 EnMin= -1199.74753835908     IErMin= 2 ErrMin= 6.69D-05
 ErrMax= 6.69D-05  0.00D+00 EMaxC= 1.00D-01 BMatC= 3.78D-06 BMatP= 4.55D-05
 IDIUse=1 WtCom= 1.00D+00 WtEn= 0.00D+00
 Coeff-Com: -0.976D-01 0.110D+01
 Coeff:     -0.976D-01 0.110D+01
 Gap=     0.271 Goal=   None    Shift=    0.000
 RMSDP=1.25D-05 MaxDP=4.99D-04 DE=-8.90D-05 OVMax= 2.51D-03

 Cycle   3  Pass 0  IDiag  1:
 E= -1199.74754939661     Delta-E=       -0.000011037534 Rises=F Damp=F
 DIIS: error= 5.36D-05 at cycle   3 NSaved=   3.
 NSaved= 3 IEnMin= 3 EnMin= -1199.74754939661     IErMin= 3 ErrMin= 5.36D-05
 ErrMax= 5.36D-05  0.00D+00 EMaxC= 1.00D-01 BMatC= 2.06D-06 BMatP= 3.78D-06
 IDIUse=1 WtCom= 1.00D+00 WtEn= 0.00D+00
 Coeff-Com: -0.918D-01 0.475D+00 0.617D+00
 Coeff:     -0.918D-01 0.475D+00 0.617D+00
 Gap=     0.271 Goal=   None    Shift=    0.000
 RMSDP=4.78D-06 MaxDP=1.93D-04 DE=-1.10D-05 OVMax= 1.03D-03

 Initial convergence to 1.0D-05 achieved.  Increase integral accuracy.
 Cycle   4  Pass 1  IDiag  1:
 E= -1199.74753864106     Delta-E=        0.000010755548 Rises=F Damp=F
 DIIS: error= 2.34D-05 at cycle   1 NSaved=   1.
 NSaved= 1 IEnMin= 1 EnMin= -1199.74753864106     IErMin= 1 ErrMin= 2.34D-05
 ErrMax= 2.34D-05  0.00D+00 EMaxC= 1.00D-01 BMatC= 1.04D-06 BMatP= 1.04D-06
 IDIUse=1 WtCom= 1.00D+00 WtEn= 0.00D+00
 Coeff-Com:  0.100D+01
 Coeff:      0.100D+01
 Gap=     0.271 Goal=   None    Shift=    0.000
 RMSDP=4.78D-06 MaxDP=1.93D-04 DE= 1.08D-05 OVMax= 5.71D-04

 Cycle   5  Pass 1  IDiag  1:
 E= -1199.74753958054     Delta-E=       -0.000000939472 Rises=F Damp=F
 DIIS: error= 3.84D-05 at cycle   2 NSaved=   2.
 NSaved= 2 IEnMin= 2 EnMin= -1199.74753958054     IErMin= 1 ErrMin= 2.34D-05
 ErrMax= 3.84D-05  0.00D+00 EMaxC= 1.00D-01 BMatC= 5.59D-07 BMatP= 1.04D-06
 IDIUse=1 WtCom= 1.00D+00 WtEn= 0.00D+00
 Coeff-Com:  0.391D+00 0.609D+00
 Coeff:      0.391D+00 0.609D+00
 Gap=     0.271 Goal=   None    Shift=    0.000
 RMSDP=1.93D-06 MaxDP=8.76D-05 DE=-9.39D-07 OVMax= 3.35D-04

 Cycle   6  Pass 1  IDiag  1:
 E= -1199.74753994710     Delta-E=       -0.000000366560 Rises=F Damp=F
 DIIS: error= 1.87D-05 at cycle   3 NSaved=   3.
 NSaved= 3 IEnMin= 3 EnMin= -1199.74753994710     IErMin= 3 ErrMin= 1.87D-05
 ErrMax= 1.87D-05  0.00D+00 EMaxC= 1.00D-01 BMatC= 1.66D-07 BMatP= 5.59D-07
 IDIUse=1 WtCom= 1.00D+00 WtEn= 0.00D+00
 Coeff-Com: -0.706D-01 0.334D+00 0.737D+00
 Coeff:     -0.706D-01 0.334D+00 0.737D+00
 Gap=     0.271 Goal=   None    Shift=    0.000
 RMSDP=1.10D-06 MaxDP=4.64D-05 DE=-3.67D-07 OVMax= 1.72D-04

 Cycle   7  Pass 1  IDiag  1:
 E= -1199.74754010351     Delta-E=       -0.000000156409 Rises=F Damp=F
 DIIS: error= 2.61D-06 at cycle   4 NSaved=   4.
 NSaved= 4 IEnMin= 4 EnMin= -1199.74754010351     IErMin= 4 ErrMin= 2.61D-06
 ErrMax= 2.61D-06  0.00D+00 EMaxC= 1.00D-01 BMatC= 6.45D-09 BMatP= 1.66D-07
 IDIUse=1 WtCom= 1.00D+00 WtEn= 0.00D+00
 Coeff-Com: -0.363D-01 0.561D-01 0.122D+00 0.858D+00
 Coeff:     -0.363D-01 0.561D-01 0.122D+00 0.858D+00
 Gap=     0.271 Goal=   None    Shift=    0.000
 RMSDP=5.03D-07 MaxDP=2.01D-05 DE=-1.56D-07 OVMax= 1.12D-04

 Cycle   8  Pass 1  IDiag  1:
 E= -1199.74754011938     Delta-E=       -0.000000015877 Rises=F Damp=F
 DIIS: error= 1.94D-06 at cycle   5 NSaved=   5.
 NSaved= 5 IEnMin= 5 EnMin= -1199.74754011938     IErMin= 5 ErrMin= 1.94D-06
 ErrMax= 1.94D-06  0.00D+00 EMaxC= 1.00D-01 BMatC= 4.24D-09 BMatP= 6.45D-09
 IDIUse=1 WtCom= 1.00D+00 WtEn= 0.00D+00
 Coeff-Com:  0.116D-01-0.108D+00-0.278D+00 0.495D+00 0.879D+00
 Coeff:      0.116D-01-0.108D+00-0.278D+00 0.495D+00 0.879D+00
 Gap=     0.271 Goal=   None    Shift=    0.000
 RMSDP=4.10D-07 MaxDP=1.60D-05 DE=-1.59D-08 OVMax= 8.60D-05

 Cycle   9  Pass 1  IDiag  1:
 E= -1199.74754012646     Delta-E=       -0.000000007073 Rises=F Damp=F
 DIIS: error= 3.65D-07 at cycle   6 NSaved=   6.
 NSaved= 6 IEnMin= 6 EnMin= -1199.74754012646     IErMin= 6 ErrMin= 3.65D-07
 ErrMax= 3.65D-07  0.00D+00 EMaxC= 1.00D-01 BMatC= 1.59D-10 BMatP= 4.24D-09
 IDIUse=1 WtCom= 1.00D+00 WtEn= 0.00D+00
 Coeff-Com:  0.563D-02-0.437D-01-0.111D+00 0.150D+00 0.353D+00 0.646D+00
 Coeff:      0.563D-02-0.437D-01-0.111D+00 0.150D+00 0.353D+00 0.646D+00
 Gap=     0.271 Goal=   None    Shift=    0.000
 RMSDP=4.45D-08 MaxDP=1.90D-06 DE=-7.07D-09 OVMax= 8.89D-06

 Cycle  10  Pass 1  IDiag  1:
 E= -1199.74754012658     Delta-E=       -0.000000000126 Rises=F Damp=F
 DIIS: error= 2.26D-07 at cycle   7 NSaved=   7.
 NSaved= 7 IEnMin= 7 EnMin= -1199.74754012658     IErMin= 7 ErrMin= 2.26D-07
 ErrMax= 2.26D-07  0.00D+00 EMaxC= 1.00D-01 BMatC= 3.82D-11 BMatP= 1.59D-10
 IDIUse=1 WtCom= 1.00D+00 WtEn= 0.00D+00
 Coeff-Com:  0.106D-02-0.412D-02-0.846D-02-0.169D-01 0.274D-01 0.336D+00
 Coeff-Com:  0.665D+00
 Coeff:      0.106D-02-0.412D-02-0.846D-02-0.169D-01 0.274D-01 0.336D+00
 Coeff:      0.665D+00
 Gap=     0.271 Goal=   None    Shift=    0.000
 RMSDP=1.70D-08 MaxDP=5.70D-07 DE=-1.26D-10 OVMax= 2.87D-06

 Cycle  11  Pass 1  IDiag  1:
 E= -1199.74754012655     Delta-E=        0.000000000027 Rises=F Damp=F
 DIIS: error= 7.81D-08 at cycle   8 NSaved=   8.
 NSaved= 8 IEnMin= 7 EnMin= -1199.74754012658     IErMin= 8 ErrMin= 7.81D-08
 ErrMax= 7.81D-08  0.00D+00 EMaxC= 1.00D-01 BMatC= 2.78D-12 BMatP= 3.82D-11
 IDIUse=1 WtCom= 1.00D+00 WtEn= 0.00D+00
 Coeff-Com: -0.171D-03 0.324D-02 0.894D-02-0.223D-01-0.256D-01 0.765D-01
 Coeff-Com:  0.272D+00 0.687D+00
 Coeff:     -0.171D-03 0.324D-02 0.894D-02-0.223D-01-0.256D-01 0.765D-01
 Coeff:      0.272D+00 0.687D+00
 Gap=     0.271 Goal=   None    Shift=    0.000
 RMSDP=4.25D-09 MaxDP=1.41D-07 DE= 2.73D-11 OVMax= 6.30D-07

 SCF Done:  E(RM062X) =  -1199.74754013     A.U. after   11 cycles
            NFock= 11  Conv=0.42D-08     -V/T= 2.0028
 KE= 1.196346934578D+03 PE=-4.644457281459D+03 EE= 1.349196558108D+03
 Leave Link  502 at Sat May 24 03:53:14 2025, MaxMem=  3758096384 cpu:             139.1 elap:              32.8
 (Enter /apps/easybuild-2022/easybuild/software/Compiler/NVHPC/22.11-CUDA-11.7.0/Gaussian/g16c01-CUDA-11.7.0/g16/l508.exe)
 QCSCF skips out because SCF is already converged.
 Leave Link  508 at Sat May 24 03:53:14 2025, MaxMem=  3758096384 cpu:               0.0 elap:               0.0
 (Enter /apps/easybuild-2022/easybuild/software/Compiler/NVHPC/22.11-CUDA-11.7.0/Gaussian/g16c01-CUDA-11.7.0/g16/l801.exe)
 DoSCS=F DFT=T ScalE2(SS,OS)=  1.000000  1.000000
 Range of M.O.s used for correlation:     1   366
 NBasis=   366 NAE=    49 NBE=    49 NFC=     0 NFV=     0
 NROrb=    366 NOA=    49 NOB=    49 NVA=   317 NVB=   317

 **** Warning!!: The largest alpha MO coefficient is  0.12217465D+02

 Leave Link  801 at Sat May 24 03:53:14 2025, MaxMem=  3758096384 cpu:               0.0 elap:               0.0
 (Enter /apps/easybuild-2022/easybuild/software/Compiler/NVHPC/22.11-CUDA-11.7.0/Gaussian/g16c01-CUDA-11.7.0/g16/l1101.exe)
 Leave Link 1101 at Sat May 24 03:53:14 2025, MaxMem=  3758096384 cpu:               0.0 elap:               0.0
 (Enter /apps/easybuild-2022/easybuild/software/Compiler/NVHPC/22.11-CUDA-11.7.0/Gaussian/g16c01-CUDA-11.7.0/g16/l1102.exe)
 Symmetrizing basis deriv contribution to polar:
 IMax=3 JMax=2 DiffMx= 0.00D+00
 Leave Link 1102 at Sat May 24 03:53:14 2025, MaxMem=  3758096384 cpu:               0.1 elap:               0.0
 (Enter /apps/easybuild-2022/easybuild/software/Compiler/NVHPC/22.11-CUDA-11.7.0/Gaussian/g16c01-CUDA-11.7.0/g16/l1110.exe)
 Leave Link 1110 at Sat May 24 03:53:14 2025, MaxMem=  3758096384 cpu:               0.0 elap:               0.0
 (Enter /apps/easybuild-2022/easybuild/software/Compiler/NVHPC/22.11-CUDA-11.7.0/Gaussian/g16c01-CUDA-11.7.0/g16/l1002.exe)
 Minotr:  Closed shell wavefunction.
 Leave Link 1002 at Sat May 24 03:53:14 2025, MaxMem=  3758096384 cpu:               0.0 elap:               0.0
 (Enter /apps/easybuild-2022/easybuild/software/Compiler/NVHPC/22.11-CUDA-11.7.0/Gaussian/g16c01-CUDA-11.7.0/g16/l701.exe)
 ... and contract with generalized density number  0.
 Compute integral first derivatives.
   1 Symmetry operations used in ECPInt.
 ECPInt:  NShTT=    8515 NPrTT=   27988 LenC2=    7881 LenP2D=   19036.
 LDataN:  DoStor=T MaxTD1= 7 Len=  274
 Leave Link  701 at Sat May 24 03:53:14 2025, MaxMem=  3758096384 cpu:               0.5 elap:               0.1
 (Enter /apps/easybuild-2022/easybuild/software/Compiler/NVHPC/22.11-CUDA-11.7.0/Gaussian/g16c01-CUDA-11.7.0/g16/l702.exe)
 L702 exits ... SP integral derivatives will be done elsewhere.
 Leave Link  702 at Sat May 24 03:53:14 2025, MaxMem=  3758096384 cpu:               0.0 elap:               0.0
 (Enter /apps/easybuild-2022/easybuild/software/Compiler/NVHPC/22.11-CUDA-11.7.0/Gaussian/g16c01-CUDA-11.7.0/g16/l703.exe)
 Integral derivatives from FoFJK, PRISM(SPDF).
 Compute integral first derivatives, UseDBF=F ICtDFT=           0.
 Calling FoFJK, ICntrl=      2127 FMM=F ISym2X=0 I1Cent= 0 IOpClX= 0 NMat=1 NMatS=1 NMatT=0.
 FoFJK:  IHMeth= 1 ICntrl=    2127 DoSepK=F KAlg= 0 I1Cent=           0 FoldK=F
 IRaf=         0 NMat=       1 IRICut=       1 DoRegI=T DoRafI=F ISym2E= 0 IDoP0=0 IntGTp=1.
 FoFCou: FMM=F IPFlag=           0 FMFlag=      100000 FMFlg1=         800
         NFxFlg=           0 DoJE=F BraDBF=F KetDBF=F FulRan=T
         wScrn=  0.000000 ICntrl=      2127 IOpCl=  0 I1Cent=           0 NGrid=           0
         NMat0=    1 NMatS0=      1 NMatT0=    0 NMatD0=    1 NMtDS0=    0 NMtDT0=    0
 Symmetry not used in FoFCou.
 Leave Link  703 at Sat May 24 03:53:26 2025, MaxMem=  3758096384 cpu:              94.9 elap:              12.0
 (Enter /apps/easybuild-2022/easybuild/software/Compiler/NVHPC/22.11-CUDA-11.7.0/Gaussian/g16c01-CUDA-11.7.0/g16/l716.exe)
 Dipole        =-1.09400808D+00-2.84128772D-01-1.16496327D+00
 Polarizability= 0.00000000D+00 0.00000000D+00 0.00000000D+00
                 0.00000000D+00 0.00000000D+00 0.00000000D+00
 -------------------------------------------------------------------
 Center     Atomic                   Forces (Hartrees/Bohr)
 Number     Number              X              Y              Z
 -------------------------------------------------------------------
      1        6          -0.000351617    0.000760518   -0.003992240
      2        6           0.001966849    0.001221281    0.006936113
      3        9          -0.003960773   -0.008178949    0.002833030
      4        9           0.000727697    0.002135638   -0.000173929
      5       16           0.000394132    0.001170690    0.000005175
      6        8           0.000649503    0.000063114    0.000124628
      7        8          -0.000310461    0.000221632   -0.000009658
      8        8           0.000475602    0.000414914   -0.000377430
      9        9          -0.001931559   -0.002165995   -0.002558271
     10        9           0.000116422    0.003279470   -0.001445216
     11        9           0.002061475    0.001072300   -0.001345057
     12        1           0.000162730    0.000005387    0.000002854
 -------------------------------------------------------------------
 Cartesian Forces:  Max     0.008178949 RMS     0.002377864
 Leave Link  716 at Sat May 24 03:53:26 2025, MaxMem=  3758096384 cpu:               0.0 elap:               0.0
 (Enter /apps/easybuild-2022/easybuild/software/Compiler/NVHPC/22.11-CUDA-11.7.0/Gaussian/g16c01-CUDA-11.7.0/g16/l123.exe)
 IRC-IRC-IRC-IRC-IRC-IRC-IRC-IRC-IRC-IRC-IRC-IRC-IRC-IRC-IRC-IRC-IRC-IRC
 Pt  3 Step number   1 out of a maximum of  20
 Using modified Bulirsch-Stoer corrector integration.
   Using distance weighted interpolants to fit PES.
 PreDWI: IReCr0= 2 IReCr1= 1 IReCr2= 1 IReCr3= 1
 Modified Bulirsch-Stoer Extrapolation Cycles:
    EPS =    0.000010000000000
    Cycle     1 NS=    48
      PEZero:  N= 2 I= 1 D=  3.98D-04 Err=  9.26D-07
    Cycle     2 NS=    64 Truncation Error =  0.000000926
 BS completed in    2 cycles and     112 integration steps.
 Maximum DWI energy   std dev =  0.000000117 at pt    47
 Maximum DWI gradient std dev =  0.001825740 at pt    28
 SUMMARY OF CORRECTOR INTEGRATION:
   Predictor End Point Energy = -1199.747540
   Old End Point Energy       = -1199.747540
   Corrected End Point Energy = -1199.747540
   Predictor End-Start Dist.  =     0.076331
   Old End-Start Dist.        =     0.076331
   New End-Start Dist.        =     0.076331
   New End-Old End Dist.      =     0.000137
 CORRECTOR INTEGRATION CONVERGENCE:
   Recorrection delta-x convergence threshold:    0.010000
   Delta-x Convergence Met
 Point Number:   3          Path Number:   1
                    CURRENT STRUCTURE
                Cartesian Coordinates (Ang):                
 ---------------------------------------------------------------------
 Center     Atomic                     Coordinates (Angstroms)
 Number     Number                        X           Y           Z
 ---------------------------------------------------------------------
      1          6                   -1.409255   -1.107283   -0.397352
      2          6                   -0.271038    0.405767    0.545833
      3          9                   -0.657142    0.270144   -1.036680
      4          9                   -0.807486    1.567926    0.829088
      5         16                    1.516285    0.572889    0.397687
      6          8                    1.968968    0.924770    1.692790
      7          8                    1.993896   -0.571530   -0.303971
      8          8                    1.717336    1.842294   -0.531238
      9          9                   -1.797397   -1.485637   -1.583881
     10          9                   -0.660908   -2.034391    0.090947
     11          9                   -2.446584   -0.770004    0.292286
     12          1                    1.826781    1.555574   -1.447921
 ---------------------------------------------------------------------
   CHANGE IN THE REACTION COORDINATE =    0.07633
   NET REACTION COORDINATE UP TO THIS POINT =    0.22901
  # OF POINTS ALONG THE PATH =   3
  # OF STEPS =   1

 Calculating another point on the path.
 Point Number  4 in REVERSE path direction.
 Using LQA Reaction Path Following.
   LQA: T_Est iteration completed in    3 iterations.
 IRC-IRC-IRC-IRC-IRC-IRC-IRC-IRC-IRC-IRC-IRC-IRC-IRC-IRC-IRC-IRC-IRC-IRC
 Leave Link  123 at Sat May 24 03:53:26 2025, MaxMem=  3758096384 cpu:               0.1 elap:               0.0
 (Enter /apps/easybuild-2022/easybuild/software/Compiler/NVHPC/22.11-CUDA-11.7.0/Gaussian/g16c01-CUDA-11.7.0/g16/l202.exe)
                          Input orientation:                          
 ---------------------------------------------------------------------
 Center     Atomic      Atomic             Coordinates (Angstroms)
 Number     Number       Type             X           Y           Z
 ---------------------------------------------------------------------
      1          6           0       -1.409586   -1.106570   -0.401097
      2          6           0       -0.269185    0.406900    0.552339
      3          9           0       -0.659490    0.265296   -1.035001
      4          9           0       -0.807058    1.569199    0.828986
      5         16           0        1.516422    0.573302    0.397690
      6          8           0        1.969426    0.924814    1.692878
      7          8           0        1.993679   -0.571376   -0.303980
      8          8           0        1.717671    1.842587   -0.531504
      9          9           0       -1.798541   -1.486920   -1.585396
     10          9           0       -0.660839   -2.032446    0.090089
     11          9           0       -2.445362   -0.769370    0.291487
     12          1           0        1.828601    1.555636   -1.447895
 ---------------------------------------------------------------------
                    Distance matrix (angstroms):
                    1          2          3          4          5
     1  C    0.000000
     2  C    2.121355   0.000000
     3  F    1.687156   1.640744   0.000000
     4  F    3.005975   1.310260   2.279559   0.000000
     5  S    3.467212   1.800000   2.623369   2.564447   0.000000
     6  O    4.464189   2.565237   3.845451   2.978323   1.416434
     7  O    3.446459   2.609762   2.876407   3.702675   1.424922
     8  O    4.300497   2.680207   2.896939   2.880961   1.585870
     9  F    1.303271   3.239660   2.161165   4.018972   4.377914
    10  F    1.288073   2.513459   2.558407   3.679564   3.409547
    11  F    1.290817   2.487449   2.453456   2.905486   4.184470
    12  H    4.320762   3.117890   2.833029   3.482969   2.113911
                    6          7          8          9         10
     6  O    0.000000
     7  O    2.495319   0.000000
     8  O    2.419413   2.440320   0.000000
     9  F    5.546271   4.106237   4.955810   0.000000
    10  F    4.269967   3.055566   4.589071   2.097431   0.000000
    11  F    4.931989   4.483176   4.983019   2.110911   2.195552
    12  H    3.206591   2.420738   0.966654   4.736266   4.630015
                   11         12
    11  F    0.000000
    12  H    5.166997   0.000000
 Symmetry turned off by external request.
 Stoichiometry    C2HF5O3S
 Rotational constants (GHZ):           1.8012278           0.6856546           0.6320599
 Leave Link  202 at Sat May 24 03:53:26 2025, MaxMem=  3758096384 cpu:               0.0 elap:               0.0
 (Enter /apps/easybuild-2022/easybuild/software/Compiler/NVHPC/22.11-CUDA-11.7.0/Gaussian/g16c01-CUDA-11.7.0/g16/l301.exe)
 Standard basis: def2TZVPP (5D, 7F)
 Ernie: Thresh=  0.10000D-02 Tol=  0.10000D-05 Strict=F.
   366 basis functions,   596 primitive gaussians,   423 cartesian basis functions
    49 alpha electrons       49 beta electrons
       nuclear repulsion energy       899.1906830663 Hartrees.
 IExCor= 4336 DFT=T Ex+Corr=M062X ExCW=0 ScaHFX=  0.540000
 ScaDFX=  1.000000  1.000000  1.000000  1.000000 ScalE2=  1.000000  1.000000
 IRadAn=      5 IRanWt=     -1 IRanGd=            0 ICorTp=0 IEmpDi=  4
 NAtoms=   12 NActive=   12 NUniq=   12 SFac= 1.00D+00 NAtFMM=   60 NAOKFM=F Big=F
 Integral buffers will be    131072 words long.
 Raffenetti 2 integral format.
 Two-electron integral symmetry is turned off.
 Leave Link  301 at Sat May 24 03:53:26 2025, MaxMem=  3758096384 cpu:               0.0 elap:               0.0
 (Enter /apps/easybuild-2022/easybuild/software/Compiler/NVHPC/22.11-CUDA-11.7.0/Gaussian/g16c01-CUDA-11.7.0/g16/l302.exe)
 NPDir=0 NMtPBC=     1 NCelOv=     1 NCel=       1 NClECP=     1 NCelD=      1
         NCelK=      1 NCelE2=     1 NClLst=     1 CellRange=     0.0.
 One-electron integrals computed using PRISM.
   1 Symmetry operations used in ECPInt.
[...]
 Gap=     0.265 Goal=   None    Shift=    0.000
 RMSDP=1.44D-06 MaxDP=8.47D-05 DE=-7.00D-07 OVMax= 2.07D-04

 Cycle   5  Pass 1  IDiag  1:
 E= -1199.82315018335     Delta-E=       -0.000000072620 Rises=F Damp=F
 DIIS: error= 1.44D-05 at cycle   3 NSaved=   3.
 NSaved= 3 IEnMin= 3 EnMin= -1199.82315018335     IErMin= 3 ErrMin= 1.44D-05
 ErrMax= 1.44D-05  0.00D+00 EMaxC= 1.00D-01 BMatC= 2.08D-07 BMatP= 3.05D-07
 IDIUse=1 WtCom= 1.00D+00 WtEn= 0.00D+00
 Coeff-Com: -0.344D-01 0.455D+00 0.579D+00
 Coeff:     -0.344D-01 0.455D+00 0.579D+00
 Gap=     0.265 Goal=   None    Shift=    0.000
 RMSDP=7.16D-07 MaxDP=4.36D-05 DE=-7.26D-08 OVMax= 9.88D-05

 Cycle   6  Pass 1  IDiag  1:
 E= -1199.82315032103     Delta-E=       -0.000000137683 Rises=F Damp=F
 DIIS: error= 1.63D-06 at cycle   4 NSaved=   4.
 NSaved= 4 IEnMin= 4 EnMin= -1199.82315032103     IErMin= 4 ErrMin= 1.63D-06
 ErrMax= 1.63D-06  0.00D+00 EMaxC= 1.00D-01 BMatC= 2.77D-09 BMatP= 2.08D-07
 IDIUse=1 WtCom= 1.00D+00 WtEn= 0.00D+00
 Coeff-Com: -0.197D-01 0.172D+00 0.237D+00 0.611D+00
 Coeff:     -0.197D-01 0.172D+00 0.237D+00 0.611D+00
 Gap=     0.265 Goal=   None    Shift=    0.000
 RMSDP=1.05D-07 MaxDP=4.98D-06 DE=-1.38D-07 OVMax= 1.05D-05

 Cycle   7  Pass 1  IDiag  1:
 E= -1199.82315032268     Delta-E=       -0.000000001649 Rises=F Damp=F
 DIIS: error= 6.36D-07 at cycle   5 NSaved=   5.
 NSaved= 5 IEnMin= 5 EnMin= -1199.82315032268     IErMin= 5 ErrMin= 6.36D-07
 ErrMax= 6.36D-07  0.00D+00 EMaxC= 1.00D-01 BMatC= 4.19D-10 BMatP= 2.77D-09
 IDIUse=1 WtCom= 1.00D+00 WtEn= 0.00D+00
 Coeff-Com: -0.219D-02-0.348D-02 0.203D-02 0.266D+00 0.737D+00
 Coeff:     -0.219D-02-0.348D-02 0.203D-02 0.266D+00 0.737D+00
 Gap=     0.265 Goal=   None    Shift=    0.000
 RMSDP=4.41D-08 MaxDP=2.19D-06 DE=-1.65D-09 OVMax= 4.47D-06

 Cycle   8  Pass 1  IDiag  1:
 E= -1199.82315032303     Delta-E=       -0.000000000352 Rises=F Damp=F
 DIIS: error= 2.62D-07 at cycle   6 NSaved=   6.
 NSaved= 6 IEnMin= 6 EnMin= -1199.82315032303     IErMin= 6 ErrMin= 2.62D-07
 ErrMax= 2.62D-07  0.00D+00 EMaxC= 1.00D-01 BMatC= 4.37D-11 BMatP= 4.19D-10
 IDIUse=1 WtCom= 1.00D+00 WtEn= 0.00D+00
 Coeff-Com:  0.132D-02-0.216D-01-0.265D-01 0.371D-01 0.314D+00 0.696D+00
 Coeff:      0.132D-02-0.216D-01-0.265D-01 0.371D-01 0.314D+00 0.696D+00
 Gap=     0.265 Goal=   None    Shift=    0.000
 RMSDP=1.52D-08 MaxDP=7.98D-07 DE=-3.52D-10 OVMax= 1.61D-06

 Cycle   9  Pass 1  IDiag  1:
 E= -1199.82315032292     Delta-E=        0.000000000115 Rises=F Damp=F
 DIIS: error= 5.56D-08 at cycle   7 NSaved=   7.
 NSaved= 7 IEnMin= 6 EnMin= -1199.82315032303     IErMin= 7 ErrMin= 5.56D-08
 ErrMax= 5.56D-08  0.00D+00 EMaxC= 1.00D-01 BMatC= 2.65D-12 BMatP= 4.37D-11
 IDIUse=1 WtCom= 1.00D+00 WtEn= 0.00D+00
 Coeff-Com:  0.578D-03-0.831D-02-0.104D-01 0.432D-03 0.850D-01 0.257D+00
 Coeff-Com:  0.676D+00
 Coeff:      0.578D-03-0.831D-02-0.104D-01 0.432D-03 0.850D-01 0.257D+00
 Coeff:      0.676D+00
 Gap=     0.265 Goal=   None    Shift=    0.000
 RMSDP=3.98D-09 MaxDP=2.23D-07 DE= 1.15D-10 OVMax= 4.83D-07

 SCF Done:  E(RM062X) =  -1199.82315032     A.U. after    9 cycles
            NFock=  9  Conv=0.40D-08     -V/T= 2.0028
 KE= 1.196513798703D+03 PE=-4.606013141719D+03 EE= 1.329843064848D+03
 Leave Link  502 at Sat May 24 05:07:34 2025, MaxMem=  3758096384 cpu:             118.7 elap:              27.0
 (Enter /apps/easybuild-2022/easybuild/software/Compiler/NVHPC/22.11-CUDA-11.7.0/Gaussian/g16c01-CUDA-11.7.0/g16/l508.exe)
 QCSCF skips out because SCF is already converged.
 Leave Link  508 at Sat May 24 05:07:34 2025, MaxMem=  3758096384 cpu:               0.0 elap:               0.0
 (Enter /apps/easybuild-2022/easybuild/software/Compiler/NVHPC/22.11-CUDA-11.7.0/Gaussian/g16c01-CUDA-11.7.0/g16/l801.exe)
 DoSCS=F DFT=T ScalE2(SS,OS)=  1.000000  1.000000
 Range of M.O.s used for correlation:     1   366
 NBasis=   366 NAE=    49 NBE=    49 NFC=     0 NFV=     0
 NROrb=    366 NOA=    49 NOB=    49 NVA=   317 NVB=   317

 **** Warning!!: The largest alpha MO coefficient is  0.11149596D+02

 Leave Link  801 at Sat May 24 05:07:34 2025, MaxMem=  3758096384 cpu:               0.0 elap:               0.0
 (Enter /apps/easybuild-2022/easybuild/software/Compiler/NVHPC/22.11-CUDA-11.7.0/Gaussian/g16c01-CUDA-11.7.0/g16/l1101.exe)
 Leave Link 1101 at Sat May 24 05:07:34 2025, MaxMem=  3758096384 cpu:               0.0 elap:               0.0
 (Enter /apps/easybuild-2022/easybuild/software/Compiler/NVHPC/22.11-CUDA-11.7.0/Gaussian/g16c01-CUDA-11.7.0/g16/l1102.exe)
 Symmetrizing basis deriv contribution to polar:
 IMax=3 JMax=2 DiffMx= 0.00D+00
 Leave Link 1102 at Sat May 24 05:07:34 2025, MaxMem=  3758096384 cpu:               0.1 elap:               0.0
 (Enter /apps/easybuild-2022/easybuild/software/Compiler/NVHPC/22.11-CUDA-11.7.0/Gaussian/g16c01-CUDA-11.7.0/g16/l1110.exe)
 Leave Link 1110 at Sat May 24 05:07:34 2025, MaxMem=  3758096384 cpu:               0.0 elap:               0.0
 (Enter /apps/easybuild-2022/easybuild/software/Compiler/NVHPC/22.11-CUDA-11.7.0/Gaussian/g16c01-CUDA-11.7.0/g16/l1002.exe)
 Minotr:  Closed shell wavefunction.
 Leave Link 1002 at Sat May 24 05:07:34 2025, MaxMem=  3758096384 cpu:               0.0 elap:               0.0
 (Enter /apps/easybuild-2022/easybuild/software/Compiler/NVHPC/22.11-CUDA-11.7.0/Gaussian/g16c01-CUDA-11.7.0/g16/l701.exe)
 ... and contract with generalized density number  0.
 Compute integral first derivatives.
   1 Symmetry operations used in ECPInt.
 ECPInt:  NShTT=    8515 NPrTT=   27988 LenC2=    7811 LenP2D=   18734.
 LDataN:  DoStor=T MaxTD1= 7 Len=  274
 Leave Link  701 at Sat May 24 05:07:35 2025, MaxMem=  3758096384 cpu:               0.5 elap:               0.1
 (Enter /apps/easybuild-2022/easybuild/software/Compiler/NVHPC/22.11-CUDA-11.7.0/Gaussian/g16c01-CUDA-11.7.0/g16/l702.exe)
 L702 exits ... SP integral derivatives will be done elsewhere.
 Leave Link  702 at Sat May 24 05:07:35 2025, MaxMem=  3758096384 cpu:               0.0 elap:               0.0
 (Enter /apps/easybuild-2022/easybuild/software/Compiler/NVHPC/22.11-CUDA-11.7.0/Gaussian/g16c01-CUDA-11.7.0/g16/l703.exe)
 Integral derivatives from FoFJK, PRISM(SPDF).
 Compute integral first derivatives, UseDBF=F ICtDFT=           0.
 Calling FoFJK, ICntrl=      2127 FMM=F ISym2X=0 I1Cent= 0 IOpClX= 0 NMat=1 NMatS=1 NMatT=0.
 FoFJK:  IHMeth= 1 ICntrl=    2127 DoSepK=F KAlg= 0 I1Cent=           0 FoldK=F
 IRaf=         0 NMat=       1 IRICut=       1 DoRegI=T DoRafI=F ISym2E= 0 IDoP0=0 IntGTp=1.
 FoFCou: FMM=F IPFlag=           0 FMFlag=      100000 FMFlg1=         800
         NFxFlg=           0 DoJE=F BraDBF=F KetDBF=F FulRan=T
         wScrn=  0.000000 ICntrl=      2127 IOpCl=  0 I1Cent=           0 NGrid=           0
         NMat0=    1 NMatS0=      1 NMatT0=    0 NMatD0=    1 NMtDS0=    0 NMtDT0=    0
 Symmetry not used in FoFCou.
 Leave Link  703 at Sat May 24 05:07:46 2025, MaxMem=  3758096384 cpu:              91.0 elap:              11.5
 (Enter /apps/easybuild-2022/easybuild/software/Compiler/NVHPC/22.11-CUDA-11.7.0/Gaussian/g16c01-CUDA-11.7.0/g16/l716.exe)
 Dipole        =-6.98973438D-01 3.81421556D-01-1.14527111D+00
 Polarizability= 0.00000000D+00 0.00000000D+00 0.00000000D+00
                 0.00000000D+00 0.00000000D+00 0.00000000D+00
 -------------------------------------------------------------------
 Center     Atomic                   Forces (Hartrees/Bohr)
 Number     Number              X              Y              Z
 -------------------------------------------------------------------
      1        6          -0.001023841   -0.001097407   -0.001381342
      2        6           0.000824231    0.001483418    0.001931693
      3        9          -0.001797804   -0.002063896   -0.002920225
      4        9           0.002784915    0.002779801    0.002018614
      5       16           0.002321114    0.002116082    0.003452884
      6        8           0.004779773    0.001604561   -0.000293407
      7        8          -0.001633695    0.000257178    0.001695047
      8        8          -0.000970697    0.000398023    0.000622598
      9        9          -0.002485910   -0.003239676   -0.001146641
     10        9          -0.001209995   -0.001166343   -0.001927756
     11        9          -0.001299091   -0.001069665   -0.002084174
     12        1          -0.000289000   -0.000002076    0.000032708
 -------------------------------------------------------------------
 Cartesian Forces:  Max     0.004779773 RMS     0.001918706
 Leave Link  716 at Sat May 24 05:07:46 2025, MaxMem=  3758096384 cpu:               0.0 elap:               0.0
 (Enter /apps/easybuild-2022/easybuild/software/Compiler/NVHPC/22.11-CUDA-11.7.0/Gaussian/g16c01-CUDA-11.7.0/g16/l123.exe)
 IRC-IRC-IRC-IRC-IRC-IRC-IRC-IRC-IRC-IRC-IRC-IRC-IRC-IRC-IRC-IRC-IRC-IRC
 Pt100 Step number   1 out of a maximum of  20
 Using modified Bulirsch-Stoer corrector integration.
   Using distance weighted interpolants to fit PES.
 PreDWI: IReCr0= 2 IReCr1= 1 IReCr2= 1 IReCr3= 1
 Modified Bulirsch-Stoer Extrapolation Cycles:
    EPS =    0.000010000000000
    Cycle     1 NS=    48
      PEZero:  N= 2 I= 1 D=  3.98D-04 Err=  2.76D-06
    Cycle     2 NS=    64 Truncation Error =  0.000002760
 BS completed in    2 cycles and     112 integration steps.
 Maximum DWI energy   std dev =  0.000000007 at pt    47
 Maximum DWI gradient std dev =  0.001412806 at pt    29
 SUMMARY OF CORRECTOR INTEGRATION:
   Predictor End Point Energy = -1199.823150
   Old End Point Energy       = -1199.823150
   Corrected End Point Energy = -1199.823150
   Predictor End-Start Dist.  =     0.076338
   Old End-Start Dist.        =     0.076338
   New End-Start Dist.        =     0.076338
   New End-Old End Dist.      =     0.000062
 CORRECTOR INTEGRATION CONVERGENCE:
   Recorrection delta-x convergence threshold:    0.010000
   Delta-x Convergence Met
 Point Number: 100          Path Number:   1
                    CURRENT STRUCTURE
                Cartesian Coordinates (Ang):                
 ---------------------------------------------------------------------
 Center     Atomic                     Coordinates (Angstroms)
 Number     Number                        X           Y           Z
 ---------------------------------------------------------------------
      1          6                   -1.482077   -1.139377   -0.649972
      2          6                   -0.141686    0.600219    1.129851
      3          9                   -0.809866   -0.053060   -1.045658
      4          9                   -0.684450    1.731443    0.876507
      5         16                    1.566226    0.630072    0.457539
      6          8                    2.170360    0.986508    1.697795
      7          8                    1.927799   -0.541272   -0.265675
      8          8                    1.704321    1.868097   -0.523176
      9          9                   -1.985867   -1.703731   -1.717915
     10          9                   -0.668464   -1.959202   -0.038919
     11          9                   -2.442884   -0.764850    0.163427
     12          1                    1.813790    1.545741   -1.428536
 ---------------------------------------------------------------------
   CHANGE IN THE REACTION COORDINATE =    0.07634
   NET REACTION COORDINATE UP TO THIS POINT =    7.63359
  # OF POINTS ALONG THE PATH = 100
  # OF STEPS =   1

 Maximum number of steps reached.
 Calculation of REVERSE path complete.
 Reaction path calculation complete.
 
 Energies reported relative to the TS energy of       -1199.747125
 --------------------------------------------------------------------------
    Summary of reaction path following
 --------------------------------------------------------------------------
                        Energy    RxCoord
   1                   -0.07603  -7.63359
   2                   -0.07582  -7.55725
   3                   -0.07560  -7.48092
   4                   -0.07538  -7.40458
   5                   -0.07515  -7.32824
   6                   -0.07492  -7.25190
   7                   -0.07468  -7.17557
   8                   -0.07443  -7.09923
   9                   -0.07418  -7.02289
  10                   -0.07392  -6.94655
  11                   -0.07365  -6.87022
  12                   -0.07337  -6.79388
  13                   -0.07309  -6.71754
  14                   -0.07280  -6.64121
  15                   -0.07249  -6.56487
  16                   -0.07218  -6.48853
  17                   -0.07187  -6.41220
  18                   -0.07154  -6.33586
  19                   -0.07120  -6.25953
  20                   -0.07086  -6.18319
  21                   -0.07050  -6.10685
  22                   -0.07013  -6.03052
  23                   -0.06975  -5.95418
  24                   -0.06936  -5.87785
  25                   -0.06896  -5.80151
  26                   -0.06854  -5.72518
  27                   -0.06811  -5.64884
  28                   -0.06767  -5.57251
  29                   -0.06721  -5.49617
  30                   -0.06673  -5.41984
  31                   -0.06625  -5.34350
  32                   -0.06574  -5.26717
  33                   -0.06522  -5.19083
  34                   -0.06468  -5.11450
  35                   -0.06413  -5.03816
  36                   -0.06355  -4.96183
  37                   -0.06296  -4.88549
  38                   -0.06235  -4.80916
  39                   -0.06172  -4.73282
  40                   -0.06107  -4.65649
  41                   -0.06039  -4.58015
  42                   -0.05969  -4.50382
  43                   -0.05898  -4.42748
  44                   -0.05823  -4.35115
  45                   -0.05747  -4.27481
  46                   -0.05668  -4.19848
  47                   -0.05587  -4.12214
  48                   -0.05503  -4.04581
  49                   -0.05416  -3.96947
  50                   -0.05327  -3.89314
  51                   -0.05236  -3.81680
  52                   -0.05142  -3.74047
  53                   -0.05045  -3.66413
  54                   -0.04946  -3.58780
  55                   -0.04844  -3.51146
  56                   -0.04739  -3.43513
  57                   -0.04632  -3.35879
  58                   -0.04522  -3.28246
  59                   -0.04409  -3.20612
  60                   -0.04294  -3.12979
  61                   -0.04177  -3.05345
  62                   -0.04057  -2.97711
  63                   -0.03935  -2.90078
  64                   -0.03811  -2.82444
  65                   -0.03684  -2.74811
  66                   -0.03556  -2.67177
  67                   -0.03425  -2.59543
  68                   -0.03293  -2.51910
  69                   -0.03160  -2.44276
  70                   -0.03025  -2.36642
  71                   -0.02889  -2.29009
  72                   -0.02752  -2.21375
  73                   -0.02615  -2.13741
  74                   -0.02477  -2.06108
  75                   -0.02339  -1.98474
  76                   -0.02202  -1.90840
  77                   -0.02065  -1.83207
  78                   -0.01929  -1.75573
  79                   -0.01794  -1.67939
  80                   -0.01661  -1.60305
  81                   -0.01531  -1.52672
  82                   -0.01402  -1.45038
  83                   -0.01277  -1.37404
  84                   -0.01155  -1.29771
  85                   -0.01037  -1.22137
  86                   -0.00923  -1.14503
  87                   -0.00814  -1.06870
  88                   -0.00711  -0.99236
  89                   -0.00612  -0.91603
  90                   -0.00520  -0.83969
  91                   -0.00434  -0.76335
  92                   -0.00355  -0.68702
  93                   -0.00283  -0.61068
  94                   -0.00219  -0.53435
  95                   -0.00162  -0.45801
  96                   -0.00114  -0.38168
  97                   -0.00073  -0.30534
  98                   -0.00042  -0.22901
  99                   -0.00019  -0.15268
 100                   -0.00005  -0.07635
 101                    0.00000   0.00000
 --------------------------------------------------------------------------
 
 Total number of points:                  100
 Total number of gradient calculations:   100
 Total number of Hessian calculations:      0
 IRC-IRC-IRC-IRC-IRC-IRC-IRC-IRC-IRC-IRC-IRC-IRC-IRC-IRC-IRC-IRC-IRC-IRC
 Leave Link  123 at Sat May 24 05:07:46 2025, MaxMem=  3758096384 cpu:               0.1 elap:               0.0
 (Enter /apps/easybuild-2022/easybuild/software/Compiler/NVHPC/22.11-CUDA-11.7.0/Gaussian/g16c01-CUDA-11.7.0/g16/l202.exe)
                          Input orientation:                          
 ---------------------------------------------------------------------
 Center     Atomic      Atomic             Coordinates (Angstroms)
 Number     Number       Type             X           Y           Z
 ---------------------------------------------------------------------
      1          6           0       -1.482077   -1.139378   -0.649973
      2          6           0       -0.141688    0.600221    1.129854
      3          9           0       -0.809866   -0.053058   -1.045658
      4          9           0       -0.684449    1.731441    0.876507
      5         16           0        1.566224    0.630072    0.457539
      6          8           0        2.170362    0.986510    1.697798
      7          8           0        1.927800   -0.541274   -0.265676
      8          8           0        1.704321    1.868098   -0.523176
      9          9           0       -1.985867   -1.703731   -1.717915
     10          9           0       -0.668464   -1.959202   -0.038919
     11          9           0       -2.442884   -0.764850    0.163427
     12          1           0        1.813783    1.545741   -1.428548
 ---------------------------------------------------------------------
                    Distance matrix (angstroms):
                    1          2          3          4          5
     1  C    0.000000
     2  C    2.826770   0.000000
     3  F    1.337358   2.367718   0.000000
     4  F    3.347828   1.280013   2.625811   0.000000
     5  S    3.694547   1.835719   2.893453   2.540488   0.000000
     6  O    4.834433   2.411920   4.181987   3.062579   1.424877
     7  O    3.483199   2.744685   2.888173   3.646047   1.423316
     8  O    4.383391   2.783481   3.207018   2.772004   1.585427
     9  F    1.308740   4.101095   2.135329   4.497235   4.774577
    10  F    1.306700   2.862546   2.160301   3.802513   3.456102
    11  F    1.313408   2.844803   2.152971   3.135609   4.255027
    12  H    4.321890   3.356083   3.096175   3.404251   2.111174
                    6          7          8          9         10
     6  O    0.000000
     7  O    2.499639   0.000000
     8  O    2.434567   2.433376   0.000000
     9  F    6.014876   4.333254   5.272841   0.000000
    10  F    4.444361   2.966905   4.529110   2.149382   0.000000
    11  F    5.167552   4.397385   4.960156   2.151699   2.148484
    12  H    3.195923   2.391841   0.967261   5.008008   4.514116
                   11         12
    11  F    0.000000
    12  H    5.098277   0.000000
 Symmetry turned off by external request.
 Stoichiometry    C2HF5O3S
 Rotational constants (GHZ):           1.8241929           0.6229555           0.5696557
 Leave Link  202 at Sat May 24 05:07:46 2025, MaxMem=  3758096384 cpu:               0.0 elap:               0.1
 (Enter /apps/easybuild-2022/easybuild/software/Compiler/NVHPC/22.11-CUDA-11.7.0/Gaussian/g16c01-CUDA-11.7.0/g16/l9999.exe)

 This type of calculation cannot be archived.


 UNDER MOST GREENE GRASSE LY MOST GREATE SNAKES.
 -- PROVERBS AND REASONS OF THE YEAR 1585
           AS REPRINTED IN PAISLEY MAGAZINE 1828.
 Job cpu time:       0 days  6 hours 38 minutes 50.4 seconds.
 Elapsed time:       0 days  1 hours 16 minutes 23.3 seconds.
 File lengths (MBytes):  RWF=     63 Int=      0 D2E=      0 Chk=     13 Scr=      1
 Normal termination of Gaussian 16 at Sat May 24 05:07:46 2025.
done
