 Entering Gaussian System, Link 0=g16
 Initial command:
 /apps/easybuild-2022/easybuild/software/Compiler/NVHPC/22.11-CUDA-11.7.0/Gaussian/g16c01-CUDA-11.7.0/g16/l1.exe "/tmp/Gau-118996.inp" -scrdir="/tmp/"
 Entering Link 1 = /apps/easybuild-2022/easybuild/software/Compiler/NVHPC/22.11-CUDA-11.7.0/Gaussian/g16c01-CUDA-11.7.0/g16/l1.exe PID=    118997.
  
 Copyright (c) 1988-2019, Gaussian, Inc.  All Rights Reserved.
  
 This is part of the Gaussian(R) 16 program.  It is based on
 the Gaussian(R) 09 system (copyright 2009, Gaussian, Inc.),
 the Gaussian(R) 03 system (copyright 2003, Gaussian, Inc.),
 the Gaussian(R) 98 system (copyright 1998, Gaussian, Inc.),
 the Gaussian(R) 94 system (copyright 1995, Gaussian, Inc.),
 the Gaussian 92(TM) system (copyright 1992, Gaussian, Inc.),
 the Gaussian 90(TM) system (copyright 1990, Gaussian, Inc.),
 the Gaussian 88(TM) system (copyright 1988, Gaussian, Inc.),
 the Gaussian 86(TM) system (copyright 1986, Carnegie Mellon
 University), and the Gaussian 82(TM) system (copyright 1983,
 Carnegie Mellon University). Gaussian is a federally registered
 trademark of Gaussian, Inc.
  
 This software contains proprietary and confidential information,
 including trade secrets, belonging to Gaussian, Inc.
  
 This software is provided under written license and may be
 used, copied, transmitted, or stored only in accord with that
 written license.
  
 The following legend is applicable only to US Government
 contracts under FAR:
  
                    RESTRICTED RIGHTS LEGEND
  
 Use, reproduction and disclosure by the US Government is
 subject to restrictions as set forth in subparagraphs (a)
 and (c) of the Commercial Computer Software - Restricted
 Rights clause in FAR 52.227-19.
  
 Gaussian, Inc.
 340 Quinnipiac St., Bldg. 40, Wallingford CT 06492
  
  
 ---------------------------------------------------------------
 Warning -- This program may not be used in any manner that
 competes with the business of Gaussian, Inc. or will provide
 assistance to any competitor of Gaussian, Inc.  The licensee
 of this program is prohibited from giving any competitor of
 Gaussian, Inc. access to this program.  By using this program,
 the user acknowledges that Gaussian, Inc. is engaged in the
 business of creating and licensing software in the field of
 computational chemistry and represents and warrants to the
 licensee that it is not a competitor of Gaussian, Inc. and that
 it will not use this program in any manner prohibited above.
 ---------------------------------------------------------------
  

 Cite this work as:
 Gaussian 16, Revision C.01,
 M. J. Frisch, G. W. Trucks, H. B. Schlegel, G. E. Scuseria, 
 M. A. Robb, J. R. Cheeseman, G. Scalmani, V. Barone, 
 G. A. Petersson, H. Nakatsuji, X. Li, M. Caricato, A. V. Marenich, 
 J. Bloino, B. G. Janesko, R. Gomperts, B. Mennucci, H. P. Hratchian, 
 J. V. Ortiz, A. F. Izmaylov, J. L. Sonnenberg, D. Williams-Young, 
 F. Ding, F. Lipparini, F. Egidi, J. Goings, B. Peng, A. Petrone, 
 T. Henderson, D. Ranasinghe, V. G. Zakrzewski, J. Gao, N. Rega, 
 G. Zheng, W. Liang, M. Hada, M. Ehara, K. Toyota, R. Fukuda, 
 J. Hasegawa, M. Ishida, T. Nakajima, Y. Honda, O. Kitao, H. Nakai, 
 T. Vreven, K. Throssell, J. A. Montgomery, Jr., J. E. Peralta, 
 F. Ogliaro, M. J. Bearpark, J. J. Heyd, E. N. Brothers, K. N. Kudin, 
 V. N. Staroverov, T. A. Keith, R. Kobayashi, J. Normand, 
 K. Raghavachari, A. P. Rendell, J. C. Burant, S. S. Iyengar, 
 J. Tomasi, M. Cossi, J. M. Millam, M. Klene, C. Adamo, R. Cammi, 
 J. W. Ochterski, R. L. Martin, K. Morokuma, O. Farkas, 
 J. B. Foresman, and D. J. Fox, Gaussian, Inc., Wallingford CT, 2019.
 
 ******************************************
 Gaussian 16:  ES64L-G16RevC.01  3-Jul-2019
                24-May-2025 
 ******************************************
 %mem=28GB
 %chk=2003846667223680600001_r13_insertion_ROR_3_2_5_8_IRC_R_prod
 %nprocshared=8
 Will use up to    8 processors via shared memory.
 ----------------------------------------------------------------------
 #P M062X/Def2TZVPP Symm(None) scf(xqc) pop(None) opt(CalcAll,Cartesian
 )
 ----------------------------------------------------------------------
 1/10=4,18=10,26=3,38=1/1,3;
 2/12=2,15=3,17=6,18=5,29=2,40=1/2;
 3/5=44,7=202,11=2,25=1,30=1,71=2,74=-55,140=1/1,2,3;
 4//1;
 5/5=2,8=3,13=1,38=5/2,8;
 8/6=4,10=90,11=11/1;
 11/6=1,8=1,9=11,15=111,16=1,31=1/1,2,10;
 10/6=1,31=1/2;
 7/7=1,10=1,25=1,30=1/1,2,3,16;
 1/10=4,18=10,26=3/3(3);
 2/15=3,29=1/2;
 7/7=1,8=1,9=1,25=1,30=1,44=-1/16;
 99/12=1/99;
 2/15=3,29=1/2;
 3/5=44,7=202,11=2,25=1,30=1,71=2,74=-55,140=1/1,2,3;
 4/5=5,16=3,69=1/1;
 5/5=2,8=3,13=1,38=5/2,8;
 8/6=4,10=90,11=11/1;
 11/6=1,8=1,9=11,15=111,16=1,31=1/1,2,10;
 10/6=1,31=1/2;
 7/7=1,10=1,25=1,30=1/1,2,3,16;
 1/10=4,18=10,26=3/3(-8);
 2/15=3,29=1/2;
 7/7=1,8=1,9=1,25=1,30=1,44=-1/16;
 99/12=1/99;
 Leave Link    1 at Sat May 24 09:36:04 2025, MaxMem=  3758096384 cpu:               0.1 elap:               0.0
 (Enter /apps/easybuild-2022/easybuild/software/Compiler/NVHPC/22.11-CUDA-11.7.0/Gaussian/g16c01-CUDA-11.7.0/g16/l101.exe)
 ------------------------------
 Gaussian input prepared by ASE
 ------------------------------
 Symbolic Z-matrix:
 Charge =  0 Multiplicity = 1
 C                    -0.09108  -1.28779  -0.89193 
 C                    -0.07432  -0.60407   0.49459 
 F                    -1.24393  -0.84013   1.10243 
 F                     0.91162  -1.12885   1.2187 
 S                     0.19343   1.2212    0.46029 
 O                     0.33278   1.61056   1.81711 
 O                     1.15351   1.49277  -0.53901 
 O                    -1.19401   1.71326  -0.07967 
 F                    -0.95074  -0.6784   -1.69575 
 F                     1.10956  -1.27172  -1.43604 
 F                    -0.47549  -2.54776  -0.73193 
 H                    -1.81932   1.85694   0.64696 
 
 ITRead=  0  0  0  0  0  0  0  0  0  0  0  0
 MicOpt= -1 -1 -1 -1 -1 -1 -1 -1 -1 -1 -1 -1
 NAtoms=     12 NQM=       12 NQMF=       0 NMMI=      0 NMMIF=      0
                NMic=       0 NMicF=      0.
                    Isotopes and Nuclear Properties:
 (Nuclear quadrupole moments (NQMom) in fm**2, nuclear magnetic moments (NMagM)
  in nuclear magnetons)

  Atom         1           2           3           4           5           6           7           8           9          10
 IAtWgt=          12          12          19          19          32          16          16          16          19          19
 AtmWgt=  12.0000000  12.0000000  18.9984032  18.9984032  31.9720718  15.9949146  15.9949146  15.9949146  18.9984032  18.9984032
 NucSpn=           0           0           1           1           0           0           0           0           1           1
 AtZEff=  -0.0000000  -0.0000000  -0.0000000  -0.0000000  -0.0000000  -0.0000000  -0.0000000  -0.0000000  -0.0000000  -0.0000000
 NQMom=    0.0000000   0.0000000   0.0000000   0.0000000   0.0000000   0.0000000   0.0000000   0.0000000   0.0000000   0.0000000
 NMagM=    0.0000000   0.0000000   2.6288670   2.6288670   0.0000000   0.0000000   0.0000000   0.0000000   2.6288670   2.6288670
 AtZNuc=   6.0000000   6.0000000   9.0000000   9.0000000  16.0000000   8.0000000   8.0000000   8.0000000   9.0000000   9.0000000

  Atom        11          12
 IAtWgt=          19           1
 AtmWgt=  18.9984032   1.0078250
 NucSpn=           1           1
 AtZEff=  -0.0000000  -0.0000000
 NQMom=    0.0000000   0.0000000
 NMagM=    2.6288670   2.7928460
 AtZNuc=   9.0000000   1.0000000
 Leave Link  101 at Sat May 24 09:36:04 2025, MaxMem=  3758096384 cpu:               0.1 elap:               0.1
 (Enter /apps/easybuild-2022/easybuild/software/Compiler/NVHPC/22.11-CUDA-11.7.0/Gaussian/g16c01-CUDA-11.7.0/g16/l103.exe)

 GradGradGradGradGradGradGradGradGradGradGradGradGradGradGradGradGradGrad
 Berny optimization.
 Initialization pass.
 No Z-matrix variables, so optimization will use Cartesian coordinates.
 Trust Radius=3.00D-01 FncErr=1.00D-07 GrdErr=1.00D-06 EigMax=2.50D+02 EigMin=1.00D-04
 Number of steps in this run=     46 maximum allowed number of steps=    100.
 GradGradGradGradGradGradGradGradGradGradGradGradGradGradGradGradGradGrad

 Leave Link  103 at Sat May 24 09:36:04 2025, MaxMem=  3758096384 cpu:               0.1 elap:               0.0
 (Enter /apps/easybuild-2022/easybuild/software/Compiler/NVHPC/22.11-CUDA-11.7.0/Gaussian/g16c01-CUDA-11.7.0/g16/l202.exe)
 ---------------------------------------------------------------------------------------------------
                            Z-MATRIX (ANGSTROMS AND DEGREES)
   CD    Cent   Atom    N1       Length/X        N2       Alpha/Y        N3        Beta/Z          J
 ---------------------------------------------------------------------------------------------------
      1      1  C        0  -0.091080         -1.287794         -0.891934
      2      2  C        0  -0.074320         -0.604070          0.494591
      3      3  F        0  -1.243933         -0.840127          1.102432
      4      4  F        0   0.911616         -1.128853          1.218702
      5      5  S        0   0.193428          1.221197          0.460285
      6      6  O        0   0.332776          1.610560          1.817111
      7      7  O        0   1.153507          1.492772         -0.539006
      8      8  O        0  -1.194010          1.713263         -0.079672
      9      9  F        0  -0.950738         -0.678395         -1.695751
     10     10  F        0   1.109560         -1.271716         -1.436041
     11     11  F        0  -0.475489         -2.547760         -0.731925
     12     12  H        0  -1.819319          1.856937          0.646964
 ---------------------------------------------------------------------------------------------------
                         Z-Matrix orientation:                         
 ---------------------------------------------------------------------
 Center     Atomic      Atomic             Coordinates (Angstroms)
 Number     Number       Type             X           Y           Z
 ---------------------------------------------------------------------
      1          6           0       -0.091080   -1.287794   -0.891934
      2          6           0       -0.074320   -0.604070    0.494591
      3          9           0       -1.243933   -0.840127    1.102432
      4          9           0        0.911616   -1.128853    1.218702
      5         16           0        0.193428    1.221197    0.460285
      6          8           0        0.332776    1.610560    1.817111
      7          8           0        1.153507    1.492772   -0.539006
      8          8           0       -1.194010    1.713263   -0.079672
      9          9           0       -0.950738   -0.678395   -1.695751
     10          9           0        1.109560   -1.271716   -1.436041
     11          9           0       -0.475489   -2.547760   -0.731925
     12          1           0       -1.819319    1.856937    0.646964
 ---------------------------------------------------------------------
                    Distance matrix (angstroms):
                    1          2          3          4          5
     1  C    0.000000
     2  C    1.546031   0.000000
     3  F    2.346694   1.339100   0.000000
     4  F    2.342103   1.331091   2.177906   0.000000
     5  S    2.864346   1.845119   2.593726   2.571716   0.000000
     6  O    3.989866   2.611393   3.000441   2.863133   1.418449
     7  O    3.066774   2.640573   3.726185   3.165591   1.412122
     8  O    3.298874   2.636952   2.814190   3.767899   1.568014
     9  F    1.325330   2.360345   2.818146   3.487881   3.092904
    10  F    1.318274   2.361072   3.488416   2.665943   3.263428
    11  F    1.326984   2.333069   2.621332   2.782499   4.009221
    12  H    3.904401   3.020727   2.795116   4.086543   2.119001
                    6          7          8          9         10
     6  O    0.000000
     7  O    2.497751   0.000000
     8  O    2.437090   2.402174   0.000000
     9  F    4.384851   3.237263   2.896709   0.000000
    10  F    4.415190   2.906716   4.007028   2.159701   0.000000
    11  F    4.943936   4.360819   4.370129   2.156235   2.153241
    12  H    2.462003   3.221310   0.969357   3.559586   4.765051
                   11         12
    11  F    0.000000
    12  H    4.807137   0.000000
 Symmetry turned off by external request.
 Stoichiometry    C2HF5O3S
 Rotational constants (GHZ):           1.5937754           0.8548518           0.8022826
 Leave Link  202 at Sat May 24 09:36:04 2025, MaxMem=  3758096384 cpu:               0.1 elap:               0.0
 (Enter /apps/easybuild-2022/easybuild/software/Compiler/NVHPC/22.11-CUDA-11.7.0/Gaussian/g16c01-CUDA-11.7.0/g16/l301.exe)
 Standard basis: def2TZVPP (5D, 7F)
 Ernie: Thresh=  0.10000D-02 Tol=  0.10000D-05 Strict=F.
   366 basis functions,   596 primitive gaussians,   423 cartesian basis functions
    49 alpha electrons       49 beta electrons
       nuclear repulsion energy       932.1365692508 Hartrees.
 IExCor= 4336 DFT=T Ex+Corr=M062X ExCW=0 ScaHFX=  0.540000
 ScaDFX=  1.000000  1.000000  1.000000  1.000000 ScalE2=  1.000000  1.000000
 IRadAn=      5 IRanWt=     -1 IRanGd=            0 ICorTp=0 IEmpDi=  4
 NAtoms=   12 NActive=   12 NUniq=   12 SFac= 1.00D+00 NAtFMM=   60 NAOKFM=F Big=F
 Integral buffers will be    131072 words long.
 Raffenetti 2 integral format.
 Two-electron integral symmetry is turned off.
 Leave Link  301 at Sat May 24 09:36:04 2025, MaxMem=  3758096384 cpu:               0.1 elap:               0.0
 (Enter /apps/easybuild-2022/easybuild/software/Compiler/NVHPC/22.11-CUDA-11.7.0/Gaussian/g16c01-CUDA-11.7.0/g16/l302.exe)
 NPDir=0 NMtPBC=     1 NCelOv=     1 NCel=       1 NClECP=     1 NCelD=      1
         NCelK=      1 NCelE2=     1 NClLst=     1 CellRange=     0.0.
 One-electron integrals computed using PRISM.
   1 Symmetry operations used in ECPInt.
 ECPInt:  NShTT=    8515 NPrTT=   27988 LenC2=    8034 LenP2D=   19569.
 LDataN:  DoStor=T MaxTD1= 6 Len=  172
 NBasis=   366 RedAO= T EigKep=  5.17D-04  NBF=   366
 NBsUse=   366 1.00D-06 EigRej= -1.00D+00 NBFU=   366
 Precomputing XC quadrature grid using
 IXCGrd= 4 IRadAn=           5 IRanWt=          -1 IRanGd=           0 AccXCQ= 0.00D+00.
 Generated NRdTot=       0 NPtTot=           0 NUsed=           0 NTot=          32
 NSgBfM=   419   419   419   419   419 MxSgAt=    12 MxSgA2=    12.
 Leave Link  302 at Sat May 24 09:36:04 2025, MaxMem=  3758096384 cpu:               1.2 elap:               0.3
 (Enter /apps/easybuild-2022/easybuild/software/Compiler/NVHPC/22.11-CUDA-11.7.0/Gaussian/g16c01-CUDA-11.7.0/g16/l303.exe)
 DipDrv:  MaxL=1.
 Leave Link  303 at Sat May 24 09:36:05 2025, MaxMem=  3758096384 cpu:               0.1 elap:               0.0
 (Enter /apps/easybuild-2022/easybuild/software/Compiler/NVHPC/22.11-CUDA-11.7.0/Gaussian/g16c01-CUDA-11.7.0/g16/l401.exe)
 ExpMin= 9.52D-02 ExpMax= 6.07D+04 ExpMxC= 2.07D+03 IAcc=3 IRadAn=         5 AccDes= 0.00D+00
 Harris functional with IExCor= 1009 and IRadAn=       5 diagonalized for initial guess.
 HarFok:  IExCor= 1009 AccDes= 0.00D+00 IRadAn=         5 IDoV= 1 UseB2=F ITyADJ=14
 ICtDFT=  3500011 ScaDFX=  1.000000  1.000000  1.000000  1.000000
 FoFCou: FMM=F IPFlag=           0 FMFlag=      100000 FMFlg1=           0
         NFxFlg=           0 DoJE=T BraDBF=F KetDBF=T FulRan=T
         wScrn=  0.000000 ICntrl=       500 IOpCl=  0 I1Cent=   200000004 NGrid=           0
         NMat0=    1 NMatS0=      1 NMatT0=    0 NMatD0=    1 NMtDS0=    0 NMtDT0=    0
 Symmetry not used in FoFCou.
 Harris En= -1199.34226548581    
 JPrj=0 DoOrth=F DoCkMO=F.
 Leave Link  401 at Sat May 24 09:36:05 2025, MaxMem=  3758096384 cpu:               4.5 elap:               0.7
 (Enter /apps/easybuild-2022/easybuild/software/Compiler/NVHPC/22.11-CUDA-11.7.0/Gaussian/g16c01-CUDA-11.7.0/g16/l502.exe)
 Keep R1 ints in memory in canonical form, NReq=2293446996.
 FoFCou: FMM=F IPFlag=           0 FMFlag=           0 FMFlg1=           0
         NFxFlg=           0 DoJE=F BraDBF=F KetDBF=F FulRan=T
         wScrn=  0.000000 ICntrl=       600 IOpCl=  0 I1Cent=           0 NGrid=           0
         NMat0=    1 NMatS0=  67161 NMatT0=    0 NMatD0=    1 NMtDS0=    0 NMtDT0=    0
 Symmetry not used in FoFCou.
 Two-electron integral symmetry not used.
 Closed shell SCF:
 Using DIIS extrapolation, IDIIS=  1040.
 NGot=  3758096384 LenX=  1502398672 LenY=  1502219302
 Requested convergence on RMS density matrix=1.00D-08 within  32 cycles.
 Requested convergence on MAX density matrix=1.00D-06.
 Requested convergence on             energy=1.00D-06.
 No special actions if energy rises.
 Integral accuracy reduced to 1.0D-05 until final iterations.

 Cycle   1  Pass 0  IDiag  1:
 E= -1199.62390580232    
 DIIS: error= 2.77D-02 at cycle   1 NSaved=   1.
 NSaved= 1 IEnMin= 1 EnMin= -1199.62390580232     IErMin= 1 ErrMin= 2.77D-02
 ErrMax= 2.77D-02  0.00D+00 EMaxC= 1.00D-01 BMatC= 6.15D-01 BMatP= 6.15D-01
 IDIUse=3 WtCom= 7.23D-01 WtEn= 2.77D-01
 Coeff-Com:  0.100D+01
 Coeff-En:   0.100D+01
 Coeff:      0.100D+01
 Gap=     0.490 Goal=   None    Shift=    0.000
 GapD=    0.490 DampG=2.000 DampE=0.500 DampFc=1.0000 IDamp=-1.
 RMSDP=2.62D-03 MaxDP=2.55D-01              OVMax= 2.45D-01

 Cycle   2  Pass 0  IDiag  1:
 E= -1199.31837394685     Delta-E=        0.305531855474 Rises=F Damp=F
 DIIS: error= 3.23D-02 at cycle   2 NSaved=   2.
 NSaved= 2 IEnMin= 1 EnMin= -1199.62390580232     IErMin= 1 ErrMin= 2.77D-02
 ErrMax= 3.23D-02  0.00D+00 EMaxC= 1.00D-01 BMatC= 9.80D-01 BMatP= 6.15D-01
 IDIUse=2 WtCom= 0.00D+00 WtEn= 1.00D+00
 Coeff-En:   0.649D+00 0.351D+00
 Coeff:      0.649D+00 0.351D+00
 Gap=     0.469 Goal=   None    Shift=    0.000
 RMSDP=1.35D-03 MaxDP=1.52D-01 DE= 3.06D-01 OVMax= 1.21D-01

 Cycle   3  Pass 0  IDiag  1:
 E= -1199.93157557254     Delta-E=       -0.613201625690 Rises=F Damp=F
 DIIS: error= 4.38D-03 at cycle   3 NSaved=   3.
 NSaved= 3 IEnMin= 3 EnMin= -1199.93157557254     IErMin= 3 ErrMin= 4.38D-03
 ErrMax= 4.38D-03  0.00D+00 EMaxC= 1.00D-01 BMatC= 1.60D-02 BMatP= 6.15D-01
 IDIUse=3 WtCom= 9.56D-01 WtEn= 4.38D-02
 Coeff-Com:  0.832D-01-0.440D-01 0.961D+00
 Coeff-En:   0.000D+00 0.000D+00 0.100D+01
 Coeff:      0.795D-01-0.420D-01 0.963D+00
 Gap=     0.448 Goal=   None    Shift=    0.000
 RMSDP=2.11D-04 MaxDP=1.36D-02 DE=-6.13D-01 OVMax= 1.87D-02

 Cycle   4  Pass 0  IDiag  1:
 E= -1199.93801636371     Delta-E=       -0.006440791173 Rises=F Damp=F
 DIIS: error= 3.02D-03 at cycle   4 NSaved=   4.
 NSaved= 4 IEnMin= 4 EnMin= -1199.93801636371     IErMin= 4 ErrMin= 3.02D-03
 ErrMax= 3.02D-03  0.00D+00 EMaxC= 1.00D-01 BMatC= 3.78D-03 BMatP= 1.60D-02
 IDIUse=3 WtCom= 9.70D-01 WtEn= 3.02D-02
 Coeff-Com:  0.741D-02-0.497D-01 0.499D+00 0.543D+00
 Coeff-En:   0.000D+00 0.000D+00 0.904D-01 0.910D+00
 Coeff:      0.719D-02-0.482D-01 0.487D+00 0.554D+00
 Gap=     0.451 Goal=   None    Shift=    0.000
 RMSDP=9.19D-05 MaxDP=6.41D-03 DE=-6.44D-03 OVMax= 1.06D-02

 Cycle   5  Pass 0  IDiag  1:
 E= -1199.94036644919     Delta-E=       -0.002350085475 Rises=F Damp=F
 DIIS: error= 5.19D-04 at cycle   5 NSaved=   5.
 NSaved= 5 IEnMin= 5 EnMin= -1199.94036644919     IErMin= 5 ErrMin= 5.19D-04
 ErrMax= 5.19D-04  0.00D+00 EMaxC= 1.00D-01 BMatC= 1.38D-04 BMatP= 3.78D-03
 IDIUse=3 WtCom= 9.95D-01 WtEn= 5.19D-03
 Coeff-Com: -0.103D-02-0.164D-01 0.131D+00 0.222D+00 0.664D+00
 Coeff-En:   0.000D+00 0.000D+00 0.000D+00 0.000D+00 0.100D+01
 Coeff:     -0.102D-02-0.163D-01 0.131D+00 0.221D+00 0.666D+00
 Gap=     0.447 Goal=   None    Shift=    0.000
 RMSDP=2.41D-05 MaxDP=1.14D-03 DE=-2.35D-03 OVMax= 2.25D-03

 Cycle   6  Pass 0  IDiag  1:
 E= -1199.94045574275     Delta-E=       -0.000089293567 Rises=F Damp=F
 DIIS: error= 8.93D-05 at cycle   6 NSaved=   6.
 NSaved= 6 IEnMin= 6 EnMin= -1199.94045574275     IErMin= 6 ErrMin= 8.93D-05
 ErrMax= 8.93D-05  0.00D+00 EMaxC= 1.00D-01 BMatC= 7.09D-06 BMatP= 1.38D-04
 IDIUse=1 WtCom= 1.00D+00 WtEn= 0.00D+00
 Coeff-Com: -0.750D-03-0.326D-02 0.203D-01 0.484D-01 0.254D+00 0.681D+00
 Coeff:     -0.750D-03-0.326D-02 0.203D-01 0.484D-01 0.254D+00 0.681D+00
 Gap=     0.448 Goal=   None    Shift=    0.000
 RMSDP=6.05D-06 MaxDP=2.37D-04 DE=-8.93D-05 OVMax= 4.86D-04

 Initial convergence to 1.0D-05 achieved.  Increase integral accuracy.
 Cycle   7  Pass 1  IDiag  1:
 E= -1199.94051640295     Delta-E=       -0.000060660199 Rises=F Damp=F
 DIIS: error= 2.89D-05 at cycle   1 NSaved=   1.
 NSaved= 1 IEnMin= 1 EnMin= -1199.94051640295     IErMin= 1 ErrMin= 2.89D-05
 ErrMax= 2.89D-05  0.00D+00 EMaxC= 1.00D-01 BMatC= 9.90D-07 BMatP= 9.90D-07
 IDIUse=1 WtCom= 1.00D+00 WtEn= 0.00D+00
 Coeff-Com:  0.100D+01
 Coeff:      0.100D+01
 Gap=     0.448 Goal=   None    Shift=    0.000
 RMSDP=6.05D-06 MaxDP=2.37D-04 DE=-6.07D-05 OVMax= 1.71D-04

 Cycle   8  Pass 1  IDiag  1:
 E= -1199.94051690237     Delta-E=       -0.000000499420 Rises=F Damp=F
 DIIS: error= 1.99D-05 at cycle   2 NSaved=   2.
 NSaved= 2 IEnMin= 2 EnMin= -1199.94051690237     IErMin= 2 ErrMin= 1.99D-05
 ErrMax= 1.99D-05  0.00D+00 EMaxC= 1.00D-01 BMatC= 4.71D-07 BMatP= 9.90D-07
 IDIUse=1 WtCom= 1.00D+00 WtEn= 0.00D+00
 Coeff-Com:  0.377D+00 0.623D+00
 Coeff:      0.377D+00 0.623D+00
 Gap=     0.448 Goal=   None    Shift=    0.000
 RMSDP=1.34D-06 MaxDP=6.11D-05 DE=-4.99D-07 OVMax= 1.30D-04

 Cycle   9  Pass 1  IDiag  1:
 E= -1199.94051714485     Delta-E=       -0.000000242481 Rises=F Damp=F
 DIIS: error= 8.27D-06 at cycle   3 NSaved=   3.
 NSaved= 3 IEnMin= 3 EnMin= -1199.94051714485     IErMin= 3 ErrMin= 8.27D-06
 ErrMax= 8.27D-06  0.00D+00 EMaxC= 1.00D-01 BMatC= 8.49D-08 BMatP= 4.71D-07
 IDIUse=1 WtCom= 1.00D+00 WtEn= 0.00D+00
 Coeff-Com: -0.187D-01 0.284D+00 0.734D+00
 Coeff:     -0.187D-01 0.284D+00 0.734D+00
 Gap=     0.448 Goal=   None    Shift=    0.000
 RMSDP=6.64D-07 MaxDP=2.88D-05 DE=-2.42D-07 OVMax= 5.74D-05

 Cycle  10  Pass 1  IDiag  1:
 E= -1199.94051719486     Delta-E=       -0.000000050007 Rises=F Damp=F
 DIIS: error= 2.96D-06 at cycle   4 NSaved=   4.
 NSaved= 4 IEnMin= 4 EnMin= -1199.94051719486     IErMin= 4 ErrMin= 2.96D-06
 ErrMax= 2.96D-06  0.00D+00 EMaxC= 1.00D-01 BMatC= 9.02D-09 BMatP= 8.49D-08
 IDIUse=1 WtCom= 1.00D+00 WtEn= 0.00D+00
 Coeff-Com: -0.272D-01 0.126D+00 0.393D+00 0.508D+00
 Coeff:     -0.272D-01 0.126D+00 0.393D+00 0.508D+00
 Gap=     0.448 Goal=   None    Shift=    0.000
 RMSDP=1.61D-07 MaxDP=9.16D-06 DE=-5.00D-08 OVMax= 2.03D-05

 Cycle  11  Pass 1  IDiag  1:
 E= -1199.94051720098     Delta-E=       -0.000000006123 Rises=F Damp=F
 DIIS: error= 6.07D-07 at cycle   5 NSaved=   5.
 NSaved= 5 IEnMin= 5 EnMin= -1199.94051720098     IErMin= 5 ErrMin= 6.07D-07
 ErrMax= 6.07D-07  0.00D+00 EMaxC= 1.00D-01 BMatC= 3.00D-10 BMatP= 9.02D-09
 IDIUse=1 WtCom= 1.00D+00 WtEn= 0.00D+00
 Coeff-Com: -0.522D-02-0.926D-03 0.113D-01 0.133D+00 0.862D+00
 Coeff:     -0.522D-02-0.926D-03 0.113D-01 0.133D+00 0.862D+00
 Gap=     0.448 Goal=   None    Shift=    0.000
 RMSDP=6.40D-08 MaxDP=2.42D-06 DE=-6.12D-09 OVMax= 5.20D-06

 Cycle  12  Pass 1  IDiag  1:
 E= -1199.94051720116     Delta-E=       -0.000000000174 Rises=F Damp=F
 DIIS: error= 1.98D-07 at cycle   6 NSaved=   6.
 NSaved= 6 IEnMin= 6 EnMin= -1199.94051720116     IErMin= 6 ErrMin= 1.98D-07
 ErrMax= 1.98D-07  0.00D+00 EMaxC= 1.00D-01 BMatC= 5.13D-11 BMatP= 3.00D-10
 IDIUse=1 WtCom= 1.00D+00 WtEn= 0.00D+00
 Coeff-Com:  0.122D-02-0.148D-01-0.415D-01-0.710D-02 0.351D+00 0.712D+00
 Coeff:      0.122D-02-0.148D-01-0.415D-01-0.710D-02 0.351D+00 0.712D+00
 Gap=     0.448 Goal=   None    Shift=    0.000
 RMSDP=1.79D-08 MaxDP=6.62D-07 DE=-1.74D-10 OVMax= 1.73D-06

 Cycle  13  Pass 1  IDiag  1:
 E= -1199.94051720115     Delta-E=        0.000000000008 Rises=F Damp=F
 DIIS: error= 6.74D-08 at cycle   7 NSaved=   7.
 NSaved= 7 IEnMin= 6 EnMin= -1199.94051720116     IErMin= 7 ErrMin= 6.74D-08
 ErrMax= 6.74D-08  0.00D+00 EMaxC= 1.00D-01 BMatC= 4.96D-12 BMatP= 5.13D-11
 IDIUse=1 WtCom= 1.00D+00 WtEn= 0.00D+00
 Coeff-Com:  0.784D-03-0.620D-02-0.180D-01-0.109D-01 0.961D-01 0.307D+00
 Coeff-Com:  0.632D+00
 Coeff:      0.784D-03-0.620D-02-0.180D-01-0.109D-01 0.961D-01 0.307D+00
 Coeff:      0.632D+00
 Gap=     0.448 Goal=   None    Shift=    0.000
 RMSDP=4.53D-09 MaxDP=1.76D-07 DE= 8.19D-12 OVMax= 4.14D-07

 SCF Done:  E(RM062X) =  -1199.94051720     A.U. after   13 cycles
            NFock= 13  Conv=0.45D-08     -V/T= 2.0029
 KE= 1.196517977613D+03 PE=-4.710417324007D+03 EE= 1.381822259943D+03
 Leave Link  502 at Sat May 24 09:36:47 2025, MaxMem=  3758096384 cpu:             154.2 elap:              41.5
 (Enter /apps/easybuild-2022/easybuild/software/Compiler/NVHPC/22.11-CUDA-11.7.0/Gaussian/g16c01-CUDA-11.7.0/g16/l508.exe)
 QCSCF skips out because SCF is already converged.
 Leave Link  508 at Sat May 24 09:36:47 2025, MaxMem=  3758096384 cpu:               0.1 elap:               0.0
 (Enter /apps/easybuild-2022/easybuild/software/Compiler/NVHPC/22.11-CUDA-11.7.0/Gaussian/g16c01-CUDA-11.7.0/g16/l801.exe)
 DoSCS=F DFT=T ScalE2(SS,OS)=  1.000000  1.000000
 Range of M.O.s used for correlation:     1   366
 NBasis=   366 NAE=    49 NBE=    49 NFC=     0 NFV=     0
 NROrb=    366 NOA=    49 NOB=    49 NVA=   317 NVB=   317

 **** Warning!!: The largest alpha MO coefficient is  0.15771419D+02

 Leave Link  801 at Sat May 24 09:36:47 2025, MaxMem=  3758096384 cpu:               0.1 elap:               0.0
 (Enter /apps/easybuild-2022/easybuild/software/Compiler/NVHPC/22.11-CUDA-11.7.0/Gaussian/g16c01-CUDA-11.7.0/g16/l1101.exe)
 Using compressed storage, NAtomX=    12.
 Will process     13 centers per pass.
   1 Symmetry operations used in ECPInt.
 ECPInt:  NShTT=    8515 NPrTT=   27988 LenC2=    8034 LenP2D=   19569.
 LDataN:  DoStor=T MaxTD1= 7 Len=  274
 Leave Link 1101 at Sat May 24 09:36:47 2025, MaxMem=  3758096384 cpu:               1.6 elap:               0.3
 (Enter /apps/easybuild-2022/easybuild/software/Compiler/NVHPC/22.11-CUDA-11.7.0/Gaussian/g16c01-CUDA-11.7.0/g16/l1102.exe)
 Symmetrizing basis deriv contribution to polar:
 IMax=3 JMax=2 DiffMx= 0.00D+00
 Leave Link 1102 at Sat May 24 09:36:47 2025, MaxMem=  3758096384 cpu:               0.1 elap:               0.1
 (Enter /apps/easybuild-2022/easybuild/software/Compiler/NVHPC/22.11-CUDA-11.7.0/Gaussian/g16c01-CUDA-11.7.0/g16/l1110.exe)
 Forming Gx(P) for the SCF density, NAtomX=    12.
 Integral derivatives from FoFJK, PRISM(SPDF).
 Do as many integral derivatives as possible in FoFJK.
 G2DrvN: MDV=    3758095012.
 G2DrvN: will do    13 centers at a time, making    1 passes.
 Calling FoFCou, ICntrl=  3107 FMM=F I1Cent=   0 AccDes= 0.00D+00.
 FoFJK:  IHMeth= 1 ICntrl=    3107 DoSepK=F KAlg= 0 I1Cent=           0 FoldK=F
 IRaf=         0 NMat=       1 IRICut=       1 DoRegI=T DoRafI=F ISym2E= 0 IDoP0=0 IntGTp=1.
 FoFCou: FMM=F IPFlag=           0 FMFlag=      100000 FMFlg1=           0
         NFxFlg=           0 DoJE=F BraDBF=F KetDBF=F FulRan=T
         wScrn=  0.000000 ICntrl=      3107 IOpCl=  0 I1Cent=           0 NGrid=           0
         NMat0=    1 NMatS0=      1 NMatT0=    0 NMatD0=    1 NMtDS0=    0 NMtDT0=    0
 Symmetry not used in FoFCou.
 End of G2Drv F.D. properties file   721 does not exist.
 End of G2Drv F.D. properties file   722 does not exist.
 End of G2Drv F.D. properties file   788 does not exist.
 Leave Link 1110 at Sat May 24 09:37:43 2025, MaxMem=  3758096384 cpu:             444.4 elap:              56.1
 (Enter /apps/easybuild-2022/easybuild/software/Compiler/NVHPC/22.11-CUDA-11.7.0/Gaussian/g16c01-CUDA-11.7.0/g16/l1002.exe)
 Minotr:  Closed shell wavefunction.
          IDoAtm=111111111111
          Direct CPHF calculation.
          Differentiating once with respect to electric field.
                with respect to dipole field.
          Differentiating once with respect to nuclear coordinates.
          Requested convergence is 1.0D-08 RMS, and 1.0D-07 maximum.
          Secondary convergence is 1.0D-12 RMS, and 1.0D-12 maximum.
          NewPWx=T KeepS1=F KeepF1=F KeepIn=T MapXYZ=F SortEE=F KeepMc=T.
         3598 words used for storage of precomputed grid.
 Keep R1 ints in memory in canonical form, NReq=2293452904.
 FoFCou: FMM=F IPFlag=           0 FMFlag=           0 FMFlg1=           0
         NFxFlg=           0 DoJE=F BraDBF=F KetDBF=F FulRan=T
         wScrn=  0.000000 ICntrl=       600 IOpCl=  0 I1Cent=           0 NGrid=           0
         NMat0=    1 NMatS0=  67161 NMatT0=    0 NMatD0=    1 NMtDS0=    0 NMtDT0=    0
 Symmetry not used in FoFCou.
 Two-electron integral symmetry not used.
          MDV=    3758096384 using IRadAn=       1.
          Solving linear equations simultaneously, MaxMat=       0.
          There are    39 degrees of freedom in the 1st order CPHF.  IDoFFX=6 NUNeed=     3.
     36 vectors produced by pass  0 Test12= 3.98D-14 2.56D-09 XBig12= 2.12D+01 1.26D+00.
 AX will form    36 AO Fock derivatives at one time.
     36 vectors produced by pass  1 Test12= 3.98D-14 2.56D-09 XBig12= 4.97D+00 3.29D-01.
     36 vectors produced by pass  2 Test12= 3.98D-14 2.56D-09 XBig12= 1.30D-01 5.41D-02.
     36 vectors produced by pass  3 Test12= 3.98D-14 2.56D-09 XBig12= 4.15D-03 1.32D-02.
     36 vectors produced by pass  4 Test12= 3.98D-14 2.56D-09 XBig12= 6.75D-05 1.32D-03.
     36 vectors produced by pass  5 Test12= 3.98D-14 2.56D-09 XBig12= 7.17D-07 1.08D-04.
     36 vectors produced by pass  6 Test12= 3.98D-14 2.56D-09 XBig12= 4.56D-09 7.16D-06.
     14 vectors produced by pass  7 Test12= 3.98D-14 2.56D-09 XBig12= 2.56D-11 5.18D-07.
      3 vectors produced by pass  8 Test12= 3.98D-14 2.56D-09 XBig12= 1.10D-13 2.76D-08.
 InvSVY:  IOpt=1 It=  1 EMax= 3.55D-15
 Solved reduced A of dimension   269 with    39 vectors.
 FullF1:  Do perturbations      1 to       3.
 Isotropic polarizability for W=    0.000000       53.54 Bohr**3.
 End of Minotr F.D. properties file   721 does not exist.
 End of Minotr F.D. properties file   722 does not exist.
 End of Minotr F.D. properties file   788 does not exist.
 Leave Link 1002 at Sat May 24 09:39:21 2025, MaxMem=  3758096384 cpu:             767.0 elap:              97.8
 (Enter /apps/easybuild-2022/easybuild/software/Compiler/NVHPC/22.11-CUDA-11.7.0/Gaussian/g16c01-CUDA-11.7.0/g16/l701.exe)
 ... and contract with generalized density number  0.
 Compute integral second derivatives.
   1 Symmetry operations used in ECPInt.
 ECPInt:  NShTT=    8515 NPrTT=   27988 LenC2=    8034 LenP2D=   19569.
 LDataN:  DoStor=T MaxTD1= 8 Len=  415
 Leave Link  701 at Sat May 24 09:39:21 2025, MaxMem=  3758096384 cpu:               1.1 elap:               0.2
 (Enter /apps/easybuild-2022/easybuild/software/Compiler/NVHPC/22.11-CUDA-11.7.0/Gaussian/g16c01-CUDA-11.7.0/g16/l702.exe)
 L702 exits ... SP integral derivatives will be done elsewhere.
 Leave Link  702 at Sat May 24 09:39:21 2025, MaxMem=  3758096384 cpu:               0.0 elap:               0.0
 (Enter /apps/easybuild-2022/easybuild/software/Compiler/NVHPC/22.11-CUDA-11.7.0/Gaussian/g16c01-CUDA-11.7.0/g16/l703.exe)
 Integral derivatives from FoFJK, PRISM(SPDF).
 Compute integral second derivatives, UseDBF=F ICtDFT=           0.
 Calling FoFJK, ICntrl=    100127 FMM=F ISym2X=0 I1Cent= 0 IOpClX= 0 NMat=1 NMatS=1 NMatT=0.
 FoFJK:  IHMeth= 1 ICntrl=  100127 DoSepK=F KAlg= 0 I1Cent=           0 FoldK=F
 IRaf=         0 NMat=       1 IRICut=       1 DoRegI=T DoRafI=F ISym2E= 0 IDoP0=0 IntGTp=1.
 FoFCou: FMM=F IPFlag=           0 FMFlag=      100000 FMFlg1=         800
         NFxFlg=           0 DoJE=F BraDBF=F KetDBF=F FulRan=T
         wScrn=  0.000000 ICntrl=    100127 IOpCl=  0 I1Cent=           0 NGrid=           0
         NMat0=    1 NMatS0=      1 NMatT0=    0 NMatD0=    1 NMtDS0=    0 NMtDT0=    0
 Symmetry not used in FoFCou.
 Leave Link  703 at Sat May 24 09:41:22 2025, MaxMem=  3758096384 cpu:             958.3 elap:             120.8
 (Enter /apps/easybuild-2022/easybuild/software/Compiler/NVHPC/22.11-CUDA-11.7.0/Gaussian/g16c01-CUDA-11.7.0/g16/l716.exe)
 Dipole        =-1.09261511D+00-1.87347993D-02 1.61627877D-01
 Polarizability= 5.16265179D+01-4.83364596D-02 5.63354951D+01
                -1.26905090D+00 2.28561788D+00 5.26455755D+01
 -------------------------------------------------------------------
 Center     Atomic                   Forces (Hartrees/Bohr)
 Number     Number              X              Y              Z
 -------------------------------------------------------------------
      1        6          -0.000702045   -0.000780311    0.000044623
      2        6          -0.000064797    0.000266018    0.000914287
      3        9           0.000761312    0.001109784   -0.000682934
      4        9          -0.000458309   -0.000197933   -0.000496149
      5       16           0.000328906   -0.000452082    0.000887540
      6        8           0.000117368    0.000129850   -0.000117584
      7        8           0.000319352   -0.000020386    0.000047310
      8        8          -0.002496069    0.000026042   -0.000301703
      9        9           0.000166246    0.000211107    0.000327195
     10        9           0.000232098    0.000210799    0.000046317
     11        9           0.000287616   -0.000087777   -0.000339453
     12        1           0.001508322   -0.000415111   -0.000329449
 -------------------------------------------------------------------
 Cartesian Forces:  Max     0.002496069 RMS     0.000654054
 Force constants in Cartesian coordinates: 
                1             2             3             4             5 
      1  0.611849D+00
      2 -0.478682D-02  0.589086D+00
      3 -0.533628D-02  0.140842D-01  0.618143D+00
      4 -0.399016D-01 -0.162921D-02  0.131974D-02  0.545903D+00
      5 -0.430788D-02 -0.914310D-01 -0.417596D-01 -0.119891D-01  0.474029D+00
      6 -0.413675D-02 -0.798361D-01 -0.167172D+00  0.244077D-02 -0.165632D-01
      7 -0.264091D-01 -0.866447D-02  0.890429D-02 -0.233518D+00 -0.436220D-01
      8  0.688603D-02  0.139551D-02 -0.537339D-02 -0.523472D-01 -0.841950D-01
      9  0.427155D-01  0.150307D-01 -0.122001D-01  0.103126D+00  0.233108D-01
     10 -0.192195D-01  0.133326D-01 -0.113170D-01 -0.187863D+00  0.736275D-01
     11 -0.302484D-03  0.166820D-02 -0.289597D-02  0.802591D-01 -0.121522D+00
     12 -0.362213D-01  0.287876D-01 -0.203110D-01 -0.105526D+00  0.640484D-01
     13  0.228398D-01 -0.248078D-02 -0.272831D-02 -0.272109D-01 -0.154953D-01
     14 -0.188909D-02 -0.150014D-01 -0.335404D-01 -0.260873D-01 -0.166372D+00
     15 -0.642689D-02 -0.343405D-01  0.247974D-01  0.139943D-02 -0.223991D-01
     16 -0.327754D-02 -0.629815D-03  0.224213D-02  0.138771D-02  0.684573D-04
     17 -0.110705D-02 -0.332786D-02  0.143236D-01 -0.550780D-03  0.283633D-02
     18 -0.127936D-03  0.257028D-02  0.433994D-02 -0.767399D-04  0.129084D-01
     19 -0.685671D-02  0.732079D-03  0.530305D-02 -0.510179D-02  0.140200D-01
     20  0.353479D-02  0.341370D-02  0.550347D-02 -0.150579D-01  0.180902D-01
     21  0.496711D-02  0.630145D-02 -0.108848D-01  0.708576D-02 -0.113865D-01
     22 -0.649212D-02  0.765356D-03 -0.756360D-02 -0.189492D-01 -0.130085D-01
     23 -0.165481D-02  0.125559D-02  0.627001D-02  0.221548D-01  0.826472D-02
     24 -0.163043D-02  0.403776D-02 -0.569250D-02 -0.399534D-02  0.133455D-03
     25 -0.168439D+00  0.554623D-01 -0.105581D+00 -0.115184D-01  0.120622D-01
     26  0.584485D-01 -0.112619D+00  0.597019D-01  0.428034D-04  0.630530D-02
     27 -0.101115D+00  0.550168D-01 -0.200111D+00 -0.338527D-01  0.244490D-01
     28 -0.270166D+00  0.111079D-01  0.114031D+00 -0.240615D-01  0.130032D-03
     29  0.691338D-02 -0.787407D-01 -0.113321D-01  0.142991D-01  0.756206D-02
     30  0.105471D+00 -0.113374D-01 -0.148107D+00  0.371601D-01  0.514064D-03
     31 -0.938750D-01 -0.641645D-01 -0.504082D-03 -0.799929D-03 -0.131818D-01
     32 -0.623378D-01 -0.295496D+00 -0.445554D-02 -0.149029D-01 -0.536803D-01
     33  0.159779D-02  0.336032D-03 -0.825633D-01 -0.666730D-02 -0.321231D-01
     34 -0.522481D-04  0.955417D-03  0.122963D-02  0.163387D-02  0.169640D-02
     35  0.603226D-03 -0.202719D-03 -0.526167D-03  0.580860D-02  0.113651D-03
     36  0.242975D-03 -0.650686D-03 -0.238384D-03 -0.241358D-02 -0.113275D-02
                6             7             8             9            10 
      6  0.573593D+00
      7  0.115020D+00  0.343103D+00
      8  0.304490D-01  0.532489D-01  0.779751D-01
      9 -0.144363D+00 -0.142937D+00 -0.319700D-01  0.146287D+00
     10 -0.115482D+00 -0.749884D-01  0.182377D-01 -0.133111D-01  0.278618D+00
     11  0.707240D-01  0.724679D-02  0.130510D-01 -0.551167D-02 -0.111569D+00
     12 -0.173781D+00  0.710753D-03 -0.735936D-02  0.224143D-01  0.152311D+00
     13  0.286115D-02 -0.305650D-01 -0.300203D-01  0.139910D-01 -0.140459D-01
     14  0.141463D-01  0.414911D-02  0.110681D-02 -0.360422D-02  0.356676D-02
     15 -0.530299D-01  0.154450D-01  0.210385D-01 -0.812942D-02 -0.102539D-01
     16 -0.771232D-02  0.434281D-02  0.214115D-02 -0.206852D-02  0.333770D-02
     17 -0.363727D-01 -0.333402D-02 -0.102272D-02  0.243610D-02  0.483964D-03
     18 -0.221186D-01 -0.542135D-02 -0.335476D-02  0.585341D-02  0.480903D-02
     19  0.761205D-02 -0.210078D-02 -0.545258D-02  0.698105D-03  0.578326D-02
     20  0.119540D-01 -0.922373D-02 -0.109528D-01  0.443110D-02  0.350285D-02
     21  0.274896D-02  0.235026D-02  0.389214D-02  0.435705D-03 -0.255322D-02
     22  0.153447D-02  0.110992D-01  0.223346D-02 -0.277555D-02 -0.275079D-03
     23  0.344874D-02 -0.576194D-03 -0.195264D-02  0.134064D-02  0.456401D-02
     24  0.608086D-02 -0.129563D-02 -0.104495D-02  0.984921D-03 -0.947540D-04
     25 -0.855708D-02  0.558569D-02 -0.112961D-02 -0.293449D-02  0.592652D-04
     26 -0.487569D-03 -0.233361D-03  0.739552D-03 -0.683952D-03 -0.134093D-02
     27 -0.167248D-01  0.308306D-02 -0.150100D-02 -0.607827D-03 -0.459219D-02
     28  0.576603D-02 -0.296645D-04  0.287350D-02  0.499334D-02  0.636256D-02
     29 -0.221990D-02  0.240606D-02 -0.692768D-03 -0.531450D-02 -0.202594D-02
     30 -0.794615D-02  0.486074D-02 -0.374370D-02 -0.106230D-01  0.114045D-03
     31  0.236928D-02  0.412805D-02  0.363564D-02 -0.171174D-02  0.214680D-02
     32  0.513991D-02  0.187510D-02  0.451070D-02 -0.651182D-03 -0.169824D-02
     33  0.251274D-02 -0.177171D-02 -0.184395D-02  0.101085D-02  0.782054D-03
     34 -0.171564D-02 -0.647278D-03 -0.306716D-03  0.214704D-03  0.844384D-04
     35 -0.382392D-03 -0.327214D-02  0.372871D-04  0.118622D-02 -0.681602D-03
     36  0.200275D-03  0.105137D-02  0.811488D-03 -0.106232D-02 -0.411422D-03
               11            12            13            14            15 
     11  0.121503D+00
     12 -0.834388D-01  0.186241D+00
     13  0.323201D-01 -0.155474D-01  0.819385D+00
     14 -0.643115D-02 -0.102909D-02  0.498531D-01  0.556936D+00
     15  0.241432D-01 -0.100284D-01 -0.208873D+00  0.565640D-01  0.122831D+01
     16 -0.244736D-02  0.361547D-02 -0.992767D-01 -0.185501D-01 -0.575738D-01
     17 -0.166050D-03  0.859799D-03 -0.185134D-01 -0.147014D+00 -0.173113D+00
     18 -0.292029D-02  0.688596D-02 -0.507443D-01 -0.165279D+00 -0.645365D+00
     19 -0.739879D-02  0.300011D-02 -0.377316D+00 -0.922945D-01  0.310336D+00
     20 -0.380289D-02  0.170588D-02 -0.990268D-01 -0.129365D+00  0.979385D-01
     21  0.162769D-02  0.290756D-03  0.309161D+00  0.909194D-01 -0.415615D+00
     22  0.651898D-02 -0.116312D-02 -0.240341D+00  0.696263D-01 -0.731137D-01
     23 -0.111658D-01  0.433143D-02  0.698832D-01 -0.987934D-01  0.282257D-01
     24  0.321201D-03  0.579111D-03 -0.431009D-01  0.171878D-01 -0.119198D+00
     25 -0.209728D-02 -0.424577D-02 -0.653819D-02  0.374209D-02 -0.196794D-02
     26  0.130253D-02 -0.269095D-02  0.362220D-02 -0.161150D-02  0.638512D-02
     27 -0.331636D-02 -0.131949D-01 -0.996954D-03  0.722280D-02 -0.482521D-02
     28 -0.153539D-02  0.870016D-03 -0.818547D-02 -0.427917D-02  0.461352D-02
     29  0.832497D-03 -0.167083D-02 -0.242242D-02  0.278551D-03  0.422054D-02
     30 -0.325039D-03 -0.147359D-03  0.193081D-02  0.638650D-02 -0.443937D-02
     31 -0.364542D-04  0.184226D-02 -0.224633D-02  0.239407D-02 -0.583384D-03
     32  0.536119D-02 -0.356403D-02  0.838186D-03  0.990590D-02 -0.353904D-02
     33  0.157233D-03  0.172260D-02  0.727490D-03  0.700275D-02 -0.769633D-02
     34 -0.958506D-03  0.354387D-03 -0.364990D-01  0.976869D-02  0.269986D-01
     35 -0.629993D-03  0.200019D-04  0.114421D-01 -0.363885D-02 -0.512395D-02
     36  0.143481D-02 -0.670777D-03 -0.668064D-02  0.402296D-02  0.152229D-01
               16            17            18            19            20 
     16  0.781911D-01
     17  0.203974D-01  0.112496D+00
     18  0.730781D-01  0.179824D+00  0.685287D+00
     19  0.129633D-01 -0.264776D-02 -0.941419D-02  0.404021D+00
     20  0.717638D-02  0.232002D-01 -0.127661D-01  0.965306D-01  0.894977D-01
     21  0.308999D-01  0.973929D-02 -0.131939D-01 -0.341568D+00 -0.977327D-01
     22 -0.796738D-02  0.793835D-02 -0.124358D-01 -0.339559D-01  0.132923D-01
     23 -0.579296D-02  0.183109D-01 -0.392081D-02 -0.127943D-02  0.123169D-01
     24 -0.404393D-01  0.116792D-01 -0.144979D-01  0.345280D-01 -0.620697D-02
     25  0.902490D-03 -0.118135D-02  0.922635D-04  0.103530D-02 -0.157730D-02
     26 -0.361111D-03  0.118130D-02 -0.889556D-03 -0.985900D-03  0.195677D-03
     27 -0.253951D-04 -0.236538D-02 -0.565459D-04 -0.768725D-03 -0.195703D-02
     28  0.151250D-02  0.198588D-02  0.299829D-03  0.404869D-02 -0.214291D-03
     29  0.307734D-03  0.285985D-03 -0.900056D-03  0.122356D-02 -0.324664D-02
     30 -0.710016D-03 -0.255390D-02 -0.489884D-03 -0.184222D-02 -0.237887D-02
     31  0.288010D-03 -0.107283D-02 -0.828173D-03  0.650555D-03 -0.667091D-03
     32 -0.738593D-03 -0.468746D-02 -0.347208D-02 -0.862545D-03 -0.172023D-02
     33 -0.596701D-03 -0.370990D-02 -0.989815D-03 -0.125946D-02 -0.997047D-03
     34  0.759596D-02 -0.239846D-02  0.769338D-03 -0.317097D-02  0.173018D-02
     35 -0.157125D-02 -0.209280D-02 -0.180065D-02 -0.158475D-02  0.237323D-02
     36 -0.709481D-03 -0.747510D-03 -0.565503D-02 -0.662454D-02  0.505848D-03
               21            22            23            24            25 
     21  0.418525D+00
     22 -0.366333D-02  0.505943D+00
     23  0.401463D-04 -0.140042D+00  0.933451D-01
     24  0.840977D-02 -0.152515D+00  0.222949D-01  0.428446D+00
     25 -0.336943D-03  0.372081D-02  0.639693D-05  0.188322D-02  0.237141D+00
     26 -0.167123D-02 -0.130842D-02 -0.202847D-02 -0.331179D-02 -0.109905D+00
     27  0.227123D-02  0.297915D-02 -0.358533D-02  0.659114D-03  0.147388D+00
     28 -0.342400D-02  0.193850D-02  0.109570D-02  0.518778D-04 -0.753081D-01
     29 -0.275425D-02  0.595373D-03 -0.171906D-03 -0.388734D-03  0.285049D-01
     30  0.264926D-02  0.611616D-03 -0.128703D-02  0.784998D-03 -0.216728D-01
     31 -0.378923D-03  0.142409D-02 -0.400486D-03  0.303255D-03  0.134737D-01
     32  0.695764D-03  0.230418D-02 -0.207049D-02  0.408261D-03  0.163729D-01
     33  0.253808D-02  0.180654D-02 -0.145131D-02  0.145913D-02 -0.395170D-02
     34 -0.253962D-02 -0.216144D+00  0.520418D-01  0.206305D+00 -0.115044D-03
     35  0.328798D-03  0.510848D-01 -0.173104D-01 -0.451102D-01 -0.260290D-03
     36  0.182511D-02  0.246298D+00 -0.557071D-01 -0.308015D+00 -0.115784D-03
               26            27            28            29            30 
     26  0.159126D+00
     27 -0.107491D+00  0.213142D+00
     28  0.237519D-01 -0.463316D-02  0.402491D+00
     29  0.603144D-02 -0.109911D-02  0.523100D-02  0.819425D-01
     30  0.299891D-02  0.222203D-01 -0.146272D+00 -0.679916D-02  0.141481D+00
     31  0.287799D-01 -0.707901D-02 -0.387179D-01 -0.548950D-01  0.205914D-01
     32 -0.584587D-01  0.346596D-01 -0.397232D-01 -0.141889D-01  0.181503D-01
     33  0.480781D-01 -0.277757D-02  0.237521D-01  0.281525D-01  0.460805D-02
     34 -0.510591D-03 -0.386677D-03  0.115832D-03 -0.137738D-03 -0.242760D-03
     35 -0.163449D-03 -0.331094D-04 -0.423815D-03  0.107873D-03  0.375293D-03
     36  0.618568D-04  0.599381D-05 -0.483976D-04  0.105608D-03  0.949257D-05
               31            32            33            34            35 
     31  0.113758D+00
     32  0.997321D-01  0.410489D+00
     33 -0.140951D-01 -0.437173D-01  0.801321D-01
     34 -0.230125D-03 -0.859158D-03 -0.323969D-03  0.247429D+00
     35 -0.123470D-03  0.355880D-04  0.115966D-03 -0.610214D-01  0.213706D-01
     36  0.742502D-04  0.345253D-03  0.434657D-04 -0.230663D+00  0.509502D-01
               36 
     36  0.298335D+00
 Leave Link  716 at Sat May 24 09:41:22 2025, MaxMem=  3758096384 cpu:               0.1 elap:               0.0
 (Enter /apps/easybuild-2022/easybuild/software/Compiler/NVHPC/22.11-CUDA-11.7.0/Gaussian/g16c01-CUDA-11.7.0/g16/l103.exe)

 GradGradGradGradGradGradGradGradGradGradGradGradGradGradGradGradGradGrad
 Berny optimization.
 Search for a local minimum.
 Step number   1 out of a maximum of   46
 All quantities printed in internal units (Hartrees-Bohrs-Radians)
 Second derivative matrix not updated -- analytic derivatives used.
 ITU=  0
     Eigenvalues ---    0.00114   0.00300   0.00493   0.01110   0.02869
     Eigenvalues ---    0.03525   0.03842   0.04328   0.05633   0.06966
     Eigenvalues ---    0.07395   0.09825   0.13477   0.14752   0.20043
     Eigenvalues ---    0.22577   0.25514   0.28003   0.31467   0.40663
     Eigenvalues ---    0.53858   0.69573   0.78891   0.82417   0.85426
     Eigenvalues ---    0.89454   0.95588   1.06434   1.26320   1.96222
 RFO step:  Lambda=-1.02593802D-04 EMin= 1.14072379D-03
 Linear search not attempted -- first point.
 B after Tr=    -0.000928    0.000623   -0.002184
         Rot=    1.000000    0.000365    0.000628    0.000057 Ang=   0.08 deg.
 Variable       Old X    -DE/DX   Delta X   Delta X   Delta X     New X
                                 (Linear)    (Quad)   (Total)
    X1       -0.17212  -0.00070   0.00000   0.00414   0.00505  -0.16707
    Y1       -2.43358  -0.00078   0.00000  -0.00055  -0.00114  -2.43472
    Z1       -1.68551   0.00004   0.00000   0.00201   0.00140  -1.68411
    X2       -0.14044  -0.00006   0.00000  -0.00465  -0.00689  -0.14734
    Y2       -1.14153   0.00027   0.00000   0.00027   0.00159  -1.13993
    Z2        0.93464   0.00091   0.00000   0.00207   0.00053   0.93518
    X3       -2.35069   0.00076   0.00000  -0.01654  -0.02025  -2.37094
    Y3       -1.58761   0.00111   0.00000   0.02782   0.03022  -1.55739
    Z3        2.08329  -0.00068   0.00000  -0.01419  -0.01822   2.06508
    X4        1.72270  -0.00046   0.00000  -0.02475  -0.02884   1.69387
    Y4       -2.13322  -0.00020   0.00000  -0.01649  -0.01436  -2.14759
    Z4        2.30301  -0.00050   0.00000   0.01412   0.01564   2.31865
    X5        0.36553   0.00033   0.00000   0.00489   0.00314   0.36867
    Y5        2.30773  -0.00045   0.00000  -0.00267  -0.00146   2.30627
    Z5        0.86981   0.00089   0.00000  -0.00584  -0.00924   0.86057
    X6        0.62886   0.00012   0.00000   0.02373   0.01885   0.64771
    Y6        3.04352   0.00013   0.00000   0.00605   0.00910   3.05261
    Z6        3.43384  -0.00012   0.00000  -0.01017  -0.01377   3.42007
    X7        2.17981   0.00032   0.00000  -0.01034  -0.00964   2.17017
    Y7        2.82093  -0.00002   0.00000  -0.00031  -0.00069   2.82024
    Z7       -1.01857   0.00005   0.00000  -0.01992  -0.02144  -1.04002
    X8       -2.25635  -0.00250   0.00000  -0.01462  -0.01500  -2.27136
    Y8        3.23760   0.00003   0.00000  -0.01869  -0.01791   3.21969
    Z8       -0.15056  -0.00030   0.00000   0.01655   0.00916  -0.14140
    X9       -1.79663   0.00017   0.00000   0.00349   0.00644  -1.79019
    Y9       -1.28198   0.00021   0.00000  -0.00148  -0.00300  -1.28498
    Z9       -3.20450   0.00033   0.00000   0.00292  -0.00058  -3.20508
   X10        2.09676   0.00023   0.00000   0.00837   0.01057   2.10733
   Y10       -2.40319   0.00021   0.00000   0.01540   0.01381  -2.38939
   Z10       -2.71372   0.00005   0.00000   0.00892   0.01113  -2.70260
   X11       -0.89854   0.00029   0.00000   0.01750   0.01777  -0.88077
   Y11       -4.81457  -0.00009   0.00000  -0.00496  -0.00525  -4.81982
   Z11       -1.38314  -0.00034   0.00000  -0.00890  -0.00867  -1.39181
   X12       -3.43801   0.00151   0.00000   0.02091   0.01879  -3.41922
   Y12        3.50910  -0.00042   0.00000  -0.01285  -0.01091   3.49819
   Z12        1.22258  -0.00033   0.00000   0.04309   0.03405   1.25664
         Item               Value     Threshold  Converged?
 Maximum Force            0.002496     0.000450     NO 
 RMS     Force            0.000654     0.000300     NO 
 Maximum Displacement     0.034055     0.001800     NO 
 RMS     Displacement     0.014387     0.001200     NO 
 Predicted change in Energy=-5.168658D-05
 Lowest energy point so far.  Saving SCF results.
 GradGradGradGradGradGradGradGradGradGradGradGradGradGradGradGradGradGrad

 Leave Link  103 at Sat May 24 09:41:22 2025, MaxMem=  3758096384 cpu:               0.1 elap:               0.0
 (Enter /apps/easybuild-2022/easybuild/software/Compiler/NVHPC/22.11-CUDA-11.7.0/Gaussian/g16c01-CUDA-11.7.0/g16/l202.exe)
                          Input orientation:                          
 ---------------------------------------------------------------------
 Center     Atomic      Atomic             Coordinates (Angstroms)
 Number     Number       Type             X           Y           Z
 ---------------------------------------------------------------------
      1          6           0       -0.088410   -1.288396   -0.891195
      2          6           0       -0.077967   -0.603227    0.494874
      3          9           0       -1.254647   -0.824135    1.092793
      4          9           0        0.896356   -1.136453    1.226978
      5         16           0        0.195091    1.220425    0.455394
      6          8           0        0.342752    1.615374    1.809825
      7          8           0        1.148406    1.492407   -0.550352
      8          8           0       -1.201950    1.703787   -0.074824
      9          9           0       -0.947328   -0.679981   -1.696057
     10          9           0        1.115152   -1.264411   -1.430152
     11          9           0       -0.466085   -2.550540   -0.736512
     12          1           0       -1.809374    1.851164    0.664985
 ---------------------------------------------------------------------
                    Distance matrix (angstroms):
                    1          2          3          4          5
     1  C    0.000000
     2  C    1.546205   0.000000
     3  F    2.347734   1.338239   0.000000
     4  F    2.340835   1.330267   2.177696   0.000000
     5  S    2.861444   1.844405   2.586163   2.577206   0.000000
     6  O    3.989146   2.613100   3.002835   2.866835   1.418545
     7  O    3.062475   2.643515   3.720343   3.183290   1.412200
     8  O    3.295389   2.628727   2.785048   3.763581   1.570507
     9  F    1.325032   2.358359   2.809432   3.485925   3.089565
    10  F    1.318944   2.359326   3.489275   2.669192   3.252108
    11  F    1.326489   2.336445   2.636032   2.776901   4.009735
    12  H    3.903876   3.008446   2.765495   4.069726   2.111786
                    6          7          8          9         10
     6  O    0.000000
     7  O    2.496926   0.000000
     8  O    2.438406   2.407276   0.000000
     9  F    4.384538   3.228623   2.894059   0.000000
    10  F    4.403092   2.893993   4.002008   2.160113   0.000000
    11  F    4.949029   4.357368   4.367909   2.156690   2.153039
    12  H    2.449061   3.217796   0.968505   3.567119   4.759124
                   11         12
    11  F    0.000000
    12  H    4.810782   0.000000
 Symmetry turned off by external request.
 Stoichiometry    C2HF5O3S
 Rotational constants (GHZ):           1.5945017           0.8558817           0.8036911
 Leave Link  202 at Sat May 24 09:41:22 2025, MaxMem=  3758096384 cpu:               0.1 elap:               0.0
 (Enter /apps/easybuild-2022/easybuild/software/Compiler/NVHPC/22.11-CUDA-11.7.0/Gaussian/g16c01-CUDA-11.7.0/g16/l301.exe)
 Standard basis: def2TZVPP (5D, 7F)
 Ernie: Thresh=  0.10000D-02 Tol=  0.10000D-05 Strict=F.
   366 basis functions,   596 primitive gaussians,   423 cartesian basis functions
    49 alpha electrons       49 beta electrons
       nuclear repulsion energy       932.4865041096 Hartrees.
 IExCor= 4336 DFT=T Ex+Corr=M062X ExCW=0 ScaHFX=  0.540000
 ScaDFX=  1.000000  1.000000  1.000000  1.000000 ScalE2=  1.000000  1.000000
 IRadAn=      5 IRanWt=     -1 IRanGd=            0 ICorTp=0 IEmpDi=  4
 NAtoms=   12 NActive=   12 NUniq=   12 SFac= 1.00D+00 NAtFMM=   60 NAOKFM=F Big=F
 Integral buffers will be    131072 words long.
 Raffenetti 2 integral format.
 Two-electron integral symmetry is turned off.
 Leave Link  301 at Sat May 24 09:41:22 2025, MaxMem=  3758096384 cpu:               0.1 elap:               0.0
 (Enter /apps/easybuild-2022/easybuild/software/Compiler/NVHPC/22.11-CUDA-11.7.0/Gaussian/g16c01-CUDA-11.7.0/g16/l302.exe)
 NPDir=0 NMtPBC=     1 NCelOv=     1 NCel=       1 NClECP=     1 NCelD=      1
         NCelK=      1 NCelE2=     1 NClLst=     1 CellRange=     0.0.
 One-electron integrals computed using PRISM.
   1 Symmetry operations used in ECPInt.
 ECPInt:  NShTT=    8515 NPrTT=   27988 LenC2=    8034 LenP2D=   19574.
 LDataN:  DoStor=T MaxTD1= 6 Len=  172
 NBasis=   366 RedAO= T EigKep=  5.11D-04  NBF=   366
 NBsUse=   366 1.00D-06 EigRej= -1.00D+00 NBFU=   366
 Precomputing XC quadrature grid using
 IXCGrd= 4 IRadAn=           5 IRanWt=          -1 IRanGd=           0 AccXCQ= 0.00D+00.
 Generated NRdTot=       0 NPtTot=           0 NUsed=           0 NTot=          32
 NSgBfM=   419   419   419   419   419 MxSgAt=    12 MxSgA2=    12.
 Leave Link  302 at Sat May 24 09:41:23 2025, MaxMem=  3758096384 cpu:               1.0 elap:               0.2
 (Enter /apps/easybuild-2022/easybuild/software/Compiler/NVHPC/22.11-CUDA-11.7.0/Gaussian/g16c01-CUDA-11.7.0/g16/l303.exe)
 DipDrv:  MaxL=1.
 Leave Link  303 at Sat May 24 09:41:23 2025, MaxMem=  3758096384 cpu:               0.1 elap:               0.0
 (Enter /apps/easybuild-2022/easybuild/software/Compiler/NVHPC/22.11-CUDA-11.7.0/Gaussian/g16c01-CUDA-11.7.0/g16/l401.exe)
 Initial guess from the checkpoint file:  "2003846667223680600001_r13_insertion_ROR_3_2_5_8_IRC_R_prod.chk"
 B after Tr=    -0.001095    0.000825   -0.003314
         Rot=    0.999999    0.000537    0.000957    0.000134 Ang=   0.13 deg.
 Guess basis will be translated and rotated to current coordinates.
 JPrj=2 DoOrth=T DoCkMO=T.
 Generating alternative initial guess.
 ExpMin= 9.52D-02 ExpMax= 6.07D+04 ExpMxC= 2.07D+03 IAcc=3 IRadAn=         5 AccDes= 0.00D+00
 Harris functional with IExCor= 1009 and IRadAn=       5 diagonalized for initial guess.
 HarFok:  IExCor= 1009 AccDes= 0.00D+00 IRadAn=         5 IDoV= 1 UseB2=F ITyADJ=14
 ICtDFT=  3500011 ScaDFX=  1.000000  1.000000  1.000000  1.000000
 FoFCou: FMM=F IPFlag=           0 FMFlag=      100000 FMFlg1=           0
         NFxFlg=           0 DoJE=T BraDBF=F KetDBF=T FulRan=T
         wScrn=  0.000000 ICntrl=       500 IOpCl=  0 I1Cent=   200000004 NGrid=           0
         NMat0=    1 NMatS0=      1 NMatT0=    0 NMatD0=    1 NMtDS0=    0 NMtDT0=    0
 Symmetry not used in FoFCou.
 Harris En= -1199.34210386981    
 Leave Link  401 at Sat May 24 09:41:23 2025, MaxMem=  3758096384 cpu:               4.5 elap:               0.7
 (Enter /apps/easybuild-2022/easybuild/software/Compiler/NVHPC/22.11-CUDA-11.7.0/Gaussian/g16c01-CUDA-11.7.0/g16/l502.exe)
 Keep R1 ints in memory in canonical form, NReq=2293446996.
 FoFCou: FMM=F IPFlag=           0 FMFlag=           0 FMFlg1=           0
         NFxFlg=           0 DoJE=F BraDBF=F KetDBF=F FulRan=T
         wScrn=  0.000000 ICntrl=       600 IOpCl=  0 I1Cent=           0 NGrid=           0
         NMat0=    1 NMatS0=  67161 NMatT0=    0 NMatD0=    1 NMtDS0=    0 NMtDT0=    0
 Symmetry not used in FoFCou.
 Two-electron integral symmetry not used.
 Closed shell SCF:
 Using DIIS extrapolation, IDIIS=  1040.
 NGot=  3758096384 LenX=  1502398672 LenY=  1502219302
 Requested convergence on RMS density matrix=1.00D-08 within  32 cycles.
 Requested convergence on MAX density matrix=1.00D-06.
 Requested convergence on             energy=1.00D-06.
 No special actions if energy rises.
 Integral accuracy reduced to 1.0D-05 until final iterations.

 Cycle   1  Pass 0  IDiag  1:
 E= -1199.94007908253    
 DIIS: error= 6.01D-04 at cycle   1 NSaved=   1.
 NSaved= 1 IEnMin= 1 EnMin= -1199.94007908253     IErMin= 1 ErrMin= 6.01D-04
 ErrMax= 6.01D-04  0.00D+00 EMaxC= 1.00D-01 BMatC= 3.64D-04 BMatP= 3.64D-04
 IDIUse=3 WtCom= 9.94D-01 WtEn= 6.01D-03
 Coeff-Com:  0.100D+01
 Coeff-En:   0.100D+01
 Coeff:      0.100D+01
 Gap=     1.059 Goal=   None    Shift=    0.000
 RMSDP=4.99D-05 MaxDP=1.62D-03              OVMax= 3.42D-03

 Cycle   2  Pass 0  IDiag  1:
 E= -1199.94048398889     Delta-E=       -0.000404906361 Rises=F Damp=F
 DIIS: error= 1.06D-04 at cycle   2 NSaved=   2.
 NSaved= 2 IEnMin= 2 EnMin= -1199.94048398889     IErMin= 2 ErrMin= 1.06D-04
 ErrMax= 1.06D-04  0.00D+00 EMaxC= 1.00D-01 BMatC= 1.03D-05 BMatP= 3.64D-04
 IDIUse=3 WtCom= 9.99D-01 WtEn= 1.06D-03
 Coeff-Com: -0.127D+00 0.113D+01
 Coeff-En:   0.000D+00 0.100D+01
 Coeff:     -0.127D+00 0.113D+01
 Gap=     0.449 Goal=   None    Shift=    0.000
 RMSDP=1.12D-05 MaxDP=3.39D-04 DE=-4.05D-04 OVMax= 8.89D-04

 Cycle   3  Pass 0  IDiag  1:
 E= -1199.94050001839     Delta-E=       -0.000016029494 Rises=F Damp=F
 DIIS: error= 3.66D-05 at cycle   3 NSaved=   3.
 NSaved= 3 IEnMin= 3 EnMin= -1199.94050001839     IErMin= 3 ErrMin= 3.66D-05
 ErrMax= 3.66D-05  0.00D+00 EMaxC= 1.00D-01 BMatC= 2.08D-06 BMatP= 1.03D-05
 IDIUse=1 WtCom= 1.00D+00 WtEn= 0.00D+00
 Coeff-Com: -0.530D-01 0.367D+00 0.686D+00
 Coeff:     -0.530D-01 0.367D+00 0.686D+00
 Gap=     0.449 Goal=   None    Shift=    0.000
 RMSDP=3.30D-06 MaxDP=1.92D-04 DE=-1.60D-05 OVMax= 3.15D-04

 Initial convergence to 1.0D-05 achieved.  Increase integral accuracy.
 Cycle   4  Pass 1  IDiag  1:
 E= -1199.94056765953     Delta-E=       -0.000067641141 Rises=F Damp=F
 DIIS: error= 2.94D-05 at cycle   1 NSaved=   1.
 NSaved= 1 IEnMin= 1 EnMin= -1199.94056765953     IErMin= 1 ErrMin= 2.94D-05
 ErrMax= 2.94D-05  0.00D+00 EMaxC= 1.00D-01 BMatC= 1.32D-06 BMatP= 1.32D-06
 IDIUse=1 WtCom= 1.00D+00 WtEn= 0.00D+00
 Coeff-Com:  0.100D+01
 Coeff:      0.100D+01
 Gap=     0.449 Goal=   None    Shift=    0.000
 RMSDP=3.30D-06 MaxDP=1.92D-04 DE=-6.76D-05 OVMax= 3.09D-04

 Cycle   5  Pass 1  IDiag  1:
 E= -1199.94056772568     Delta-E=       -0.000000066150 Rises=F Damp=F
 DIIS: error= 3.36D-05 at cycle   2 NSaved=   2.
 NSaved= 2 IEnMin= 2 EnMin= -1199.94056772568     IErMin= 1 ErrMin= 2.94D-05
 ErrMax= 3.36D-05  0.00D+00 EMaxC= 1.00D-01 BMatC= 1.41D-06 BMatP= 1.32D-06
 IDIUse=1 WtCom= 1.00D+00 WtEn= 0.00D+00
 Coeff-Com:  0.510D+00 0.490D+00
 Coeff:      0.510D+00 0.490D+00
 Gap=     0.449 Goal=   None    Shift=    0.000
 RMSDP=2.09D-06 MaxDP=1.20D-04 DE=-6.61D-08 OVMax= 2.16D-04

 Cycle   6  Pass 1  IDiag  1:
 E= -1199.94056859121     Delta-E=       -0.000000865536 Rises=F Damp=F
 DIIS: error= 8.73D-06 at cycle   3 NSaved=   3.
 NSaved= 3 IEnMin= 3 EnMin= -1199.94056859121     IErMin= 3 ErrMin= 8.73D-06
 ErrMax= 8.73D-06  0.00D+00 EMaxC= 1.00D-01 BMatC= 6.38D-08 BMatP= 1.32D-06
 IDIUse=1 WtCom= 1.00D+00 WtEn= 0.00D+00
 Coeff-Com: -0.225D-01 0.158D+00 0.865D+00
 Coeff:     -0.225D-01 0.158D+00 0.865D+00
 Gap=     0.449 Goal=   None    Shift=    0.000
 RMSDP=7.30D-07 MaxDP=3.15D-05 DE=-8.66D-07 OVMax= 5.57D-05

 Cycle   7  Pass 1  IDiag  1:
 E= -1199.94056863246     Delta-E=       -0.000000041247 Rises=F Damp=F
 DIIS: error= 3.10D-06 at cycle   4 NSaved=   4.
 NSaved= 4 IEnMin= 4 EnMin= -1199.94056863246     IErMin= 4 ErrMin= 3.10D-06
 ErrMax= 3.10D-06  0.00D+00 EMaxC= 1.00D-01 BMatC= 8.17D-09 BMatP= 6.38D-08
 IDIUse=1 WtCom= 1.00D+00 WtEn= 0.00D+00
 Coeff-Com: -0.264D-01 0.692D-01 0.460D+00 0.497D+00
 Coeff:     -0.264D-01 0.692D-01 0.460D+00 0.497D+00
 Gap=     0.449 Goal=   None    Shift=    0.000
 RMSDP=1.54D-07 MaxDP=6.16D-06 DE=-4.12D-08 OVMax= 1.26D-05

 Cycle   8  Pass 1  IDiag  1:
 E= -1199.94056863772     Delta-E=       -0.000000005259 Rises=F Damp=F
 DIIS: error= 3.72D-07 at cycle   5 NSaved=   5.
 NSaved= 5 IEnMin= 5 EnMin= -1199.94056863772     IErMin= 5 ErrMin= 3.72D-07
 ErrMax= 3.72D-07  0.00D+00 EMaxC= 1.00D-01 BMatC= 1.63D-10 BMatP= 8.17D-09
 IDIUse=1 WtCom= 1.00D+00 WtEn= 0.00D+00
 Coeff-Com: -0.131D-02-0.872D-02-0.338D-01 0.654D-01 0.978D+00
 Coeff:     -0.131D-02-0.872D-02-0.338D-01 0.654D-01 0.978D+00
 Gap=     0.449 Goal=   None    Shift=    0.000
 RMSDP=5.67D-08 MaxDP=1.64D-06 DE=-5.26D-09 OVMax= 4.19D-06

 Cycle   9  Pass 1  IDiag  1:
 E= -1199.94056863785     Delta-E=       -0.000000000128 Rises=F Damp=F
 DIIS: error= 2.85D-07 at cycle   6 NSaved=   6.
 NSaved= 6 IEnMin= 6 EnMin= -1199.94056863785     IErMin= 6 ErrMin= 2.85D-07
 ErrMax= 2.85D-07  0.00D+00 EMaxC= 1.00D-01 BMatC= 8.01D-11 BMatP= 1.63D-10
 IDIUse=1 WtCom= 1.00D+00 WtEn= 0.00D+00
 Coeff-Com:  0.174D-02-0.110D-01-0.603D-01-0.876D-02 0.531D+00 0.547D+00
 Coeff:      0.174D-02-0.110D-01-0.603D-01-0.876D-02 0.531D+00 0.547D+00
 Gap=     0.449 Goal=   None    Shift=    0.000
 RMSDP=1.73D-08 MaxDP=9.53D-07 DE=-1.28D-10 OVMax= 1.81D-06

 Cycle  10  Pass 1  IDiag  1:
 E= -1199.94056863791     Delta-E=       -0.000000000060 Rises=F Damp=F
 DIIS: error= 6.10D-08 at cycle   7 NSaved=   7.
 NSaved= 7 IEnMin= 7 EnMin= -1199.94056863791     IErMin= 7 ErrMin= 6.10D-08
 ErrMax= 6.10D-08  0.00D+00 EMaxC= 1.00D-01 BMatC= 3.25D-12 BMatP= 8.01D-11
 IDIUse=1 WtCom= 1.00D+00 WtEn= 0.00D+00
 Coeff-Com:  0.766D-03-0.346D-02-0.202D-01-0.791D-02 0.115D+00 0.205D+00
 Coeff-Com:  0.711D+00
 Coeff:      0.766D-03-0.346D-02-0.202D-01-0.791D-02 0.115D+00 0.205D+00
 Coeff:      0.711D+00
 Gap=     0.449 Goal=   None    Shift=    0.000
 RMSDP=4.23D-09 MaxDP=4.26D-07 DE=-6.00D-11 OVMax= 3.93D-07

 SCF Done:  E(RM062X) =  -1199.94056864     A.U. after   10 cycles
            NFock= 10  Conv=0.42D-08     -V/T= 2.0029
 KE= 1.196522320185D+03 PE=-4.711109084661D+03 EE= 1.382159691729D+03
 Leave Link  502 at Sat May 24 09:41:56 2025, MaxMem=  3758096384 cpu:             141.5 elap:              32.5
 (Enter /apps/easybuild-2022/easybuild/software/Compiler/NVHPC/22.11-CUDA-11.7.0/Gaussian/g16c01-CUDA-11.7.0/g16/l508.exe)
 QCSCF skips out because SCF is already converged.
 Leave Link  508 at Sat May 24 09:41:56 2025, MaxMem=  3758096384 cpu:               0.1 elap:               0.0
 (Enter /apps/easybuild-2022/easybuild/software/Compiler/NVHPC/22.11-CUDA-11.7.0/Gaussian/g16c01-CUDA-11.7.0/g16/l801.exe)
 DoSCS=F DFT=T ScalE2(SS,OS)=  1.000000  1.000000
 Range of M.O.s used for correlation:     1   366
 NBasis=   366 NAE=    49 NBE=    49 NFC=     0 NFV=     0
 NROrb=    366 NOA=    49 NOB=    49 NVA=   317 NVB=   317

 **** Warning!!: The largest alpha MO coefficient is  0.15735180D+02

 Leave Link  801 at Sat May 24 09:41:56 2025, MaxMem=  3758096384 cpu:               0.1 elap:               0.0
 (Enter /apps/easybuild-2022/easybuild/software/Compiler/NVHPC/22.11-CUDA-11.7.0/Gaussian/g16c01-CUDA-11.7.0/g16/l1101.exe)
 Using compressed storage, NAtomX=    12.
 Will process     13 centers per pass.
   1 Symmetry operations used in ECPInt.
 ECPInt:  NShTT=    8515 NPrTT=   27988 LenC2=    8034 LenP2D=   19574.
 LDataN:  DoStor=T MaxTD1= 7 Len=  274
 Leave Link 1101 at Sat May 24 09:41:56 2025, MaxMem=  3758096384 cpu:               1.5 elap:               0.3
 (Enter /apps/easybuild-2022/easybuild/software/Compiler/NVHPC/22.11-CUDA-11.7.0/Gaussian/g16c01-CUDA-11.7.0/g16/l1102.exe)
 Symmetrizing basis deriv contribution to polar:
 IMax=3 JMax=2 DiffMx= 0.00D+00
 Leave Link 1102 at Sat May 24 09:41:56 2025, MaxMem=  3758096384 cpu:               0.1 elap:               0.1
 (Enter /apps/easybuild-2022/easybuild/software/Compiler/NVHPC/22.11-CUDA-11.7.0/Gaussian/g16c01-CUDA-11.7.0/g16/l1110.exe)
 Forming Gx(P) for the SCF density, NAtomX=    12.
 Integral derivatives from FoFJK, PRISM(SPDF).
 Do as many integral derivatives as possible in FoFJK.
 G2DrvN: MDV=    3758095012.
 G2DrvN: will do    13 centers at a time, making    1 passes.
 Calling FoFCou, ICntrl=  3107 FMM=F I1Cent=   0 AccDes= 0.00D+00.
 FoFJK:  IHMeth= 1 ICntrl=    3107 DoSepK=F KAlg= 0 I1Cent=           0 FoldK=F
 IRaf=         0 NMat=       1 IRICut=       1 DoRegI=T DoRafI=F ISym2E= 0 IDoP0=0 IntGTp=1.
 FoFCou: FMM=F IPFlag=           0 FMFlag=      100000 FMFlg1=           0
         NFxFlg=           0 DoJE=F BraDBF=F KetDBF=F FulRan=T
         wScrn=  0.000000 ICntrl=      3107 IOpCl=  0 I1Cent=           0 NGrid=           0
         NMat0=    1 NMatS0=      1 NMatT0=    0 NMatD0=    1 NMtDS0=    0 NMtDT0=    0
 Symmetry not used in FoFCou.
 End of G2Drv F.D. properties file   721 does not exist.
 End of G2Drv F.D. properties file   722 does not exist.
 End of G2Drv F.D. properties file   788 does not exist.
 Leave Link 1110 at Sat May 24 09:42:54 2025, MaxMem=  3758096384 cpu:             457.6 elap:              58.0
 (Enter /apps/easybuild-2022/easybuild/software/Compiler/NVHPC/22.11-CUDA-11.7.0/Gaussian/g16c01-CUDA-11.7.0/g16/l1002.exe)
 Minotr:  Closed shell wavefunction.
          IDoAtm=111111111111
          Direct CPHF calculation.
          Differentiating once with respect to electric field.
                with respect to dipole field.
          Differentiating once with respect to nuclear coordinates.
          Requested convergence is 1.0D-08 RMS, and 1.0D-07 maximum.
          Secondary convergence is 1.0D-12 RMS, and 1.0D-12 maximum.
          NewPWx=T KeepS1=F KeepF1=F KeepIn=T MapXYZ=F SortEE=F KeepMc=T.
         3598 words used for storage of precomputed grid.
 Keep R1 ints in memory in canonical form, NReq=2293452904.
 FoFCou: FMM=F IPFlag=           0 FMFlag=           0 FMFlg1=           0
         NFxFlg=           0 DoJE=F BraDBF=F KetDBF=F FulRan=T
         wScrn=  0.000000 ICntrl=       600 IOpCl=  0 I1Cent=           0 NGrid=           0
         NMat0=    1 NMatS0=  67161 NMatT0=    0 NMatD0=    1 NMtDS0=    0 NMtDT0=    0
 Symmetry not used in FoFCou.
 Two-electron integral symmetry not used.
          MDV=    3758096384 using IRadAn=       1.
          Solving linear equations simultaneously, MaxMat=       0.
          There are    39 degrees of freedom in the 1st order CPHF.  IDoFFX=6 NUNeed=     3.
     36 vectors produced by pass  0 Test12= 3.98D-14 2.56D-09 XBig12= 2.13D+01 1.30D+00.
 AX will form    36 AO Fock derivatives at one time.
     36 vectors produced by pass  1 Test12= 3.98D-14 2.56D-09 XBig12= 4.99D+00 3.42D-01.
     36 vectors produced by pass  2 Test12= 3.98D-14 2.56D-09 XBig12= 1.30D-01 5.14D-02.
     36 vectors produced by pass  3 Test12= 3.98D-14 2.56D-09 XBig12= 4.23D-03 1.33D-02.
     36 vectors produced by pass  4 Test12= 3.98D-14 2.56D-09 XBig12= 6.90D-05 1.35D-03.
     36 vectors produced by pass  5 Test12= 3.98D-14 2.56D-09 XBig12= 7.37D-07 1.10D-04.
     35 vectors produced by pass  6 Test12= 3.98D-14 2.56D-09 XBig12= 4.77D-09 7.23D-06.
     14 vectors produced by pass  7 Test12= 3.98D-14 2.56D-09 XBig12= 2.71D-11 5.22D-07.
      3 vectors produced by pass  8 Test12= 3.98D-14 2.56D-09 XBig12= 1.18D-13 2.76D-08.
 InvSVY:  IOpt=1 It=  1 EMax= 1.78D-15
 Solved reduced A of dimension   268 with    39 vectors.
 FullF1:  Do perturbations      1 to       3.
 Isotropic polarizability for W=    0.000000       53.51 Bohr**3.
 End of Minotr F.D. properties file   721 does not exist.
 End of Minotr F.D. properties file   722 does not exist.
 End of Minotr F.D. properties file   788 does not exist.
 Leave Link 1002 at Sat May 24 09:44:36 2025, MaxMem=  3758096384 cpu:             787.7 elap:             101.3
 (Enter /apps/easybuild-2022/easybuild/software/Compiler/NVHPC/22.11-CUDA-11.7.0/Gaussian/g16c01-CUDA-11.7.0/g16/l701.exe)
 ... and contract with generalized density number  0.
 Compute integral second derivatives.
   1 Symmetry operations used in ECPInt.
 ECPInt:  NShTT=    8515 NPrTT=   27988 LenC2=    8034 LenP2D=   19574.
 LDataN:  DoStor=T MaxTD1= 8 Len=  415
 Leave Link  701 at Sat May 24 09:44:36 2025, MaxMem=  3758096384 cpu:               1.1 elap:               0.2
 (Enter /apps/easybuild-2022/easybuild/software/Compiler/NVHPC/22.11-CUDA-11.7.0/Gaussian/g16c01-CUDA-11.7.0/g16/l702.exe)
 L702 exits ... SP integral derivatives will be done elsewhere.
 Leave Link  702 at Sat May 24 09:44:36 2025, MaxMem=  3758096384 cpu:               0.0 elap:               0.0
 (Enter /apps/easybuild-2022/easybuild/software/Compiler/NVHPC/22.11-CUDA-11.7.0/Gaussian/g16c01-CUDA-11.7.0/g16/l703.exe)
 Integral derivatives from FoFJK, PRISM(SPDF).
 Compute integral second derivatives, UseDBF=F ICtDFT=           0.
 Calling FoFJK, ICntrl=    100127 FMM=F ISym2X=0 I1Cent= 0 IOpClX= 0 NMat=1 NMatS=1 NMatT=0.
 FoFJK:  IHMeth= 1 ICntrl=  100127 DoSepK=F KAlg= 0 I1Cent=           0 FoldK=F
 IRaf=         0 NMat=       1 IRICut=       1 DoRegI=T DoRafI=F ISym2E= 0 IDoP0=0 IntGTp=1.
 FoFCou: FMM=F IPFlag=           0 FMFlag=      100000 FMFlg1=         800
         NFxFlg=           0 DoJE=F BraDBF=F KetDBF=F FulRan=T
         wScrn=  0.000000 ICntrl=    100127 IOpCl=  0 I1Cent=           0 NGrid=           0
         NMat0=    1 NMatS0=      1 NMatT0=    0 NMatD0=    1 NMtDS0=    0 NMtDT0=    0
 Symmetry not used in FoFCou.
 Leave Link  703 at Sat May 24 09:46:39 2025, MaxMem=  3758096384 cpu:             967.0 elap:             123.1
 (Enter /apps/easybuild-2022/easybuild/software/Compiler/NVHPC/22.11-CUDA-11.7.0/Gaussian/g16c01-CUDA-11.7.0/g16/l716.exe)
 Dipole        =-1.07650591D+00-2.94293318D-02 1.76806262D-01
 Polarizability= 5.15880832D+01-3.22850754D-02 5.63099523D+01
                -1.25652083D+00 2.32077990D+00 5.26436922D+01
 -------------------------------------------------------------------
 Center     Atomic                   Forces (Hartrees/Bohr)
 Number     Number              X              Y              Z
 -------------------------------------------------------------------
      1        6           0.000001957   -0.000026400   -0.000002549
      2        6          -0.000020307   -0.000057047    0.000065109
      3        9           0.000092453    0.000006664   -0.000028419
      4        9          -0.000070259    0.000031124   -0.000033929
      5       16           0.000000842    0.000046217   -0.000010759
      6        8          -0.000009033   -0.000012183   -0.000066097
      7        8          -0.000043814   -0.000013705    0.000046265
      8        8          -0.000115723    0.000057952    0.000195841
      9        9           0.000003222   -0.000006384    0.000004502
     10        9          -0.000030347   -0.000011595    0.000014643
     11        9           0.000012400    0.000025981   -0.000004772
     12        1           0.000178610   -0.000040624   -0.000179834
 -------------------------------------------------------------------
 Cartesian Forces:  Max     0.000195841 RMS     0.000066533
 Force constants in Cartesian coordinates: 
                1             2             3             4             5 
      1  0.610717D+00
      2 -0.457244D-02  0.591031D+00
      3 -0.410025D-02  0.137147D-01  0.617456D+00
      4 -0.398762D-01 -0.161784D-02  0.215913D-02  0.548369D+00
      5 -0.465243D-02 -0.916665D-01 -0.417548D-01 -0.138696D-01  0.474874D+00
      6 -0.356805D-02 -0.796238D-01 -0.166862D+00  0.208684D-02 -0.177767D-01
      7 -0.268581D-01 -0.848745D-02  0.857873D-02 -0.237960D+00 -0.423635D-01
      8  0.747195D-02  0.168163D-02 -0.537858D-02 -0.508593D-01 -0.828577D-01
      9  0.427095D-01  0.147121D-01 -0.116715D-01  0.103457D+00  0.218786D-01
     10 -0.187836D-01  0.132719D-01 -0.114266D-01 -0.185736D+00  0.740199D-01
     11 -0.120087D-03  0.153379D-02 -0.281144D-02  0.806510D-01 -0.123011D+00
     12 -0.361949D-01  0.292019D-01 -0.207948D-01 -0.106099D+00  0.660644D-01
     13  0.229162D-01 -0.245276D-02 -0.273685D-02 -0.268993D-01 -0.153244D-01
     14 -0.171887D-02 -0.152467D-01 -0.335155D-01 -0.269627D-01 -0.166928D+00
     15 -0.688709D-02 -0.344624D-01  0.249545D-01  0.132514D-02 -0.220455D-01
     16 -0.331347D-02 -0.623092D-03  0.226748D-02  0.136006D-02  0.263437D-04
     17 -0.126194D-02 -0.331810D-02  0.143314D-01 -0.428666D-03  0.291174D-02
     18 -0.154356D-03  0.260217D-02  0.424321D-02 -0.884719D-05  0.128721D-01
     19 -0.694849D-02  0.744003D-03  0.525993D-02 -0.462340D-02  0.139015D-01
     20  0.352887D-02  0.342357D-02  0.545305D-02 -0.146235D-01  0.183390D-01
     21  0.506459D-02  0.630809D-02 -0.109780D-01  0.689386D-02 -0.116519D-01
     22 -0.635611D-02  0.721421D-03 -0.750851D-02 -0.196160D-01 -0.128383D-01
     23 -0.170077D-02  0.122889D-02  0.623510D-02  0.221303D-01  0.763804D-02
     24 -0.153255D-02  0.405047D-02 -0.564692D-02 -0.378165D-02  0.452812D-03
     25 -0.168441D+00  0.555160D-01 -0.106002D+00 -0.115395D-01  0.120390D-01
     26  0.584238D-01 -0.112595D+00  0.599327D-01  0.138073D-03  0.636737D-02
     27 -0.101329D+00  0.551440D-01 -0.200773D+00 -0.340268D-01  0.244695D-01
     28 -0.269707D+00  0.985353D-02  0.112933D+00 -0.243903D-01 -0.255270D-04
     29  0.572375D-02 -0.786076D-01 -0.105323D-01  0.141824D-01  0.761144D-02
     30  0.104438D+00 -0.106040D-01 -0.147036D+00  0.372607D-01  0.805686D-03
     31 -0.932573D-01 -0.632991D-01 -0.619452D-03 -0.658218D-03 -0.125703D-01
     32 -0.616673D-01 -0.297301D+00 -0.510024D-02 -0.147054D-01 -0.533836D-01
     33  0.133702D-02 -0.389736D-03 -0.826200D-01 -0.678559D-02 -0.321693D-01
     34 -0.918789D-04  0.945815D-03  0.119540D-02  0.156884D-02  0.165731D-02
     35  0.545519D-03 -0.164725D-03 -0.574081D-03  0.596538D-02  0.104962D-03
     36  0.216588D-03 -0.653477D-03 -0.271550D-03 -0.248084D-02 -0.114477D-02
                6             7             8             9            10 
      6  0.574790D+00
      7  0.115698D+00  0.348411D+00
      8  0.287523D-01  0.507804D-01  0.774055D-01
      9 -0.143001D+00 -0.142673D+00 -0.308030D-01  0.144203D+00
     10 -0.115975D+00 -0.745808D-01  0.192394D-01 -0.142078D-01  0.275180D+00
     11  0.728388D-01  0.824756D-02  0.126854D-01 -0.530625D-02 -0.112721D+00
     12 -0.176608D+00 -0.166191D-03 -0.719525D-02  0.223848D-01  0.153519D+00
     13  0.268317D-02 -0.316993D-01 -0.299991D-01  0.140641D-01 -0.132599D-01
     14  0.144840D-01  0.411422D-02  0.669159D-03 -0.338948D-02  0.342963D-02
     15 -0.532566D-01  0.157398D-01  0.209205D-01 -0.793760D-02 -0.997229D-02
     16 -0.781728D-02  0.440561D-02  0.207958D-02 -0.202010D-02  0.323551D-02
     17 -0.363942D-01 -0.347657D-02 -0.100751D-02  0.248681D-02  0.485561D-03
     18 -0.218588D-01 -0.546412D-02 -0.332457D-02  0.579714D-02  0.478345D-02
     19  0.760759D-02 -0.211902D-02 -0.536468D-02  0.677576D-03  0.555090D-02
     20  0.119977D-01 -0.945025D-02 -0.108257D-01  0.437785D-02  0.353568D-02
     21  0.270517D-02  0.246901D-02  0.394278D-02  0.392997D-03 -0.257742D-02
     22  0.165273D-02  0.113227D-01  0.178904D-02 -0.265043D-02 -0.202012D-03
     23  0.350889D-02 -0.177769D-03 -0.230734D-02  0.147151D-02  0.441177D-02
     24  0.615011D-02 -0.154846D-02 -0.919100D-03  0.101102D-02 -0.103080D-03
     25 -0.862944D-02  0.564950D-02 -0.116818D-02 -0.281802D-02  0.886952D-04
     26 -0.496848D-03 -0.271890D-03  0.711502D-03 -0.683002D-03 -0.131320D-02
     27 -0.171287D-01  0.303863D-02 -0.149667D-02 -0.518241D-03 -0.454872D-02
     28  0.578507D-02 -0.871462D-04  0.293338D-02  0.508752D-02  0.634145D-02
     29 -0.221166D-02  0.240894D-02 -0.736416D-03 -0.526676D-02 -0.201542D-02
     30 -0.780579D-02  0.494162D-02 -0.386942D-02 -0.106445D-01  0.763617D-04
     31  0.225518D-02  0.415147D-02  0.341659D-02 -0.184003D-02  0.211576D-02
     32  0.533712D-02  0.201435D-02  0.453061D-02 -0.710999D-03 -0.163035D-02
     33  0.267650D-02 -0.165983D-02 -0.151100D-02  0.106886D-02  0.830356D-03
     34 -0.177872D-02 -0.636699D-03 -0.319105D-03  0.213802D-03  0.497764D-04
     35 -0.415649D-03 -0.333809D-02  0.508887D-04  0.123256D-02 -0.714106D-03
     36  0.199131D-03  0.104620D-02  0.881975D-03 -0.108418D-02 -0.398609D-03
               11            12            13            14            15 
     11  0.123116D+00
     12 -0.860133D-01  0.189818D+00
     13  0.318857D-01 -0.154446D-01  0.813568D+00
     14 -0.610636D-02 -0.119862D-02  0.530556D-01  0.558043D+00
     15  0.243351D-01 -0.101366D-01 -0.208445D+00  0.589306D-01  0.122936D+01
     16 -0.243969D-02  0.359839D-02 -0.999423D-01 -0.197178D-01 -0.607568D-01
     17 -0.819459D-04  0.912373D-03 -0.197846D-01 -0.148307D+00 -0.174856D+00
     18 -0.296239D-02  0.691460D-02 -0.539377D-01 -0.166978D+00 -0.643395D+00
     19 -0.749651D-02  0.305732D-02 -0.373235D+00 -0.916112D-01  0.309844D+00
     20 -0.396934D-02  0.178448D-02 -0.983268D-01 -0.129433D+00  0.986199D-01
     21  0.176035D-02  0.240972D-03  0.308764D+00  0.916635D-01 -0.419601D+00
     22  0.658343D-02 -0.122058D-02 -0.237506D+00  0.673292D-01 -0.712646D-01
     23 -0.111078D-01  0.435381D-02  0.676363D-01 -0.979033D-01  0.264917D-01
     24  0.220911D-03  0.581173D-03 -0.409237D-01  0.155162D-01 -0.118234D+00
     25 -0.208936D-02 -0.423938D-02 -0.654610D-02  0.368854D-02 -0.191806D-02
     26  0.131233D-02 -0.270796D-02  0.357578D-02 -0.160662D-02  0.640018D-02
     27 -0.329586D-02 -0.133137D-01 -0.988851D-03  0.721599D-02 -0.489116D-02
     28 -0.150658D-02  0.995128D-03 -0.825320D-02 -0.429056D-02  0.469693D-02
     29  0.839092D-03 -0.171214D-02 -0.248209D-02  0.199495D-03  0.433606D-02
     30 -0.328966D-03 -0.168342D-03  0.194895D-02  0.632083D-02 -0.438957D-02
     31 -0.102104D-03  0.185427D-02 -0.227448D-02  0.228798D-02 -0.485384D-03
     32  0.542711D-02 -0.351670D-02  0.796472D-03  0.990257D-02 -0.353484D-02
     33  0.937847D-04  0.176853D-02  0.728700D-03  0.700587D-02 -0.774946D-02
     34 -0.892537D-03  0.340275D-03 -0.368689D-01  0.103959D-01  0.281225D-01
     35 -0.637318D-03  0.269793D-04  0.114199D-01 -0.328360D-02 -0.513582D-02
     36  0.146915D-02 -0.686554D-03 -0.571260D-02  0.394440D-02  0.152730D-01
               16            17            18            19            20 
     16  0.792195D-01
     17  0.219758D-01  0.113633D+00
     18  0.765125D-01  0.181846D+00  0.682997D+00
     19  0.130900D-01 -0.269145D-02 -0.954111D-02  0.398645D+00
     20  0.713650D-02  0.231864D-01 -0.130014D-01  0.961176D-01  0.899194D-01
     21  0.307669D-01  0.974256D-02 -0.134697D-01 -0.341186D+00 -0.980708D-01
     22 -0.844771D-02  0.781718D-02 -0.123946D-01 -0.327154D-01  0.128823D-01
     23 -0.606776D-02  0.183329D-01 -0.397918D-02 -0.135606D-02  0.123938D-01
     24 -0.402684D-01  0.113012D-01 -0.139516D-01  0.347548D-01 -0.613281D-02
     25  0.907699D-03 -0.116711D-02  0.900154D-04  0.104006D-02 -0.158807D-02
     26 -0.357489D-03  0.118294D-02 -0.891725D-03 -0.101054D-02  0.172181D-03
     27 -0.316579D-04 -0.238179D-02 -0.518089D-04 -0.768553D-03 -0.196435D-02
     28  0.152325D-02  0.198773D-02  0.272893D-03  0.408997D-02 -0.220512D-03
     29  0.317798D-03  0.314952D-03 -0.918714D-03  0.129281D-02 -0.376809D-02
     30 -0.709305D-03 -0.251404D-02 -0.462552D-03 -0.181131D-02 -0.251965D-02
     31  0.294256D-03 -0.101981D-02 -0.794217D-03  0.672711D-03 -0.660955D-03
     32 -0.745993D-03 -0.469037D-02 -0.344748D-02 -0.843988D-03 -0.172748D-02
     33 -0.599541D-03 -0.372578D-02 -0.978559D-03 -0.125192D-02 -0.986019D-03
     34  0.766761D-02 -0.243605D-02  0.636151D-03 -0.344736D-02  0.166910D-02
     35 -0.158419D-02 -0.215698D-02 -0.181671D-02 -0.168146D-02  0.228903D-02
     36 -0.942179D-03 -0.748781D-03 -0.578380D-02 -0.664253D-02  0.441969D-03
               21            22            23            24            25 
     21  0.423128D+00
     22 -0.346162D-02  0.492975D+00
     23 -0.281512D-04 -0.137575D+00  0.938389D-01
     24  0.826830D-02 -0.153699D+00  0.272302D-01  0.438342D+00
[...]
     21  0.176035D-02  0.240972D-03  0.308764D+00  0.916635D-01 -0.419601D+00
     22  0.658343D-02 -0.122058D-02 -0.237506D+00  0.673292D-01 -0.712646D-01
     23 -0.111078D-01  0.435381D-02  0.676363D-01 -0.979033D-01  0.264917D-01
     24  0.220911D-03  0.581173D-03 -0.409237D-01  0.155162D-01 -0.118234D+00
     25 -0.208936D-02 -0.423938D-02 -0.654610D-02  0.368854D-02 -0.191806D-02
     26  0.131233D-02 -0.270796D-02  0.357578D-02 -0.160662D-02  0.640018D-02
     27 -0.329586D-02 -0.133137D-01 -0.988851D-03  0.721599D-02 -0.489116D-02
     28 -0.150658D-02  0.995128D-03 -0.825320D-02 -0.429056D-02  0.469693D-02
     29  0.839092D-03 -0.171214D-02 -0.248209D-02  0.199495D-03  0.433606D-02
     30 -0.328966D-03 -0.168342D-03  0.194895D-02  0.632083D-02 -0.438957D-02
     31 -0.102104D-03  0.185427D-02 -0.227448D-02  0.228798D-02 -0.485384D-03
     32  0.542711D-02 -0.351670D-02  0.796472D-03  0.990257D-02 -0.353484D-02
     33  0.937847D-04  0.176853D-02  0.728700D-03  0.700587D-02 -0.774946D-02
     34 -0.892537D-03  0.340275D-03 -0.368689D-01  0.103959D-01  0.281225D-01
     35 -0.637318D-03  0.269793D-04  0.114199D-01 -0.328360D-02 -0.513582D-02
     36  0.146915D-02 -0.686554D-03 -0.571260D-02  0.394440D-02  0.152730D-01
               16            17            18            19            20 
     16  0.792195D-01
     17  0.219758D-01  0.113633D+00
     18  0.765125D-01  0.181846D+00  0.682997D+00
     19  0.130900D-01 -0.269145D-02 -0.954111D-02  0.398645D+00
     20  0.713650D-02  0.231864D-01 -0.130014D-01  0.961176D-01  0.899194D-01
     21  0.307669D-01  0.974256D-02 -0.134697D-01 -0.341186D+00 -0.980708D-01
     22 -0.844771D-02  0.781718D-02 -0.123946D-01 -0.327154D-01  0.128823D-01
     23 -0.606776D-02  0.183329D-01 -0.397918D-02 -0.135606D-02  0.123938D-01
     24 -0.402684D-01  0.113012D-01 -0.139516D-01  0.347548D-01 -0.613281D-02
     25  0.907699D-03 -0.116711D-02  0.900154D-04  0.104006D-02 -0.158807D-02
     26 -0.357489D-03  0.118294D-02 -0.891725D-03 -0.101054D-02  0.172181D-03
     27 -0.316579D-04 -0.238179D-02 -0.518089D-04 -0.768553D-03 -0.196435D-02
     28  0.152325D-02  0.198773D-02  0.272893D-03  0.408997D-02 -0.220512D-03
     29  0.317798D-03  0.314952D-03 -0.918714D-03  0.129281D-02 -0.376809D-02
     30 -0.709305D-03 -0.251404D-02 -0.462552D-03 -0.181131D-02 -0.251965D-02
     31  0.294256D-03 -0.101981D-02 -0.794217D-03  0.672711D-03 -0.660955D-03
     32 -0.745993D-03 -0.469037D-02 -0.344748D-02 -0.843988D-03 -0.172748D-02
     33 -0.599541D-03 -0.372578D-02 -0.978559D-03 -0.125192D-02 -0.986019D-03
     34  0.766761D-02 -0.243605D-02  0.636151D-03 -0.344736D-02  0.166910D-02
     35 -0.158419D-02 -0.215698D-02 -0.181671D-02 -0.168146D-02  0.228903D-02
     36 -0.942179D-03 -0.748781D-03 -0.578380D-02 -0.664253D-02  0.441969D-03
               21            22            23            24            25 
     21  0.423128D+00
     22 -0.346162D-02  0.492975D+00
     23 -0.281512D-04 -0.137575D+00  0.938389D-01
     24  0.826830D-02 -0.153699D+00  0.272302D-01  0.438342D+00
     25 -0.350399D-03  0.366879D-02  0.407104D-04  0.186607D-02  0.237291D+00
     26 -0.171451D-02 -0.123752D-02 -0.212878D-02 -0.338748D-02 -0.109733D+00
     27  0.230004D-02  0.298877D-02 -0.366274D-02  0.566007D-03  0.148072D+00
     28 -0.345116D-02  0.194309D-02  0.110342D-02  0.298062D-04 -0.753261D-01
     29 -0.296849D-02  0.606733D-03 -0.159270D-03 -0.402125D-03  0.281100D-01
     30  0.262840D-02  0.580147D-03 -0.127387D-02  0.774080D-03 -0.219591D-01
     31 -0.404769D-03  0.140058D-02 -0.373794D-03  0.277886D-03  0.133006D-01
     32  0.688217D-03  0.233379D-02 -0.205132D-02  0.390288D-03  0.165793D-01
     33  0.255632D-02  0.180693D-02 -0.145161D-02  0.145069D-02 -0.401780D-02
     34 -0.252683D-02 -0.206467D+00  0.519289D-01  0.204929D+00 -0.932742D-04
     35  0.328327D-03  0.515880D-01 -0.177746D-01 -0.483206D-01 -0.228388D-03
     36  0.182849D-02  0.245171D+00 -0.588957D-01 -0.319311D+00 -0.944778D-04
               26            27            28            29            30 
     26  0.158907D+00
     27 -0.107365D+00  0.214176D+00
     28  0.233644D-01 -0.494318D-02  0.402179D+00
     29  0.624429D-02 -0.105985D-02  0.723622D-02  0.828189D-01
     30  0.293509D-02  0.221442D-01 -0.144686D+00 -0.737952D-02  0.139979D+00
     31  0.289440D-01 -0.708805D-02 -0.384344D-01 -0.552468D-01  0.201548D-01
     32 -0.583736D-01  0.344205D-01 -0.400163D-01 -0.148615D-01  0.180423D-01
     33  0.479212D-01 -0.253383D-02  0.233185D-01  0.280074D-01  0.496948D-02
     34 -0.522862D-03 -0.375047D-03  0.120826D-03 -0.134363D-03 -0.235086D-03
     35 -0.193926D-03 -0.233652D-04 -0.419165D-03  0.104719D-03  0.385551D-03
     36  0.576789D-04  0.246839D-04 -0.380802D-04  0.108148D-03  0.110472D-04
               31            32            33            34            35 
     31  0.112908D+00
     32  0.987422D-01  0.412496D+00
     33 -0.133867D-01 -0.429192D-01  0.793385D-01
     34 -0.218907D-03 -0.856783D-03 -0.320099D-03  0.238417D+00
     35 -0.118000D-03  0.320775D-04  0.124454D-03 -0.614354D-01  0.216295D-01
     36  0.764519D-04  0.351056D-03  0.529493D-04 -0.230201D+00  0.541883D-01
               36 
     36  0.309748D+00
 Leave Link  716 at Sat May 24 09:46:39 2025, MaxMem=  3758096384 cpu:               0.1 elap:               0.0
 (Enter /apps/easybuild-2022/easybuild/software/Compiler/NVHPC/22.11-CUDA-11.7.0/Gaussian/g16c01-CUDA-11.7.0/g16/l9999.exe)

 ----------------------------------------------------------------------

 Electric dipole moment (input orientation):
 (Debye = 10**-18 statcoulomb cm , SI units = C m)
                  (au)            (Debye)         (10**-30 SI)
   Tot        0.109133D+01      0.277387D+01      0.925264D+01
   x         -0.107651D+01     -0.273620D+01     -0.912700D+01
   y         -0.294293D-01     -0.748019D-01     -0.249512D+00
   z          0.176806D+00      0.449397D+00      0.149903D+01

 Dipole polarizability, Alpha (input orientation).
 (esu units = cm**3 , SI units = C**2 m**2 J**-1)
 Alpha(0;0):
               (au)            (10**-24 esu)      (10**-40 SI)
   iso        0.535139D+02      0.792994D+01      0.882325D+01
   aniso      0.627086D+01      0.929245D+00      0.103392D+01
   xx         0.515881D+02      0.764457D+01      0.850573D+01
   yx        -0.322851D-01     -0.478415D-02     -0.532309D-02
   yy         0.563100D+02      0.834427D+01      0.928426D+01
   zx        -0.125652D+01     -0.186197D+00     -0.207172D+00
   zy         0.232078D+01      0.343904D+00      0.382645D+00
   zz         0.526437D+02      0.780099D+01      0.867977D+01

 ----------------------------------------------------------------------

 Dipole orientation:
     6         -1.63268206         -2.47478182         -0.04238631
     6          0.92460950         -1.11063006          0.32758315
     9          1.68708665         -1.44645096          2.71530426
     9          2.61181287         -2.12249085         -1.23730657
    16          0.85604921          2.31959370         -0.28643333
     8          3.40909234          3.12810440         -0.16714221
     8         -0.73750343          2.74075071         -2.38524822
     8         -0.58258639          3.26585757          2.13077972
     9         -3.42329426         -1.32962393          1.28127492
     9         -2.26847051         -2.50901464         -2.45213117
     9         -1.40581812         -4.83417588          0.77329899
     1          0.60340556          3.60816324          3.48204391

 Electric dipole moment (dipole orientation):
 (Debye = 10**-18 statcoulomb cm , SI units = C m)
                  (au)            (Debye)         (10**-30 SI)
   Tot        0.109133D+01      0.277387D+01      0.925264D+01
   x          0.000000D+00      0.000000D+00      0.000000D+00
   y          0.000000D+00      0.000000D+00      0.000000D+00
   z          0.109133D+01      0.277387D+01      0.925264D+01

 Dipole polarizability, Alpha (dipole orientation).
 (esu units = cm**3 , SI units = C**2 m**2 J**-1)
 Alpha(0;0):
               (au)            (10**-24 esu)      (10**-40 SI)
   iso        0.535139D+02      0.792994D+01      0.882325D+01
   aniso      0.627086D+01      0.929245D+00      0.103392D+01
   xx         0.521100D+02      0.772190D+01      0.859177D+01
   yx         0.222405D+01      0.329571D+00      0.366697D+00
   yy         0.564329D+02      0.836250D+01      0.930453D+01
   zx         0.129020D+01      0.191188D+00      0.212726D+00
   zy         0.321317D+00      0.476143D-01      0.529781D-01
   zz         0.519988D+02      0.770543D+01      0.857345D+01

 ----------------------------------------------------------------------
 Unable to Open any file for archive entry.
 1\1\GINC-SPARTAN-BM203\Freq\RM062X\def2TZVPP\C2H1F5O3S1\AKHALILOV\24-M
 ay-2025\0\\#P M062X/Def2TZVPP Symm(None) scf(xqc) pop(None) opt(CalcAl
 l,Cartesian)\\Gaussian input prepared by ASE\\0,1\C,-0.0884100498,-1.2
 883957966,-0.8911950144\C,-0.0779665296,-0.6032274645,0.4948737106\F,-
 1.2546465673,-0.8241345256,1.092792709\F,0.8963561987,-1.1364532892,1.
 2269781486\S,0.1950912285,1.2204254126,0.4553944525\O,0.3427519138,1.6
 153738357,1.8098252499\O,1.1484057764,1.4924068695,-0.5503523322\O,-1.
 2019495899,1.7037867264,-0.0748242282\F,-0.9473280766,-0.6799812989,-1
 .6960568657\F,1.1151522,-1.2644105788,-1.4301524764\F,-0.4660847915,-2
 .5505401081,-0.7365122527\H,-1.8093737127,1.8511642174,0.664984899\\Ve
 rsion=ES64L-G16RevC.01\HF=-1199.9405686\RMSD=4.232e-09\RMSF=6.653e-05\
 ZeroPoint=0.053248\Thermal=0.063481\ETot=-1199.8770876\HTot=-1199.8761
 434\GTot=-1199.9238709\Dipole=-1.0765059,-0.0294293,0.1768063\DipoleDe
 riv=1.5530907,-0.0136202,-0.001649,0.006782,1.6418756,-0.095568,0.0205
 785,0.2091143,1.3882046,1.1014512,-0.0569893,0.0025428,-0.0576159,0.82
 3888,-0.2009307,-0.0066248,-0.3783895,0.6969193,-0.7080833,-0.1802848,
 0.2190915,-0.15114,-0.4035795,0.0666188,0.2874988,0.0877404,-0.3903963
 ,-0.5193039,0.2250486,-0.1994508,0.2204763,-0.4778898,0.1439137,-0.278
 8554,0.1958137,-0.437383,2.193934,-0.1126847,-0.0368251,-0.0617181,1.8
 956553,0.179978,0.0280804,-0.0135711,2.091515,-0.5665028,-0.0241823,-0
 .0146524,-0.0464674,-0.7476182,-0.2348267,-0.139705,-0.2927464,-1.0622
 929,-0.7512521,-0.1685737,0.2241667,-0.1295369,-0.6874347,0.0670822,0.
 3007085,0.1454083,-0.775227,-1.1899065,0.4123322,-0.1667955,0.2698925,
 -0.6971188,0.0309152,-0.128897,0.0620086,-0.4421795,-0.5005057,0.16113
 07,-0.2217019,0.1390432,-0.4131285,0.0820248,-0.2702579,0.1101574,-0.5
 552135,-0.7195575,0.0158569,0.2002056,0.0325468,-0.300313,-0.0568277,0
 .2608385,-0.0747041,-0.4279914,-0.3124387,-0.1946483,0.0076878,-0.1757
 972,-0.9939855,-0.0060543,-0.0027726,-0.1008243,-0.3417046,0.4190746,-
 0.0633851,-0.0126197,-0.0464655,0.359649,0.0236747,-0.0705922,0.049992
 6,0.2557492\Polar=51.5880832,-0.0322851,56.3099523,-1.2565208,2.320779
 9,52.6436922\PG=Unknown\NImag=0\\0.61071688,-0.00457244,0.59103103,-0.
 00410025,0.01371471,0.61745587,-0.03987623,-0.00161784,0.00215913,0.54
 836937,-0.00465243,-0.09166650,-0.04175479,-0.01386965,0.47487354,-0.0
 0356805,-0.07962379,-0.16686188,0.00208684,-0.01777670,0.57478993,-0.0
 2685806,-0.00848745,0.00857873,-0.23795959,-0.04236346,0.11569784,0.34
 841135,0.00747195,0.00168163,-0.00537858,-0.05085934,-0.08285769,0.028
 75226,0.05078043,0.07740552,0.04270950,0.01471206,-0.01167149,0.103457
 15,0.02187865,-0.14300138,-0.14267324,-0.03080295,0.14420265,-0.018783
 62,0.01327187,-0.01142660,-0.18573565,0.07401995,-0.11597492,-0.074580
 83,0.01923940,-0.01420781,0.27517988,-0.00012009,0.00153379,-0.0028114
 4,0.08065095,-0.12301052,0.07283885,0.00824756,0.01268535,-0.00530625,
 -0.11272079,0.12311564,-0.03619487,0.02920193,-0.02079483,-0.10609905,
 0.06606436,-0.17660770,-0.00016619,-0.00719525,0.02238476,0.15351929,-
 0.08601327,0.18981768,0.02291622,-0.00245276,-0.00273685,-0.02689934,-
 0.01532442,0.00268317,-0.03169929,-0.02999906,0.01406408,-0.01325986,0
 .03188572,-0.01544460,0.81356824,-0.00171887,-0.01524668,-0.03351546,-
 0.02696272,-0.16692773,0.01448402,0.00411422,0.00066916,-0.00338948,0.
 00342963,-0.00610636,-0.00119862,0.05305561,0.55804263,-0.00688709,-0.
 03446244,0.02495454,0.00132514,-0.02204550,-0.05325661,0.01573981,0.02
 092053,-0.00793760,-0.00997229,0.02433513,-0.01013658,-0.20844463,0.05
 893059,1.22936328,-0.00331347,-0.00062309,0.00226748,0.00136006,0.0000
 2634,-0.00781728,0.00440561,0.00207958,-0.00202010,0.00323551,-0.00243
 969,0.00359839,-0.09994232,-0.01971776,-0.06075681,0.07921948,-0.00126
 194,-0.00331810,0.01433135,-0.00042867,0.00291174,-0.03639416,-0.00347
 657,-0.00100751,0.00248681,0.00048556,-0.00008195,0.00091237,-0.019784
 64,-0.14830679,-0.17485555,0.02197577,0.11363281,-0.00015436,0.0026021
 7,0.00424321,-0.00000885,0.01287207,-0.02185883,-0.00546412,-0.0033245
 7,0.00579714,0.00478345,-0.00296239,0.00691460,-0.05393773,-0.16697784
 ,-0.64339502,0.07651246,0.18184575,0.68299697,-0.00694849,0.00074400,0
 .00525993,-0.00462340,0.01390146,0.00760759,-0.00211902,-0.00536468,0.
 00067758,0.00555090,-0.00749651,0.00305732,-0.37323462,-0.09161119,0.3
 0984449,0.01309004,-0.00269145,-0.00954111,0.39864461,0.00352887,0.003
 42357,0.00545305,-0.01462349,0.01833899,0.01199768,-0.00945025,-0.0108
 2571,0.00437785,0.00353568,-0.00396934,0.00178448,-0.09832677,-0.12943
 276,0.09861995,0.00713650,0.02318640,-0.01300138,0.09611761,0.08991944
 ,0.00506459,0.00630809,-0.01097797,0.00689386,-0.01165194,0.00270517,0
 .00246901,0.00394278,0.00039300,-0.00257742,0.00176035,0.00024097,0.30
 876403,0.09166352,-0.41960075,0.03076695,0.00974256,-0.01346974,-0.341
 18623,-0.09807076,0.42312776,-0.00635611,0.00072142,-0.00750851,-0.019
 61603,-0.01283834,0.00165273,0.01132271,0.00178904,-0.00265043,-0.0002
 0201,0.00658343,-0.00122058,-0.23750634,0.06732924,-0.07126458,-0.0084
 4771,0.00781718,-0.01239459,-0.03271541,0.01288230,-0.00346162,0.49297
 505,-0.00170077,0.00122889,0.00623510,0.02213032,0.00763804,0.00350889
 ,-0.00017777,-0.00230734,0.00147151,0.00441177,-0.01110783,0.00435381,
 0.06763628,-0.09790332,0.02649172,-0.00606776,0.01833286,-0.00397918,-
 0.00135606,0.01239378,-0.00002815,-0.13757527,0.09383894,-0.00153255,0
 .00405047,-0.00564692,-0.00378165,0.00045281,0.00615011,-0.00154846,-0
 .00091910,0.00101102,-0.00010308,0.00022091,0.00058117,-0.04092366,0.0
 1551617,-0.11823411,-0.04026841,0.01130125,-0.01395161,0.03475475,-0.0
 0613281,0.00826830,-0.15369936,0.02723020,0.43834249,-0.16844134,0.055
 51601,-0.10600175,-0.01153954,0.01203904,-0.00862944,0.00564950,-0.001
 16818,-0.00281802,0.00008870,-0.00208936,-0.00423938,-0.00654610,0.003
 68854,-0.00191806,0.00090770,-0.00116711,0.00009002,0.00104006,-0.0015
 8807,-0.00035040,0.00366879,0.00004071,0.00186607,0.23729093,0.0584237
 9,-0.11259469,0.05993268,0.00013807,0.00636737,-0.00049685,-0.00027189
 ,0.00071150,-0.00068300,-0.00131320,0.00131233,-0.00270796,0.00357578,
 -0.00160662,0.00640018,-0.00035749,0.00118294,-0.00089172,-0.00101054,
 0.00017218,-0.00171451,-0.00123752,-0.00212878,-0.00338748,-0.10973254
 ,0.15890700,-0.10132884,0.05514404,-0.20077308,-0.03402684,0.02446946,
 -0.01712866,0.00303863,-0.00149667,-0.00051824,-0.00454872,-0.00329586
 ,-0.01331370,-0.00098885,0.00721599,-0.00489116,-0.00003166,-0.0023817
 9,-0.00005181,-0.00076855,-0.00196435,0.00230004,0.00298877,-0.0036627
 4,0.00056601,0.14807233,-0.10736532,0.21417555,-0.26970658,0.00985353,
 0.11293273,-0.02439028,-0.00002553,0.00578507,-0.00008715,0.00293338,0
 .00508752,0.00634145,-0.00150658,0.00099513,-0.00825320,-0.00429056,0.
 00469693,0.00152325,0.00198773,0.00027289,0.00408997,-0.00022051,-0.00
 345116,0.00194309,0.00110342,0.00002981,-0.07532605,0.02336442,-0.0049
 4318,0.40217913,0.00572375,-0.07860759,-0.01053231,0.01418235,0.007611
 44,-0.00221166,0.00240894,-0.00073642,-0.00526676,-0.00201542,0.000839
 09,-0.00171214,-0.00248209,0.00019949,0.00433606,0.00031780,0.00031495
 ,-0.00091871,0.00129281,-0.00376809,-0.00296849,0.00060673,-0.00015927
 ,-0.00040213,0.02811004,0.00624429,-0.00105985,0.00723622,0.08281890,0
 .10443832,-0.01060403,-0.14703589,0.03726069,0.00080569,-0.00780579,0.
 00494162,-0.00386942,-0.01064454,0.00007636,-0.00032897,-0.00016834,0.
 00194895,0.00632083,-0.00438957,-0.00070931,-0.00251404,-0.00046255,-0
 .00181131,-0.00251965,0.00262840,0.00058015,-0.00127387,0.00077408,-0.
 02195907,0.00293509,0.02214420,-0.14468615,-0.00737952,0.13997947,-0.0
 9325732,-0.06329908,-0.00061945,-0.00065822,-0.01257028,0.00225518,0.0
 0415147,0.00341659,-0.00184003,0.00211576,-0.00010210,0.00185427,-0.00
 227448,0.00228798,-0.00048538,0.00029426,-0.00101981,-0.00079422,0.000
 67271,-0.00066095,-0.00040477,0.00140058,-0.00037379,0.00027789,0.0133
 0062,0.02894397,-0.00708805,-0.03843445,-0.05524677,0.02015484,0.11290
 797,-0.06166733,-0.29730062,-0.00510024,-0.01470538,-0.05338364,0.0053
 3712,0.00201435,0.00453061,-0.00071100,-0.00163035,0.00542711,-0.00351
 670,0.00079647,0.00990257,-0.00353484,-0.00074599,-0.00469037,-0.00344
 748,-0.00084399,-0.00172748,0.00068822,0.00233379,-0.00205132,0.000390
 29,0.01657931,-0.05837359,0.03442045,-0.04001635,-0.01486153,0.0180423
 3,0.09874224,0.41249618,0.00133702,-0.00038974,-0.08262000,-0.00678559
 ,-0.03216933,0.00267650,-0.00165983,-0.00151100,0.00106886,0.00083036,
 0.00009378,0.00176853,0.00072870,0.00700587,-0.00774946,-0.00059954,-0
 .00372578,-0.00097856,-0.00125192,-0.00098602,0.00255632,0.00180693,-0
 .00145161,0.00145069,-0.00401780,0.04792121,-0.00253383,0.02331850,0.0
 2800736,0.00496948,-0.01338672,-0.04291922,0.07933853,-0.00009188,0.00
 094581,0.00119540,0.00156884,0.00165731,-0.00177872,-0.00063670,-0.000
 31910,0.00021380,0.00004978,-0.00089254,0.00034028,-0.03686892,0.01039
 590,0.02812249,0.00766761,-0.00243605,0.00063615,-0.00344736,0.0016691
 0,-0.00252683,-0.20646661,0.05192893,0.20492865,-0.00009327,-0.0005228
 6,-0.00037505,0.00012083,-0.00013436,-0.00023509,-0.00021891,-0.000856
 78,-0.00032010,0.23841658,0.00054552,-0.00016473,-0.00057408,0.0059653
 8,0.00010496,-0.00041565,-0.00333809,0.00005089,0.00123256,-0.00071411
 ,-0.00063732,0.00002698,0.01141987,-0.00328360,-0.00513582,-0.00158419
 ,-0.00215698,-0.00181671,-0.00168146,0.00228903,0.00032833,0.05158799,
 -0.01777463,-0.04832058,-0.00022839,-0.00019393,-0.00002337,-0.0004191
 6,0.00010472,0.00038555,-0.00011800,0.00003208,0.00012445,-0.06143536,
 0.02162951,0.00021659,-0.00065348,-0.00027155,-0.00248084,-0.00114477,
 0.00019913,0.00104620,0.00088198,-0.00108418,-0.00039861,0.00146915,-0
 .00068655,-0.00571260,0.00394440,0.01527303,-0.00094218,-0.00074878,-0
 .00578380,-0.00664253,0.00044197,0.00182849,0.24517108,-0.05889568,-0.
 31931123,-0.00009448,0.00005768,0.00002468,-0.00003808,0.00010815,0.00
 001105,0.00007645,0.00035106,0.00005295,-0.23020099,0.05418833,0.30974
 797\\-0.00000196,0.00002640,0.00000255,0.00002031,0.00005705,-0.000065
 11,-0.00009245,-0.00000666,0.00002842,0.00007026,-0.00003112,0.0000339
 3,-0.00000084,-0.00004622,0.00001076,0.00000903,0.00001218,0.00006610,
 0.00004381,0.00001370,-0.00004627,0.00011572,-0.00005795,-0.00019584,-
 0.00000322,0.00000638,-0.00000450,0.00003035,0.00001160,-0.00001464,-0
 .00001240,-0.00002598,0.00000477,-0.00017861,0.00004062,0.00017983\\\@
 The archive entry for this job was punched.


      TO SUSPECT YOUR OWN MORTALITY IS TO KNOW THE BEGINNING OF TERROR.
      TO LEARN IRREFUTABLY THAT YOU ARE MORTAL IS TO KNOW THE END
      OF TERROR.

                                                  -- JESSICA
                                                     CHILDREN OF DUNE
                                                     BY FRANK HERBERT
 Job cpu time:       0 days  1 hours 18 minutes 16.5 seconds.
 Elapsed time:       0 days  0 hours 10 minutes 34.9 seconds.
 File lengths (MBytes):  RWF=    173 Int=      0 D2E=      0 Chk=     11 Scr=      1
 Normal termination of Gaussian 16 at Sat May 24 09:46:39 2025.
done
