 Entering Gaussian System, Link 0=g16
 Initial command:
 /apps/easybuild-2022/easybuild/software/Compiler/NVHPC/22.11-CUDA-11.7.0/Gaussian/g16c01-CUDA-11.7.0/g16/l1.exe "/tmp/Gau-163391.inp" -scrdir="/tmp/"
 Entering Link 1 = /apps/easybuild-2022/easybuild/software/Compiler/NVHPC/22.11-CUDA-11.7.0/Gaussian/g16c01-CUDA-11.7.0/g16/l1.exe PID=    163392.
  
 Copyright (c) 1988-2019, Gaussian, Inc.  All Rights Reserved.
  
 This is part of the Gaussian(R) 16 program.  It is based on
 the Gaussian(R) 09 system (copyright 2009, Gaussian, Inc.),
 the Gaussian(R) 03 system (copyright 2003, Gaussian, Inc.),
 the Gaussian(R) 98 system (copyright 1998, Gaussian, Inc.),
 the Gaussian(R) 94 system (copyright 1995, Gaussian, Inc.),
 the Gaussian 92(TM) system (copyright 1992, Gaussian, Inc.),
 the Gaussian 90(TM) system (copyright 1990, Gaussian, Inc.),
 the Gaussian 88(TM) system (copyright 1988, Gaussian, Inc.),
 the Gaussian 86(TM) system (copyright 1986, Carnegie Mellon
 University), and the Gaussian 82(TM) system (copyright 1983,
 Carnegie Mellon University). Gaussian is a federally registered
 trademark of Gaussian, Inc.
  
 This software contains proprietary and confidential information,
 including trade secrets, belonging to Gaussian, Inc.
  
 This software is provided under written license and may be
 used, copied, transmitted, or stored only in accord with that
 written license.
  
 The following legend is applicable only to US Government
 contracts under FAR:
  
                    RESTRICTED RIGHTS LEGEND
  
 Use, reproduction and disclosure by the US Government is
 subject to restrictions as set forth in subparagraphs (a)
 and (c) of the Commercial Computer Software - Restricted
 Rights clause in FAR 52.227-19.
  
 Gaussian, Inc.
 340 Quinnipiac St., Bldg. 40, Wallingford CT 06492
  
  
 ---------------------------------------------------------------
 Warning -- This program may not be used in any manner that
 competes with the business of Gaussian, Inc. or will provide
 assistance to any competitor of Gaussian, Inc.  The licensee
 of this program is prohibited from giving any competitor of
 Gaussian, Inc. access to this program.  By using this program,
 the user acknowledges that Gaussian, Inc. is engaged in the
 business of creating and licensing software in the field of
 computational chemistry and represents and warrants to the
 licensee that it is not a competitor of Gaussian, Inc. and that
 it will not use this program in any manner prohibited above.
 ---------------------------------------------------------------
  

 Cite this work as:
 Gaussian 16, Revision C.01,
 M. J. Frisch, G. W. Trucks, H. B. Schlegel, G. E. Scuseria, 
 M. A. Robb, J. R. Cheeseman, G. Scalmani, V. Barone, 
 G. A. Petersson, H. Nakatsuji, X. Li, M. Caricato, A. V. Marenich, 
 J. Bloino, B. G. Janesko, R. Gomperts, B. Mennucci, H. P. Hratchian, 
 J. V. Ortiz, A. F. Izmaylov, J. L. Sonnenberg, D. Williams-Young, 
 F. Ding, F. Lipparini, F. Egidi, J. Goings, B. Peng, A. Petrone, 
 T. Henderson, D. Ranasinghe, V. G. Zakrzewski, J. Gao, N. Rega, 
 G. Zheng, W. Liang, M. Hada, M. Ehara, K. Toyota, R. Fukuda, 
 J. Hasegawa, M. Ishida, T. Nakajima, Y. Honda, O. Kitao, H. Nakai, 
 T. Vreven, K. Throssell, J. A. Montgomery, Jr., J. E. Peralta, 
 F. Ogliaro, M. J. Bearpark, J. J. Heyd, E. N. Brothers, K. N. Kudin, 
 V. N. Staroverov, T. A. Keith, R. Kobayashi, J. Normand, 
 K. Raghavachari, A. P. Rendell, J. C. Burant, S. S. Iyengar, 
 J. Tomasi, M. Cossi, J. M. Millam, M. Klene, C. Adamo, R. Cammi, 
 J. W. Ochterski, R. L. Martin, K. Morokuma, O. Farkas, 
 J. B. Foresman, and D. J. Fox, Gaussian, Inc., Wallingford CT, 2019.
 
 ******************************************
 Gaussian 16:  ES64L-G16RevC.01  3-Jul-2019
                24-May-2025 
 ******************************************
 %mem=28GB
 %chk=2003846667223680600001_r12_insertion_R_5_2_1_IRC_R_prod
 %nprocshared=8
 Will use up to    8 processors via shared memory.
 -----------------------------------------------------------------
 #P M062X/Def2TZVPP Symm(None) scf(xqc) pop(None) freq opt(CalcFC)
 -----------------------------------------------------------------
 1/10=4,18=20,19=15,26=3,38=1/1,3;
 2/9=110,12=2,15=3,17=6,18=5,40=1/2;
 3/5=44,7=202,11=2,25=1,30=1,71=2,74=-55,140=1/1,2,3;
 4//1;
 5/5=2,8=3,13=1,38=5/2,8;
 8/6=4,10=90,11=11/1;
 11/6=1,8=1,9=11,15=111,16=1,31=1/1,2,10;
 10/6=1,13=1,31=1/2;
 7/10=1,25=1,30=1/1,2,3,16;
 1/10=4,18=20,19=15,26=3/3(2);
 2/9=110,15=3/2;
 99//99;
 2/9=110,15=3/2;
 3/5=44,7=202,11=2,25=1,30=1,71=1,74=-55/1,2,3;
 4/5=5,16=3,69=1/1;
 5/5=2,8=3,13=1,38=5/2,8;
 7/30=1/1,2,3,16;
 1/18=20,19=15,26=3/3(-5);
 2/9=110,15=3/2;
 99/9=1/99;
 Leave Link    1 at Sat May 24 05:01:26 2025, MaxMem=  3758096384 cpu:               0.1 elap:               0.0
 (Enter /apps/easybuild-2022/easybuild/software/Compiler/NVHPC/22.11-CUDA-11.7.0/Gaussian/g16c01-CUDA-11.7.0/g16/l101.exe)
 ------------------------------
 Gaussian input prepared by ASE
 ------------------------------
 Symbolic Z-matrix:
 Charge =  0 Multiplicity = 1
 C                    -0.80536  -1.08331   0.12761 
 C                    -0.54616   0.7723   -0.23874 
 F                    -0.89107   1.14061  -1.46726 
 F                    -1.16113   1.61966   0.58072 
 S                     1.12213   0.41869   0.07418 
 O                     1.14513   0.08627   1.45201 
 O                     1.50576  -0.49416  -0.94872 
 O                     1.85608   1.7752   -0.16263 
 F                    -1.26171  -1.46551  -1.03799 
 F                     0.01333  -2.08981   0.52134 
 F                    -1.66914  -0.95152   1.09893 
 H                     2.64899   1.64442  -0.70095 
 
 Add virtual bond connecting atoms C2         and C1         Dist= 3.61D+00.
 ITRead=  0  0  0  0  0  0  0  0  0  0  0  0
 MicOpt= -1 -1 -1 -1 -1 -1 -1 -1 -1 -1 -1 -1
 NAtoms=     12 NQM=       12 NQMF=       0 NMMI=      0 NMMIF=      0
                NMic=       0 NMicF=      0.
                    Isotopes and Nuclear Properties:
 (Nuclear quadrupole moments (NQMom) in fm**2, nuclear magnetic moments (NMagM)
  in nuclear magnetons)

  Atom         1           2           3           4           5           6           7           8           9          10
 IAtWgt=          12          12          19          19          32          16          16          16          19          19
 AtmWgt=  12.0000000  12.0000000  18.9984032  18.9984032  31.9720718  15.9949146  15.9949146  15.9949146  18.9984032  18.9984032
 NucSpn=           0           0           1           1           0           0           0           0           1           1
 AtZEff=  -0.0000000  -0.0000000  -0.0000000  -0.0000000  -0.0000000  -0.0000000  -0.0000000  -0.0000000  -0.0000000  -0.0000000
 NQMom=    0.0000000   0.0000000   0.0000000   0.0000000   0.0000000   0.0000000   0.0000000   0.0000000   0.0000000   0.0000000
 NMagM=    0.0000000   0.0000000   2.6288670   2.6288670   0.0000000   0.0000000   0.0000000   0.0000000   2.6288670   2.6288670
 AtZNuc=   6.0000000   6.0000000   9.0000000   9.0000000  16.0000000   8.0000000   8.0000000   8.0000000   9.0000000   9.0000000

  Atom        11          12
 IAtWgt=          19           1
 AtmWgt=  18.9984032   1.0078250
 NucSpn=           1           1
 AtZEff=  -0.0000000  -0.0000000
 NQMom=    0.0000000   0.0000000
 NMagM=    2.6288670   2.7928460
 AtZNuc=   9.0000000   1.0000000
 Leave Link  101 at Sat May 24 05:01:26 2025, MaxMem=  3758096384 cpu:               0.3 elap:               0.2
 (Enter /apps/easybuild-2022/easybuild/software/Compiler/NVHPC/22.11-CUDA-11.7.0/Gaussian/g16c01-CUDA-11.7.0/g16/l103.exe)

 GradGradGradGradGradGradGradGradGradGradGradGradGradGradGradGradGradGrad
 Berny optimization.
 Initialization pass.
                           ----------------------------
                           !    Initial Parameters    !
                           ! (Angstroms and Degrees)  !
 --------------------------                            --------------------------
 ! Name  Definition              Value          Derivative Info.                !
 --------------------------------------------------------------------------------
 ! R1    R(1,2)                  1.9091         calculate D2E/DX2 analytically  !
 ! R2    R(1,9)                  1.3088         calculate D2E/DX2 analytically  !
 ! R3    R(1,10)                 1.3558         calculate D2E/DX2 analytically  !
 ! R4    R(1,11)                 1.3065         calculate D2E/DX2 analytically  !
 ! R5    R(2,3)                  1.3281         calculate D2E/DX2 analytically  !
 ! R6    R(2,4)                  1.3296         calculate D2E/DX2 analytically  !
 ! R7    R(2,5)                  1.7338         calculate D2E/DX2 analytically  !
 ! R8    R(5,6)                  1.4175         calculate D2E/DX2 analytically  !
 ! R9    R(5,7)                  1.4237         calculate D2E/DX2 analytically  !
 ! R10   R(5,8)                  1.5604         calculate D2E/DX2 analytically  !
 ! R11   R(8,12)                 0.9673         calculate D2E/DX2 analytically  !
 ! A1    A(2,1,9)               99.2231         calculate D2E/DX2 analytically  !
 ! A2    A(2,1,10)             134.0497         calculate D2E/DX2 analytically  !
 ! A3    A(2,1,11)              97.7231         calculate D2E/DX2 analytically  !
 ! A4    A(9,1,10)             104.6184         calculate D2E/DX2 analytically  !
 ! A5    A(9,1,11)             117.4545         calculate D2E/DX2 analytically  !
 ! A6    A(10,1,11)            104.963          calculate D2E/DX2 analytically  !
 ! A7    A(1,2,3)              114.3175         calculate D2E/DX2 analytically  !
 ! A8    A(1,2,4)              116.0011         calculate D2E/DX2 analytically  !
 ! A9    A(1,2,5)               84.1325         calculate D2E/DX2 analytically  !
 ! A10   A(3,2,4)              105.8584         calculate D2E/DX2 analytically  !
 ! A11   A(3,2,5)              118.2546         calculate D2E/DX2 analytically  !
 ! A12   A(4,2,5)              117.6327         calculate D2E/DX2 analytically  !
 ! A13   A(2,5,6)              103.8198         calculate D2E/DX2 analytically  !
 ! A14   A(2,5,7)              105.0927         calculate D2E/DX2 analytically  !
 ! A15   A(2,5,8)              104.3527         calculate D2E/DX2 analytically  !
 ! A16   A(6,5,7)              122.9313         calculate D2E/DX2 analytically  !
 ! A17   A(6,5,8)              110.1046         calculate D2E/DX2 analytically  !
 ! A18   A(7,5,8)              108.7612         calculate D2E/DX2 analytically  !
 ! A19   A(5,8,12)             110.6397         calculate D2E/DX2 analytically  !
 ! D1    D(9,1,2,3)              0.9319         calculate D2E/DX2 analytically  !
 ! D2    D(9,1,2,4)            124.5768         calculate D2E/DX2 analytically  !
 ! D3    D(9,1,2,5)           -117.4781         calculate D2E/DX2 analytically  !
 ! D4    D(10,1,2,3)           121.784          calculate D2E/DX2 analytically  !
 ! D5    D(10,1,2,4)          -114.571          calculate D2E/DX2 analytically  !
 ! D6    D(10,1,2,5)             3.374          calculate D2E/DX2 analytically  !
 ! D7    D(11,1,2,3)          -118.6311         calculate D2E/DX2 analytically  !
 ! D8    D(11,1,2,4)             5.0139         calculate D2E/DX2 analytically  !
 ! D9    D(11,1,2,5)           122.9589         calculate D2E/DX2 analytically  !
 ! D10   D(1,2,5,6)            -66.3284         calculate D2E/DX2 analytically  !
 ! D11   D(1,2,5,7)             63.9258         calculate D2E/DX2 analytically  !
 ! D12   D(1,2,5,8)            178.3099         calculate D2E/DX2 analytically  !
 ! D13   D(3,2,5,6)            179.1695         calculate D2E/DX2 analytically  !
 ! D14   D(3,2,5,7)            -50.5763         calculate D2E/DX2 analytically  !
 ! D15   D(3,2,5,8)             63.8079         calculate D2E/DX2 analytically  !
 ! D16   D(4,2,5,6)             50.0077         calculate D2E/DX2 analytically  !
 ! D17   D(4,2,5,7)           -179.7381         calculate D2E/DX2 analytically  !
 ! D18   D(4,2,5,8)            -65.354          calculate D2E/DX2 analytically  !
 ! D19   D(2,5,8,12)          -133.8887         calculate D2E/DX2 analytically  !
 ! D20   D(6,5,8,12)           115.2428         calculate D2E/DX2 analytically  !
 ! D21   D(7,5,8,12)           -22.1258         calculate D2E/DX2 analytically  !
 --------------------------------------------------------------------------------
 Trust Radius=3.00D-01 FncErr=1.00D-07 GrdErr=1.00D-06 EigMax=2.50D+02 EigMin=1.00D-04
 Number of steps in this run=     61 maximum allowed number of steps=    100.
 GradGradGradGradGradGradGradGradGradGradGradGradGradGradGradGradGradGrad

 Leave Link  103 at Sat May 24 05:01:26 2025, MaxMem=  3758096384 cpu:               0.1 elap:               0.0
 (Enter /apps/easybuild-2022/easybuild/software/Compiler/NVHPC/22.11-CUDA-11.7.0/Gaussian/g16c01-CUDA-11.7.0/g16/l202.exe)
                          Input orientation:                          
 ---------------------------------------------------------------------
 Center     Atomic      Atomic             Coordinates (Angstroms)
 Number     Number       Type             X           Y           Z
 ---------------------------------------------------------------------
      1          6           0       -0.805360   -1.083308    0.127611
      2          6           0       -0.546155    0.772302   -0.238739
      3          9           0       -0.891066    1.140611   -1.467263
      4          9           0       -1.161131    1.619658    0.580721
      5         16           0        1.122125    0.418689    0.074184
      6          8           0        1.145132    0.086269    1.452013
      7          8           0        1.505758   -0.494159   -0.948716
      8          8           0        1.856083    1.775204   -0.162628
      9          9           0       -1.261707   -1.465507   -1.037992
     10          9           0        0.013330   -2.089810    0.521343
     11          9           0       -1.669135   -0.951519    1.098930
     12          1           0        2.648992    1.644415   -0.700945
 ---------------------------------------------------------------------
                    Distance matrix (angstroms):
                    1          2          3          4          5
     1  C    0.000000
     2  C    1.909107   0.000000
     3  F    2.738026   1.328114   0.000000
     4  F    2.763676   1.329557   2.120533   0.000000
     5  S    2.444187   1.733817   2.636317   2.629100   0.000000
     6  O    2.631800   2.487918   3.712130   2.903322   1.417549
     7  O    2.616647   2.513630   2.947224   3.730911   1.423654
     8  O    3.916454   2.604295   3.106704   3.111325   1.560419
     9  F    1.308801   2.481655   2.667114   3.485483   3.235705
    10  F    1.355848   3.013708   3.899757   3.891406   2.778839
    11  F    1.306498   2.453977   3.401139   2.671621   3.273944
    12  H    4.478786   3.344126   3.656921   4.019990   2.105838
                    6          7          8          9         10
     6  O    0.000000
     7  O    2.496086   0.000000
     8  O    2.442339   2.427070   0.000000
     9  F    3.794866   2.934340   4.581385   0.000000
    10  F    2.623441   2.633347   4.336114   2.108791   0.000000
    11  F    3.020227   3.805519   4.631815   2.235311   2.111872
    12  H    3.053628   2.437596   0.967262   5.007872   4.731294
                   11         12
    11  F    0.000000
    12  H    5.350200   0.000000
 Symmetry turned off by external request.
 Stoichiometry    C2HF5O3S
 Rotational constants (GHZ):           1.3843226           0.9798777           0.8422843
 Leave Link  202 at Sat May 24 05:01:26 2025, MaxMem=  3758096384 cpu:               0.1 elap:               0.0
 (Enter /apps/easybuild-2022/easybuild/software/Compiler/NVHPC/22.11-CUDA-11.7.0/Gaussian/g16c01-CUDA-11.7.0/g16/l301.exe)
 Standard basis: def2TZVPP (5D, 7F)
 Ernie: Thresh=  0.10000D-02 Tol=  0.10000D-05 Strict=F.
   366 basis functions,   596 primitive gaussians,   423 cartesian basis functions
    49 alpha electrons       49 beta electrons
       nuclear repulsion energy       938.0322094168 Hartrees.
 IExCor= 4336 DFT=T Ex+Corr=M062X ExCW=0 ScaHFX=  0.540000
 ScaDFX=  1.000000  1.000000  1.000000  1.000000 ScalE2=  1.000000  1.000000
 IRadAn=      5 IRanWt=     -1 IRanGd=            0 ICorTp=0 IEmpDi=  4
 NAtoms=   12 NActive=   12 NUniq=   12 SFac= 1.00D+00 NAtFMM=   60 NAOKFM=F Big=F
 Integral buffers will be    131072 words long.
 Raffenetti 2 integral format.
 Two-electron integral symmetry is turned off.
 Leave Link  301 at Sat May 24 05:01:26 2025, MaxMem=  3758096384 cpu:               0.1 elap:               0.0
 (Enter /apps/easybuild-2022/easybuild/software/Compiler/NVHPC/22.11-CUDA-11.7.0/Gaussian/g16c01-CUDA-11.7.0/g16/l302.exe)
 NPDir=0 NMtPBC=     1 NCelOv=     1 NCel=       1 NClECP=     1 NCelD=      1
         NCelK=      1 NCelE2=     1 NClLst=     1 CellRange=     0.0.
 One-electron integrals computed using PRISM.
   1 Symmetry operations used in ECPInt.
 ECPInt:  NShTT=    8515 NPrTT=   27988 LenC2=    8030 LenP2D=   19544.
 LDataN:  DoStor=T MaxTD1= 6 Len=  172
 NBasis=   366 RedAO= T EigKep=  6.25D-04  NBF=   366
 NBsUse=   366 1.00D-06 EigRej= -1.00D+00 NBFU=   366
 Precomputing XC quadrature grid using
 IXCGrd= 4 IRadAn=           5 IRanWt=          -1 IRanGd=           0 AccXCQ= 0.00D+00.
 Generated NRdTot=       0 NPtTot=           0 NUsed=           0 NTot=          32
 NSgBfM=   420   419   420   420   420 MxSgAt=    12 MxSgA2=    12.
 Leave Link  302 at Sat May 24 05:01:27 2025, MaxMem=  3758096384 cpu:               0.7 elap:               0.2
 (Enter /apps/easybuild-2022/easybuild/software/Compiler/NVHPC/22.11-CUDA-11.7.0/Gaussian/g16c01-CUDA-11.7.0/g16/l303.exe)
 DipDrv:  MaxL=1.
 Leave Link  303 at Sat May 24 05:01:27 2025, MaxMem=  3758096384 cpu:               0.1 elap:               0.0
 (Enter /apps/easybuild-2022/easybuild/software/Compiler/NVHPC/22.11-CUDA-11.7.0/Gaussian/g16c01-CUDA-11.7.0/g16/l401.exe)
 ExpMin= 9.52D-02 ExpMax= 6.07D+04 ExpMxC= 2.07D+03 IAcc=3 IRadAn=         5 AccDes= 0.00D+00
 Harris functional with IExCor= 1009 and IRadAn=       5 diagonalized for initial guess.
 HarFok:  IExCor= 1009 AccDes= 0.00D+00 IRadAn=         5 IDoV= 1 UseB2=F ITyADJ=14
 ICtDFT=  3500011 ScaDFX=  1.000000  1.000000  1.000000  1.000000
 FoFCou: FMM=F IPFlag=           0 FMFlag=      100000 FMFlg1=           0
         NFxFlg=           0 DoJE=T BraDBF=F KetDBF=T FulRan=T
         wScrn=  0.000000 ICntrl=       500 IOpCl=  0 I1Cent=   200000004 NGrid=           0
         NMat0=    1 NMatS0=      1 NMatT0=    0 NMatD0=    1 NMtDS0=    0 NMtDT0=    0
 Symmetry not used in FoFCou.
 Harris En= -1199.26513063588    
 JPrj=0 DoOrth=F DoCkMO=F.
 Leave Link  401 at Sat May 24 05:01:27 2025, MaxMem=  3758096384 cpu:               4.5 elap:               0.7
 (Enter /apps/easybuild-2022/easybuild/software/Compiler/NVHPC/22.11-CUDA-11.7.0/Gaussian/g16c01-CUDA-11.7.0/g16/l502.exe)
 Keep R1 ints in memory in canonical form, NReq=2293446996.
 FoFCou: FMM=F IPFlag=           0 FMFlag=           0 FMFlg1=           0
         NFxFlg=           0 DoJE=F BraDBF=F KetDBF=F FulRan=T
         wScrn=  0.000000 ICntrl=       600 IOpCl=  0 I1Cent=           0 NGrid=           0
         NMat0=    1 NMatS0=  67161 NMatT0=    0 NMatD0=    1 NMtDS0=    0 NMtDT0=    0
 Symmetry not used in FoFCou.
 Two-electron integral symmetry not used.
 Closed shell SCF:
 Using DIIS extrapolation, IDIIS=  1040.
 NGot=  3758096384 LenX=  1502398672 LenY=  1502219302
 Requested convergence on RMS density matrix=1.00D-08 within  32 cycles.
 Requested convergence on MAX density matrix=1.00D-06.
 Requested convergence on             energy=1.00D-06.
 No special actions if energy rises.
 Integral accuracy reduced to 1.0D-05 until final iterations.

 Cycle   1  Pass 0  IDiag  1:
 E= -1199.53575933745    
 DIIS: error= 2.65D-02 at cycle   1 NSaved=   1.
 NSaved= 1 IEnMin= 1 EnMin= -1199.53575933745     IErMin= 1 ErrMin= 2.65D-02
 ErrMax= 2.65D-02  0.00D+00 EMaxC= 1.00D-01 BMatC= 6.15D-01 BMatP= 6.15D-01
 IDIUse=3 WtCom= 7.35D-01 WtEn= 2.65D-01
 Coeff-Com:  0.100D+01
 Coeff-En:   0.100D+01
 Coeff:      0.100D+01
 Gap=     0.382 Goal=   None    Shift=    0.000
 GapD=    0.382 DampG=1.000 DampE=0.500 DampFc=0.5000 IDamp=-1.
 Damping current iteration by 5.00D-01
 RMSDP=2.37D-03 MaxDP=2.37D-01              OVMax= 2.19D-01

 Cycle   2  Pass 0  IDiag  1:
 E= -1199.64132423892     Delta-E=       -0.105564901467 Rises=F Damp=T
 DIIS: error= 7.93D-03 at cycle   2 NSaved=   2.
 NSaved= 2 IEnMin= 2 EnMin= -1199.64132423892     IErMin= 2 ErrMin= 7.93D-03
 ErrMax= 7.93D-03  0.00D+00 EMaxC= 1.00D-01 BMatC= 5.94D-02 BMatP= 6.15D-01
 IDIUse=3 WtCom= 9.21D-01 WtEn= 7.93D-02
 Coeff-Com:  0.109D+00 0.891D+00
 Coeff-En:   0.288D+00 0.712D+00
 Coeff:      0.123D+00 0.877D+00
 Gap=     0.431 Goal=   None    Shift=    0.000
 RMSDP=5.92D-04 MaxDP=5.24D-02 DE=-1.06D-01 OVMax= 1.50D-01

 Cycle   3  Pass 0  IDiag  1:
 E= -1199.84250074444     Delta-E=       -0.201176505519 Rises=F Damp=F
 DIIS: error= 3.99D-03 at cycle   3 NSaved=   3.
 NSaved= 3 IEnMin= 3 EnMin= -1199.84250074444     IErMin= 3 ErrMin= 3.99D-03
 ErrMax= 3.99D-03  0.00D+00 EMaxC= 1.00D-01 BMatC= 1.26D-02 BMatP= 5.94D-02
 IDIUse=3 WtCom= 9.60D-01 WtEn= 3.99D-02
 Coeff-Com: -0.510D-01 0.252D+00 0.799D+00
 Coeff-En:   0.000D+00 0.000D+00 0.100D+01
 Coeff:     -0.490D-01 0.242D+00 0.807D+00
 Gap=     0.390 Goal=   None    Shift=    0.000
 RMSDP=2.84D-04 MaxDP=2.18D-02 DE=-2.01D-01 OVMax= 2.56D-02

 Cycle   4  Pass 0  IDiag  1:
 E= -1199.84905374438     Delta-E=       -0.006552999940 Rises=F Damp=F
 DIIS: error= 1.66D-03 at cycle   4 NSaved=   4.
 NSaved= 4 IEnMin= 4 EnMin= -1199.84905374438     IErMin= 4 ErrMin= 1.66D-03
 ErrMax= 1.66D-03  0.00D+00 EMaxC= 1.00D-01 BMatC= 3.78D-03 BMatP= 1.26D-02
 IDIUse=3 WtCom= 9.83D-01 WtEn= 1.66D-02
 Coeff-Com: -0.331D-01 0.725D-01 0.430D+00 0.531D+00
 Coeff-En:   0.000D+00 0.000D+00 0.190D+00 0.810D+00
 Coeff:     -0.325D-01 0.713D-01 0.426D+00 0.535D+00
 Gap=     0.386 Goal=   None    Shift=    0.000
 RMSDP=9.73D-05 MaxDP=5.70D-03 DE=-6.55D-03 OVMax= 1.21D-02

 Cycle   5  Pass 0  IDiag  1:
 E= -1199.85160142500     Delta-E=       -0.002547680618 Rises=F Damp=F
 DIIS: error= 2.80D-04 at cycle   5 NSaved=   5.
 NSaved= 5 IEnMin= 5 EnMin= -1199.85160142500     IErMin= 5 ErrMin= 2.80D-04
 ErrMax= 2.80D-04  0.00D+00 EMaxC= 1.00D-01 BMatC= 1.02D-04 BMatP= 3.78D-03
 IDIUse=3 WtCom= 9.97D-01 WtEn= 2.80D-03
 Coeff-Com: -0.838D-02 0.122D-01 0.103D+00 0.202D+00 0.691D+00
 Coeff-En:   0.000D+00 0.000D+00 0.000D+00 0.000D+00 0.100D+01
 Coeff:     -0.835D-02 0.122D-01 0.102D+00 0.202D+00 0.692D+00
 Gap=     0.386 Goal=   None    Shift=    0.000
 RMSDP=2.06D-05 MaxDP=7.38D-04 DE=-2.55D-03 OVMax= 1.74D-03

 Cycle   6  Pass 0  IDiag  1:
 E= -1199.85167307648     Delta-E=       -0.000071651487 Rises=F Damp=F
 DIIS: error= 1.23D-04 at cycle   6 NSaved=   6.
 NSaved= 6 IEnMin= 6 EnMin= -1199.85167307648     IErMin= 6 ErrMin= 1.23D-04
 ErrMax= 1.23D-04  0.00D+00 EMaxC= 1.00D-01 BMatC= 8.34D-06 BMatP= 1.02D-04
 IDIUse=3 WtCom= 9.99D-01 WtEn= 1.23D-03
 Coeff-Com: -0.131D-02 0.295D-03 0.736D-02 0.387D-01 0.264D+00 0.691D+00
 Coeff-En:   0.000D+00 0.000D+00 0.000D+00 0.000D+00 0.000D+00 0.100D+01
 Coeff:     -0.131D-02 0.294D-03 0.735D-02 0.387D-01 0.263D+00 0.692D+00
 Gap=     0.386 Goal=   None    Shift=    0.000
 RMSDP=6.48D-06 MaxDP=2.37D-04 DE=-7.17D-05 OVMax= 4.92D-04

 Initial convergence to 1.0D-05 achieved.  Increase integral accuracy.
 Cycle   7  Pass 1  IDiag  1:
 E= -1199.85168787334     Delta-E=       -0.000014796859 Rises=F Damp=F
 DIIS: error= 3.53D-05 at cycle   1 NSaved=   1.
 NSaved= 1 IEnMin= 1 EnMin= -1199.85168787334     IErMin= 1 ErrMin= 3.53D-05
 ErrMax= 3.53D-05  0.00D+00 EMaxC= 1.00D-01 BMatC= 1.78D-06 BMatP= 1.78D-06
 IDIUse=1 WtCom= 1.00D+00 WtEn= 0.00D+00
 Coeff-Com:  0.100D+01
 Coeff:      0.100D+01
 Gap=     0.386 Goal=   None    Shift=    0.000
 RMSDP=6.48D-06 MaxDP=2.37D-04 DE=-1.48D-05 OVMax= 2.92D-04

 Cycle   8  Pass 1  IDiag  1:
 E= -1199.85168815408     Delta-E=       -0.000000280736 Rises=F Damp=F
 DIIS: error= 3.56D-05 at cycle   2 NSaved=   2.
 NSaved= 2 IEnMin= 2 EnMin= -1199.85168815408     IErMin= 1 ErrMin= 3.53D-05
 ErrMax= 3.56D-05  0.00D+00 EMaxC= 1.00D-01 BMatC= 1.62D-06 BMatP= 1.78D-06
 IDIUse=1 WtCom= 1.00D+00 WtEn= 0.00D+00
 Coeff-Com:  0.486D+00 0.514D+00
 Coeff:      0.486D+00 0.514D+00
 Gap=     0.386 Goal=   None    Shift=    0.000
 RMSDP=2.01D-06 MaxDP=1.57D-04 DE=-2.81D-07 OVMax= 2.34D-04

 Cycle   9  Pass 1  IDiag  1:
 E= -1199.85168910761     Delta-E=       -0.000000953532 Rises=F Damp=F
 DIIS: error= 8.04D-06 at cycle   3 NSaved=   3.
 NSaved= 3 IEnMin= 3 EnMin= -1199.85168910761     IErMin= 3 ErrMin= 8.04D-06
 ErrMax= 8.04D-06  0.00D+00 EMaxC= 1.00D-01 BMatC= 7.78D-08 BMatP= 1.62D-06
 IDIUse=1 WtCom= 1.00D+00 WtEn= 0.00D+00
 Coeff-Com:  0.532D-02 0.166D+00 0.829D+00
 Coeff:      0.532D-02 0.166D+00 0.829D+00
 Gap=     0.387 Goal=   None    Shift=    0.000
 RMSDP=6.56D-07 MaxDP=3.57D-05 DE=-9.54D-07 OVMax= 6.01D-05

 Cycle  10  Pass 1  IDiag  1:
 E= -1199.85168915254     Delta-E=       -0.000000044932 Rises=F Damp=F
 DIIS: error= 3.82D-06 at cycle   4 NSaved=   4.
 NSaved= 4 IEnMin= 4 EnMin= -1199.85168915254     IErMin= 4 ErrMin= 3.82D-06
 ErrMax= 3.82D-06  0.00D+00 EMaxC= 1.00D-01 BMatC= 1.88D-08 BMatP= 7.78D-08
 IDIUse=1 WtCom= 1.00D+00 WtEn= 0.00D+00
 Coeff-Com: -0.299D-01 0.591D-01 0.456D+00 0.515D+00
 Coeff:     -0.299D-01 0.591D-01 0.456D+00 0.515D+00
 Gap=     0.387 Goal=   None    Shift=    0.000
 RMSDP=2.17D-07 MaxDP=1.13D-05 DE=-4.49D-08 OVMax= 2.28D-05

 Cycle  11  Pass 1  IDiag  1:
 E= -1199.85168916489     Delta-E=       -0.000000012350 Rises=F Damp=F
 DIIS: error= 6.15D-07 at cycle   5 NSaved=   5.
 NSaved= 5 IEnMin= 5 EnMin= -1199.85168916489     IErMin= 5 ErrMin= 6.15D-07
 ErrMax= 6.15D-07  0.00D+00 EMaxC= 1.00D-01 BMatC= 4.98D-10 BMatP= 1.88D-08
 IDIUse=1 WtCom= 1.00D+00 WtEn= 0.00D+00
 Coeff-Com: -0.832D-02-0.183D-02 0.157D-01 0.117D+00 0.878D+00
 Coeff:     -0.832D-02-0.183D-02 0.157D-01 0.117D+00 0.878D+00
 Gap=     0.387 Goal=   None    Shift=    0.000
 RMSDP=7.61D-08 MaxDP=2.34D-06 DE=-1.23D-08 OVMax= 7.30D-06

 Cycle  12  Pass 1  IDiag  1:
 E= -1199.85168916557     Delta-E=       -0.000000000675 Rises=F Damp=F
 DIIS: error= 2.79D-07 at cycle   6 NSaved=   6.
 NSaved= 6 IEnMin= 6 EnMin= -1199.85168916557     IErMin= 6 ErrMin= 2.79D-07
 ErrMax= 2.79D-07  0.00D+00 EMaxC= 1.00D-01 BMatC= 7.83D-11 BMatP= 4.98D-10
 IDIUse=1 WtCom= 1.00D+00 WtEn= 0.00D+00
 Coeff-Com:  0.979D-03-0.720D-02-0.512D-01-0.274D-01 0.299D+00 0.786D+00
 Coeff:      0.979D-03-0.720D-02-0.512D-01-0.274D-01 0.299D+00 0.786D+00
 Gap=     0.387 Goal=   None    Shift=    0.000
 RMSDP=2.73D-08 MaxDP=9.74D-07 DE=-6.75D-10 OVMax= 2.88D-06

 Cycle  13  Pass 1  IDiag  1:
 E= -1199.85168916558     Delta-E=       -0.000000000012 Rises=F Damp=F
 DIIS: error= 1.20D-07 at cycle   7 NSaved=   7.
 NSaved= 7 IEnMin= 7 EnMin= -1199.85168916558     IErMin= 7 ErrMin= 1.20D-07
 ErrMax= 1.20D-07  0.00D+00 EMaxC= 1.00D-01 BMatC= 1.48D-11 BMatP= 7.83D-11
 IDIUse=1 WtCom= 1.00D+00 WtEn= 0.00D+00
 Coeff-Com:  0.107D-02-0.334D-02-0.256D-01-0.214D-01 0.806D-01 0.382D+00
 Coeff-Com:  0.586D+00
 Coeff:      0.107D-02-0.334D-02-0.256D-01-0.214D-01 0.806D-01 0.382D+00
 Coeff:      0.586D+00
 Gap=     0.387 Goal=   None    Shift=    0.000
 RMSDP=7.12D-09 MaxDP=3.68D-07 DE=-1.18D-11 OVMax= 8.18D-07

 SCF Done:  E(RM062X) =  -1199.85168917     A.U. after   13 cycles
            NFock= 13  Conv=0.71D-08     -V/T= 2.0029
 KE= 1.196408989403D+03 PE=-4.722573140018D+03 EE= 1.388280252033D+03
 Leave Link  502 at Sat May 24 05:02:06 2025, MaxMem=  3758096384 cpu:             148.7 elap:              38.5
 (Enter /apps/easybuild-2022/easybuild/software/Compiler/NVHPC/22.11-CUDA-11.7.0/Gaussian/g16c01-CUDA-11.7.0/g16/l508.exe)
 QCSCF skips out because SCF is already converged.
 Leave Link  508 at Sat May 24 05:02:06 2025, MaxMem=  3758096384 cpu:               0.0 elap:               0.0
 (Enter /apps/easybuild-2022/easybuild/software/Compiler/NVHPC/22.11-CUDA-11.7.0/Gaussian/g16c01-CUDA-11.7.0/g16/l801.exe)
 DoSCS=F DFT=T ScalE2(SS,OS)=  1.000000  1.000000
 Range of M.O.s used for correlation:     1   366
 NBasis=   366 NAE=    49 NBE=    49 NFC=     0 NFV=     0
 NROrb=    366 NOA=    49 NOB=    49 NVA=   317 NVB=   317

 **** Warning!!: The largest alpha MO coefficient is  0.12017318D+02

 Leave Link  801 at Sat May 24 05:02:06 2025, MaxMem=  3758096384 cpu:               0.1 elap:               0.0
 (Enter /apps/easybuild-2022/easybuild/software/Compiler/NVHPC/22.11-CUDA-11.7.0/Gaussian/g16c01-CUDA-11.7.0/g16/l1101.exe)
 Using compressed storage, NAtomX=    12.
 Will process     13 centers per pass.
   1 Symmetry operations used in ECPInt.
 ECPInt:  NShTT=    8515 NPrTT=   27988 LenC2=    8030 LenP2D=   19544.
 LDataN:  DoStor=T MaxTD1= 7 Len=  274
 Leave Link 1101 at Sat May 24 05:02:06 2025, MaxMem=  3758096384 cpu:               1.8 elap:               0.4
 (Enter /apps/easybuild-2022/easybuild/software/Compiler/NVHPC/22.11-CUDA-11.7.0/Gaussian/g16c01-CUDA-11.7.0/g16/l1102.exe)
 Symmetrizing basis deriv contribution to polar:
 IMax=3 JMax=2 DiffMx= 0.00D+00
 Leave Link 1102 at Sat May 24 05:02:06 2025, MaxMem=  3758096384 cpu:               0.0 elap:               0.0
 (Enter /apps/easybuild-2022/easybuild/software/Compiler/NVHPC/22.11-CUDA-11.7.0/Gaussian/g16c01-CUDA-11.7.0/g16/l1110.exe)
 Forming Gx(P) for the SCF density, NAtomX=    12.
 Integral derivatives from FoFJK, PRISM(SPDF).
 Do as many integral derivatives as possible in FoFJK.
 G2DrvN: MDV=    3758095012.
 G2DrvN: will do    13 centers at a time, making    1 passes.
 Calling FoFCou, ICntrl=  3107 FMM=F I1Cent=   0 AccDes= 0.00D+00.
 FoFJK:  IHMeth= 1 ICntrl=    3107 DoSepK=F KAlg= 0 I1Cent=           0 FoldK=F
 IRaf=         0 NMat=       1 IRICut=       1 DoRegI=T DoRafI=F ISym2E= 0 IDoP0=0 IntGTp=1.
 FoFCou: FMM=F IPFlag=           0 FMFlag=      100000 FMFlg1=           0
         NFxFlg=           0 DoJE=F BraDBF=F KetDBF=F FulRan=T
         wScrn=  0.000000 ICntrl=      3107 IOpCl=  0 I1Cent=           0 NGrid=           0
         NMat0=    1 NMatS0=      1 NMatT0=    0 NMatD0=    1 NMtDS0=    0 NMtDT0=    0
 Symmetry not used in FoFCou.
 End of G2Drv F.D. properties file   721 does not exist.
 End of G2Drv F.D. properties file   722 does not exist.
 End of G2Drv F.D. properties file   788 does not exist.
 Leave Link 1110 at Sat May 24 05:02:59 2025, MaxMem=  3758096384 cpu:             414.9 elap:              52.5
 (Enter /apps/easybuild-2022/easybuild/software/Compiler/NVHPC/22.11-CUDA-11.7.0/Gaussian/g16c01-CUDA-11.7.0/g16/l1002.exe)
 Minotr:  Closed shell wavefunction.
          IDoAtm=111111111111
          Direct CPHF calculation.
          Differentiating once with respect to nuclear coordinates.
          Requested convergence is 1.0D-08 RMS, and 1.0D-07 maximum.
          Secondary convergence is 1.0D-12 RMS, and 1.0D-12 maximum.
          NewPWx=T KeepS1=F KeepF1=F KeepIn=T MapXYZ=F SortEE=F KeepMc=T.
         3598 words used for storage of precomputed grid.
 Keep R1 ints in memory in canonical form, NReq=2293452904.
 FoFCou: FMM=F IPFlag=           0 FMFlag=           0 FMFlg1=           0
         NFxFlg=           0 DoJE=F BraDBF=F KetDBF=F FulRan=T
         wScrn=  0.000000 ICntrl=       600 IOpCl=  0 I1Cent=           0 NGrid=           0
         NMat0=    1 NMatS0=  67161 NMatT0=    0 NMatD0=    1 NMtDS0=    0 NMtDT0=    0
 Symmetry not used in FoFCou.
 Two-electron integral symmetry not used.
          MDV=    3758096384 using IRadAn=       1.
          Solving linear equations simultaneously, MaxMat=       0.
          There are    39 degrees of freedom in the 1st order CPHF.  IDoFFX=6 NUNeed=     0.
     33 vectors produced by pass  0 Test12= 3.98D-14 2.56D-09 XBig12= 2.09D-01 9.30D-02.
 AX will form    33 AO Fock derivatives at one time.
     33 vectors produced by pass  1 Test12= 3.98D-14 2.56D-09 XBig12= 3.76D-02 3.93D-02.
     33 vectors produced by pass  2 Test12= 3.98D-14 2.56D-09 XBig12= 1.65D-03 1.00D-02.
     33 vectors produced by pass  3 Test12= 3.98D-14 2.56D-09 XBig12= 4.22D-05 1.31D-03.
     33 vectors produced by pass  4 Test12= 3.98D-14 2.56D-09 XBig12= 7.18D-07 1.47D-04.
     33 vectors produced by pass  5 Test12= 3.98D-14 2.56D-09 XBig12= 7.06D-09 1.41D-05.
     33 vectors produced by pass  6 Test12= 3.98D-14 2.56D-09 XBig12= 6.45D-11 1.25D-06.
     20 vectors produced by pass  7 Test12= 3.98D-14 2.56D-09 XBig12= 3.72D-13 7.81D-08.
      7 vectors produced by pass  8 Test12= 3.98D-14 2.56D-09 XBig12= 2.61D-15 4.69D-09.
 InvSVY:  IOpt=1 It=  1 EMax= 1.33D-15
 Solved reduced A of dimension   258 with    33 vectors.
 End of Minotr F.D. properties file   721 does not exist.
 End of Minotr F.D. properties file   722 does not exist.
 End of Minotr F.D. properties file   788 does not exist.
 Leave Link 1002 at Sat May 24 05:04:25 2025, MaxMem=  3758096384 cpu:             673.0 elap:              85.6
 (Enter /apps/easybuild-2022/easybuild/software/Compiler/NVHPC/22.11-CUDA-11.7.0/Gaussian/g16c01-CUDA-11.7.0/g16/l701.exe)
 ... and contract with generalized density number  0.
 Compute integral second derivatives.
   1 Symmetry operations used in ECPInt.
 ECPInt:  NShTT=    8515 NPrTT=   27988 LenC2=    8030 LenP2D=   19544.
 LDataN:  DoStor=T MaxTD1= 8 Len=  415
 Leave Link  701 at Sat May 24 05:04:25 2025, MaxMem=  3758096384 cpu:               1.0 elap:               0.2
 (Enter /apps/easybuild-2022/easybuild/software/Compiler/NVHPC/22.11-CUDA-11.7.0/Gaussian/g16c01-CUDA-11.7.0/g16/l702.exe)
 L702 exits ... SP integral derivatives will be done elsewhere.
 Leave Link  702 at Sat May 24 05:04:25 2025, MaxMem=  3758096384 cpu:               0.0 elap:               0.0
 (Enter /apps/easybuild-2022/easybuild/software/Compiler/NVHPC/22.11-CUDA-11.7.0/Gaussian/g16c01-CUDA-11.7.0/g16/l703.exe)
 Integral derivatives from FoFJK, PRISM(SPDF).
 Compute integral second derivatives, UseDBF=F ICtDFT=           0.
 Calling FoFJK, ICntrl=    100127 FMM=F ISym2X=0 I1Cent= 0 IOpClX= 0 NMat=1 NMatS=1 NMatT=0.
 FoFJK:  IHMeth= 1 ICntrl=  100127 DoSepK=F KAlg= 0 I1Cent=           0 FoldK=F
 IRaf=         0 NMat=       1 IRICut=       1 DoRegI=T DoRafI=F ISym2E= 0 IDoP0=0 IntGTp=1.
 FoFCou: FMM=F IPFlag=           0 FMFlag=      100000 FMFlg1=         800
         NFxFlg=           0 DoJE=F BraDBF=F KetDBF=F FulRan=T
         wScrn=  0.000000 ICntrl=    100127 IOpCl=  0 I1Cent=           0 NGrid=           0
         NMat0=    1 NMatS0=      1 NMatT0=    0 NMatD0=    1 NMtDS0=    0 NMtDT0=    0
 Symmetry not used in FoFCou.
 Leave Link  703 at Sat May 24 05:06:14 2025, MaxMem=  3758096384 cpu:             863.5 elap:             108.9
 (Enter /apps/easybuild-2022/easybuild/software/Compiler/NVHPC/22.11-CUDA-11.7.0/Gaussian/g16c01-CUDA-11.7.0/g16/l716.exe)
 Dipole        = 4.24254515D-01 8.16522116D-01-5.68333416D-01
 Polarizability= 0.00000000D+00 0.00000000D+00 0.00000000D+00
                 0.00000000D+00 0.00000000D+00 0.00000000D+00
 -------------------------------------------------------------------
 Center     Atomic                   Forces (Hartrees/Bohr)
 Number     Number              X              Y              Z
 -------------------------------------------------------------------
      1        6          -0.016146678    0.011414509   -0.004339749
      2        6          -0.002229103   -0.025390914    0.004770491
      3        9           0.007718492   -0.019651891    0.006101649
      4        9           0.007123453   -0.022772188    0.003968808
      5       16           0.027498214    0.016572846    0.000270672
      6        8           0.006549401    0.003742799   -0.001333809
      7        8           0.006020122    0.003740827    0.001634081
      8        8           0.008445930    0.009440270    0.000127838
      9        9          -0.019443458   -0.004798107   -0.003387428
     10        9          -0.003100211    0.034319427   -0.007900898
     11        9          -0.022076422   -0.007398171    0.001496772
     12        1          -0.000359741    0.000780592   -0.001408427
 -------------------------------------------------------------------
 Cartesian Forces:  Max     0.034319427 RMS     0.012541866
 Force constants in Cartesian coordinates: 
                1             2             3             4             5 
      1  0.517805D+00
      2  0.100687D-01  0.357719D+00
      3 -0.285176D-01  0.652012D-01  0.619742D+00
      4 -0.558580D-01  0.140323D-01 -0.840779D-02  0.536657D+00
      5 -0.520598D-01 -0.776243D-02 -0.112753D-01 -0.147151D+00  0.310871D+00
      6  0.551645D-02  0.297695D-03 -0.206729D-01  0.303155D-01  0.321088D-01
      7  0.287603D-02 -0.104282D-02  0.604503D-03 -0.969013D-01  0.326788D-01
      8  0.169511D-01  0.660531D-02  0.128944D-01  0.347610D-01 -0.880757D-01
      9 -0.173555D-01 -0.104769D-01 -0.146197D-01 -0.817076D-01  0.703946D-01
     10 -0.158546D-02 -0.221656D-02  0.311086D-02 -0.140423D+00  0.931509D-01
     11  0.255129D-01  0.449589D-02 -0.131654D-01  0.971863D-01 -0.171221D+00
     12  0.999113D-02  0.285151D-02 -0.592113D-02  0.775736D-01 -0.942331D-01
     13 -0.104126D-01 -0.767714D-01  0.880540D-02 -0.226392D+00  0.862207D-01
     14 -0.449087D-01 -0.345137D-02  0.259594D-02  0.606547D-01 -0.161194D-01
     15  0.381063D-02 -0.111348D-02  0.372045D-01 -0.408882D-01  0.641360D-02
     16 -0.233275D-02  0.101965D-01 -0.110901D-02  0.352960D-02  0.572385D-03
     17  0.585826D-02 -0.754272D-02  0.260597D-02 -0.105459D-01 -0.131269D-02
     18 -0.152488D-02  0.735400D-02 -0.150811D-01  0.137524D-01  0.133075D-02
     19 -0.149793D-02  0.112114D-01 -0.123357D-02 -0.248350D-03  0.144607D-01
     20  0.640374D-02 -0.105853D-01 -0.243253D-02 -0.104403D-01 -0.127846D-01
     21  0.665064D-03 -0.540148D-02 -0.107227D-01 -0.400525D-02 -0.384874D-02
     22 -0.245669D-02  0.132901D-01 -0.167786D-02  0.158063D-03 -0.361422D-01
     23  0.467200D-02  0.329493D-02 -0.146329D-02  0.680381D-02 -0.101039D-01
     24  0.107551D-02 -0.320143D-02 -0.358119D-02 -0.568787D-03  0.947405D-02
     25 -0.112004D+00 -0.381910D-01 -0.909829D-01 -0.290381D-02  0.201795D-02
     26 -0.471342D-01 -0.105390D+00 -0.935008D-01 -0.241406D-01 -0.143425D-01
     27 -0.918779D-01 -0.825635D-01 -0.272613D+00 -0.128612D-01 -0.592635D-03
     28 -0.126966D+00  0.543831D-01 -0.224029D-01  0.867433D-03  0.182336D-02
     29  0.834505D-01 -0.170948D+00  0.376276D-01  0.450773D-02  0.214769D-01
     30 -0.295847D-01  0.327527D-01 -0.912402D-01 -0.952596D-03 -0.506005D-02
     31 -0.206401D+00  0.482856D-02  0.141774D+00 -0.183115D-01  0.805305D-02
     32 -0.728941D-02 -0.674407D-01  0.329639D-03 -0.250154D-01 -0.707672D-02
     33  0.148857D+00 -0.736950D-02 -0.222303D+00  0.291667D-01  0.695298D-03
     34 -0.116699D-02  0.211155D-03  0.367393D-04 -0.174050D-03 -0.362483D-02
     35 -0.152506D-02  0.100472D-02  0.582416D-03 -0.652570D-03 -0.354850D-02
     36 -0.105551D-02  0.166924D-02 -0.191138D-03 -0.141676D-02 -0.540729D-02
                6             7             8             9            10 
      6  0.557665D+00
      7 -0.744333D-01  0.828861D-01
      8  0.737466D-01 -0.403338D-01  0.808457D-01
      9 -0.284056D+00  0.829812D-01 -0.661788D-01  0.397492D+00
     10  0.725974D-01  0.155233D-01 -0.292982D-02  0.782700D-02  0.136752D+00
     11 -0.963412D-01 -0.227929D-02  0.103247D-01 -0.150288D-01 -0.115161D+00
     12 -0.154073D+00  0.222007D-01 -0.345843D-01 -0.862877D-01 -0.103608D+00
     13 -0.467890D-01  0.293823D-02 -0.810505D-02  0.616635D-02 -0.630927D-02
     14  0.439503D-02  0.568317D-02 -0.945418D-02  0.852192D-02  0.233338D-01
     15 -0.359748D-01 -0.329172D-01  0.100837D-01 -0.287081D-01  0.300429D-01
     16 -0.234443D-01 -0.819222D-02  0.441638D-02 -0.687618D-02 -0.147140D-03
     17  0.107031D-01  0.531350D-02  0.272733D-02  0.223871D-02 -0.124506D-02
     18 -0.231634D-01 -0.747327D-02  0.696384D-03 -0.628363D-03 -0.455106D-02
     19  0.236740D-01 -0.121546D-02  0.121474D-02 -0.185035D-02 -0.103546D-01
     20 -0.157136D-01  0.765134D-03  0.182170D-02  0.945855D-03  0.712745D-02
     21 -0.866071D-02  0.298844D-02 -0.112806D-02  0.737818D-02  0.144193D-02
     22  0.875443D-02 -0.720180D-03  0.263075D-02 -0.413732D-02 -0.163209D-02
     23  0.680689D-02 -0.169501D-02  0.321280D-02 -0.453530D-02 -0.498974D-02
     24  0.112306D-02  0.283672D-02 -0.227762D-02  0.481810D-02 -0.203502D-02
     25 -0.166925D-01  0.127354D-02 -0.136900D-02  0.676054D-02  0.108249D-02
     26 -0.269658D-01  0.151511D-02  0.109356D-02  0.231606D-02  0.205497D-02
     27 -0.189538D-01  0.320058D-02  0.722587D-03  0.990665D-02  0.831793D-03
     28  0.773415D-04  0.101113D-02  0.258273D-03  0.374056D-03  0.121673D-02
     29 -0.407037D-02 -0.100311D-02 -0.580131D-02  0.751663D-02  0.594085D-03
     30  0.924086D-04  0.706467D-03  0.115349D-02 -0.575428D-03 -0.441931D-03
     31  0.191105D-01  0.693318D-04 -0.783144D-02  0.833232D-02  0.516399D-02
     32  0.157107D-01  0.776627D-03 -0.329203D-02  0.481992D-02 -0.120437D-03
     33 -0.156206D-01 -0.904077D-03  0.421899D-02 -0.378291D-02 -0.529637D-02
     34  0.131367D-02  0.451535D-03  0.336810D-03 -0.514474D-03  0.713338D-03
     35 -0.677832D-03 -0.378386D-03 -0.792302D-05 -0.533816D-03  0.401611D-03
     36  0.229395D-02  0.209284D-03  0.652661D-03 -0.937254D-03  0.809335D-04
               11            12            13            14            15 
     11  0.180250D+00
     12  0.135636D+00  0.240606D+00
     13 -0.387281D-02  0.235465D-02  0.643741D+00
     14 -0.188733D-01 -0.657007D-02 -0.416707D-01  0.771750D+00
     15 -0.134527D-01 -0.969626D-02 -0.103409D+00  0.805186D-01  0.120804D+01
     16  0.807429D-03 -0.989902D-03 -0.987506D-01  0.685608D-02 -0.222882D-01
     17  0.249775D-02  0.881655D-03  0.152115D-01 -0.116491D+00  0.142863D+00
     18  0.352962D-02  0.568954D-02 -0.200759D-01  0.129517D+00 -0.670624D+00
     19  0.605632D-02  0.109212D-02 -0.145476D+00  0.102529D+00  0.120585D+00
     20  0.221741D-02 -0.317341D-03  0.108698D+00 -0.325975D+00 -0.270696D+00
     21  0.399076D-03  0.264917D-02  0.114362D+00 -0.258743D+00 -0.391568D+00
     22  0.388481D-02  0.211517D-02 -0.144340D+00 -0.103155D+00  0.272153D-01
     23  0.463149D-02  0.213343D-02 -0.784872D-01 -0.244717D+00  0.138476D-01
     24 -0.124919D-03  0.739798D-03  0.347279D-01  0.320001D-01 -0.789139D-01
     25 -0.792531D-02 -0.309298D-02  0.648294D-02 -0.286680D-02  0.312008D-03
     26 -0.824618D-02 -0.335020D-02  0.173297D-01 -0.969279D-02  0.323396D-03
     27 -0.582064D-02 -0.113009D-02  0.103421D-01 -0.655616D-02 -0.652289D-02
     28  0.696459D-04 -0.302963D-03 -0.797339D-02  0.649467D-02 -0.172633D-02
     29 -0.796623D-02 -0.396168D-02  0.664312D-02 -0.211767D-01  0.302436D-02
     30  0.270662D-02  0.170054D-02 -0.117284D-02  0.386351D-02 -0.106559D-01
     31 -0.437486D-02 -0.726241D-02  0.106885D-01 -0.388320D-02  0.643569D-02
     32  0.175987D-02  0.118080D-02  0.125842D-01 -0.635213D-02  0.305231D-02
     33  0.133712D-02  0.584514D-02 -0.113215D-01  0.475223D-02 -0.107431D-01
     34  0.960678D-04 -0.707412D-04 -0.241972D-01 -0.906642D-02  0.128274D-01
     35  0.130255D-03  0.333687D-03 -0.377795D-01  0.553933D-03  0.251357D-01
     36  0.325633D-03 -0.122033D-03  0.600986D-02  0.570490D-02 -0.183451D-02
               16            17            18            19            20 
     16  0.753891D-01
     17  0.361375D-02  0.117419D+00
     18  0.243108D-01 -0.155211D+00  0.714348D+00
     19  0.223312D-01 -0.790257D-03 -0.148879D-02  0.125448D+00
     20 -0.225313D-02  0.136245D-01  0.133257D-01 -0.109868D+00  0.357695D+00
     21  0.149522D-01 -0.288074D-01 -0.141883D-01 -0.136125D+00  0.297175D+00
     22  0.100173D-01 -0.128915D-01  0.540006D-02  0.154566D-01  0.276462D-02
     23 -0.136681D-01 -0.588655D-02  0.496236D-02 -0.200856D-01 -0.339465D-01
     24  0.207691D-01  0.315260D-01 -0.598042D-02 -0.961828D-02 -0.292967D-01
     25 -0.169769D-02 -0.366898D-03 -0.131662D-02 -0.241872D-02 -0.477986D-04
     26 -0.358624D-02  0.165754D-02 -0.252057D-02 -0.267319D-02  0.401752D-02
     27 -0.249727D-02 -0.388291D-03  0.120758D-02 -0.344025D-03  0.316745D-02
     28 -0.706628D-03 -0.920974D-02  0.531292D-03 -0.228209D-02 -0.984665D-02
     29 -0.502912D-02 -0.424354D-02 -0.275694D-02 -0.452994D-02  0.558838D-03
     30 -0.235409D-02 -0.742068D-02  0.337285D-02  0.392573D-02  0.562466D-02
     31 -0.119649D-02  0.751662D-03 -0.335002D-02 -0.281260D-02 -0.341419D-03
     32 -0.196321D-02  0.229132D-02 -0.216764D-02 -0.262787D-02  0.215538D-02
     33 -0.310990D-03 -0.180998D-02  0.624338D-02  0.247020D-02  0.286852D-03
     34  0.175637D-02  0.430067D-02 -0.421402D-02  0.307037D-02  0.703935D-02
     35  0.372456D-04 -0.474039D-02  0.194057D-02  0.510370D-02  0.120146D-02
     36 -0.162197D-03  0.281908D-02 -0.119491D-02 -0.108690D-02 -0.206945D-02
               21            22            23            24            25 
     21  0.401979D+00
     22  0.138691D-02  0.468034D+00
     23 -0.319120D-02  0.711784D-01  0.325572D+00
     24  0.103575D-01 -0.279024D+00  0.151848D-01  0.226726D+00
     25  0.221185D-03 -0.296781D-02 -0.123402D-02  0.567176D-03  0.119791D+00
     26  0.239339D-02 -0.623200D-02 -0.101995D-02  0.150126D-02  0.281387D-01
     27  0.492432D-02 -0.430754D-02 -0.802194D-03  0.183934D-02  0.140624D+00
     28  0.366426D-02  0.109761D-02 -0.181423D-02 -0.175175D-03 -0.272078D-01
     29  0.304370D-02 -0.525269D-02 -0.338407D-03  0.742653D-03  0.108908D-01
     30 -0.200967D-03  0.934010D-03  0.448067D-03  0.166034D-02 -0.556911D-01
     31  0.410869D-03 -0.502489D-02 -0.167047D-02  0.508699D-03  0.205432D-01
     32  0.111216D-02 -0.443723D-02 -0.667369D-03  0.815940D-03  0.110167D-01
     33  0.123440D-02  0.496214D-02  0.138122D-02 -0.370158D-04  0.196875D-01
     34  0.374772D-04 -0.337622D+00  0.409902D-01  0.230936D+00  0.264625D-04
     35 -0.300365D-02  0.743621D-01 -0.400309D-01 -0.563442D-01 -0.633558D-04
     36 -0.318120D-02  0.238379D+00 -0.347725D-01 -0.158751D+00 -0.395872D-03
               26            27            28            29            30 
     26  0.115739D+00
     27  0.938752D-01  0.384038D+00
     28  0.289606D-01 -0.503319D-01  0.218744D+00
     29  0.950867D-02  0.196084D-01 -0.130856D+00  0.195461D+00
     30  0.362183D-01 -0.471954D-01  0.522733D-01 -0.451808D-01  0.131903D+00
     31  0.598266D-02  0.739068D-02 -0.581931D-01  0.407785D-01  0.323874D-01
     32  0.719714D-02 -0.202215D-01  0.592345D-01 -0.160245D-01 -0.249300D-01
     33 -0.933288D-02 -0.547575D-01  0.178047D-01 -0.153104D-01  0.110488D-01
     34 -0.215519D-03 -0.168910D-03  0.391442D-03 -0.193421D-03 -0.296385D-04
     35 -0.522569D-03 -0.428627D-03  0.502974D-03 -0.506362D-03 -0.175815D-03
     36 -0.957364D-03 -0.743239D-03  0.214311D-03 -0.283106D-03  0.895249D-04
               31            32            33            34            35 
     31  0.255401D+00
     32 -0.420515D-01  0.878580D-01
     33 -0.205166D+00  0.209309D-01  0.282187D+00
     34  0.727922D-04 -0.106906D-03  0.503007D-04  0.356678D+00
     35 -0.241587D-03 -0.408369D-03  0.220167D-03 -0.397672D-01  0.468746D-01
     36 -0.571960D-03 -0.633263D-03  0.685021D-03 -0.240204D+00  0.329514D-01
               36 
     36  0.163887D+00
 FormGI is forming the generalized inverse of G from B-inverse, IUseBI=4.
 Leave Link  716 at Sat May 24 05:06:14 2025, MaxMem=  3758096384 cpu:               0.1 elap:               0.0
 (Enter /apps/easybuild-2022/easybuild/software/Compiler/NVHPC/22.11-CUDA-11.7.0/Gaussian/g16c01-CUDA-11.7.0/g16/l103.exe)

 GradGradGradGradGradGradGradGradGradGradGradGradGradGradGradGradGradGrad
 Berny optimization.
 Red2BG is reusing G-inverse.
 Internal  Forces:  Max     0.111235445 RMS     0.023449141
 Search for a local minimum.
 Step number   1 out of a maximum of   61
 All quantities printed in internal units (Hartrees-Bohrs-Radians)
 RMS Force = .23449D-01 SwitMx=.10000D-02 MixMth= 1
 Mixed Optimization -- RFO/linear search
 Second derivative matrix not updated -- analytic derivatives used.
 ITU=  0
     Eigenvalues ---   -0.00031   0.00139   0.01276   0.01910   0.05110
     Eigenvalues ---    0.07287   0.08862   0.09777   0.10474   0.10872
     Eigenvalues ---    0.11890   0.12530   0.13767   0.17031   0.21317
     Eigenvalues ---    0.22543   0.25072   0.28051   0.28653   0.32475
     Eigenvalues ---    0.38364   0.40751   0.42781   0.44168   0.49713
     Eigenvalues ---    0.52708   0.59935   0.73294   0.74273   0.75767
 Eigenvalue     1 is  -3.05D-04 should be greater than     0.000000 Eigenvector:
                          D19       D21       D20       R1        A15
   1                    0.57343   0.57340   0.57339  -0.07264   0.04897
                          A9        A19       A17       A2        A16
   1                    0.02560  -0.02527  -0.02519  -0.02359   0.02299
 RFO step:  Lambda=-1.03208804D-01 EMin=-3.05128215D-04
 Linear search not attempted -- first point.
 Maximum step size (   0.300) exceeded in Quadratic search.
    -- Step size scaled by   0.355
 Iteration  1 RMS(Cart)=  0.09928891 RMS(Int)=  0.00522780
 Iteration  2 RMS(Cart)=  0.00634296 RMS(Int)=  0.00067743
 Iteration  3 RMS(Cart)=  0.00001544 RMS(Int)=  0.00067726
 Iteration  4 RMS(Cart)=  0.00000002 RMS(Int)=  0.00067726
 ITry= 1 IFail=0 DXMaxC= 2.20D-01 DCOld= 1.00D+10 DXMaxT= 3.00D-01 DXLimC= 3.00D+00 Rises=F
 Variable       Old X    -DE/DX   Delta X   Delta X   Delta X     New X
                                 (Linear)    (Quad)   (Total)
    R1        3.60769  -0.02706   0.00000  -0.20567  -0.20567   3.40202
    R2        2.47327   0.01120   0.00000   0.00866   0.00866   2.48193
    R3        2.56218  -0.02964   0.00000  -0.02896  -0.02896   2.53323
    R4        2.46892   0.01496   0.00000   0.01090   0.01090   2.47983
    R5        2.50977  -0.01310   0.00000  -0.00408  -0.00408   2.50569
    R6        2.51250  -0.01536   0.00000  -0.00735  -0.00735   2.50515
    R7        3.27644   0.03922   0.00000   0.04907   0.04907   3.32551
    R8        2.67878  -0.00207   0.00000  -0.00489  -0.00489   2.67388
    R9        2.69032  -0.00195   0.00000  -0.00175  -0.00175   2.68856
   R10        2.94876   0.01288   0.00000   0.00510   0.00510   2.95387
   R11        1.82786   0.00038   0.00000   0.00049   0.00049   1.82835
    A1        1.73177   0.01579   0.00000   0.04852   0.04842   1.78019
    A2        2.33961  -0.04137   0.00000  -0.11320  -0.11214   2.22747
    A3        1.70559   0.02116   0.00000   0.05567   0.05593   1.76152
    A4        1.82594   0.01055   0.00000   0.01682   0.01766   1.84359
    A5        2.04997  -0.01899   0.00000  -0.03302  -0.03519   2.01478
    A6        1.83195   0.00639   0.00000   0.01414   0.01553   1.84748
    A7        1.99522  -0.04226   0.00000  -0.03942  -0.03897   1.95624
    A8        2.02460  -0.04355   0.00000  -0.04326  -0.04327   1.98133
    A9        1.46839   0.11124   0.00000   0.12579   0.12717   1.59556
   A10        1.84758   0.03733   0.00000   0.03175   0.02967   1.87725
   A11        2.06393  -0.03222   0.00000  -0.03931  -0.03910   2.02483
   A12        2.05308  -0.03258   0.00000  -0.03380  -0.03332   2.01975
   A13        1.81200   0.00812   0.00000  -0.00183  -0.00182   1.81017
   A14        1.83421   0.00729   0.00000  -0.00654  -0.00654   1.82767
   A15        1.82130  -0.00195   0.00000   0.00540   0.00541   1.82671
   A16        2.14556  -0.00188   0.00000   0.00493   0.00493   2.15048
   A17        1.92169  -0.00529   0.00000  -0.00419  -0.00419   1.91750
   A18        1.89824  -0.00462   0.00000   0.00223   0.00224   1.90049
   A19        1.93103   0.00115   0.00000  -0.01005  -0.01005   1.92098
    D1        0.01626   0.00594   0.00000   0.01166   0.01205   0.02832
    D2        2.17428  -0.01664   0.00000  -0.01603  -0.01458   2.15969
    D3       -2.05038  -0.00404   0.00000   0.00248   0.00323  -2.04715
    D4        2.12553   0.01029   0.00000   0.01093   0.01059   2.13612
    D5       -1.99964  -0.01229   0.00000  -0.01676  -0.01605  -2.01569
    D6        0.05889   0.00031   0.00000   0.00175   0.00177   0.06065
    D7       -2.07050   0.01625   0.00000   0.01939   0.01792  -2.05258
    D8        0.08751  -0.00633   0.00000  -0.00831  -0.00872   0.07879
    D9        2.14604   0.00627   0.00000   0.01021   0.00910   2.15514
   D10       -1.15765  -0.00238   0.00000  -0.00100  -0.00117  -1.15882
   D11        1.11572   0.00398   0.00000   0.00016   0.00000   1.11572
   D12        3.11210   0.00099   0.00000   0.00224   0.00207   3.11416
   D13        3.12710  -0.01031   0.00000  -0.01915  -0.01866   3.10844
   D14       -0.88272  -0.00395   0.00000  -0.01799  -0.01749  -0.90021
   D15        1.11366  -0.00694   0.00000  -0.01592  -0.01543   1.09823
   D16        0.87280   0.00268   0.00000   0.01196   0.01163   0.88443
   D17       -3.13702   0.00904   0.00000   0.01313   0.01281  -3.12422
   D18       -1.14064   0.00604   0.00000   0.01520   0.01487  -1.12577
   D19       -2.33680   0.00107   0.00000   0.19237   0.19237  -2.14443
   D20        2.01137  -0.00507   0.00000   0.19355   0.19355   2.20492
   D21       -0.38617   0.00652   0.00000   0.18841   0.18841  -0.19775
         Item               Value     Threshold  Converged?
 Maximum Force            0.111235     0.000450     NO 
 RMS     Force            0.023449     0.000300     NO 
 Maximum Displacement     0.219883     0.001800     NO 
 RMS     Displacement     0.098447     0.001200     NO 
 Predicted change in Energy=-3.699274D-02
 Lowest energy point so far.  Saving SCF results.
 GradGradGradGradGradGradGradGradGradGradGradGradGradGradGradGradGradGrad

 Leave Link  103 at Sat May 24 05:06:14 2025, MaxMem=  3758096384 cpu:               0.1 elap:               0.0
 (Enter /apps/easybuild-2022/easybuild/software/Compiler/NVHPC/22.11-CUDA-11.7.0/Gaussian/g16c01-CUDA-11.7.0/g16/l202.exe)
                          Input orientation:                          
 ---------------------------------------------------------------------
 Center     Atomic      Atomic             Coordinates (Angstroms)
 Number     Number       Type             X           Y           Z
 ---------------------------------------------------------------------
      1          6           0       -0.888648   -1.047341    0.106035
      2          6           0       -0.511352    0.684093   -0.211384
      3          9           0       -0.823513    1.043588   -1.448912
      4          9           0       -1.125467    1.519467    0.614694
      5         16           0        1.198506    0.415017    0.106134
      6          8           0        1.237647    0.095594    1.484011
      7          8           0        1.618690   -0.482973   -0.914263
      8          8           0        1.869552    1.805856   -0.135944
      9          9           0       -1.347967   -1.444610   -1.058514
     10          9           0       -0.045065   -2.008297    0.508455
     11          9           0       -1.785492   -0.936130    1.057534
     12          1           0        2.559976    1.728582   -0.809325
 ---------------------------------------------------------------------
                    Distance matrix (angstroms):
                    1          2          3          4          5
     1  C    0.000000
     2  C    1.800269   0.000000
     3  F    2.606547   1.325955   0.000000
     4  F    2.627417   1.325667   2.139184   0.000000
     5  S    2.548470   1.759782   2.627133   2.622840   0.000000
     6  O    2.779613   2.505931   3.707979   2.892651   1.414959
     7  O    2.765187   2.528470   2.929265   3.725301   1.422726
     8  O    3.975796   2.633011   3.091527   3.100905   1.563118
     9  F    1.313382   2.439043   2.572662   3.410995   3.361420
    10  F    1.340526   2.825695   3.708270   3.691025   2.753321
    11  F    1.312268   2.420476   3.335709   2.581025   3.411012
    12  H    4.520690   3.298719   3.510881   3.956520   2.101694
                    6          7          8          9         10
     6  O    0.000000
     7  O    2.496327   0.000000
     8  O    2.438966   2.430525   0.000000
     9  F    3.939805   3.121956   4.665736   0.000000
    10  F    2.650172   2.668111   4.316106   2.114400   0.000000
    11  F    3.222686   3.960023   4.722523   2.219829   2.116629
    12  H    3.110401   2.405827   0.967522   5.040165   4.742050
                   11         12
    11  F    0.000000
    12  H    5.428530   0.000000
 Symmetry turned off by external request.
 Stoichiometry    C2HF5O3S
 Rotational constants (GHZ):           1.4415974           0.9437507           0.8357631
 Leave Link  202 at Sat May 24 05:06:14 2025, MaxMem=  3758096384 cpu:               0.1 elap:               0.0
 (Enter /apps/easybuild-2022/easybuild/software/Compiler/NVHPC/22.11-CUDA-11.7.0/Gaussian/g16c01-CUDA-11.7.0/g16/l301.exe)
 Standard basis: def2TZVPP (5D, 7F)
 Ernie: Thresh=  0.10000D-02 Tol=  0.10000D-05 Strict=F.
   366 basis functions,   596 primitive gaussians,   423 cartesian basis functions
    49 alpha electrons       49 beta electrons
       nuclear repulsion energy       936.9302860764 Hartrees.
 IExCor= 4336 DFT=T Ex+Corr=M062X ExCW=0 ScaHFX=  0.540000
 ScaDFX=  1.000000  1.000000  1.000000  1.000000 ScalE2=  1.000000  1.000000
 IRadAn=      5 IRanWt=     -1 IRanGd=            0 ICorTp=0 IEmpDi=  4
 NAtoms=   12 NActive=   12 NUniq=   12 SFac= 1.00D+00 NAtFMM=   60 NAOKFM=F Big=F
 Integral buffers will be    131072 words long.
 Raffenetti 2 integral format.
 Two-electron integral symmetry is turned off.
 Leave Link  301 at Sat May 24 05:06:14 2025, MaxMem=  3758096384 cpu:               0.1 elap:               0.0
 (Enter /apps/easybuild-2022/easybuild/software/Compiler/NVHPC/22.11-CUDA-11.7.0/Gaussian/g16c01-CUDA-11.7.0/g16/l302.exe)
 NPDir=0 NMtPBC=     1 NCelOv=     1 NCel=       1 NClECP=     1 NCelD=      1
         NCelK=      1 NCelE2=     1 NClLst=     1 CellRange=     0.0.
 One-electron integrals computed using PRISM.
   1 Symmetry operations used in ECPInt.
 ECPInt:  NShTT=    8515 NPrTT=   27988 LenC2=    8023 LenP2D=   19517.
 LDataN:  DoStor=T MaxTD1= 6 Len=  172
 NBasis=   366 RedAO= T EigKep=  5.95D-04  NBF=   366
 NBsUse=   366 1.00D-06 EigRej= -1.00D+00 NBFU=   366
 Precomputing XC quadrature grid using
 IXCGrd= 4 IRadAn=           5 IRanWt=          -1 IRanGd=           0 AccXCQ= 0.00D+00.
 Generated NRdTot=       0 NPtTot=           0 NUsed=           0 NTot=          32
 NSgBfM=   420   419   420   420   420 MxSgAt=    12 MxSgA2=    12.
 Leave Link  302 at Sat May 24 05:06:14 2025, MaxMem=  3758096384 cpu:               0.8 elap:               0.2
 (Enter /apps/easybuild-2022/easybuild/software/Compiler/NVHPC/22.11-CUDA-11.7.0/Gaussian/g16c01-CUDA-11.7.0/g16/l303.exe)
 DipDrv:  MaxL=1.
 Leave Link  303 at Sat May 24 05:06:14 2025, MaxMem=  3758096384 cpu:               0.2 elap:               0.1
 (Enter /apps/easybuild-2022/easybuild/software/Compiler/NVHPC/22.11-CUDA-11.7.0/Gaussian/g16c01-CUDA-11.7.0/g16/l401.exe)
 Initial guess from the checkpoint file:  "2003846667223680600001_r12_insertion_R_5_2_1_IRC_R_prod.chk"
 B after Tr=     0.022275   -0.010737    0.017975
         Rot=    0.999971   -0.000974    0.005840    0.004828 Ang=  -0.88 deg.
 Guess basis will be translated and rotated to current coordinates.
 JPrj=2 DoOrth=T DoCkMO=T.
 Generating alternative initial guess.
 ExpMin= 9.52D-02 ExpMax= 6.07D+04 ExpMxC= 2.07D+03 IAcc=3 IRadAn=         5 AccDes= 0.00D+00
 Harris functional with IExCor= 1009 and IRadAn=       5 diagonalized for initial guess.
 HarFok:  IExCor= 1009 AccDes= 0.00D+00 IRadAn=         5 IDoV= 1 UseB2=F ITyADJ=14
 ICtDFT=  3500011 ScaDFX=  1.000000  1.000000  1.000000  1.000000
 FoFCou: FMM=F IPFlag=           0 FMFlag=      100000 FMFlg1=           0
         NFxFlg=           0 DoJE=T BraDBF=F KetDBF=T FulRan=T
         wScrn=  0.000000 ICntrl=       500 IOpCl=  0 I1Cent=   200000004 NGrid=           0
         NMat0=    1 NMatS0=      1 NMatT0=    0 NMatD0=    1 NMtDS0=    0 NMtDT0=    0
 Symmetry not used in FoFCou.
 Harris En= -1199.29601325776    
 Leave Link  401 at Sat May 24 05:06:15 2025, MaxMem=  3758096384 cpu:               4.6 elap:               0.7
 (Enter /apps/easybuild-2022/easybuild/software/Compiler/NVHPC/22.11-CUDA-11.7.0/Gaussian/g16c01-CUDA-11.7.0/g16/l502.exe)
 Keep R1 ints in memory in canonical form, NReq=2293446996.
 FoFCou: FMM=F IPFlag=           0 FMFlag=           0 FMFlg1=           0
         NFxFlg=           0 DoJE=F BraDBF=F KetDBF=F FulRan=T
         wScrn=  0.000000 ICntrl=       600 IOpCl=  0 I1Cent=           0 NGrid=           0
         NMat0=    1 NMatS0=  67161 NMatT0=    0 NMatD0=    1 NMtDS0=    0 NMtDT0=    0
 Symmetry not used in FoFCou.
 Two-electron integral symmetry not used.
 Closed shell SCF:
 Using DIIS extrapolation, IDIIS=  1040.
 NGot=  3758096384 LenX=  1502398672 LenY=  1502219302
 Requested convergence on RMS density matrix=1.00D-08 within  32 cycles.
 Requested convergence on MAX density matrix=1.00D-06.
 Requested convergence on             energy=1.00D-06.
 No special actions if energy rises.
 Integral accuracy reduced to 1.0D-05 until final iterations.

 Cycle   1  Pass 0  IDiag  1:
 E= -1199.87299889118    
 DIIS: error= 3.46D-03 at cycle   1 NSaved=   1.
 NSaved= 1 IEnMin= 1 EnMin= -1199.87299889118     IErMin= 1 ErrMin= 3.46D-03
 ErrMax= 3.46D-03  0.00D+00 EMaxC= 1.00D-01 BMatC= 1.15D-02 BMatP= 1.15D-02
 IDIUse=3 WtCom= 9.65D-01 WtEn= 3.46D-02
 Coeff-Com:  0.100D+01
 Coeff-En:   0.100D+01
 Coeff:      0.100D+01
 Gap=     1.065 Goal=   None    Shift=    0.000
 GapD=    1.065 DampG=2.000 DampE=1.000 DampFc=2.0000 IDamp=-1.
 RMSDP=3.25D-04 MaxDP=1.54D-02              OVMax= 4.27D-02

 Cycle   2  Pass 0  IDiag  1:
 E= -1199.88733450417     Delta-E=       -0.014335612993 Rises=F Damp=F
 DIIS: error= 7.42D-04 at cycle   2 NSaved=   2.
 NSaved= 2 IEnMin= 2 EnMin= -1199.88733450417     IErMin= 2 ErrMin= 7.42D-04
 ErrMax= 7.42D-04  0.00D+00 EMaxC= 1.00D-01 BMatC= 4.63D-04 BMatP= 1.15D-02
 IDIUse=3 WtCom= 9.93D-01 WtEn= 7.42D-03
 Coeff-Com: -0.786D-01 0.108D+01
 Coeff-En:   0.000D+00 0.100D+01
 Coeff:     -0.781D-01 0.108D+01
 Gap=     0.429 Goal=   None    Shift=    0.000
 RMSDP=8.75D-05 MaxDP=3.08D-03 DE=-1.43D-02 OVMax= 1.05D-02

 Cycle   3  Pass 0  IDiag  1:
 E= -1199.88796909455     Delta-E=       -0.000634590378 Rises=F Damp=F
 DIIS: error= 6.40D-04 at cycle   3 NSaved=   3.
 NSaved= 3 IEnMin= 3 EnMin= -1199.88796909455     IErMin= 3 ErrMin= 6.40D-04
 ErrMax= 6.40D-04  0.00D+00 EMaxC= 1.00D-01 BMatC= 2.90D-04 BMatP= 4.63D-04
 IDIUse=3 WtCom= 9.94D-01 WtEn= 6.40D-03
 Coeff-Com: -0.662D-01 0.498D+00 0.568D+00
 Coeff-En:   0.000D+00 0.000D+00 0.100D+01
 Coeff:     -0.657D-01 0.495D+00 0.571D+00
 Gap=     0.430 Goal=   None    Shift=    0.000
 RMSDP=2.93D-05 MaxDP=1.64D-03 DE=-6.35D-04 OVMax= 3.99D-03

 Cycle   4  Pass 0  IDiag  1:
 E= -1199.88816613120     Delta-E=       -0.000197036645 Rises=F Damp=F
 DIIS: error= 1.54D-04 at cycle   4 NSaved=   4.
 NSaved= 4 IEnMin= 4 EnMin= -1199.88816613120     IErMin= 4 ErrMin= 1.54D-04
 ErrMax= 1.54D-04  0.00D+00 EMaxC= 1.00D-01 BMatC= 2.49D-05 BMatP= 2.90D-04
 IDIUse=3 WtCom= 9.98D-01 WtEn= 1.54D-03
 Coeff-Com: -0.103D-01 0.460D-02 0.212D+00 0.794D+00
 Coeff-En:   0.000D+00 0.000D+00 0.000D+00 0.100D+01
 Coeff:     -0.103D-01 0.460D-02 0.212D+00 0.794D+00
 Gap=     0.430 Goal=   None    Shift=    0.000
 RMSDP=1.12D-05 MaxDP=4.53D-04 DE=-1.97D-04 OVMax= 1.23D-03

 Cycle   5  Pass 0  IDiag  1:
 E= -1199.88818610641     Delta-E=       -0.000019975208 Rises=F Damp=F
 DIIS: error= 5.78D-05 at cycle   5 NSaved=   5.
 NSaved= 5 IEnMin= 5 EnMin= -1199.88818610641     IErMin= 5 ErrMin= 5.78D-05
 ErrMax= 5.78D-05  0.00D+00 EMaxC= 1.00D-01 BMatC= 2.81D-06 BMatP= 2.49D-05
 IDIUse=1 WtCom= 1.00D+00 WtEn= 0.00D+00
 Coeff-Com:  0.201D-02-0.478D-01 0.348D-01 0.328D+00 0.683D+00
 Coeff:      0.201D-02-0.478D-01 0.348D-01 0.328D+00 0.683D+00
 Gap=     0.430 Goal=   None    Shift=    0.000
 RMSDP=3.99D-06 MaxDP=2.15D-04 DE=-2.00D-05 OVMax= 4.86D-04

 Initial convergence to 1.0D-05 achieved.  Increase integral accuracy.
 Cycle   6  Pass 1  IDiag  1:
 E= -1199.88820227465     Delta-E=       -0.000016168248 Rises=F Damp=F
 DIIS: error= 3.55D-05 at cycle   1 NSaved=   1.
 NSaved= 1 IEnMin= 1 EnMin= -1199.88820227465     IErMin= 1 ErrMin= 3.55D-05
 ErrMax= 3.55D-05  0.00D+00 EMaxC= 1.00D-01 BMatC= 1.37D-06 BMatP= 1.37D-06
 IDIUse=1 WtCom= 1.00D+00 WtEn= 0.00D+00
 Coeff-Com:  0.100D+01
 Coeff:      0.100D+01
 Gap=     0.430 Goal=   None    Shift=    0.000
 RMSDP=3.99D-06 MaxDP=2.15D-04 DE=-1.62D-05 OVMax= 3.39D-04

 Cycle   7  Pass 1  IDiag  1:
 E= -1199.88820289124     Delta-E=       -0.000000616586 Rises=F Damp=F
 DIIS: error= 3.39D-05 at cycle   2 NSaved=   2.
 NSaved= 2 IEnMin= 2 EnMin= -1199.88820289124     IErMin= 2 ErrMin= 3.39D-05
 ErrMax= 3.39D-05  0.00D+00 EMaxC= 1.00D-01 BMatC= 8.09D-07 BMatP= 1.37D-06
 IDIUse=1 WtCom= 1.00D+00 WtEn= 0.00D+00
 Coeff-Com:  0.409D+00 0.591D+00
 Coeff:      0.409D+00 0.591D+00
 Gap=     0.430 Goal=   None    Shift=    0.000
 RMSDP=1.89D-06 MaxDP=1.30D-04 DE=-6.17D-07 OVMax= 2.62D-04

 Cycle   8  Pass 1  IDiag  1:
 E= -1199.88820331827     Delta-E=       -0.000000427031 Rises=F Damp=F
 DIIS: error= 1.54D-05 at cycle   3 NSaved=   3.
 NSaved= 3 IEnMin= 3 EnMin= -1199.88820331827     IErMin= 3 ErrMin= 1.54D-05
 ErrMax= 1.54D-05  0.00D+00 EMaxC= 1.00D-01 BMatC= 1.80D-07 BMatP= 8.09D-07
 IDIUse=1 WtCom= 1.00D+00 WtEn= 0.00D+00
 Coeff-Com: -0.342D-01 0.312D+00 0.722D+00
 Coeff:     -0.342D-01 0.312D+00 0.722D+00
 Gap=     0.430 Goal=   None    Shift=    0.000
 RMSDP=7.65D-07 MaxDP=4.17D-05 DE=-4.27D-07 OVMax= 9.50D-05

 Cycle   9  Pass 1  IDiag  1:
 E= -1199.88820344092     Delta-E=       -0.000000122647 Rises=F Damp=F
 DIIS: error= 1.91D-06 at cycle   4 NSaved=   4.
 NSaved= 4 IEnMin= 4 EnMin= -1199.88820344092     IErMin= 4 ErrMin= 1.91D-06
 ErrMax= 1.91D-06  0.00D+00 EMaxC= 1.00D-01 BMatC= 4.67D-09 BMatP= 1.80D-07
 IDIUse=1 WtCom= 1.00D+00 WtEn= 0.00D+00
 Coeff-Com: -0.244D-01 0.111D+00 0.292D+00 0.622D+00
 Coeff:     -0.244D-01 0.111D+00 0.292D+00 0.622D+00
 Gap=     0.430 Goal=   None    Shift=    0.000
 RMSDP=1.43D-07 MaxDP=8.62D-06 DE=-1.23D-07 OVMax= 1.47D-05

 Cycle  10  Pass 1  IDiag  1:
 E= -1199.88820344413     Delta-E=       -0.000000003214 Rises=F Damp=F
 DIIS: error= 6.22D-07 at cycle   5 NSaved=   5.
 NSaved= 5 IEnMin= 5 EnMin= -1199.88820344413     IErMin= 5 ErrMin= 6.22D-07
 ErrMax= 6.22D-07  0.00D+00 EMaxC= 1.00D-01 BMatC= 5.61D-10 BMatP= 4.67D-09
 IDIUse=1 WtCom= 1.00D+00 WtEn= 0.00D+00
 Coeff-Com: -0.405D-02-0.622D-02-0.107D-02 0.225D+00 0.786D+00
 Coeff:     -0.405D-02-0.622D-02-0.107D-02 0.225D+00 0.786D+00
 Gap=     0.430 Goal=   None    Shift=    0.000
 RMSDP=6.07D-08 MaxDP=4.11D-06 DE=-3.21D-09 OVMax= 5.47D-06

 Cycle  11  Pass 1  IDiag  1:
 E= -1199.88820344451     Delta-E=       -0.000000000380 Rises=F Damp=F
 DIIS: error= 3.23D-07 at cycle   6 NSaved=   6.
 NSaved= 6 IEnMin= 6 EnMin= -1199.88820344451     IErMin= 6 ErrMin= 3.23D-07
 ErrMax= 3.23D-07  0.00D+00 EMaxC= 1.00D-01 BMatC= 1.20D-10 BMatP= 5.61D-10
 IDIUse=1 WtCom= 1.00D+00 WtEn= 0.00D+00
 Coeff-Com:  0.147D-02-0.181D-01-0.404D-01 0.177D-01 0.376D+00 0.664D+00
 Coeff:      0.147D-02-0.181D-01-0.404D-01 0.177D-01 0.376D+00 0.664D+00
 Gap=     0.430 Goal=   None    Shift=    0.000
 RMSDP=2.37D-08 MaxDP=2.04D-06 DE=-3.80D-10 OVMax= 2.54D-06

 Cycle  12  Pass 1  IDiag  1:
 E= -1199.88820344465     Delta-E=       -0.000000000138 Rises=F Damp=F
 DIIS: error= 9.13D-08 at cycle   7 NSaved=   7.
 NSaved= 7 IEnMin= 7 EnMin= -1199.88820344465     IErMin= 7 ErrMin= 9.13D-08
 ErrMax= 9.13D-08  0.00D+00 EMaxC= 1.00D-01 BMatC= 6.37D-12 BMatP= 1.20D-10
 IDIUse=1 WtCom= 1.00D+00 WtEn= 0.00D+00
 Coeff-Com:  0.785D-03-0.622D-02-0.145D-01-0.992D-02 0.734D-01 0.230D+00
 Coeff-Com:  0.727D+00
 Coeff:      0.785D-03-0.622D-02-0.145D-01-0.992D-02 0.734D-01 0.230D+00
 Coeff:      0.727D+00
 Gap=     0.430 Goal=   None    Shift=    0.000
 RMSDP=6.49D-09 MaxDP=5.84D-07 DE=-1.38D-10 OVMax= 8.04D-07

 SCF Done:  E(RM062X) =  -1199.88820344     A.U. after   12 cycles
            NFock= 12  Conv=0.65D-08     -V/T= 2.0029
 KE= 1.196435740009D+03 PE=-4.720339878189D+03 EE= 1.387085648659D+03
 Leave Link  502 at Sat May 24 05:06:49 2025, MaxMem=  3758096384 cpu:             136.7 elap:              33.9
 (Enter /apps/easybuild-2022/easybuild/software/Compiler/NVHPC/22.11-CUDA-11.7.0/Gaussian/g16c01-CUDA-11.7.0/g16/l508.exe)
 QCSCF skips out because SCF is already converged.
 Leave Link  508 at Sat May 24 05:06:49 2025, MaxMem=  3758096384 cpu:               0.1 elap:               0.0
 (Enter /apps/easybuild-2022/easybuild/software/Compiler/NVHPC/22.11-CUDA-11.7.0/Gaussian/g16c01-CUDA-11.7.0/g16/l701.exe)
 ... and contract with generalized density number  0.
 Compute integral first derivatives.
   1 Symmetry operations used in ECPInt.
 ECPInt:  NShTT=    8515 NPrTT=   27988 LenC2=    8023 LenP2D=   19517.
 LDataN:  DoStor=T MaxTD1= 7 Len=  274
 Leave Link  701 at Sat May 24 05:06:49 2025, MaxMem=  3758096384 cpu:               0.8 elap:               0.2
 (Enter /apps/easybuild-2022/easybuild/software/Compiler/NVHPC/22.11-CUDA-11.7.0/Gaussian/g16c01-CUDA-11.7.0/g16/l702.exe)
 L702 exits ... SP integral derivatives will be done elsewhere.
 Leave Link  702 at Sat May 24 05:06:49 2025, MaxMem=  3758096384 cpu:               0.0 elap:               0.0
 (Enter /apps/easybuild-2022/easybuild/software/Compiler/NVHPC/22.11-CUDA-11.7.0/Gaussian/g16c01-CUDA-11.7.0/g16/l703.exe)
 Integral derivatives from FoFJK, PRISM(SPDF).
 Compute integral first derivatives, UseDBF=F ICtDFT=           0.
 Calling FoFJK, ICntrl=      2127 FMM=F ISym2X=0 I1Cent= 0 IOpClX= 0 NMat=1 NMatS=1 NMatT=0.
 FoFJK:  IHMeth= 1 ICntrl=    2127 DoSepK=F KAlg= 0 I1Cent=           0 FoldK=F
 IRaf=         0 NMat=       1 IRICut=       1 DoRegI=T DoRafI=F ISym2E= 0 IDoP0=0 IntGTp=1.
 FoFCou: FMM=F IPFlag=           0 FMFlag=      100000 FMFlg1=         800
         NFxFlg=           0 DoJE=F BraDBF=F KetDBF=F FulRan=T
         wScrn=  0.000000 ICntrl=      2127 IOpCl=  0 I1Cent=           0 NGrid=           0
         NMat0=    1 NMatS0=      1 NMatT0=    0 NMatD0=    1 NMtDS0=    0 NMtDT0=    0
 Symmetry not used in FoFCou.
 Leave Link  703 at Sat May 24 05:07:00 2025, MaxMem=  3758096384 cpu:              89.3 elap:              11.4
 (Enter /apps/easybuild-2022/easybuild/software/Compiler/NVHPC/22.11-CUDA-11.7.0/Gaussian/g16c01-CUDA-11.7.0/g16/l716.exe)
 Dipole        = 3.74103247D-01 8.30818139D-01-6.39681482D-01
 -------------------------------------------------------------------
 Center     Atomic                   Forces (Hartrees/Bohr)
 Number     Number              X              Y              Z
 -------------------------------------------------------------------
      1        6          -0.011394313    0.024818422   -0.006020664
      2        6          -0.000074903   -0.040830755    0.008438794
      3        9           0.004760947   -0.011339148    0.004048646
      4        9           0.004375010   -0.014093342    0.001895908
      5       16           0.020374579    0.012249196   -0.000143791
      6        8           0.005354712    0.003517744    0.000013629
      7        8           0.005139618    0.002802180    0.000864590
      8        8           0.005422609    0.006595140    0.000726453
      9        9          -0.015319129   -0.003996918   -0.001611078
     10        9          -0.000765799    0.025905523   -0.005833164
     11        9          -0.016946677   -0.006441090   -0.000764364
     12        1          -0.000926653    0.000813047   -0.001614957
 -------------------------------------------------------------------
 Cartesian Forces:  Max     0.040830755 RMS     0.011686194
 Leave Link  716 at Sat May 24 05:07:01 2025, MaxMem=  3758096384 cpu:               0.0 elap:               0.0
 (Enter /apps/easybuild-2022/easybuild/software/Compiler/NVHPC/22.11-CUDA-11.7.0/Gaussian/g16c01-CUDA-11.7.0/g16/l103.exe)

 GradGradGradGradGradGradGradGradGradGradGradGradGradGradGradGradGradGrad
 Berny optimization.
 Using GEDIIS/GDIIS optimizer.
 FormGI is forming the generalized inverse of G from B-inverse, IUseBI=4.
 Internal  Forces:  Max     0.085011823 RMS     0.018033548
 Search for a local minimum.
 Step number   2 out of a maximum of   61
 All quantities printed in internal units (Hartrees-Bohrs-Radians)
 RMS Force = .18034D-01 SwitMx=.10000D-02 MixMth= 1
 Mixed Optimization -- RFO/linear search
 Update second derivatives using D2CorX and points    1    2
 DE= -3.65D-02 DEPred=-3.70D-02 R= 9.87D-01
 TightC=F SS=  1.41D+00  RLast= 4.49D-01 DXNew= 5.0454D-01 1.3471D+00
 Trust test= 9.87D-01 RLast= 4.49D-01 DXMaxT set to 5.05D-01
 ITU=  1  0
 Use linear search instead of GDIIS.
 Linear search step of   0.600 exceeds DXMaxT=   0.505 but not scaled.
 Quartic linear search produced a step of  2.00000.
 Iteration  1 RMS(Cart)=  0.15538184 RMS(Int)=  0.05776271
 Iteration  2 RMS(Cart)=  0.06528313 RMS(Int)=  0.00852752
 Iteration  3 RMS(Cart)=  0.01116338 RMS(Int)=  0.00388430
 Iteration  4 RMS(Cart)=  0.00002527 RMS(Int)=  0.00388427
 Iteration  5 RMS(Cart)=  0.00000023 RMS(Int)=  0.00388427
 ITry= 1 IFail=0 DXMaxC= 4.89D-01 DCOld= 1.00D+10 DXMaxT= 5.05D-01 DXLimC= 3.00D+00 Rises=F
 Variable       Old X    -DE/DX   Delta X   Delta X   Delta X     New X
                                 (Linear)    (Quad)   (Total)
    R1        3.40202  -0.03195  -0.41134   0.00000  -0.41134   2.99067
    R2        2.48193   0.00800   0.01731   0.00000   0.01731   2.49924
    R3        2.53323  -0.02081  -0.05791   0.00000  -0.05791   2.47532
    R4        2.47983   0.01048   0.02181   0.00000   0.02181   2.50164
    R5        2.50569  -0.00797  -0.00816   0.00000  -0.00816   2.49753
    R6        2.50515  -0.00973  -0.01470   0.00000  -0.01470   2.49044
    R7        3.32551   0.03037   0.09813   0.00000   0.09813   3.42364
    R8        2.67388  -0.00063  -0.00979   0.00000  -0.00979   2.66410
    R9        2.68856  -0.00087  -0.00351   0.00000  -0.00351   2.68506
   R10        2.95387   0.00866   0.01020   0.00000   0.01020   2.96407
   R11        1.82835   0.00039   0.00098   0.00000   0.00098   1.82933
    A1        1.78019   0.01398   0.09684   0.00000   0.09502   1.87521
    A2        2.22747  -0.03459  -0.22428   0.00000  -0.21689   2.01057
    A3        1.76152   0.01821   0.11186   0.00000   0.11174   1.87325
    A4        1.84359   0.00887   0.03531   0.00000   0.04119   1.88478
    A5        2.01478  -0.01662  -0.07038   0.00000  -0.08183   1.93295
    A6        1.84748   0.00624   0.03105   0.00000   0.03993   1.88740
    A7        1.95624  -0.03031  -0.07794   0.00000  -0.07531   1.88093
    A8        1.98133  -0.03187  -0.08654   0.00000  -0.08634   1.89499
    A9        1.59556   0.08501   0.25434   0.00000   0.26090   1.85646
   A10        1.87725   0.02428   0.05934   0.00000   0.04694   1.92419
   A11        2.02483  -0.02378  -0.07820   0.00000  -0.07677   1.94807
   A12        2.01975  -0.02345  -0.06665   0.00000  -0.06405   1.95570
   A13        1.81017   0.00755  -0.00365   0.00000  -0.00364   1.80653
   A14        1.82767   0.00650  -0.01308   0.00000  -0.01310   1.81457
   A15        1.82671  -0.00428   0.01082   0.00000   0.01086   1.83756
   A16        2.15048  -0.00163   0.00985   0.00000   0.00980   2.16028
   A17        1.91750  -0.00410  -0.00837   0.00000  -0.00835   1.90916
   A18        1.90049  -0.00318   0.00449   0.00000   0.00456   1.90505
   A19        1.92098   0.00086  -0.02010   0.00000  -0.02010   1.90088
    D1        0.02832   0.00411   0.02411   0.00000   0.02626   0.05458
    D2        2.15969  -0.01099  -0.02917   0.00000  -0.02097   2.13872
    D3       -2.04715  -0.00245   0.00646   0.00000   0.01045  -2.03670
    D4        2.13612   0.00682   0.02118   0.00000   0.01934   2.15546
    D5       -2.01569  -0.00828  -0.03209   0.00000  -0.02790  -2.04359
    D6        0.06065   0.00026   0.00353   0.00000   0.00353   0.06418
    D7       -2.05258   0.01086   0.03584   0.00000   0.02766  -2.02492
    D8        0.07879  -0.00424  -0.01743   0.00000  -0.01958   0.05921
    D9        2.15514   0.00430   0.01820   0.00000   0.01184   2.16698
   D10       -1.15882  -0.00248  -0.00234   0.00000  -0.00342  -1.16224
   D11        1.11572   0.00331   0.00001   0.00000  -0.00102   1.11470
   D12        3.11416   0.00068   0.00413   0.00000   0.00305   3.11721
   D13        3.10844  -0.00864  -0.03732   0.00000  -0.03461   3.07382
   D14       -0.90021  -0.00284  -0.03498   0.00000  -0.03221  -0.93242
   D15        1.09823  -0.00547  -0.03085   0.00000  -0.02814   1.07009
   D16        0.88443   0.00172   0.02327   0.00000   0.02158   0.90601
   D17       -3.12422   0.00751   0.02561   0.00000   0.02398  -3.10023
   D18       -1.12577   0.00488   0.02973   0.00000   0.02805  -1.09772
   D19       -2.14443   0.00137   0.38474   0.00000   0.38469  -1.75974
   D20        2.20492  -0.00347   0.38711   0.00000   0.38713   2.59205
   D21       -0.19775   0.00541   0.37683   0.00000   0.37685   0.17910
         Item               Value     Threshold  Converged?
 Maximum Force            0.085012     0.000450     NO 
 RMS     Force            0.018034     0.000300     NO 
 Maximum Displacement     0.489170     0.001800     NO 
 RMS     Displacement     0.189443     0.001200     NO 
 Predicted change in Energy=-5.279952D-02
 Lowest energy point so far.  Saving SCF results.
 GradGradGradGradGradGradGradGradGradGradGradGradGradGradGradGradGradGrad

 Leave Link  103 at Sat May 24 05:07:01 2025, MaxMem=  3758096384 cpu:               0.1 elap:               0.0
 (Enter /apps/easybuild-2022/easybuild/software/Compiler/NVHPC/22.11-CUDA-11.7.0/Gaussian/g16c01-CUDA-11.7.0/g16/l202.exe)
                          Input orientation:                          
 ---------------------------------------------------------------------
 Center     Atomic      Atomic             Coordinates (Angstroms)
 Number     Number       Type             X           Y           Z
 ---------------------------------------------------------------------
      1          6           0       -1.014278   -0.959342    0.063340
      2          6           0       -0.439608    0.498418   -0.158691
      3          9           0       -0.690509    0.844748   -1.409223
      4          9           0       -1.047430    1.320454    0.672952
      5         16           0        1.340740    0.399695    0.162119
      6          8           0        1.411548    0.115273    1.541092
      7          8           0        1.823774   -0.472581   -0.850148
      8          8           0        1.888935    1.845720   -0.100062
      9          9           0       -1.495648   -1.376473   -1.095714
     10          9           0       -0.143820   -1.844162    0.481890
     11          9           0       -1.977955   -0.869964    0.966563
     12          1           0        2.301118    1.871059   -0.975600
 ---------------------------------------------------------------------
                    Distance matrix (angstroms):
                    1          2          3          4          5
     1  C    0.000000
     2  C    1.582595   0.000000
     3  F    2.351171   1.321637   0.000000
     4  F    2.360126   1.317886   2.165442   0.000000
     5  S    2.720818   1.811712   2.606369   2.610001   0.000000
     6  O    3.036969   2.542211   3.695285   2.872752   1.409778
     7  O    3.020917   2.558094   2.893015   3.711956   1.420870
     8  O    4.040262   2.690868   3.060944   3.081508   1.568517
     9  F    1.322543   2.347008   2.383350   3.256147   3.575194
[...]
   D18       -1.15683  -0.00000   0.00000   0.00017   0.00017  -1.15667
   D19       -1.54511   0.00000   0.00000   0.00003   0.00003  -1.54507
   D20        2.78610  -0.00000   0.00000   0.00003   0.00003   2.78613
   D21        0.39935   0.00000   0.00000   0.00005   0.00005   0.39940
         Item               Value     Threshold  Converged?
 Maximum Force            0.000020     0.000450     YES
 RMS     Force            0.000005     0.000300     YES
 Maximum Displacement     0.000449     0.001800     YES
 RMS     Displacement     0.000139     0.001200     YES
 Predicted change in Energy=-2.267430D-09
 Optimization completed.
    -- Stationary point found.
                           ----------------------------
                           !   Optimized Parameters   !
                           ! (Angstroms and Degrees)  !
 --------------------------                            --------------------------
 ! Name  Definition              Value          Derivative Info.                !
 --------------------------------------------------------------------------------
 ! R1    R(1,2)                  1.5459         -DE/DX =    0.0                 !
 ! R2    R(1,9)                  1.321          -DE/DX =    0.0                 !
 ! R3    R(1,10)                 1.3231         -DE/DX =    0.0                 !
 ! R4    R(1,11)                 1.3254         -DE/DX =    0.0                 !
 ! R5    R(2,3)                  1.3389         -DE/DX =    0.0                 !
 ! R6    R(2,4)                  1.33           -DE/DX =    0.0                 !
 ! R7    R(2,5)                  1.8433         -DE/DX =    0.0                 !
 ! R8    R(5,6)                  1.4109         -DE/DX =    0.0                 !
 ! R9    R(5,7)                  1.4191         -DE/DX =    0.0                 !
 ! R10   R(5,8)                  1.5717         -DE/DX =    0.0                 !
 ! R11   R(8,12)                 0.9682         -DE/DX =    0.0                 !
 ! A1    A(2,1,9)              110.5414         -DE/DX =    0.0                 !
 ! A2    A(2,1,10)             110.0829         -DE/DX =    0.0                 !
 ! A3    A(2,1,11)             108.6646         -DE/DX =    0.0                 !
 ! A4    A(9,1,10)             109.4472         -DE/DX =    0.0                 !
 ! A5    A(9,1,11)             108.963          -DE/DX =    0.0                 !
 ! A6    A(10,1,11)            109.1117         -DE/DX =    0.0                 !
 ! A7    A(1,2,3)              108.5156         -DE/DX =    0.0                 !
 ! A8    A(1,2,4)              108.9741         -DE/DX =    0.0                 !
 ! A9    A(1,2,5)              113.7321         -DE/DX =    0.0                 !
 ! A10   A(3,2,4)              109.3165         -DE/DX =    0.0                 !
 ! A11   A(3,2,5)              107.6917         -DE/DX =    0.0                 !
 ! A12   A(4,2,5)              108.5395         -DE/DX =    0.0                 !
 ! A13   A(2,5,6)              107.8694         -DE/DX =    0.0                 !
 ! A14   A(2,5,7)              106.9323         -DE/DX =    0.0                 !
 ! A15   A(2,5,8)               98.5193         -DE/DX =    0.0                 !
 ! A16   A(6,5,7)              123.7997         -DE/DX =    0.0                 !
 ! A17   A(6,5,8)              107.3835         -DE/DX =    0.0                 !
 ! A18   A(7,5,8)              109.4127         -DE/DX =    0.0                 !
 ! A19   A(5,8,12)             110.3082         -DE/DX =    0.0                 !
 ! D1    D(9,1,2,3)             53.0629         -DE/DX =    0.0                 !
 ! D2    D(9,1,2,4)            172.012          -DE/DX =    0.0                 !
 ! D3    D(9,1,2,5)            -66.7601         -DE/DX =    0.0                 !
 ! D4    D(10,1,2,3)           174.0978         -DE/DX =    0.0                 !
 ! D5    D(10,1,2,4)           -66.9532         -DE/DX =    0.0                 !
 ! D6    D(10,1,2,5)            54.2747         -DE/DX =    0.0                 !
 ! D7    D(11,1,2,3)           -66.4657         -DE/DX =    0.0                 !
 ! D8    D(11,1,2,4)            52.4834         -DE/DX =    0.0                 !
 ! D9    D(11,1,2,5)           173.7113         -DE/DX =    0.0                 !
 ! D10   D(1,2,5,6)            -76.3008         -DE/DX =    0.0                 !
 ! D11   D(1,2,5,7)             58.863          -DE/DX =    0.0                 !
 ! D12   D(1,2,5,8)            172.2481         -DE/DX =    0.0                 !
 ! D13   D(3,2,5,6)            163.4107         -DE/DX =    0.0                 !
 ! D14   D(3,2,5,7)            -61.4256         -DE/DX =    0.0                 !
 ! D15   D(3,2,5,8)             51.9596         -DE/DX =    0.0                 !
 ! D16   D(4,2,5,6)             45.1693         -DE/DX =    0.0                 !
 ! D17   D(4,2,5,7)           -179.6669         -DE/DX =    0.0                 !
 ! D18   D(4,2,5,8)            -66.2817         -DE/DX =    0.0                 !
 ! D19   D(2,5,8,12)           -88.5281         -DE/DX =    0.0                 !
 ! D20   D(6,5,8,12)           159.6318         -DE/DX =    0.0                 !
 ! D21   D(7,5,8,12)            22.8813         -DE/DX =    0.0                 !
 --------------------------------------------------------------------------------
 GradGradGradGradGradGradGradGradGradGradGradGradGradGradGradGradGradGrad

 Leave Link  103 at Sat May 24 05:28:23 2025, MaxMem=  3758096384 cpu:               0.1 elap:               0.0
 (Enter /apps/easybuild-2022/easybuild/software/Compiler/NVHPC/22.11-CUDA-11.7.0/Gaussian/g16c01-CUDA-11.7.0/g16/l9999.exe)

 ----------------------------------------------------------------------

 Electric dipole moment (input orientation):
 (Debye = 10**-18 statcoulomb cm , SI units = C m)
                  (au)            (Debye)         (10**-30 SI)
   Tot        0.108864D+01      0.276704D+01      0.922984D+01
   x         -0.160394D+00     -0.407681D+00     -0.135988D+01
   y          0.794632D+00      0.201975D+01      0.673717D+01
   z         -0.726610D+00     -0.184686D+01     -0.616046D+01

 Dipole polarizability, Alpha (input orientation).
 (esu units = cm**3 , SI units = C**2 m**2 J**-1)
 Alpha(0;0):
               (au)            (10**-24 esu)      (10**-40 SI)
   iso        0.534826D+02      0.792530D+01      0.881809D+01
   aniso      0.567265D+01      0.840600D+00      0.935294D+00
   xx         0.561346D+02      0.831829D+01      0.925535D+01
   yx         0.195886D+01      0.290273D+00      0.322972D+00
   yy         0.510769D+02      0.756881D+01      0.842144D+01
   zx        -0.312200D+00     -0.462632D-01     -0.514748D-01
   zy        -0.592415D+00     -0.877868D-01     -0.976760D-01
   zz         0.532362D+02      0.788879D+01      0.877747D+01

 ----------------------------------------------------------------------

 Dipole orientation:
     6         -2.15824714          1.27160504         -1.06800173
     6         -0.65392980         -0.52053231          0.68103658
     9         -0.87249730          0.30923578          3.06121148
     9         -1.62638192         -2.83203160          0.51382543
    16          2.74252169         -0.69064041         -0.07301875
     8          3.02341214         -2.21324728         -2.24365931
     8          3.71520652          1.79946748          0.13857625
     8          3.63124133         -2.29920621          2.26031268
     9         -1.45544559          3.63991739         -0.70880320
     9         -1.78776356          0.64707872         -3.46053666
     9         -4.59536382          1.05560272         -0.53200251
     1          4.04967841         -1.20348926          3.66466728

 Electric dipole moment (dipole orientation):
 (Debye = 10**-18 statcoulomb cm , SI units = C m)
                  (au)            (Debye)         (10**-30 SI)
   Tot        0.108864D+01      0.276704D+01      0.922984D+01
   x          0.000000D+00      0.000000D+00      0.000000D+00
   y          0.000000D+00      0.000000D+00      0.000000D+00
   z          0.108864D+01      0.276704D+01      0.922984D+01

 Dipole polarizability, Alpha (dipole orientation).
 (esu units = cm**3 , SI units = C**2 m**2 J**-1)
 Alpha(0;0):
               (au)            (10**-24 esu)      (10**-40 SI)
   iso        0.534826D+02      0.792530D+01      0.881809D+01
   aniso      0.567265D+01      0.840600D+00      0.935294D+00
   xx         0.564021D+02      0.835793D+01      0.929945D+01
   yx        -0.122302D+01     -0.181233D+00     -0.201649D+00
   yy         0.518025D+02      0.767633D+01      0.854107D+01
   zx         0.115757D+01      0.171535D+00      0.190858D+00
   zy         0.120382D+01      0.178388D+00      0.198484D+00
   zz         0.522431D+02      0.774163D+01      0.861373D+01

 ----------------------------------------------------------------------
 Unable to Open any file for archive entry.
 1\1\GINC-SPARTAN-BM179\Freq\RM062X\def2TZVPP\C2H1F5O3S1\AKHALILOV\24-M
 ay-2025\0\\#P Geom=AllCheck Guess=TCheck SCRF=Check GenChk RM062X/def2
 TZVPP Freq\\Gaussian input prepared by ASE\\0,1\C,-1.087358751,-0.9440
 821759,0.0543127712\C,-0.3768718806,0.4281789895,0.0115056923\F,-0.704
 9205595,1.0413054128,-1.1326394253\F,-0.7928436254,1.1627457315,1.0392
 322223\S,1.461651198,0.314089604,0.0787355135\O,1.8295604415,0.0335091
 189,1.4116328694\O,1.8681881183,-0.4676402127,-1.0336755985\O,1.798798
 2016,1.824929821,-0.1933547835\F,-0.82912988,-1.6341520112,-1.04214478
 29\F,-0.6860073504,-1.6307031284,1.1117015854\F,-2.3946536184,-0.74244
 39512,0.1384450522\H,1.8704537059,1.9871078018,-1.1452321163\\Version=
 ES64L-G16RevC.01\HF=-1199.9406777\RMSD=1.501e-09\RMSF=6.083e-06\ZeroPo
 int=0.0531858\Thermal=0.0634873\ETot=-1199.8771904\HTot=-1199.8762462\
 GTot=-1199.9246611\Dipole=-0.1603941,0.7946315,-0.7266101\DipoleDeriv=
 1.6498342,-0.1015211,0.0044325,0.2084838,1.4194443,0.005455,-0.0040757
 ,0.0009851,1.5468844,0.8061685,-0.1965018,-0.014518,-0.3369255,0.70354
 38,0.0256805,-0.0128145,0.0208326,1.0946909,-0.4382872,0.0726639,-0.18
 19804,0.1151444,-0.4006336,0.2894515,-0.2123655,0.2065945,-0.6614092,-
 0.4537635,0.1222495,0.2032279,0.1691271,-0.4470147,-0.3002831,0.214230
 9,-0.2157427,-0.5598254,1.8905171,0.1440793,-0.0318005,0.0639727,2.196
 0268,-0.1022988,-0.0313178,-0.0267559,2.106335,-0.7157048,0.0256854,-0
 .171244,0.0410974,-0.515915,0.0582695,-0.2600712,0.124724,-0.9754386,-
 0.7365987,0.1056361,0.1584333,0.1290824,-0.7270137,-0.1615949,0.234128
 6,-0.2828605,-0.8582404,-0.6492304,-0.2242926,0.0711789,-0.3594971,-1.
 2381475,0.2536121,0.1385873,0.3140779,-0.508266,-0.3148729,-0.0084574,
 0.0523401,-0.0137957,-0.5007288,-0.2908548,0.0714983,-0.2386054,-0.640
 0182,-0.3485459,0.0207475,-0.0962123,0.0296402,-0.495639,0.28795,-0.12
 07364,0.2318312,-0.612855,-1.0363039,0.0166193,0.0401698,-0.0711392,-0
 .3450977,0.0001344,0.0502197,0.0005697,-0.2633923,0.3467874,0.0230919,
 -0.0340274,0.0248095,0.3511749,-0.0655216,-0.0672838,-0.1356505,0.3315
 349\Polar=56.1346327,1.9588592,51.0768614,-0.3121995,-0.5924146,53.236
 2257\PG=Unknown\NImag=0\\0.59656057,0.01145113,0.61830755,-0.00002990,
 0.00227659,0.60945683,-0.09537586,-0.04094000,-0.00004711,0.46899331,-
 0.08165326,-0.16406250,0.00363702,-0.01764166,0.57329237,0.00241433,0.
 00549814,-0.03938693,-0.00946820,0.00565412,0.55321432,0.00348343,-0.0
 0456807,0.00593924,-0.09163690,0.03888625,-0.06124270,0.08591692,0.020
 60942,-0.01458623,0.03987766,0.03275112,-0.14469589,0.10101784,-0.0428
 3476,0.14875092,-0.01158906,0.00941974,-0.02645554,-0.05436349,0.11409
 142,-0.22546850,0.07521826,-0.14006584,0.33431823,0.00160466,-0.004757
 68,-0.00274528,-0.10301834,0.05985922,0.06919446,0.01344991,-0.0066099
 5,-0.00132817,0.10075210,0.02335717,-0.01899869,-0.04048779,0.04954967
 ,-0.17702769,-0.11218341,-0.00619572,0.02258322,0.00120565,-0.06725709
 ,0.18748822,0.00989250,-0.01119790,-0.01948533,0.06409453,-0.12470350,
 -0.20331535,0.00982071,-0.01295748,-0.07645191,-0.08970378,0.16284051,
 0.29997680,-0.01683039,-0.03501718,-0.00042925,-0.16714223,0.02559008,
 -0.00747329,-0.00264264,-0.00337531,0.00099318,-0.00393663,-0.00021961
 ,0.00097423,0.57049734,-0.03300916,0.02263541,-0.00032318,-0.02170396,
 -0.04839430,-0.00105582,0.02032889,-0.00985006,0.01437812,0.02728681,-
 0.01138971,-0.01299849,-0.08407256,0.72127695,0.00059458,-0.00052408,0
 .02489815,-0.00206968,0.00127441,-0.02589407,-0.03373303,0.01636167,-0
 .02714823,0.03059826,-0.01608059,-0.01980202,0.01504176,0.08909484,1.3
 1198073,0.00151231,0.00773970,0.00221103,0.01443439,-0.00034220,-0.020
 87020,-0.01127903,0.00483504,-0.00853727,-0.00164717,0.00088430,0.0012
 6844,-0.14881662,0.03782362,-0.17229010,0.11143302,0.00435743,-0.00615
 379,0.00289954,0.00177198,0.00705507,0.00329802,0.00087329,0.00058194,
 0.00078014,-0.00198876,0.00176150,0.00170730,0.03346330,-0.10704031,0.
 11233284,-0.03992146,0.10016269,-0.00127341,0.00739125,-0.00767103,0.0
 1615606,-0.00444379,-0.01373190,-0.00568425,0.00100249,-0.00128008,-0.
 00404577,0.00384030,0.00864138,-0.16522503,0.11364181,-0.66673473,0.17
 801326,-0.13757893,0.70147811,0.00308140,0.00632461,-0.00299673,0.0160
 4210,0.00964692,0.02079028,-0.00238048,0.00142306,-0.00344126,-0.01296
 817,0.00534871,0.00659486,-0.15695517,0.10535685,0.14708146,0.02342558
 ,-0.00306239,-0.01291841,0.11796687,0.00561412,-0.00919265,-0.00361437
 ,-0.00481411,0.00394995,-0.00888971,-0.00017385,0.00117138,0.00077207,
 0.00330210,0.00005673,-0.00131345,0.09873888,-0.27335014,-0.26156243,0
 .00196353,0.01531873,0.01208612,-0.11314203,0.28357984,0.00081460,-0.0
 0628963,-0.00703757,-0.01379938,-0.00249244,-0.00990319,0.00463160,-0.
 00259894,0.00881877,0.00485390,-0.00066991,0.00004676,0.14106471,-0.25
 766832,-0.46904133,0.01471832,-0.02488683,-0.01618579,-0.15331448,0.29
 565394,0.47805119,-0.00266258,0.01217305,-0.00054478,-0.00242559,-0.03
 242939,0.00303894,-0.00051752,-0.00154745,0.00037877,-0.00048895,0.002
 04141,0.00186442,-0.08275130,-0.05354255,0.00900354,0.01272806,0.00586
 857,-0.00315143,0.01868188,0.01050768,-0.00011931,0.06862608,0.0025058
 4,0.00623011,-0.00060584,0.01033505,-0.02698618,0.00706667,-0.00155084
 ,0.00662414,-0.00554705,-0.00488100,0.00640139,0.00392384,-0.04906844,
 -0.26361860,0.01288735,-0.00560226,-0.00896795,0.00661379,-0.00770747,
 -0.03219253,-0.00034130,0.07371847,0.35708792,-0.00017190,-0.00292178,
 -0.00273489,-0.00259842,0.01037938,-0.00032524,0.00219222,-0.00508783,
 0.00566560,-0.00138703,0.00082817,0.00174088,0.01402085,0.04362687,-0.
 10174100,0.00598361,0.04594389,-0.01625615,-0.00346763,-0.02963182,0.0
 1094041,-0.04930646,-0.11242108,0.59538860,-0.08300738,0.01452256,0.02
 780875,0.00968584,-0.00235011,-0.00802882,0.00029723,-0.00138155,0.000
 96207,0.00010399,-0.00464398,-0.00174376,-0.00102765,0.00488312,0.0037
 9801,0.00022073,-0.00044949,-0.00081241,-0.00236901,-0.00325694,-0.001
 88047,0.00064937,-0.00087188,-0.00029423,0.09540535,0.01244109,-0.1757
 7132,-0.11487741,0.00905379,-0.01319607,-0.03805313,-0.00048124,-0.000
 18197,0.00096165,-0.00341754,-0.01187526,-0.00409618,0.00705629,-0.004
 46362,-0.00184548,-0.00181378,0.00088914,-0.00056053,-0.00267319,0.002
 51717,0.00232150,-0.00227576,-0.00079971,0.00079052,-0.04359401,0.1799
 6368,0.02426441,-0.12279463,-0.23336957,0.00589678,-0.00789656,-0.0203
 0214,0.00017083,-0.00074269,0.00676873,-0.00257061,-0.00468661,0.00021
 645,0.00481344,-0.00332036,-0.00741232,-0.00150863,-0.00006855,0.00181
 379,-0.00033834,0.00280031,0.00410841,-0.00144448,-0.00039281,0.001236
 71,-0.06159059,0.16633173,0.34473146,-0.09148039,0.02954881,-0.0444077
 3,0.00881547,-0.00200153,0.00504061,0.00041434,-0.00375954,0.00201045,
 0.00041504,-0.00144152,-0.00061517,-0.00058008,0.00487080,-0.00443517,
 -0.00175103,-0.00285879,0.00202464,0.00012375,-0.00054855,0.00075416,0
 .00070539,-0.00067870,0.00057131,0.01348675,-0.00202362,-0.00447407,0.
 11372997,0.02648759,-0.17523727,0.11139608,0.01483168,-0.01205940,0.03
 780891,-0.00425076,-0.01196334,0.00541793,-0.00077026,-0.00038701,-0.0
 0226796,0.00624624,-0.00399083,0.00156403,-0.00303679,0.00100181,-0.00
 230331,-0.00181293,0.00156288,0.00059554,-0.00183166,-0.00039978,0.000
 00254,-0.00300779,0.02411417,-0.00887289,-0.06271844,0.17793340,-0.041
 61935,0.11758926,-0.22167475,-0.00957014,0.00865496,-0.01922231,0.0028
 5389,0.00515248,-0.00033694,0.00027096,0.00315332,0.00563433,-0.003801
 73,0.00268794,-0.00799952,0.00031283,-0.00207865,0.00431924,0.00153484
 ,0.00009418,0.00162758,0.00122958,0.00007441,0.00089999,-0.00887103,0.
 00888478,-0.08424392,0.09023461,-0.15843174,0.32334992,-0.31648079,0.0
 0368665,0.01512880,-0.05828628,0.00720643,0.00251934,0.00495672,-0.002
 64003,0.00248102,0.00560552,-0.00144309,-0.00163244,0.01116187,-0.0027
 0439,0.00040720,-0.00257526,0.00031112,-0.00194137,-0.00214002,0.00049
 885,0.00105181,-0.00408296,-0.00445675,0.00161677,-0.03346030,0.027563
 15,0.03682215,-0.04394147,0.02944909,-0.03231606,0.43945660,0.00871304
 ,-0.08300895,-0.00086315,-0.03153465,0.00297817,0.00028021,0.00009042,
 0.00150956,-0.00076183,-0.00193825,0.00168218,0.00159747,0.00716878,-0
 .00668846,0.00027858,-0.00169893,0.00151918,-0.00176072,-0.00127844,0.
 00211704,0.00148170,-0.00301755,-0.00141506,0.00070279,0.03986233,-0.0
 0120074,-0.02013150,0.04152480,-0.00068231,0.01441132,-0.05787334,0.08
 315627,0.01643955,-0.00011733,-0.07674072,0.00457302,-0.00122942,0.002
 67872,0.00073761,-0.00234630,0.00293780,-0.00265043,0.00209214,0.00275
 596,-0.00070284,0.00037982,-0.00263025,0.00002272,-0.00034962,0.001068
 07,0.00035099,0.00035206,0.00077013,0.00038136,0.00031868,0.00031932,0
 .05074431,-0.01946978,-0.01321778,-0.04661167,0.01526887,-0.00233581,-
 0.02323593,0.00520221,0.08438106,-0.00040499,-0.00016357,0.00011296,-0
 .00008590,-0.00477075,0.00408524,-0.00006198,0.00252995,-0.00278450,0.
 00012805,0.00001975,-0.00081454,-0.00097651,-0.00551748,0.00600316,0.0
 0231502,0.00163519,-0.00114189,-0.00250873,0.00131033,0.00122454,-0.00
 846187,-0.01174202,0.03284090,0.00001508,0.00016481,-0.00004088,0.0000
 6225,0.00041402,-0.00025840,-0.00021363,-0.00001821,-0.00004870,0.0101
 9321,-0.00087440,-0.00016169,0.00068484,-0.00165891,-0.00085352,-0.000
 44182,-0.00012359,0.00005633,-0.00065203,0.00117240,-0.00029488,-0.000
 53416,-0.00651047,-0.01512633,0.04621885,-0.00083078,-0.00612799,0.002
 07152,0.00157628,0.00446161,-0.00510530,-0.00966484,-0.04196375,0.0477
 8835,0.00028773,0.00000452,-0.00022544,0.00008628,0.00010768,-0.000192
 26,0.00040232,0.00003311,-0.00010133,0.01613798,0.05986491,0.00026363,
 0.00167037,0.00020133,0.00119602,-0.00292559,0.00165657,-0.00090438,0.
 00038694,-0.00136792,-0.00048651,0.00014821,0.00004205,0.00072395,0.01
 155675,-0.00847541,0.00067599,-0.00199916,0.00453909,0.00012442,-0.006
 74691,-0.00219537,0.03866985,0.08842334,-0.49513423,-0.00009183,-0.000
 38766,-0.00032983,-0.00009197,-0.00017801,-0.00001780,-0.00090128,-0.0
 0043707,0.00001351,-0.03917789,-0.08951122,0.50106802\\-0.00000275,-0.
 00000204,0.00000012,0.00000447,-0.00001851,0.00000037,0.00000106,0.000
 00026,-0.00000361,-0.00000356,0.00000537,0.00000292,0.00000258,-0.0000
 0008,0.00000306,-0.00000534,0.00000279,0.00000374,-0.00000090,-0.00000
 071,0.00000201,0.00000363,-0.00000262,0.00000547,0.00000588,0.00000066
 ,-0.00000104,-0.00001249,0.00001084,-0.00001834,0.00000172,0.00000718,
 -0.00000006,0.00000571,-0.00000314,0.00000538\\\@
 The archive entry for this job was punched.


 WHEN YOU REACH FOR THE STARS, YOU MAY NOT QUITE GET ONE,
 BUT YOU WON'T COME UP WITH A HANDFUL OF MUD, EITHER.

                                         -- LEO BURNETT (AD AGENCY HEAD)
 Job cpu time:       0 days  0 hours 35 minutes 12.4 seconds.
 Elapsed time:       0 days  0 hours  4 minutes 32.8 seconds.
 File lengths (MBytes):  RWF=    164 Int=      0 D2E=      0 Chk=     11 Scr=      1
 Normal termination of Gaussian 16 at Sat May 24 05:28:23 2025.
done
