 Entering Gaussian System, Link 0=g16
 Initial command:
 /apps/easybuild-2022/easybuild/software/Compiler/NVHPC/22.11-CUDA-11.7.0/Gaussian/g16c01-CUDA-11.7.0/g16/l1.exe "/tmp/Gau-244394.inp" -scrdir="/tmp/"
 Entering Link 1 = /apps/easybuild-2022/easybuild/software/Compiler/NVHPC/22.11-CUDA-11.7.0/Gaussian/g16c01-CUDA-11.7.0/g16/l1.exe PID=    244396.
  
 Copyright (c) 1988-2019, Gaussian, Inc.  All Rights Reserved.
  
 This is part of the Gaussian(R) 16 program.  It is based on
 the Gaussian(R) 09 system (copyright 2009, Gaussian, Inc.),
 the Gaussian(R) 03 system (copyright 2003, Gaussian, Inc.),
 the Gaussian(R) 98 system (copyright 1998, Gaussian, Inc.),
 the Gaussian(R) 94 system (copyright 1995, Gaussian, Inc.),
 the Gaussian 92(TM) system (copyright 1992, Gaussian, Inc.),
 the Gaussian 90(TM) system (copyright 1990, Gaussian, Inc.),
 the Gaussian 88(TM) system (copyright 1988, Gaussian, Inc.),
 the Gaussian 86(TM) system (copyright 1986, Carnegie Mellon
 University), and the Gaussian 82(TM) system (copyright 1983,
 Carnegie Mellon University). Gaussian is a federally registered
 trademark of Gaussian, Inc.
  
 This software contains proprietary and confidential information,
 including trade secrets, belonging to Gaussian, Inc.
  
 This software is provided under written license and may be
 used, copied, transmitted, or stored only in accord with that
 written license.
  
 The following legend is applicable only to US Government
 contracts under FAR:
  
                    RESTRICTED RIGHTS LEGEND
  
 Use, reproduction and disclosure by the US Government is
 subject to restrictions as set forth in subparagraphs (a)
 and (c) of the Commercial Computer Software - Restricted
 Rights clause in FAR 52.227-19.
  
 Gaussian, Inc.
 340 Quinnipiac St., Bldg. 40, Wallingford CT 06492
  
  
 ---------------------------------------------------------------
 Warning -- This program may not be used in any manner that
 competes with the business of Gaussian, Inc. or will provide
 assistance to any competitor of Gaussian, Inc.  The licensee
 of this program is prohibited from giving any competitor of
 Gaussian, Inc. access to this program.  By using this program,
 the user acknowledges that Gaussian, Inc. is engaged in the
 business of creating and licensing software in the field of
 computational chemistry and represents and warrants to the
 licensee that it is not a competitor of Gaussian, Inc. and that
 it will not use this program in any manner prohibited above.
 ---------------------------------------------------------------
  

 Cite this work as:
 Gaussian 16, Revision C.01,
 M. J. Frisch, G. W. Trucks, H. B. Schlegel, G. E. Scuseria, 
 M. A. Robb, J. R. Cheeseman, G. Scalmani, V. Barone, 
 G. A. Petersson, H. Nakatsuji, X. Li, M. Caricato, A. V. Marenich, 
 J. Bloino, B. G. Janesko, R. Gomperts, B. Mennucci, H. P. Hratchian, 
 J. V. Ortiz, A. F. Izmaylov, J. L. Sonnenberg, D. Williams-Young, 
 F. Ding, F. Lipparini, F. Egidi, J. Goings, B. Peng, A. Petrone, 
 T. Henderson, D. Ranasinghe, V. G. Zakrzewski, J. Gao, N. Rega, 
 G. Zheng, W. Liang, M. Hada, M. Ehara, K. Toyota, R. Fukuda, 
 J. Hasegawa, M. Ishida, T. Nakajima, Y. Honda, O. Kitao, H. Nakai, 
 T. Vreven, K. Throssell, J. A. Montgomery, Jr., J. E. Peralta, 
 F. Ogliaro, M. J. Bearpark, J. J. Heyd, E. N. Brothers, K. N. Kudin, 
 V. N. Staroverov, T. A. Keith, R. Kobayashi, J. Normand, 
 K. Raghavachari, A. P. Rendell, J. C. Burant, S. S. Iyengar, 
 J. Tomasi, M. Cossi, J. M. Millam, M. Klene, C. Adamo, R. Cammi, 
 J. W. Ochterski, R. L. Martin, K. Morokuma, O. Farkas, 
 J. B. Foresman, and D. J. Fox, Gaussian, Inc., Wallingford CT, 2019.
 
 ******************************************
 Gaussian 16:  ES64L-G16RevC.01  3-Jul-2019
                24-May-2025 
 ******************************************
 %mem=28GB
 %chk=2003846667223680600001_r12_insertion_R_2_1_9
 %nprocshared=8
 Will use up to    8 processors via shared memory.
 ----------------------------------------------------------------------
 #P M062X/Def2TZVPP Symm(None) scf(xqc) pop(None) opt(NoFreeze,TS,CalcA
 ll,NoEigentest,MaxCycle=999)
 ----------------------------------------------------------------------
 1/5=1,6=999,10=4,11=1,18=20,26=3,29=2000,38=1/1,3;
 2/9=110,12=2,15=3,17=6,18=5,40=1/2;
 3/5=44,7=202,11=2,25=1,30=1,71=2,74=-55,140=1/1,2,3;
 4//1;
 5/5=2,8=3,13=1,38=5/2,8;
 8/6=4,10=90,11=11/1;
 11/6=1,8=1,9=11,15=111,16=1,31=1/1,2,10;
 10/6=1,31=1/2;
 7/10=1,25=1,30=1/1,2,3,16;
 1/5=1,6=999,10=4,11=1,18=20,26=3/3(3);
 2/9=110,15=3/2;
 7/8=1,9=1,25=1,30=1,44=-1/16;
 99//99;
 2/9=110,15=3/2;
 3/5=44,7=202,11=2,25=1,30=1,71=2,74=-55,140=1/1,2,3;
 4/5=5,16=3,69=1/1;
 5/5=2,8=3,13=1,38=5/2,8;
 8/6=4,10=90,11=11/1;
 11/6=1,8=1,9=11,15=111,16=1,31=1/1,2,10;
 10/6=1,31=1/2;
 7/10=1,25=1,30=1/1,2,3,16;
 1/5=1,6=999,10=4,11=1,18=20,26=3/3(-8);
 2/9=110,15=3/2;
 7/8=1,9=1,25=1,30=1,44=-1/16;
 99//99;
 Leave Link    1 at Sat May 24 02:32:55 2025, MaxMem=  3758096384 cpu:               0.0 elap:               0.0
 (Enter /apps/easybuild-2022/easybuild/software/Compiler/NVHPC/22.11-CUDA-11.7.0/Gaussian/g16c01-CUDA-11.7.0/g16/l101.exe)
 ------------------------------
 Gaussian input prepared by ASE
 ------------------------------
 Symbolic Z-matrix:
 Charge =  0 Multiplicity = 1
 C                    -0.85827  -1.08831   0.57313 
 C                     0.04932  -0.03415  -0.3505 
 F                    -0.32323  -0.06202  -1.54533 
 F                    -0.58515   1.29091   0.11351 
 S                     1.75788  -0.3288    0.09657 
 O                     1.70937  -0.73763   1.4388 
 O                     2.79189  -0.41075  -0.90446 
 O                     1.90697   1.22838   0.31705 
 F                     1.01233  -1.67089  -0.42711 
 F                    -0.82123  -1.14633   1.77799 
 F                    -1.61313  -1.9426    0.04666 
 H                     2.42119   1.78177  -0.24211 
 
 ITRead=  0  0  0  0  0  0  0  0  0  0  0  0
 MicOpt= -1 -1 -1 -1 -1 -1 -1 -1 -1 -1 -1 -1
 NAtoms=     12 NQM=       12 NQMF=       0 NMMI=      0 NMMIF=      0
                NMic=       0 NMicF=      0.
                    Isotopes and Nuclear Properties:
 (Nuclear quadrupole moments (NQMom) in fm**2, nuclear magnetic moments (NMagM)
  in nuclear magnetons)

  Atom         1           2           3           4           5           6           7           8           9          10
 IAtWgt=          12          12          19          19          32          16          16          16          19          19
 AtmWgt=  12.0000000  12.0000000  18.9984032  18.9984032  31.9720718  15.9949146  15.9949146  15.9949146  18.9984032  18.9984032
 NucSpn=           0           0           1           1           0           0           0           0           1           1
 AtZEff=  -0.0000000  -0.0000000  -0.0000000  -0.0000000  -0.0000000  -0.0000000  -0.0000000  -0.0000000  -0.0000000  -0.0000000
 NQMom=    0.0000000   0.0000000   0.0000000   0.0000000   0.0000000   0.0000000   0.0000000   0.0000000   0.0000000   0.0000000
 NMagM=    0.0000000   0.0000000   2.6288670   2.6288670   0.0000000   0.0000000   0.0000000   0.0000000   2.6288670   2.6288670
 AtZNuc=   6.0000000   6.0000000   9.0000000   9.0000000  16.0000000   8.0000000   8.0000000   8.0000000   9.0000000   9.0000000

  Atom        11          12
 IAtWgt=          19           1
 AtmWgt=  18.9984032   1.0078250
 NucSpn=           1           1
 AtZEff=  -0.0000000  -0.0000000
 NQMom=    0.0000000   0.0000000
 NMagM=    2.6288670   2.7928460
 AtZNuc=   9.0000000   1.0000000
 Leave Link  101 at Sat May 24 02:32:56 2025, MaxMem=  3758096384 cpu:               0.2 elap:               0.2
 (Enter /apps/easybuild-2022/easybuild/software/Compiler/NVHPC/22.11-CUDA-11.7.0/Gaussian/g16c01-CUDA-11.7.0/g16/l103.exe)

 GradGradGradGradGradGradGradGradGradGradGradGradGradGradGradGradGradGrad
 Berny optimization.
 Initialization pass.
                           ----------------------------
                           !    Initial Parameters    !
                           ! (Angstroms and Degrees)  !
 --------------------------                            --------------------------
 ! Name  Definition              Value          Derivative Info.                !
 --------------------------------------------------------------------------------
 ! R1    R(1,2)                  1.6697         calculate D2E/DX2 analytically  !
 ! R2    R(1,10)                 1.2068         calculate D2E/DX2 analytically  !
 ! R3    R(1,11)                 1.2557         calculate D2E/DX2 analytically  !
 ! R4    R(2,3)                  1.2519         calculate D2E/DX2 analytically  !
 ! R5    R(2,4)                  1.5407         calculate D2E/DX2 analytically  !
 ! R6    R(2,5)                  1.7905         calculate D2E/DX2 analytically  !
 ! R7    R(5,6)                  1.404          calculate D2E/DX2 analytically  !
 ! R8    R(5,7)                  1.4415         calculate D2E/DX2 analytically  !
 ! R9    R(5,8)                  1.5798         calculate D2E/DX2 analytically  !
 ! R10   R(5,9)                  1.6221         calculate D2E/DX2 analytically  !
 ! R11   R(8,12)                 0.9399         calculate D2E/DX2 analytically  !
 ! A1    A(2,1,10)             124.4666         calculate D2E/DX2 analytically  !
 ! A2    A(2,1,11)             121.6243         calculate D2E/DX2 analytically  !
 ! A3    A(10,1,11)            113.8483         calculate D2E/DX2 analytically  !
 ! A4    A(1,2,3)              110.6184         calculate D2E/DX2 analytically  !
 ! A5    A(1,2,4)               98.7746         calculate D2E/DX2 analytically  !
 ! A6    A(1,2,5)              106.0618         calculate D2E/DX2 analytically  !
 ! A7    A(3,2,4)              100.6051         calculate D2E/DX2 analytically  !
 ! A8    A(3,2,5)              121.2396         calculate D2E/DX2 analytically  !
 ! A9    A(4,2,5)              117.3421         calculate D2E/DX2 analytically  !
 ! A10   A(2,5,6)              104.694          calculate D2E/DX2 analytically  !
 ! A11   A(2,5,7)              121.3626         calculate D2E/DX2 analytically  !
 ! A12   A(2,5,8)               87.8624         calculate D2E/DX2 analytically  !
 ! A13   A(2,5,9)               67.4783         calculate D2E/DX2 analytically  !
 ! A14   A(6,5,7)              132.2319         calculate D2E/DX2 analytically  !
 ! A15   A(6,5,8)               99.025          calculate D2E/DX2 analytically  !
 ! A16   A(6,5,9)               92.9708         calculate D2E/DX2 analytically  !
 ! A17   A(7,5,8)               94.8911         calculate D2E/DX2 analytically  !
 ! A18   A(7,5,9)               93.3515         calculate D2E/DX2 analytically  !
 ! A19   A(8,5,9)              154.6857         calculate D2E/DX2 analytically  !
 ! A20   A(5,8,12)             123.2983         calculate D2E/DX2 analytically  !
 ! D1    D(10,1,2,3)          -170.7704         calculate D2E/DX2 analytically  !
 ! D2    D(10,1,2,4)           -65.8761         calculate D2E/DX2 analytically  !
 ! D3    D(10,1,2,5)            55.9983         calculate D2E/DX2 analytically  !
 ! D4    D(11,1,2,3)            12.2431         calculate D2E/DX2 analytically  !
 ! D5    D(11,1,2,4)           117.1374         calculate D2E/DX2 analytically  !
 ! D6    D(11,1,2,5)          -120.9881         calculate D2E/DX2 analytically  !
 ! D7    D(1,2,5,6)            -30.4118         calculate D2E/DX2 analytically  !
 ! D8    D(1,2,5,7)            136.3907         calculate D2E/DX2 analytically  !
 ! D9    D(1,2,5,8)           -129.1833         calculate D2E/DX2 analytically  !
 ! D10   D(1,2,5,9)             56.68           calculate D2E/DX2 analytically  !
 ! D11   D(3,2,5,6)           -157.5132         calculate D2E/DX2 analytically  !
 ! D12   D(3,2,5,7)              9.2893         calculate D2E/DX2 analytically  !
 ! D13   D(3,2,5,8)            103.7153         calculate D2E/DX2 analytically  !
 ! D14   D(3,2,5,9)            -70.4213         calculate D2E/DX2 analytically  !
 ! D15   D(4,2,5,6)             78.7101         calculate D2E/DX2 analytically  !
 ! D16   D(4,2,5,7)           -114.4874         calculate D2E/DX2 analytically  !
 ! D17   D(4,2,5,8)            -20.0614         calculate D2E/DX2 analytically  !
 ! D18   D(4,2,5,9)            165.802          calculate D2E/DX2 analytically  !
 ! D19   D(2,5,8,12)          -110.8383         calculate D2E/DX2 analytically  !
 ! D20   D(6,5,8,12)           144.6199         calculate D2E/DX2 analytically  !
 ! D21   D(7,5,8,12)            10.4621         calculate D2E/DX2 analytically  !
 ! D22   D(9,5,8,12)           -98.0885         calculate D2E/DX2 analytically  !
 --------------------------------------------------------------------------------
 Trust Radius=3.00D-01 FncErr=1.00D-07 GrdErr=1.00D-06 EigMax=2.50D+02 EigMin=1.00D-04
 Number of steps in this run=    100 maximum allowed number of steps=    100.
 Search for a saddle point of order  1.
 GradGradGradGradGradGradGradGradGradGradGradGradGradGradGradGradGradGrad

 Leave Link  103 at Sat May 24 02:32:56 2025, MaxMem=  3758096384 cpu:               0.0 elap:               0.0
 (Enter /apps/easybuild-2022/easybuild/software/Compiler/NVHPC/22.11-CUDA-11.7.0/Gaussian/g16c01-CUDA-11.7.0/g16/l202.exe)
                          Input orientation:                          
 ---------------------------------------------------------------------
 Center     Atomic      Atomic             Coordinates (Angstroms)
 Number     Number       Type             X           Y           Z
 ---------------------------------------------------------------------
      1          6           0       -0.858269   -1.088306    0.573126
      2          6           0        0.049318   -0.034154   -0.350495
      3          9           0       -0.323227   -0.062018   -1.545329
      4          9           0       -0.585146    1.290912    0.113506
      5         16           0        1.757878   -0.328795    0.096565
      6          8           0        1.709366   -0.737627    1.438800
      7          8           0        2.791885   -0.410748   -0.904462
      8          8           0        1.906971    1.228376    0.317050
      9          9           0        1.012334   -1.670894   -0.427106
     10          9           0       -0.821233   -1.146330    1.777989
     11          9           0       -1.613130   -1.942602    0.046657
     12          1           0        2.421185    1.781774   -0.242105
 ---------------------------------------------------------------------
                    Distance matrix (angstroms):
                    1          2          3          4          5
     1  C    0.000000
     2  C    1.669738   0.000000
     3  F    2.413998   1.251876   0.000000
     4  F    2.438550   1.540663   2.156561   0.000000
     5  S    2.765537   1.790490   2.664204   2.848420   0.000000
     6  O    2.732237   2.540120   3.673269   3.337089   1.403956
     7  O    3.995745   2.823185   3.199413   3.916152   1.441507
     8  O    3.616510   2.343176   3.179207   2.501197   1.579754
     9  F    2.199779   1.900575   2.371208   3.408298   1.622127
    10  F    1.206828   2.554455   3.531032   2.960809   3.185493
    11  F    1.255710   2.561960   2.781163   3.393646   3.737721
    12  H    4.433597   2.989163   3.553837   3.066827   2.238119
                    6          7          8          9         10
     6  O    0.000000
     7  O    2.601841   0.000000
     8  O    2.272122   2.227530   0.000000
     9  F    2.199647   2.232182   3.124085   0.000000
    10  F    2.585734   4.559742   3.900855   2.915404   0.000000
    11  F    3.798553   4.759765   4.745453   2.681667   2.063652
    12  H    3.111191   2.320191   0.939851   3.733631   4.813299
                   11         12
    11  F    0.000000
    12  H    5.498187   0.000000
 Symmetry turned off by external request.
 Stoichiometry    C2HF5O3S
 Rotational constants (GHZ):           1.5467276           0.9097962           0.8565697
 Leave Link  202 at Sat May 24 02:32:56 2025, MaxMem=  3758096384 cpu:               0.0 elap:               0.0
 (Enter /apps/easybuild-2022/easybuild/software/Compiler/NVHPC/22.11-CUDA-11.7.0/Gaussian/g16c01-CUDA-11.7.0/g16/l301.exe)
 Standard basis: def2TZVPP (5D, 7F)
 Ernie: Thresh=  0.10000D-02 Tol=  0.10000D-05 Strict=F.
   366 basis functions,   596 primitive gaussians,   423 cartesian basis functions
    49 alpha electrons       49 beta electrons
       nuclear repulsion energy       952.3439769248 Hartrees.
 IExCor= 4336 DFT=T Ex+Corr=M062X ExCW=0 ScaHFX=  0.540000
 ScaDFX=  1.000000  1.000000  1.000000  1.000000 ScalE2=  1.000000  1.000000
 IRadAn=      5 IRanWt=     -1 IRanGd=            0 ICorTp=0 IEmpDi=  4
 NAtoms=   12 NActive=   12 NUniq=   12 SFac= 1.00D+00 NAtFMM=   60 NAOKFM=F Big=F
 Integral buffers will be    131072 words long.
 Raffenetti 2 integral format.
 Two-electron integral symmetry is turned off.
 Leave Link  301 at Sat May 24 02:32:56 2025, MaxMem=  3758096384 cpu:               0.0 elap:               0.0
 (Enter /apps/easybuild-2022/easybuild/software/Compiler/NVHPC/22.11-CUDA-11.7.0/Gaussian/g16c01-CUDA-11.7.0/g16/l302.exe)
 NPDir=0 NMtPBC=     1 NCelOv=     1 NCel=       1 NClECP=     1 NCelD=      1
         NCelK=      1 NCelE2=     1 NClLst=     1 CellRange=     0.0.
 One-electron integrals computed using PRISM.
   1 Symmetry operations used in ECPInt.
 ECPInt:  NShTT=    8515 NPrTT=   27988 LenC2=    8044 LenP2D=   19603.
 LDataN:  DoStor=T MaxTD1= 6 Len=  172
 NBasis=   366 RedAO= T EigKep=  5.00D-04  NBF=   366
 NBsUse=   366 1.00D-06 EigRej= -1.00D+00 NBFU=   366
 Precomputing XC quadrature grid using
 IXCGrd= 4 IRadAn=           5 IRanWt=          -1 IRanGd=           0 AccXCQ= 0.00D+00.
 Generated NRdTot=       0 NPtTot=           0 NUsed=           0 NTot=          32
 NSgBfM=   420   420   420   420   420 MxSgAt=    12 MxSgA2=    12.
 Leave Link  302 at Sat May 24 02:32:56 2025, MaxMem=  3758096384 cpu:               0.8 elap:               0.2
 (Enter /apps/easybuild-2022/easybuild/software/Compiler/NVHPC/22.11-CUDA-11.7.0/Gaussian/g16c01-CUDA-11.7.0/g16/l303.exe)
 DipDrv:  MaxL=1.
 Leave Link  303 at Sat May 24 02:32:56 2025, MaxMem=  3758096384 cpu:               0.1 elap:               0.0
 (Enter /apps/easybuild-2022/easybuild/software/Compiler/NVHPC/22.11-CUDA-11.7.0/Gaussian/g16c01-CUDA-11.7.0/g16/l401.exe)
 ExpMin= 9.52D-02 ExpMax= 6.07D+04 ExpMxC= 2.07D+03 IAcc=3 IRadAn=         5 AccDes= 0.00D+00
 Harris functional with IExCor= 1009 and IRadAn=       5 diagonalized for initial guess.
 HarFok:  IExCor= 1009 AccDes= 0.00D+00 IRadAn=         5 IDoV= 1 UseB2=F ITyADJ=14
 ICtDFT=  3500011 ScaDFX=  1.000000  1.000000  1.000000  1.000000
 FoFCou: FMM=F IPFlag=           0 FMFlag=      100000 FMFlg1=           0
         NFxFlg=           0 DoJE=T BraDBF=F KetDBF=T FulRan=T
         wScrn=  0.000000 ICntrl=       500 IOpCl=  0 I1Cent=   200000004 NGrid=           0
         NMat0=    1 NMatS0=      1 NMatT0=    0 NMatD0=    1 NMtDS0=    0 NMtDT0=    0
 Symmetry not used in FoFCou.
 Harris En= -1199.19515013508    
 JPrj=0 DoOrth=F DoCkMO=F.
 Leave Link  401 at Sat May 24 02:32:57 2025, MaxMem=  3758096384 cpu:               4.6 elap:               0.6
 (Enter /apps/easybuild-2022/easybuild/software/Compiler/NVHPC/22.11-CUDA-11.7.0/Gaussian/g16c01-CUDA-11.7.0/g16/l502.exe)
 Keep R1 ints in memory in canonical form, NReq=2293447020.
 FoFCou: FMM=F IPFlag=           0 FMFlag=           0 FMFlg1=           0
         NFxFlg=           0 DoJE=F BraDBF=F KetDBF=F FulRan=T
         wScrn=  0.000000 ICntrl=       600 IOpCl=  0 I1Cent=           0 NGrid=           0
         NMat0=    1 NMatS0=  67161 NMatT0=    0 NMatD0=    1 NMtDS0=    0 NMtDT0=    0
 Symmetry not used in FoFCou.
 Two-electron integral symmetry not used.
 Closed shell SCF:
 Using DIIS extrapolation, IDIIS=  1040.
 NGot=  3758096384 LenX=  1502398648 LenY=  1502219278
 Requested convergence on RMS density matrix=1.00D-08 within  32 cycles.
 Requested convergence on MAX density matrix=1.00D-06.
 Requested convergence on             energy=1.00D-06.
 No special actions if energy rises.
 Integral accuracy reduced to 1.0D-05 until final iterations.

 Cycle   1  Pass 0  IDiag  1:
 E= -1199.30266717937    
 DIIS: error= 2.09D-02 at cycle   1 NSaved=   1.
 NSaved= 1 IEnMin= 1 EnMin= -1199.30266717937     IErMin= 1 ErrMin= 2.09D-02
 ErrMax= 2.09D-02  0.00D+00 EMaxC= 1.00D-01 BMatC= 7.03D-01 BMatP= 7.03D-01
 IDIUse=3 WtCom= 7.91D-01 WtEn= 2.09D-01
 Coeff-Com:  0.100D+01
 Coeff-En:   0.100D+01
 Coeff:      0.100D+01
 Gap=     0.200 Goal=   None    Shift=    0.000
 GapD=    0.200 DampG=1.000 DampE=0.500 DampFc=0.5000 IDamp=-1.
 Damping current iteration by 5.00D-01
 RMSDP=3.95D-03 MaxDP=2.37D-01              OVMax= 8.83D-01

 Cycle   2  Pass 0  IDiag  1:
 E= -1199.02170753345     Delta-E=        0.280959645915 Rises=F Damp=T
 DIIS: error= 1.14D-02 at cycle   2 NSaved=   2.
 NSaved= 2 IEnMin= 1 EnMin= -1199.30266717937     IErMin= 2 ErrMin= 1.14D-02
 ErrMax= 1.14D-02  0.00D+00 EMaxC= 1.00D-01 BMatC= 2.31D-01 BMatP= 7.03D-01
 IDIUse=3 WtCom= 8.86D-01 WtEn= 1.14D-01
 Coeff-Com:  0.304D+00 0.696D+00
 Coeff-En:   0.683D+00 0.317D+00
 Coeff:      0.347D+00 0.653D+00
 Gap=    -0.013 Goal=   None    Shift=    0.000
 RMSDP=1.76D-03 MaxDP=9.54D-02 DE= 2.81D-01 OVMax= 7.15D-01

 Cycle   3  Pass 0  IDiag  1:
 E= -1199.50153094502     Delta-E=       -0.479823411569 Rises=F Damp=F
 DIIS: error= 1.37D-02 at cycle   3 NSaved=   3.
 NSaved= 3 IEnMin= 3 EnMin= -1199.50153094502     IErMin= 2 ErrMin= 1.14D-02
 ErrMax= 1.37D-02  0.00D+00 EMaxC= 1.00D-01 BMatC= 2.25D-01 BMatP= 2.31D-01
 IDIUse=3 WtCom= 8.63D-01 WtEn= 1.37D-01
 EnCoef did     1 forward-backward iterations
 Coeff-Com:  0.102D+00 0.470D+00 0.428D+00
 Coeff-En:   0.228D-01 0.134D+00 0.843D+00
 Coeff:      0.916D-01 0.424D+00 0.485D+00
 Gap=     0.308 Goal=   None    Shift=    0.000
 RMSDP=8.56D-04 MaxDP=5.19D-02 DE=-4.80D-01 OVMax= 7.95D-02

 Cycle   4  Pass 0  IDiag  1:
 E= -1199.66871276658     Delta-E=       -0.167181821554 Rises=F Damp=F
 DIIS: error= 3.79D-03 at cycle   4 NSaved=   4.
 NSaved= 4 IEnMin= 4 EnMin= -1199.66871276658     IErMin= 4 ErrMin= 3.79D-03
 ErrMax= 3.79D-03  0.00D+00 EMaxC= 1.00D-01 BMatC= 2.79D-02 BMatP= 2.25D-01
 IDIUse=3 WtCom= 9.62D-01 WtEn= 3.79D-02
 Coeff-Com: -0.687D-01 0.220D+00 0.114D+00 0.734D+00
 Coeff-En:   0.000D+00 0.000D+00 0.000D+00 0.100D+01
 Coeff:     -0.661D-01 0.212D+00 0.110D+00 0.745D+00
 Gap=     0.223 Goal=   None    Shift=    0.000
 RMSDP=3.19D-04 MaxDP=1.45D-02 DE=-1.67D-01 OVMax= 2.75D-02

 Cycle   5  Pass 0  IDiag  1:
 E= -1199.68569760544     Delta-E=       -0.016984838869 Rises=F Damp=F
 DIIS: error= 2.87D-03 at cycle   5 NSaved=   5.
 NSaved= 5 IEnMin= 5 EnMin= -1199.68569760544     IErMin= 5 ErrMin= 2.87D-03
 ErrMax= 2.87D-03  0.00D+00 EMaxC= 1.00D-01 BMatC= 9.71D-03 BMatP= 2.79D-02
 IDIUse=3 WtCom= 9.71D-01 WtEn= 2.87D-02
 Coeff-Com: -0.588D-01 0.977D-01-0.753D-01 0.303D+00 0.734D+00
 Coeff-En:   0.000D+00 0.000D+00 0.000D+00 0.000D+00 0.100D+01
 Coeff:     -0.571D-01 0.949D-01-0.732D-01 0.294D+00 0.741D+00
 Gap=     0.221 Goal=   None    Shift=    0.000
 RMSDP=1.62D-04 MaxDP=6.86D-03 DE=-1.70D-02 OVMax= 1.87D-02

 Cycle   6  Pass 0  IDiag  1:
 E= -1199.69312364800     Delta-E=       -0.007426042559 Rises=F Damp=F
 DIIS: error= 1.00D-03 at cycle   6 NSaved=   6.
 NSaved= 6 IEnMin= 6 EnMin= -1199.69312364800     IErMin= 6 ErrMin= 1.00D-03
 ErrMax= 1.00D-03  0.00D+00 EMaxC= 1.00D-01 BMatC= 1.26D-03 BMatP= 9.71D-03
 IDIUse=3 WtCom= 9.90D-01 WtEn= 1.00D-02
 Coeff-Com: -0.865D-02 0.183D-01-0.682D-01-0.663D-01 0.186D+00 0.939D+00
 Coeff-En:   0.000D+00 0.000D+00 0.000D+00 0.000D+00 0.000D+00 0.100D+01
 Coeff:     -0.857D-02 0.181D-01-0.675D-01-0.657D-01 0.184D+00 0.940D+00
 Gap=     0.219 Goal=   None    Shift=    0.000
 RMSDP=1.00D-04 MaxDP=3.90D-03 DE=-7.43D-03 OVMax= 1.10D-02

 Cycle   7  Pass 0  IDiag  1:
 E= -1199.69445619992     Delta-E=       -0.001332551916 Rises=F Damp=F
 DIIS: error= 2.60D-04 at cycle   7 NSaved=   7.
 NSaved= 7 IEnMin= 7 EnMin= -1199.69445619992     IErMin= 7 ErrMin= 2.60D-04
 ErrMax= 2.60D-04  0.00D+00 EMaxC= 1.00D-01 BMatC= 8.55D-05 BMatP= 1.26D-03
 IDIUse=3 WtCom= 9.97D-01 WtEn= 2.60D-03
 Coeff-Com:  0.181D-02 0.630D-03-0.211D-01-0.597D-01-0.236D-01 0.376D+00
 Coeff-Com:  0.726D+00
 Coeff-En:   0.000D+00 0.000D+00 0.000D+00 0.000D+00 0.000D+00 0.000D+00
 Coeff-En:   0.100D+01
 Coeff:      0.180D-02 0.628D-03-0.210D-01-0.595D-01-0.236D-01 0.375D+00
 Coeff:      0.726D+00
 Gap=     0.219 Goal=   None    Shift=    0.000
 RMSDP=2.76D-05 MaxDP=1.05D-03 DE=-1.33D-03 OVMax= 3.45D-03

 Cycle   8  Pass 0  IDiag  1:
 E= -1199.69453838553     Delta-E=       -0.000082185608 Rises=F Damp=F
 DIIS: error= 7.13D-05 at cycle   8 NSaved=   8.
 NSaved= 8 IEnMin= 8 EnMin= -1199.69453838553     IErMin= 8 ErrMin= 7.13D-05
 ErrMax= 7.13D-05  0.00D+00 EMaxC= 1.00D-01 BMatC= 7.13D-06 BMatP= 8.55D-05
 IDIUse=1 WtCom= 1.00D+00 WtEn= 0.00D+00
 Coeff-Com:  0.996D-03-0.146D-03 0.255D-02-0.561D-02-0.311D-01-0.740D-03
 Coeff-Com:  0.287D+00 0.747D+00
 Coeff:      0.996D-03-0.146D-03 0.255D-02-0.561D-02-0.311D-01-0.740D-03
 Coeff:      0.287D+00 0.747D+00
 Gap=     0.220 Goal=   None    Shift=    0.000
 RMSDP=8.35D-06 MaxDP=3.05D-04 DE=-8.22D-05 OVMax= 8.55D-04

 Initial convergence to 1.0D-05 achieved.  Increase integral accuracy.
 Cycle   9  Pass 1  IDiag  1:
 E= -1199.69461463278     Delta-E=       -0.000076247254 Rises=F Damp=F
 DIIS: error= 2.67D-05 at cycle   1 NSaved=   1.
 NSaved= 1 IEnMin= 1 EnMin= -1199.69461463278     IErMin= 1 ErrMin= 2.67D-05
 ErrMax= 2.67D-05  0.00D+00 EMaxC= 1.00D-01 BMatC= 1.84D-06 BMatP= 1.84D-06
 IDIUse=1 WtCom= 1.00D+00 WtEn= 0.00D+00
 Coeff-Com:  0.100D+01
 Coeff:      0.100D+01
 Gap=     0.220 Goal=   None    Shift=    0.000
 RMSDP=8.35D-06 MaxDP=3.05D-04 DE=-7.62D-05 OVMax= 4.13D-04

 Cycle  10  Pass 1  IDiag  1:
 E= -1199.69461548316     Delta-E=       -0.000000850383 Rises=F Damp=F
 DIIS: error= 3.00D-05 at cycle   2 NSaved=   2.
 NSaved= 2 IEnMin= 2 EnMin= -1199.69461548316     IErMin= 1 ErrMin= 2.67D-05
 ErrMax= 3.00D-05  0.00D+00 EMaxC= 1.00D-01 BMatC= 1.33D-06 BMatP= 1.84D-06
 IDIUse=1 WtCom= 1.00D+00 WtEn= 0.00D+00
 Coeff-Com:  0.448D+00 0.552D+00
 Coeff:      0.448D+00 0.552D+00
 Gap=     0.220 Goal=   None    Shift=    0.000
 RMSDP=2.57D-06 MaxDP=1.58D-04 DE=-8.50D-07 OVMax= 2.26D-04

 Cycle  11  Pass 1  IDiag  1:
 E= -1199.69461628359     Delta-E=       -0.000000800426 Rises=F Damp=F
 DIIS: error= 1.06D-05 at cycle   3 NSaved=   3.
 NSaved= 3 IEnMin= 3 EnMin= -1199.69461628359     IErMin= 3 ErrMin= 1.06D-05
 ErrMax= 1.06D-05  0.00D+00 EMaxC= 1.00D-01 BMatC= 1.49D-07 BMatP= 1.33D-06
 IDIUse=1 WtCom= 1.00D+00 WtEn= 0.00D+00
 Coeff-Com: -0.498D-02 0.235D+00 0.770D+00
 Coeff:     -0.498D-02 0.235D+00 0.770D+00
 Gap=     0.220 Goal=   None    Shift=    0.000
 RMSDP=1.00D-06 MaxDP=3.52D-05 DE=-8.00D-07 OVMax= 9.19D-05

 Cycle  12  Pass 1  IDiag  1:
 E= -1199.69461639039     Delta-E=       -0.000000106803 Rises=F Damp=F
 DIIS: error= 3.11D-06 at cycle   4 NSaved=   4.
 NSaved= 4 IEnMin= 4 EnMin= -1199.69461639039     IErMin= 4 ErrMin= 3.11D-06
 ErrMax= 3.11D-06  0.00D+00 EMaxC= 1.00D-01 BMatC= 1.31D-08 BMatP= 1.49D-07
 IDIUse=1 WtCom= 1.00D+00 WtEn= 0.00D+00
 Coeff-Com: -0.315D-01 0.701D-01 0.329D+00 0.633D+00
 Coeff:     -0.315D-01 0.701D-01 0.329D+00 0.633D+00
 Gap=     0.220 Goal=   None    Shift=    0.000
 RMSDP=3.12D-07 MaxDP=1.19D-05 DE=-1.07D-07 OVMax= 4.14D-05

 Cycle  13  Pass 1  IDiag  1:
 E= -1199.69461640277     Delta-E=       -0.000000012380 Rises=F Damp=F
 DIIS: error= 1.14D-06 at cycle   5 NSaved=   5.
 NSaved= 5 IEnMin= 5 EnMin= -1199.69461640277     IErMin= 5 ErrMin= 1.14D-06
 ErrMax= 1.14D-06  0.00D+00 EMaxC= 1.00D-01 BMatC= 1.20D-09 BMatP= 1.31D-08
 IDIUse=1 WtCom= 1.00D+00 WtEn= 0.00D+00
 Coeff-Com: -0.638D-02-0.122D-01-0.279D-01 0.157D+00 0.889D+00
 Coeff:     -0.638D-02-0.122D-01-0.279D-01 0.157D+00 0.889D+00
 Gap=     0.220 Goal=   None    Shift=    0.000
 RMSDP=2.01D-07 MaxDP=6.30D-06 DE=-1.24D-08 OVMax= 3.05D-05

 Cycle  14  Pass 1  IDiag  1:
 E= -1199.69461640513     Delta-E=       -0.000000002356 Rises=F Damp=F
 DIIS: error= 5.92D-07 at cycle   6 NSaved=   6.
 NSaved= 6 IEnMin= 6 EnMin= -1199.69461640513     IErMin= 6 ErrMin= 5.92D-07
 ErrMax= 5.92D-07  0.00D+00 EMaxC= 1.00D-01 BMatC= 4.47D-10 BMatP= 1.20D-09
 IDIUse=1 WtCom= 1.00D+00 WtEn= 0.00D+00
 Coeff-Com:  0.386D-02-0.219D-01-0.896D-01-0.643D-01 0.461D+00 0.711D+00
 Coeff:      0.386D-02-0.219D-01-0.896D-01-0.643D-01 0.461D+00 0.711D+00
 Gap=     0.220 Goal=   None    Shift=    0.000
 RMSDP=8.85D-08 MaxDP=3.15D-06 DE=-2.36D-09 OVMax= 1.46D-05

 Cycle  15  Pass 1  IDiag  1:
 E= -1199.69461640587     Delta-E=       -0.000000000745 Rises=F Damp=F
 DIIS: error= 1.52D-07 at cycle   7 NSaved=   7.
 NSaved= 7 IEnMin= 7 EnMin= -1199.69461640587     IErMin= 7 ErrMin= 1.52D-07
 ErrMax= 1.52D-07  0.00D+00 EMaxC= 1.00D-01 BMatC= 1.88D-11 BMatP= 4.47D-10
 IDIUse=1 WtCom= 1.00D+00 WtEn= 0.00D+00
 Coeff-Com:  0.172D-02-0.496D-02-0.227D-01-0.293D-01 0.546D-01 0.194D+00
 Coeff-Com:  0.807D+00
 Coeff:      0.172D-02-0.496D-02-0.227D-01-0.293D-01 0.546D-01 0.194D+00
 Coeff:      0.807D+00
 Gap=     0.220 Goal=   None    Shift=    0.000
 RMSDP=2.26D-08 MaxDP=1.35D-06 DE=-7.45D-10 OVMax= 4.38D-06

 Cycle  16  Pass 1  IDiag  1:
 E= -1199.69461640596     Delta-E=       -0.000000000089 Rises=F Damp=F
 DIIS: error= 6.72D-08 at cycle   8 NSaved=   8.
 NSaved= 8 IEnMin= 8 EnMin= -1199.69461640596     IErMin= 8 ErrMin= 6.72D-08
 ErrMax= 6.72D-08  0.00D+00 EMaxC= 1.00D-01 BMatC= 4.81D-12 BMatP= 1.88D-11
 IDIUse=1 WtCom= 1.00D+00 WtEn= 0.00D+00
 Coeff-Com:  0.490D-04 0.165D-02 0.538D-02-0.107D-02-0.542D-01-0.414D-01
 Coeff-Com:  0.316D+00 0.774D+00
 Coeff:      0.490D-04 0.165D-02 0.538D-02-0.107D-02-0.542D-01-0.414D-01
 Coeff:      0.316D+00 0.774D+00
 Gap=     0.220 Goal=   None    Shift=    0.000
 RMSDP=9.48D-09 MaxDP=3.59D-07 DE=-8.87D-11 OVMax= 1.83D-06

 SCF Done:  E(RM062X) =  -1199.69461641     A.U. after   16 cycles
            NFock= 16  Conv=0.95D-08     -V/T= 2.0023
 KE= 1.196933760190D+03 PE=-4.751249416703D+03 EE= 1.402277063182D+03
 Leave Link  502 at Sat May 24 02:33:41 2025, MaxMem=  3758096384 cpu:             175.7 elap:              44.5
 (Enter /apps/easybuild-2022/easybuild/software/Compiler/NVHPC/22.11-CUDA-11.7.0/Gaussian/g16c01-CUDA-11.7.0/g16/l508.exe)
 QCSCF skips out because SCF is already converged.
 Leave Link  508 at Sat May 24 02:33:41 2025, MaxMem=  3758096384 cpu:               0.0 elap:               0.0
 (Enter /apps/easybuild-2022/easybuild/software/Compiler/NVHPC/22.11-CUDA-11.7.0/Gaussian/g16c01-CUDA-11.7.0/g16/l801.exe)
 DoSCS=F DFT=T ScalE2(SS,OS)=  1.000000  1.000000
 Range of M.O.s used for correlation:     1   366
 NBasis=   366 NAE=    49 NBE=    49 NFC=     0 NFV=     0
 NROrb=    366 NOA=    49 NOB=    49 NVA=   317 NVB=   317

 **** Warning!!: The largest alpha MO coefficient is  0.11349071D+02

 Leave Link  801 at Sat May 24 02:33:41 2025, MaxMem=  3758096384 cpu:               0.0 elap:               0.0
 (Enter /apps/easybuild-2022/easybuild/software/Compiler/NVHPC/22.11-CUDA-11.7.0/Gaussian/g16c01-CUDA-11.7.0/g16/l1101.exe)
 Using compressed storage, NAtomX=    12.
 Will process     13 centers per pass.
   1 Symmetry operations used in ECPInt.
 ECPInt:  NShTT=    8515 NPrTT=   27988 LenC2=    8044 LenP2D=   19603.
 LDataN:  DoStor=T MaxTD1= 7 Len=  274
 Leave Link 1101 at Sat May 24 02:33:41 2025, MaxMem=  3758096384 cpu:               1.0 elap:               0.2
 (Enter /apps/easybuild-2022/easybuild/software/Compiler/NVHPC/22.11-CUDA-11.7.0/Gaussian/g16c01-CUDA-11.7.0/g16/l1102.exe)
 Symmetrizing basis deriv contribution to polar:
 IMax=3 JMax=2 DiffMx= 0.00D+00
 Leave Link 1102 at Sat May 24 02:33:42 2025, MaxMem=  3758096384 cpu:               0.1 elap:               0.0
 (Enter /apps/easybuild-2022/easybuild/software/Compiler/NVHPC/22.11-CUDA-11.7.0/Gaussian/g16c01-CUDA-11.7.0/g16/l1110.exe)
 Forming Gx(P) for the SCF density, NAtomX=    12.
 Integral derivatives from FoFJK, PRISM(SPDF).
 Do as many integral derivatives as possible in FoFJK.
 G2DrvN: MDV=    3758094988.
 G2DrvN: will do    13 centers at a time, making    1 passes.
 Calling FoFCou, ICntrl=  3107 FMM=F I1Cent=   0 AccDes= 0.00D+00.
 FoFJK:  IHMeth= 1 ICntrl=    3107 DoSepK=F KAlg= 0 I1Cent=           0 FoldK=F
 IRaf=         0 NMat=       1 IRICut=       1 DoRegI=T DoRafI=F ISym2E= 0 IDoP0=0 IntGTp=1.
 FoFCou: FMM=F IPFlag=           0 FMFlag=      100000 FMFlg1=           0
         NFxFlg=           0 DoJE=F BraDBF=F KetDBF=F FulRan=T
         wScrn=  0.000000 ICntrl=      3107 IOpCl=  0 I1Cent=           0 NGrid=           0
         NMat0=    1 NMatS0=      1 NMatT0=    0 NMatD0=    1 NMtDS0=    0 NMtDT0=    0
 Symmetry not used in FoFCou.
 End of G2Drv F.D. properties file   721 does not exist.
 End of G2Drv F.D. properties file   722 does not exist.
 End of G2Drv F.D. properties file   788 does not exist.
 Leave Link 1110 at Sat May 24 02:34:43 2025, MaxMem=  3758096384 cpu:             490.8 elap:              61.8
 (Enter /apps/easybuild-2022/easybuild/software/Compiler/NVHPC/22.11-CUDA-11.7.0/Gaussian/g16c01-CUDA-11.7.0/g16/l1002.exe)
 Minotr:  Closed shell wavefunction.
          IDoAtm=111111111111
          Direct CPHF calculation.
          Differentiating once with respect to electric field.
                with respect to dipole field.
          Differentiating once with respect to nuclear coordinates.
          Requested convergence is 1.0D-08 RMS, and 1.0D-07 maximum.
          Secondary convergence is 1.0D-12 RMS, and 1.0D-12 maximum.
          NewPWx=T KeepS1=F KeepF1=F KeepIn=T MapXYZ=F SortEE=F KeepMc=T.
         3605 words used for storage of precomputed grid.
 Keep R1 ints in memory in canonical form, NReq=2293452935.
 FoFCou: FMM=F IPFlag=           0 FMFlag=           0 FMFlg1=           0
         NFxFlg=           0 DoJE=F BraDBF=F KetDBF=F FulRan=T
         wScrn=  0.000000 ICntrl=       600 IOpCl=  0 I1Cent=           0 NGrid=           0
         NMat0=    1 NMatS0=  67161 NMatT0=    0 NMatD0=    1 NMtDS0=    0 NMtDT0=    0
 Symmetry not used in FoFCou.
 Two-electron integral symmetry not used.
          MDV=    3758096384 using IRadAn=       1.
          Solving linear equations simultaneously, MaxMat=       0.
          There are    39 degrees of freedom in the 1st order CPHF.  IDoFFX=6 NUNeed=     3.
     36 vectors produced by pass  0 Test12= 3.98D-14 2.56D-09 XBig12= 2.82D+01 1.65D+00.
 AX will form    36 AO Fock derivatives at one time.
     36 vectors produced by pass  1 Test12= 3.98D-14 2.56D-09 XBig12= 4.07D+00 2.50D-01.
     36 vectors produced by pass  2 Test12= 3.98D-14 2.56D-09 XBig12= 1.55D-01 4.80D-02.
     36 vectors produced by pass  3 Test12= 3.98D-14 2.56D-09 XBig12= 3.24D-03 7.34D-03.
     36 vectors produced by pass  4 Test12= 3.98D-14 2.56D-09 XBig12= 4.71D-05 1.21D-03.
     36 vectors produced by pass  5 Test12= 3.98D-14 2.56D-09 XBig12= 5.99D-07 1.09D-04.
     36 vectors produced by pass  6 Test12= 3.98D-14 2.56D-09 XBig12= 4.83D-09 7.76D-06.
     26 vectors produced by pass  7 Test12= 3.98D-14 2.56D-09 XBig12= 2.87D-11 5.29D-07.
      6 vectors produced by pass  8 Test12= 3.98D-14 2.56D-09 XBig12= 1.63D-13 3.75D-08.
      1 vectors produced by pass  9 Test12= 3.98D-14 2.56D-09 XBig12= 8.88D-16 3.08D-09.
 InvSVY:  IOpt=1 It=  1 EMax= 2.66D-15
 Solved reduced A of dimension   285 with    39 vectors.
 FullF1:  Do perturbations      1 to       3.
 Isotropic polarizability for W=    0.000000       57.08 Bohr**3.
 End of Minotr F.D. properties file   721 does not exist.
 End of Minotr F.D. properties file   722 does not exist.
 End of Minotr F.D. properties file   788 does not exist.
 Leave Link 1002 at Sat May 24 02:36:22 2025, MaxMem=  3758096384 cpu:             765.1 elap:              98.4
 (Enter /apps/easybuild-2022/easybuild/software/Compiler/NVHPC/22.11-CUDA-11.7.0/Gaussian/g16c01-CUDA-11.7.0/g16/l701.exe)
 ... and contract with generalized density number  0.
 Compute integral second derivatives.
   1 Symmetry operations used in ECPInt.
 ECPInt:  NShTT=    8515 NPrTT=   27988 LenC2=    8044 LenP2D=   19603.
 LDataN:  DoStor=T MaxTD1= 8 Len=  415
 Leave Link  701 at Sat May 24 02:36:22 2025, MaxMem=  3758096384 cpu:               0.7 elap:               0.1
 (Enter /apps/easybuild-2022/easybuild/software/Compiler/NVHPC/22.11-CUDA-11.7.0/Gaussian/g16c01-CUDA-11.7.0/g16/l702.exe)
 L702 exits ... SP integral derivatives will be done elsewhere.
 Leave Link  702 at Sat May 24 02:36:22 2025, MaxMem=  3758096384 cpu:               0.0 elap:               0.0
 (Enter /apps/easybuild-2022/easybuild/software/Compiler/NVHPC/22.11-CUDA-11.7.0/Gaussian/g16c01-CUDA-11.7.0/g16/l703.exe)
 Integral derivatives from FoFJK, PRISM(SPDF).
 Compute integral second derivatives, UseDBF=F ICtDFT=           0.
 Calling FoFJK, ICntrl=    100127 FMM=F ISym2X=0 I1Cent= 0 IOpClX= 0 NMat=1 NMatS=1 NMatT=0.
 FoFJK:  IHMeth= 1 ICntrl=  100127 DoSepK=F KAlg= 0 I1Cent=           0 FoldK=F
 IRaf=         0 NMat=       1 IRICut=       1 DoRegI=T DoRafI=F ISym2E= 0 IDoP0=0 IntGTp=1.
 FoFCou: FMM=F IPFlag=           0 FMFlag=      100000 FMFlg1=         800
         NFxFlg=           0 DoJE=F BraDBF=F KetDBF=F FulRan=T
         wScrn=  0.000000 ICntrl=    100127 IOpCl=  0 I1Cent=           0 NGrid=           0
         NMat0=    1 NMatS0=      1 NMatT0=    0 NMatD0=    1 NMtDS0=    0 NMtDT0=    0
 Symmetry not used in FoFCou.
 Leave Link  703 at Sat May 24 02:38:36 2025, MaxMem=  3758096384 cpu:            1069.5 elap:             134.5
 (Enter /apps/easybuild-2022/easybuild/software/Compiler/NVHPC/22.11-CUDA-11.7.0/Gaussian/g16c01-CUDA-11.7.0/g16/l716.exe)
 Dipole        =-2.48346597D+00-5.07357094D-01 1.01380419D-01
 Polarizability= 6.30778755D+01 4.59111631D+00 5.55079876D+01
                -4.57306462D+00-1.40134816D+00 5.26580662D+01
 -------------------------------------------------------------------
 Center     Atomic                   Forces (Hartrees/Bohr)
 Number     Number              X              Y              Z
 -------------------------------------------------------------------
      1        6           0.027312244    0.017106908   -0.060082388
      2        6          -0.083886966    0.093381983    0.078272733
      3        9          -0.008839552   -0.014145363   -0.050694850
      4        9           0.022864055   -0.062302890   -0.008377467
      5       16           0.051038711    0.076897177   -0.033128693
      6        8           0.009035992   -0.017119132    0.045715878
      7        8          -0.004323619   -0.023728578   -0.000747498
      8        8          -0.015471247    0.042550038    0.044872225
      9        9          -0.012401510   -0.119143779   -0.030146877
     10        9          -0.000823914    0.003734514    0.037351364
     11        9          -0.000450595    0.005301482   -0.003708471
     12        1           0.015946401   -0.002532360   -0.019325955
 -------------------------------------------------------------------
 Cartesian Forces:  Max     0.119143779 RMS     0.043437368
 Force constants in Cartesian coordinates: 
                1             2             3             4             5 
      1  0.348704D+00
      2  0.228087D+00  0.466796D+00
      3  0.844257D-01  0.849218D-02  0.923093D+00
      4 -0.728497D-01 -0.882300D-02 -0.194950D-01  0.436694D+00
      5 -0.831709D-02 -0.485266D-01  0.109844D-01  0.250027D-01  0.176188D+00
      6 -0.770913D-02  0.230670D-01 -0.388453D-01  0.227244D+00 -0.965325D-02
      7  0.836824D-02 -0.270148D-02  0.119337D-01 -0.114001D+00 -0.948451D-03
      8  0.713974D-02  0.141884D-02  0.208773D-01 -0.115291D-01 -0.468851D-01
      9 -0.184168D-02  0.950138D-03 -0.531375D-01 -0.169381D+00 -0.403742D-02
     10  0.105042D-02  0.160730D-02  0.136931D-02 -0.662160D-01 -0.320698D-01
     11  0.156368D-01 -0.313217D-01 -0.108339D-01  0.215366D-02 -0.396518D-01
     12 -0.346313D-02 -0.231999D-02  0.168424D-02 -0.774022D-02  0.333223D-01
     13 -0.211540D-01 -0.245492D-01  0.208709D-01 -0.193711D+00  0.413116D-01
     14 -0.565109D-01  0.218138D-01  0.152957D-01  0.527065D-02  0.783369D-01
     15  0.188490D-01  0.247250D-02  0.419539D-01 -0.352370D-01  0.339196D-01
     16  0.797649D-02  0.307959D-02  0.790403D-02  0.772568D-02  0.197492D-02
     17  0.702492D-02 -0.516464D-02  0.270318D-02 -0.335496D-02 -0.139246D-01
     18 -0.140487D-02  0.106914D-02 -0.202368D-01  0.102989D-01  0.635302D-03
     19  0.407026D-02  0.877084D-03 -0.643541D-02  0.449650D-02 -0.433078D-02
     20  0.843897D-02 -0.393416D-02 -0.399896D-02  0.164410D-02 -0.116067D-01
     21 -0.295728D-02 -0.184632D-02 -0.329527D-02 -0.338059D-02 -0.138012D-02
     22 -0.562776D-02  0.595128D-02 -0.407223D-02 -0.177095D-01 -0.176157D-01
     23  0.179414D-02  0.330334D-02 -0.411857D-02 -0.953776D-02 -0.347750D-01
     24 -0.217748D-02 -0.132569D-03 -0.462087D-02 -0.216142D-02 -0.463547D-02
     25  0.102647D-01  0.134360D-01 -0.142016D-01 -0.368028D-02  0.287110D-02
     26  0.258179D-01 -0.344179D-01 -0.173509D-01  0.185299D-01 -0.935826D-01
     27 -0.497711D-02 -0.784950D-02 -0.357492D-02  0.116436D-01 -0.335750D-01
     28 -0.572528D-01 -0.203143D-01 -0.198084D-02  0.200833D-01  0.235635D-02
     29 -0.248460D-01 -0.778074D-01  0.619440D-01  0.541558D-02  0.230265D-01
     30  0.484131D-02  0.718202D-01 -0.703396D+00 -0.994238D-02 -0.234760D-01
     31 -0.222845D+00 -0.196786D+00 -0.800277D-01  0.876959D-03 -0.490821D-02
     32 -0.203593D+00 -0.291251D+00 -0.848104D-01 -0.229639D-01  0.121118D-01
     33 -0.821991D-01 -0.974750D-01 -0.138819D+00  0.233602D-02  0.158597D-02
     34 -0.704372D-03  0.134838D-03 -0.290932D-03 -0.171000D-02 -0.532668D-02
     35 -0.673309D-03 -0.908335D-03  0.815970D-03 -0.180780D-02 -0.710404D-03
     36 -0.138624D-02  0.175219D-02 -0.805582D-03 -0.418438D-02 -0.369026D-02
                6             7             8             9            10 
      6  0.640968D+00
      7 -0.149335D+00  0.916548D-01
      8 -0.674443D-02 -0.143089D-01  0.713031D-01
      9 -0.494925D+00  0.154993D+00  0.257149D-01  0.611787D+00
     10 -0.175541D-01  0.125733D-01  0.429419D-02  0.117163D-01  0.672713D-01
     11  0.250766D-01  0.548343D-02 -0.221393D-01 -0.446692D-01 -0.102621D-01
     12 -0.541460D-01  0.148662D-01 -0.584026D-01 -0.470570D-01  0.107024D-02
     13 -0.308799D-01  0.161482D-01  0.856673D-03  0.109897D-01  0.122473D-01
     14  0.245686D-01 -0.492984D-05 -0.592393D-02 -0.103952D-02  0.725799D-02
     15 -0.411472D-01 -0.322380D-01 -0.456162D-03 -0.229784D-01  0.116596D-01
     16 -0.220971D-01 -0.873735D-02  0.758158D-03 -0.596064D-02 -0.104749D-02
     17  0.984395D-02  0.432048D-02  0.196345D-02  0.162909D-02  0.106196D-02
     18 -0.205938D-01 -0.610983D-02  0.544582D-04 -0.229923D-03 -0.528970D-02
     19  0.120050D-01 -0.185958D-03  0.436202D-03 -0.231452D-02 -0.365735D-02
     20 -0.371939D-02 -0.643344D-03  0.117856D-02 -0.348600D-03  0.100637D-02
     21 -0.524484D-02  0.305543D-02 -0.307598D-03  0.608962D-02  0.890783D-03
     22 -0.183864D-02 -0.277572D-02  0.670837D-03 -0.424399D-02 -0.168159D-01
     23 -0.260686D-02 -0.638605D-02  0.243415D-02 -0.565712D-02  0.176348D-02
     24  0.874831D-02  0.360560D-02  0.736851D-03  0.274806D-02 -0.174866D-02
     25  0.861106D-02 -0.255153D-02  0.124407D-01 -0.528772D-02 -0.323377D-02
     26 -0.266752D-01  0.104147D-01 -0.218045D-02  0.114777D-01  0.204537D-01
     27  0.146936D-02 -0.340395D-02  0.146237D-01  0.310520D-02 -0.454130D-03
     28  0.470417D-02 -0.276774D-02 -0.297392D-02  0.554359D-02 -0.115428D-02
     29  0.168143D-02 -0.186449D-02 -0.340938D-02  0.920908D-02  0.124619D-02
     30 -0.342291D-02  0.333069D-02  0.461131D-02 -0.782426D-02 -0.165432D-02
     31 -0.234695D-01  0.275141D-02  0.179468D-02  0.654905D-02 -0.119094D-02
     32 -0.331774D-01  0.702638D-02  0.243392D-02  0.702684D-02  0.240668D-02
     33  0.652008D-02  0.437192D-03 -0.108918D-02  0.422225D-02  0.123986D-03
     34  0.319831D-03 -0.477087D-03  0.420727D-03 -0.762216D-03  0.173472D-03
     35 -0.166095D-02 -0.387384D-03 -0.193877D-03 -0.255825D-03  0.123399D-02
     36  0.619816D-03 -0.113516D-02  0.381469D-03 -0.179998D-02 -0.129250D-03
               11            12            13            14            15 
     11  0.118294D+00
     12  0.314173D-01  0.894081D-01
     13 -0.199765D-01 -0.357718D-02  0.746693D+00
     14 -0.284618D-01 -0.322032D-02  0.284029D-01  0.583958D+00
     15 -0.165316D-01 -0.234522D-02 -0.236842D+00 -0.144696D+00  0.120178D+01
     16  0.262131D-02  0.764832D-03 -0.921358D-01 -0.205073D-02  0.111247D-01
     17  0.317101D-02 -0.425036D-03 -0.111648D-02 -0.130384D+00  0.190915D+00
     18  0.461892D-02  0.279973D-02  0.274238D-01  0.193915D+00 -0.685572D+00
     19  0.384138D-02  0.109376D-03 -0.335146D+00  0.303647D-01  0.247503D+00
     20  0.432666D-02  0.395708D-03  0.295061D-01 -0.955465D-01 -0.212441D-01
     21  0.143587D-02  0.107201D-02  0.228562D+00 -0.210337D-01 -0.330388D+00
     22 -0.471095D-02 -0.184350D-02 -0.768123D-01 -0.463202D-01  0.105494D-01
     23  0.127702D-01  0.230418D-03 -0.160739D-01 -0.235743D+00 -0.364909D-01
     24 -0.210962D-04  0.228529D-02  0.127230D-01 -0.196643D-01 -0.789832D-01
     25  0.160342D-01 -0.128195D-02 -0.515356D-01  0.301180D-01  0.109247D-01
     26 -0.114386D-01 -0.707469D-03 -0.351948D-01 -0.160375D+00 -0.409995D-01
     27 -0.102517D-02  0.266880D-02 -0.104041D-01 -0.401466D-01 -0.600672D-01
     28 -0.472856D-02 -0.400512D-03 -0.399964D-02  0.125818D-02 -0.606560D-02
     29 -0.708794D-03 -0.159886D-02  0.522523D-02 -0.277024D-02  0.486264D-02
     30  0.728777D-02  0.323337D-02 -0.879845D-02 -0.148431D-02 -0.195786D-01
     31 -0.710680D-02  0.214220D-02  0.327453D-02  0.147014D-02  0.418078D-02
     32 -0.414922D-02  0.759717D-03  0.114054D-01 -0.104561D-01  0.568088D-02
     33  0.269217D-02  0.500311D-03 -0.109246D-02  0.301992D-02 -0.444463D-02
     34  0.101411D-02 -0.646407D-03 -0.386881D-02  0.744155D-03 -0.440794D-02
     35 -0.690458D-03  0.548912D-03 -0.197972D-01 -0.144469D-01  0.225677D-01
     36  0.552433D-03 -0.103586D-03 -0.897532D-02 -0.551426D-02  0.177461D-02
               16            17            18            19            20 
     16  0.668553D-01
     17  0.276369D-01  0.176654D+00
     18  0.600495D-02 -0.200817D+00  0.772169D+00
     19  0.132772D-01  0.856791D-03 -0.644580D-02  0.369794D+00
     20 -0.762355D-02  0.150966D-01  0.652169D-02 -0.212414D-01  0.142978D+00
     21  0.238175D-01 -0.413701D-02 -0.150207D-02 -0.295496D+00  0.636715D-01
     22  0.145487D-01 -0.151455D-01  0.726809D-02  0.197154D-02  0.477931D-01
     23 -0.122139D-01 -0.481956D-01  0.192022D-01  0.196437D-01 -0.481215D-01
     24  0.110040D-01  0.505931D-01 -0.810357D-02  0.240617D-01 -0.582905D-01
     25  0.758963D-02 -0.257173D-01 -0.317387D-01 -0.476831D-01 -0.611518D-01
     26 -0.104042D-01  0.172985D-02 -0.229790D-01 -0.277435D-01 -0.136312D-01
     27 -0.290551D-01 -0.507074D-01 -0.527471D-01  0.225948D-01  0.191617D-01
     28 -0.169531D-01 -0.387294D-02  0.620186D-02 -0.403864D-04 -0.159789D-04
     29 -0.241810D-02  0.177360D-02 -0.185544D-02 -0.915438D-03  0.345389D-03
     30 -0.238911D-02 -0.201159D-02  0.107082D-01  0.283154D-02  0.122443D-02
     31 -0.112810D-02  0.125366D-03 -0.103546D-02 -0.281593D-02 -0.132188D-02
     32 -0.105941D-02  0.157493D-02 -0.124170D-02 -0.234440D-02  0.947848D-03
     33 -0.122811D-02 -0.804779D-03  0.240031D-02  0.336912D-03 -0.658097D-03
     34  0.202881D-02  0.818065D-02 -0.517323D-02 -0.408089D-02  0.360931D-02
     35 -0.300997D-03 -0.429469D-02  0.876620D-03  0.555713D-03  0.796729D-02
     36  0.110019D-03  0.321847D-02  0.908489D-03  0.125006D-02 -0.271541D-02
               21            22            23            24            25 
     21  0.334743D+00
     22  0.329410D-01  0.267885D+00
     23 -0.400935D-01  0.233569D+00  0.581948D+00
     24 -0.114067D-01 -0.263181D+00 -0.149552D+00  0.300758D+00
     25  0.890530D-02  0.115196D-01 -0.218733D-02 -0.253050D-02  0.850239D-01
     26  0.312027D-02 -0.159721D-01 -0.128192D-01 -0.480034D-02  0.174563D-01
     27  0.114106D-01 -0.398247D-02 -0.192262D-02  0.522429D-02  0.160259D-01
     28  0.626791D-03  0.667423D-03 -0.394373D-03  0.226189D-03  0.207668D-02
     29 -0.135549D-03 -0.190518D-02 -0.140803D-02 -0.755834D-03 -0.407231D-02
     30  0.232576D-02  0.252580D-02  0.235639D-02  0.220788D-02  0.934527D-02
     31  0.735494D-03 -0.149965D-02 -0.206572D-02 -0.924952D-03 -0.789324D-02
     32  0.830926D-03 -0.466663D-02 -0.424484D-02 -0.818990D-03 -0.138849D-02
     33  0.643024D-03  0.790659D-03 -0.230696D-04  0.772088D-03 -0.819405D-03
     34  0.229953D-02 -0.175351D+00 -0.207912D+00  0.221103D+00  0.102946D-03
     35 -0.124790D-03 -0.181648D+00 -0.215149D+00  0.187342D+00  0.216081D-02
     36 -0.444764D-02  0.225087D+00  0.218676D+00 -0.219630D+00  0.204768D-02
               26            27            28            29            30 
     26  0.312682D+00
     27  0.988867D-01  0.905916D-01
     28  0.641345D-03 -0.230264D-03  0.545715D-01
     29  0.398327D-02 -0.392844D-03  0.391719D-01  0.495384D-01
     30  0.125856D-02 -0.479159D-03  0.478633D-01 -0.114383D-01  0.794453D+00
     31 -0.312839D-02  0.195020D-02  0.450147D-02 -0.149889D-01 -0.480250D-01
     32  0.964763D-02  0.377842D-02 -0.111978D-01  0.721809D-02 -0.495174D-01
     33  0.101058D-02  0.281900D-02 -0.567947D-01 -0.610947D-01 -0.787930D-01
     34 -0.870835D-03  0.292628D-03  0.267583D-03 -0.484690D-04  0.713933D-04
     35  0.402794D-03 -0.831401D-03  0.700532D-04  0.218542D-03 -0.631084D-03
     36 -0.224132D-02 -0.420486D-03  0.306035D-03 -0.425599D-03  0.565288D-03
               31            32            33            34            35 
     31  0.225821D+00
     32  0.226503D+00  0.275532D+00
     33  0.138128D+00  0.152732D+00  0.204198D+00
     34  0.146992D-03 -0.128094D-03 -0.187314D-04  0.183473D+00
     35  0.412500D-03  0.635296D-03  0.103972D-03  0.200182D+00  0.227169D+00
     36 -0.202861D-03 -0.124310D-02 -0.184941D-04 -0.212787D+00 -0.208751D+00
               36 
     36  0.223357D+00
 FormGI is forming the generalized inverse of G from B-inverse, IUseBI=4.
 Leave Link  716 at Sat May 24 02:38:36 2025, MaxMem=  3758096384 cpu:               0.0 elap:               0.0
 (Enter /apps/easybuild-2022/easybuild/software/Compiler/NVHPC/22.11-CUDA-11.7.0/Gaussian/g16c01-CUDA-11.7.0/g16/l103.exe)

 GradGradGradGradGradGradGradGradGradGradGradGradGradGradGradGradGradGrad
 Berny optimization.
 Red2BG is reusing G-inverse.
 Internal  Forces:  Max     0.114004728 RMS     0.028381896
 Search for a saddle point.
 Step number   1 out of a maximum of  100
 All quantities printed in internal units (Hartrees-Bohrs-Radians)
 Swapping is turned off.
 Second derivative matrix not updated -- analytic derivatives used.
 ITU=  0
     Eigenvalues ---   -0.01231  -0.00127   0.00450   0.00784   0.01247
     Eigenvalues ---    0.04219   0.05046   0.07253   0.08263   0.09823
     Eigenvalues ---    0.10442   0.11419   0.12006   0.16765   0.17301
     Eigenvalues ---    0.19004   0.20853   0.24224   0.27938   0.28933
     Eigenvalues ---    0.38892   0.41137   0.47823   0.55897   0.62611
     Eigenvalues ---    0.66520   0.67632   0.83288   0.85390   0.88113
 Eigenvectors required to have negative eigenvalues:
                          D10       D8        D4        D7        D9
   1                   -0.40945  -0.34043  -0.28221  -0.27246  -0.26558
                          D1        A5        D14       D19       D18
   1                   -0.26291   0.23974  -0.21022   0.18897  -0.18598
 Eigenvalue     2 is  -1.27D-03 should be greater than     0.000000 Eigenvector:
                          D19       D20       D21       D17       D9
   1                    0.54052   0.43253   0.36045   0.23753   0.22474
                          D13       A11       D15       D7        D22
   1                    0.19786  -0.18636   0.16926   0.15647   0.14977
 RFO step:  Lambda0=3.147309847D-02 Lambda=-9.47092291D-02.
 Linear search not attempted -- option 19 set.
 Maximum step size (   0.300) exceeded in Quadratic search.
    -- Step size scaled by   0.622
 Iteration  1 RMS(Cart)=  0.14808983 RMS(Int)=  0.01374752
 Iteration  2 RMS(Cart)=  0.02330158 RMS(Int)=  0.00064050
 Iteration  3 RMS(Cart)=  0.00027184 RMS(Int)=  0.00060419
 Iteration  4 RMS(Cart)=  0.00000012 RMS(Int)=  0.00060419
 ITry= 1 IFail=0 DXMaxC= 6.53D-01 DCOld= 1.00D+10 DXMaxT= 3.00D-01 DXLimC= 3.00D+00 Rises=F
 Variable       Old X    -DE/DX   Delta X   Delta X   Delta X     New X
                                 (Linear)    (Quad)   (Total)
    R1        3.15535  -0.04528   0.00000  -0.13373  -0.13373   3.02162
    R2        2.28057   0.03708   0.00000   0.01999   0.01999   2.30056
    R3        2.37295  -0.00178   0.00000  -0.01684  -0.01684   2.35611
    R4        2.36570   0.05133   0.00000   0.04944   0.04944   2.41515
    R5        2.91143  -0.06553   0.00000  -0.10927  -0.10927   2.80216
    R6        3.38354   0.05072   0.00000   0.07534   0.07534   3.45888
    R7        2.65309   0.04838   0.00000   0.03647   0.03647   2.68956
    R8        2.72405  -0.00124   0.00000  -0.00655  -0.00655   2.71750
    R9        2.98530   0.04306   0.00000   0.06083   0.06083   3.04613
   R10        3.06538   0.11400   0.00000   0.07480   0.07480   3.14018
   R11        1.77606   0.01873   0.00000   0.01994   0.01994   1.79600
    A1        2.17235  -0.00012   0.00000  -0.02628  -0.02646   2.14589
    A2        2.12274  -0.00572   0.00000   0.01326   0.01308   2.13583
    A3        1.98703   0.00606   0.00000   0.01452   0.01435   2.00138
    A4        1.93065  -0.00162   0.00000   0.03973   0.03881   1.96947
    A5        1.72394  -0.00764   0.00000  -0.12011  -0.11940   1.60454
    A6        1.85113   0.00514   0.00000   0.03434   0.03330   1.88443
    A7        1.75589   0.00831   0.00000   0.01073   0.01180   1.76769
    A8        2.11603  -0.00925   0.00000   0.00016  -0.00169   2.11434
    A9        2.04801   0.00479   0.00000   0.01130   0.01124   2.05924
   A10        1.82725   0.01239   0.00000  -0.00761  -0.00744   1.81981
   A11        2.11818   0.00219   0.00000   0.01065   0.01045   2.12863
   A12        1.53349  -0.02423   0.00000   0.01173   0.01201   1.54550
   A13        1.17772   0.07193   0.00000   0.02630   0.02666   1.20438
   A14        2.30788  -0.01390   0.00000  -0.00085  -0.00087   2.30702
   A15        1.72831  -0.00222   0.00000  -0.03382  -0.03324   1.69507
   A16        1.62265  -0.01547   0.00000  -0.00785  -0.00715   1.61549
   A17        1.65616   0.01939   0.00000   0.01447   0.01353   1.66969
   A18        1.62929  -0.03578   0.00000  -0.00527  -0.00625   1.62304
   A19        2.69977   0.04859   0.00000   0.04359   0.04354   2.74332
   A20        2.15196  -0.02968   0.00000  -0.10922  -0.10922   2.04274
    D1       -2.98051  -0.00171   0.00000   0.15712   0.15832  -2.82218
    D2       -1.14976   0.00372   0.00000   0.12754   0.12696  -1.02279
    D3        0.97736   0.00753   0.00000   0.10013   0.09951   1.07686
    D4        0.21368  -0.00736   0.00000   0.11953   0.12073   0.33441
    D5        2.04443  -0.00192   0.00000   0.08995   0.08937   2.13380
    D6       -2.11164   0.00189   0.00000   0.06254   0.06191  -2.04973
    D7       -0.53079  -0.00366   0.00000   0.23467   0.23472  -0.29606
    D8        2.38047  -0.00309   0.00000   0.24243   0.24245   2.62292
    D9       -2.25467   0.00489   0.00000   0.26662   0.26601  -1.98867
   D10        0.98925  -0.00588   0.00000   0.23661   0.23726   1.22651
   D11       -2.74912   0.00121   0.00000   0.14420   0.14426  -2.60486
   D12        0.16213   0.00178   0.00000   0.15196   0.15200   0.31412
   D13        1.81017   0.00976   0.00000   0.17615   0.17555   1.98572
   D14       -1.22908  -0.00101   0.00000   0.14614   0.14680  -1.08228
   D15        1.37375  -0.00738   0.00000   0.11518   0.11513   1.48888
   D16       -1.99818  -0.00681   0.00000   0.12294   0.12286  -1.87532
   D17       -0.35014   0.00117   0.00000   0.14712   0.14641  -0.20372
   D18        2.89379  -0.00960   0.00000   0.11711   0.11766   3.01145
   D19       -1.93449  -0.00022   0.00000   0.14129   0.14171  -1.79279
   D20        2.52409  -0.00902   0.00000   0.14727   0.14770   2.67179
   D21        0.18260   0.00026   0.00000   0.15301   0.15355   0.33614
   D22       -1.71197   0.00605   0.00000   0.09848   0.09710  -1.61487
         Item               Value     Threshold  Converged?
 Maximum Force            0.114005     0.000450     NO 
 RMS     Force            0.028382     0.000300     NO 
 Maximum Displacement     0.652775     0.001800     NO 
 RMS     Displacement     0.166554     0.001200     NO 
 Predicted change in Energy=-2.958740D-02
 Lowest energy point so far.  Saving SCF results.
 GradGradGradGradGradGradGradGradGradGradGradGradGradGradGradGradGradGrad

 Leave Link  103 at Sat May 24 02:38:37 2025, MaxMem=  3758096384 cpu:               0.1 elap:               0.1
 (Enter /apps/easybuild-2022/easybuild/software/Compiler/NVHPC/22.11-CUDA-11.7.0/Gaussian/g16c01-CUDA-11.7.0/g16/l202.exe)
                          Input orientation:                          
 ---------------------------------------------------------------------
 Center     Atomic      Atomic             Coordinates (Angstroms)
 Number     Number       Type             X           Y           Z
 ---------------------------------------------------------------------
      1          6           0       -0.859317   -0.972061    0.602164
      2          6           0        0.037869   -0.099233   -0.392795
      3          9           0       -0.356230   -0.168860   -1.606560
      4          9           0       -0.607388    1.160319    0.049903
      5         16           0        1.793927   -0.366093    0.049083
      6          8           0        1.745373   -0.926858    1.356307
      7          8           0        2.845663   -0.284629   -0.928249
      8          8           0        1.873494    1.180100    0.497772
      9          9           0        1.139847   -1.729044   -0.640719
     10          9           0       -0.869338   -0.800896    1.807433
     11          9           0       -1.594688   -1.895789    0.201583
     12          1           0        2.298720    1.782632   -0.101727
 ---------------------------------------------------------------------
                    Distance matrix (angstroms):
                    1          2          3          4          5
     1  C    0.000000
     2  C    1.598973   0.000000
     3  F    2.403475   1.278041   0.000000
     4  F    2.217094   1.482838   2.138614   0.000000
     5  S    2.777193   1.830359   2.720888   2.845391   0.000000
     6  O    2.712045   2.580677   3.710779   3.405655   1.423253
     7  O    4.067137   2.864400   3.275000   3.868878   1.438040
     8  O    3.480079   2.408178   3.349564   2.521062   1.611944
     9  F    2.472739   1.982954   2.367545   3.446478   1.661711
    10  F    1.217403   2.481201   3.509716   2.646488   3.220844
    11  F    1.246799   2.499227   2.790240   3.215208   3.721013
    12  H    4.249353   2.955941   3.622376   2.975858   2.212369
                    6          7          8          9         10
     6  O    0.000000
     7  O    2.615777   0.000000
     8  O    2.278765   2.263643   0.000000
     9  F    2.235683   2.253623   3.208974   0.000000
    10  F    2.656331   4.642383   3.628041   3.300263   0.000000
    11  F    3.664454   4.856858   4.645116   2.866175   2.074531
    12  H    3.126243   2.292565   0.950401   3.737027   4.511774
                   11         12
    11  F    0.000000
    12  H    5.364830   0.000000
 Symmetry turned off by external request.
 Stoichiometry    C2HF5O3S
 Rotational constants (GHZ):           1.5366619           0.8825840           0.8720722
 Leave Link  202 at Sat May 24 02:38:37 2025, MaxMem=  3758096384 cpu:               0.0 elap:               0.0
 (Enter /apps/easybuild-2022/easybuild/software/Compiler/NVHPC/22.11-CUDA-11.7.0/Gaussian/g16c01-CUDA-11.7.0/g16/l301.exe)
 Standard basis: def2TZVPP (5D, 7F)
 Ernie: Thresh=  0.10000D-02 Tol=  0.10000D-05 Strict=F.
   366 basis functions,   596 primitive gaussians,   423 cartesian basis functions
    49 alpha electrons       49 beta electrons
       nuclear repulsion energy       946.5827880313 Hartrees.
 IExCor= 4336 DFT=T Ex+Corr=M062X ExCW=0 ScaHFX=  0.540000
 ScaDFX=  1.000000  1.000000  1.000000  1.000000 ScalE2=  1.000000  1.000000
 IRadAn=      5 IRanWt=     -1 IRanGd=            0 ICorTp=0 IEmpDi=  4
 NAtoms=   12 NActive=   12 NUniq=   12 SFac= 1.00D+00 NAtFMM=   60 NAOKFM=F Big=F
 Integral buffers will be    131072 words long.
 Raffenetti 2 integral format.
 Two-electron integral symmetry is turned off.
 Leave Link  301 at Sat May 24 02:38:37 2025, MaxMem=  3758096384 cpu:               0.1 elap:               0.0
 (Enter /apps/easybuild-2022/easybuild/software/Compiler/NVHPC/22.11-CUDA-11.7.0/Gaussian/g16c01-CUDA-11.7.0/g16/l302.exe)
 NPDir=0 NMtPBC=     1 NCelOv=     1 NCel=       1 NClECP=     1 NCelD=      1
         NCelK=      1 NCelE2=     1 NClLst=     1 CellRange=     0.0.
 One-electron integrals computed using PRISM.
   1 Symmetry operations used in ECPInt.
 ECPInt:  NShTT=    8515 NPrTT=   27988 LenC2=    8052 LenP2D=   19561.
 LDataN:  DoStor=T MaxTD1= 6 Len=  172
 NBasis=   366 RedAO= T EigKep=  4.46D-04  NBF=   366
 NBsUse=   366 1.00D-06 EigRej= -1.00D+00 NBFU=   366
 Precomputing XC quadrature grid using
 IXCGrd= 4 IRadAn=           5 IRanWt=          -1 IRanGd=           0 AccXCQ= 0.00D+00.
 Generated NRdTot=       0 NPtTot=           0 NUsed=           0 NTot=          32
 NSgBfM=   420   420   420   420   420 MxSgAt=    12 MxSgA2=    12.
 Leave Link  302 at Sat May 24 02:38:37 2025, MaxMem=  3758096384 cpu:               0.7 elap:               0.2
 (Enter /apps/easybuild-2022/easybuild/software/Compiler/NVHPC/22.11-CUDA-11.7.0/Gaussian/g16c01-CUDA-11.7.0/g16/l303.exe)
 DipDrv:  MaxL=1.
 Leave Link  303 at Sat May 24 02:38:37 2025, MaxMem=  3758096384 cpu:               0.1 elap:               0.0
 (Enter /apps/easybuild-2022/easybuild/software/Compiler/NVHPC/22.11-CUDA-11.7.0/Gaussian/g16c01-CUDA-11.7.0/g16/l401.exe)
 Initial guess from the checkpoint file:  "2003846667223680600001_r12_insertion_R_2_1_9.chk"
 B after Tr=     0.027850   -0.000992   -0.033273
         Rot=    0.999961    0.007338   -0.003341    0.003530 Ang=   1.01 deg.
 Guess basis will be translated and rotated to current coordinates.
 JPrj=2 DoOrth=T DoCkMO=T.
 Generating alternative initial guess.
 ExpMin= 9.52D-02 ExpMax= 6.07D+04 ExpMxC= 2.07D+03 IAcc=3 IRadAn=         5 AccDes= 0.00D+00
 Harris functional with IExCor= 1009 and IRadAn=       5 diagonalized for initial guess.
 HarFok:  IExCor= 1009 AccDes= 0.00D+00 IRadAn=         5 IDoV= 1 UseB2=F ITyADJ=14
 ICtDFT=  3500011 ScaDFX=  1.000000  1.000000  1.000000  1.000000
 FoFCou: FMM=F IPFlag=           0 FMFlag=      100000 FMFlg1=           0
         NFxFlg=           0 DoJE=T BraDBF=F KetDBF=T FulRan=T
         wScrn=  0.000000 ICntrl=       500 IOpCl=  0 I1Cent=   200000004 NGrid=           0
         NMat0=    1 NMatS0=      1 NMatT0=    0 NMatD0=    1 NMtDS0=    0 NMtDT0=    0
 Symmetry not used in FoFCou.
 Harris En= -1199.22728576469    
 Leave Link  401 at Sat May 24 02:38:38 2025, MaxMem=  3758096384 cpu:               4.4 elap:               0.7
 (Enter /apps/easybuild-2022/easybuild/software/Compiler/NVHPC/22.11-CUDA-11.7.0/Gaussian/g16c01-CUDA-11.7.0/g16/l502.exe)
 Keep R1 ints in memory in canonical form, NReq=2293447020.
 FoFCou: FMM=F IPFlag=           0 FMFlag=           0 FMFlg1=           0
         NFxFlg=           0 DoJE=F BraDBF=F KetDBF=F FulRan=T
         wScrn=  0.000000 ICntrl=       600 IOpCl=  0 I1Cent=           0 NGrid=           0
         NMat0=    1 NMatS0=  67161 NMatT0=    0 NMatD0=    1 NMtDS0=    0 NMtDT0=    0
 Symmetry not used in FoFCou.
 Two-electron integral symmetry not used.
 Closed shell SCF:
 Using DIIS extrapolation, IDIIS=  1040.
 NGot=  3758096384 LenX=  1502398648 LenY=  1502219278
 Requested convergence on RMS density matrix=1.00D-08 within  32 cycles.
 Requested convergence on MAX density matrix=1.00D-06.
 Requested convergence on             energy=1.00D-06.
 No special actions if energy rises.
 Integral accuracy reduced to 1.0D-05 until final iterations.

 Cycle   1  Pass 0  IDiag  1:
 E= -1199.64024741519    
 DIIS: error= 6.56D-03 at cycle   1 NSaved=   1.
 NSaved= 1 IEnMin= 1 EnMin= -1199.64024741519     IErMin= 1 ErrMin= 6.56D-03
 ErrMax= 6.56D-03  0.00D+00 EMaxC= 1.00D-01 BMatC= 6.98D-02 BMatP= 6.98D-02
 IDIUse=3 WtCom= 9.34D-01 WtEn= 6.56D-02
 Coeff-Com:  0.100D+01
 Coeff-En:   0.100D+01
 Coeff:      0.100D+01
 Gap=     1.069 Goal=   None    Shift=    0.000
 GapD=    1.069 DampG=2.000 DampE=1.000 DampFc=2.0000 IDamp=-1.
 RMSDP=7.57D-04 MaxDP=2.30D-02              OVMax= 4.89D-02

 Cycle   2  Pass 0  IDiag  1:
 E= -1199.71906978460     Delta-E=       -0.078822369418 Rises=F Damp=F
 DIIS: error= 2.40D-03 at cycle   2 NSaved=   2.
 NSaved= 2 IEnMin= 2 EnMin= -1199.71906978460     IErMin= 2 ErrMin= 2.40D-03
 ErrMax= 2.40D-03  0.00D+00 EMaxC= 1.00D-01 BMatC= 3.90D-03 BMatP= 6.98D-02
 IDIUse=3 WtCom= 9.76D-01 WtEn= 2.40D-02
 Coeff-Com: -0.424D-01 0.104D+01
 Coeff-En:   0.000D+00 0.100D+01
 Coeff:     -0.414D-01 0.104D+01
 Gap=     0.214 Goal=   None    Shift=    0.000
 RMSDP=2.09D-04 MaxDP=7.43D-03 DE=-7.88D-02 OVMax= 1.96D-02

 Cycle   3  Pass 0  IDiag  1:
 E= -1199.72155789925     Delta-E=       -0.002488114644 Rises=F Damp=F
 DIIS: error= 1.94D-03 at cycle   3 NSaved=   3.
 NSaved= 3 IEnMin= 3 EnMin= -1199.72155789925     IErMin= 3 ErrMin= 1.94D-03
 ErrMax= 1.94D-03  0.00D+00 EMaxC= 1.00D-01 BMatC= 4.12D-03 BMatP= 3.90D-03
 IDIUse=3 WtCom= 9.81D-01 WtEn= 1.94D-02
 Coeff-Com: -0.777D-01 0.562D+00 0.516D+00
 Coeff-En:   0.000D+00 0.112D+00 0.888D+00
 Coeff:     -0.762D-01 0.553D+00 0.523D+00
 Gap=     0.210 Goal=   None    Shift=    0.000
 RMSDP=1.07D-04 MaxDP=5.74D-03 DE=-2.49D-03 OVMax= 7.51D-03

 Cycle   4  Pass 0  IDiag  1:
 E= -1199.72408217813     Delta-E=       -0.002524278882 Rises=F Damp=F
 DIIS: error= 4.20D-04 at cycle   4 NSaved=   4.
 NSaved= 4 IEnMin= 4 EnMin= -1199.72408217813     IErMin= 4 ErrMin= 4.20D-04
 ErrMax= 4.20D-04  0.00D+00 EMaxC= 1.00D-01 BMatC= 6.78D-05 BMatP= 3.90D-03
 IDIUse=3 WtCom= 9.96D-01 WtEn= 4.20D-03
 Coeff-Com: -0.324D-02-0.370D-01 0.753D-01 0.965D+00
 Coeff-En:   0.000D+00 0.000D+00 0.000D+00 0.100D+01
 Coeff:     -0.322D-02-0.368D-01 0.750D-01 0.965D+00
 Gap=     0.209 Goal=   None    Shift=    0.000
 RMSDP=2.95D-05 MaxDP=9.59D-04 DE=-2.52D-03 OVMax= 3.22D-03

 Cycle   5  Pass 0  IDiag  1:
 E= -1199.72416946971     Delta-E=       -0.000087291577 Rises=F Damp=F
 DIIS: error= 1.22D-04 at cycle   5 NSaved=   5.
 NSaved= 5 IEnMin= 5 EnMin= -1199.72416946971     IErMin= 5 ErrMin= 1.22D-04
 ErrMax= 1.22D-04  0.00D+00 EMaxC= 1.00D-01 BMatC= 1.32D-05 BMatP= 6.78D-05
 IDIUse=3 WtCom= 9.99D-01 WtEn= 1.22D-03
 Coeff-Com:  0.301D-02-0.484D-01 0.300D-02 0.427D+00 0.616D+00
 Coeff-En:   0.000D+00 0.000D+00 0.000D+00 0.000D+00 0.100D+01
 Coeff:      0.301D-02-0.484D-01 0.300D-02 0.426D+00 0.616D+00
 Gap=     0.210 Goal=   None    Shift=    0.000
 RMSDP=9.98D-06 MaxDP=3.92D-04 DE=-8.73D-05 OVMax= 1.07D-03

 Initial convergence to 1.0D-05 achieved.  Increase integral accuracy.
 Cycle   6  Pass 1  IDiag  1:
 E= -1199.72412142698     Delta-E=        0.000048042731 Rises=F Damp=F
 DIIS: error= 6.05D-05 at cycle   1 NSaved=   1.
 NSaved= 1 IEnMin= 1 EnMin= -1199.72412142698     IErMin= 1 ErrMin= 6.05D-05
 ErrMax= 6.05D-05  0.00D+00 EMaxC= 1.00D-01 BMatC= 3.27D-06 BMatP= 3.27D-06
 IDIUse=1 WtCom= 1.00D+00 WtEn= 0.00D+00
 Coeff-Com:  0.100D+01
 Coeff:      0.100D+01
 Gap=     0.209 Goal=   None    Shift=    0.000
 RMSDP=9.98D-06 MaxDP=3.92D-04 DE= 4.80D-05 OVMax= 6.40D-04

 Cycle   7  Pass 1  IDiag  1:
 E= -1199.72412269499     Delta-E=       -0.000001268013 Rises=F Damp=F
 DIIS: error= 5.11D-05 at cycle   2 NSaved=   2.
 NSaved= 2 IEnMin= 2 EnMin= -1199.72412269499     IErMin= 2 ErrMin= 5.11D-05
 ErrMax= 5.11D-05  0.00D+00 EMaxC= 1.00D-01 BMatC= 3.92D-06 BMatP= 3.27D-06
 IDIUse=1 WtCom= 1.00D+00 WtEn= 0.00D+00
 Coeff-Com:  0.527D+00 0.473D+00
 Coeff:      0.527D+00 0.473D+00
 Gap=     0.210 Goal=   None    Shift=    0.000
 RMSDP=3.80D-06 MaxDP=1.74D-04 DE=-1.27D-06 OVMax= 3.81D-04

 Cycle   8  Pass 1  IDiag  1:
 E= -1199.72412532026     Delta-E=       -0.000002625274 Rises=F Damp=F
 DIIS: error= 1.69D-05 at cycle   3 NSaved=   3.
 NSaved= 3 IEnMin= 3 EnMin= -1199.72412532026     IErMin= 3 ErrMin= 1.69D-05
 ErrMax= 1.69D-05  0.00D+00 EMaxC= 1.00D-01 BMatC= 1.56D-07 BMatP= 3.27D-06
 IDIUse=1 WtCom= 1.00D+00 WtEn= 0.00D+00
 Coeff-Com: -0.825D-01 0.106D+00 0.977D+00
 Coeff:     -0.825D-01 0.106D+00 0.977D+00
 Gap=     0.210 Goal=   None    Shift=    0.000
 RMSDP=1.60D-06 MaxDP=4.14D-05 DE=-2.63D-06 OVMax= 2.06D-04

 Cycle   9  Pass 1  IDiag  1:
 E= -1199.72412556903     Delta-E=       -0.000000248770 Rises=F Damp=F
 DIIS: error= 5.83D-06 at cycle   4 NSaved=   4.
 NSaved= 4 IEnMin= 4 EnMin= -1199.72412556903     IErMin= 4 ErrMin= 5.83D-06
 ErrMax= 5.83D-06  0.00D+00 EMaxC= 1.00D-01 BMatC= 2.09D-08 BMatP= 1.56D-07
 IDIUse=1 WtCom= 1.00D+00 WtEn= 0.00D+00
 Coeff-Com: -0.628D-01 0.139D-01 0.361D+00 0.688D+00
 Coeff:     -0.628D-01 0.139D-01 0.361D+00 0.688D+00
 Gap=     0.210 Goal=   None    Shift=    0.000
 RMSDP=4.79D-07 MaxDP=1.65D-05 DE=-2.49D-07 OVMax= 6.54D-05

 Cycle  10  Pass 1  IDiag  1:
 E= -1199.72412559637     Delta-E=       -0.000000027338 Rises=F Damp=F
 DIIS: error= 3.72D-06 at cycle   5 NSaved=   5.
 NSaved= 5 IEnMin= 5 EnMin= -1199.72412559637     IErMin= 5 ErrMin= 3.72D-06
 ErrMax= 3.72D-06  0.00D+00 EMaxC= 1.00D-01 BMatC= 4.70D-09 BMatP= 2.09D-08
 IDIUse=1 WtCom= 1.00D+00 WtEn= 0.00D+00
 Coeff-Com: -0.342D-02-0.237D-01-0.135D+00 0.290D+00 0.872D+00
 Coeff:     -0.342D-02-0.237D-01-0.135D+00 0.290D+00 0.872D+00
 Gap=     0.210 Goal=   None    Shift=    0.000
 RMSDP=3.06D-07 MaxDP=7.56D-06 DE=-2.73D-08 OVMax= 5.23D-05

 Cycle  11  Pass 1  IDiag  1:
 E= -1199.72412560483     Delta-E=       -0.000000008460 Rises=F Damp=F
 DIIS: error= 5.03D-07 at cycle   6 NSaved=   6.
 NSaved= 6 IEnMin= 6 EnMin= -1199.72412560483     IErMin= 6 ErrMin= 5.03D-07
 ErrMax= 5.03D-07  0.00D+00 EMaxC= 1.00D-01 BMatC= 3.62D-10 BMatP= 4.70D-09
 IDIUse=1 WtCom= 1.00D+00 WtEn= 0.00D+00
 Coeff-Com:  0.422D-02-0.932D-02-0.798D-01 0.313D-01 0.294D+00 0.760D+00
 Coeff:      0.422D-02-0.932D-02-0.798D-01 0.313D-01 0.294D+00 0.760D+00
 Gap=     0.210 Goal=   None    Shift=    0.000
 RMSDP=7.38D-08 MaxDP=2.86D-06 DE=-8.46D-09 OVMax= 9.52D-06

 Cycle  12  Pass 1  IDiag  1:
 E= -1199.72412560523     Delta-E=       -0.000000000397 Rises=F Damp=F
 DIIS: error= 2.28D-07 at cycle   7 NSaved=   7.
 NSaved= 7 IEnMin= 7 EnMin= -1199.72412560523     IErMin= 7 ErrMin= 2.28D-07
 ErrMax= 2.28D-07  0.00D+00 EMaxC= 1.00D-01 BMatC= 7.48D-11 BMatP= 3.62D-10
 IDIUse=1 WtCom= 1.00D+00 WtEn= 0.00D+00
 Coeff-Com:  0.226D-02-0.223D-02-0.261D-01-0.824D-02 0.675D-01 0.372D+00
 Coeff-Com:  0.595D+00
 Coeff:      0.226D-02-0.223D-02-0.261D-01-0.824D-02 0.675D-01 0.372D+00
 Coeff:      0.595D+00
 Gap=     0.210 Goal=   None    Shift=    0.000
 RMSDP=1.96D-08 MaxDP=1.14D-06 DE=-3.97D-10 OVMax= 2.32D-06

 Cycle  13  Pass 1  IDiag  1:
 E= -1199.72412560533     Delta-E=       -0.000000000103 Rises=F Damp=F
 DIIS: error= 6.05D-08 at cycle   8 NSaved=   8.
 NSaved= 8 IEnMin= 8 EnMin= -1199.72412560533     IErMin= 8 ErrMin= 6.05D-08
 ErrMax= 6.05D-08  0.00D+00 EMaxC= 1.00D-01 BMatC= 5.70D-12 BMatP= 7.48D-11
 IDIUse=1 WtCom= 1.00D+00 WtEn= 0.00D+00
 Coeff-Com:  0.145D-03 0.718D-03 0.308D-02-0.729D-02-0.229D-01-0.104D-02
 Coeff-Com:  0.197D+00 0.830D+00
 Coeff:      0.145D-03 0.718D-03 0.308D-02-0.729D-02-0.229D-01-0.104D-02
 Coeff:      0.197D+00 0.830D+00
 Gap=     0.210 Goal=   None    Shift=    0.000
 RMSDP=9.07D-09 MaxDP=4.82D-07 DE=-1.03D-10 OVMax= 1.34D-06

 SCF Done:  E(RM062X) =  -1199.72412561     A.U. after   13 cycles
            NFock= 13  Conv=0.91D-08     -V/T= 2.0026
 KE= 1.196651286774D+03 PE=-4.739480676451D+03 EE= 1.396522476041D+03
 Leave Link  502 at Sat May 24 02:39:16 2025, MaxMem=  3758096384 cpu:             160.4 elap:              38.5
 (Enter /apps/easybuild-2022/easybuild/software/Compiler/NVHPC/22.11-CUDA-11.7.0/Gaussian/g16c01-CUDA-11.7.0/g16/l508.exe)
 QCSCF skips out because SCF is already converged.
 Leave Link  508 at Sat May 24 02:39:16 2025, MaxMem=  3758096384 cpu:               0.0 elap:               0.0
 (Enter /apps/easybuild-2022/easybuild/software/Compiler/NVHPC/22.11-CUDA-11.7.0/Gaussian/g16c01-CUDA-11.7.0/g16/l801.exe)
 DoSCS=F DFT=T ScalE2(SS,OS)=  1.000000  1.000000
 Range of M.O.s used for correlation:     1   366
 NBasis=   366 NAE=    49 NBE=    49 NFC=     0 NFV=     0
 NROrb=    366 NOA=    49 NOB=    49 NVA=   317 NVB=   317

 **** Warning!!: The largest alpha MO coefficient is  0.13585519D+02

 Leave Link  801 at Sat May 24 02:39:16 2025, MaxMem=  3758096384 cpu:               0.0 elap:               0.0
 (Enter /apps/easybuild-2022/easybuild/software/Compiler/NVHPC/22.11-CUDA-11.7.0/Gaussian/g16c01-CUDA-11.7.0/g16/l1101.exe)
 Using compressed storage, NAtomX=    12.
 Will process     13 centers per pass.
   1 Symmetry operations used in ECPInt.
 ECPInt:  NShTT=    8515 NPrTT=   27988 LenC2=    8052 LenP2D=   19561.
 LDataN:  DoStor=T MaxTD1= 7 Len=  274
 Leave Link 1101 at Sat May 24 02:39:16 2025, MaxMem=  3758096384 cpu:               1.0 elap:               0.2
 (Enter /apps/easybuild-2022/easybuild/software/Compiler/NVHPC/22.11-CUDA-11.7.0/Gaussian/g16c01-CUDA-11.7.0/g16/l1102.exe)
 Symmetrizing basis deriv contribution to polar:
 IMax=3 JMax=2 DiffMx= 0.00D+00
 Leave Link 1102 at Sat May 24 02:39:16 2025, MaxMem=  3758096384 cpu:               0.1 elap:               0.1
 (Enter /apps/easybuild-2022/easybuild/software/Compiler/NVHPC/22.11-CUDA-11.7.0/Gaussian/g16c01-CUDA-11.7.0/g16/l1110.exe)
 Forming Gx(P) for the SCF density, NAtomX=    12.
 Integral derivatives from FoFJK, PRISM(SPDF).
 Do as many integral derivatives as possible in FoFJK.
 G2DrvN: MDV=    3758094988.
 G2DrvN: will do    13 centers at a time, making    1 passes.
 Calling FoFCou, ICntrl=  3107 FMM=F I1Cent=   0 AccDes= 0.00D+00.
 FoFJK:  IHMeth= 1 ICntrl=    3107 DoSepK=F KAlg= 0 I1Cent=           0 FoldK=F
 IRaf=         0 NMat=       1 IRICut=       1 DoRegI=T DoRafI=F ISym2E= 0 IDoP0=0 IntGTp=1.
 FoFCou: FMM=F IPFlag=           0 FMFlag=      100000 FMFlg1=           0
         NFxFlg=           0 DoJE=F BraDBF=F KetDBF=F FulRan=T
         wScrn=  0.000000 ICntrl=      3107 IOpCl=  0 I1Cent=           0 NGrid=           0
         NMat0=    1 NMatS0=      1 NMatT0=    0 NMatD0=    1 NMtDS0=    0 NMtDT0=    0
 Symmetry not used in FoFCou.
 End of G2Drv F.D. properties file   721 does not exist.
 End of G2Drv F.D. properties file   722 does not exist.
 End of G2Drv F.D. properties file   788 does not exist.
 Leave Link 1110 at Sat May 24 02:40:20 2025, MaxMem=  3758096384 cpu:             501.8 elap:              63.2
 (Enter /apps/easybuild-2022/easybuild/software/Compiler/NVHPC/22.11-CUDA-11.7.0/Gaussian/g16c01-CUDA-11.7.0/g16/l1002.exe)
 Minotr:  Closed shell wavefunction.
          IDoAtm=111111111111
          Direct CPHF calculation.
          Differentiating once with respect to electric field.
                with respect to dipole field.
          Differentiating once with respect to nuclear coordinates.
          Requested convergence is 1.0D-08 RMS, and 1.0D-07 maximum.
          Secondary convergence is 1.0D-12 RMS, and 1.0D-12 maximum.
          NewPWx=T KeepS1=F KeepF1=F KeepIn=T MapXYZ=F SortEE=F KeepMc=T.
         3598 words used for storage of precomputed grid.
 Keep R1 ints in memory in canonical form, NReq=2293452928.
 FoFCou: FMM=F IPFlag=           0 FMFlag=           0 FMFlg1=           0
         NFxFlg=           0 DoJE=F BraDBF=F KetDBF=F FulRan=T
         wScrn=  0.000000 ICntrl=       600 IOpCl=  0 I1Cent=           0 NGrid=           0
         NMat0=    1 NMatS0=  67161 NMatT0=    0 NMatD0=    1 NMtDS0=    0 NMtDT0=    0
 Symmetry not used in FoFCou.
 Two-electron integral symmetry not used.
          MDV=    3758096384 using IRadAn=       1.
          Solving linear equations simultaneously, MaxMat=       0.
          There are    39 degrees of freedom in the 1st order CPHF.  IDoFFX=6 NUNeed=     3.
     36 vectors produced by pass  0 Test12= 3.98D-14 2.56D-09 XBig12= 3.02D+01 1.89D+00.
 AX will form    36 AO Fock derivatives at one time.
     36 vectors produced by pass  1 Test12= 3.98D-14 2.56D-09 XBig12= 4.35D+00 2.72D-01.
     36 vectors produced by pass  2 Test12= 3.98D-14 2.56D-09 XBig12= 1.69D-01 5.58D-02.
     36 vectors produced by pass  3 Test12= 3.98D-14 2.56D-09 XBig12= 4.17D-03 1.09D-02.
     36 vectors produced by pass  4 Test12= 3.98D-14 2.56D-09 XBig12= 5.85D-05 1.02D-03.
     36 vectors produced by pass  5 Test12= 3.98D-14 2.56D-09 XBig12= 6.54D-07 8.91D-05.
     36 vectors produced by pass  6 Test12= 3.98D-14 2.56D-09 XBig12= 4.95D-09 8.74D-06.
     24 vectors produced by pass  7 Test12= 3.98D-14 2.56D-09 XBig12= 2.70D-11 6.51D-07.
      5 vectors produced by pass  8 Test12= 3.98D-14 2.56D-09 XBig12= 1.38D-13 5.06D-08.
      2 vectors produced by pass  9 Test12= 3.98D-14 2.56D-09 XBig12= 7.30D-16 3.28D-09.
 InvSVY:  IOpt=1 It=  1 EMax= 6.22D-15
 Solved reduced A of dimension   283 with    39 vectors.
 FullF1:  Do perturbations      1 to       3.
 Isotropic polarizability for W=    0.000000       57.78 Bohr**3.
 End of Minotr F.D. properties file   721 does not exist.
 End of Minotr F.D. properties file   722 does not exist.
 End of Minotr F.D. properties file   788 does not exist.
 Leave Link 1002 at Sat May 24 02:42:01 2025, MaxMem=  3758096384 cpu:             798.4 elap:             101.4
 (Enter /apps/easybuild-2022/easybuild/software/Compiler/NVHPC/22.11-CUDA-11.7.0/Gaussian/g16c01-CUDA-11.7.0/g16/l701.exe)
 ... and contract with generalized density number  0.
 Compute integral second derivatives.
   1 Symmetry operations used in ECPInt.
 ECPInt:  NShTT=    8515 NPrTT=   27988 LenC2=    8052 LenP2D=   19561.
 LDataN:  DoStor=T MaxTD1= 8 Len=  415
 Leave Link  701 at Sat May 24 02:42:01 2025, MaxMem=  3758096384 cpu:               0.8 elap:               0.1
 (Enter /apps/easybuild-2022/easybuild/software/Compiler/NVHPC/22.11-CUDA-11.7.0/Gaussian/g16c01-CUDA-11.7.0/g16/l702.exe)
 L702 exits ... SP integral derivatives will be done elsewhere.
 Leave Link  702 at Sat May 24 02:42:01 2025, MaxMem=  3758096384 cpu:               0.0 elap:               0.0
 (Enter /apps/easybuild-2022/easybuild/software/Compiler/NVHPC/22.11-CUDA-11.7.0/Gaussian/g16c01-CUDA-11.7.0/g16/l703.exe)
 Integral derivatives from FoFJK, PRISM(SPDF).
 Compute integral second derivatives, UseDBF=F ICtDFT=           0.
 Calling FoFJK, ICntrl=    100127 FMM=F ISym2X=0 I1Cent= 0 IOpClX= 0 NMat=1 NMatS=1 NMatT=0.
 FoFJK:  IHMeth= 1 ICntrl=  100127 DoSepK=F KAlg= 0 I1Cent=           0 FoldK=F
 IRaf=         0 NMat=       1 IRICut=       1 DoRegI=T DoRafI=F ISym2E= 0 IDoP0=0 IntGTp=1.
 FoFCou: FMM=F IPFlag=           0 FMFlag=      100000 FMFlg1=         800
         NFxFlg=           0 DoJE=F BraDBF=F KetDBF=F FulRan=T
         wScrn=  0.000000 ICntrl=    100127 IOpCl=  0 I1Cent=           0 NGrid=           0
         NMat0=    1 NMatS0=      1 NMatT0=    0 NMatD0=    1 NMtDS0=    0 NMtDT0=    0
 Symmetry not used in FoFCou.
 Leave Link  703 at Sat May 24 02:44:18 2025, MaxMem=  3758096384 cpu:            1090.8 elap:             137.2
[...]
     20  0.318010D-02  0.360817D-03  0.486777D-01 -0.884248D-01 -0.359180D-01
     21  0.107602D-02  0.876075D-03  0.267903D+00 -0.400485D-01 -0.323081D+00
     22 -0.517280D-02 -0.256049D-02 -0.926325D-01 -0.346582D-01  0.523594D-02
     23  0.105847D-01  0.116772D-02 -0.931322D-02 -0.170732D+00 -0.505756D-01
     24  0.152273D-02  0.142834D-02  0.132054D-01 -0.292180D-01 -0.842689D-01
     25  0.782003D-02 -0.209136D-02 -0.203223D-01  0.519299D-01  0.414169D-01
     26 -0.654308D-02 -0.495843D-03  0.330891D-01 -0.116993D-01  0.233519D-01
     27 -0.211575D-02  0.286820D-02  0.100654D-01  0.448426D-02 -0.461367D-01
     28 -0.385930D-02 -0.243033D-02 -0.854455D-02  0.969903D-02 -0.294782D-01
     29  0.147708D-02  0.472512D-02  0.533342D-02 -0.685860D-02  0.136408D-01
     30  0.262645D-02  0.412349D-02 -0.227696D-02 -0.977489D-02  0.507714D-02
     31 -0.460758D-02  0.182765D-03  0.279531D-02  0.133888D-01  0.261473D-02
     32 -0.429420D-02  0.130005D-02  0.215779D-02 -0.421839D-02 -0.717769D-02
     33  0.517617D-02  0.307998D-03 -0.339392D-02  0.378374D-02 -0.128058D-01
     34 -0.174259D-03 -0.254839D-03 -0.252927D-02 -0.109052D-01  0.879520D-03
     35 -0.373659D-03  0.757741D-03 -0.360416D-01 -0.237640D-01  0.222154D-01
     36  0.107886D-03  0.233021D-04 -0.114628D-01 -0.147384D-02  0.918592D-02
               16            17            18            19            20 
     16  0.600737D-01
     17  0.203499D-01  0.190280D+00
     18 -0.231142D-01 -0.177177D+00  0.511528D+00
     19  0.147940D-01  0.431442D-02 -0.501562D-02  0.416840D+00
     20 -0.101481D-01  0.130060D-01  0.682546D-02 -0.381283D-01  0.119393D+00
     21  0.258739D-01 -0.183646D-02  0.100046D-02 -0.315632D+00  0.722408D-01
     22  0.112176D-01 -0.191003D-01  0.574699D-02  0.598284D-02  0.327279D-01
     23 -0.200183D-01 -0.370110D-01  0.750138D-02  0.700121D-02 -0.283387D-01
     24  0.157979D-01  0.388294D-01 -0.132923D-02  0.120620D-01 -0.432229D-01
     25  0.202515D-01 -0.647755D-02 -0.255930D-01 -0.315916D-01 -0.436055D-01
     26 -0.101137D-02  0.146552D-02 -0.269577D-01 -0.270501D-01 -0.187672D-01
     27 -0.183535D-01 -0.391949D-01 -0.398128D-01  0.780500D-02  0.842106D-02
     28 -0.409663D-01 -0.113813D-01  0.217579D-01  0.118223D-02 -0.136078D-02
     29  0.906832D-02  0.940022D-02 -0.650743D-02 -0.124679D-02  0.897090D-03
     30  0.139072D-01  0.698169D-02  0.648256D-03  0.207762D-02  0.152674D-02
     31 -0.203553D-02 -0.276394D-02 -0.563792D-04 -0.229562D-02 -0.303341D-02
     32 -0.757966D-02 -0.190749D-02  0.279569D-02 -0.169020D-02  0.803041D-03
     33 -0.507906D-02 -0.384656D-02  0.608786D-02  0.167033D-02 -0.150165D-04
     34  0.240447D-02  0.627898D-02 -0.298201D-02 -0.473871D-02  0.642467D-02
     35 -0.460627D-03 -0.711123D-02  0.107557D-02  0.325172D-02  0.659929D-02
     36  0.529534D-03  0.813482D-03  0.102321D-02  0.203265D-02 -0.217017D-02
               21            22            23            24            25 
     21  0.326183D+00
     22  0.240071D-01  0.380688D+00
     23 -0.283830D-01  0.173248D+00  0.346921D+00
     24 -0.989401D-02 -0.245817D+00 -0.285764D-01  0.264063D+00
     25 -0.182887D-03  0.478264D-02 -0.965671D-03 -0.368602D-02  0.663717D-01
     26  0.669004D-03 -0.767239D-02 -0.484184D-02 -0.421466D-02 -0.957344D-02
     27  0.123273D-01 -0.280615D-02 -0.160603D-02  0.423769D-02 -0.167015D-02
     28  0.388994D-02  0.798108D-03 -0.345754D-02  0.199123D-02  0.479320D-02
     29 -0.128992D-02 -0.128289D-02  0.139575D-02 -0.169138D-02 -0.202471D-02
     30 -0.692425D-03  0.164514D-02  0.495280D-02  0.351014D-03  0.567726D-02
     31 -0.879975D-04 -0.384433D-03 -0.222929D-02 -0.170659D-03 -0.365612D-01
     32  0.177967D-02 -0.223605D-02 -0.353076D-02 -0.229520D-04  0.116780D-03
     33  0.122195D-02  0.120074D-02 -0.124505D-03  0.170768D-02  0.138097D-01
     34  0.373830D-02 -0.286679D+00 -0.152000D+00  0.214256D+00 -0.144435D-03
     35  0.413267D-03 -0.121271D+00 -0.948274D-01  0.753672D-01  0.184325D-02
     36 -0.593479D-02  0.226666D+00  0.104750D+00 -0.175053D+00  0.103209D-02
               26            27            28            29            30 
     26  0.102369D+00
     27  0.289818D-01  0.695401D-01
     28  0.231314D-02 -0.464043D-03  0.865833D-01
     29  0.291121D-02  0.510687D-03  0.665805D-04  0.120754D+00
     30 -0.133923D-02 -0.209307D-02 -0.113377D+00  0.134163D+00  0.507465D+00
     31 -0.738265D-02  0.212139D-01  0.223878D-01 -0.308281D-02 -0.824098D-02
     32  0.119457D-01  0.615734D-02 -0.103613D-01 -0.338088D-01 -0.641764D-01
     33  0.419956D-02  0.105602D-02 -0.217972D-01 -0.792277D-01 -0.506079D-01
     34  0.320569D-03  0.426837D-03  0.435249D-03 -0.185167D-03 -0.375849D-03
     35  0.695303D-03 -0.764554D-03  0.960265D-04  0.192033D-04 -0.464375D-03
     36 -0.134888D-02 -0.403763D-03  0.121203D-03 -0.190451D-03  0.367513D-03
               31            32            33            34            35 
     31  0.146513D+00
     32  0.199932D+00  0.443515D+00
     33  0.425801D-01  0.162881D+00  0.154447D+00
     34  0.301164D-03  0.368390D-03  0.125669D-03  0.293454D+00
     35  0.314133D-03  0.486573D-03 -0.411911D-04  0.151854D+00  0.119842D+00
     36  0.116972D-04 -0.557234D-03  0.151730D-03 -0.215169D+00 -0.972154D-01
               36 
     36  0.173482D+00
 Red2BG is reusing G-inverse.
 Leave Link  716 at Sat May 24 03:19:12 2025, MaxMem=  3758096384 cpu:               0.1 elap:               0.0
 (Enter /apps/easybuild-2022/easybuild/software/Compiler/NVHPC/22.11-CUDA-11.7.0/Gaussian/g16c01-CUDA-11.7.0/g16/l9999.exe)

 ----------------------------------------------------------------------

 Electric dipole moment (input orientation):
 (Debye = 10**-18 statcoulomb cm , SI units = C m)
                  (au)            (Debye)         (10**-30 SI)
   Tot        0.190000D+01      0.482931D+01      0.161088D+02
   x         -0.171512D+01     -0.435939D+01     -0.145414D+02
   y          0.707073D+00      0.179720D+01      0.599481D+01
   z          0.410376D+00      0.104307D+01      0.347931D+01

 Dipole polarizability, Alpha (input orientation).
 (esu units = cm**3 , SI units = C**2 m**2 J**-1)
 Alpha(0;0):
               (au)            (10**-24 esu)      (10**-40 SI)
   iso        0.591408D+02      0.876376D+01      0.975099D+01
   aniso      0.189995D+02      0.281544D+01      0.313260D+01
   xx         0.681384D+02      0.100971D+02      0.112345D+02
   yx         0.604760D+01      0.896161D+00      0.997114D+00
   yy         0.563886D+02      0.835593D+01      0.929722D+01
   zx        -0.400795D+01     -0.593918D+00     -0.660822D+00
   zy         0.198012D+01      0.293424D+00      0.326478D+00
   zz         0.528953D+02      0.783827D+01      0.872125D+01

 ----------------------------------------------------------------------

 Dipole orientation:
     6          0.03767788         -2.52993329          0.57842100
     6         -0.65951214          0.27692281          0.04082200
     9         -3.11236856          0.65896566          0.11366187
     9          0.40671822          1.61608887          1.88535581
    16          0.98675115          0.48481837         -3.04127414
     8          2.76635355         -1.56708559         -2.57211881
     8         -0.00149780          1.47168293         -5.34378305
     8          2.71090016          2.85645289         -2.14161695
     9         -1.51245108         -2.13894023         -3.23328355
     9          1.99254787         -2.99501515          1.85211917
     9         -1.50309519         -4.31653903          0.64649136
     1          2.42719829          4.21688542         -3.31927897

 Electric dipole moment (dipole orientation):
 (Debye = 10**-18 statcoulomb cm , SI units = C m)
                  (au)            (Debye)         (10**-30 SI)
   Tot        0.190000D+01      0.482931D+01      0.161088D+02
   x          0.000000D+00      0.000000D+00      0.000000D+00
   y          0.000000D+00      0.000000D+00      0.000000D+00
   z          0.190000D+01      0.482931D+01      0.161088D+02

 Dipole polarizability, Alpha (dipole orientation).
 (esu units = cm**3 , SI units = C**2 m**2 J**-1)
 Alpha(0;0):
               (au)            (10**-24 esu)      (10**-40 SI)
   iso        0.591408D+02      0.876376D+01      0.975099D+01
   aniso      0.189995D+02      0.281544D+01      0.313260D+01
   xx         0.545236D+02      0.807956D+01      0.898972D+01
   yx         0.534647D+01      0.792265D+00      0.881514D+00
   yy         0.592806D+02      0.878448D+01      0.977406D+01
   zx        -0.118202D+01     -0.175157D+00     -0.194888D+00
   zy        -0.834584D+01     -0.123673D+01     -0.137604D+01
   zz         0.636181D+02      0.942723D+01      0.104892D+02

 ----------------------------------------------------------------------
 Unable to Open any file for archive entry.
 1\1\GINC-SPARTAN-BM154\Freq\RM062X\def2TZVPP\C2H1F5O3S1\AKHALILOV\24-M
 ay-2025\0\\#P M062X/Def2TZVPP Symm(None) scf(xqc) pop(None) opt(NoFree
 ze,TS,CalcAll,NoEigentest,MaxCycle=999)\\Gaussian input prepared by AS
 E\\0,1\C,-0.6395826782,-1.0668894301,0.5823297149\C,-0.0941437605,0.04
 14748916,-0.364908112\F,-0.5012691551,-0.1236262685,-1.6035126406\F,-0
 .5933488541,1.1885398693,0.0915147553\S,1.6959013971,-0.2273283509,0.0
 282765843\O,1.4824763255,-0.8369278498,1.3360713808\O,2.7675349713,-0.
 3624875821,-0.9013061666\O,1.9138385269,1.3139772368,0.4876579695\F,0.
 967775528,-1.8608064451,-0.670804507\F,-0.9747496095,-0.7483535622,1.7
 53309826\F,-1.2022515996,-2.1164872811,0.2059416343\H,2.6257509083,1.6
 785027721,-0.0503744388\\Version=ES64L-G16RevC.01\HF=-1199.7640991\RMS
 D=5.801e-09\RMSF=5.650e-06\ZeroPoint=0.0510497\Thermal=0.0608142\ETot=
 -1199.7032849\HTot=-1199.7023407\GTot=-1199.7480873\Dipole=-1.7151165,
 0.7070726,0.4103757\DipoleDeriv=2.2484589,0.4500514,-0.3129771,0.59395
 71,1.3212418,0.4062522,-0.4556983,0.4489515,1.5623499,0.5526737,-0.354
 4251,0.1770286,-0.4463582,1.1140125,0.0588955,0.3467994,0.057253,1.128
 5835,-0.3448179,0.0326538,-0.2970012,0.0367375,-0.224861,-0.0075155,-0
 .3555499,-0.0073733,-0.7932123,-0.4314879,0.3395195,0.0692922,0.389924
 1,-0.7535254,-0.1482421,0.0563052,-0.1306948,-0.2818634,2.0117654,0.51
 63847,-0.2246331,0.851314,2.8476231,0.2281988,-0.5815912,0.181101,1.85
 87161,-1.08512,-0.2338401,0.0114278,-0.2926936,-0.7462304,0.1722538,0.
 1033028,0.2373278,-0.9432642,-0.9459536,-0.0121579,0.2514748,-0.107191
 2,-0.6713137,-0.0346481,0.3560715,-0.0765394,-0.6831647,-0.6322852,-0.
 269011,-0.0671042,-0.4261067,-1.3032017,-0.1703187,-0.0465627,-0.14283
 26,-0.4827729,-0.6870378,-0.0920942,0.0658056,-0.0929948,-1.1136132,-0
 .2747874,0.066569,-0.3105423,-0.6392408,-0.4698428,-0.0893157,0.257742
 9,0.0808449,-0.1797859,-0.0739333,0.5845356,-0.1160889,-0.7728276,-0.5
 467298,-0.3613534,0.0315589,-0.6493217,-0.6623011,-0.1458238,-0.077831
 8,-0.0973742,-0.2176522,0.3303771,0.0735881,0.0373849,0.0618886,0.3719
 551,-0.0103313,0.0036504,-0.0431878,0.2643487\Polar=68.1384094,6.04759
 74,56.3885988,-4.0079543,1.9801206,52.8952622\PG=Unknown\NImag=1\\0.23
 601989,0.20996363,0.67748049,-0.09659895,0.07179382,0.66453603,-0.0531
 3069,-0.02233052,0.00233709,0.43567005,-0.04340538,-0.09407109,0.06846
 676,-0.03481188,0.48607480,0.02338304,0.05973222,-0.08353316,0.0661097
 4,0.02742908,0.57529059,-0.00150978,-0.00151328,0.00369262,-0.10408967
 ,-0.00568573,-0.09482358,0.08840938,0.00622462,0.00441095,0.01404336,-
 0.01373943,-0.07098927,-0.02147473,-0.00340492,0.09053340,-0.00978203,
 -0.00141380,-0.04870344,-0.10113862,-0.02018389,-0.32532022,0.11148093
 ,0.05478505,0.43422200,-0.00333628,0.00177815,0.00556450,-0.10990171,0
 .08269286,0.02223476,0.01459177,-0.00508944,0.00316207,0.10606685,0.01
 359084,-0.05645417,-0.01274951,0.09684218,-0.26078652,-0.05454413,0.00
 058705,-0.01936071,-0.04027046,-0.11003777,0.35522349,0.00078402,0.001
 22314,0.00291287,0.03042427,-0.05315502,-0.08885296,0.01229094,-0.0603
 9793,-0.04593447,-0.03393801,0.10910347,0.12181318,-0.02475436,-0.0175
 0949,0.03392546,-0.16332315,0.01836356,-0.00760734,0.01392418,0.002214
 91,0.00417744,0.00282934,-0.00454037,-0.00322314,0.80962617,-0.0842928
 6,0.02547542,0.02430374,0.01829926,0.01256397,0.01613290,-0.00458050,-
 0.00707471,-0.00514221,0.01809932,-0.02677751,-0.00309159,-0.01660606,
 0.45885030,0.09630757,0.02457839,0.06532379,-0.04601910,0.01807910,-0.
 03522206,-0.02249467,0.00133883,-0.02063424,0.01786207,-0.01366842,-0.
 00345192,-0.35612786,-0.14524316,0.86639649,0.06004671,0.01454284,0.02
 242188,-0.00826734,0.00132102,-0.02050017,-0.00436589,0.00410531,-0.00
 700637,0.00123896,0.00397173,-0.00047682,-0.11439182,-0.01414115,-0.00
 400025,0.06007367,0.03943811,-0.00796476,0.01147011,-0.01403538,-0.010
 18073,0.01472013,0.00718386,0.00323972,0.00135936,0.00201880,0.0041244
 3,-0.00149767,-0.02582569,-0.15734049,0.14937843,0.02034993,0.19027989
 ,-0.02653994,-0.00345656,-0.03646227,0.01759589,0.00774706,-0.02554876
 ,-0.00914777,-0.00086948,-0.00063751,-0.00746710,0.00373554,0.00388589
 ,0.05481528,0.18528747,-0.42038291,-0.02311418,-0.17717698,0.51152781,
 -0.00330994,0.00072601,-0.00908161,0.01358419,-0.00652022,0.01314403,-
 0.00171289,-0.00000563,-0.00415826,-0.00605737,0.00558024,0.00129300,-
 0.40267709,0.05376765,0.29380330,0.01479401,0.00431442,-0.00501562,0.4
 1684002,0.00941353,-0.00530153,-0.00442448,-0.00139154,-0.00444070,-0.
 00424979,-0.00011299,0.00139446,0.00062549,0.00053682,0.00318010,0.000
 36082,0.04867768,-0.08842477,-0.03591796,-0.01014809,0.01300595,0.0068
 2546,-0.03812831,0.11939295,-0.01123983,-0.00470652,-0.00562657,-0.000
 71140,0.00039208,-0.00116054,0.00277973,-0.00030645,0.00477996,-0.0003
 3742,0.00107602,0.00087608,0.26790293,-0.04004847,-0.32308087,0.025873
 95,-0.00183646,0.00100046,-0.31563239,0.07224075,0.32618348,-0.0056092
 6,0.00388502,-0.00457927,-0.00450288,-0.01784218,-0.00367912,-0.004673
 23,-0.00062532,-0.00505990,-0.00898816,-0.00517280,-0.00256049,-0.0926
 3246,-0.03465819,0.00523594,0.01121765,-0.01910028,0.00574699,0.005982
 84,0.03272793,0.02400708,0.38068796,0.01127619,0.00334563,-0.00436353,
 0.00303844,-0.02416721,0.00050417,-0.00460995,0.00120136,-0.00524738,-
 0.00197035,0.01058474,0.00116772,-0.00931322,-0.17073191,-0.05057556,-
 0.02001825,-0.03701103,0.00750138,0.00700121,-0.02833873,-0.02838297,0
 .17324849,0.34692137,-0.00965738,-0.00058800,-0.00689975,0.00408536,-0
 .00830993,0.00530990,0.00014853,0.00012483,0.00034720,-0.00221504,0.00
 152273,0.00142834,0.01320545,-0.02921796,-0.08426885,0.01579788,0.0388
 2941,-0.00132923,0.01206197,-0.04322289,-0.00989401,-0.24581727,-0.028
 57636,0.26406339,0.00568717,-0.01028202,-0.03288416,-0.01087767,0.0002
 7106,0.00428933,-0.00291061,0.01094784,-0.00011771,0.00052169,0.007820
 03,-0.00209136,-0.02032230,0.05192993,0.04141693,0.02025146,-0.0064775
 5,-0.02559301,-0.03159165,-0.04360549,-0.00018289,0.00478264,-0.000965
 67,-0.00368602,0.06637167,0.00109873,-0.03512379,-0.01026770,-0.004336
 48,-0.03743730,-0.02006891,0.00846667,-0.00497387,0.00749069,0.0117382
 1,-0.00654308,-0.00049584,0.03308913,-0.01169928,0.02335186,-0.0010113
 7,0.00146552,-0.02695773,-0.02705009,-0.01876716,0.00066900,-0.0076723
 9,-0.00484184,-0.00421466,-0.00957344,0.10236863,-0.01887093,-0.002258
 07,0.00649875,0.00627026,-0.01261763,-0.01421094,-0.00325172,0.0100017
 9,0.00612924,-0.00036489,-0.00211575,0.00286820,0.01006544,0.00448426,
 -0.04613665,-0.01835353,-0.03919494,-0.03981282,0.00780500,0.00842106,
 0.01232728,-0.00280615,-0.00160603,0.00423769,-0.00167015,0.02898184,0
 .06954007,-0.07599552,0.00870797,0.12596155,0.00725175,0.01108849,0.00
 932725,-0.00007810,-0.00155101,0.00449727,0.00215282,-0.00385930,-0.00
 243033,-0.00854455,0.00969903,-0.02947820,-0.04096634,-0.01138126,0.02
 175786,0.00118223,-0.00136078,0.00388994,0.00079811,-0.00345754,0.0019
 9123,0.00479320,0.00231314,-0.00046404,0.08658332,-0.00203457,-0.10382
 858,-0.07708281,-0.00056980,0.00918053,0.00747150,-0.00103926,-0.00153
 935,0.00547832,-0.00300231,0.00147708,0.00472512,0.00533342,-0.0068586
 0,0.01364081,0.00906832,0.00940022,-0.00650743,-0.00124679,0.00089709,
 -0.00128992,-0.00128289,0.00139575,-0.00169138,-0.00202471,0.00291121,
 0.00051069,0.00006658,0.12075430,0.08762643,-0.05181681,-0.44207903,0.
 01785920,-0.02587193,-0.01706830,-0.00031791,0.00319267,-0.00549144,-0
 .00420456,0.00262645,0.00412349,-0.00227696,-0.00977489,0.00507714,0.0
 1390715,0.00698169,0.00064826,0.00207762,0.00152674,-0.00069242,0.0016
 4514,0.00495280,0.00035101,0.00567726,-0.00133923,-0.00209307,-0.11337
 654,0.13416328,0.50746479,-0.13262880,-0.18777442,-0.05050873,-0.00157
 754,-0.00362632,-0.01170979,0.00253146,0.00086585,0.00417133,0.0009545
 6,-0.00460758,0.00018277,0.00279531,0.01338877,0.00261473,-0.00203553,
 -0.00276394,-0.00005638,-0.00229562,-0.00303341,-0.00008800,-0.0003844
 3,-0.00222929,-0.00017066,-0.03656118,-0.00738265,0.02121389,0.0223878
 4,-0.00308281,-0.00824098,0.14651279,-0.16058905,-0.40688709,-0.082430
 26,-0.02680949,-0.00537113,-0.02293240,0.00511145,0.00326748,0.0023828
 7,0.00157973,-0.00429420,0.00130005,0.00215779,-0.00421839,-0.00717769
 ,-0.00757966,-0.00190749,0.00279569,-0.00169020,0.00080304,0.00177967,
 -0.00223605,-0.00353076,-0.00002295,0.00011678,0.01194566,0.00615734,-
 0.01036134,-0.03380885,-0.06417641,0.19993167,0.44351515,-0.03467517,-
 0.09452648,-0.11493960,0.00501931,0.00220149,0.01060614,0.00079446,-0.
 00046081,0.00276720,-0.00025497,0.00517617,0.00030800,-0.00339392,0.00
 378374,-0.01280583,-0.00507906,-0.00384656,0.00608786,0.00167033,-0.00
 001502,0.00122195,0.00120074,-0.00012451,0.00170768,0.01380969,0.00419
 956,0.00105602,-0.02179719,-0.07922773,-0.05060794,0.04258012,0.162881
 32,0.15444678,-0.00147913,-0.00019388,-0.00025038,-0.00083533,-0.00184
 529,-0.00016815,-0.00011661,0.00005723,-0.00022616,-0.00007246,-0.0001
 7426,-0.00025484,-0.00252927,-0.01090521,0.00087952,0.00240447,0.00627
 898,-0.00298201,-0.00473871,0.00642467,0.00373830,-0.28667877,-0.15200
 005,0.21425596,-0.00014444,0.00032057,0.00042684,0.00043525,-0.0001851
 7,-0.00037585,0.00030116,0.00036839,0.00012567,0.29345384,-0.00068378,
 -0.00108149,0.00124050,-0.00015536,-0.00037536,-0.00272003,-0.00040241
 ,-0.00010947,0.00013595,0.00165600,-0.00037366,0.00075774,-0.03604165,
 -0.02376403,0.02221537,-0.00046063,-0.00711123,0.00107557,0.00325172,0
 .00659929,0.00041327,-0.12127132,-0.09482737,0.07536717,0.00184325,0.0
 0069530,-0.00076455,0.00009603,0.00001920,-0.00046438,0.00031413,0.000
 48657,-0.00004119,0.15185401,0.11984224,-0.00073684,0.00143867,-0.0010
 2764,-0.00183199,-0.00417718,-0.00028969,-0.00115156,0.00002287,-0.001
 52428,-0.00004141,0.00010789,0.00002330,-0.01146279,-0.00147384,0.0091
 8592,0.00052953,0.00081348,0.00102321,0.00203265,-0.00217017,-0.005934
 79,0.22666631,0.10475027,-0.17505338,0.00103209,-0.00134888,-0.0004037
 6,0.00012120,-0.00019045,0.00036751,0.00001170,-0.00055723,0.00015173,
 -0.21516889,-0.09721543,0.17348186\\-0.00001541,-0.00000295,0.00000998
 ,0.00000778,0.00000105,-0.00000052,-0.00000577,-0.00000160,0.00000525,
 -0.00000015,-0.00000362,0.00000114,-0.00000639,-0.00000637,0.00000393,
 0.00000754,0.00000717,-0.00000358,-0.00000217,0.00000134,-0.00000495,0
 .00000156,0.00000083,-0.00000670,-0.00000097,0.00000087,-0.00000093,0.
 00000751,-0.00000396,-0.00000710,0.00000745,0.00000879,0.00000879,-0.0
 0000099,-0.00000155,-0.00000532\\\@
 The archive entry for this job was punched.


 IF YOU WANT TO LEARN FROM THE THEORETICAL PHYSICISTS ABOUT THE
 METHODS WHICH THEY USE, I ADVISE YOU TO FOLLOW THIS PRINCIPLE VERY STRICTLY:
 DON'T LISTEN TO THEIR WORDS; PAY ATTENTION, INSTEAD, TO THEIR ACTIONS.
 -- A.EINSTEIN, 1934
 Job cpu time:       0 days  5 hours 45 minutes  0.1 seconds.
 Elapsed time:       0 days  0 hours 46 minutes 14.1 seconds.
 File lengths (MBytes):  RWF=    173 Int=      0 D2E=      0 Chk=     11 Scr=      1
 Normal termination of Gaussian 16 at Sat May 24 03:19:12 2025.
done
