 Entering Gaussian System, Link 0=g16
 Initial command:
 /apps/easybuild-2022/easybuild/software/Compiler/NVHPC/22.11-CUDA-11.7.0/Gaussian/g16c01-CUDA-11.7.0/g16/l1.exe "/tmp/Gau-162492.inp" -scrdir="/tmp/"
 Entering Link 1 = /apps/easybuild-2022/easybuild/software/Compiler/NVHPC/22.11-CUDA-11.7.0/Gaussian/g16c01-CUDA-11.7.0/g16/l1.exe PID=    162495.
  
 Copyright (c) 1988-2019, Gaussian, Inc.  All Rights Reserved.
  
 This is part of the Gaussian(R) 16 program.  It is based on
 the Gaussian(R) 09 system (copyright 2009, Gaussian, Inc.),
 the Gaussian(R) 03 system (copyright 2003, Gaussian, Inc.),
 the Gaussian(R) 98 system (copyright 1998, Gaussian, Inc.),
 the Gaussian(R) 94 system (copyright 1995, Gaussian, Inc.),
 the Gaussian 92(TM) system (copyright 1992, Gaussian, Inc.),
 the Gaussian 90(TM) system (copyright 1990, Gaussian, Inc.),
 the Gaussian 88(TM) system (copyright 1988, Gaussian, Inc.),
 the Gaussian 86(TM) system (copyright 1986, Carnegie Mellon
 University), and the Gaussian 82(TM) system (copyright 1983,
 Carnegie Mellon University). Gaussian is a federally registered
 trademark of Gaussian, Inc.
  
 This software contains proprietary and confidential information,
 including trade secrets, belonging to Gaussian, Inc.
  
 This software is provided under written license and may be
 used, copied, transmitted, or stored only in accord with that
 written license.
  
 The following legend is applicable only to US Government
 contracts under FAR:
  
                    RESTRICTED RIGHTS LEGEND
  
 Use, reproduction and disclosure by the US Government is
 subject to restrictions as set forth in subparagraphs (a)
 and (c) of the Commercial Computer Software - Restricted
 Rights clause in FAR 52.227-19.
  
 Gaussian, Inc.
 340 Quinnipiac St., Bldg. 40, Wallingford CT 06492
  
  
 ---------------------------------------------------------------
 Warning -- This program may not be used in any manner that
 competes with the business of Gaussian, Inc. or will provide
 assistance to any competitor of Gaussian, Inc.  The licensee
 of this program is prohibited from giving any competitor of
 Gaussian, Inc. access to this program.  By using this program,
 the user acknowledges that Gaussian, Inc. is engaged in the
 business of creating and licensing software in the field of
 computational chemistry and represents and warrants to the
 licensee that it is not a competitor of Gaussian, Inc. and that
 it will not use this program in any manner prohibited above.
 ---------------------------------------------------------------
  

 Cite this work as:
 Gaussian 16, Revision C.01,
 M. J. Frisch, G. W. Trucks, H. B. Schlegel, G. E. Scuseria, 
 M. A. Robb, J. R. Cheeseman, G. Scalmani, V. Barone, 
 G. A. Petersson, H. Nakatsuji, X. Li, M. Caricato, A. V. Marenich, 
 J. Bloino, B. G. Janesko, R. Gomperts, B. Mennucci, H. P. Hratchian, 
 J. V. Ortiz, A. F. Izmaylov, J. L. Sonnenberg, D. Williams-Young, 
 F. Ding, F. Lipparini, F. Egidi, J. Goings, B. Peng, A. Petrone, 
 T. Henderson, D. Ranasinghe, V. G. Zakrzewski, J. Gao, N. Rega, 
 G. Zheng, W. Liang, M. Hada, M. Ehara, K. Toyota, R. Fukuda, 
 J. Hasegawa, M. Ishida, T. Nakajima, Y. Honda, O. Kitao, H. Nakai, 
 T. Vreven, K. Throssell, J. A. Montgomery, Jr., J. E. Peralta, 
 F. Ogliaro, M. J. Bearpark, J. J. Heyd, E. N. Brothers, K. N. Kudin, 
 V. N. Staroverov, T. A. Keith, R. Kobayashi, J. Normand, 
 K. Raghavachari, A. P. Rendell, J. C. Burant, S. S. Iyengar, 
 J. Tomasi, M. Cossi, J. M. Millam, M. Klene, C. Adamo, R. Cammi, 
 J. W. Ochterski, R. L. Martin, K. Morokuma, O. Farkas, 
 J. B. Foresman, and D. J. Fox, Gaussian, Inc., Wallingford CT, 2019.
 
 ******************************************
 Gaussian 16:  ES64L-G16RevC.01  3-Jul-2019
                24-May-2025 
 ******************************************
 %mem=28GB
 %chk=2003846667223680600001_intra_H_migration_5_12_IRC_R_prod
 %nprocshared=8
 Will use up to    8 processors via shared memory.
 -----------------------------------------------------------------
 #P M062X/Def2TZVPP Symm(None) scf(xqc) pop(None) freq opt(CalcFC)
 -----------------------------------------------------------------
 1/10=4,18=20,19=15,26=3,38=1/1,3;
 2/9=110,12=2,15=3,17=6,18=5,40=1/2;
 3/5=44,7=202,11=2,25=1,30=1,71=2,74=-55,140=1/1,2,3;
 4//1;
 5/5=2,8=3,13=1,38=5/2,8;
 8/6=4,10=90,11=11/1;
 11/6=1,8=1,9=11,15=111,16=1,31=1/1,2,10;
 10/6=1,13=1,31=1/2;
 7/10=1,25=1,30=1/1,2,3,16;
 1/10=4,18=20,19=15,26=3/3(2);
 2/9=110,15=3/2;
 99//99;
 2/9=110,15=3/2;
 3/5=44,7=202,11=2,25=1,30=1,71=1,74=-55/1,2,3;
 4/5=5,16=3,69=1/1;
 5/5=2,8=3,13=1,38=5/2,8;
 7/30=1/1,2,3,16;
 1/18=20,19=15,26=3/3(-5);
 2/9=110,15=3/2;
 99/9=1/99;
 Leave Link    1 at Sat May 24 02:36:43 2025, MaxMem=  3758096384 cpu:               0.0 elap:               0.0
 (Enter /apps/easybuild-2022/easybuild/software/Compiler/NVHPC/22.11-CUDA-11.7.0/Gaussian/g16c01-CUDA-11.7.0/g16/l101.exe)
 ------------------------------
 Gaussian input prepared by ASE
 ------------------------------
 Symbolic Z-matrix:
 Charge =  0 Multiplicity = 1
 C                    -1.1219   -0.96166   0.07449 
 C                    -0.50045   0.45894  -0.0215 
 F                    -0.868     1.00898  -1.17688 
 F                    -0.95136   1.19665   0.99061 
 S                     1.34997   0.41079   0.00352 
 O                     1.70493  -0.25342   1.20204 
 O                     1.79736  -0.00913  -1.27989 
 O                     1.71562   1.93993  -0.03119 
 F                    -0.53707  -1.76886  -0.79629 
 F                    -0.98009  -1.44964   1.29243 
 F                    -2.41464  -0.88354  -0.20902 
 H                     2.09333   2.08165  -0.9131 
 
 ITRead=  0  0  0  0  0  0  0  0  0  0  0  0
 MicOpt= -1 -1 -1 -1 -1 -1 -1 -1 -1 -1 -1 -1
 NAtoms=     12 NQM=       12 NQMF=       0 NMMI=      0 NMMIF=      0
                NMic=       0 NMicF=      0.
                    Isotopes and Nuclear Properties:
 (Nuclear quadrupole moments (NQMom) in fm**2, nuclear magnetic moments (NMagM)
  in nuclear magnetons)

  Atom         1           2           3           4           5           6           7           8           9          10
 IAtWgt=          12          12          19          19          32          16          16          16          19          19
 AtmWgt=  12.0000000  12.0000000  18.9984032  18.9984032  31.9720718  15.9949146  15.9949146  15.9949146  18.9984032  18.9984032
 NucSpn=           0           0           1           1           0           0           0           0           1           1
 AtZEff=  -0.0000000  -0.0000000  -0.0000000  -0.0000000  -0.0000000  -0.0000000  -0.0000000  -0.0000000  -0.0000000  -0.0000000
 NQMom=    0.0000000   0.0000000   0.0000000   0.0000000   0.0000000   0.0000000   0.0000000   0.0000000   0.0000000   0.0000000
 NMagM=    0.0000000   0.0000000   2.6288670   2.6288670   0.0000000   0.0000000   0.0000000   0.0000000   2.6288670   2.6288670
 AtZNuc=   6.0000000   6.0000000   9.0000000   9.0000000  16.0000000   8.0000000   8.0000000   8.0000000   9.0000000   9.0000000

  Atom        11          12
 IAtWgt=          19           1
 AtmWgt=  18.9984032   1.0078250
 NucSpn=           1           1
 AtZEff=  -0.0000000  -0.0000000
 NQMom=    0.0000000   0.0000000
 NMagM=    2.6288670   2.7928460
 AtZNuc=   9.0000000   1.0000000
 Leave Link  101 at Sat May 24 02:36:43 2025, MaxMem=  3758096384 cpu:               0.2 elap:               0.2
 (Enter /apps/easybuild-2022/easybuild/software/Compiler/NVHPC/22.11-CUDA-11.7.0/Gaussian/g16c01-CUDA-11.7.0/g16/l103.exe)

 GradGradGradGradGradGradGradGradGradGradGradGradGradGradGradGradGradGrad
 Berny optimization.
 Initialization pass.
                           ----------------------------
                           !    Initial Parameters    !
                           ! (Angstroms and Degrees)  !
 --------------------------                            --------------------------
 ! Name  Definition              Value          Derivative Info.                !
 --------------------------------------------------------------------------------
 ! R1    R(1,2)                  1.5535         calculate D2E/DX2 analytically  !
 ! R2    R(1,9)                  1.3236         calculate D2E/DX2 analytically  !
 ! R3    R(1,10)                 1.3197         calculate D2E/DX2 analytically  !
 ! R4    R(1,11)                 1.3258         calculate D2E/DX2 analytically  !
 ! R5    R(2,3)                  1.3314         calculate D2E/DX2 analytically  !
 ! R6    R(2,4)                  1.3311         calculate D2E/DX2 analytically  !
 ! R7    R(2,5)                  1.8512         calculate D2E/DX2 analytically  !
 ! R8    R(5,6)                  1.4155         calculate D2E/DX2 analytically  !
 ! R9    R(5,7)                  1.4225         calculate D2E/DX2 analytically  !
 ! R10   R(5,8)                  1.5726         calculate D2E/DX2 analytically  !
 ! R11   R(8,12)                 0.9698         calculate D2E/DX2 analytically  !
 ! A1    A(2,1,9)              109.8932         calculate D2E/DX2 analytically  !
 ! A2    A(2,1,10)             110.6194         calculate D2E/DX2 analytically  !
 ! A3    A(2,1,11)             108.842          calculate D2E/DX2 analytically  !
 ! A4    A(9,1,10)             109.5228         calculate D2E/DX2 analytically  !
 ! A5    A(9,1,11)             109.0323         calculate D2E/DX2 analytically  !
 ! A6    A(10,1,11)            108.9003         calculate D2E/DX2 analytically  !
 ! A7    A(1,2,3)              108.7216         calculate D2E/DX2 analytically  !
 ! A8    A(1,2,4)              108.9226         calculate D2E/DX2 analytically  !
 ! A9    A(1,2,5)              112.0385         calculate D2E/DX2 analytically  !
 ! A10   A(3,2,4)              109.7153         calculate D2E/DX2 analytically  !
 ! A11   A(3,2,5)              107.3632         calculate D2E/DX2 analytically  !
 ! A12   A(4,2,5)              110.0439         calculate D2E/DX2 analytically  !
 ! A13   A(2,5,6)              105.9207         calculate D2E/DX2 analytically  !
 ! A14   A(2,5,7)              108.0503         calculate D2E/DX2 analytically  !
 ! A15   A(2,5,8)              101.9358         calculate D2E/DX2 analytically  !
 ! A16   A(6,5,7)              123.1289         calculate D2E/DX2 analytically  !
 ! A17   A(6,5,8)              114.6227         calculate D2E/DX2 analytically  !
 ! A18   A(7,5,8)              101.1858         calculate D2E/DX2 analytically  !
 ! A19   A(5,8,12)             104.638          calculate D2E/DX2 analytically  !
 ! D1    D(9,1,2,3)             69.8899         calculate D2E/DX2 analytically  !
 ! D2    D(9,1,2,4)           -170.5903         calculate D2E/DX2 analytically  !
 ! D3    D(9,1,2,5)            -48.6082         calculate D2E/DX2 analytically  !
 ! D4    D(10,1,2,3)          -169.0546         calculate D2E/DX2 analytically  !
 ! D5    D(10,1,2,4)           -49.5349         calculate D2E/DX2 analytically  !
 ! D6    D(10,1,2,5)            72.4473         calculate D2E/DX2 analytically  !
 ! D7    D(11,1,2,3)           -49.4451         calculate D2E/DX2 analytically  !
 ! D8    D(11,1,2,4)            70.0746         calculate D2E/DX2 analytically  !
 ! D9    D(11,1,2,5)          -167.9432         calculate D2E/DX2 analytically  !
 ! D10   D(1,2,5,6)            -57.1123         calculate D2E/DX2 analytically  !
 ! D11   D(1,2,5,7)             76.5734         calculate D2E/DX2 analytically  !
 ! D12   D(1,2,5,8)           -177.3197         calculate D2E/DX2 analytically  !
 ! D13   D(3,2,5,6)           -176.412          calculate D2E/DX2 analytically  !
 ! D14   D(3,2,5,7)            -42.7262         calculate D2E/DX2 analytically  !
 ! D15   D(3,2,5,8)             63.3807         calculate D2E/DX2 analytically  !
 ! D16   D(4,2,5,6)             64.2266         calculate D2E/DX2 analytically  !
 ! D17   D(4,2,5,7)           -162.0877         calculate D2E/DX2 analytically  !
 ! D18   D(4,2,5,8)            -55.9808         calculate D2E/DX2 analytically  !
 ! D19   D(2,5,8,12)          -109.8191         calculate D2E/DX2 analytically  !
 ! D20   D(6,5,8,12)           136.2714         calculate D2E/DX2 analytically  !
 ! D21   D(7,5,8,12)             1.5659         calculate D2E/DX2 analytically  !
 --------------------------------------------------------------------------------
 Trust Radius=3.00D-01 FncErr=1.00D-07 GrdErr=1.00D-06 EigMax=2.50D+02 EigMin=1.00D-04
 Number of steps in this run=     61 maximum allowed number of steps=    100.
 GradGradGradGradGradGradGradGradGradGradGradGradGradGradGradGradGradGrad

 Leave Link  103 at Sat May 24 02:36:43 2025, MaxMem=  3758096384 cpu:               0.1 elap:               0.0
 (Enter /apps/easybuild-2022/easybuild/software/Compiler/NVHPC/22.11-CUDA-11.7.0/Gaussian/g16c01-CUDA-11.7.0/g16/l202.exe)
                          Input orientation:                          
 ---------------------------------------------------------------------
 Center     Atomic      Atomic             Coordinates (Angstroms)
 Number     Number       Type             X           Y           Z
 ---------------------------------------------------------------------
      1          6           0       -1.121901   -0.961659    0.074487
      2          6           0       -0.500448    0.458938   -0.021502
      3          9           0       -0.868001    1.008980   -1.176875
      4          9           0       -0.951362    1.196654    0.990606
      5         16           0        1.349970    0.410786    0.003516
      6          8           0        1.704929   -0.253417    1.202043
      7          8           0        1.797361   -0.009130   -1.279891
      8          8           0        1.715616    1.939929   -0.031188
      9          9           0       -0.537068   -1.768858   -0.796289
     10          9           0       -0.980093   -1.449638    1.292428
     11          9           0       -2.414635   -0.883536   -0.209019
     12          1           0        2.093331    2.081646   -0.913096
 ---------------------------------------------------------------------
                    Distance matrix (angstroms):
                    1          2          3          4          5
     1  C    0.000000
     2  C    1.553549   0.000000
     3  F    2.348146   1.331363   0.000000
     4  F    2.350888   1.331131   2.177187   0.000000
     5  S    2.828213   1.851213   2.582742   2.624512   0.000000
     6  O    3.124733   2.620725   3.724630   3.033693   1.415496
     7  O    3.356150   2.661307   2.855051   3.763582   1.422541
     8  O    4.059789   2.665402   2.975625   2.951151   1.572635
     9  F    1.323575   2.358964   2.823251   3.486961   2.991897
    10  F    1.319702   2.366249   3.486377   2.663603   3.248333
    11  F    1.325760   2.345530   2.628771   2.812020   3.986564
    12  H    4.535939   3.186818   3.160645   3.698303   2.045614
                    6          7          8          9         10
     6  O    0.000000
     7  O    2.495639   0.000000
     8  O    2.516295   2.316198   0.000000
     9  F    3.363992   2.963119   4.406253   0.000000
    10  F    2.940826   4.050449   4.528573   2.158914   0.000000
    11  F    4.399881   4.433087   5.006251   2.157299   2.152377
    12  H    3.174459   2.143241   0.969801   4.664657   5.174963
                   11         12
    11  F    0.000000
    12  H    5.441487   0.000000
 Symmetry turned off by external request.
 Stoichiometry    C2HF5O3S
 Rotational constants (GHZ):           1.6196073           0.8380369           0.7904877
 Leave Link  202 at Sat May 24 02:36:43 2025, MaxMem=  3758096384 cpu:               0.0 elap:               0.0
 (Enter /apps/easybuild-2022/easybuild/software/Compiler/NVHPC/22.11-CUDA-11.7.0/Gaussian/g16c01-CUDA-11.7.0/g16/l301.exe)
 Standard basis: def2TZVPP (5D, 7F)
 Ernie: Thresh=  0.10000D-02 Tol=  0.10000D-05 Strict=F.
   366 basis functions,   596 primitive gaussians,   423 cartesian basis functions
    49 alpha electrons       49 beta electrons
       nuclear repulsion energy       929.8823788108 Hartrees.
 IExCor= 4336 DFT=T Ex+Corr=M062X ExCW=0 ScaHFX=  0.540000
 ScaDFX=  1.000000  1.000000  1.000000  1.000000 ScalE2=  1.000000  1.000000
 IRadAn=      5 IRanWt=     -1 IRanGd=            0 ICorTp=0 IEmpDi=  4
 NAtoms=   12 NActive=   12 NUniq=   12 SFac= 1.00D+00 NAtFMM=   60 NAOKFM=F Big=F
 Integral buffers will be    131072 words long.
 Raffenetti 2 integral format.
 Two-electron integral symmetry is turned off.
 Leave Link  301 at Sat May 24 02:36:43 2025, MaxMem=  3758096384 cpu:               0.1 elap:               0.0
 (Enter /apps/easybuild-2022/easybuild/software/Compiler/NVHPC/22.11-CUDA-11.7.0/Gaussian/g16c01-CUDA-11.7.0/g16/l302.exe)
 NPDir=0 NMtPBC=     1 NCelOv=     1 NCel=       1 NClECP=     1 NCelD=      1
         NCelK=      1 NCelE2=     1 NClLst=     1 CellRange=     0.0.
 One-electron integrals computed using PRISM.
   1 Symmetry operations used in ECPInt.
 ECPInt:  NShTT=    8515 NPrTT=   27988 LenC2=    8013 LenP2D=   19496.
 LDataN:  DoStor=T MaxTD1= 6 Len=  172
 NBasis=   366 RedAO= T EigKep=  5.83D-04  NBF=   366
 NBsUse=   366 1.00D-06 EigRej= -1.00D+00 NBFU=   366
 Precomputing XC quadrature grid using
 IXCGrd= 4 IRadAn=           5 IRanWt=          -1 IRanGd=           0 AccXCQ= 0.00D+00.
 Generated NRdTot=       0 NPtTot=           0 NUsed=           0 NTot=          32
 NSgBfM=   419   419   419   419   419 MxSgAt=    12 MxSgA2=    12.
 Leave Link  302 at Sat May 24 02:36:44 2025, MaxMem=  3758096384 cpu:               0.9 elap:               0.2
 (Enter /apps/easybuild-2022/easybuild/software/Compiler/NVHPC/22.11-CUDA-11.7.0/Gaussian/g16c01-CUDA-11.7.0/g16/l303.exe)
 DipDrv:  MaxL=1.
 Leave Link  303 at Sat May 24 02:36:44 2025, MaxMem=  3758096384 cpu:               0.1 elap:               0.0
 (Enter /apps/easybuild-2022/easybuild/software/Compiler/NVHPC/22.11-CUDA-11.7.0/Gaussian/g16c01-CUDA-11.7.0/g16/l401.exe)
 ExpMin= 9.52D-02 ExpMax= 6.07D+04 ExpMxC= 2.07D+03 IAcc=3 IRadAn=         5 AccDes= 0.00D+00
 Harris functional with IExCor= 1009 and IRadAn=       5 diagonalized for initial guess.
 HarFok:  IExCor= 1009 AccDes= 0.00D+00 IRadAn=         5 IDoV= 1 UseB2=F ITyADJ=14
 ICtDFT=  3500011 ScaDFX=  1.000000  1.000000  1.000000  1.000000
 FoFCou: FMM=F IPFlag=           0 FMFlag=      100000 FMFlg1=           0
         NFxFlg=           0 DoJE=T BraDBF=F KetDBF=T FulRan=T
         wScrn=  0.000000 ICntrl=       500 IOpCl=  0 I1Cent=   200000004 NGrid=           0
         NMat0=    1 NMatS0=      1 NMatT0=    0 NMatD0=    1 NMtDS0=    0 NMtDT0=    0
 Symmetry not used in FoFCou.
 Harris En= -1199.33871567130    
 JPrj=0 DoOrth=F DoCkMO=F.
 Leave Link  401 at Sat May 24 02:36:44 2025, MaxMem=  3758096384 cpu:               4.4 elap:               0.6
 (Enter /apps/easybuild-2022/easybuild/software/Compiler/NVHPC/22.11-CUDA-11.7.0/Gaussian/g16c01-CUDA-11.7.0/g16/l502.exe)
 Keep R1 ints in memory in canonical form, NReq=2293446996.
 FoFCou: FMM=F IPFlag=           0 FMFlag=           0 FMFlg1=           0
         NFxFlg=           0 DoJE=F BraDBF=F KetDBF=F FulRan=T
         wScrn=  0.000000 ICntrl=       600 IOpCl=  0 I1Cent=           0 NGrid=           0
         NMat0=    1 NMatS0=  67161 NMatT0=    0 NMatD0=    1 NMtDS0=    0 NMtDT0=    0
 Symmetry not used in FoFCou.
 Two-electron integral symmetry not used.
 Closed shell SCF:
 Using DIIS extrapolation, IDIIS=  1040.
 NGot=  3758096384 LenX=  1502398672 LenY=  1502219302
 Requested convergence on RMS density matrix=1.00D-08 within  32 cycles.
 Requested convergence on MAX density matrix=1.00D-06.
 Requested convergence on             energy=1.00D-06.
 No special actions if energy rises.
 Integral accuracy reduced to 1.0D-05 until final iterations.

 Cycle   1  Pass 0  IDiag  1:
 E= -1199.61566833212    
 DIIS: error= 2.61D-02 at cycle   1 NSaved=   1.
 NSaved= 1 IEnMin= 1 EnMin= -1199.61566833212     IErMin= 1 ErrMin= 2.61D-02
 ErrMax= 2.61D-02  0.00D+00 EMaxC= 1.00D-01 BMatC= 6.18D-01 BMatP= 6.18D-01
 IDIUse=3 WtCom= 7.39D-01 WtEn= 2.61D-01
 Coeff-Com:  0.100D+01
 Coeff-En:   0.100D+01
 Coeff:      0.100D+01
 Gap=     0.463 Goal=   None    Shift=    0.000
 GapD=    0.463 DampG=2.000 DampE=0.500 DampFc=1.0000 IDamp=-1.
 RMSDP=2.52D-03 MaxDP=2.58D-01              OVMax= 2.30D-01

 Cycle   2  Pass 0  IDiag  1:
 E= -1199.31283572813     Delta-E=        0.302832603992 Rises=F Damp=F
 DIIS: error= 3.74D-02 at cycle   2 NSaved=   2.
 NSaved= 2 IEnMin= 1 EnMin= -1199.61566833212     IErMin= 1 ErrMin= 2.61D-02
 ErrMax= 3.74D-02  0.00D+00 EMaxC= 1.00D-01 BMatC= 9.79D-01 BMatP= 6.18D-01
 IDIUse=2 WtCom= 0.00D+00 WtEn= 1.00D+00
 Coeff-En:   0.648D+00 0.352D+00
 Coeff:      0.648D+00 0.352D+00
 Gap=     0.441 Goal=   None    Shift=    0.000
 RMSDP=1.29D-03 MaxDP=1.54D-01 DE= 3.03D-01 OVMax= 1.10D-01

 Cycle   3  Pass 0  IDiag  1:
 E= -1199.92563538147     Delta-E=       -0.612799653346 Rises=F Damp=F
 DIIS: error= 3.47D-03 at cycle   3 NSaved=   3.
 NSaved= 3 IEnMin= 3 EnMin= -1199.92563538147     IErMin= 3 ErrMin= 3.47D-03
 ErrMax= 3.47D-03  0.00D+00 EMaxC= 1.00D-01 BMatC= 1.59D-02 BMatP= 6.18D-01
 IDIUse=3 WtCom= 9.65D-01 WtEn= 3.47D-02
 Coeff-Com:  0.838D-01-0.420D-01 0.958D+00
 Coeff-En:   0.000D+00 0.000D+00 0.100D+01
 Coeff:      0.809D-01-0.405D-01 0.960D+00
 Gap=     0.439 Goal=   None    Shift=    0.000
 RMSDP=2.12D-04 MaxDP=1.33D-02 DE=-6.13D-01 OVMax= 1.78D-02

 Cycle   4  Pass 0  IDiag  1:
 E= -1199.93185360606     Delta-E=       -0.006218224584 Rises=F Damp=F
 DIIS: error= 2.04D-03 at cycle   4 NSaved=   4.
 NSaved= 4 IEnMin= 4 EnMin= -1199.93185360606     IErMin= 4 ErrMin= 2.04D-03
 ErrMax= 2.04D-03  0.00D+00 EMaxC= 1.00D-01 BMatC= 3.95D-03 BMatP= 1.59D-02
 IDIUse=3 WtCom= 9.80D-01 WtEn= 2.04D-02
 Coeff-Com:  0.780D-02-0.500D-01 0.503D+00 0.539D+00
 Coeff-En:   0.000D+00 0.000D+00 0.107D+00 0.893D+00
 Coeff:      0.764D-02-0.490D-01 0.495D+00 0.546D+00
 Gap=     0.442 Goal=   None    Shift=    0.000
 RMSDP=9.45D-05 MaxDP=6.16D-03 DE=-6.22D-03 OVMax= 1.13D-02

 Cycle   5  Pass 0  IDiag  1:
 E= -1199.93434344098     Delta-E=       -0.002489834926 Rises=F Damp=F
 DIIS: error= 3.85D-04 at cycle   5 NSaved=   5.
 NSaved= 5 IEnMin= 5 EnMin= -1199.93434344098     IErMin= 5 ErrMin= 3.85D-04
 ErrMax= 3.85D-04  0.00D+00 EMaxC= 1.00D-01 BMatC= 1.40D-04 BMatP= 3.95D-03
 IDIUse=3 WtCom= 9.96D-01 WtEn= 3.85D-03
 Coeff-Com: -0.975D-03-0.173D-01 0.137D+00 0.220D+00 0.661D+00
 Coeff-En:   0.000D+00 0.000D+00 0.000D+00 0.000D+00 0.100D+01
 Coeff:     -0.971D-03-0.172D-01 0.137D+00 0.220D+00 0.662D+00
 Gap=     0.439 Goal=   None    Shift=    0.000
 RMSDP=2.50D-05 MaxDP=1.03D-03 DE=-2.49D-03 OVMax= 2.40D-03

 Cycle   6  Pass 0  IDiag  1:
 E= -1199.93443600113     Delta-E=       -0.000092560153 Rises=F Damp=F
 DIIS: error= 7.77D-05 at cycle   6 NSaved=   6.
 NSaved= 6 IEnMin= 6 EnMin= -1199.93443600113     IErMin= 6 ErrMin= 7.77D-05
 ErrMax= 7.77D-05  0.00D+00 EMaxC= 1.00D-01 BMatC= 8.42D-06 BMatP= 1.40D-04
 IDIUse=1 WtCom= 1.00D+00 WtEn= 0.00D+00
 Coeff-Com: -0.746D-03-0.377D-02 0.237D-01 0.503D-01 0.263D+00 0.667D+00
 Coeff:     -0.746D-03-0.377D-02 0.237D-01 0.503D-01 0.263D+00 0.667D+00
 Gap=     0.440 Goal=   None    Shift=    0.000
 RMSDP=6.24D-06 MaxDP=2.54D-04 DE=-9.26D-05 OVMax= 5.13D-04

 Initial convergence to 1.0D-05 achieved.  Increase integral accuracy.
 Cycle   7  Pass 1  IDiag  1:
 E= -1199.93449812986     Delta-E=       -0.000062128721 Rises=F Damp=F
 DIIS: error= 2.65D-05 at cycle   1 NSaved=   1.
 NSaved= 1 IEnMin= 1 EnMin= -1199.93449812986     IErMin= 1 ErrMin= 2.65D-05
 ErrMax= 2.65D-05  0.00D+00 EMaxC= 1.00D-01 BMatC= 1.35D-06 BMatP= 1.35D-06
 IDIUse=1 WtCom= 1.00D+00 WtEn= 0.00D+00
 Coeff-Com:  0.100D+01
 Coeff:      0.100D+01
 Gap=     0.440 Goal=   None    Shift=    0.000
 RMSDP=6.24D-06 MaxDP=2.54D-04 DE=-6.21D-05 OVMax= 3.57D-04

 Cycle   8  Pass 1  IDiag  1:
 E= -1199.93449831983     Delta-E=       -0.000000189973 Rises=F Damp=F
 DIIS: error= 3.53D-05 at cycle   2 NSaved=   2.
 NSaved= 2 IEnMin= 2 EnMin= -1199.93449831983     IErMin= 1 ErrMin= 2.65D-05
 ErrMax= 3.53D-05  0.00D+00 EMaxC= 1.00D-01 BMatC= 1.30D-06 BMatP= 1.35D-06
 IDIUse=1 WtCom= 1.00D+00 WtEn= 0.00D+00
 Coeff-Com:  0.495D+00 0.505D+00
 Coeff:      0.495D+00 0.505D+00
 Gap=     0.440 Goal=   None    Shift=    0.000
 RMSDP=2.02D-06 MaxDP=1.02D-04 DE=-1.90D-07 OVMax= 2.46D-04

 Cycle   9  Pass 1  IDiag  1:
 E= -1199.93449910490     Delta-E=       -0.000000785074 Rises=F Damp=F
 DIIS: error= 1.14D-05 at cycle   3 NSaved=   3.
 NSaved= 3 IEnMin= 3 EnMin= -1199.93449910490     IErMin= 3 ErrMin= 1.14D-05
 ErrMax= 1.14D-05  0.00D+00 EMaxC= 1.00D-01 BMatC= 8.97D-08 BMatP= 1.30D-06
 IDIUse=1 WtCom= 1.00D+00 WtEn= 0.00D+00
 Coeff-Com:  0.123D-01 0.198D+00 0.789D+00
 Coeff:      0.123D-01 0.198D+00 0.789D+00
 Gap=     0.440 Goal=   None    Shift=    0.000
 RMSDP=7.79D-07 MaxDP=3.27D-05 DE=-7.85D-07 OVMax= 8.24D-05

 Cycle  10  Pass 1  IDiag  1:
 E= -1199.93449916214     Delta-E=       -0.000000057235 Rises=F Damp=F
 DIIS: error= 3.77D-06 at cycle   4 NSaved=   4.
 NSaved= 4 IEnMin= 4 EnMin= -1199.93449916214     IErMin= 4 ErrMin= 3.77D-06
 ErrMax= 3.77D-06  0.00D+00 EMaxC= 1.00D-01 BMatC= 1.39D-08 BMatP= 8.97D-08
 IDIUse=1 WtCom= 1.00D+00 WtEn= 0.00D+00
 Coeff-Com: -0.323D-01 0.653D-01 0.410D+00 0.557D+00
 Coeff:     -0.323D-01 0.653D-01 0.410D+00 0.557D+00
 Gap=     0.440 Goal=   None    Shift=    0.000
 RMSDP=1.98D-07 MaxDP=8.03D-06 DE=-5.72D-08 OVMax= 1.78D-05

 Cycle  11  Pass 1  IDiag  1:
 E= -1199.93449917112     Delta-E=       -0.000000008985 Rises=F Damp=F
 DIIS: error= 4.82D-07 at cycle   5 NSaved=   5.
 NSaved= 5 IEnMin= 5 EnMin= -1199.93449917112     IErMin= 5 ErrMin= 4.82D-07
 ErrMax= 4.82D-07  0.00D+00 EMaxC= 1.00D-01 BMatC= 2.88D-10 BMatP= 1.39D-08
 IDIUse=1 WtCom= 1.00D+00 WtEn= 0.00D+00
 Coeff-Com: -0.658D-02-0.255D-02 0.147D-01 0.104D+00 0.891D+00
 Coeff:     -0.658D-02-0.255D-02 0.147D-01 0.104D+00 0.891D+00
 Gap=     0.440 Goal=   None    Shift=    0.000
 RMSDP=6.50D-08 MaxDP=2.07D-06 DE=-8.98D-09 OVMax= 5.15D-06

 Cycle  12  Pass 1  IDiag  1:
 E= -1199.93449917144     Delta-E=       -0.000000000316 Rises=F Damp=F
 DIIS: error= 2.32D-07 at cycle   6 NSaved=   6.
 NSaved= 6 IEnMin= 6 EnMin= -1199.93449917144     IErMin= 6 ErrMin= 2.32D-07
 ErrMax= 2.32D-07  0.00D+00 EMaxC= 1.00D-01 BMatC= 4.72D-11 BMatP= 2.88D-10
 IDIUse=1 WtCom= 1.00D+00 WtEn= 0.00D+00
 Coeff-Com:  0.176D-02-0.898D-02-0.466D-01-0.363D-01 0.299D+00 0.791D+00
 Coeff:      0.176D-02-0.898D-02-0.466D-01-0.363D-01 0.299D+00 0.791D+00
 Gap=     0.440 Goal=   None    Shift=    0.000
 RMSDP=2.08D-08 MaxDP=9.95D-07 DE=-3.16D-10 OVMax= 2.45D-06

 Cycle  13  Pass 1  IDiag  1:
 E= -1199.93449917147     Delta-E=       -0.000000000036 Rises=F Damp=F
 DIIS: error= 4.82D-08 at cycle   7 NSaved=   7.
 NSaved= 7 IEnMin= 7 EnMin= -1199.93449917147     IErMin= 7 ErrMin= 4.82D-08
 ErrMax= 4.82D-08  0.00D+00 EMaxC= 1.00D-01 BMatC= 3.07D-12 BMatP= 4.72D-11
 IDIUse=1 WtCom= 1.00D+00 WtEn= 0.00D+00
 Coeff-Com:  0.923D-03-0.291D-02-0.167D-01-0.177D-01 0.606D-01 0.256D+00
 Coeff-Com:  0.719D+00
 Coeff:      0.923D-03-0.291D-02-0.167D-01-0.177D-01 0.606D-01 0.256D+00
 Coeff:      0.719D+00
 Gap=     0.440 Goal=   None    Shift=    0.000
 RMSDP=4.80D-09 MaxDP=3.57D-07 DE=-3.59D-11 OVMax= 5.23D-07

 SCF Done:  E(RM062X) =  -1199.93449917     A.U. after   13 cycles
            NFock= 13  Conv=0.48D-08     -V/T= 2.0029
 KE= 1.196510624827D+03 PE=-4.705895008296D+03 EE= 1.379567505486D+03
 Leave Link  502 at Sat May 24 02:37:23 2025, MaxMem=  3758096384 cpu:             140.1 elap:              38.7
 (Enter /apps/easybuild-2022/easybuild/software/Compiler/NVHPC/22.11-CUDA-11.7.0/Gaussian/g16c01-CUDA-11.7.0/g16/l508.exe)
 QCSCF skips out because SCF is already converged.
 Leave Link  508 at Sat May 24 02:37:23 2025, MaxMem=  3758096384 cpu:               0.0 elap:               0.0
 (Enter /apps/easybuild-2022/easybuild/software/Compiler/NVHPC/22.11-CUDA-11.7.0/Gaussian/g16c01-CUDA-11.7.0/g16/l801.exe)
 DoSCS=F DFT=T ScalE2(SS,OS)=  1.000000  1.000000
 Range of M.O.s used for correlation:     1   366
 NBasis=   366 NAE=    49 NBE=    49 NFC=     0 NFV=     0
 NROrb=    366 NOA=    49 NOB=    49 NVA=   317 NVB=   317

 **** Warning!!: The largest alpha MO coefficient is  0.16265083D+02

 Leave Link  801 at Sat May 24 02:37:23 2025, MaxMem=  3758096384 cpu:               0.1 elap:               0.0
 (Enter /apps/easybuild-2022/easybuild/software/Compiler/NVHPC/22.11-CUDA-11.7.0/Gaussian/g16c01-CUDA-11.7.0/g16/l1101.exe)
 Using compressed storage, NAtomX=    12.
 Will process     13 centers per pass.
   1 Symmetry operations used in ECPInt.
 ECPInt:  NShTT=    8515 NPrTT=   27988 LenC2=    8013 LenP2D=   19496.
 LDataN:  DoStor=T MaxTD1= 7 Len=  274
 Leave Link 1101 at Sat May 24 02:37:24 2025, MaxMem=  3758096384 cpu:               1.4 elap:               0.4
 (Enter /apps/easybuild-2022/easybuild/software/Compiler/NVHPC/22.11-CUDA-11.7.0/Gaussian/g16c01-CUDA-11.7.0/g16/l1102.exe)
 Symmetrizing basis deriv contribution to polar:
 IMax=3 JMax=2 DiffMx= 0.00D+00
 Leave Link 1102 at Sat May 24 02:37:24 2025, MaxMem=  3758096384 cpu:               0.1 elap:               0.1
 (Enter /apps/easybuild-2022/easybuild/software/Compiler/NVHPC/22.11-CUDA-11.7.0/Gaussian/g16c01-CUDA-11.7.0/g16/l1110.exe)
 Forming Gx(P) for the SCF density, NAtomX=    12.
 Integral derivatives from FoFJK, PRISM(SPDF).
 Do as many integral derivatives as possible in FoFJK.
 G2DrvN: MDV=    3758095012.
 G2DrvN: will do    13 centers at a time, making    1 passes.
 Calling FoFCou, ICntrl=  3107 FMM=F I1Cent=   0 AccDes= 0.00D+00.
 FoFJK:  IHMeth= 1 ICntrl=    3107 DoSepK=F KAlg= 0 I1Cent=           0 FoldK=F
 IRaf=         0 NMat=       1 IRICut=       1 DoRegI=T DoRafI=F ISym2E= 0 IDoP0=0 IntGTp=1.
 FoFCou: FMM=F IPFlag=           0 FMFlag=      100000 FMFlg1=           0
         NFxFlg=           0 DoJE=F BraDBF=F KetDBF=F FulRan=T
         wScrn=  0.000000 ICntrl=      3107 IOpCl=  0 I1Cent=           0 NGrid=           0
         NMat0=    1 NMatS0=      1 NMatT0=    0 NMatD0=    1 NMtDS0=    0 NMtDT0=    0
 Symmetry not used in FoFCou.
 End of G2Drv F.D. properties file   721 does not exist.
 End of G2Drv F.D. properties file   722 does not exist.
 End of G2Drv F.D. properties file   788 does not exist.
 Leave Link 1110 at Sat May 24 02:38:13 2025, MaxMem=  3758096384 cpu:             392.7 elap:              49.6
 (Enter /apps/easybuild-2022/easybuild/software/Compiler/NVHPC/22.11-CUDA-11.7.0/Gaussian/g16c01-CUDA-11.7.0/g16/l1002.exe)
 Minotr:  Closed shell wavefunction.
          IDoAtm=111111111111
          Direct CPHF calculation.
          Differentiating once with respect to nuclear coordinates.
          Requested convergence is 1.0D-08 RMS, and 1.0D-07 maximum.
          Secondary convergence is 1.0D-12 RMS, and 1.0D-12 maximum.
          NewPWx=T KeepS1=F KeepF1=F KeepIn=T MapXYZ=F SortEE=F KeepMc=T.
         3605 words used for storage of precomputed grid.
 Keep R1 ints in memory in canonical form, NReq=2293452911.
 FoFCou: FMM=F IPFlag=           0 FMFlag=           0 FMFlg1=           0
         NFxFlg=           0 DoJE=F BraDBF=F KetDBF=F FulRan=T
         wScrn=  0.000000 ICntrl=       600 IOpCl=  0 I1Cent=           0 NGrid=           0
         NMat0=    1 NMatS0=  67161 NMatT0=    0 NMatD0=    1 NMtDS0=    0 NMtDT0=    0
 Symmetry not used in FoFCou.
 Two-electron integral symmetry not used.
          MDV=    3758096384 using IRadAn=       1.
          Solving linear equations simultaneously, MaxMat=       0.
          There are    39 degrees of freedom in the 1st order CPHF.  IDoFFX=6 NUNeed=     0.
     33 vectors produced by pass  0 Test12= 3.98D-14 2.56D-09 XBig12= 2.19D-01 8.94D-02.
 AX will form    33 AO Fock derivatives at one time.
     33 vectors produced by pass  1 Test12= 3.98D-14 2.56D-09 XBig12= 3.64D-02 3.27D-02.
     33 vectors produced by pass  2 Test12= 3.98D-14 2.56D-09 XBig12= 1.25D-03 6.12D-03.
     33 vectors produced by pass  3 Test12= 3.98D-14 2.56D-09 XBig12= 5.36D-05 1.32D-03.
     33 vectors produced by pass  4 Test12= 3.98D-14 2.56D-09 XBig12= 6.94D-07 1.23D-04.
     33 vectors produced by pass  5 Test12= 3.98D-14 2.56D-09 XBig12= 6.36D-09 1.04D-05.
     33 vectors produced by pass  6 Test12= 3.98D-14 2.56D-09 XBig12= 4.39D-11 8.40D-07.
     19 vectors produced by pass  7 Test12= 3.98D-14 2.56D-09 XBig12= 2.53D-13 5.50D-08.
      4 vectors produced by pass  8 Test12= 3.98D-14 2.56D-09 XBig12= 1.20D-15 3.30D-09.
 InvSVY:  IOpt=1 It=  1 EMax= 1.55D-15
 Solved reduced A of dimension   254 with    33 vectors.
 End of Minotr F.D. properties file   721 does not exist.
 End of Minotr F.D. properties file   722 does not exist.
 End of Minotr F.D. properties file   788 does not exist.
 Leave Link 1002 at Sat May 24 02:39:35 2025, MaxMem=  3758096384 cpu:             639.4 elap:              81.8
 (Enter /apps/easybuild-2022/easybuild/software/Compiler/NVHPC/22.11-CUDA-11.7.0/Gaussian/g16c01-CUDA-11.7.0/g16/l701.exe)
 ... and contract with generalized density number  0.
 Compute integral second derivatives.
   1 Symmetry operations used in ECPInt.
 ECPInt:  NShTT=    8515 NPrTT=   27988 LenC2=    8013 LenP2D=   19496.
 LDataN:  DoStor=T MaxTD1= 8 Len=  415
 Leave Link  701 at Sat May 24 02:39:35 2025, MaxMem=  3758096384 cpu:               1.4 elap:               0.3
 (Enter /apps/easybuild-2022/easybuild/software/Compiler/NVHPC/22.11-CUDA-11.7.0/Gaussian/g16c01-CUDA-11.7.0/g16/l702.exe)
 L702 exits ... SP integral derivatives will be done elsewhere.
 Leave Link  702 at Sat May 24 02:39:35 2025, MaxMem=  3758096384 cpu:               0.1 elap:               0.0
 (Enter /apps/easybuild-2022/easybuild/software/Compiler/NVHPC/22.11-CUDA-11.7.0/Gaussian/g16c01-CUDA-11.7.0/g16/l703.exe)
 Integral derivatives from FoFJK, PRISM(SPDF).
 Compute integral second derivatives, UseDBF=F ICtDFT=           0.
 Calling FoFJK, ICntrl=    100127 FMM=F ISym2X=0 I1Cent= 0 IOpClX= 0 NMat=1 NMatS=1 NMatT=0.
 FoFJK:  IHMeth= 1 ICntrl=  100127 DoSepK=F KAlg= 0 I1Cent=           0 FoldK=F
 IRaf=         0 NMat=       1 IRICut=       1 DoRegI=T DoRafI=F ISym2E= 0 IDoP0=0 IntGTp=1.
 FoFCou: FMM=F IPFlag=           0 FMFlag=      100000 FMFlg1=         800
         NFxFlg=           0 DoJE=F BraDBF=F KetDBF=F FulRan=T
         wScrn=  0.000000 ICntrl=    100127 IOpCl=  0 I1Cent=           0 NGrid=           0
         NMat0=    1 NMatS0=      1 NMatT0=    0 NMatD0=    1 NMtDS0=    0 NMtDT0=    0
 Symmetry not used in FoFCou.
 Leave Link  703 at Sat May 24 02:41:19 2025, MaxMem=  3758096384 cpu:             818.0 elap:             103.6
 (Enter /apps/easybuild-2022/easybuild/software/Compiler/NVHPC/22.11-CUDA-11.7.0/Gaussian/g16c01-CUDA-11.7.0/g16/l716.exe)
 Dipole        =-5.10282634D-02 8.09408785D-01-3.95130256D-01
 Polarizability= 0.00000000D+00 0.00000000D+00 0.00000000D+00
                 0.00000000D+00 0.00000000D+00 0.00000000D+00
 -------------------------------------------------------------------
 Center     Atomic                   Forces (Hartrees/Bohr)
 Number     Number              X              Y              Z
 -------------------------------------------------------------------
      1        6           0.000641541    0.000749195    0.000099380
      2        6           0.001634353    0.000470535   -0.000621959
      3        9          -0.001043010    0.001368456   -0.000356278
      4        9           0.001534306    0.000324549   -0.000438152
      5       16           0.006305960   -0.004492130   -0.016213961
      6        8           0.000121083    0.011375387   -0.000410629
      7        8          -0.003148019   -0.017440330   -0.002967988
      8        8          -0.005756713    0.003629848    0.019272904
      9        9          -0.000371061   -0.000257609    0.000096120
     10        9           0.000262099    0.000277628   -0.000028945
     11        9           0.000892416    0.000949957    0.000165462
     12        1          -0.001072954    0.003044513    0.001404045
 -------------------------------------------------------------------
 Cartesian Forces:  Max     0.019272904 RMS     0.005815551
 Force constants in Cartesian coordinates: 
                1             2             3             4             5 
      1  0.592978D+00
      2  0.706695D-02  0.608745D+00
      3 -0.326825D-02 -0.454266D-02  0.611196D+00
      4 -0.861944D-01 -0.334722D-01  0.103827D-02  0.455582D+00
      5 -0.723919D-01 -0.163628D+00  0.693235D-02 -0.330451D-01  0.562101D+00
      6  0.486492D-02  0.902465D-02 -0.400761D-01 -0.300630D-02 -0.347750D-02
      7  0.941717D-03 -0.405212D-02  0.259557D-02 -0.963667D-01  0.428399D-01
      8  0.192933D-01 -0.992267D-02  0.410544D-01  0.341246D-01 -0.136899D+00
      9 -0.119612D-01  0.877953D-02 -0.273617D-01 -0.657894D-01  0.112499D+00
     10  0.261472D-02 -0.289632D-02 -0.426181D-03 -0.108779D+00  0.645844D-01
     11  0.263105D-01 -0.203163D-01 -0.384568D-01  0.546235D-01 -0.175103D+00
     12  0.106888D-01 -0.982167D-02 -0.185094D-01  0.669276D-01 -0.120648D+00
     13 -0.144735D-01 -0.360002D-01  0.272472D-02 -0.160910D+00  0.181735D-01
     14 -0.365024D-01  0.207663D-01 -0.955565D-03 -0.210045D-01 -0.528885D-01
     15  0.131462D-02  0.205964D-02  0.248625D-01  0.128051D-02 -0.374461D-02
     16  0.218963D-02  0.744702D-02  0.242880D-02  0.170344D-01  0.735154D-02
     17  0.612750D-02 -0.839698D-02  0.403900D-02 -0.629660D-02  0.674851D-02
     18 -0.116462D-02  0.601394D-02 -0.824679D-02  0.159931D-01  0.342711D-02
     19  0.143757D-02  0.700739D-02 -0.284601D-02  0.140816D-01  0.495588D-02
     20  0.578794D-02 -0.676759D-02 -0.306869D-02  0.676159D-03  0.571017D-02
     21  0.156382D-02 -0.720467D-02 -0.628059D-02 -0.153151D-01  0.139092D-02
     22 -0.297629D-02  0.113531D-01 -0.862308D-03  0.351095D-02 -0.296203D-01
     23  0.260439D-02  0.524567D-02 -0.113580D-02  0.132355D-01 -0.209102D-01
     24  0.332700D-03 -0.311122D-02 -0.265210D-02 -0.183746D-02  0.953411D-02
     25 -0.110642D+00  0.592289D-01  0.573472D-01  0.627899D-02 -0.148512D-05
     26  0.552956D-01 -0.203991D+00 -0.102639D+00  0.233577D-01 -0.178966D-01
     27  0.556427D-01 -0.107817D+00 -0.170828D+00  0.102014D-01 -0.795819D-02
     28 -0.788073D-01  0.816286D-03 -0.134036D-01  0.877420D-02 -0.304943D-03
     29  0.781697D-03 -0.138463D+00  0.991256D-01  0.416961D-02 -0.602878D-02
     30 -0.104013D-01  0.107344D+00 -0.276899D+00 -0.298012D-02  0.502551D-02
     31 -0.306334D+00 -0.169084D-01 -0.453097D-01 -0.527836D-01  0.231195D-02
     32 -0.132456D-01 -0.835906D-01 -0.105147D-02 -0.352498D-01  0.107378D-02
     33 -0.475161D-01 -0.255698D-02 -0.853705D-01 -0.721570D-02  0.177245D-02
     34 -0.733778D-03  0.409647D-03 -0.185358D-04 -0.228700D-03 -0.485357D-02
     35 -0.112805D-02  0.318685D-03  0.698840D-03 -0.111886D-02 -0.227925D-02
     36 -0.961609D-04  0.183232D-02  0.165835D-03  0.703089D-03 -0.475247D-02
                6             7             8             9            10 
      6  0.563625D+00
      7 -0.727098D-01  0.955477D-01
      8  0.994776D-01 -0.470812D-01  0.135060D+00
      9 -0.243962D+00  0.888404D-01 -0.135570D+00  0.354519D+00
     10  0.731212D-01  0.142940D-01 -0.690816D-02 -0.205692D-02  0.100701D+00
     11 -0.107604D+00 -0.653823D-02  0.215711D-01 -0.185618D-02 -0.737085D-01
     12 -0.196455D+00  0.102483D-01 -0.157434D-01 -0.756490D-01 -0.953552D-01
     13 -0.448721D-02 -0.489615D-02 -0.715183D-03 -0.201838D-03 -0.173730D-02
     14 -0.115115D-02  0.210333D-01 -0.604332D-02  0.130966D-01  0.257574D-01
     15 -0.251504D-01 -0.349115D-01  0.137764D-01 -0.285758D-01  0.313735D-01
     16 -0.209972D-01 -0.128982D-01  0.387561D-02 -0.881068D-02 -0.259677D-02
     17  0.871075D-02  0.373164D-02  0.332245D-04  0.215471D-02 -0.858320D-03
     18 -0.106968D-01 -0.587109D-02  0.347639D-03 -0.793952D-03 -0.611519D-02
     19  0.204023D-01 -0.213897D-02  0.653463D-03 -0.137971D-02 -0.120792D-01
     20 -0.329685D-02 -0.141126D-02  0.149093D-02 -0.145306D-02  0.215927D-03
     21 -0.134460D-01  0.340999D-02 -0.232287D-02  0.992309D-02  0.486638D-02
     22  0.340996D-03 -0.496879D-03  0.113251D-02 -0.147584D-02 -0.155306D-04
     23  0.304509D-02 -0.302100D-02  0.531402D-02 -0.481064D-02 -0.465956D-02
     24  0.946280D-03  0.316210D-02 -0.351766D-02  0.501176D-02 -0.219462D-02
     25  0.505226D-03  0.716598D-03 -0.998759D-03  0.668667D-04  0.124281D-02
     26 -0.356143D-01 -0.125336D-02 -0.877847D-03  0.349016D-02 -0.331760D-02
     27 -0.104565D-01 -0.563208D-03 -0.290204D-02  0.542514D-02 -0.190836D-02
     28  0.968439D-02  0.372170D-04 -0.438710D-02  0.228127D-02  0.520065D-03
     29  0.365615D-01 -0.263761D-02 -0.107784D-01  0.564199D-02 -0.455192D-03
     30 -0.267719D-01  0.267264D-02  0.606337D-02 -0.947824D-03 -0.104532D-02
     31 -0.991510D-02  0.521775D-02 -0.477483D-03  0.197169D-02  0.526179D-02
     32 -0.415778D-02 -0.141679D-02  0.998307D-03 -0.159577D-02  0.785993D-03
     33  0.119487D-02  0.360434D-02 -0.152521D-02  0.378256D-02 -0.203195D-03
     34  0.219647D-02  0.420468D-04  0.148832D-02 -0.148466D-02  0.573315D-03
     35 -0.151840D-02 -0.193274D-03  0.541014D-04 -0.375753D-03  0.145990D-02
     36  0.124850D-02 -0.477718D-03  0.862103D-03 -0.137157D-02 -0.561004D-04
               11            12            13            14            15 
     11  0.188099D+00
     12  0.158007D+00  0.290002D+00
     13 -0.992359D-03  0.170673D-02  0.577619D+00
     14 -0.892726D-02 -0.113593D-01 -0.633567D-01  0.706577D+00
     15 -0.137535D-01 -0.178133D-01 -0.450856D-01 -0.115789D+00  0.126900D+01
     16  0.135321D-02  0.313544D-02 -0.147855D+00  0.790243D-01 -0.146388D+00
     17  0.538308D-03 -0.955852D-03  0.777038D-01 -0.213676D+00  0.246336D+00
     18  0.342100D-02  0.771045D-02 -0.139566D+00  0.239314D+00 -0.545323D+00
     19  0.437767D-02  0.632102D-02 -0.160099D+00  0.584563D-01  0.175553D+00
     20  0.925530D-03 -0.225447D-03  0.521568D-01 -0.144583D+00 -0.153431D+00
     21 -0.646058D-03 -0.375753D-03  0.167846D+00 -0.152004D+00 -0.564610D+00
     22  0.190800D-02  0.151151D-02 -0.896364D-01 -0.587762D-01  0.852317D-02
     23  0.552841D-02  0.404353D-02 -0.427759D-01 -0.264311D+00 -0.228498D-01
     24  0.108613D-02  0.174185D-02  0.168345D-01  0.133173D-01 -0.966110D-01
     25 -0.221702D-02 -0.105203D-02 -0.225919D-02  0.649561D-02  0.425003D-02
     26 -0.137861D-01 -0.381578D-02  0.656203D-02 -0.466307D-02 -0.175381D-02
     27 -0.350607D-02  0.688626D-03  0.315940D-02 -0.284694D-02 -0.735906D-02
     28 -0.158142D-02 -0.142077D-02 -0.695296D-03  0.410806D-02 -0.356500D-02
     29 -0.303461D-04  0.244816D-03  0.633696D-02 -0.361131D-02  0.101736D-02
     30  0.118751D-02  0.667743D-02 -0.534713D-02  0.305467D-02 -0.828707D-02
     31 -0.359091D-02 -0.214468D-02  0.101092D-01 -0.191793D-02 -0.380524D-03
     32  0.152938D-02  0.576492D-03  0.795308D-02 -0.696237D-02 -0.711253D-04
     33  0.213393D-02  0.217469D-02  0.117092D-02 -0.115926D-03 -0.267447D-02
     34  0.555618D-04 -0.566688D-03 -0.516743D-02 -0.133172D-01  0.803547D-02
     35 -0.284707D-04 -0.301551D-03 -0.250458D-01 -0.216776D-01  0.482033D-01
     36 -0.128868D-04 -0.192234D-03  0.124554D-02  0.154387D-01  0.253941D-02
               16            17            18            19            20 
     16  0.110061D+00
     17 -0.838189D-01  0.206214D+00
     18  0.150497D+00 -0.271224D+00  0.563629D+00
     19  0.229859D-01  0.841239D-03 -0.123142D-01  0.119892D+00
     20 -0.208439D-02  0.163657D-01  0.221658D-01 -0.659239D-01  0.163364D+00
     21  0.158530D-01 -0.150085D-01 -0.180024D-01 -0.184452D+00  0.197583D+00
     22  0.140346D-01  0.947270D-03  0.101532D-03  0.227816D-01  0.996132D-02
     23 -0.732678D-02 -0.709910D-02  0.163421D-02 -0.773729D-02 -0.450640D-01
     24  0.458683D-02  0.323960D-01  0.247770D-02 -0.274411D-02 -0.533532D-01
     25  0.453664D-03 -0.117907D-02 -0.738700D-03 -0.182347D-02 -0.423668D-02
     26 -0.217315D-02  0.161965D-02 -0.761623D-03 -0.362636D-02  0.100499D-02
     27 -0.137960D-02 -0.209964D-03  0.154704D-02  0.836756D-04  0.251036D-02
     28 -0.229870D-02 -0.274281D-02  0.191344D-02  0.614527D-04 -0.492839D-03
     29 -0.272959D-02  0.183897D-02 -0.185405D-02 -0.148483D-02  0.864183D-03
     30  0.510067D-03 -0.278028D-02  0.469546D-02  0.158769D-02  0.386355D-03
     31 -0.202182D-02  0.488049D-03 -0.891248D-03 -0.227578D-02 -0.129419D-03
     32 -0.157559D-02  0.207580D-02 -0.157333D-02 -0.175022D-02  0.167831D-02
     33 -0.446798D-03 -0.410382D-03  0.898716D-03 -0.111323D-03  0.278490D-03
     34  0.910439D-03  0.505619D-02 -0.184435D-02 -0.282419D-02  0.548032D-02
     35  0.656728D-03 -0.626204D-02 -0.910760D-03  0.423063D-02  0.501096D-02
     36  0.101119D-02 -0.304740D-02  0.210427D-02 -0.100623D-03 -0.809600D-02
               21            22            23            24            25 
     21  0.597789D+00
     22  0.343465D-02  0.132275D+00
     23 -0.212780D-01  0.911372D-01  0.361007D+00
     24 -0.317059D-02 -0.189075D+00 -0.300101D-01  0.508226D+00
     25 -0.207007D-02  0.110894D-02 -0.112543D-02 -0.600120D-03  0.153344D+00
     26  0.249957D-02 -0.173473D-02 -0.362647D-03  0.634884D-03 -0.103507D+00
     27  0.363798D-02 -0.943298D-03  0.354195D-03  0.106160D-02 -0.107877D+00
     28  0.636129D-03  0.347888D-03 -0.717040D-03  0.389171D-03  0.994990D-02
     29  0.651806D-03 -0.195927D-02 -0.764008D-03  0.192514D-03  0.125134D-02
     30  0.188885D-02  0.163762D-02  0.762388D-03  0.726477D-03  0.173432D-01
     31  0.170468D-02 -0.361138D-02 -0.379458D-02  0.142407D-02 -0.584668D-01
     32  0.177996D-02 -0.311436D-02 -0.143377D-02  0.878443D-03  0.457893D-01
     33  0.102629D-02 -0.386242D-03 -0.474983D-03  0.623435D-03  0.328408D-01
     34  0.252294D-02 -0.773226D-01 -0.358194D-01  0.169722D+00  0.964293D-04
     35 -0.544165D-02 -0.212344D-01 -0.371498D-01  0.319528D-01  0.500139D-03
     36 -0.837994D-02  0.177193D+00  0.707199D-01 -0.418381D+00 -0.154180D-04
               26            27            28            29            30 
     26  0.216691D+00
     27  0.153312D+00  0.244034D+00
     28 -0.120241D-02  0.231317D-01  0.867443D-01
     29  0.211357D-01 -0.247411D-01 -0.196326D-01  0.127190D+00
     30 -0.747909D-02 -0.777746D-01  0.389634D-01 -0.131007D+00  0.408830D+00
     31  0.315429D-01  0.204872D-01 -0.247829D-01  0.162416D-01 -0.428804D-01
     32  0.113727D-02 -0.589542D-02  0.260287D-01  0.860906D-02  0.176116D-01
     33 -0.754372D-02  0.102038D-01 -0.585546D-01  0.144188D-01 -0.322036D-01
     34  0.562715D-04 -0.345475D-04  0.149254D-03  0.117925D-03 -0.603153D-04
     35 -0.111415D-04 -0.300166D-03  0.108106D-03  0.379794D-04 -0.168675D-03
     36 -0.329040D-03 -0.179565D-03 -0.554634D-04 -0.252185D-03  0.650943D-04
               31            32            33            34            35 
     31  0.429893D+00
     32 -0.240422D-01  0.749570D-01
     33  0.768921D-01 -0.593586D-02  0.100536D+00
     34 -0.205415D-03 -0.162528D-03 -0.742106D-04  0.847107D-01
     35  0.276457D-03 -0.722552D-04 -0.406274D-04  0.414884D-01  0.620588D-01
     36 -0.958039D-03 -0.565752D-03 -0.191919D-03 -0.178394D+00 -0.717973D-01
               36 
     36  0.422573D+00
 FormGI is forming the generalized inverse of G from B-inverse, IUseBI=4.
 Leave Link  716 at Sat May 24 02:41:19 2025, MaxMem=  3758096384 cpu:               0.1 elap:               0.0
 (Enter /apps/easybuild-2022/easybuild/software/Compiler/NVHPC/22.11-CUDA-11.7.0/Gaussian/g16c01-CUDA-11.7.0/g16/l103.exe)

 GradGradGradGradGradGradGradGradGradGradGradGradGradGradGradGradGradGrad
 Berny optimization.
 Red2BG is reusing G-inverse.
 Internal  Forces:  Max     0.023674297 RMS     0.006000013
 Search for a local minimum.
 Step number   1 out of a maximum of   61
 All quantities printed in internal units (Hartrees-Bohrs-Radians)
 RMS Force = .60000D-02 SwitMx=.10000D-02 MixMth= 1
 Mixed Optimization -- RFO/linear search
 Second derivative matrix not updated -- analytic derivatives used.
 ITU=  0
     Eigenvalues ---    0.00105   0.00340   0.00408   0.05083   0.08497
     Eigenvalues ---    0.08604   0.10073   0.10734   0.12052   0.12509
     Eigenvalues ---    0.13447   0.16462   0.16590   0.18186   0.21422
     Eigenvalues ---    0.22031   0.23565   0.23965   0.25835   0.29941
     Eigenvalues ---    0.38368   0.39844   0.40519   0.41696   0.42794
     Eigenvalues ---    0.51200   0.51715   0.59146   0.74620   0.75810
 RFO step:  Lambda=-9.88557338D-03 EMin= 1.04978707D-03
 Linear search not attempted -- first point.
 Iteration  1 RMS(Cart)=  0.07478052 RMS(Int)=  0.00430512
 Iteration  2 RMS(Cart)=  0.00485810 RMS(Int)=  0.00102907
 Iteration  3 RMS(Cart)=  0.00001559 RMS(Int)=  0.00102891
 Iteration  4 RMS(Cart)=  0.00000000 RMS(Int)=  0.00102891
 ITry= 1 IFail=0 DXMaxC= 2.26D-01 DCOld= 1.00D+10 DXMaxT= 3.00D-01 DXLimC= 3.00D+00 Rises=F
 Variable       Old X    -DE/DX   Delta X   Delta X   Delta X     New X
                                 (Linear)    (Quad)   (Total)
    R1        2.93578  -0.00212   0.00000  -0.01276  -0.01276   2.92302
    R2        2.50119  -0.00007   0.00000   0.00139   0.00139   2.50259
    R3        2.49388  -0.00010   0.00000   0.00093   0.00093   2.49480
    R4        2.50532  -0.00085   0.00000  -0.00101  -0.00101   2.50432
    R5        2.51591   0.00116   0.00000   0.00665   0.00665   2.52256
    R6        2.51547  -0.00067   0.00000   0.00074   0.00074   2.51621
    R7        3.49829  -0.00343   0.00000  -0.01940  -0.01940   3.47889
    R8        2.67490  -0.00566   0.00000  -0.00737  -0.00737   2.66753
    R9        2.68821   0.00684   0.00000  -0.00804  -0.00804   2.68017
   R10        2.97185   0.00445   0.00000  -0.00516  -0.00516   2.96669
   R11        1.83266  -0.00125   0.00000  -0.00359  -0.00359   1.82907
    A1        1.91800   0.00123   0.00000   0.00299   0.00299   1.92099
    A2        1.93067  -0.00049   0.00000  -0.00246  -0.00246   1.92821
    A3        1.89965  -0.00187   0.00000  -0.00097  -0.00097   1.89868
    A4        1.91153  -0.00009   0.00000  -0.00192  -0.00192   1.90961
    A5        1.90297   0.00035   0.00000   0.00047   0.00047   1.90344
    A6        1.90067   0.00087   0.00000   0.00193   0.00193   1.90260
    A7        1.89755  -0.00013   0.00000   0.00215   0.00192   1.89947
    A8        1.90106   0.00057   0.00000  -0.00010   0.00008   1.90113
    A9        1.95544   0.00126   0.00000   0.02240   0.02232   1.97777
   A10        1.91489  -0.00021   0.00000  -0.00502  -0.00504   1.90985
   A11        1.87384   0.00067   0.00000   0.00674   0.00652   1.88036
   A12        1.92063  -0.00216   0.00000  -0.02618  -0.02614   1.89448
   A13        1.84867   0.00596   0.00000   0.01773   0.01382   1.86249
   A14        1.88583  -0.00439   0.00000   0.00894   0.00979   1.89562
   A15        1.77912  -0.01753   0.00000  -0.07050  -0.07178   1.70734
   A16        2.14901  -0.00181   0.00000   0.01435   0.01512   2.16413
   A17        2.00054  -0.00985   0.00000  -0.09782  -0.09894   1.90161
   A18        1.76603   0.02367   0.00000   0.11126   0.11220   1.87823
   A19        1.82628   0.00567   0.00000   0.07639   0.07639   1.90267
    D1        1.21981   0.00029   0.00000  -0.00252  -0.00249   1.21732
    D2       -2.97736   0.00029   0.00000  -0.00738  -0.00740  -2.98477
    D3       -0.84837  -0.00122   0.00000  -0.02580  -0.02581  -0.87419
    D4       -2.95056   0.00067   0.00000  -0.00456  -0.00453  -2.95509
    D5       -0.86455   0.00067   0.00000  -0.00942  -0.00944  -0.87399
    D6        1.26444  -0.00085   0.00000  -0.02784  -0.02785   1.23659
    D7       -0.86298   0.00026   0.00000  -0.00428  -0.00425  -0.86723
    D8        1.22303   0.00026   0.00000  -0.00914  -0.00917   1.21387
    D9       -2.93116  -0.00125   0.00000  -0.02757  -0.02758  -2.95874
   D10       -0.99680  -0.00475   0.00000  -0.05149  -0.05119  -1.04798
   D11        1.33646  -0.00583   0.00000  -0.01418  -0.01400   1.32246
   D12       -3.09481   0.01176   0.00000   0.08254   0.08237  -3.01245
   D13       -3.07897  -0.00576   0.00000  -0.07156  -0.07140   3.13282
   D14       -0.74571  -0.00684   0.00000  -0.03425  -0.03421  -0.77992
   D15        1.10620   0.01075   0.00000   0.06247   0.06216   1.16836
   D16        1.12096  -0.00468   0.00000  -0.05475  -0.05462   1.06635
   D17       -2.82896  -0.00577   0.00000  -0.01744  -0.01743  -2.84639
   D18       -0.97705   0.01183   0.00000   0.07928   0.07893  -0.89812
   D19       -1.91670  -0.00102   0.00000   0.04352   0.04765  -1.86905
   D20        2.37838   0.00664   0.00000   0.10700   0.10300   2.48139
   D21        0.02733  -0.00365   0.00000   0.06610   0.06596   0.09329
         Item               Value     Threshold  Converged?
 Maximum Force            0.023674     0.000450     NO 
 RMS     Force            0.006000     0.000300     NO 
 Maximum Displacement     0.225868     0.001800     NO 
 RMS     Displacement     0.075850     0.001200     NO 
 Predicted change in Energy=-5.361932D-03
 Lowest energy point so far.  Saving SCF results.
 GradGradGradGradGradGradGradGradGradGradGradGradGradGradGradGradGradGrad

 Leave Link  103 at Sat May 24 02:41:19 2025, MaxMem=  3758096384 cpu:               0.1 elap:               0.0
 (Enter /apps/easybuild-2022/easybuild/software/Compiler/NVHPC/22.11-CUDA-11.7.0/Gaussian/g16c01-CUDA-11.7.0/g16/l202.exe)
                          Input orientation:                          
 ---------------------------------------------------------------------
 Center     Atomic      Atomic             Coordinates (Angstroms)
 Number     Number       Type             X           Y           Z
 ---------------------------------------------------------------------
      1          6           0       -1.130693   -0.954049    0.072129
      2          6           0       -0.462385    0.435082   -0.055378
      3          9           0       -0.833021    0.986930   -1.212964
      4          9           0       -0.869430    1.204324    0.952356
      5         16           0        1.377026    0.363733   -0.031611
      6          8           0        1.745032   -0.211278    1.203921
      7          8           0        1.828050   -0.107183   -1.291117
      8          8           0        1.650117    1.908721    0.023492
      9          9           0       -0.598512   -1.796093   -0.800540
     10          9           0       -0.975094   -1.431121    1.293235
     11          9           0       -2.425558   -0.829541   -0.180950
     12          1           0        1.982166    2.201170   -0.837352
 ---------------------------------------------------------------------
                    Distance matrix (angstroms):
                    1          2          3          4          5
     1  C    0.000000
     2  C    1.546796   0.000000
     3  F    2.346801   1.334883   0.000000
     4  F    2.345556   1.331521   2.176511   0.000000
     5  S    2.834778   1.840948   2.582301   2.592557   0.000000
     6  O    3.178436   2.622271   3.731406   2.983727   1.411596
     7  O    3.365974   2.658420   2.878278   3.745614   1.418287
     8  O    3.991330   2.576916   2.923097   2.776162   1.569905
     9  F    1.324312   2.356255   2.823172   3.485476   3.026359
    10  F    1.320192   2.358885   3.485425   2.659499   3.241787
    11  F    1.325227   2.338608   2.626936   2.800450   3.988214
    12  H    4.524650   3.115506   3.088809   3.511176   2.095612
                    6          7          8          9         10
     6  O    0.000000
     7  O    2.498588   0.000000
     8  O    2.428335   2.413240   0.000000
     9  F    3.467232   2.996879   4.411462   0.000000
    10  F    2.982462   4.036001   4.433792   2.158451   0.000000
    11  F    4.437785   4.455048   4.914366   2.157825   2.153826
    12  H    3.169058   2.357572   0.967903   4.758084   5.145709
                   11         12
    11  F    0.000000
    12  H    5.389258   0.000000
 Symmetry turned off by external request.
 Stoichiometry    C2HF5O3S
 Rotational constants (GHZ):           1.6156909           0.8421591           0.7967855
 Leave Link  202 at Sat May 24 02:41:19 2025, MaxMem=  3758096384 cpu:               0.1 elap:               0.0
 (Enter /apps/easybuild-2022/easybuild/software/Compiler/NVHPC/22.11-CUDA-11.7.0/Gaussian/g16c01-CUDA-11.7.0/g16/l301.exe)
 Standard basis: def2TZVPP (5D, 7F)
 Ernie: Thresh=  0.10000D-02 Tol=  0.10000D-05 Strict=F.
   366 basis functions,   596 primitive gaussians,   423 cartesian basis functions
    49 alpha electrons       49 beta electrons
       nuclear repulsion energy       931.4184448320 Hartrees.
 IExCor= 4336 DFT=T Ex+Corr=M062X ExCW=0 ScaHFX=  0.540000
 ScaDFX=  1.000000  1.000000  1.000000  1.000000 ScalE2=  1.000000  1.000000
 IRadAn=      5 IRanWt=     -1 IRanGd=            0 ICorTp=0 IEmpDi=  4
 NAtoms=   12 NActive=   12 NUniq=   12 SFac= 1.00D+00 NAtFMM=   60 NAOKFM=F Big=F
 Integral buffers will be    131072 words long.
 Raffenetti 2 integral format.
 Two-electron integral symmetry is turned off.
 Leave Link  301 at Sat May 24 02:41:19 2025, MaxMem=  3758096384 cpu:               0.1 elap:               0.0
 (Enter /apps/easybuild-2022/easybuild/software/Compiler/NVHPC/22.11-CUDA-11.7.0/Gaussian/g16c01-CUDA-11.7.0/g16/l302.exe)
 NPDir=0 NMtPBC=     1 NCelOv=     1 NCel=       1 NClECP=     1 NCelD=      1
         NCelK=      1 NCelE2=     1 NClLst=     1 CellRange=     0.0.
 One-electron integrals computed using PRISM.
   1 Symmetry operations used in ECPInt.
 ECPInt:  NShTT=    8515 NPrTT=   27988 LenC2=    8018 LenP2D=   19515.
 LDataN:  DoStor=T MaxTD1= 6 Len=  172
 NBasis=   366 RedAO= T EigKep=  5.59D-04  NBF=   366
 NBsUse=   366 1.00D-06 EigRej= -1.00D+00 NBFU=   366
 Precomputing XC quadrature grid using
 IXCGrd= 4 IRadAn=           5 IRanWt=          -1 IRanGd=           0 AccXCQ= 0.00D+00.
 Generated NRdTot=       0 NPtTot=           0 NUsed=           0 NTot=          32
 NSgBfM=   419   419   419   419   419 MxSgAt=    12 MxSgA2=    12.
 Leave Link  302 at Sat May 24 02:41:19 2025, MaxMem=  3758096384 cpu:               0.7 elap:               0.2
 (Enter /apps/easybuild-2022/easybuild/software/Compiler/NVHPC/22.11-CUDA-11.7.0/Gaussian/g16c01-CUDA-11.7.0/g16/l303.exe)
 DipDrv:  MaxL=1.
 Leave Link  303 at Sat May 24 02:41:19 2025, MaxMem=  3758096384 cpu:               0.1 elap:               0.1
 (Enter /apps/easybuild-2022/easybuild/software/Compiler/NVHPC/22.11-CUDA-11.7.0/Gaussian/g16c01-CUDA-11.7.0/g16/l401.exe)
 Initial guess from the checkpoint file:  "2003846667223680600001_intra_H_migration_5_12_IRC_R_prod.chk"
 B after Tr=     0.018513   -0.021047   -0.014715
         Rot=    0.999964    0.005197   -0.000628    0.006684 Ang=   0.97 deg.
 Guess basis will be translated and rotated to current coordinates.
 JPrj=2 DoOrth=T DoCkMO=T.
 Generating alternative initial guess.
 ExpMin= 9.52D-02 ExpMax= 6.07D+04 ExpMxC= 2.07D+03 IAcc=3 IRadAn=         5 AccDes= 0.00D+00
 Harris functional with IExCor= 1009 and IRadAn=       5 diagonalized for initial guess.
 HarFok:  IExCor= 1009 AccDes= 0.00D+00 IRadAn=         5 IDoV= 1 UseB2=F ITyADJ=14
 ICtDFT=  3500011 ScaDFX=  1.000000  1.000000  1.000000  1.000000
 FoFCou: FMM=F IPFlag=           0 FMFlag=      100000 FMFlg1=           0
         NFxFlg=           0 DoJE=T BraDBF=F KetDBF=T FulRan=T
         wScrn=  0.000000 ICntrl=       500 IOpCl=  0 I1Cent=   200000004 NGrid=           0
         NMat0=    1 NMatS0=      1 NMatT0=    0 NMatD0=    1 NMtDS0=    0 NMtDT0=    0
 Symmetry not used in FoFCou.
 Harris En= -1199.34156626742    
 Leave Link  401 at Sat May 24 02:41:20 2025, MaxMem=  3758096384 cpu:               3.6 elap:               0.6
 (Enter /apps/easybuild-2022/easybuild/software/Compiler/NVHPC/22.11-CUDA-11.7.0/Gaussian/g16c01-CUDA-11.7.0/g16/l502.exe)
 Keep R1 ints in memory in canonical form, NReq=2293446996.
 FoFCou: FMM=F IPFlag=           0 FMFlag=           0 FMFlg1=           0
         NFxFlg=           0 DoJE=F BraDBF=F KetDBF=F FulRan=T
         wScrn=  0.000000 ICntrl=       600 IOpCl=  0 I1Cent=           0 NGrid=           0
         NMat0=    1 NMatS0=  67161 NMatT0=    0 NMatD0=    1 NMtDS0=    0 NMtDT0=    0
 Symmetry not used in FoFCou.
 Two-electron integral symmetry not used.
 Closed shell SCF:
 Using DIIS extrapolation, IDIIS=  1040.
 NGot=  3758096384 LenX=  1502398672 LenY=  1502219302
 Requested convergence on RMS density matrix=1.00D-08 within  32 cycles.
 Requested convergence on MAX density matrix=1.00D-06.
 Requested convergence on             energy=1.00D-06.
 No special actions if energy rises.
 Integral accuracy reduced to 1.0D-05 until final iterations.

 Cycle   1  Pass 0  IDiag  1:
 E= -1199.92596335875    
 DIIS: error= 3.62D-03 at cycle   1 NSaved=   1.
 NSaved= 1 IEnMin= 1 EnMin= -1199.92596335875     IErMin= 1 ErrMin= 3.62D-03
 ErrMax= 3.62D-03  0.00D+00 EMaxC= 1.00D-01 BMatC= 1.20D-02 BMatP= 1.20D-02
 IDIUse=3 WtCom= 9.64D-01 WtEn= 3.62D-02
 Coeff-Com:  0.100D+01
 Coeff-En:   0.100D+01
 Coeff:      0.100D+01
 Gap=     1.073 Goal=   None    Shift=    0.000
 GapD=    1.073 DampG=2.000 DampE=1.000 DampFc=2.0000 IDamp=-1.
 RMSDP=2.92D-04 MaxDP=1.31D-02              OVMax= 2.46D-02

 Cycle   2  Pass 0  IDiag  1:
 E= -1199.93914105247     Delta-E=       -0.013177693713 Rises=F Damp=F
 DIIS: error= 7.85D-04 at cycle   2 NSaved=   2.
 NSaved= 2 IEnMin= 2 EnMin= -1199.93914105247     IErMin= 2 ErrMin= 7.85D-04
 ErrMax= 7.85D-04  0.00D+00 EMaxC= 1.00D-01 BMatC= 4.49D-04 BMatP= 1.20D-02
 IDIUse=3 WtCom= 9.92D-01 WtEn= 7.85D-03
 Coeff-Com: -0.868D-01 0.109D+01
 Coeff-En:   0.000D+00 0.100D+01
 Coeff:     -0.861D-01 0.109D+01
 Gap=     0.446 Goal=   None    Shift=    0.000
 RMSDP=7.92D-05 MaxDP=3.01D-03 DE=-1.32D-02 OVMax= 7.06D-03

 Cycle   3  Pass 0  IDiag  1:
 E= -1199.93955899688     Delta-E=       -0.000417944409 Rises=F Damp=F
 DIIS: error= 7.36D-04 at cycle   3 NSaved=   3.
 NSaved= 3 IEnMin= 3 EnMin= -1199.93955899688     IErMin= 3 ErrMin= 7.36D-04
 ErrMax= 7.36D-04  0.00D+00 EMaxC= 1.00D-01 BMatC= 4.17D-04 BMatP= 4.49D-04
 IDIUse=3 WtCom= 9.93D-01 WtEn= 7.36D-03
 Coeff-Com: -0.740D-01 0.576D+00 0.498D+00
 Coeff-En:   0.000D+00 0.000D+00 0.100D+01
 Coeff:     -0.734D-01 0.572D+00 0.502D+00
 Gap=     0.447 Goal=   None    Shift=    0.000
 RMSDP=3.57D-05 MaxDP=1.50D-03 DE=-4.18D-04 OVMax= 4.05D-03

 Cycle   4  Pass 0  IDiag  1:
 E= -1199.93983221678     Delta-E=       -0.000273219909 Rises=F Damp=F
 DIIS: error= 1.95D-04 at cycle   4 NSaved=   4.
 NSaved= 4 IEnMin= 4 EnMin= -1199.93983221678     IErMin= 4 ErrMin= 1.95D-04
 ErrMax= 1.95D-04  0.00D+00 EMaxC= 1.00D-01 BMatC= 2.02D-05 BMatP= 4.17D-04
 IDIUse=3 WtCom= 9.98D-01 WtEn= 1.95D-03
 Coeff-Com: -0.654D-02-0.209D-01 0.160D+00 0.868D+00
 Coeff-En:   0.000D+00 0.000D+00 0.000D+00 0.100D+01
 Coeff:     -0.653D-02-0.209D-01 0.160D+00 0.868D+00
 Gap=     0.447 Goal=   None    Shift=    0.000
 RMSDP=1.05D-05 MaxDP=5.13D-04 DE=-2.73D-04 OVMax= 1.35D-03

 Cycle   5  Pass 0  IDiag  1:
 E= -1199.93984754456     Delta-E=       -0.000015327774 Rises=F Damp=F
 DIIS: error= 5.53D-05 at cycle   5 NSaved=   5.
 NSaved= 5 IEnMin= 5 EnMin= -1199.93984754456     IErMin= 5 ErrMin= 5.53D-05
 ErrMax= 5.53D-05  0.00D+00 EMaxC= 1.00D-01 BMatC= 3.39D-06 BMatP= 2.02D-05
 IDIUse=1 WtCom= 1.00D+00 WtEn= 0.00D+00
 Coeff-Com:  0.987D-03-0.456D-01 0.512D-01 0.443D+00 0.551D+00
 Coeff:      0.987D-03-0.456D-01 0.512D-01 0.443D+00 0.551D+00
 Gap=     0.447 Goal=   None    Shift=    0.000
 RMSDP=3.21D-06 MaxDP=2.23D-04 DE=-1.53D-05 OVMax= 3.24D-04

 Initial convergence to 1.0D-05 achieved.  Increase integral accuracy.
 Cycle   6  Pass 1  IDiag  1:
 E= -1199.93989171757     Delta-E=       -0.000044173008 Rises=F Damp=F
 DIIS: error= 2.55D-05 at cycle   1 NSaved=   1.
 NSaved= 1 IEnMin= 1 EnMin= -1199.93989171757     IErMin= 1 ErrMin= 2.55D-05
 ErrMax= 2.55D-05  0.00D+00 EMaxC= 1.00D-01 BMatC= 7.42D-07 BMatP= 7.42D-07
 IDIUse=1 WtCom= 1.00D+00 WtEn= 0.00D+00
 Coeff-Com:  0.100D+01
 Coeff:      0.100D+01
 Gap=     0.447 Goal=   None    Shift=    0.000
 RMSDP=3.21D-06 MaxDP=2.23D-04 DE=-4.42D-05 OVMax= 1.84D-04

 Cycle   7  Pass 1  IDiag  1:
 E= -1199.93989216418     Delta-E=       -0.000000446612 Rises=F Damp=F
 DIIS: error= 1.52D-05 at cycle   2 NSaved=   2.
 NSaved= 2 IEnMin= 2 EnMin= -1199.93989216418     IErMin= 2 ErrMin= 1.52D-05
 ErrMax= 1.52D-05  0.00D+00 EMaxC= 1.00D-01 BMatC= 2.59D-07 BMatP= 7.42D-07
 IDIUse=1 WtCom= 1.00D+00 WtEn= 0.00D+00
 Coeff-Com:  0.313D+00 0.687D+00
 Coeff:      0.313D+00 0.687D+00
 Gap=     0.447 Goal=   None    Shift=    0.000
 RMSDP=1.29D-06 MaxDP=5.64D-05 DE=-4.47D-07 OVMax= 1.16D-04

 Cycle   8  Pass 1  IDiag  1:
 E= -1199.93989227071     Delta-E=       -0.000000106535 Rises=F Damp=F
 DIIS: error= 1.13D-05 at cycle   3 NSaved=   3.
 NSaved= 3 IEnMin= 3 EnMin= -1199.93989227071     IErMin= 3 ErrMin= 1.13D-05
 ErrMax= 1.13D-05  0.00D+00 EMaxC= 1.00D-01 BMatC= 1.02D-07 BMatP= 2.59D-07
 IDIUse=1 WtCom= 1.00D+00 WtEn= 0.00D+00
 Coeff-Com: -0.319D-01 0.381D+00 0.651D+00
 Coeff:     -0.319D-01 0.381D+00 0.651D+00
 Gap=     0.447 Goal=   None    Shift=    0.000
 RMSDP=6.25D-07 MaxDP=2.48D-05 DE=-1.07D-07 OVMax= 6.38D-05

 Cycle   9  Pass 1  IDiag  1:
 E= -1199.93989233781     Delta-E=       -0.000000067097 Rises=F Damp=F
 DIIS: error= 2.08D-06 at cycle   4 NSaved=   4.
 NSaved= 4 IEnMin= 4 EnMin= -1199.93989233781     IErMin= 4 ErrMin= 2.08D-06
 ErrMax= 2.08D-06  0.00D+00 EMaxC= 1.00D-01 BMatC= 2.69D-09 BMatP= 1.02D-07
 IDIUse=1 WtCom= 1.00D+00 WtEn= 0.00D+00
 Coeff-Com: -0.222D-01 0.152D+00 0.290D+00 0.580D+00
 Coeff:     -0.222D-01 0.152D+00 0.290D+00 0.580D+00
 Gap=     0.447 Goal=   None    Shift=    0.000
 RMSDP=1.10D-07 MaxDP=5.60D-06 DE=-6.71D-08 OVMax= 1.18D-05

 Cycle  10  Pass 1  IDiag  1:
 E= -1199.93989233945     Delta-E=       -0.000000001642 Rises=F Damp=F
 DIIS: error= 7.11D-07 at cycle   5 NSaved=   5.
 NSaved= 5 IEnMin= 5 EnMin= -1199.93989233945     IErMin= 5 ErrMin= 7.11D-07
 ErrMax= 7.11D-07  0.00D+00 EMaxC= 1.00D-01 BMatC= 3.92D-10 BMatP= 2.69D-09
 IDIUse=1 WtCom= 1.00D+00 WtEn= 0.00D+00
 Coeff-Com: -0.264D-02-0.200D-01-0.203D-01 0.256D+00 0.787D+00
 Coeff:     -0.264D-02-0.200D-01-0.203D-01 0.256D+00 0.787D+00
 Gap=     0.447 Goal=   None    Shift=    0.000
 RMSDP=5.94D-08 MaxDP=2.14D-06 DE=-1.64D-09 OVMax= 5.98D-06

 Cycle  11  Pass 1  IDiag  1:
 E= -1199.93989233987     Delta-E=       -0.000000000414 Rises=F Damp=F
 DIIS: error= 2.20D-07 at cycle   6 NSaved=   6.
 NSaved= 6 IEnMin= 6 EnMin= -1199.93989233987     IErMin= 6 ErrMin= 2.20D-07
 ErrMax= 2.20D-07  0.00D+00 EMaxC= 1.00D-01 BMatC= 1.97D-11 BMatP= 3.92D-10
 IDIUse=1 WtCom= 1.00D+00 WtEn= 0.00D+00
 Coeff-Com:  0.143D-02-0.187D-01-0.318D-01 0.106D-01 0.221D+00 0.818D+00
 Coeff:      0.143D-02-0.187D-01-0.318D-01 0.106D-01 0.221D+00 0.818D+00
 Gap=     0.447 Goal=   None    Shift=    0.000
 RMSDP=1.50D-08 MaxDP=5.83D-07 DE=-4.14D-10 OVMax= 1.75D-06

 Cycle  12  Pass 1  IDiag  1:
 E= -1199.93989233986     Delta-E=        0.000000000001 Rises=F Damp=F
 DIIS: error= 3.55D-08 at cycle   7 NSaved=   7.
 NSaved= 7 IEnMin= 6 EnMin= -1199.93989233987     IErMin= 7 ErrMin= 3.55D-08
 ErrMax= 3.55D-08  0.00D+00 EMaxC= 1.00D-01 BMatC= 1.86D-12 BMatP= 1.97D-11
 IDIUse=1 WtCom= 1.00D+00 WtEn= 0.00D+00
 Coeff-Com:  0.642D-03-0.515D-02-0.952D-02-0.116D-01 0.258D-01 0.269D+00
 Coeff-Com:  0.731D+00
 Coeff:      0.642D-03-0.515D-02-0.952D-02-0.116D-01 0.258D-01 0.269D+00
 Coeff:      0.731D+00
 Gap=     0.447 Goal=   None    Shift=    0.000
 RMSDP=3.66D-09 MaxDP=1.71D-07 DE= 9.09D-13 OVMax= 4.41D-07

 SCF Done:  E(RM062X) =  -1199.93989234     A.U. after   12 cycles
            NFock= 12  Conv=0.37D-08     -V/T= 2.0028
 KE= 1.196543201650D+03 PE=-4.709067931580D+03 EE= 1.381166392758D+03
 Leave Link  502 at Sat May 24 02:42:01 2025, MaxMem=  3758096384 cpu:             145.1 elap:              40.9
 (Enter /apps/easybuild-2022/easybuild/software/Compiler/NVHPC/22.11-CUDA-11.7.0/Gaussian/g16c01-CUDA-11.7.0/g16/l508.exe)
 QCSCF skips out because SCF is already converged.
 Leave Link  508 at Sat May 24 02:42:01 2025, MaxMem=  3758096384 cpu:               0.1 elap:               0.0
 (Enter /apps/easybuild-2022/easybuild/software/Compiler/NVHPC/22.11-CUDA-11.7.0/Gaussian/g16c01-CUDA-11.7.0/g16/l701.exe)
 ... and contract with generalized density number  0.
 Compute integral first derivatives.
   1 Symmetry operations used in ECPInt.
 ECPInt:  NShTT=    8515 NPrTT=   27988 LenC2=    8018 LenP2D=   19515.
 LDataN:  DoStor=T MaxTD1= 7 Len=  274
 Leave Link  701 at Sat May 24 02:42:01 2025, MaxMem=  3758096384 cpu:               0.7 elap:               0.2
 (Enter /apps/easybuild-2022/easybuild/software/Compiler/NVHPC/22.11-CUDA-11.7.0/Gaussian/g16c01-CUDA-11.7.0/g16/l702.exe)
 L702 exits ... SP integral derivatives will be done elsewhere.
 Leave Link  702 at Sat May 24 02:42:01 2025, MaxMem=  3758096384 cpu:               0.1 elap:               0.0
 (Enter /apps/easybuild-2022/easybuild/software/Compiler/NVHPC/22.11-CUDA-11.7.0/Gaussian/g16c01-CUDA-11.7.0/g16/l703.exe)
 Integral derivatives from FoFJK, PRISM(SPDF).
 Compute integral first derivatives, UseDBF=F ICtDFT=           0.
 Calling FoFJK, ICntrl=      2127 FMM=F ISym2X=0 I1Cent= 0 IOpClX= 0 NMat=1 NMatS=1 NMatT=0.
 FoFJK:  IHMeth= 1 ICntrl=    2127 DoSepK=F KAlg= 0 I1Cent=           0 FoldK=F
 IRaf=         0 NMat=       1 IRICut=       1 DoRegI=T DoRafI=F ISym2E= 0 IDoP0=0 IntGTp=1.
 FoFCou: FMM=F IPFlag=           0 FMFlag=      100000 FMFlg1=         800
         NFxFlg=           0 DoJE=F BraDBF=F KetDBF=F FulRan=T
         wScrn=  0.000000 ICntrl=      2127 IOpCl=  0 I1Cent=           0 NGrid=           0
         NMat0=    1 NMatS0=      1 NMatT0=    0 NMatD0=    1 NMtDS0=    0 NMtDT0=    0
 Symmetry not used in FoFCou.
 Leave Link  703 at Sat May 24 02:42:12 2025, MaxMem=  3758096384 cpu:              84.8 elap:              10.8
 (Enter /apps/easybuild-2022/easybuild/software/Compiler/NVHPC/22.11-CUDA-11.7.0/Gaussian/g16c01-CUDA-11.7.0/g16/l716.exe)
 Dipole        =-3.55489436D-02 8.81875359D-01-4.93764298D-01
 -------------------------------------------------------------------
 Center     Atomic                   Forces (Hartrees/Bohr)
 Number     Number              X              Y              Z
 -------------------------------------------------------------------
      1        6          -0.000133308    0.000066985    0.000200696
      2        6          -0.000440237   -0.000526247   -0.000901132
      3        9          -0.000056859    0.000238419   -0.000016809
      4        9          -0.000297906   -0.000320486   -0.000212921
      5       16          -0.000234757    0.001817615   -0.000739588
      6        8           0.000479594   -0.000618026    0.000699806
      7        8           0.000057222   -0.003856888   -0.001075335
      8        8           0.001820253    0.002333367    0.002267258
      9        9          -0.000140802    0.000019821   -0.000098716
     10        9           0.000152180   -0.000074735   -0.000049527
     11        9           0.000002748    0.000029741    0.000150589
     12        1          -0.001208127    0.000890434   -0.000224321
 -------------------------------------------------------------------
 Cartesian Forces:  Max     0.003856888 RMS     0.001040447
 Leave Link  716 at Sat May 24 02:42:12 2025, MaxMem=  3758096384 cpu:               0.1 elap:               0.0
 (Enter /apps/easybuild-2022/easybuild/software/Compiler/NVHPC/22.11-CUDA-11.7.0/Gaussian/g16c01-CUDA-11.7.0/g16/l103.exe)

 GradGradGradGradGradGradGradGradGradGradGradGradGradGradGradGradGradGrad
 Berny optimization.
 Using GEDIIS/GDIIS optimizer.
 FormGI is forming the generalized inverse of G from B-inverse, IUseBI=4.
 Internal  Forces:  Max     0.003348003 RMS     0.000960279
 Search for a local minimum.
 Step number   2 out of a maximum of   61
 All quantities printed in internal units (Hartrees-Bohrs-Radians)
 RMS Force = .96028D-03 SwitMx=.10000D-02 MixMth= 2
 Mixed Optimization -- En-DIIS/RFO-DIIS
 Update second derivatives using D2CorX and points    1    2
 DE= -5.39D-03 DEPred=-5.36D-03 R= 1.01D+00
 TightC=F SS=  1.41D+00  RLast= 2.91D-01 DXNew= 5.0454D-01 8.7391D-01
 Trust test= 1.01D+00 RLast= 2.91D-01 DXMaxT set to 5.05D-01
 ITU=  1  0
 Use linear search instead of GDIIS.
     Eigenvalues ---    0.00105   0.00339   0.00406   0.05095   0.08536
     Eigenvalues ---    0.09118   0.10145   0.10903   0.11975   0.12496
     Eigenvalues ---    0.13014   0.16428   0.16581   0.18187   0.20884
     Eigenvalues ---    0.22018   0.23559   0.23969   0.25843   0.29485
     Eigenvalues ---    0.37964   0.39887   0.40500   0.41716   0.42791
     Eigenvalues ---    0.51198   0.51730   0.59145   0.74033   0.75958
 RFO step:  Lambda=-7.78067792D-04 EMin= 1.04795789D-03
 Quartic linear search produced a step of  0.09865.
 Iteration  1 RMS(Cart)=  0.07430571 RMS(Int)=  0.00435365
 Iteration  2 RMS(Cart)=  0.00416978 RMS(Int)=  0.00009436
 Iteration  3 RMS(Cart)=  0.00002021 RMS(Int)=  0.00009216
 Iteration  4 RMS(Cart)=  0.00000000 RMS(Int)=  0.00009216
 ITry= 1 IFail=0 DXMaxC= 2.22D-01 DCOld= 1.00D+10 DXMaxT= 5.05D-01 DXLimC= 3.00D+00 Rises=F
 Variable       Old X    -DE/DX   Delta X   Delta X   Delta X     New X
                                 (Linear)    (Quad)   (Total)
    R1        2.92302   0.00003  -0.00126  -0.00066  -0.00192   2.92110
    R2        2.50259  -0.00001   0.00014  -0.00282  -0.00268   2.49991
    R3        2.49480  -0.00000   0.00009   0.00093   0.00102   2.49582
    R4        2.50432  -0.00003  -0.00010   0.00107   0.00097   2.50529
    R5        2.52256   0.00013   0.00066   0.00293   0.00359   2.52615
    R6        2.51621  -0.00025   0.00007  -0.00031  -0.00023   2.51598
    R7        3.47889   0.00091  -0.00191   0.00584   0.00392   3.48281
    R8        2.66753   0.00099  -0.00073   0.00046  -0.00026   2.66727
    R9        2.68017   0.00225  -0.00079   0.00143   0.00064   2.68081
   R10        2.96669   0.00335  -0.00051   0.00420   0.00370   2.97039
   R11        1.82907   0.00005  -0.00035   0.00007  -0.00029   1.82879
    A1        1.92099   0.00007   0.00029   0.00542   0.00571   1.92670
    A2        1.92821  -0.00001  -0.00024  -0.00133  -0.00157   1.92664
    A3        1.89868  -0.00003  -0.00010  -0.00455  -0.00465   1.89403
    A4        1.90961  -0.00003  -0.00019   0.00023   0.00004   1.90965
    A5        1.90344  -0.00002   0.00005   0.00009   0.00014   1.90358
    A6        1.90260   0.00002   0.00019   0.00009   0.00027   1.90287
    A7        1.89947   0.00007   0.00019  -0.00136  -0.00120   1.89827
    A8        1.90113  -0.00033   0.00001  -0.00618  -0.00617   1.89496
    A9        1.97777   0.00010   0.00220   0.00787   0.01006   1.98783
   A10        1.90985  -0.00007  -0.00050  -0.00143  -0.00194   1.90792
   A11        1.88036   0.00005   0.00064  -0.00364  -0.00302   1.87734
   A12        1.89448   0.00017  -0.00258   0.00456   0.00200   1.89648
   A13        1.86249   0.00065   0.00136   0.00831   0.00935   1.87184
   A14        1.89562  -0.00161   0.00097  -0.02333  -0.02235   1.87327
   A15        1.70734   0.00000  -0.00708   0.02417   0.01700   1.72434
   A16        2.16413  -0.00092   0.00149  -0.00042   0.00115   2.16528
   A17        1.90161  -0.00086  -0.00976  -0.01178  -0.02169   1.87992
   A18        1.87823   0.00288   0.01107   0.00898   0.02032   1.89855
   A19        1.90267   0.00124   0.00754   0.00720   0.01473   1.91740
    D1        1.21732   0.00000  -0.00025  -0.07501  -0.07526   1.14206
    D2       -2.98477  -0.00023  -0.00073  -0.08113  -0.08185  -3.06662
    D3       -0.87419  -0.00018  -0.00255  -0.07451  -0.07707  -0.95126
    D4       -2.95509   0.00001  -0.00045  -0.07204  -0.07249  -3.02758
    D5       -0.87399  -0.00022  -0.00093  -0.07815  -0.07908  -0.95307
    D6        1.23659  -0.00017  -0.00275  -0.07154  -0.07430   1.16229
    D7       -0.86723   0.00001  -0.00042  -0.07557  -0.07598  -0.94321
    D8        1.21387  -0.00022  -0.00090  -0.08168  -0.08257   1.13130
    D9       -2.95874  -0.00017  -0.00272  -0.07507  -0.07779  -3.03653
   D10       -1.04798   0.00046  -0.00505  -0.07113  -0.07614  -1.12412
   D11        1.32246  -0.00148  -0.00138  -0.08324  -0.08454   1.23792
   D12       -3.01245   0.00121   0.00813  -0.06992  -0.06190  -3.07435
   D13        3.13282   0.00027  -0.00704  -0.07184  -0.07885   3.05397
   D14       -0.77992  -0.00167  -0.00337  -0.08394  -0.08725  -0.86717
   D15        1.16836   0.00102   0.00613  -0.07063  -0.06461   1.10375
   D16        1.06635   0.00023  -0.00539  -0.07061  -0.07596   0.99039
   D17       -2.84639  -0.00172  -0.00172  -0.08272  -0.08436  -2.93076
   D18       -0.89812   0.00098   0.00779  -0.06940  -0.06172  -0.95984
   D19       -1.86905   0.00125   0.00470   0.20339   0.20831  -1.66074
   D20        2.48139   0.00078   0.01016   0.18744   0.19728   2.67866
   D21        0.09329   0.00031   0.00651   0.19024   0.19685   0.29014
         Item               Value     Threshold  Converged?
 Maximum Force            0.003348     0.000450     NO 
 RMS     Force            0.000960     0.000300     NO 
 Maximum Displacement     0.222025     0.001800     NO 
 RMS     Displacement     0.073812     0.001200     NO 
 Predicted change in Energy=-5.230824D-04
 Lowest energy point so far.  Saving SCF results.
 GradGradGradGradGradGradGradGradGradGradGradGradGradGradGradGradGradGrad

 Leave Link  103 at Sat May 24 02:42:12 2025, MaxMem=  3758096384 cpu:               0.1 elap:               0.0
 (Enter /apps/easybuild-2022/easybuild/software/Compiler/NVHPC/22.11-CUDA-11.7.0/Gaussian/g16c01-CUDA-11.7.0/g16/l202.exe)
                          Input orientation:                          
 ---------------------------------------------------------------------
 Center     Atomic      Atomic             Coordinates (Angstroms)
 Number     Number       Type             X           Y           Z
 ---------------------------------------------------------------------
      1          6           0       -1.128513   -0.951464    0.045172
      2          6           0       -0.446314    0.432578   -0.046856
      3          9           0       -0.792375    1.006477   -1.203518
      4          9           0       -0.875808    1.185122    0.964001
      5         16           0        1.394495    0.362801    0.010530
      6          8           0        1.755022   -0.135699    1.280856
      7          8           0        1.834646   -0.196448   -1.216665
      8          8           0        1.694015    1.905823   -0.000283
      9          9           0       -0.657868   -1.760429   -0.889772
     10          9           0       -0.922339   -1.487904    1.234313
     11          9           0       -2.431936   -0.791405   -0.136658
     12          1           0        1.864676    2.201243   -0.905901
 ---------------------------------------------------------------------
                    Distance matrix (angstroms):
                    1          2          3          4          5
     1  C    0.000000
     2  C    1.545781   0.000000
     3  F    2.346432   1.336782   0.000000
     4  F    2.339467   1.331397   2.176468   0.000000
     5  S    2.845007   1.843024   2.582757   2.596073   0.000000
     6  O    3.241475   2.632800   3.737099   2.960782   1.411457
     7  O    3.307959   2.639490   2.889367   3.743074   1.418626
     8  O    4.016568   2.598774   2.904950   2.837823   1.571861
     9  F    1.322895   2.358929   2.787884   3.487154   3.087207
    10  F    1.320732   2.357169   3.490250   2.687062   3.207876
    11  F    1.325742   2.334287   2.656827   2.745842   3.999429
    12  H    4.450087   3.034272   2.928474   3.469767   2.107317
                    6          7          8          9         10
     6  O    0.000000
     7  O    2.499528   0.000000
     8  O    2.410986   2.432880   0.000000
[...]
   D18       -1.14842   0.00000   0.00000  -0.00031  -0.00031  -1.14872
   D19       -1.54781   0.00000   0.00000   0.00016   0.00016  -1.54764
   D20        2.78384  -0.00000   0.00000   0.00015   0.00015   2.78398
   D21        0.39705   0.00000   0.00000   0.00015   0.00015   0.39720
         Item               Value     Threshold  Converged?
 Maximum Force            0.000015     0.000450     YES
 RMS     Force            0.000003     0.000300     YES
 Maximum Displacement     0.000722     0.001800     YES
 RMS     Displacement     0.000280     0.001200     YES
 Predicted change in Energy=-1.956163D-09
 Optimization completed.
    -- Stationary point found.
                           ----------------------------
                           !   Optimized Parameters   !
                           ! (Angstroms and Degrees)  !
 --------------------------                            --------------------------
 ! Name  Definition              Value          Derivative Info.                !
 --------------------------------------------------------------------------------
 ! R1    R(1,2)                  1.5458         -DE/DX =    0.0                 !
 ! R2    R(1,9)                  1.3211         -DE/DX =    0.0                 !
 ! R3    R(1,10)                 1.323          -DE/DX =    0.0                 !
 ! R4    R(1,11)                 1.3254         -DE/DX =    0.0                 !
 ! R5    R(2,3)                  1.3388         -DE/DX =    0.0                 !
 ! R6    R(2,4)                  1.33           -DE/DX =    0.0                 !
 ! R7    R(2,5)                  1.8433         -DE/DX =    0.0                 !
 ! R8    R(5,6)                  1.411          -DE/DX =    0.0                 !
 ! R9    R(5,7)                  1.4191         -DE/DX =    0.0                 !
 ! R10   R(5,8)                  1.5718         -DE/DX =    0.0                 !
 ! R11   R(8,12)                 0.9683         -DE/DX =    0.0                 !
 ! A1    A(2,1,9)              110.5316         -DE/DX =    0.0                 !
 ! A2    A(2,1,10)             110.0938         -DE/DX =    0.0                 !
 ! A3    A(2,1,11)             108.6625         -DE/DX =    0.0                 !
 ! A4    A(9,1,10)             109.4467         -DE/DX =    0.0                 !
 ! A5    A(9,1,11)             108.9649         -DE/DX =    0.0                 !
 ! A6    A(10,1,11)            109.1113         -DE/DX =    0.0                 !
 ! A7    A(1,2,3)              108.5244         -DE/DX =    0.0                 !
 ! A8    A(1,2,4)              108.9642         -DE/DX =    0.0                 !
 ! A9    A(1,2,5)              113.762          -DE/DX =    0.0                 !
 ! A10   A(3,2,4)              109.3142         -DE/DX =    0.0                 !
 ! A11   A(3,2,5)              107.6805         -DE/DX =    0.0                 !
 ! A12   A(4,2,5)              108.5234         -DE/DX =    0.0                 !
 ! A13   A(2,5,6)              107.8497         -DE/DX =    0.0                 !
 ! A14   A(2,5,7)              106.9664         -DE/DX =    0.0                 !
 ! A15   A(2,5,8)               98.4969         -DE/DX =    0.0                 !
 ! A16   A(6,5,7)              123.8            -DE/DX =    0.0                 !
 ! A17   A(6,5,8)              107.402          -DE/DX =    0.0                 !
 ! A18   A(7,5,8)              109.396          -DE/DX =    0.0                 !
 ! A19   A(5,8,12)             110.2865         -DE/DX =    0.0                 !
 ! D1    D(9,1,2,3)             53.4076         -DE/DX =    0.0                 !
 ! D2    D(9,1,2,4)            172.3534         -DE/DX =    0.0                 !
 ! D3    D(9,1,2,5)            -66.4265         -DE/DX =    0.0                 !
 ! D4    D(10,1,2,3)           174.4427         -DE/DX =    0.0                 !
 ! D5    D(10,1,2,4)           -66.6116         -DE/DX =    0.0                 !
 ! D6    D(10,1,2,5)            54.6085         -DE/DX =    0.0                 !
 ! D7    D(11,1,2,3)           -66.1161         -DE/DX =    0.0                 !
 ! D8    D(11,1,2,4)            52.8297         -DE/DX =    0.0                 !
 ! D9    D(11,1,2,5)           174.0498         -DE/DX =    0.0                 !
 ! D10   D(1,2,5,6)            -75.8088         -DE/DX =    0.0                 !
 ! D11   D(1,2,5,7)             59.3666         -DE/DX =    0.0                 !
 ! D12   D(1,2,5,8)            172.7348         -DE/DX =    0.0                 !
 ! D13   D(3,2,5,6)            163.8807         -DE/DX =    0.0                 !
 ! D14   D(3,2,5,7)            -60.9439         -DE/DX =    0.0                 !
 ! D15   D(3,2,5,8)             52.4243         -DE/DX =    0.0                 !
 ! D16   D(4,2,5,6)             45.657          -DE/DX =    0.0                 !
 ! D17   D(4,2,5,7)           -179.1677         -DE/DX =    0.0                 !
 ! D18   D(4,2,5,8)            -65.7995         -DE/DX =    0.0                 !
 ! D19   D(2,5,8,12)           -88.6828         -DE/DX =    0.0                 !
 ! D20   D(6,5,8,12)           159.5022         -DE/DX =    0.0                 !
 ! D21   D(7,5,8,12)            22.7494         -DE/DX =    0.0                 !
 --------------------------------------------------------------------------------
 GradGradGradGradGradGradGradGradGradGradGradGradGradGradGradGradGradGrad

 Leave Link  103 at Sat May 24 02:51:55 2025, MaxMem=  3758096384 cpu:               0.1 elap:               0.0
 (Enter /apps/easybuild-2022/easybuild/software/Compiler/NVHPC/22.11-CUDA-11.7.0/Gaussian/g16c01-CUDA-11.7.0/g16/l9999.exe)

 ----------------------------------------------------------------------

 Electric dipole moment (input orientation):
 (Debye = 10**-18 statcoulomb cm , SI units = C m)
                  (au)            (Debye)         (10**-30 SI)
   Tot        0.108750D+01      0.276414D+01      0.922019D+01
   x         -0.157203D+00     -0.399571D+00     -0.133282D+01
   y          0.807725D+00      0.205303D+01      0.684817D+01
   z         -0.710999D+00     -0.180718D+01     -0.602810D+01

 Dipole polarizability, Alpha (input orientation).
 (esu units = cm**3 , SI units = C**2 m**2 J**-1)
 Alpha(0;0):
               (au)            (10**-24 esu)      (10**-40 SI)
   iso        0.534890D+02      0.792625D+01      0.881915D+01
   aniso      0.569365D+01      0.843712D+00      0.938756D+00
   xx         0.560579D+02      0.830692D+01      0.924270D+01
   yx         0.211036D+01      0.312723D+00      0.347951D+00
   yy         0.511963D+02      0.758651D+01      0.844113D+01
   zx        -0.186483D+00     -0.276339D-01     -0.307469D-01
   zy        -0.592831D+00     -0.878484D-01     -0.977446D-01
   zz         0.532128D+02      0.788533D+01      0.877361D+01

 ----------------------------------------------------------------------

 Dipole orientation:
     6         -2.19784297          1.35299926         -0.99845579
     6         -0.76651716         -0.48406575          0.76501616
     9         -0.95131678          0.37222337          3.13854136
     9         -1.83126276         -2.75591507          0.61559973
    16          2.62041109         -0.79774696          0.01422367
     8          2.83776319         -2.33045914         -2.15666685
     8          3.69907912          1.64822692          0.22760292
     8          3.43687402         -2.44295796          2.34860396
     9         -1.39058739          3.69205683         -0.66738863
     9         -1.86453469          0.68738142         -3.38523922
     9         -4.63992765          1.24963816         -0.45165762
     1          3.90397976         -1.36553861          3.75178079

 Electric dipole moment (dipole orientation):
 (Debye = 10**-18 statcoulomb cm , SI units = C m)
                  (au)            (Debye)         (10**-30 SI)
   Tot        0.108750D+01      0.276414D+01      0.922019D+01
   x          0.000000D+00      0.000000D+00      0.000000D+00
   y          0.000000D+00      0.000000D+00      0.000000D+00
   z          0.108750D+01      0.276414D+01      0.922019D+01

 Dipole polarizability, Alpha (dipole orientation).
 (esu units = cm**3 , SI units = C**2 m**2 J**-1)
 Alpha(0;0):
               (au)            (10**-24 esu)      (10**-40 SI)
   iso        0.534890D+02      0.792625D+01      0.881915D+01
   aniso      0.569365D+01      0.843712D+00      0.938756D+00
   xx         0.563129D+02      0.834471D+01      0.928474D+01
   yx        -0.138617D+01     -0.205410D+00     -0.228549D+00
   yy         0.519070D+02      0.769182D+01      0.855830D+01
   zx         0.122982D+01      0.182240D+00      0.202770D+00
   zy         0.116719D+01      0.172959D+00      0.192443D+00
   zz         0.522472D+02      0.774223D+01      0.861440D+01

 ----------------------------------------------------------------------
 Unable to Open any file for archive entry.
 1\1\GINC-SPARTAN-BM179\Freq\RM062X\def2TZVPP\C2H1F5O3S1\AKHALILOV\24-M
 ay-2025\0\\#P Geom=AllCheck Guess=TCheck SCRF=Check GenChk RM062X/def2
 TZVPP Freq\\Gaussian input prepared by ASE\\0,1\C,-1.1184579652,-0.945
 0862196,-0.018219099\C,-0.4423883088,0.4450580103,-0.0157829385\F,-0.7
 499253348,1.0696199649,-1.159376824\F,-0.909229601,1.1509403866,1.0102
 851049\S,1.3954593905,0.376946833,0.1081761032\O,1.7277426049,0.071693
 277,1.4450346847\O,1.8587001593,-0.3647239218,-1.0095241331\O,1.700005
 9307,1.9026979572,-0.115278548\F,-0.8023572011,-1.6121203345,-1.113852
 0742\F,-0.7388627975,-1.6369991329,1.0436602635\F,-2.4327014946,-0.777
 6191923,0.0200363665\H,1.7997136175,2.0902873721,-1.0599389059\\Versio
 n=ES64L-G16RevC.01\HF=-1199.9406752\RMSD=1.388e-09\RMSF=4.641e-06\Zero
 Point=0.05313\Thermal=0.06346\ETot=-1199.8772152\HTot=-1199.876271\GTo
 t=-1199.924898\Dipole=-0.1572032,0.8077246,-0.7109992\DipoleDeriv=1.64
 62516,-0.0957706,0.0063287,0.2139726,1.421925,0.0099714,0.0026419,-0.0
 046416,1.5467626,0.8202278,-0.1928515,-0.0261051,-0.3338378,0.689728,0
 .0072036,-0.0269846,0.0070486,1.0930806,-0.4308009,0.0680758,-0.182222
 1,0.1077293,-0.4046717,0.2931327,-0.208433,0.2078681,-0.665413,-0.4742
 52,0.1236556,0.2159154,0.1747888,-0.4307498,-0.2878182,0.2254175,-0.20
 37236,-0.5544709,1.8872991,0.1362993,-0.0351682,0.0599115,2.2042591,-0
 .0992008,-0.0355714,-0.02014,2.0999953,-0.7042221,0.0204991,-0.1641599
 ,0.0405172,-0.5193026,0.0669576,-0.2534387,0.1304042,-0.9836631,-0.755
 6724,0.1097623,0.170364,0.1266526,-0.7103096,-0.1492504,0.2480344,-0.2
 695395,-0.8556979,-0.6400858,-0.2189004,0.0553325,-0.3546204,-1.266795
 4,0.2257355,0.1167296,0.2908207,-0.488054,-0.3196765,0.0041079,0.07143
 18,0.0018567,-0.4928213,-0.2874375,0.0899787,-0.2340284,-0.6419299,-0.
 341236,0.0178094,-0.0932932,0.0241498,-0.5020532,0.2882354,-0.1162181,
 0.2312654,-0.6131216,-1.0365356,-0.001126,0.0126457,-0.0896315,-0.3469
 206,-0.0024904,0.0201163,0.0004736,-0.2609882,0.3487028,0.0284391,-0.0
 310696,0.0285113,0.3577121,-0.0650387,-0.0622724,-0.1358077,0.3235\Pol
 ar=56.0579062,2.1103607,51.1962939,-0.1864829,-0.5928305,53.2128175\PG
 =Unknown\NImag=0\\0.59554802,0.01084701,0.61847126,-0.00022055,0.00226
 150,0.60857841,-0.09224160,-0.03906512,-0.00244344,0.47079476,-0.07976
 030,-0.16705210,-0.00100075,-0.02017753,0.57186238,-0.00076501,0.00217
 027,-0.03930424,-0.01267209,0.00452655,0.55261597,0.00320163,-0.004487
 45,0.00574568,-0.08985485,0.03767321,-0.05889860,0.08349546,0.01993164
 ,-0.01497561,0.04088805,0.03178727,-0.14668231,0.10201593,-0.04126140,
 0.15140351,-0.01051055,0.00920779,-0.02574147,-0.05242469,0.11545661,-
 0.22557231,0.07009538,-0.14287367,0.33429630,0.00085334,-0.00387956,-0
 .00116617,-0.11039844,0.06415005,0.07623359,0.01347449,-0.00641705,0.0
 0136952,0.11031129,0.02499254,-0.01774161,-0.03975521,0.05368197,-0.16
 989084,-0.10789231,-0.00671890,0.02245380,0.00269093,-0.07267373,0.178
 29309,0.01125571,-0.01107492,-0.02010642,0.07120242,-0.12020037,-0.202
 55037,0.01288296,-0.01116833,-0.07626596,-0.10123788,0.15587948,0.2990
 9602,-0.01497943,-0.03595407,-0.00230327,-0.16668605,0.02268365,-0.011
 41083,-0.00204910,-0.00365993,0.00135259,-0.00573254,0.00035745,0.0018
 2726,0.57471451,-0.03390130,0.02085353,-0.00148809,-0.02467293,-0.0482
 1515,-0.00234847,0.02074171,-0.00997609,0.01540142,0.02728007,-0.01025
 734,-0.01196416,-0.09063491,0.71075630,-0.00125888,-0.00170019,0.02489
 094,-0.00697785,0.00162724,-0.02642441,-0.03299543,0.01565132,-0.02762
 601,0.03199248,-0.01517363,-0.01924963,-0.01434030,0.07052643,1.313593
 83,0.00119798,0.00761654,0.00257718,0.01459135,0.00048527,-0.02009681,
 -0.01105687,0.00465925,-0.00879974,-0.00145804,0.00068589,0.00096500,-
 0.13985956,0.03739728,-0.15720126,0.10192238,0.00447885,-0.00606451,0.
 00317827,0.00136954,0.00707188,0.00330617,0.00072116,0.00068925,0.0006
 5072,-0.00202278,0.00161177,0.00149559,0.03294038,-0.11081064,0.122725
 49,-0.03970781,0.10487267,-0.00109239,0.00761094,-0.00746806,0.0171736
 3,-0.00349846,-0.01380128,-0.00601353,0.00103757,-0.00170578,-0.004536
 21,0.00364058,0.00860220,-0.15023692,0.12435609,-0.66868314,0.16120791
 ,-0.14906527,0.70268186,0.00277981,0.00692491,-0.00245674,0.01545552,0
 .00935487,0.02206849,-0.00236965,0.00144318,-0.00373602,-0.01352757,0.
 00492435,0.00627913,-0.17263105,0.11214512,0.16696842,0.02339898,-0.00
 173024,-0.01200651,0.13513928,0.00600924,-0.00862695,-0.00355668,-0.00
 389998,0.00432443,-0.00811878,-0.00041920,0.00124944,0.00046908,0.0028
 4472,0.00031721,-0.00102434,0.10584182,-0.25349261,-0.24770344,0.00138
 337,0.01563820,0.01264987,-0.12221447,0.26131700,0.00142033,-0.0061168
 1,-0.00727352,-0.01304564,-0.00219942,-0.00994884,0.00429941,-0.002583
 22,0.00884093,0.00448061,-0.00039509,0.00036726,0.16070534,-0.24374058
 ,-0.47192203,0.01673101,-0.02372826,-0.01637295,-0.17588163,0.28107848
 ,0.48203042,-0.00300745,0.01200071,-0.00031846,-0.00187553,-0.03210833
 ,0.00213027,-0.00051328,-0.00153718,0.00027239,-0.00039663,0.00176192,
 0.00167518,-0.08078877,-0.05039094,0.00815764,0.01267648,0.00498747,-0
 .00225251,0.01861373,0.01283214,0.00048098,0.06830853,0.00227795,0.006
 69753,-0.00038462,0.01080916,-0.02803778,0.00683510,-0.00165609,0.0067
 4785,-0.00559042,-0.00510725,0.00628351,0.00390542,-0.04497197,-0.2675
 8290,0.00740173,-0.00533965,-0.01026566,0.00645341,-0.00622771,-0.0313
 0776,-0.00167606,0.07141330,0.36669612,-0.00006660,-0.00230064,-0.0028
 1398,-0.00263712,0.00851384,0.00007042,0.00215176,-0.00499161,0.005508
 10,-0.00160780,0.00100427,0.00186314,0.01242258,0.03802412,-0.09968854
 ,0.00555742,0.04635602,-0.01478850,-0.00256583,-0.03041761,0.01004018,
 -0.06262092,-0.11671592,0.58593754,-0.08595524,0.02070870,0.03622485,0
 .00946191,-0.00139911,-0.00599487,0.00028615,-0.00134795,0.00070108,0.
 00042940,-0.00415649,-0.00169432,-0.00159071,0.00504043,0.00416000,0.0
 0035957,-0.00044197,-0.00084712,-0.00215106,-0.00347412,-0.00218858,0.
 00079917,-0.00080132,-0.00035149,0.10275479,0.01843824,-0.17135700,-0.
 11232946,0.01091225,-0.01237844,-0.03777568,-0.00052917,-0.00020620,0.
 00089603,-0.00298352,-0.01197343,-0.00443312,0.00710253,-0.00403854,-0
 .00150575,-0.00177461,0.00084305,-0.00063805,-0.00284036,0.00223431,0.
 00216640,-0.00221172,-0.00086568,0.00065671,-0.05045361,0.17274773,0.0
 3288108,-0.12017916,-0.23368510,0.00733169,-0.00773889,-0.02094475,-0.
 00001829,-0.00093132,0.00676291,-0.00249497,-0.00507407,-0.00005827,0.
 00518831,-0.00297780,-0.00724505,-0.00158021,-0.00014695,0.00172751,-0
 .00065228,0.00265066,0.00410534,-0.00147913,-0.00047795,0.00117011,-0.
 07535300,0.16013723,0.34355748,-0.08971534,0.02799154,-0.04198354,0.00
 864764,-0.00184767,0.00505323,0.00045465,-0.00365501,0.00183867,0.0004
 7746,-0.00151915,-0.00077206,-0.00060876,0.00489611,-0.00416924,-0.001
 58706,-0.00284265,0.00182641,0.00011690,-0.00056716,0.00067331,0.00070
 086,-0.00065716,0.00055138,0.01398211,-0.00260307,-0.00063455,0.110188
 53,0.02510239,-0.17718533,0.11197812,0.01401523,-0.01245604,0.03851281
 ,-0.00412652,-0.01230735,0.00511871,-0.00063210,-0.00041507,-0.0023478
 7,0.00637137,-0.00378728,0.00174178,-0.00298265,0.00098754,-0.00242959
 ,-0.00188058,0.00146735,0.00055038,-0.00183815,-0.00048752,-0.00006884
 ,-0.00284692,0.02396294,-0.00746915,-0.05983021,0.17946720,-0.03938909
 ,0.11837480,-0.22154955,-0.00854573,0.00845311,-0.01871706,0.00268588,
 0.00490967,-0.00001203,-0.00000212,0.00296723,0.00564758,-0.00357794,0
 .00282486,-0.00820295,0.00011955,-0.00224814,0.00434272,0.00144284,0.0
 0011880,0.00172400,0.00119645,0.00006939,0.00095889,-0.00551099,0.0102
 0122,-0.08460593,0.08559946,-0.16061704,0.32529254,-0.31729826,-0.0024
 7724,0.00627830,-0.05781106,0.00565744,0.00043230,0.00491781,-0.002495
 13,0.00250039,0.00583086,-0.00137112,-0.00158920,0.01103571,-0.0022720
 6,0.00080176,-0.00247332,0.00025686,-0.00198685,-0.00217761,0.00035203
 ,0.00094137,-0.00393301,-0.00457493,0.00134236,-0.03838159,0.02676262,
 0.03682751,-0.04271894,0.02823071,-0.03377755,0.44320187,0.00248525,-0
 .08277334,-0.00044189,-0.03311526,0.00238733,-0.00077423,0.00015343,0.
 00148044,-0.00073018,-0.00177735,0.00157826,0.00145194,0.00763082,-0.0
 0656886,0.00047004,-0.00173655,0.00152879,-0.00185966,-0.00145568,0.00
 204601,0.00149070,-0.00310485,-0.00163699,0.00059104,0.03887497,0.0010
 0194,-0.01758381,0.04054335,0.00062333,0.01514071,-0.04849052,0.080275
 84,0.00756516,0.00009200,-0.07577655,0.00186224,-0.00084124,0.00282167
 ,0.00091636,-0.00243425,0.00300655,-0.00257449,0.00198159,0.00266665,-
 0.00009585,0.00020393,-0.00261628,-0.00012420,-0.00033747,0.00095708,0
 .00021173,0.00039934,0.00084719,0.00016066,0.00012725,0.00040049,0.050
 91743,-0.01700337,-0.01044583,-0.04790098,0.01519644,-0.00484371,-0.01
 088421,0.00270304,0.08301312,-0.00038344,-0.00022597,0.00006615,-0.000
 08365,-0.00471155,0.00392032,0.00001356,0.00255231,-0.00265903,0.00013
 638,0.00003525,-0.00079418,-0.00082425,-0.00562860,0.00486267,0.002288
 12,0.00199119,-0.00123592,-0.00264729,0.00131161,0.00138347,-0.0105841
 0,-0.01516434,0.04782427,0.00000551,0.00018042,-0.00001617,0.00006196,
 0.00041742,-0.00024075,-0.00019245,-0.00000761,-0.00005386,0.01220966,
 -0.00090152,-0.00024586,0.00065076,-0.00164460,-0.00093335,-0.00045737
 ,-0.00009077,0.00012326,-0.00069701,0.00121850,-0.00025936,-0.00051931
 ,-0.00770714,-0.01688042,0.04593898,-0.00068633,-0.00610235,0.00174255
 ,0.00155662,0.00483336,-0.00484652,-0.01180438,-0.04624072,0.05934862,
 0.00029737,0.00002932,-0.00020879,0.00009106,0.00013023,-0.00019461,0.
 00042134,0.00005722,-0.00008728,0.01924985,0.06548866,0.00018078,0.001
 65441,0.00024954,0.00117657,-0.00309821,0.00175521,-0.00085158,0.00047
 983,-0.00149123,-0.00045655,0.00012622,-0.00001220,0.00046904,0.011182
 26,-0.00682674,0.00064416,-0.00218615,0.00450834,0.00032839,-0.0065453
 7,-0.00243798,0.05259744,0.10005267,-0.48865784,-0.00006297,-0.0003721
 6,-0.00033841,-0.00008212,-0.00016576,-0.00003450,-0.00088618,-0.00045
 771,-0.00003036,-0.05305698,-0.10067001,0.49331617\\-0.00000136,-0.000
 00043,-0.00000025,-0.00000250,0.00000801,-0.00000477,0.00000557,0.0000
 0015,-0.00000327,-0.00000217,0.00000500,-0.00000716,0.00000083,-0.0000
 0252,0.00000105,-0.00000669,-0.00000210,0.00001096,0.00000090,-0.00000
 542,0.00000581,0.00000623,-0.00000489,0.00000032,0.00000151,-0.0000009
 5,-0.00000052,-0.00000829,0.00000489,0.00000164,-0.00000217,0.00000339
 ,-0.00000631,0.00000813,-0.00000514,0.00000249\\\@
 The archive entry for this job was punched.


 CONTRAIWISE...CONTINUED TWEEDLEDEE, IF IT WAS SO, IT MIGHT BE,
 AND IF IT WERE SO, IT WOULD BE.....
 BUT AS IT ISN'T, IT AIN'T....
 THAT'S LOGIC.....
 ALICE THROUGH THE LOOKING GLASS
 Job cpu time:       0 days  0 hours 33 minutes 22.0 seconds.
 Elapsed time:       0 days  0 hours  4 minutes 19.2 seconds.
 File lengths (MBytes):  RWF=    164 Int=      0 D2E=      0 Chk=     11 Scr=      1
 Normal termination of Gaussian 16 at Sat May 24 02:51:55 2025.
done
