 Entering Gaussian System, Link 0=g16
 Initial command:
 /apps/easybuild-2022/easybuild/software/Compiler/NVHPC/22.11-CUDA-11.7.0/Gaussian/g16c01-CUDA-11.7.0/g16/l1.exe "/tmp/Gau-246729.inp" -scrdir="/tmp/"
 Entering Link 1 = /apps/easybuild-2022/easybuild/software/Compiler/NVHPC/22.11-CUDA-11.7.0/Gaussian/g16c01-CUDA-11.7.0/g16/l1.exe PID=    246732.
  
 Copyright (c) 1988-2019, Gaussian, Inc.  All Rights Reserved.
  
 This is part of the Gaussian(R) 16 program.  It is based on
 the Gaussian(R) 09 system (copyright 2009, Gaussian, Inc.),
 the Gaussian(R) 03 system (copyright 2003, Gaussian, Inc.),
 the Gaussian(R) 98 system (copyright 1998, Gaussian, Inc.),
 the Gaussian(R) 94 system (copyright 1995, Gaussian, Inc.),
 the Gaussian 92(TM) system (copyright 1992, Gaussian, Inc.),
 the Gaussian 90(TM) system (copyright 1990, Gaussian, Inc.),
 the Gaussian 88(TM) system (copyright 1988, Gaussian, Inc.),
 the Gaussian 86(TM) system (copyright 1986, Carnegie Mellon
 University), and the Gaussian 82(TM) system (copyright 1983,
 Carnegie Mellon University). Gaussian is a federally registered
 trademark of Gaussian, Inc.
  
 This software contains proprietary and confidential information,
 including trade secrets, belonging to Gaussian, Inc.
  
 This software is provided under written license and may be
 used, copied, transmitted, or stored only in accord with that
 written license.
  
 The following legend is applicable only to US Government
 contracts under FAR:
  
                    RESTRICTED RIGHTS LEGEND
  
 Use, reproduction and disclosure by the US Government is
 subject to restrictions as set forth in subparagraphs (a)
 and (c) of the Commercial Computer Software - Restricted
 Rights clause in FAR 52.227-19.
  
 Gaussian, Inc.
 340 Quinnipiac St., Bldg. 40, Wallingford CT 06492
  
  
 ---------------------------------------------------------------
 Warning -- This program may not be used in any manner that
 competes with the business of Gaussian, Inc. or will provide
 assistance to any competitor of Gaussian, Inc.  The licensee
 of this program is prohibited from giving any competitor of
 Gaussian, Inc. access to this program.  By using this program,
 the user acknowledges that Gaussian, Inc. is engaged in the
 business of creating and licensing software in the field of
 computational chemistry and represents and warrants to the
 licensee that it is not a competitor of Gaussian, Inc. and that
 it will not use this program in any manner prohibited above.
 ---------------------------------------------------------------
  

 Cite this work as:
 Gaussian 16, Revision C.01,
 M. J. Frisch, G. W. Trucks, H. B. Schlegel, G. E. Scuseria, 
 M. A. Robb, J. R. Cheeseman, G. Scalmani, V. Barone, 
 G. A. Petersson, H. Nakatsuji, X. Li, M. Caricato, A. V. Marenich, 
 J. Bloino, B. G. Janesko, R. Gomperts, B. Mennucci, H. P. Hratchian, 
 J. V. Ortiz, A. F. Izmaylov, J. L. Sonnenberg, D. Williams-Young, 
 F. Ding, F. Lipparini, F. Egidi, J. Goings, B. Peng, A. Petrone, 
 T. Henderson, D. Ranasinghe, V. G. Zakrzewski, J. Gao, N. Rega, 
 G. Zheng, W. Liang, M. Hada, M. Ehara, K. Toyota, R. Fukuda, 
 J. Hasegawa, M. Ishida, T. Nakajima, Y. Honda, O. Kitao, H. Nakai, 
 T. Vreven, K. Throssell, J. A. Montgomery, Jr., J. E. Peralta, 
 F. Ogliaro, M. J. Bearpark, J. J. Heyd, E. N. Brothers, K. N. Kudin, 
 V. N. Staroverov, T. A. Keith, R. Kobayashi, J. Normand, 
 K. Raghavachari, A. P. Rendell, J. C. Burant, S. S. Iyengar, 
 J. Tomasi, M. Cossi, J. M. Millam, M. Klene, C. Adamo, R. Cammi, 
 J. W. Ochterski, R. L. Martin, K. Morokuma, O. Farkas, 
 J. B. Foresman, and D. J. Fox, Gaussian, Inc., Wallingford CT, 2019.
 
 ******************************************
 Gaussian 16:  ES64L-G16RevC.01  3-Jul-2019
                24-May-2025 
 ******************************************
 %mem=28GB
 %chk=2003846667223680600001_r12_insertion_R_9_1_10_IRC_R
 %nprocshared=8
 Will use up to    8 processors via shared memory.
 ----------------------------------------------------------------------
 #P M062X/Def2TZVPP Symm(None) scf(xqc) pop(None) geom(AllCheck,NoKeepC
 onstants) guess(Read) irc(RCFC,reverse,MaxPoints=100,StepSize=2)
 ----------------------------------------------------------------------
 1/10=5,18=10,22=2,26=3,29=20007,38=1,39=2,42=100,44=3,172=1/1,23;
 2/12=2,15=3,29=1,40=1/2;
 3/5=44,7=202,11=2,14=-4,25=1,30=1,71=2,74=-55,116=-2,140=1/1,2,3;
 4/5=1/1;
 5/5=2,8=3,13=1,38=6/2,8;
 8/6=4,10=90,11=11/1;
 11/6=1,8=1,9=11,15=111,16=1,31=1/1,2,10;
 10/6=1,13=1,31=1/2;
 7/10=1,25=1,30=1/1,2,3,16;
 1/18=10,22=2,26=3,39=2,42=100,44=3/23(2);
 2/15=3,29=1/2;
 99/5=20/99;
 2/15=3,29=1/2;
 3/5=44,7=202,11=2,14=-2,25=1,30=1,71=2,74=-55,140=1/1,2,3;
 4/5=5,16=3,69=1/1;
 5/5=2,8=3,13=1,38=5/2,8;
 8/6=4,10=90,11=11/1;
 11/6=1,8=1,9=11,15=111,16=1,31=1/1,2,10;
 10/6=1,13=1,31=1/2;
 7/10=1,25=1,30=1/1,2,3,16;
 1/18=10,22=2,26=3,39=2,42=100,44=3/23(-8);
 2/15=3,29=1/2;
 99/5=20,9=1/99;
 Leave Link    1 at Sat May 24 04:42:04 2025, MaxMem=  3758096384 cpu:               0.0 elap:               0.1
 (Enter /apps/easybuild-2022/easybuild/software/Compiler/NVHPC/22.11-CUDA-11.7.0/Gaussian/g16c01-CUDA-11.7.0/g16/l101.exe)
 Structure from the checkpoint file:  "2003846667223680600001_r12_insertion_R_9_1_10_IRC_R.chk"
 ------------------------------
 Gaussian input prepared by ASE
 ------------------------------
 Charge =  0 Multiplicity = 1
 Redundant internal coordinates found in file.  (old form).
 C,0,-0.6374619163,-1.2149738783,0.0784214126
 C,0,-0.0361855173,0.1532125792,0.5138397452
 F,0,-0.6884131351,1.0778576542,-0.1882822699
 F,0,-0.227007144,0.3927046682,1.7918053636
 S,0,1.6836841883,-0.191055034,-0.0811201319
 O,0,2.8961631384,0.0075717469,0.6407172711
 O,0,1.3127054437,-1.1993347385,-1.0676858463
 O,0,1.7067946636,1.1192264071,-1.03844762
 F,0,-1.0525305175,-2.0957849695,0.8607666818
 F,0,1.203022119,-1.5224672612,1.2177958601
 F,0,-1.1774487504,-1.3023622826,-1.0556190121
 H,0,2.4646164277,1.6550041085,-0.7779844541
 Recover connectivity data from disk.
 ITRead=  0  0  0  0  0  0  0  0  0  0  0  0
 MicOpt= -1 -1 -1 -1 -1 -1 -1 -1 -1 -1 -1 -1
 NAtoms=     12 NQM=       12 NQMF=       0 NMMI=      0 NMMIF=      0
                NMic=       0 NMicF=      0.
                    Isotopes and Nuclear Properties:
 (Nuclear quadrupole moments (NQMom) in fm**2, nuclear magnetic moments (NMagM)
  in nuclear magnetons)

  Atom         1           2           3           4           5           6           7           8           9          10
 IAtWgt=          12          12          19          19          32          16          16          16          19          19
 AtmWgt=  12.0000000  12.0000000  18.9984032  18.9984032  31.9720718  15.9949146  15.9949146  15.9949146  18.9984032  18.9984032
 NucSpn=           0           0           1           1           0           0           0           0           1           1
 AtZEff=   3.6000000   3.6000000   6.7500000   6.7500000  13.6000000   5.6000000   5.6000000   5.6000000   6.7500000   6.7500000
 NQMom=    0.0000000   0.0000000   0.0000000   0.0000000   0.0000000   0.0000000   0.0000000   0.0000000   0.0000000   0.0000000
 NMagM=    0.0000000   0.0000000   2.6288670   2.6288670   0.0000000   0.0000000   0.0000000   0.0000000   2.6288670   2.6288670
 AtZNuc=   6.0000000   6.0000000   9.0000000   9.0000000  16.0000000   8.0000000   8.0000000   8.0000000   9.0000000   9.0000000

  Atom        11          12
 IAtWgt=          19           1
 AtmWgt=  18.9984032   1.0078250
 NucSpn=           1           1
 AtZEff=   6.7500000   1.0000000
 NQMom=    0.0000000   0.0000000
 NMagM=    2.6288670   2.7928460
 AtZNuc=   9.0000000   1.0000000
 Leave Link  101 at Sat May 24 04:42:04 2025, MaxMem=  3758096384 cpu:               0.2 elap:               0.2
 (Enter /apps/easybuild-2022/easybuild/software/Compiler/NVHPC/22.11-CUDA-11.7.0/Gaussian/g16c01-CUDA-11.7.0/g16/l123.exe)
 IRC-IRC-IRC-IRC-IRC-IRC-IRC-IRC-IRC-IRC-IRC-IRC-IRC-IRC-IRC-IRC-IRC-IRC
 ------------------------------------------------------------------------
 INPUT DATA FOR L123
 ------------------------------------------------------------------------
 GENERAL PARAMETERS:
 Rxn path following direction = Reverse
 Maximum points per path      = 100
 Step size                    =   0.020 bohr
 Integration scheme           = HPC                                 
    Redo corrector integration= Yes                                 
    DWI Weight Power          =  2
    DWI will use Hessian update vectors when possible.
    Max correction cycles     =  20
 Initial Hessian              = ReadFC from chk
 Hessian evaluation           = All updating
 Hessian updating method      = Bofill                              
 ------------------------------------------------------------------------
          ******** Start new reaction path calculation ********
 RCFC Option Requested - Data Read From Chk File:
 "2003846667223680600001_r12_insertion_R_9_1_10_IRC_R.chk"
   Energy From Chk =  -1199.7640999

 Current Structure is TS -> form Hessian eigenvectors.
                            Recovering Hessian eigenvectors from chk file.
 Supplied step size of   0.0200 bohr.
    Integration on MW PES will use step size of   0.0792 sqrt(amu)*bohr.
 Point Number:   0          Path Number:   1
 Calculating another point on the path.
 Point Number  1 in REVERSE path direction.
 Using LQA Reaction Path Following.
 IRC-IRC-IRC-IRC-IRC-IRC-IRC-IRC-IRC-IRC-IRC-IRC-IRC-IRC-IRC-IRC-IRC-IRC
 Leave Link  123 at Sat May 24 04:42:04 2025, MaxMem=  3758096384 cpu:               0.0 elap:               0.0
 (Enter /apps/easybuild-2022/easybuild/software/Compiler/NVHPC/22.11-CUDA-11.7.0/Gaussian/g16c01-CUDA-11.7.0/g16/l202.exe)
                          Input orientation:                          
 ---------------------------------------------------------------------
 Center     Atomic      Atomic             Coordinates (Angstroms)
 Number     Number       Type             X           Y           Z
 ---------------------------------------------------------------------
      1          6           0       -1.169178   -0.795542   -0.069257
      2          6           0       -0.565704    0.572408    0.362920
      3          9           0       -1.218470    1.496943   -0.339230
      4          9           0       -0.755929    0.812610    1.640904
      5         16           0        1.154478    0.229067   -0.234308
      6          8           0        2.365006    0.427140    0.490776
      7          8           0        0.787670   -0.778618   -1.221012
      8          8           0        1.177063    1.540514   -1.189194
      9          9           0       -1.585489   -1.676067    0.711945
     10          9           0        0.669907   -1.105197    1.065509
     11          9           0       -1.704879   -0.884096   -1.205149
     12          1           0        1.933576    2.077254   -0.926887
 ---------------------------------------------------------------------
                    Distance matrix (angstroms):
                    1          2          3          4          5
     1  C    0.000000
     2  C    1.556356   0.000000
     3  F    2.308853   1.331872   0.000000
     4  F    2.383606   1.314202   2.145503   0.000000
     5  S    2.544886   1.852995   2.692471   2.739817   0.000000
     6  O    3.781408   2.937093   3.830756   3.348375   1.424906
     7  O    2.270700   2.483089   3.159164   3.620120   1.457245
     8  O    3.495177   2.526564   2.542227   3.503677   1.622409
     9  F    1.248565   2.493475   3.362687   2.782921   3.468767
    10  F    2.183074   2.198801   3.508617   2.458063   1.924732
    11  F    1.258995   2.424451   2.579875   3.446641   3.218320
    12  H    4.314576   3.189759   3.258450   3.927634   2.121899
                    6          7          8          9         10
     6  O    0.000000
     7  O    2.621462   0.000000
     8  O    2.339467   2.351811   0.000000
     9  F    4.480938   3.189611   4.646764   0.000000
    10  F    2.356212   2.312725   3.512930   2.353234   0.000000
    11  F    4.599942   2.494830   3.766242   2.077672   3.293081
    12  H    2.217831   3.091216   0.963953   5.399722   3.961628
                   11         12
    11  F    0.000000
    12  H    4.699508   0.000000
 Symmetry turned off by external request.
 Stoichiometry    C2HF5O3S
 Rotational constants (GHZ):           1.4672010           0.9469770           0.8990689
 Leave Link  202 at Sat May 24 04:42:04 2025, MaxMem=  3758096384 cpu:               0.0 elap:               0.0
 (Enter /apps/easybuild-2022/easybuild/software/Compiler/NVHPC/22.11-CUDA-11.7.0/Gaussian/g16c01-CUDA-11.7.0/g16/l301.exe)
 Standard basis: def2TZVPP (5D, 7F)
 Ernie: Thresh=  0.10000D-02 Tol=  0.10000D-05 Strict=F.
   366 basis functions,   596 primitive gaussians,   423 cartesian basis functions
    49 alpha electrons       49 beta electrons
       nuclear repulsion energy       948.5512768567 Hartrees.
 IExCor= 4336 DFT=T Ex+Corr=M062X ExCW=0 ScaHFX=  0.540000
 ScaDFX=  1.000000  1.000000  1.000000  1.000000 ScalE2=  1.000000  1.000000
 IRadAn=      5 IRanWt=     -1 IRanGd=            0 ICorTp=0 IEmpDi=  4
 NAtoms=   12 NActive=   12 NUniq=   12 SFac= 1.00D+00 NAtFMM=   60 NAOKFM=F Big=F
 Integral buffers will be    131072 words long.
 Raffenetti 2 integral format.
 Two-electron integral symmetry is turned off.
 Leave Link  301 at Sat May 24 04:42:04 2025, MaxMem=  3758096384 cpu:               0.0 elap:               0.0
 (Enter /apps/easybuild-2022/easybuild/software/Compiler/NVHPC/22.11-CUDA-11.7.0/Gaussian/g16c01-CUDA-11.7.0/g16/l302.exe)
 NPDir=0 NMtPBC=     1 NCelOv=     1 NCel=       1 NClECP=     1 NCelD=      1
         NCelK=      1 NCelE2=     1 NClLst=     1 CellRange=     0.0.
 One-electron integrals computed using PRISM.
   1 Symmetry operations used in ECPInt.
 ECPInt:  NShTT=    8515 NPrTT=   27988 LenC2=    8055 LenP2D=   19634.
 LDataN:  DoStor=T MaxTD1= 6 Len=  172
 NBasis=   366 RedAO= T EigKep=  3.01D-04  NBF=   366
 NBsUse=   366 1.00D-06 EigRej= -1.00D+00 NBFU=   366
 Precomputing XC quadrature grid using
 IXCGrd= 4 IRadAn=           5 IRanWt=          -1 IRanGd=           0 AccXCQ= 0.00D+00.
 Generated NRdTot=       0 NPtTot=           0 NUsed=           0 NTot=          32
 NSgBfM=   420   420   420   420   420 MxSgAt=    12 MxSgA2=    12.
 Leave Link  302 at Sat May 24 04:42:04 2025, MaxMem=  3758096384 cpu:               0.7 elap:               0.2
 (Enter /apps/easybuild-2022/easybuild/software/Compiler/NVHPC/22.11-CUDA-11.7.0/Gaussian/g16c01-CUDA-11.7.0/g16/l303.exe)
 DipDrv:  MaxL=1.
 Leave Link  303 at Sat May 24 04:42:04 2025, MaxMem=  3758096384 cpu:               0.1 elap:               0.0
 (Enter /apps/easybuild-2022/easybuild/software/Compiler/NVHPC/22.11-CUDA-11.7.0/Gaussian/g16c01-CUDA-11.7.0/g16/l401.exe)
 Initial guess from the checkpoint file:  "2003846667223680600001_r12_insertion_R_9_1_10_IRC_R.chk"
 B after Tr=    -1.001293    0.792831   -0.285294
         Rot=    1.000000   -0.000013    0.000001   -0.000013 Ang=  -0.00 deg.
 Guess basis will be translated and rotated to current coordinates.
 JPrj=2 DoOrth=T DoCkMO=T.
 Leave Link  401 at Sat May 24 04:42:05 2025, MaxMem=  3758096384 cpu:               0.4 elap:               0.3
 (Enter /apps/easybuild-2022/easybuild/software/Compiler/NVHPC/22.11-CUDA-11.7.0/Gaussian/g16c01-CUDA-11.7.0/g16/l502.exe)
 Keep R1 ints in memory in canonical form, NReq=2293447020.
 FoFCou: FMM=F IPFlag=           0 FMFlag=           0 FMFlg1=           0
         NFxFlg=           0 DoJE=F BraDBF=F KetDBF=F FulRan=T
         wScrn=  0.000000 ICntrl=       600 IOpCl=  0 I1Cent=           0 NGrid=           0
         NMat0=    1 NMatS0=  67161 NMatT0=    0 NMatD0=    1 NMtDS0=    0 NMtDT0=    0
 Symmetry not used in FoFCou.
 Two-electron integral symmetry not used.
 Closed shell SCF:
 Using DIIS extrapolation, IDIIS=  1040.
 NGot=  3758096384 LenX=  1502398648 LenY=  1502219278
 Requested convergence on RMS density matrix=1.00D-08 within  32 cycles.
 Requested convergence on MAX density matrix=1.00D-06.
 Requested convergence on             energy=1.00D-06.
 No special actions if energy rises.

 Cycle   1  Pass 1  IDiag  1:
 E= -1199.76406422496    
 DIIS: error= 1.25D-04 at cycle   1 NSaved=   1.
 NSaved= 1 IEnMin= 1 EnMin= -1199.76406422496     IErMin= 1 ErrMin= 1.25D-04
 ErrMax= 1.25D-04  0.00D+00 EMaxC= 1.00D-01 BMatC= 2.76D-05 BMatP= 2.76D-05
 IDIUse=3 WtCom= 9.99D-01 WtEn= 1.25D-03
 Coeff-Com:  0.100D+01
 Coeff-En:   0.100D+01
 Coeff:      0.100D+01
 Gap=     0.261 Goal=   None    Shift=    0.000
 RMSDP=1.98D-05 MaxDP=5.26D-04              OVMax= 2.29D-03

 Cycle   2  Pass 1  IDiag  1:
 E= -1199.76410700904     Delta-E=       -0.000042784075 Rises=F Damp=F
 DIIS: error= 3.67D-05 at cycle   2 NSaved=   2.
 NSaved= 2 IEnMin= 2 EnMin= -1199.76410700904     IErMin= 2 ErrMin= 3.67D-05
 ErrMax= 3.67D-05  0.00D+00 EMaxC= 1.00D-01 BMatC= 2.03D-06 BMatP= 2.76D-05
 IDIUse=1 WtCom= 1.00D+00 WtEn= 0.00D+00
 Coeff-Com: -0.670D-01 0.107D+01
 Coeff:     -0.670D-01 0.107D+01
 Gap=     0.259 Goal=   None    Shift=    0.000
 RMSDP=7.31D-06 MaxDP=2.25D-04 DE=-4.28D-05 OVMax= 9.26D-04

 Cycle   3  Pass 1  IDiag  1:
 E= -1199.76411117968     Delta-E=       -0.000004170641 Rises=F Damp=F
 DIIS: error= 3.84D-05 at cycle   3 NSaved=   3.
 NSaved= 3 IEnMin= 3 EnMin= -1199.76411117968     IErMin= 2 ErrMin= 3.67D-05
 ErrMax= 3.84D-05  0.00D+00 EMaxC= 1.00D-01 BMatC= 1.33D-06 BMatP= 2.03D-06
 IDIUse=1 WtCom= 1.00D+00 WtEn= 0.00D+00
 Coeff-Com: -0.771D-01 0.495D+00 0.582D+00
 Coeff:     -0.771D-01 0.495D+00 0.582D+00
 Gap=     0.259 Goal=   None    Shift=    0.000
 RMSDP=3.17D-06 MaxDP=1.66D-04 DE=-4.17D-06 OVMax= 5.29D-04

 Cycle   4  Pass 1  IDiag  1:
 E= -1199.76411250646     Delta-E=       -0.000001326780 Rises=F Damp=F
 DIIS: error= 1.33D-05 at cycle   4 NSaved=   4.
 NSaved= 4 IEnMin= 4 EnMin= -1199.76411250646     IErMin= 4 ErrMin= 1.33D-05
 ErrMax= 1.33D-05  0.00D+00 EMaxC= 1.00D-01 BMatC= 2.97D-07 BMatP= 1.33D-06
 IDIUse=1 WtCom= 1.00D+00 WtEn= 0.00D+00
 Coeff-Com: -0.649D-02-0.948D-01 0.277D+00 0.825D+00
 Coeff:     -0.649D-02-0.948D-01 0.277D+00 0.825D+00
 Gap=     0.259 Goal=   None    Shift=    0.000
 RMSDP=2.03D-06 MaxDP=7.03D-05 DE=-1.33D-06 OVMax= 3.04D-04

 Cycle   5  Pass 1  IDiag  1:
 E= -1199.76411296859     Delta-E=       -0.000000462135 Rises=F Damp=F
 DIIS: error= 6.49D-06 at cycle   5 NSaved=   5.
 NSaved= 5 IEnMin= 5 EnMin= -1199.76411296859     IErMin= 5 ErrMin= 6.49D-06
 ErrMax= 6.49D-06  0.00D+00 EMaxC= 1.00D-01 BMatC= 3.29D-08 BMatP= 2.97D-07
 IDIUse=1 WtCom= 1.00D+00 WtEn= 0.00D+00
 Coeff-Com:  0.114D-01-0.133D+00 0.282D-01 0.272D+00 0.821D+00
 Coeff:      0.114D-01-0.133D+00 0.282D-01 0.272D+00 0.821D+00
 Gap=     0.259 Goal=   None    Shift=    0.000
 RMSDP=1.09D-06 MaxDP=3.83D-05 DE=-4.62D-07 OVMax= 1.83D-04

 Cycle   6  Pass 1  IDiag  1:
 E= -1199.76411305458     Delta-E=       -0.000000085987 Rises=F Damp=F
 DIIS: error= 2.22D-06 at cycle   6 NSaved=   6.
 NSaved= 6 IEnMin= 6 EnMin= -1199.76411305458     IErMin= 6 ErrMin= 2.22D-06
 ErrMax= 2.22D-06  0.00D+00 EMaxC= 1.00D-01 BMatC= 8.80D-09 BMatP= 3.29D-08
 IDIUse=1 WtCom= 1.00D+00 WtEn= 0.00D+00
 Coeff-Com:  0.637D-02-0.335D-01-0.473D-01-0.105D+00 0.355D+00 0.824D+00
 Coeff:      0.637D-02-0.335D-01-0.473D-01-0.105D+00 0.355D+00 0.824D+00
 Gap=     0.259 Goal=   None    Shift=    0.000
 RMSDP=5.21D-07 MaxDP=1.68D-05 DE=-8.60D-08 OVMax= 8.39D-05

 Cycle   7  Pass 1  IDiag  1:
 E= -1199.76411307137     Delta-E=       -0.000000016787 Rises=F Damp=F
 DIIS: error= 8.75D-07 at cycle   7 NSaved=   7.
 NSaved= 7 IEnMin= 7 EnMin= -1199.76411307137     IErMin= 7 ErrMin= 8.75D-07
 ErrMax= 8.75D-07  0.00D+00 EMaxC= 1.00D-01 BMatC= 8.21D-10 BMatP= 8.80D-09
 IDIUse=1 WtCom= 1.00D+00 WtEn= 0.00D+00
 Coeff-Com:  0.655D-03 0.774D-02-0.166D-01-0.747D-01 0.207D-01 0.292D+00
 Coeff-Com:  0.770D+00
 Coeff:      0.655D-03 0.774D-02-0.166D-01-0.747D-01 0.207D-01 0.292D+00
 Coeff:      0.770D+00
 Gap=     0.259 Goal=   None    Shift=    0.000
 RMSDP=1.19D-07 MaxDP=7.70D-06 DE=-1.68D-08 OVMax= 2.02D-05

 Cycle   8  Pass 1  IDiag  1:
 E= -1199.76411307241     Delta-E=       -0.000000001045 Rises=F Damp=F
 DIIS: error= 3.28D-07 at cycle   8 NSaved=   8.
 NSaved= 8 IEnMin= 8 EnMin= -1199.76411307241     IErMin= 8 ErrMin= 3.28D-07
 ErrMax= 3.28D-07  0.00D+00 EMaxC= 1.00D-01 BMatC= 1.52D-10 BMatP= 8.21D-10
 IDIUse=1 WtCom= 1.00D+00 WtEn= 0.00D+00
 Coeff-Com: -0.455D-03 0.786D-02-0.168D-02-0.240D-01-0.345D-01 0.307D-01
 Coeff-Com:  0.349D+00 0.673D+00
 Coeff:     -0.455D-03 0.786D-02-0.168D-02-0.240D-01-0.345D-01 0.307D-01
 Coeff:      0.349D+00 0.673D+00
 Gap=     0.259 Goal=   None    Shift=    0.000
 RMSDP=4.26D-08 MaxDP=2.42D-06 DE=-1.05D-09 OVMax= 6.98D-06

 Cycle   9  Pass 1  IDiag  1:
 E= -1199.76411307269     Delta-E=       -0.000000000272 Rises=F Damp=F
 DIIS: error= 9.62D-08 at cycle   9 NSaved=   9.
 NSaved= 9 IEnMin= 9 EnMin= -1199.76411307269     IErMin= 9 ErrMin= 9.62D-08
 ErrMax= 9.62D-08  0.00D+00 EMaxC= 1.00D-01 BMatC= 1.13D-11 BMatP= 1.52D-10
 IDIUse=1 WtCom= 1.00D+00 WtEn= 0.00D+00
 Coeff-Com: -0.211D-03 0.184D-02 0.130D-02-0.760D-03-0.142D-01-0.214D-01
 Coeff-Com:  0.386D-01 0.221D+00 0.774D+00
 Coeff:     -0.211D-03 0.184D-02 0.130D-02-0.760D-03-0.142D-01-0.214D-01
 Coeff:      0.386D-01 0.221D+00 0.774D+00
 Gap=     0.259 Goal=   None    Shift=    0.000
 RMSDP=1.45D-08 MaxDP=5.63D-07 DE=-2.72D-10 OVMax= 2.78D-06

 Cycle  10  Pass 1  IDiag  1:
 E= -1199.76411307265     Delta-E=        0.000000000035 Rises=F Damp=F
 DIIS: error= 5.71D-08 at cycle  10 NSaved=  10.
 NSaved=10 IEnMin= 9 EnMin= -1199.76411307269     IErMin=10 ErrMin= 5.71D-08
 ErrMax= 5.71D-08  0.00D+00 EMaxC= 1.00D-01 BMatC= 3.54D-12 BMatP= 1.13D-11
 IDIUse=1 WtCom= 1.00D+00 WtEn= 0.00D+00
 Coeff-Com: -0.150D-04-0.730D-03 0.107D-02 0.470D-02 0.904D-04-0.167D-01
 Coeff-Com: -0.512D-01-0.260D-01 0.390D+00 0.699D+00
 Coeff:     -0.150D-04-0.730D-03 0.107D-02 0.470D-02 0.904D-04-0.167D-01
 Coeff:     -0.512D-01-0.260D-01 0.390D+00 0.699D+00
 Gap=     0.259 Goal=   None    Shift=    0.000
 RMSDP=7.46D-09 MaxDP=2.64D-07 DE= 3.46D-11 OVMax= 1.36D-06

 SCF Done:  E(RM062X) =  -1199.76411307     A.U. after   10 cycles
            NFock= 10  Conv=0.75D-08     -V/T= 2.0029
 KE= 1.196332447411D+03 PE=-4.743258318476D+03 EE= 1.398610481135D+03
 Leave Link  502 at Sat May 24 04:42:38 2025, MaxMem=  3758096384 cpu:             154.4 elap:              33.5
 (Enter /apps/easybuild-2022/easybuild/software/Compiler/NVHPC/22.11-CUDA-11.7.0/Gaussian/g16c01-CUDA-11.7.0/g16/l508.exe)
 QCSCF skips out because SCF is already converged.
 Leave Link  508 at Sat May 24 04:42:38 2025, MaxMem=  3758096384 cpu:               0.0 elap:               0.0
 (Enter /apps/easybuild-2022/easybuild/software/Compiler/NVHPC/22.11-CUDA-11.7.0/Gaussian/g16c01-CUDA-11.7.0/g16/l801.exe)
 DoSCS=F DFT=T ScalE2(SS,OS)=  1.000000  1.000000
 Range of M.O.s used for correlation:     1   366
 NBasis=   366 NAE=    49 NBE=    49 NFC=     0 NFV=     0
 NROrb=    366 NOA=    49 NOB=    49 NVA=   317 NVB=   317

 **** Warning!!: The largest alpha MO coefficient is  0.15690600D+02

 Leave Link  801 at Sat May 24 04:42:38 2025, MaxMem=  3758096384 cpu:               0.0 elap:               0.0
 (Enter /apps/easybuild-2022/easybuild/software/Compiler/NVHPC/22.11-CUDA-11.7.0/Gaussian/g16c01-CUDA-11.7.0/g16/l1101.exe)
 Leave Link 1101 at Sat May 24 04:42:38 2025, MaxMem=  3758096384 cpu:               0.0 elap:               0.0
 (Enter /apps/easybuild-2022/easybuild/software/Compiler/NVHPC/22.11-CUDA-11.7.0/Gaussian/g16c01-CUDA-11.7.0/g16/l1102.exe)
 Symmetrizing basis deriv contribution to polar:
 IMax=3 JMax=2 DiffMx= 0.00D+00
 Leave Link 1102 at Sat May 24 04:42:38 2025, MaxMem=  3758096384 cpu:               0.1 elap:               0.0
 (Enter /apps/easybuild-2022/easybuild/software/Compiler/NVHPC/22.11-CUDA-11.7.0/Gaussian/g16c01-CUDA-11.7.0/g16/l1110.exe)
 Leave Link 1110 at Sat May 24 04:42:38 2025, MaxMem=  3758096384 cpu:               0.0 elap:               0.0
 (Enter /apps/easybuild-2022/easybuild/software/Compiler/NVHPC/22.11-CUDA-11.7.0/Gaussian/g16c01-CUDA-11.7.0/g16/l1002.exe)
 Minotr:  Closed shell wavefunction.
 Leave Link 1002 at Sat May 24 04:42:38 2025, MaxMem=  3758096384 cpu:               0.0 elap:               0.0
 (Enter /apps/easybuild-2022/easybuild/software/Compiler/NVHPC/22.11-CUDA-11.7.0/Gaussian/g16c01-CUDA-11.7.0/g16/l701.exe)
 ... and contract with generalized density number  0.
 Compute integral first derivatives.
   1 Symmetry operations used in ECPInt.
 ECPInt:  NShTT=    8515 NPrTT=   27988 LenC2=    8055 LenP2D=   19634.
 LDataN:  DoStor=T MaxTD1= 7 Len=  274
 Leave Link  701 at Sat May 24 04:42:38 2025, MaxMem=  3758096384 cpu:               0.5 elap:               0.1
 (Enter /apps/easybuild-2022/easybuild/software/Compiler/NVHPC/22.11-CUDA-11.7.0/Gaussian/g16c01-CUDA-11.7.0/g16/l702.exe)
 L702 exits ... SP integral derivatives will be done elsewhere.
 Leave Link  702 at Sat May 24 04:42:38 2025, MaxMem=  3758096384 cpu:               0.0 elap:               0.0
 (Enter /apps/easybuild-2022/easybuild/software/Compiler/NVHPC/22.11-CUDA-11.7.0/Gaussian/g16c01-CUDA-11.7.0/g16/l703.exe)
 Integral derivatives from FoFJK, PRISM(SPDF).
 Compute integral first derivatives, UseDBF=F ICtDFT=           0.
 Calling FoFJK, ICntrl=      2127 FMM=F ISym2X=0 I1Cent= 0 IOpClX= 0 NMat=1 NMatS=1 NMatT=0.
 FoFJK:  IHMeth= 1 ICntrl=    2127 DoSepK=F KAlg= 0 I1Cent=           0 FoldK=F
 IRaf=         0 NMat=       1 IRICut=       1 DoRegI=T DoRafI=F ISym2E= 0 IDoP0=0 IntGTp=1.
 FoFCou: FMM=F IPFlag=           0 FMFlag=      100000 FMFlg1=         800
         NFxFlg=           0 DoJE=F BraDBF=F KetDBF=F FulRan=T
         wScrn=  0.000000 ICntrl=      2127 IOpCl=  0 I1Cent=           0 NGrid=           0
         NMat0=    1 NMatS0=      1 NMatT0=    0 NMatD0=    1 NMtDS0=    0 NMtDT0=    0
 Symmetry not used in FoFCou.
 Leave Link  703 at Sat May 24 04:42:52 2025, MaxMem=  3758096384 cpu:             110.1 elap:              13.9
 (Enter /apps/easybuild-2022/easybuild/software/Compiler/NVHPC/22.11-CUDA-11.7.0/Gaussian/g16c01-CUDA-11.7.0/g16/l716.exe)
 Dipole        =-1.81279899D+00 5.02211448D-01-3.05742831D-01
 Polarizability= 0.00000000D+00 0.00000000D+00 0.00000000D+00
                 0.00000000D+00 0.00000000D+00 0.00000000D+00
 -------------------------------------------------------------------
 Center     Atomic                   Forces (Hartrees/Bohr)
 Number     Number              X              Y              Z
 -------------------------------------------------------------------
      1        6          -0.000146169    0.000000829    0.000305430
      2        6           0.000013684   -0.000037997    0.000002874
      3        9          -0.000025099   -0.000060580    0.000002360
      4        9           0.000142115    0.000057889    0.000013056
      5       16           0.000180222    0.000165586   -0.000547270
      6        8          -0.000169319   -0.000000342    0.000134266
      7        8           0.000605765    0.000142969   -0.000299689
      8        8           0.000021671    0.000224262    0.000033682
      9        9          -0.000480755    0.000021272    0.000327553
     10        9          -0.000502733   -0.000345964   -0.000205580
     11        9           0.000367668   -0.000185932    0.000210092
     12        1          -0.000007050    0.000018009    0.000023225
 -------------------------------------------------------------------
 Cartesian Forces:  Max     0.000605765 RMS     0.000238507
 Leave Link  716 at Sat May 24 04:42:52 2025, MaxMem=  3758096384 cpu:               0.0 elap:               0.0
 (Enter /apps/easybuild-2022/easybuild/software/Compiler/NVHPC/22.11-CUDA-11.7.0/Gaussian/g16c01-CUDA-11.7.0/g16/l123.exe)
 IRC-IRC-IRC-IRC-IRC-IRC-IRC-IRC-IRC-IRC-IRC-IRC-IRC-IRC-IRC-IRC-IRC-IRC
 Pt  1 Step number   1 out of a maximum of  20
 Using modified Bulirsch-Stoer corrector integration.
   Using distance weighted interpolants to fit PES.
 PreDWI: IReCr0= 2 IReCr1= 1 IReCr2= 1 IReCr3= 1
 Modified Bulirsch-Stoer Extrapolation Cycles:
    EPS =    0.000010000000000
    Cycle     1 NS=    48
      PEZero:  N= 2 I= 1 D=  2.06D-04 Err=  6.66D-04
    Cycle     2 NS=    64 Truncation Error =  0.000665727
      PEZero:  N= 3 I= 2 D=  2.06D-04 Err=  1.87D-04
      PEZero:  N= 3 I= 1 D=  4.12D-04 Err=  3.85D-04
    Cycle     3 NS=    96 Truncation Error =  0.000187236
      PEZero:  N= 4 I= 3 D=  1.03D-04 Err=  1.40D-04
      PEZero:  N= 4 I= 2 D=  3.09D-04 Err=  1.04D-08
      PEZero:  N= 4 I= 1 D=  5.15D-04 Err=  1.12D-04
    Cycle     4 NS=   128 Truncation Error =  0.000000010
 BS completed in    4 cycles and     336 integration steps.
 Maximum DWI energy   std dev =  0.000000009 at pt    25
 Maximum DWI gradient std dev =  0.033591002 at pt     1
 SUMMARY OF CORRECTOR INTEGRATION:
   Predictor End Point Energy = -1199.764113
   Old End Point Energy       = -1199.764113
   Corrected End Point Energy = -1199.764113
   Predictor End-Start Dist.  =     0.079173
   Old End-Start Dist.        =     0.079173
   New End-Start Dist.        =     0.079168
   New End-Old End Dist.      =     0.000873
 CORRECTOR INTEGRATION CONVERGENCE:
   Recorrection delta-x convergence threshold:    0.010000
   Delta-x Convergence Met
 Point Number:   1          Path Number:   1
                    CURRENT STRUCTURE
                Cartesian Coordinates (Ang):                
 ---------------------------------------------------------------------
 Center     Atomic                     Coordinates (Angstroms)
 Number     Number                        X           Y           Z
 ---------------------------------------------------------------------
      1          6                   -1.169110   -0.795555   -0.069279
      2          6                   -0.565724    0.572405    0.362916
      3          9                   -1.218463    1.496954   -0.339235
      4          9                   -0.755934    0.812610    1.640903
      5         16                    1.154477    0.229080   -0.234295
      6          8                    2.365002    0.427120    0.490796
      7          8                    0.787648   -0.778622   -1.221001
      8          8                    1.177097    1.540520   -1.189171
      9          9                   -1.585509   -1.676063    0.711931
     10          9                    0.669870   -1.105218    1.065489
     11          9                   -1.704861   -0.884085   -1.205164
     12          1                    1.933609    2.077222   -0.926776
 ---------------------------------------------------------------------
   CHANGE IN THE REACTION COORDINATE =    0.07917
   NET REACTION COORDINATE UP TO THIS POINT =    0.07917
  # OF POINTS ALONG THE PATH =   1
  # OF STEPS =   1

 Calculating another point on the path.
 Point Number  2 in REVERSE path direction.
 Using LQA Reaction Path Following.
   LQA: T_Est iteration completed in    3 iterations.
 IRC-IRC-IRC-IRC-IRC-IRC-IRC-IRC-IRC-IRC-IRC-IRC-IRC-IRC-IRC-IRC-IRC-IRC
 Leave Link  123 at Sat May 24 04:42:53 2025, MaxMem=  3758096384 cpu:               0.1 elap:               0.2
 (Enter /apps/easybuild-2022/easybuild/software/Compiler/NVHPC/22.11-CUDA-11.7.0/Gaussian/g16c01-CUDA-11.7.0/g16/l202.exe)
                          Input orientation:                          
 ---------------------------------------------------------------------
 Center     Atomic      Atomic             Coordinates (Angstroms)
 Number     Number       Type             X           Y           Z
 ---------------------------------------------------------------------
      1          6           0       -1.170848   -0.795676   -0.066017
      2          6           0       -0.565398    0.572074    0.362971
      3          9           0       -1.218646    1.496523   -0.339212
      4          9           0       -0.755004    0.812988    1.640976
      5         16           0        1.155127    0.229701   -0.236486
      6          8           0        2.363698    0.427118    0.491865
      7          8           0        0.792414   -0.777425   -1.223326
      8          8           0        1.177295    1.542290   -1.188909
      9          9           0       -1.588627   -1.675860    0.714062
     10          9           0        0.666545   -1.107516    1.064147
     11          9           0       -1.702386   -0.885336   -1.203740
     12          1           0        1.932486    2.079918   -0.924547
 ---------------------------------------------------------------------
                    Distance matrix (angstroms):
                    1          2          3          4          5
     1  C    0.000000
     2  C    1.556066   0.000000
     3  F    2.308917   1.332067   0.000000
     4  F    2.382132   1.314263   2.145537   0.000000
     5  S    2.547669   1.853854   2.692617   2.741111   0.000000
     6  O    3.781465   2.935512   3.829818   3.345991   1.424821
     7  O    2.279056   2.486189   3.161781   3.623278   1.455924
     8  O    3.498678   2.527178   2.542560   3.503414   1.621879
     9  F    1.248113   2.494688   3.363077   2.783606   3.473167
    10  F    2.179571   2.197807   3.507761   2.458022   1.928344
    11  F    1.258962   2.423091   2.579664   3.445903   3.216250
    12  H    4.317036   3.189157   3.257698   3.925510   2.121561
                    6          7          8          9         10
     6  O    0.000000
     7  O    2.619492   0.000000
     8  O    2.340120   2.351679   0.000000
     9  F    4.482495   3.198439   4.650603   0.000000
    10  F    2.358588   2.314592   3.515480   2.351888   0.000000
    11  F    4.596809   2.497210   3.766450   2.077459   3.287022
    12  H    2.218990   3.090864   0.963974   5.402698   3.964499
                   11         12
    11  F    0.000000
    12  H    4.699253   0.000000
 Symmetry turned off by external request.
 Stoichiometry    C2HF5O3S
 Rotational constants (GHZ):           1.4673018           0.9463076           0.8986994
 Leave Link  202 at Sat May 24 04:42:53 2025, MaxMem=  3758096384 cpu:               0.0 elap:               0.0
 (Enter /apps/easybuild-2022/easybuild/software/Compiler/NVHPC/22.11-CUDA-11.7.0/Gaussian/g16c01-CUDA-11.7.0/g16/l301.exe)
 Standard basis: def2TZVPP (5D, 7F)
 Ernie: Thresh=  0.10000D-02 Tol=  0.10000D-05 Strict=F.
   366 basis functions,   596 primitive gaussians,   423 cartesian basis functions
    49 alpha electrons       49 beta electrons
       nuclear repulsion energy       948.4016652185 Hartrees.
 IExCor= 4336 DFT=T Ex+Corr=M062X ExCW=0 ScaHFX=  0.540000
 ScaDFX=  1.000000  1.000000  1.000000  1.000000 ScalE2=  1.000000  1.000000
 IRadAn=      5 IRanWt=     -1 IRanGd=            0 ICorTp=0 IEmpDi=  4
 NAtoms=   12 NActive=   12 NUniq=   12 SFac= 1.00D+00 NAtFMM=   60 NAOKFM=F Big=F
 Integral buffers will be    131072 words long.
 Raffenetti 2 integral format.
 Two-electron integral symmetry is turned off.
 Leave Link  301 at Sat May 24 04:42:53 2025, MaxMem=  3758096384 cpu:               0.0 elap:               0.0
 (Enter /apps/easybuild-2022/easybuild/software/Compiler/NVHPC/22.11-CUDA-11.7.0/Gaussian/g16c01-CUDA-11.7.0/g16/l302.exe)
 NPDir=0 NMtPBC=     1 NCelOv=     1 NCel=       1 NClECP=     1 NCelD=      1
         NCelK=      1 NCelE2=     1 NClLst=     1 CellRange=     0.0.
 One-electron integrals computed using PRISM.
   1 Symmetry operations used in ECPInt.
 ECPInt:  NShTT=    8515 NPrTT=   27988 LenC2=    8052 LenP2D=   19631.
 LDataN:  DoStor=T MaxTD1= 6 Len=  172
 NBasis=   366 RedAO= T EigKep=  3.03D-04  NBF=   366
 NBsUse=   366 1.00D-06 EigRej= -1.00D+00 NBFU=   366
 Precomputing XC quadrature grid using
 IXCGrd= 4 IRadAn=           5 IRanWt=          -1 IRanGd=           0 AccXCQ= 0.00D+00.
 Generated NRdTot=       0 NPtTot=           0 NUsed=           0 NTot=          32
 NSgBfM=   420   420   420   420   420 MxSgAt=    12 MxSgA2=    12.
 Leave Link  302 at Sat May 24 04:42:53 2025, MaxMem=  3758096384 cpu:               0.7 elap:               0.2
 (Enter /apps/easybuild-2022/easybuild/software/Compiler/NVHPC/22.11-CUDA-11.7.0/Gaussian/g16c01-CUDA-11.7.0/g16/l303.exe)
 DipDrv:  MaxL=1.
 Leave Link  303 at Sat May 24 04:42:53 2025, MaxMem=  3758096384 cpu:               0.1 elap:               0.0
 (Enter /apps/easybuild-2022/easybuild/software/Compiler/NVHPC/22.11-CUDA-11.7.0/Gaussian/g16c01-CUDA-11.7.0/g16/l401.exe)
 Initial guess from the checkpoint file:  "2003846667223680600001_r12_insertion_R_9_1_10_IRC_R.chk"
 B after Tr=     0.000021    0.000057   -0.000003
         Rot=    1.000000   -0.000021    0.000014   -0.000006 Ang=  -0.00 deg.
 Guess basis will be translated and rotated to current coordinates.
 JPrj=2 DoOrth=T DoCkMO=T.
 Generating alternative initial guess.
 ExpMin= 9.52D-02 ExpMax= 6.07D+04 ExpMxC= 2.07D+03 IAcc=3 IRadAn=         5 AccDes= 0.00D+00
 Harris functional with IExCor= 1009 and IRadAn=       5 diagonalized for initial guess.
 HarFok:  IExCor= 1009 AccDes= 0.00D+00 IRadAn=         5 IDoV= 1 UseB2=F ITyADJ=14
 ICtDFT=  3500011 ScaDFX=  1.000000  1.000000  1.000000  1.000000
 FoFCou: FMM=F IPFlag=           0 FMFlag=      100000 FMFlg1=           0
         NFxFlg=           0 DoJE=T BraDBF=F KetDBF=T FulRan=T
         wScrn=  0.000000 ICntrl=       500 IOpCl=  0 I1Cent=   200000004 NGrid=           0
         NMat0=    1 NMatS0=      1 NMatT0=    0 NMatD0=    1 NMtDS0=    0 NMtDT0=    0
 Symmetry not used in FoFCou.
 Harris En= -1199.25388364680    
 Leave Link  401 at Sat May 24 04:42:54 2025, MaxMem=  3758096384 cpu:               4.7 elap:               0.7
 (Enter /apps/easybuild-2022/easybuild/software/Compiler/NVHPC/22.11-CUDA-11.7.0/Gaussian/g16c01-CUDA-11.7.0/g16/l502.exe)
 Keep R1 ints in memory in canonical form, NReq=2293447020.
 FoFCou: FMM=F IPFlag=           0 FMFlag=           0 FMFlg1=           0
         NFxFlg=           0 DoJE=F BraDBF=F KetDBF=F FulRan=T
         wScrn=  0.000000 ICntrl=       600 IOpCl=  0 I1Cent=           0 NGrid=           0
         NMat0=    1 NMatS0=  67161 NMatT0=    0 NMatD0=    1 NMtDS0=    0 NMtDT0=    0
 Symmetry not used in FoFCou.
 Two-electron integral symmetry not used.
 Closed shell SCF:
 Using DIIS extrapolation, IDIIS=  1040.
 NGot=  3758096384 LenX=  1502398648 LenY=  1502219278
 Requested convergence on RMS density matrix=1.00D-08 within  32 cycles.
 Requested convergence on MAX density matrix=1.00D-06.
 Requested convergence on             energy=1.00D-06.
 No special actions if energy rises.
 Integral accuracy reduced to 1.0D-05 until final iterations.

 Cycle   1  Pass 0  IDiag  1:
 E= -1199.76410258040    
 DIIS: error= 1.25D-04 at cycle   1 NSaved=   1.
 NSaved= 1 IEnMin= 1 EnMin= -1199.76410258040     IErMin= 1 ErrMin= 1.25D-04
 ErrMax= 1.25D-04  0.00D+00 EMaxC= 1.00D-01 BMatC= 2.79D-05 BMatP= 2.79D-05
 IDIUse=3 WtCom= 9.99D-01 WtEn= 1.25D-03
 Coeff-Com:  0.100D+01
 Coeff-En:   0.100D+01
 Coeff:      0.100D+01
 Gap=     1.142 Goal=   None    Shift=    0.000
 RMSDP=2.24D-05 MaxDP=7.52D-04              OVMax= 2.23D-03

 Cycle   2  Pass 0  IDiag  1:
 E= -1199.76414519656     Delta-E=       -0.000042616160 Rises=F Damp=F
 DIIS: error= 3.64D-05 at cycle   2 NSaved=   2.
 NSaved= 2 IEnMin= 2 EnMin= -1199.76414519656     IErMin= 2 ErrMin= 3.64D-05
 ErrMax= 3.64D-05  0.00D+00 EMaxC= 1.00D-01 BMatC= 1.94D-06 BMatP= 2.79D-05
 IDIUse=1 WtCom= 1.00D+00 WtEn= 0.00D+00
 Coeff-Com: -0.690D-01 0.107D+01
 Coeff:     -0.690D-01 0.107D+01
 Gap=     0.259 Goal=   None    Shift=    0.000
 RMSDP=7.15D-06 MaxDP=2.23D-04 DE=-4.26D-05 OVMax= 9.27D-04

 Initial convergence to 1.0D-05 achieved.  Increase integral accuracy.
 Cycle   3  Pass 1  IDiag  1:
 E= -1199.76414990510     Delta-E=       -0.000004708545 Rises=F Damp=F
 DIIS: error= 3.69D-05 at cycle   1 NSaved=   1.
 NSaved= 1 IEnMin= 1 EnMin= -1199.76414990510     IErMin= 1 ErrMin= 3.69D-05
 ErrMax= 3.69D-05  0.00D+00 EMaxC= 1.00D-01 BMatC= 2.08D-06 BMatP= 2.08D-06
 IDIUse=1 WtCom= 1.00D+00 WtEn= 0.00D+00
 Coeff-Com:  0.100D+01
 Coeff:      0.100D+01
 Gap=     0.259 Goal=   None    Shift=    0.000
 RMSDP=7.15D-06 MaxDP=2.23D-04 DE=-4.71D-06 OVMax= 8.27D-04

 Cycle   4  Pass 1  IDiag  1:
 E= -1199.76415037927     Delta-E=       -0.000000474170 Rises=F Damp=F
 DIIS: error= 3.57D-05 at cycle   2 NSaved=   2.
 NSaved= 2 IEnMin= 2 EnMin= -1199.76415037927     IErMin= 2 ErrMin= 3.57D-05
 ErrMax= 3.57D-05  0.00D+00 EMaxC= 1.00D-01 BMatC= 2.73D-06 BMatP= 2.08D-06
 IDIUse=1 WtCom= 1.00D+00 WtEn= 0.00D+00
 Coeff-Com:  0.541D+00 0.459D+00
 Coeff:      0.541D+00 0.459D+00
 Gap=     0.259 Goal=   None    Shift=    0.000
 RMSDP=3.20D-06 MaxDP=1.60D-04 DE=-4.74D-07 OVMax= 2.81D-04

 Cycle   5  Pass 1  IDiag  1:
 E= -1199.76415212870     Delta-E=       -0.000001749425 Rises=F Damp=F
 DIIS: error= 1.31D-05 at cycle   3 NSaved=   3.
 NSaved= 3 IEnMin= 3 EnMin= -1199.76415212870     IErMin= 3 ErrMin= 1.31D-05
 ErrMax= 1.31D-05  0.00D+00 EMaxC= 1.00D-01 BMatC= 8.80D-08 BMatP= 2.08D-06
 IDIUse=1 WtCom= 1.00D+00 WtEn= 0.00D+00
 Coeff-Com: -0.313D-01 0.109D+00 0.923D+00
 Coeff:     -0.313D-01 0.109D+00 0.923D+00
 Gap=     0.259 Goal=   None    Shift=    0.000
 RMSDP=1.36D-06 MaxDP=4.72D-05 DE=-1.75D-06 OVMax= 2.19D-04

 Cycle   6  Pass 1  IDiag  1:
 E= -1199.76415228123     Delta-E=       -0.000000152536 Rises=F Damp=F
 DIIS: error= 4.05D-06 at cycle   4 NSaved=   4.
 NSaved= 4 IEnMin= 4 EnMin= -1199.76415228123     IErMin= 4 ErrMin= 4.05D-06
 ErrMax= 4.05D-06  0.00D+00 EMaxC= 1.00D-01 BMatC= 2.87D-08 BMatP= 8.80D-08
 IDIUse=1 WtCom= 1.00D+00 WtEn= 0.00D+00
 Coeff-Com: -0.514D-01 0.316D-02 0.431D+00 0.618D+00
 Coeff:     -0.514D-01 0.316D-02 0.431D+00 0.618D+00
 Gap=     0.259 Goal=   None    Shift=    0.000
 RMSDP=4.90D-07 MaxDP=1.55D-05 DE=-1.53D-07 OVMax= 6.50D-05

 Cycle   7  Pass 1  IDiag  1:
 E= -1199.76415231771     Delta-E=       -0.000000036480 Rises=F Damp=F
 DIIS: error= 2.14D-06 at cycle   5 NSaved=   5.
 NSaved= 5 IEnMin= 5 EnMin= -1199.76415231771     IErMin= 5 ErrMin= 2.14D-06
 ErrMax= 2.14D-06  0.00D+00 EMaxC= 1.00D-01 BMatC= 4.29D-09 BMatP= 2.87D-08
 IDIUse=1 WtCom= 1.00D+00 WtEn= 0.00D+00
 Coeff-Com:  0.508D-02-0.518D-01-0.218D+00 0.106D+00 0.116D+01
 Coeff:      0.508D-02-0.518D-01-0.218D+00 0.106D+00 0.116D+01
 Gap=     0.259 Goal=   None    Shift=    0.000
 RMSDP=5.08D-07 MaxDP=1.80D-05 DE=-3.65D-08 OVMax= 8.91D-05

 Cycle   8  Pass 1  IDiag  1:
 E= -1199.76415233278     Delta-E=       -0.000000015068 Rises=F Damp=F
 DIIS: error= 7.77D-07 at cycle   6 NSaved=   6.
 NSaved= 6 IEnMin= 6 EnMin= -1199.76415233278     IErMin= 6 ErrMin= 7.77D-07
 ErrMax= 7.77D-07  0.00D+00 EMaxC= 1.00D-01 BMatC= 8.52D-10 BMatP= 4.29D-09
 IDIUse=1 WtCom= 1.00D+00 WtEn= 0.00D+00
 Coeff-Com:  0.819D-02-0.282D-01-0.158D+00-0.359D-01 0.539D+00 0.675D+00
 Coeff:      0.819D-02-0.282D-01-0.158D+00-0.359D-01 0.539D+00 0.675D+00
 Gap=     0.259 Goal=   None    Shift=    0.000
 RMSDP=1.44D-07 MaxDP=5.77D-06 DE=-1.51D-08 OVMax= 2.13D-05

 Cycle   9  Pass 1  IDiag  1:
 E= -1199.76415233411     Delta-E=       -0.000000001328 Rises=F Damp=F
 DIIS: error= 1.87D-07 at cycle   7 NSaved=   7.
 NSaved= 7 IEnMin= 7 EnMin= -1199.76415233411     IErMin= 7 ErrMin= 1.87D-07
 ErrMax= 1.87D-07  0.00D+00 EMaxC= 1.00D-01 BMatC= 5.70D-11 BMatP= 8.52D-10
 IDIUse=1 WtCom= 1.00D+00 WtEn= 0.00D+00
 Coeff-Com:  0.201D-02-0.311D-02-0.216D-01-0.271D-01 0.300D-01 0.215D+00
 Coeff-Com:  0.805D+00
 Coeff:      0.201D-02-0.311D-02-0.216D-01-0.271D-01 0.300D-01 0.215D+00
 Coeff:      0.805D+00
 Gap=     0.259 Goal=   None    Shift=    0.000
 RMSDP=3.71D-08 MaxDP=1.55D-06 DE=-1.33D-09 OVMax= 6.18D-06

 Cycle  10  Pass 1  IDiag  1:
 E= -1199.76415233413     Delta-E=       -0.000000000024 Rises=F Damp=F
 DIIS: error= 9.36D-08 at cycle   8 NSaved=   8.
 NSaved= 8 IEnMin= 8 EnMin= -1199.76415233413     IErMin= 8 ErrMin= 9.36D-08
 ErrMax= 9.36D-08  0.00D+00 EMaxC= 1.00D-01 BMatC= 1.12D-11 BMatP= 5.70D-11
 IDIUse=1 WtCom= 1.00D+00 WtEn= 0.00D+00
 Coeff-Com: -0.316D-04 0.197D-02 0.968D-02-0.726D-02-0.490D-01 0.105D-01
 Coeff-Com:  0.350D+00 0.684D+00
 Coeff:     -0.316D-04 0.197D-02 0.968D-02-0.726D-02-0.490D-01 0.105D-01
 Coeff:      0.350D+00 0.684D+00
 Gap=     0.259 Goal=   None    Shift=    0.000
 RMSDP=1.11D-08 MaxDP=3.76D-07 DE=-2.36D-11 OVMax= 1.77D-06

 Cycle  11  Pass 1  IDiag  1:
 E= -1199.76415233423     Delta-E=       -0.000000000096 Rises=F Damp=F
 DIIS: error= 3.86D-08 at cycle   9 NSaved=   9.
 NSaved= 9 IEnMin= 9 EnMin= -1199.76415233423     IErMin= 9 ErrMin= 3.86D-08
 ErrMax= 3.86D-08  0.00D+00 EMaxC= 1.00D-01 BMatC= 2.14D-12 BMatP= 1.12D-11
 IDIUse=1 WtCom= 1.00D+00 WtEn= 0.00D+00
 Coeff-Com: -0.375D-03 0.155D-02 0.876D-02 0.478D-03-0.314D-01-0.299D-01
 Coeff-Com:  0.472D-01 0.336D+00 0.668D+00
 Coeff:     -0.375D-03 0.155D-02 0.876D-02 0.478D-03-0.314D-01-0.299D-01
 Coeff:      0.472D-01 0.336D+00 0.668D+00
 Gap=     0.259 Goal=   None    Shift=    0.000
 RMSDP=4.91D-09 MaxDP=1.75D-07 DE=-9.60D-11 OVMax= 8.19D-07

 SCF Done:  E(RM062X) =  -1199.76415233     A.U. after   11 cycles
            NFock= 11  Conv=0.49D-08     -V/T= 2.0029
 KE= 1.196334651757D+03 PE=-4.742963141501D+03 EE= 1.398462672191D+03
 Leave Link  502 at Sat May 24 04:43:28 2025, MaxMem=  3758096384 cpu:             153.7 elap:              34.7
 (Enter /apps/easybuild-2022/easybuild/software/Compiler/NVHPC/22.11-CUDA-11.7.0/Gaussian/g16c01-CUDA-11.7.0/g16/l508.exe)
 QCSCF skips out because SCF is already converged.
 Leave Link  508 at Sat May 24 04:43:28 2025, MaxMem=  3758096384 cpu:               0.0 elap:               0.0
 (Enter /apps/easybuild-2022/easybuild/software/Compiler/NVHPC/22.11-CUDA-11.7.0/Gaussian/g16c01-CUDA-11.7.0/g16/l801.exe)
 DoSCS=F DFT=T ScalE2(SS,OS)=  1.000000  1.000000
 Range of M.O.s used for correlation:     1   366
 NBasis=   366 NAE=    49 NBE=    49 NFC=     0 NFV=     0
 NROrb=    366 NOA=    49 NOB=    49 NVA=   317 NVB=   317

 **** Warning!!: The largest alpha MO coefficient is  0.15689423D+02

 Leave Link  801 at Sat May 24 04:43:28 2025, MaxMem=  3758096384 cpu:               0.0 elap:               0.0
 (Enter /apps/easybuild-2022/easybuild/software/Compiler/NVHPC/22.11-CUDA-11.7.0/Gaussian/g16c01-CUDA-11.7.0/g16/l1101.exe)
 Leave Link 1101 at Sat May 24 04:43:28 2025, MaxMem=  3758096384 cpu:               0.0 elap:               0.0
 (Enter /apps/easybuild-2022/easybuild/software/Compiler/NVHPC/22.11-CUDA-11.7.0/Gaussian/g16c01-CUDA-11.7.0/g16/l1102.exe)
 Symmetrizing basis deriv contribution to polar:
 IMax=3 JMax=2 DiffMx= 0.00D+00
 Leave Link 1102 at Sat May 24 04:43:29 2025, MaxMem=  3758096384 cpu:               0.1 elap:               0.0
 (Enter /apps/easybuild-2022/easybuild/software/Compiler/NVHPC/22.11-CUDA-11.7.0/Gaussian/g16c01-CUDA-11.7.0/g16/l1110.exe)
 Leave Link 1110 at Sat May 24 04:43:29 2025, MaxMem=  3758096384 cpu:               0.0 elap:               0.0
 (Enter /apps/easybuild-2022/easybuild/software/Compiler/NVHPC/22.11-CUDA-11.7.0/Gaussian/g16c01-CUDA-11.7.0/g16/l1002.exe)
 Minotr:  Closed shell wavefunction.
 Leave Link 1002 at Sat May 24 04:43:29 2025, MaxMem=  3758096384 cpu:               0.0 elap:               0.0
 (Enter /apps/easybuild-2022/easybuild/software/Compiler/NVHPC/22.11-CUDA-11.7.0/Gaussian/g16c01-CUDA-11.7.0/g16/l701.exe)
 ... and contract with generalized density number  0.
 Compute integral first derivatives.
   1 Symmetry operations used in ECPInt.
 ECPInt:  NShTT=    8515 NPrTT=   27988 LenC2=    8052 LenP2D=   19631.
 LDataN:  DoStor=T MaxTD1= 7 Len=  274
 Leave Link  701 at Sat May 24 04:43:29 2025, MaxMem=  3758096384 cpu:               0.5 elap:               0.1
 (Enter /apps/easybuild-2022/easybuild/software/Compiler/NVHPC/22.11-CUDA-11.7.0/Gaussian/g16c01-CUDA-11.7.0/g16/l702.exe)
 L702 exits ... SP integral derivatives will be done elsewhere.
 Leave Link  702 at Sat May 24 04:43:29 2025, MaxMem=  3758096384 cpu:               0.0 elap:               0.0
 (Enter /apps/easybuild-2022/easybuild/software/Compiler/NVHPC/22.11-CUDA-11.7.0/Gaussian/g16c01-CUDA-11.7.0/g16/l703.exe)
 Integral derivatives from FoFJK, PRISM(SPDF).
 Compute integral first derivatives, UseDBF=F ICtDFT=           0.
 Calling FoFJK, ICntrl=      2127 FMM=F ISym2X=0 I1Cent= 0 IOpClX= 0 NMat=1 NMatS=1 NMatT=0.
 FoFJK:  IHMeth= 1 ICntrl=    2127 DoSepK=F KAlg= 0 I1Cent=           0 FoldK=F
 IRaf=         0 NMat=       1 IRICut=       1 DoRegI=T DoRafI=F ISym2E= 0 IDoP0=0 IntGTp=1.
 FoFCou: FMM=F IPFlag=           0 FMFlag=      100000 FMFlg1=         800
         NFxFlg=           0 DoJE=F BraDBF=F KetDBF=F FulRan=T
         wScrn=  0.000000 ICntrl=      2127 IOpCl=  0 I1Cent=           0 NGrid=           0
         NMat0=    1 NMatS0=      1 NMatT0=    0 NMatD0=    1 NMtDS0=    0 NMtDT0=    0
 Symmetry not used in FoFCou.
 Leave Link  703 at Sat May 24 04:43:43 2025, MaxMem=  3758096384 cpu:             110.5 elap:              14.0
 (Enter /apps/easybuild-2022/easybuild/software/Compiler/NVHPC/22.11-CUDA-11.7.0/Gaussian/g16c01-CUDA-11.7.0/g16/l716.exe)
 Dipole        =-1.82152487D+00 5.03595644D-01-3.01952291D-01
 Polarizability= 0.00000000D+00 0.00000000D+00 0.00000000D+00
                 0.00000000D+00 0.00000000D+00 0.00000000D+00
 -------------------------------------------------------------------
 Center     Atomic                   Forces (Hartrees/Bohr)
 Number     Number              X              Y              Z
 -------------------------------------------------------------------
      1        6          -0.000273794   -0.000014301    0.000608653
      2        6           0.000031637   -0.000073087    0.000009761
      3        9          -0.000050020   -0.000124252    0.000007427
      4        9           0.000286208    0.000117415    0.000025349
      5       16           0.000351323    0.000342150   -0.001090324
      6        8          -0.000339178   -0.000003811    0.000262169
      7        8           0.001186645    0.000289142   -0.000586691
      8        8           0.000051609    0.000447186    0.000066205
      9        9          -0.000948530    0.000051485    0.000653983
     10        9          -0.001011953   -0.000694961   -0.000416187
     11        9           0.000743468   -0.000375797    0.000432710
     12        1          -0.000027416    0.000038831    0.000026944
 -------------------------------------------------------------------
 Cartesian Forces:  Max     0.001186645 RMS     0.000474837
 Leave Link  716 at Sat May 24 04:43:43 2025, MaxMem=  3758096384 cpu:               0.0 elap:               0.0
 (Enter /apps/easybuild-2022/easybuild/software/Compiler/NVHPC/22.11-CUDA-11.7.0/Gaussian/g16c01-CUDA-11.7.0/g16/l123.exe)
 IRC-IRC-IRC-IRC-IRC-IRC-IRC-IRC-IRC-IRC-IRC-IRC-IRC-IRC-IRC-IRC-IRC-IRC
 Pt  2 Step number   1 out of a maximum of  20
 Using modified Bulirsch-Stoer corrector integration.
   Using distance weighted interpolants to fit PES.
 PreDWI: IReCr0= 2 IReCr1= 1 IReCr2= 1 IReCr3= 1
 Modified Bulirsch-Stoer Extrapolation Cycles:
    EPS =    0.000010000000000
    Cycle     1 NS=    48
      PEZero:  N= 2 I= 1 D=  4.12D-04 Err=  6.14D-06
    Cycle     2 NS=    64 Truncation Error =  0.000006141
 BS completed in    2 cycles and     112 integration steps.
 Maximum DWI energy   std dev =  0.000000018 at pt    47
 Maximum DWI gradient std dev =  0.014112279 at pt    27
 SUMMARY OF CORRECTOR INTEGRATION:
   Predictor End Point Energy = -1199.764152
   Old End Point Energy       = -1199.764152
   Corrected End Point Energy = -1199.764152
   Predictor End-Start Dist.  =     0.079145
   Old End-Start Dist.        =     0.079145
   New End-Start Dist.        =     0.079143
   New End-Old End Dist.      =     0.000764
 CORRECTOR INTEGRATION CONVERGENCE:
   Recorrection delta-x convergence threshold:    0.010000
   Delta-x Convergence Met
 Point Number:   2          Path Number:   1
                    CURRENT STRUCTURE
                Cartesian Coordinates (Ang):                
 ---------------------------------------------------------------------
 Center     Atomic                     Coordinates (Angstroms)
 Number     Number                        X           Y           Z
 ---------------------------------------------------------------------
      1          6                   -1.170766   -0.795691   -0.066031
      2          6                   -0.565421    0.572068    0.362971
      3          9                   -1.218640    1.496531   -0.339212
      4          9                   -0.755002    0.812989    1.640979
      5         16                    1.155131    0.229719   -0.236478
      6          8                    2.363695    0.427109    0.491872
      7          8                    0.792393   -0.777433   -1.223314
      8          8                    1.177292    1.542285   -1.188911
      9          9                   -1.588642   -1.675857    0.714062
     10          9                    0.666514   -1.107532    1.064129
     11          9                   -1.702372   -0.885330   -1.203739
     12          1                    1.932480    2.079932   -0.924620
 ---------------------------------------------------------------------
   CHANGE IN THE REACTION COORDINATE =    0.07914
   NET REACTION COORDINATE UP TO THIS POINT =    0.15831
  # OF POINTS ALONG THE PATH =   2
  # OF STEPS =   1

 Calculating another point on the path.
 Point Number  3 in REVERSE path direction.
 Using LQA Reaction Path Following.
   LQA: T_Est iteration completed in    3 iterations.
 IRC-IRC-IRC-IRC-IRC-IRC-IRC-IRC-IRC-IRC-IRC-IRC-IRC-IRC-IRC-IRC-IRC-IRC
 Leave Link  123 at Sat May 24 04:43:43 2025, MaxMem=  3758096384 cpu:               0.1 elap:               0.0
 (Enter /apps/easybuild-2022/easybuild/software/Compiler/NVHPC/22.11-CUDA-11.7.0/Gaussian/g16c01-CUDA-11.7.0/g16/l202.exe)
                          Input orientation:                          
 ---------------------------------------------------------------------
 Center     Atomic      Atomic             Coordinates (Angstroms)
 Number     Number       Type             X           Y           Z
 ---------------------------------------------------------------------
      1          6           0       -1.172321   -0.795864   -0.062777
      2          6           0       -0.565117    0.571732    0.363032
      3          9           0       -1.218822    1.496103   -0.339183
      4          9           0       -0.754055    0.813377    1.641060
      5         16           0        1.155777    0.230390   -0.238668
      6          8           0        2.362388    0.427098    0.492927
      7          8           0        0.797087   -0.776247   -1.225602
      8          8           0        1.177463    1.544043   -1.188690
      9          9           0       -1.591767   -1.675644    0.716219
     10          9           0        0.663126   -1.109866    1.062748
     11          9           0       -1.699857   -0.886591   -1.202288
     12          1           0        1.931347    2.082642   -0.922580
 ---------------------------------------------------------------------
                    Distance matrix (angstroms):
                    1          2          3          4          5
     1  C    0.000000
     2  C    1.555741   0.000000
     3  F    2.309042   1.332253   0.000000
     4  F    2.380686   1.314323   2.145574   0.000000
     5  S    2.550328   1.854732   2.692740   2.742391   0.000000
     6  O    3.781351   2.933952   3.828870   3.343597   1.424724
     7  O    2.287163   2.489258   3.164364   3.626389   1.454653
     8  O    3.502046   2.527808   2.542860   3.503158   1.621325
     9  F    1.247711   2.495887   3.363471   2.784299   3.477610
    10  F    2.175838   2.196806   3.506881   2.457990   1.932013
    11  F    1.258972   2.421687   2.579452   3.445151   3.214164
    12  H    4.319469   3.188727   3.256983   3.923604   2.121340
                    6          7          8          9         10
     6  O    0.000000
     7  O    2.617547   0.000000
     8  O    2.340822   2.351551   0.000000
     9  F    4.484053   3.207212   4.654427   0.000000
    10  F    2.361027   2.316419   3.518060   2.350474   0.000000
    11  F    4.593622   2.499489   3.766581   2.077248   3.280843
    12  H    2.220424   3.090569   0.963974   5.405803   3.967622
                   11         12
    11  F    0.000000
    12  H    4.698960   0.000000
 Symmetry turned off by external request.
 Stoichiometry    C2HF5O3S
 Rotational constants (GHZ):           1.4674171           0.9456516           0.8983399
 Leave Link  202 at Sat May 24 04:43:43 2025, MaxMem=  3758096384 cpu:               0.0 elap:               0.0
 (Enter /apps/easybuild-2022/easybuild/software/Compiler/NVHPC/22.11-CUDA-11.7.0/Gaussian/g16c01-CUDA-11.7.0/g16/l301.exe)
 Standard basis: def2TZVPP (5D, 7F)
 Ernie: Thresh=  0.10000D-02 Tol=  0.10000D-05 Strict=F.
   366 basis functions,   596 primitive gaussians,   423 cartesian basis functions
    49 alpha electrons       49 beta electrons
       nuclear repulsion energy       948.2557504164 Hartrees.
 IExCor= 4336 DFT=T Ex+Corr=M062X ExCW=0 ScaHFX=  0.540000
 ScaDFX=  1.000000  1.000000  1.000000  1.000000 ScalE2=  1.000000  1.000000
 IRadAn=      5 IRanWt=     -1 IRanGd=            0 ICorTp=0 IEmpDi=  4
 NAtoms=   12 NActive=   12 NUniq=   12 SFac= 1.00D+00 NAtFMM=   60 NAOKFM=F Big=F
 Integral buffers will be    131072 words long.
 Raffenetti 2 integral format.
 Two-electron integral symmetry is turned off.
 Leave Link  301 at Sat May 24 04:43:43 2025, MaxMem=  3758096384 cpu:               0.0 elap:               0.0
 (Enter /apps/easybuild-2022/easybuild/software/Compiler/NVHPC/22.11-CUDA-11.7.0/Gaussian/g16c01-CUDA-11.7.0/g16/l302.exe)
 NPDir=0 NMtPBC=     1 NCelOv=     1 NCel=       1 NClECP=     1 NCelD=      1
         NCelK=      1 NCelE2=     1 NClLst=     1 CellRange=     0.0.
 One-electron integrals computed using PRISM.
   1 Symmetry operations used in ECPInt.
 ECPInt:  NShTT=    8515 NPrTT=   27988 LenC2=    8052 LenP2D=   19632.
 LDataN:  DoStor=T MaxTD1= 6 Len=  172
 NBasis=   366 RedAO= T EigKep=  3.04D-04  NBF=   366
 NBsUse=   366 1.00D-06 EigRej= -1.00D+00 NBFU=   366
 Precomputing XC quadrature grid using
 IXCGrd= 4 IRadAn=           5 IRanWt=          -1 IRanGd=           0 AccXCQ= 0.00D+00.
 Generated NRdTot=       0 NPtTot=           0 NUsed=           0 NTot=          32
 NSgBfM=   420   420   420   420   420 MxSgAt=    12 MxSgA2=    12.
 Leave Link  302 at Sat May 24 04:43:43 2025, MaxMem=  3758096384 cpu:               0.8 elap:               0.2
 (Enter /apps/easybuild-2022/easybuild/software/Compiler/NVHPC/22.11-CUDA-11.7.0/Gaussian/g16c01-CUDA-11.7.0/g16/l303.exe)
 DipDrv:  MaxL=1.
 Leave Link  303 at Sat May 24 04:43:43 2025, MaxMem=  3758096384 cpu:               0.1 elap:               0.0
 (Enter /apps/easybuild-2022/easybuild/software/Compiler/NVHPC/22.11-CUDA-11.7.0/Gaussian/g16c01-CUDA-11.7.0/g16/l401.exe)
 Initial guess from the checkpoint file:  "2003846667223680600001_r12_insertion_R_9_1_10_IRC_R.chk"
 B after Tr=     0.000021    0.000057   -0.000006
         Rot=    1.000000   -0.000016    0.000007   -0.000010 Ang=  -0.00 deg.
 Guess basis will be translated and rotated to current coordinates.
 JPrj=2 DoOrth=T DoCkMO=T.
 Generating alternative initial guess.
 ExpMin= 9.52D-02 ExpMax= 6.07D+04 ExpMxC= 2.07D+03 IAcc=3 IRadAn=         5 AccDes= 0.00D+00
 Harris functional with IExCor= 1009 and IRadAn=       5 diagonalized for initial guess.
 HarFok:  IExCor= 1009 AccDes= 0.00D+00 IRadAn=         5 IDoV= 1 UseB2=F ITyADJ=14
 ICtDFT=  3500011 ScaDFX=  1.000000  1.000000  1.000000  1.000000
 FoFCou: FMM=F IPFlag=           0 FMFlag=      100000 FMFlg1=           0
         NFxFlg=           0 DoJE=T BraDBF=F KetDBF=T FulRan=T
         wScrn=  0.000000 ICntrl=       500 IOpCl=  0 I1Cent=   200000004 NGrid=           0
         NMat0=    1 NMatS0=      1 NMatT0=    0 NMatD0=    1 NMtDS0=    0 NMtDT0=    0
 Symmetry not used in FoFCou.
 Harris En= -1199.25422682499    
 Leave Link  401 at Sat May 24 04:43:44 2025, MaxMem=  3758096384 cpu:               4.7 elap:               0.7
 (Enter /apps/easybuild-2022/easybuild/software/Compiler/NVHPC/22.11-CUDA-11.7.0/Gaussian/g16c01-CUDA-11.7.0/g16/l502.exe)
 Keep R1 ints in memory in canonical form, NReq=2293447020.
 FoFCou: FMM=F IPFlag=           0 FMFlag=           0 FMFlg1=           0
         NFxFlg=           0 DoJE=F BraDBF=F KetDBF=F FulRan=T
         wScrn=  0.000000 ICntrl=       600 IOpCl=  0 I1Cent=           0 NGrid=           0
         NMat0=    1 NMatS0=  67161 NMatT0=    0 NMatD0=    1 NMtDS0=    0 NMtDT0=    0
 Symmetry not used in FoFCou.
 Two-electron integral symmetry not used.
 Closed shell SCF:
 Using DIIS extrapolation, IDIIS=  1040.
 NGot=  3758096384 LenX=  1502398648 LenY=  1502219278
 Requested convergence on RMS density matrix=1.00D-08 within  32 cycles.
 Requested convergence on MAX density matrix=1.00D-06.
 Requested convergence on             energy=1.00D-06.
 No special actions if energy rises.
 Integral accuracy reduced to 1.0D-05 until final iterations.

 Cycle   1  Pass 0  IDiag  1:
 E= -1199.76416942759    
 DIIS: error= 1.28D-04 at cycle   1 NSaved=   1.
 NSaved= 1 IEnMin= 1 EnMin= -1199.76416942759     IErMin= 1 ErrMin= 1.28D-04
 ErrMax= 1.28D-04  0.00D+00 EMaxC= 1.00D-01 BMatC= 2.73D-05 BMatP= 2.73D-05
 IDIUse=3 WtCom= 9.99D-01 WtEn= 1.28D-03
 Coeff-Com:  0.100D+01
 Coeff-En:   0.100D+01
 Coeff:      0.100D+01
 Gap=     1.141 Goal=   None    Shift=    0.000
 RMSDP=2.21D-05 MaxDP=7.32D-04              OVMax= 2.18D-03

 Cycle   2  Pass 0  IDiag  1:
 E= -1199.76421110647     Delta-E=       -0.000041678875 Rises=F Damp=F
 DIIS: error= 3.72D-05 at cycle   2 NSaved=   2.
 NSaved= 2 IEnMin= 2 EnMin= -1199.76421110647     IErMin= 2 ErrMin= 3.72D-05
 ErrMax= 3.72D-05  0.00D+00 EMaxC= 1.00D-01 BMatC= 1.88D-06 BMatP= 2.73D-05
 IDIUse=1 WtCom= 1.00D+00 WtEn= 0.00D+00
 Coeff-Com: -0.695D-01 0.107D+01
 Coeff:     -0.695D-01 0.107D+01
 Gap=     0.259 Goal=   None    Shift=    0.000
 RMSDP=7.01D-06 MaxDP=2.20D-04 DE=-4.17D-05 OVMax= 9.12D-04

 Initial convergence to 1.0D-05 achieved.  Increase integral accuracy.
 Cycle   3  Pass 1  IDiag  1:
 E= -1199.76421502766     Delta-E=       -0.000003921186 Rises=F Damp=F
 DIIS: error= 3.63D-05 at cycle   1 NSaved=   1.
 NSaved= 1 IEnMin= 1 EnMin= -1199.76421502766     IErMin= 1 ErrMin= 3.63D-05
 ErrMax= 3.63D-05  0.00D+00 EMaxC= 1.00D-01 BMatC= 2.03D-06 BMatP= 2.03D-06
 IDIUse=1 WtCom= 1.00D+00 WtEn= 0.00D+00
 Coeff-Com:  0.100D+01
 Coeff:      0.100D+01
 Gap=     0.259 Goal=   None    Shift=    0.000
 RMSDP=7.01D-06 MaxDP=2.20D-04 DE=-3.92D-06 OVMax= 8.02D-04

 Cycle   4  Pass 1  IDiag  1:
 E= -1199.76421556715     Delta-E=       -0.000000539490 Rises=F Damp=F
 DIIS: error= 3.42D-05 at cycle   2 NSaved=   2.
 NSaved= 2 IEnMin= 2 EnMin= -1199.76421556715     IErMin= 2 ErrMin= 3.42D-05
 ErrMax= 3.42D-05  0.00D+00 EMaxC= 1.00D-01 BMatC= 2.55D-06 BMatP= 2.03D-06
 IDIUse=1 WtCom= 1.00D+00 WtEn= 0.00D+00
 Coeff-Com:  0.535D+00 0.465D+00
 Coeff:      0.535D+00 0.465D+00
 Gap=     0.259 Goal=   None    Shift=    0.000
 RMSDP=3.13D-06 MaxDP=1.53D-04 DE=-5.39D-07 OVMax= 2.73D-04

 Cycle   5  Pass 1  IDiag  1:
 E= -1199.76421719604     Delta-E=       -0.000001628890 Rises=F Damp=F
 DIIS: error= 1.32D-05 at cycle   3 NSaved=   3.
 NSaved= 3 IEnMin= 3 EnMin= -1199.76421719604     IErMin= 3 ErrMin= 1.32D-05
 ErrMax= 1.32D-05  0.00D+00 EMaxC= 1.00D-01 BMatC= 9.17D-08 BMatP= 2.03D-06
 IDIUse=1 WtCom= 1.00D+00 WtEn= 0.00D+00
 Coeff-Com: -0.321D-01 0.117D+00 0.915D+00
 Coeff:     -0.321D-01 0.117D+00 0.915D+00
 Gap=     0.259 Goal=   None    Shift=    0.000
 RMSDP=1.35D-06 MaxDP=4.69D-05 DE=-1.63D-06 OVMax= 2.16D-04

 Cycle   6  Pass 1  IDiag  1:
 E= -1199.76421734949     Delta-E=       -0.000000153450 Rises=F Damp=F
 DIIS: error= 4.03D-06 at cycle   4 NSaved=   4.
 NSaved= 4 IEnMin= 4 EnMin= -1199.76421734949     IErMin= 4 ErrMin= 4.03D-06
 ErrMax= 4.03D-06  0.00D+00 EMaxC= 1.00D-01 BMatC= 2.83D-08 BMatP= 9.17D-08
 IDIUse=1 WtCom= 1.00D+00 WtEn= 0.00D+00
 Coeff-Com: -0.512D-01 0.748D-02 0.430D+00 0.614D+00
 Coeff:     -0.512D-01 0.748D-02 0.430D+00 0.614D+00
 Gap=     0.259 Goal=   None    Shift=    0.000
 RMSDP=4.87D-07 MaxDP=1.63D-05 DE=-1.53D-07 OVMax= 6.32D-05

 Cycle   7  Pass 1  IDiag  1:
 E= -1199.76421738545     Delta-E=       -0.000000035961 Rises=F Damp=F
 DIIS: error= 2.14D-06 at cycle   5 NSaved=   5.
 NSaved= 5 IEnMin= 5 EnMin= -1199.76421738545     IErMin= 5 ErrMin= 2.14D-06
 ErrMax= 2.14D-06  0.00D+00 EMaxC= 1.00D-01 BMatC= 4.16D-09 BMatP= 2.83D-08
 IDIUse=1 WtCom= 1.00D+00 WtEn= 0.00D+00
 Coeff-Com:  0.547D-02-0.539D-01-0.218D+00 0.104D+00 0.116D+01
 Coeff:      0.547D-02-0.539D-01-0.218D+00 0.104D+00 0.116D+01
 Gap=     0.259 Goal=   None    Shift=    0.000
 RMSDP=5.06D-07 MaxDP=1.82D-05 DE=-3.60D-08 OVMax= 8.82D-05

 Cycle   8  Pass 1  IDiag  1:
 E= -1199.76421740052     Delta-E=       -0.000000015073 Rises=F Damp=F
 DIIS: error= 7.55D-07 at cycle   6 NSaved=   6.
 NSaved= 6 IEnMin= 6 EnMin= -1199.76421740052     IErMin= 6 ErrMin= 7.55D-07
 ErrMax= 7.55D-07  0.00D+00 EMaxC= 1.00D-01 BMatC= 8.31D-10 BMatP= 4.16D-09
 IDIUse=1 WtCom= 1.00D+00 WtEn= 0.00D+00
 Coeff-Com:  0.828D-02-0.295D-01-0.156D+00-0.378D-01 0.536D+00 0.679D+00
 Coeff:      0.828D-02-0.295D-01-0.156D+00-0.378D-01 0.536D+00 0.679D+00
 Gap=     0.259 Goal=   None    Shift=    0.000
 RMSDP=1.43D-07 MaxDP=5.60D-06 DE=-1.51D-08 OVMax= 2.12D-05

 Cycle   9  Pass 1  IDiag  1:
 E= -1199.76421740193     Delta-E=       -0.000000001408 Rises=F Damp=F
 DIIS: error= 1.92D-07 at cycle   7 NSaved=   7.
 NSaved= 7 IEnMin= 7 EnMin= -1199.76421740193     IErMin= 7 ErrMin= 1.92D-07
 ErrMax= 1.92D-07  0.00D+00 EMaxC= 1.00D-01 BMatC= 5.61D-11 BMatP= 8.31D-10
 IDIUse=1 WtCom= 1.00D+00 WtEn= 0.00D+00
 Coeff-Com:  0.195D-02-0.302D-02-0.199D-01-0.277D-01 0.244D-01 0.212D+00
 Coeff-Com:  0.812D+00
 Coeff:      0.195D-02-0.302D-02-0.199D-01-0.277D-01 0.244D-01 0.212D+00
 Coeff:      0.812D+00
 Gap=     0.259 Goal=   None    Shift=    0.000
 RMSDP=3.75D-08 MaxDP=1.54D-06 DE=-1.41D-09 OVMax= 6.19D-06

 Cycle  10  Pass 1  IDiag  1:
 E= -1199.76421740199     Delta-E=       -0.000000000066 Rises=F Damp=F
 DIIS: error= 9.36D-08 at cycle   8 NSaved=   8.
 NSaved= 8 IEnMin= 8 EnMin= -1199.76421740199     IErMin= 8 ErrMin= 9.36D-08
 ErrMax= 9.36D-08  0.00D+00 EMaxC= 1.00D-01 BMatC= 1.11D-11 BMatP= 5.61D-11
 IDIUse=1 WtCom= 1.00D+00 WtEn= 0.00D+00
 Coeff-Com: -0.663D-04 0.216D-02 0.102D-01-0.734D-02-0.509D-01 0.920D-02
 Coeff-Com:  0.353D+00 0.683D+00
 Coeff:     -0.663D-04 0.216D-02 0.102D-01-0.734D-02-0.509D-01 0.920D-02
 Coeff:      0.353D+00 0.683D+00
 Gap=     0.259 Goal=   None    Shift=    0.000
 RMSDP=1.11D-08 MaxDP=3.71D-07 DE=-6.64D-11 OVMax= 1.74D-06

 Cycle  11  Pass 1  IDiag  1:
 E= -1199.76421740185     Delta-E=        0.000000000144 Rises=F Damp=F
 DIIS: error= 3.81D-08 at cycle   9 NSaved=   9.
 NSaved= 9 IEnMin= 8 EnMin= -1199.76421740199     IErMin= 9 ErrMin= 3.81D-08
 ErrMax= 3.81D-08  0.00D+00 EMaxC= 1.00D-01 BMatC= 2.08D-12 BMatP= 1.11D-11
 IDIUse=1 WtCom= 1.00D+00 WtEn= 0.00D+00
 Coeff-Com: -0.375D-03 0.163D-02 0.866D-02 0.447D-03-0.313D-01-0.293D-01
 Coeff-Com:  0.505D-01 0.334D+00 0.666D+00
 Coeff:     -0.375D-03 0.163D-02 0.866D-02 0.447D-03-0.313D-01-0.293D-01
 Coeff:      0.505D-01 0.334D+00 0.666D+00
 Gap=     0.259 Goal=   None    Shift=    0.000
 RMSDP=4.81D-09 MaxDP=1.74D-07 DE= 1.44D-10 OVMax= 7.99D-07

 SCF Done:  E(RM062X) =  -1199.76421740     A.U. after   11 cycles
            NFock= 11  Conv=0.48D-08     -V/T= 2.0029
 KE= 1.196336764883D+03 PE=-4.742675598041D+03 EE= 1.398318865340D+03
 Leave Link  502 at Sat May 24 04:44:19 2025, MaxMem=  3758096384 cpu:             154.2 elap:              34.8
 (Enter /apps/easybuild-2022/easybuild/software/Compiler/NVHPC/22.11-CUDA-11.7.0/Gaussian/g16c01-CUDA-11.7.0/g16/l508.exe)
 QCSCF skips out because SCF is already converged.
 Leave Link  508 at Sat May 24 04:44:19 2025, MaxMem=  3758096384 cpu:               0.0 elap:               0.0
 (Enter /apps/easybuild-2022/easybuild/software/Compiler/NVHPC/22.11-CUDA-11.7.0/Gaussian/g16c01-CUDA-11.7.0/g16/l801.exe)
 DoSCS=F DFT=T ScalE2(SS,OS)=  1.000000  1.000000
 Range of M.O.s used for correlation:     1   366
 NBasis=   366 NAE=    49 NBE=    49 NFC=     0 NFV=     0
 NROrb=    366 NOA=    49 NOB=    49 NVA=   317 NVB=   317

 **** Warning!!: The largest alpha MO coefficient is  0.15689124D+02

 Leave Link  801 at Sat May 24 04:44:19 2025, MaxMem=  3758096384 cpu:               0.0 elap:               0.0
 (Enter /apps/easybuild-2022/easybuild/software/Compiler/NVHPC/22.11-CUDA-11.7.0/Gaussian/g16c01-CUDA-11.7.0/g16/l1101.exe)
 Leave Link 1101 at Sat May 24 04:44:19 2025, MaxMem=  3758096384 cpu:               0.0 elap:               0.0
 (Enter /apps/easybuild-2022/easybuild/software/Compiler/NVHPC/22.11-CUDA-11.7.0/Gaussian/g16c01-CUDA-11.7.0/g16/l1102.exe)
 Symmetrizing basis deriv contribution to polar:
 IMax=3 JMax=2 DiffMx= 0.00D+00
 Leave Link 1102 at Sat May 24 04:44:19 2025, MaxMem=  3758096384 cpu:               0.1 elap:               0.0
 (Enter /apps/easybuild-2022/easybuild/software/Compiler/NVHPC/22.11-CUDA-11.7.0/Gaussian/g16c01-CUDA-11.7.0/g16/l1110.exe)
 Leave Link 1110 at Sat May 24 04:44:19 2025, MaxMem=  3758096384 cpu:               0.0 elap:               0.0
 (Enter /apps/easybuild-2022/easybuild/software/Compiler/NVHPC/22.11-CUDA-11.7.0/Gaussian/g16c01-CUDA-11.7.0/g16/l1002.exe)
 Minotr:  Closed shell wavefunction.
 Leave Link 1002 at Sat May 24 04:44:19 2025, MaxMem=  3758096384 cpu:               0.0 elap:               0.0
 (Enter /apps/easybuild-2022/easybuild/software/Compiler/NVHPC/22.11-CUDA-11.7.0/Gaussian/g16c01-CUDA-11.7.0/g16/l701.exe)
 ... and contract with generalized density number  0.
 Compute integral first derivatives.
   1 Symmetry operations used in ECPInt.
 ECPInt:  NShTT=    8515 NPrTT=   27988 LenC2=    8052 LenP2D=   19632.
 LDataN:  DoStor=T MaxTD1= 7 Len=  274
 Leave Link  701 at Sat May 24 04:44:19 2025, MaxMem=  3758096384 cpu:               0.5 elap:               0.1
 (Enter /apps/easybuild-2022/easybuild/software/Compiler/NVHPC/22.11-CUDA-11.7.0/Gaussian/g16c01-CUDA-11.7.0/g16/l702.exe)
 L702 exits ... SP integral derivatives will be done elsewhere.
 Leave Link  702 at Sat May 24 04:44:19 2025, MaxMem=  3758096384 cpu:               0.0 elap:               0.0
 (Enter /apps/easybuild-2022/easybuild/software/Compiler/NVHPC/22.11-CUDA-11.7.0/Gaussian/g16c01-CUDA-11.7.0/g16/l703.exe)
 Integral derivatives from FoFJK, PRISM(SPDF).
 Compute integral first derivatives, UseDBF=F ICtDFT=           0.
 Calling FoFJK, ICntrl=      2127 FMM=F ISym2X=0 I1Cent= 0 IOpClX= 0 NMat=1 NMatS=1 NMatT=0.
 FoFJK:  IHMeth= 1 ICntrl=    2127 DoSepK=F KAlg= 0 I1Cent=           0 FoldK=F
 IRaf=         0 NMat=       1 IRICut=       1 DoRegI=T DoRafI=F ISym2E= 0 IDoP0=0 IntGTp=1.
 FoFCou: FMM=F IPFlag=           0 FMFlag=      100000 FMFlg1=         800
         NFxFlg=           0 DoJE=F BraDBF=F KetDBF=F FulRan=T
         wScrn=  0.000000 ICntrl=      2127 IOpCl=  0 I1Cent=           0 NGrid=           0
         NMat0=    1 NMatS0=      1 NMatT0=    0 NMatD0=    1 NMtDS0=    0 NMtDT0=    0
 Symmetry not used in FoFCou.
 Leave Link  703 at Sat May 24 04:44:33 2025, MaxMem=  3758096384 cpu:             109.8 elap:              13.9
 (Enter /apps/easybuild-2022/easybuild/software/Compiler/NVHPC/22.11-CUDA-11.7.0/Gaussian/g16c01-CUDA-11.7.0/g16/l716.exe)
 Dipole        =-1.82859598D+00 5.05511591D-01-2.98385481D-01
 Polarizability= 0.00000000D+00 0.00000000D+00 0.00000000D+00
                 0.00000000D+00 0.00000000D+00 0.00000000D+00
 -------------------------------------------------------------------
 Center     Atomic                   Forces (Hartrees/Bohr)
 Number     Number              X              Y              Z
 -------------------------------------------------------------------
      1        6          -0.000375452   -0.000042073    0.000908885
      2        6           0.000055408   -0.000103807    0.000016453
      3        9          -0.000076482   -0.000186841    0.000013399
      4        9           0.000430801    0.000177822    0.000039396
      5       16           0.000504206    0.000538779   -0.001634055
      6        8          -0.000501583   -0.000007840    0.000388719
      7        8           0.001743691    0.000432479   -0.000857838
      8        8           0.000065883    0.000659956    0.000080443
      9        9          -0.001409026    0.000087223    0.000978679
     10        9          -0.001532809   -0.001050325   -0.000632236
     11        9           0.001126086   -0.000565010    0.000651443
     12        1          -0.000030724    0.000059637    0.000046714
 -------------------------------------------------------------------
 Cartesian Forces:  Max     0.001743691 RMS     0.000708898
 Leave Link  716 at Sat May 24 04:44:33 2025, MaxMem=  3758096384 cpu:               0.0 elap:               0.0
 (Enter /apps/easybuild-2022/easybuild/software/Compiler/NVHPC/22.11-CUDA-11.7.0/Gaussian/g16c01-CUDA-11.7.0/g16/l123.exe)
 IRC-IRC-IRC-IRC-IRC-IRC-IRC-IRC-IRC-IRC-IRC-IRC-IRC-IRC-IRC-IRC-IRC-IRC
 Pt  3 Step number   1 out of a maximum of  20
 Using modified Bulirsch-Stoer corrector integration.
   Using distance weighted interpolants to fit PES.
 PreDWI: IReCr0= 2 IReCr1= 1 IReCr2= 1 IReCr3= 1
 Modified Bulirsch-Stoer Extrapolation Cycles:
    EPS =    0.000010000000000
    Cycle     1 NS=    48
      PEZero:  N= 2 I= 1 D=  4.12D-04 Err=  6.68D-06
    Cycle     2 NS=    64 Truncation Error =  0.000006678
 BS completed in    2 cycles and     112 integration steps.
 Maximum DWI energy   std dev =  0.000000017 at pt    36
 Maximum DWI gradient std dev =  0.007928254 at pt    28
 SUMMARY OF CORRECTOR INTEGRATION:
   Predictor End Point Energy = -1199.764217
   Old End Point Energy       = -1199.764217
   Corrected End Point Energy = -1199.764217
   Predictor End-Start Dist.  =     0.079150
   Old End-Start Dist.        =     0.079150
   New End-Start Dist.        =     0.079149
   New End-Old End Dist.      =     0.000535
 CORRECTOR INTEGRATION CONVERGENCE:
   Recorrection delta-x convergence threshold:    0.010000
   Delta-x Convergence Met
 Point Number:   3          Path Number:   1
                    CURRENT STRUCTURE
                Cartesian Coordinates (Ang):                
 ---------------------------------------------------------------------
 Center     Atomic                     Coordinates (Angstroms)
 Number     Number                        X           Y           Z
 ---------------------------------------------------------------------
      1          6                   -1.172259   -0.795875   -0.062785
      2          6                   -0.565137    0.571727    0.363032
      3          9                   -1.218820    1.496107   -0.339183
      4          9                   -0.754050    0.813380    1.641062
      5         16                    1.155779    0.230404   -0.238665
      6          8                    2.362386    0.427095    0.492925
      7          8                    0.797070   -0.776255   -1.225596
      8          8                    1.177463    1.544041   -1.188692
      9          9                   -1.591775   -1.675643    0.716225
     10          9                    0.663109   -1.109874    1.062735
     11          9                   -1.699851   -0.886591   -1.202283
     12          1                    1.931348    2.082633   -0.922588
 ---------------------------------------------------------------------
   CHANGE IN THE REACTION COORDINATE =    0.07915
   NET REACTION COORDINATE UP TO THIS POINT =    0.23746
  # OF POINTS ALONG THE PATH =   3
  # OF STEPS =   1

 Calculating another point on the path.
 Point Number  4 in REVERSE path direction.
 Using LQA Reaction Path Following.
   LQA: T_Est iteration completed in    3 iterations.
 IRC-IRC-IRC-IRC-IRC-IRC-IRC-IRC-IRC-IRC-IRC-IRC-IRC-IRC-IRC-IRC-IRC-IRC
 Leave Link  123 at Sat May 24 04:44:33 2025, MaxMem=  3758096384 cpu:               0.1 elap:               0.0
 (Enter /apps/easybuild-2022/easybuild/software/Compiler/NVHPC/22.11-CUDA-11.7.0/Gaussian/g16c01-CUDA-11.7.0/g16/l202.exe)
                          Input orientation:                          
 ---------------------------------------------------------------------
 Center     Atomic      Atomic             Coordinates (Angstroms)
 Number     Number       Type             X           Y           Z
 ---------------------------------------------------------------------
      1          6           0       -1.173636   -0.796095   -0.059546
      2          6           0       -0.564858    0.571388    0.363096
      3          9           0       -1.219000    1.495682   -0.339152
      4          9           0       -0.753090    0.813777    1.641149
      5         16           0        1.156416    0.231121   -0.240854
      6          8           0        2.361073    0.427073    0.493970
      7          8           0        0.801690   -0.775082   -1.227851
      8          8           0        1.177636    1.545792   -1.188495
      9          9           0       -1.594906   -1.675419    0.718402
     10          9           0        0.659659   -1.112240    1.061317
     11          9           0       -1.697301   -0.887860   -1.200815
     12          1           0        1.930222    2.085335   -0.920596
 ---------------------------------------------------------------------
                    Distance matrix (angstroms):
                    1          2          3          4          5
     1  C    0.000000
     2  C    1.555393   0.000000
     3  F    2.309217   1.332431   0.000000
     4  F    2.379267   1.314383   2.145614   0.000000
     5  S    2.552878   1.855619   2.692839   2.743654   0.000000
     6  O    3.781096   2.932410   3.827916   3.341193   1.424627
     7  O    2.295058   2.492298   3.166914   3.629459   1.453423
     8  O    3.505344   2.528474   2.543178   3.502917   1.620751
     9  F    1.247350   2.497075   3.363868   2.784998   3.482074
    10  F    2.171924   2.195805   3.505986   2.457968   1.935726
    11  F    1.259024   2.420258   2.579246   3.444396   3.212062
    12  H    4.321803   3.188311   3.256281   3.921678   2.121069
                    6          7          8          9         10
     6  O    0.000000
     7  O    2.615630   0.000000
     8  O    2.341526   2.351454   0.000000
     9  F    4.485601   3.215926   4.658266   0.000000
    10  F    2.363509   2.318220   3.520666   2.349006   0.000000
    11  F    4.590397   2.501680   3.766706   2.077048   3.274577
    12  H    2.221815   3.090303   0.963983   5.408892   3.970743
                   11         12
    11  F    0.000000
    12  H    4.698652   0.000000
 Symmetry turned off by external request.
 Stoichiometry    C2HF5O3S
 Rotational constants (GHZ):           1.4675501           0.9450024           0.8979866
 Leave Link  202 at Sat May 24 04:44:33 2025, MaxMem=  3758096384 cpu:               0.0 elap:               0.0
 (Enter /apps/easybuild-2022/easybuild/software/Compiler/NVHPC/22.11-CUDA-11.7.0/Gaussian/g16c01-CUDA-11.7.0/g16/l301.exe)
 Standard basis: def2TZVPP (5D, 7F)
 Ernie: Thresh=  0.10000D-02 Tol=  0.10000D-05 Strict=F.
   366 basis functions,   596 primitive gaussians,   423 cartesian basis functions
    49 alpha electrons       49 beta electrons
       nuclear repulsion energy       948.1127447577 Hartrees.
 IExCor= 4336 DFT=T Ex+Corr=M062X ExCW=0 ScaHFX=  0.540000
 ScaDFX=  1.000000  1.000000  1.000000  1.000000 ScalE2=  1.000000  1.000000
 IRadAn=      5 IRanWt=     -1 IRanGd=            0 ICorTp=0 IEmpDi=  4
 NAtoms=   12 NActive=   12 NUniq=   12 SFac= 1.00D+00 NAtFMM=   60 NAOKFM=F Big=F
 Integral buffers will be    131072 words long.
 Raffenetti 2 integral format.
[...]
 IDIUse=1 WtCom= 1.00D+00 WtEn= 0.00D+00
 Coeff-Com:  0.452D+00 0.548D+00
 Coeff:      0.452D+00 0.548D+00
 Gap=     0.427 Goal=   None    Shift=    0.000
 RMSDP=1.89D-06 MaxDP=1.24D-04 DE=-5.91D-07 OVMax= 1.54D-04

 Cycle   5  Pass 1  IDiag  1:
 E= -1199.87165129193     Delta-E=       -0.000000662077 Rises=F Damp=F
 DIIS: error= 8.74D-06 at cycle   3 NSaved=   3.
 NSaved= 3 IEnMin= 3 EnMin= -1199.87165129193     IErMin= 3 ErrMin= 8.74D-06
 ErrMax= 8.74D-06  0.00D+00 EMaxC= 1.00D-01 BMatC= 9.38D-08 BMatP= 1.25D-06
 IDIUse=1 WtCom= 1.00D+00 WtEn= 0.00D+00
 Coeff-Com: -0.329D-01 0.193D+00 0.840D+00
 Coeff:     -0.329D-01 0.193D+00 0.840D+00
 Gap=     0.427 Goal=   None    Shift=    0.000
 RMSDP=8.17D-07 MaxDP=3.12D-05 DE=-6.62D-07 OVMax= 5.41D-05

 Cycle   6  Pass 1  IDiag  1:
 E= -1199.87165134611     Delta-E=       -0.000000054184 Rises=F Damp=F
 DIIS: error= 2.72D-06 at cycle   4 NSaved=   4.
 NSaved= 4 IEnMin= 4 EnMin= -1199.87165134611     IErMin= 4 ErrMin= 2.72D-06
 ErrMax= 2.72D-06  0.00D+00 EMaxC= 1.00D-01 BMatC= 8.54D-09 BMatP= 9.38D-08
 IDIUse=1 WtCom= 1.00D+00 WtEn= 0.00D+00
 Coeff-Com: -0.286D-01 0.803D-01 0.411D+00 0.537D+00
 Coeff:     -0.286D-01 0.803D-01 0.411D+00 0.537D+00
 Gap=     0.427 Goal=   None    Shift=    0.000
 RMSDP=1.92D-07 MaxDP=8.47D-06 DE=-5.42D-08 OVMax= 1.96D-05

 Cycle   7  Pass 1  IDiag  1:
 E= -1199.87165135198     Delta-E=       -0.000000005867 Rises=F Damp=F
 DIIS: error= 8.70D-07 at cycle   5 NSaved=   5.
 NSaved= 5 IEnMin= 5 EnMin= -1199.87165135198     IErMin= 5 ErrMin= 8.70D-07
 ErrMax= 8.70D-07  0.00D+00 EMaxC= 1.00D-01 BMatC= 7.56D-10 BMatP= 8.54D-09
 IDIUse=1 WtCom= 1.00D+00 WtEn= 0.00D+00
 Coeff-Com: -0.670D-02 0.366D-02 0.325D-01 0.218D+00 0.752D+00
 Coeff:     -0.670D-02 0.366D-02 0.325D-01 0.218D+00 0.752D+00
 Gap=     0.427 Goal=   None    Shift=    0.000
 RMSDP=7.47D-08 MaxDP=2.73D-06 DE=-5.87D-09 OVMax= 7.49D-06

 Cycle   8  Pass 1  IDiag  1:
 E= -1199.87165135254     Delta-E=       -0.000000000566 Rises=F Damp=F
 DIIS: error= 2.83D-07 at cycle   6 NSaved=   6.
 NSaved= 6 IEnMin= 6 EnMin= -1199.87165135254     IErMin= 6 ErrMin= 2.83D-07
 ErrMax= 2.83D-07  0.00D+00 EMaxC= 1.00D-01 BMatC= 1.02D-10 BMatP= 7.56D-10
 IDIUse=1 WtCom= 1.00D+00 WtEn= 0.00D+00
 Coeff-Com:  0.167D-02-0.107D-01-0.517D-01 0.103D-01 0.312D+00 0.738D+00
 Coeff:      0.167D-02-0.107D-01-0.517D-01 0.103D-01 0.312D+00 0.738D+00
 Gap=     0.427 Goal=   None    Shift=    0.000
 RMSDP=2.73D-08 MaxDP=1.08D-06 DE=-5.66D-10 OVMax= 2.14D-06

 Cycle   9  Pass 1  IDiag  1:
 E= -1199.87165135262     Delta-E=       -0.000000000075 Rises=F Damp=F
 DIIS: error= 5.75D-08 at cycle   7 NSaved=   7.
 NSaved= 7 IEnMin= 7 EnMin= -1199.87165135262     IErMin= 7 ErrMin= 5.75D-08
 ErrMax= 5.75D-08  0.00D+00 EMaxC= 1.00D-01 BMatC= 5.79D-12 BMatP= 1.02D-10
 IDIUse=1 WtCom= 1.00D+00 WtEn= 0.00D+00
 Coeff-Com:  0.947D-03-0.406D-02-0.198D-01-0.787D-02 0.616D-01 0.251D+00
 Coeff-Com:  0.718D+00
 Coeff:      0.947D-03-0.406D-02-0.198D-01-0.787D-02 0.616D-01 0.251D+00
 Coeff:      0.718D+00
 Gap=     0.427 Goal=   None    Shift=    0.000
 RMSDP=6.56D-09 MaxDP=3.32D-07 DE=-7.46D-11 OVMax= 5.65D-07

 SCF Done:  E(RM062X) =  -1199.87165135     A.U. after    9 cycles
            NFock=  9  Conv=0.66D-08     -V/T= 2.0028
 KE= 1.196551586103D+03 PE=-4.737016849952D+03 EE= 1.395382687444D+03
 Leave Link  502 at Sat May 24 06:00:33 2025, MaxMem=  3758096384 cpu:             133.5 elap:              29.3
 (Enter /apps/easybuild-2022/easybuild/software/Compiler/NVHPC/22.11-CUDA-11.7.0/Gaussian/g16c01-CUDA-11.7.0/g16/l508.exe)
 QCSCF skips out because SCF is already converged.
 Leave Link  508 at Sat May 24 06:00:33 2025, MaxMem=  3758096384 cpu:               0.0 elap:               0.0
 (Enter /apps/easybuild-2022/easybuild/software/Compiler/NVHPC/22.11-CUDA-11.7.0/Gaussian/g16c01-CUDA-11.7.0/g16/l801.exe)
 DoSCS=F DFT=T ScalE2(SS,OS)=  1.000000  1.000000
 Range of M.O.s used for correlation:     1   366
 NBasis=   366 NAE=    49 NBE=    49 NFC=     0 NFV=     0
 NROrb=    366 NOA=    49 NOB=    49 NVA=   317 NVB=   317

 **** Warning!!: The largest alpha MO coefficient is  0.14855508D+02

 Leave Link  801 at Sat May 24 06:00:33 2025, MaxMem=  3758096384 cpu:               0.0 elap:               0.0
 (Enter /apps/easybuild-2022/easybuild/software/Compiler/NVHPC/22.11-CUDA-11.7.0/Gaussian/g16c01-CUDA-11.7.0/g16/l1101.exe)
 Leave Link 1101 at Sat May 24 06:00:33 2025, MaxMem=  3758096384 cpu:               0.0 elap:               0.0
 (Enter /apps/easybuild-2022/easybuild/software/Compiler/NVHPC/22.11-CUDA-11.7.0/Gaussian/g16c01-CUDA-11.7.0/g16/l1102.exe)
 Symmetrizing basis deriv contribution to polar:
 IMax=3 JMax=2 DiffMx= 0.00D+00
 Leave Link 1102 at Sat May 24 06:00:34 2025, MaxMem=  3758096384 cpu:               0.1 elap:               0.0
 (Enter /apps/easybuild-2022/easybuild/software/Compiler/NVHPC/22.11-CUDA-11.7.0/Gaussian/g16c01-CUDA-11.7.0/g16/l1110.exe)
 Leave Link 1110 at Sat May 24 06:00:34 2025, MaxMem=  3758096384 cpu:               0.0 elap:               0.0
 (Enter /apps/easybuild-2022/easybuild/software/Compiler/NVHPC/22.11-CUDA-11.7.0/Gaussian/g16c01-CUDA-11.7.0/g16/l1002.exe)
 Minotr:  Closed shell wavefunction.
 Leave Link 1002 at Sat May 24 06:00:34 2025, MaxMem=  3758096384 cpu:               0.0 elap:               0.0
 (Enter /apps/easybuild-2022/easybuild/software/Compiler/NVHPC/22.11-CUDA-11.7.0/Gaussian/g16c01-CUDA-11.7.0/g16/l701.exe)
 ... and contract with generalized density number  0.
 Compute integral first derivatives.
   1 Symmetry operations used in ECPInt.
 ECPInt:  NShTT=    8515 NPrTT=   27988 LenC2=    8044 LenP2D=   19622.
 LDataN:  DoStor=T MaxTD1= 7 Len=  274
 Leave Link  701 at Sat May 24 06:00:34 2025, MaxMem=  3758096384 cpu:               0.5 elap:               0.1
 (Enter /apps/easybuild-2022/easybuild/software/Compiler/NVHPC/22.11-CUDA-11.7.0/Gaussian/g16c01-CUDA-11.7.0/g16/l702.exe)
 L702 exits ... SP integral derivatives will be done elsewhere.
 Leave Link  702 at Sat May 24 06:00:34 2025, MaxMem=  3758096384 cpu:               0.0 elap:               0.0
 (Enter /apps/easybuild-2022/easybuild/software/Compiler/NVHPC/22.11-CUDA-11.7.0/Gaussian/g16c01-CUDA-11.7.0/g16/l703.exe)
 Integral derivatives from FoFJK, PRISM(SPDF).
 Compute integral first derivatives, UseDBF=F ICtDFT=           0.
 Calling FoFJK, ICntrl=      2127 FMM=F ISym2X=0 I1Cent= 0 IOpClX= 0 NMat=1 NMatS=1 NMatT=0.
 FoFJK:  IHMeth= 1 ICntrl=    2127 DoSepK=F KAlg= 0 I1Cent=           0 FoldK=F
 IRaf=         0 NMat=       1 IRICut=       1 DoRegI=T DoRafI=F ISym2E= 0 IDoP0=0 IntGTp=1.
 FoFCou: FMM=F IPFlag=           0 FMFlag=      100000 FMFlg1=         800
         NFxFlg=           0 DoJE=F BraDBF=F KetDBF=F FulRan=T
         wScrn=  0.000000 ICntrl=      2127 IOpCl=  0 I1Cent=           0 NGrid=           0
         NMat0=    1 NMatS0=      1 NMatT0=    0 NMatD0=    1 NMtDS0=    0 NMtDT0=    0
 Symmetry not used in FoFCou.
 Leave Link  703 at Sat May 24 06:00:48 2025, MaxMem=  3758096384 cpu:             109.6 elap:              13.9
 (Enter /apps/easybuild-2022/easybuild/software/Compiler/NVHPC/22.11-CUDA-11.7.0/Gaussian/g16c01-CUDA-11.7.0/g16/l716.exe)
 Dipole        =-2.20685157D-01 1.04782898D+00 1.10885727D-01
 Polarizability= 0.00000000D+00 0.00000000D+00 0.00000000D+00
                 0.00000000D+00 0.00000000D+00 0.00000000D+00
 -------------------------------------------------------------------
 Center     Atomic                   Forces (Hartrees/Bohr)
 Number     Number              X              Y              Z
 -------------------------------------------------------------------
      1        6           0.001595480   -0.004314876    0.009308616
      2        6           0.000420474   -0.001234633    0.001498225
      3        9          -0.003405983   -0.005926278    0.000872004
      4        9           0.010642928    0.006852113    0.001493562
      5       16           0.003581502    0.015857818   -0.011135692
      6        8          -0.006289042    0.001236030    0.003857976
      7        8           0.012703767    0.007755912   -0.006048480
      8        8           0.003288845    0.010070316   -0.002106231
      9        9          -0.021477722    0.015234659    0.015131758
     10        9          -0.026283163   -0.028647558   -0.024758725
     11        9           0.025666890   -0.017828058    0.011405892
     12        1          -0.000443975    0.000944555    0.000481095
 -------------------------------------------------------------------
 Cartesian Forces:  Max     0.028647558 RMS     0.012128515
 Leave Link  716 at Sat May 24 06:00:48 2025, MaxMem=  3758096384 cpu:               0.0 elap:               0.0
 (Enter /apps/easybuild-2022/easybuild/software/Compiler/NVHPC/22.11-CUDA-11.7.0/Gaussian/g16c01-CUDA-11.7.0/g16/l123.exe)
 IRC-IRC-IRC-IRC-IRC-IRC-IRC-IRC-IRC-IRC-IRC-IRC-IRC-IRC-IRC-IRC-IRC-IRC
 Pt100 Step number   1 out of a maximum of  20
 Using modified Bulirsch-Stoer corrector integration.
   Using distance weighted interpolants to fit PES.
 PreDWI: IReCr0= 2 IReCr1= 1 IReCr2= 1 IReCr3= 1
 Modified Bulirsch-Stoer Extrapolation Cycles:
    EPS =    0.000010000000000
    Cycle     1 NS=    48
      PEZero:  N= 2 I= 1 D=  4.12D-04 Err=  5.34D-06
    Cycle     2 NS=    64 Truncation Error =  0.000005343
 BS completed in    2 cycles and     112 integration steps.
 Maximum DWI energy   std dev =  0.000000044 at pt    47
 Maximum DWI gradient std dev =  0.000542800 at pt    29
 SUMMARY OF CORRECTOR INTEGRATION:
   Predictor End Point Energy = -1199.871651
   Old End Point Energy       = -1199.871651
   Corrected End Point Energy = -1199.871651
   Predictor End-Start Dist.  =     0.079157
   Old End-Start Dist.        =     0.079157
   New End-Start Dist.        =     0.079156
   New End-Old End Dist.      =     0.000047
 CORRECTOR INTEGRATION CONVERGENCE:
   Recorrection delta-x convergence threshold:    0.010000
   Delta-x Convergence Met
 Point Number: 100          Path Number:   1
                    CURRENT STRUCTURE
                Cartesian Coordinates (Ang):                
 ---------------------------------------------------------------------
 Center     Atomic                     Coordinates (Angstroms)
 Number     Number                        X           Y           Z
 ---------------------------------------------------------------------
      1          6                   -0.976365   -0.915244    0.213577
      2          6                   -0.575769    0.558181    0.377497
      3          9                   -1.236887    1.456845   -0.333837
      4          9                   -0.653864    0.873769    1.660848
      5         16                    1.192753    0.360512   -0.383586
      6          8                    2.256121    0.406894    0.557698
      7          8                    1.028786   -0.685109   -1.326208
      8          8                    1.216293    1.687502   -1.216276
      9          9                   -1.845287   -1.595599    0.904805
     10          9                    0.221761   -1.390726    0.809698
     11          9                   -1.401042   -1.033939   -1.053709
     12          1                    1.863052    2.299868   -0.840531
 ---------------------------------------------------------------------
   CHANGE IN THE REACTION COORDINATE =    0.07916
   NET REACTION COORDINATE UP TO THIS POINT =    7.91557
  # OF POINTS ALONG THE PATH = 100
  # OF STEPS =   1

 Maximum number of steps reached.
 Calculation of REVERSE path complete.
 Reaction path calculation complete.
 
 Energies reported relative to the TS energy of       -1199.764100
 --------------------------------------------------------------------------
    Summary of reaction path following
 --------------------------------------------------------------------------
                        Energy    RxCoord
   1                   -0.10755  -7.91557
   2                   -0.10622  -7.83642
   3                   -0.10487  -7.75726
   4                   -0.10350  -7.67810
   5                   -0.10211  -7.59895
   6                   -0.10070  -7.51979
   7                   -0.09928  -7.44064
   8                   -0.09784  -7.36148
   9                   -0.09638  -7.28233
  10                   -0.09490  -7.20317
  11                   -0.09340  -7.12402
  12                   -0.09189  -7.04486
  13                   -0.09036  -6.96570
  14                   -0.08882  -6.88655
  15                   -0.08726  -6.80739
  16                   -0.08569  -6.72824
  17                   -0.08411  -6.64908
  18                   -0.08252  -6.56992
  19                   -0.08091  -6.49077
  20                   -0.07930  -6.41161
  21                   -0.07768  -6.33245
  22                   -0.07606  -6.25330
  23                   -0.07443  -6.17414
  24                   -0.07280  -6.09498
  25                   -0.07117  -6.01583
  26                   -0.06954  -5.93667
  27                   -0.06791  -5.85751
  28                   -0.06628  -5.77836
  29                   -0.06466  -5.69920
  30                   -0.06304  -5.62004
  31                   -0.06143  -5.54088
  32                   -0.05983  -5.46173
  33                   -0.05823  -5.38257
  34                   -0.05665  -5.30341
  35                   -0.05507  -5.22426
  36                   -0.05351  -5.14510
  37                   -0.05197  -5.06594
  38                   -0.05043  -4.98679
  39                   -0.04891  -4.90763
  40                   -0.04741  -4.82847
  41                   -0.04592  -4.74932
  42                   -0.04445  -4.67016
  43                   -0.04300  -4.59100
  44                   -0.04157  -4.51185
  45                   -0.04016  -4.43269
  46                   -0.03876  -4.35353
  47                   -0.03739  -4.27438
  48                   -0.03604  -4.19522
  49                   -0.03471  -4.11606
  50                   -0.03340  -4.03691
  51                   -0.03211  -3.95775
  52                   -0.03085  -3.87859
  53                   -0.02960  -3.79943
  54                   -0.02839  -3.72028
  55                   -0.02719  -3.64112
  56                   -0.02602  -3.56196
  57                   -0.02487  -3.48281
  58                   -0.02375  -3.40365
  59                   -0.02265  -3.32450
  60                   -0.02158  -3.24534
  61                   -0.02053  -3.16618
  62                   -0.01951  -3.08703
  63                   -0.01851  -3.00787
  64                   -0.01754  -2.92871
  65                   -0.01659  -2.84956
  66                   -0.01567  -2.77040
  67                   -0.01477  -2.69124
  68                   -0.01391  -2.61209
  69                   -0.01306  -2.53293
  70                   -0.01225  -2.45377
  71                   -0.01146  -2.37462
  72                   -0.01069  -2.29546
  73                   -0.00996  -2.21631
  74                   -0.00925  -2.13715
  75                   -0.00857  -2.05799
  76                   -0.00791  -1.97884
  77                   -0.00728  -1.89968
  78                   -0.00668  -1.82053
  79                   -0.00611  -1.74137
  80                   -0.00556  -1.66222
  81                   -0.00504  -1.58306
  82                   -0.00455  -1.50391
  83                   -0.00408  -1.42475
  84                   -0.00364  -1.34560
  85                   -0.00323  -1.26644
  86                   -0.00284  -1.18729
  87                   -0.00247  -1.10814
  88                   -0.00214  -1.02898
  89                   -0.00182  -0.94983
  90                   -0.00154  -0.87068
  91                   -0.00127  -0.79152
  92                   -0.00103  -0.71237
  93                   -0.00082  -0.63322
  94                   -0.00063  -0.55407
  95                   -0.00046  -0.47491
  96                   -0.00032  -0.39576
  97                   -0.00021  -0.31661
  98                   -0.00012  -0.23746
  99                   -0.00005  -0.15831
 100                   -0.00001  -0.07917
 101                    0.00000   0.00000
 --------------------------------------------------------------------------
 
 Total number of points:                  100
 Total number of gradient calculations:   100
 Total number of Hessian calculations:      0
 IRC-IRC-IRC-IRC-IRC-IRC-IRC-IRC-IRC-IRC-IRC-IRC-IRC-IRC-IRC-IRC-IRC-IRC
 Leave Link  123 at Sat May 24 06:00:48 2025, MaxMem=  3758096384 cpu:               0.1 elap:               0.0
 (Enter /apps/easybuild-2022/easybuild/software/Compiler/NVHPC/22.11-CUDA-11.7.0/Gaussian/g16c01-CUDA-11.7.0/g16/l202.exe)
                          Input orientation:                          
 ---------------------------------------------------------------------
 Center     Atomic      Atomic             Coordinates (Angstroms)
 Number     Number       Type             X           Y           Z
 ---------------------------------------------------------------------
      1          6           0       -0.976363   -0.915242    0.213582
      2          6           0       -0.575770    0.558180    0.377497
      3          9           0       -1.236887    1.456846   -0.333837
      4          9           0       -0.653864    0.873769    1.660849
      5         16           0        1.192753    0.360512   -0.383586
      6          8           0        2.256121    0.406894    0.557699
      7          8           0        1.028786   -0.685109   -1.326208
      8          8           0        1.216293    1.687501   -1.216276
      9          9           0       -1.845288   -1.595600    0.904805
     10          9           0        0.221761   -1.390726    0.809697
     11          9           0       -1.401043   -1.033939   -1.053712
     12          1           0        1.863059    2.299873   -0.840530
 ---------------------------------------------------------------------
                    Distance matrix (angstroms):
                    1          2          3          4          5
     1  C    0.000000
     2  C    1.535682   0.000000
     3  F    2.448334   1.323129   0.000000
     4  F    2.323607   1.323891   2.158394   0.000000
     5  S    2.586354   1.935457   2.666003   2.802346   0.000000
     6  O    3.509333   2.841650   3.754776   3.146892   1.420887
     7  O    2.538609   2.650090   3.272008   3.766154   1.417301
     8  O    3.691410   2.650843   2.617248   3.526683   1.566789
     9  F    1.302193   2.555093   3.349897   2.844095   3.836146
    10  F    1.420190   2.149672   3.397644   2.572764   2.331005
    11  F    1.341818   2.294401   2.597917   3.400950   3.020155
    12  H    4.417062   3.234960   3.252244   3.824339   2.102196
                    6          7          8          9         10
     6  O    0.000000
     7  O    2.499585   0.000000
     8  O    2.422434   2.382545   0.000000
     9  F    4.577338   3.750561   4.964979   0.000000
    10  F    2.726456   2.389827   3.816955   2.079354   0.000000
    11  F    4.248234   2.469818   3.779300   2.085331   2.496614
    12  H    2.385982   3.137198   0.966690   5.654444   4.363212
                   11         12
    11  F    0.000000
    12  H    4.670557   0.000000
 Symmetry turned off by external request.
 Stoichiometry    C2HF5O3S
 Rotational constants (GHZ):           1.5373651           0.9136379           0.8627939
 Leave Link  202 at Sat May 24 06:00:48 2025, MaxMem=  3758096384 cpu:               0.0 elap:               0.0
 (Enter /apps/easybuild-2022/easybuild/software/Compiler/NVHPC/22.11-CUDA-11.7.0/Gaussian/g16c01-CUDA-11.7.0/g16/l9999.exe)

 This type of calculation cannot be archived.


 Sorry, no quote for you today!
 Job cpu time:       0 days  7 hours 12 minutes  3.8 seconds.
 Elapsed time:       0 days  1 hours 18 minutes 29.2 seconds.
 File lengths (MBytes):  RWF=     63 Int=      0 D2E=      0 Chk=     13 Scr=      1
 Normal termination of Gaussian 16 at Sat May 24 06:00:48 2025.
done
