 Entering Gaussian System, Link 0=g16
 Initial command:
 /apps/easybuild-2022/easybuild/software/Compiler/NVHPC/22.11-CUDA-11.7.0/Gaussian/g16c01-CUDA-11.7.0/g16/l1.exe "/tmp/Gau-258002.inp" -scrdir="/tmp/"
 Entering Link 1 = /apps/easybuild-2022/easybuild/software/Compiler/NVHPC/22.11-CUDA-11.7.0/Gaussian/g16c01-CUDA-11.7.0/g16/l1.exe PID=    258003.
  
 Copyright (c) 1988-2019, Gaussian, Inc.  All Rights Reserved.
  
 This is part of the Gaussian(R) 16 program.  It is based on
 the Gaussian(R) 09 system (copyright 2009, Gaussian, Inc.),
 the Gaussian(R) 03 system (copyright 2003, Gaussian, Inc.),
 the Gaussian(R) 98 system (copyright 1998, Gaussian, Inc.),
 the Gaussian(R) 94 system (copyright 1995, Gaussian, Inc.),
 the Gaussian 92(TM) system (copyright 1992, Gaussian, Inc.),
 the Gaussian 90(TM) system (copyright 1990, Gaussian, Inc.),
 the Gaussian 88(TM) system (copyright 1988, Gaussian, Inc.),
 the Gaussian 86(TM) system (copyright 1986, Carnegie Mellon
 University), and the Gaussian 82(TM) system (copyright 1983,
 Carnegie Mellon University). Gaussian is a federally registered
 trademark of Gaussian, Inc.
  
 This software contains proprietary and confidential information,
 including trade secrets, belonging to Gaussian, Inc.
  
 This software is provided under written license and may be
 used, copied, transmitted, or stored only in accord with that
 written license.
  
 The following legend is applicable only to US Government
 contracts under FAR:
  
                    RESTRICTED RIGHTS LEGEND
  
 Use, reproduction and disclosure by the US Government is
 subject to restrictions as set forth in subparagraphs (a)
 and (c) of the Commercial Computer Software - Restricted
 Rights clause in FAR 52.227-19.
  
 Gaussian, Inc.
 340 Quinnipiac St., Bldg. 40, Wallingford CT 06492
  
  
 ---------------------------------------------------------------
 Warning -- This program may not be used in any manner that
 competes with the business of Gaussian, Inc. or will provide
 assistance to any competitor of Gaussian, Inc.  The licensee
 of this program is prohibited from giving any competitor of
 Gaussian, Inc. access to this program.  By using this program,
 the user acknowledges that Gaussian, Inc. is engaged in the
 business of creating and licensing software in the field of
 computational chemistry and represents and warrants to the
 licensee that it is not a competitor of Gaussian, Inc. and that
 it will not use this program in any manner prohibited above.
 ---------------------------------------------------------------
  

 Cite this work as:
 Gaussian 16, Revision C.01,
 M. J. Frisch, G. W. Trucks, H. B. Schlegel, G. E. Scuseria, 
 M. A. Robb, J. R. Cheeseman, G. Scalmani, V. Barone, 
 G. A. Petersson, H. Nakatsuji, X. Li, M. Caricato, A. V. Marenich, 
 J. Bloino, B. G. Janesko, R. Gomperts, B. Mennucci, H. P. Hratchian, 
 J. V. Ortiz, A. F. Izmaylov, J. L. Sonnenberg, D. Williams-Young, 
 F. Ding, F. Lipparini, F. Egidi, J. Goings, B. Peng, A. Petrone, 
 T. Henderson, D. Ranasinghe, V. G. Zakrzewski, J. Gao, N. Rega, 
 G. Zheng, W. Liang, M. Hada, M. Ehara, K. Toyota, R. Fukuda, 
 J. Hasegawa, M. Ishida, T. Nakajima, Y. Honda, O. Kitao, H. Nakai, 
 T. Vreven, K. Throssell, J. A. Montgomery, Jr., J. E. Peralta, 
 F. Ogliaro, M. J. Bearpark, J. J. Heyd, E. N. Brothers, K. N. Kudin, 
 V. N. Staroverov, T. A. Keith, R. Kobayashi, J. Normand, 
 K. Raghavachari, A. P. Rendell, J. C. Burant, S. S. Iyengar, 
 J. Tomasi, M. Cossi, J. M. Millam, M. Klene, C. Adamo, R. Cammi, 
 J. W. Ochterski, R. L. Martin, K. Morokuma, O. Farkas, 
 J. B. Foresman, and D. J. Fox, Gaussian, Inc., Wallingford CT, 2019.
 
 ******************************************
 Gaussian 16:  ES64L-G16RevC.01  3-Jul-2019
                24-May-2025 
 ******************************************
 %mem=28GB
 %chk=2003846667223680600001_r12_insertion_R_6_5_7_IRC_R_prod
 %nprocshared=8
 Will use up to    8 processors via shared memory.
 -----------------------------------------------------------------
 #P M062X/Def2TZVPP Symm(None) scf(xqc) pop(None) freq opt(CalcFC)
 -----------------------------------------------------------------
 1/10=4,18=20,19=15,26=3,38=1/1,3;
 2/9=110,12=2,15=3,17=6,18=5,40=1/2;
 3/5=44,7=202,11=2,25=1,30=1,71=2,74=-55,140=1/1,2,3;
 4//1;
 5/5=2,8=3,13=1,38=5/2,8;
 8/6=4,10=90,11=11/1;
 11/6=1,8=1,9=11,15=111,16=1,31=1/1,2,10;
 10/6=1,13=1,31=1/2;
 7/10=1,25=1,30=1/1,2,3,16;
 1/10=4,18=20,19=15,26=3/3(2);
 2/9=110,15=3/2;
 99//99;
 2/9=110,15=3/2;
 3/5=44,7=202,11=2,25=1,30=1,71=1,74=-55/1,2,3;
 4/5=5,16=3,69=1/1;
 5/5=2,8=3,13=1,38=5/2,8;
 7/30=1/1,2,3,16;
 1/18=20,19=15,26=3/3(-5);
 2/9=110,15=3/2;
 99/9=1/99;
 Leave Link    1 at Sat May 24 05:33:22 2025, MaxMem=  3758096384 cpu:               0.0 elap:               0.0
 (Enter /apps/easybuild-2022/easybuild/software/Compiler/NVHPC/22.11-CUDA-11.7.0/Gaussian/g16c01-CUDA-11.7.0/g16/l101.exe)
 ------------------------------
 Gaussian input prepared by ASE
 ------------------------------
 Symbolic Z-matrix:
 Charge =  0 Multiplicity = 1
 C                    -1.13396  -0.6738    0.67953 
 C                    -0.62458   0.34771  -0.35472 
 F                    -1.05471  -0.05905  -1.5642 
 F                    -1.17878   1.5382   -0.08324 
 S                     1.23123   0.67642  -0.65599 
 O                     1.70134  -0.80726  -0.66707 
 O                     2.91043   0.07423  -0.68683 
 O                     1.37857   1.26437   0.81776 
 F                    -0.77895  -1.90138   0.32755 
 F                    -0.65414  -0.41313   1.88595 
 F                    -2.46126  -0.6185    0.73161 
 H                     2.31882   1.40482   0.99029 
 
 ITRead=  0  0  0  0  0  0  0  0  0  0  0  0
 MicOpt= -1 -1 -1 -1 -1 -1 -1 -1 -1 -1 -1 -1
 NAtoms=     12 NQM=       12 NQMF=       0 NMMI=      0 NMMIF=      0
                NMic=       0 NMicF=      0.
                    Isotopes and Nuclear Properties:
 (Nuclear quadrupole moments (NQMom) in fm**2, nuclear magnetic moments (NMagM)
  in nuclear magnetons)

  Atom         1           2           3           4           5           6           7           8           9          10
 IAtWgt=          12          12          19          19          32          16          16          16          19          19
 AtmWgt=  12.0000000  12.0000000  18.9984032  18.9984032  31.9720718  15.9949146  15.9949146  15.9949146  18.9984032  18.9984032
 NucSpn=           0           0           1           1           0           0           0           0           1           1
 AtZEff=  -0.0000000  -0.0000000  -0.0000000  -0.0000000  -0.0000000  -0.0000000  -0.0000000  -0.0000000  -0.0000000  -0.0000000
 NQMom=    0.0000000   0.0000000   0.0000000   0.0000000   0.0000000   0.0000000   0.0000000   0.0000000   0.0000000   0.0000000
 NMagM=    0.0000000   0.0000000   2.6288670   2.6288670   0.0000000   0.0000000   0.0000000   0.0000000   2.6288670   2.6288670
 AtZNuc=   6.0000000   6.0000000   9.0000000   9.0000000  16.0000000   8.0000000   8.0000000   8.0000000   9.0000000   9.0000000

  Atom        11          12
 IAtWgt=          19           1
 AtmWgt=  18.9984032   1.0078250
 NucSpn=           1           1
 AtZEff=  -0.0000000  -0.0000000
 NQMom=    0.0000000   0.0000000
 NMagM=    2.6288670   2.7928460
 AtZNuc=   9.0000000   1.0000000
 Leave Link  101 at Sat May 24 05:33:22 2025, MaxMem=  3758096384 cpu:               0.2 elap:               0.2
 (Enter /apps/easybuild-2022/easybuild/software/Compiler/NVHPC/22.11-CUDA-11.7.0/Gaussian/g16c01-CUDA-11.7.0/g16/l103.exe)

 GradGradGradGradGradGradGradGradGradGradGradGradGradGradGradGradGradGrad
 Berny optimization.
 Initialization pass.
                           ----------------------------
                           !    Initial Parameters    !
                           ! (Angstroms and Degrees)  !
 --------------------------                            --------------------------
 ! Name  Definition              Value          Derivative Info.                !
 --------------------------------------------------------------------------------
 ! R1    R(1,2)                  1.5403         calculate D2E/DX2 analytically  !
 ! R2    R(1,9)                  1.3255         calculate D2E/DX2 analytically  !
 ! R3    R(1,10)                 1.3242         calculate D2E/DX2 analytically  !
 ! R4    R(1,11)                 1.3295         calculate D2E/DX2 analytically  !
 ! R5    R(2,3)                  1.3466         calculate D2E/DX2 analytically  !
 ! R6    R(2,4)                  1.3409         calculate D2E/DX2 analytically  !
 ! R7    R(2,5)                  1.9086         calculate D2E/DX2 analytically  !
 ! R8    R(5,6)                  1.5564         calculate D2E/DX2 analytically  !
 ! R9    R(5,7)                  1.7842         calculate D2E/DX2 analytically  !
 ! R10   R(5,8)                  1.5935         calculate D2E/DX2 analytically  !
 ! R11   R(6,7)                  1.4964         calculate D2E/DX2 analytically  !
 ! R12   R(8,12)                 0.9662         calculate D2E/DX2 analytically  !
 ! A1    A(2,1,9)              110.3234         calculate D2E/DX2 analytically  !
 ! A2    A(2,1,10)             111.1823         calculate D2E/DX2 analytically  !
 ! A3    A(2,1,11)             109.2004         calculate D2E/DX2 analytically  !
 ! A4    A(9,1,10)             109.0982         calculate D2E/DX2 analytically  !
 ! A5    A(9,1,11)             108.4406         calculate D2E/DX2 analytically  !
 ! A6    A(10,1,11)            108.5341         calculate D2E/DX2 analytically  !
 ! A7    A(1,2,3)              107.2852         calculate D2E/DX2 analytically  !
 ! A8    A(1,2,4)              108.4308         calculate D2E/DX2 analytically  !
 ! A9    A(1,2,5)              122.8023         calculate D2E/DX2 analytically  !
 ! A10   A(3,2,4)              108.5421         calculate D2E/DX2 analytically  !
 ! A11   A(3,2,5)              102.7577         calculate D2E/DX2 analytically  !
 ! A12   A(4,2,5)              106.3148         calculate D2E/DX2 analytically  !
 ! A13   A(2,5,6)               97.5065         calculate D2E/DX2 analytically  !
 ! A14   A(2,5,7)              149.2852         calculate D2E/DX2 analytically  !
 ! A15   A(2,5,8)               90.4277         calculate D2E/DX2 analytically  !
 ! A16   A(6,5,8)              109.2917         calculate D2E/DX2 analytically  !
 ! A17   A(7,5,8)               93.0668         calculate D2E/DX2 analytically  !
 ! A18   A(5,8,12)             107.9841         calculate D2E/DX2 analytically  !
 ! D1    D(9,1,2,3)             53.2357         calculate D2E/DX2 analytically  !
 ! D2    D(9,1,2,4)            170.2847         calculate D2E/DX2 analytically  !
 ! D3    D(9,1,2,5)            -65.1698         calculate D2E/DX2 analytically  !
 ! D4    D(10,1,2,3)           174.415          calculate D2E/DX2 analytically  !
 ! D5    D(10,1,2,4)           -68.536          calculate D2E/DX2 analytically  !
 ! D6    D(10,1,2,5)            56.0095         calculate D2E/DX2 analytically  !
 ! D7    D(11,1,2,3)           -65.8536         calculate D2E/DX2 analytically  !
 ! D8    D(11,1,2,4)            51.1954         calculate D2E/DX2 analytically  !
 ! D9    D(11,1,2,5)           175.7409         calculate D2E/DX2 analytically  !
 ! D10   D(1,2,5,6)             44.1153         calculate D2E/DX2 analytically  !
 ! D11   D(1,2,5,7)             31.3268         calculate D2E/DX2 analytically  !
 ! D12   D(1,2,5,8)            -65.4102         calculate D2E/DX2 analytically  !
 ! D13   D(3,2,5,6)            -76.4402         calculate D2E/DX2 analytically  !
 ! D14   D(3,2,5,7)            -89.2287         calculate D2E/DX2 analytically  !
 ! D15   D(3,2,5,8)            174.0343         calculate D2E/DX2 analytically  !
 ! D16   D(4,2,5,6)            169.6058         calculate D2E/DX2 analytically  !
 ! D17   D(4,2,5,7)            156.8172         calculate D2E/DX2 analytically  !
 ! D18   D(4,2,5,8)             60.0802         calculate D2E/DX2 analytically  !
 ! D19   D(2,5,8,12)           171.5324         calculate D2E/DX2 analytically  !
 ! D20   D(6,5,8,12)            73.425          calculate D2E/DX2 analytically  !
 ! D21   D(7,5,8,12)            22.0609         calculate D2E/DX2 analytically  !
 --------------------------------------------------------------------------------
 Trust Radius=3.00D-01 FncErr=1.00D-07 GrdErr=1.00D-06 EigMax=2.50D+02 EigMin=1.00D-04
 Number of steps in this run=     61 maximum allowed number of steps=    100.
 GradGradGradGradGradGradGradGradGradGradGradGradGradGradGradGradGradGrad

 Leave Link  103 at Sat May 24 05:33:22 2025, MaxMem=  3758096384 cpu:               0.0 elap:               0.0
 (Enter /apps/easybuild-2022/easybuild/software/Compiler/NVHPC/22.11-CUDA-11.7.0/Gaussian/g16c01-CUDA-11.7.0/g16/l202.exe)
                          Input orientation:                          
 ---------------------------------------------------------------------
 Center     Atomic      Atomic             Coordinates (Angstroms)
 Number     Number       Type             X           Y           Z
 ---------------------------------------------------------------------
      1          6           0       -1.133956   -0.673799    0.679533
      2          6           0       -0.624579    0.347708   -0.354715
      3          9           0       -1.054707   -0.059050   -1.564200
      4          9           0       -1.178780    1.538201   -0.083235
      5         16           0        1.231231    0.676416   -0.655985
      6          8           0        1.701342   -0.807262   -0.667068
      7          8           0        2.910426    0.074231   -0.686833
      8          8           0        1.378571    1.264369    0.817761
      9          9           0       -0.778945   -1.901382    0.327548
     10          9           0       -0.654136   -0.413126    1.885946
     11          9           0       -2.461264   -0.618503    0.731613
     12          1           0        2.318819    1.404820    0.990292
 ---------------------------------------------------------------------
                    Distance matrix (angstroms):
                    1          2          3          4          5
     1  C    0.000000
     2  C    1.540328   0.000000
     3  F    2.327775   1.346594   0.000000
     4  F    2.340250   1.340938   2.181711   0.000000
     5  S    3.033282   1.908623   2.567348   2.622760   0.000000
     6  O    3.141665   2.615612   2.993405   3.759942   1.556415
     7  O    4.333997   3.561089   4.063227   4.385105   1.784173
     8  O    3.176223   2.495511   3.653220   2.725220   1.593526
     9  F    1.325476   2.355359   2.654984   3.487025   3.413676
    10  F    1.324239   2.366496   3.491323   2.821454   3.347107
    11  F    1.329480   2.342453   2.749936   2.638203   4.151718
    12  H    4.042138   3.404427   4.477613   3.661072   2.103247
                    6          7          8          9         10
     6  O    0.000000
     7  O    1.496431   0.000000
     8  O    2.569154   2.454956   0.000000
     9  F    2.887591   4.306213   3.862274   0.000000
    10  F    3.495926   4.422987   2.843749   2.158492   0.000000
    11  F    4.395364   5.598832   4.277495   2.153890   2.154153
    12  H    2.832212   2.221084   0.966209   4.578902   3.597997
                   11         12
    11  F    0.000000
    12  H    5.197109   0.000000
 Symmetry turned off by external request.
 Stoichiometry    C2HF5O3S
 Rotational constants (GHZ):           1.6215582           0.7687155           0.7404320
 Leave Link  202 at Sat May 24 05:33:23 2025, MaxMem=  3758096384 cpu:               0.0 elap:               0.0
 (Enter /apps/easybuild-2022/easybuild/software/Compiler/NVHPC/22.11-CUDA-11.7.0/Gaussian/g16c01-CUDA-11.7.0/g16/l301.exe)
 Standard basis: def2TZVPP (5D, 7F)
 Ernie: Thresh=  0.10000D-02 Tol=  0.10000D-05 Strict=F.
   366 basis functions,   596 primitive gaussians,   423 cartesian basis functions
    49 alpha electrons       49 beta electrons
       nuclear repulsion energy       909.2803157522 Hartrees.
 IExCor= 4336 DFT=T Ex+Corr=M062X ExCW=0 ScaHFX=  0.540000
 ScaDFX=  1.000000  1.000000  1.000000  1.000000 ScalE2=  1.000000  1.000000
 IRadAn=      5 IRanWt=     -1 IRanGd=            0 ICorTp=0 IEmpDi=  4
 NAtoms=   12 NActive=   12 NUniq=   12 SFac= 1.00D+00 NAtFMM=   60 NAOKFM=F Big=F
 Integral buffers will be    131072 words long.
 Raffenetti 2 integral format.
 Two-electron integral symmetry is turned off.
 Leave Link  301 at Sat May 24 05:33:23 2025, MaxMem=  3758096384 cpu:               0.0 elap:               0.0
 (Enter /apps/easybuild-2022/easybuild/software/Compiler/NVHPC/22.11-CUDA-11.7.0/Gaussian/g16c01-CUDA-11.7.0/g16/l302.exe)
 NPDir=0 NMtPBC=     1 NCelOv=     1 NCel=       1 NClECP=     1 NCelD=      1
         NCelK=      1 NCelE2=     1 NClLst=     1 CellRange=     0.0.
 One-electron integrals computed using PRISM.
   1 Symmetry operations used in ECPInt.
 ECPInt:  NShTT=    8515 NPrTT=   27988 LenC2=    7971 LenP2D=   19314.
 LDataN:  DoStor=T MaxTD1= 6 Len=  172
 NBasis=   366 RedAO= T EigKep=  4.79D-04  NBF=   366
 NBsUse=   366 1.00D-06 EigRej= -1.00D+00 NBFU=   366
 Precomputing XC quadrature grid using
 IXCGrd= 4 IRadAn=           5 IRanWt=          -1 IRanGd=           0 AccXCQ= 0.00D+00.
 Generated NRdTot=       0 NPtTot=           0 NUsed=           0 NTot=          32
 NSgBfM=   419   419   419   419   419 MxSgAt=    12 MxSgA2=    12.
 Leave Link  302 at Sat May 24 05:33:23 2025, MaxMem=  3758096384 cpu:               0.7 elap:               0.2
 (Enter /apps/easybuild-2022/easybuild/software/Compiler/NVHPC/22.11-CUDA-11.7.0/Gaussian/g16c01-CUDA-11.7.0/g16/l303.exe)
 DipDrv:  MaxL=1.
 Leave Link  303 at Sat May 24 05:33:23 2025, MaxMem=  3758096384 cpu:               0.1 elap:               0.0
 (Enter /apps/easybuild-2022/easybuild/software/Compiler/NVHPC/22.11-CUDA-11.7.0/Gaussian/g16c01-CUDA-11.7.0/g16/l401.exe)
 ExpMin= 9.52D-02 ExpMax= 6.07D+04 ExpMxC= 2.07D+03 IAcc=3 IRadAn=         5 AccDes= 0.00D+00
 Harris functional with IExCor= 1009 and IRadAn=       5 diagonalized for initial guess.
 HarFok:  IExCor= 1009 AccDes= 0.00D+00 IRadAn=         5 IDoV= 1 UseB2=F ITyADJ=14
 ICtDFT=  3500011 ScaDFX=  1.000000  1.000000  1.000000  1.000000
 FoFCou: FMM=F IPFlag=           0 FMFlag=      100000 FMFlg1=           0
         NFxFlg=           0 DoJE=T BraDBF=F KetDBF=T FulRan=T
         wScrn=  0.000000 ICntrl=       500 IOpCl=  0 I1Cent=   200000004 NGrid=           0
         NMat0=    1 NMatS0=      1 NMatT0=    0 NMatD0=    1 NMtDS0=    0 NMtDT0=    0
 Symmetry not used in FoFCou.
 Harris En= -1199.14404448026    
 JPrj=0 DoOrth=F DoCkMO=F.
 Leave Link  401 at Sat May 24 05:33:23 2025, MaxMem=  3758096384 cpu:               4.1 elap:               0.6
 (Enter /apps/easybuild-2022/easybuild/software/Compiler/NVHPC/22.11-CUDA-11.7.0/Gaussian/g16c01-CUDA-11.7.0/g16/l502.exe)
 Keep R1 ints in memory in canonical form, NReq=2293446996.
 FoFCou: FMM=F IPFlag=           0 FMFlag=           0 FMFlg1=           0
         NFxFlg=           0 DoJE=F BraDBF=F KetDBF=F FulRan=T
         wScrn=  0.000000 ICntrl=       600 IOpCl=  0 I1Cent=           0 NGrid=           0
         NMat0=    1 NMatS0=  67161 NMatT0=    0 NMatD0=    1 NMtDS0=    0 NMtDT0=    0
 Symmetry not used in FoFCou.
 Two-electron integral symmetry not used.
 Closed shell SCF:
 Using DIIS extrapolation, IDIIS=  1040.
 NGot=  3758096384 LenX=  1502398672 LenY=  1502219302
 Requested convergence on RMS density matrix=1.00D-08 within  32 cycles.
 Requested convergence on MAX density matrix=1.00D-06.
 Requested convergence on             energy=1.00D-06.
 No special actions if energy rises.
 Integral accuracy reduced to 1.0D-05 until final iterations.

 Cycle   1  Pass 0  IDiag  1:
 E= -1199.57589293791    
 DIIS: error= 1.72D-02 at cycle   1 NSaved=   1.
 NSaved= 1 IEnMin= 1 EnMin= -1199.57589293791     IErMin= 1 ErrMin= 1.72D-02
 ErrMax= 1.72D-02  0.00D+00 EMaxC= 1.00D-01 BMatC= 4.29D-01 BMatP= 4.29D-01
 IDIUse=3 WtCom= 8.28D-01 WtEn= 1.72D-01
 Coeff-Com:  0.100D+01
 Coeff-En:   0.100D+01
 Coeff:      0.100D+01
 Gap=     0.464 Goal=   None    Shift=    0.000
 GapD=    0.464 DampG=2.000 DampE=0.500 DampFc=1.0000 IDamp=-1.
 RMSDP=1.95D-03 MaxDP=1.81D-01              OVMax= 1.75D-01

 Cycle   2  Pass 0  IDiag  1:
 E= -1199.46667063482     Delta-E=        0.109222303087 Rises=F Damp=F
 DIIS: error= 1.86D-02 at cycle   2 NSaved=   2.
 NSaved= 2 IEnMin= 1 EnMin= -1199.57589293791     IErMin= 1 ErrMin= 1.72D-02
 ErrMax= 1.86D-02  0.00D+00 EMaxC= 1.00D-01 BMatC= 4.81D-01 BMatP= 4.29D-01
 IDIUse=2 WtCom= 0.00D+00 WtEn= 1.00D+00
 Coeff-En:   0.604D+00 0.396D+00
 Coeff:      0.604D+00 0.396D+00
 Gap=     0.400 Goal=   None    Shift=    0.000
 RMSDP=9.91D-04 MaxDP=9.27D-02 DE= 1.09D-01 OVMax= 9.83D-02

 Cycle   3  Pass 0  IDiag  1:
 E= -1199.77355591724     Delta-E=       -0.306885282424 Rises=F Damp=F
 DIIS: error= 2.25D-03 at cycle   3 NSaved=   3.
 NSaved= 3 IEnMin= 3 EnMin= -1199.77355591724     IErMin= 3 ErrMin= 2.25D-03
 ErrMax= 2.25D-03  0.00D+00 EMaxC= 1.00D-01 BMatC= 6.62D-03 BMatP= 4.29D-01
 IDIUse=3 WtCom= 9.77D-01 WtEn= 2.25D-02
 Coeff-Com:  0.897D-01 0.417D-01 0.869D+00
 Coeff-En:   0.000D+00 0.000D+00 0.100D+01
 Coeff:      0.876D-01 0.408D-01 0.872D+00
 Gap=     0.344 Goal=   None    Shift=    0.000
 RMSDP=2.44D-04 MaxDP=1.38D-02 DE=-3.07D-01 OVMax= 2.82D-02

 Cycle   4  Pass 0  IDiag  1:
 E= -1199.77143658697     Delta-E=        0.002119330278 Rises=F Damp=F
 DIIS: error= 3.21D-03 at cycle   4 NSaved=   4.
 NSaved= 4 IEnMin= 3 EnMin= -1199.77355591724     IErMin= 3 ErrMin= 2.25D-03
 ErrMax= 3.21D-03  0.00D+00 EMaxC= 1.00D-01 BMatC= 9.21D-03 BMatP= 6.62D-03
 IDIUse=3 WtCom= 1.50D-01 WtEn= 8.50D-01
 Coeff-Com:  0.702D-02-0.223D-01 0.570D+00 0.446D+00
 Coeff-En:   0.000D+00 0.000D+00 0.591D+00 0.409D+00
 Coeff:      0.105D-02-0.334D-02 0.588D+00 0.414D+00
 Gap=     0.349 Goal=   None    Shift=    0.000
 RMSDP=1.33D-04 MaxDP=8.49D-03 DE= 2.12D-03 OVMax= 1.84D-02

 Cycle   5  Pass 0  IDiag  1:
 E= -1199.77744031775     Delta-E=       -0.006003730781 Rises=F Damp=F
 DIIS: error= 5.99D-04 at cycle   5 NSaved=   5.
 NSaved= 5 IEnMin= 5 EnMin= -1199.77744031775     IErMin= 5 ErrMin= 5.99D-04
 ErrMax= 5.99D-04  0.00D+00 EMaxC= 1.00D-01 BMatC= 4.24D-04 BMatP= 6.62D-03
 IDIUse=3 WtCom= 9.94D-01 WtEn= 5.99D-03
 Coeff-Com: -0.345D-02 0.618D-02 0.175D+00 0.149D+00 0.673D+00
 Coeff-En:   0.000D+00 0.000D+00 0.000D+00 0.000D+00 0.100D+01
 Coeff:     -0.343D-02 0.614D-02 0.174D+00 0.148D+00 0.675D+00
 Gap=     0.347 Goal=   None    Shift=    0.000
 RMSDP=3.02D-05 MaxDP=2.65D-03 DE=-6.00D-03 OVMax= 2.60D-03

 Cycle   6  Pass 0  IDiag  1:
 E= -1199.77768643492     Delta-E=       -0.000246117172 Rises=F Damp=F
 DIIS: error= 1.20D-04 at cycle   6 NSaved=   6.
 NSaved= 6 IEnMin= 6 EnMin= -1199.77768643492     IErMin= 6 ErrMin= 1.20D-04
 ErrMax= 1.20D-04  0.00D+00 EMaxC= 1.00D-01 BMatC= 1.20D-05 BMatP= 4.24D-04
 IDIUse=3 WtCom= 9.99D-01 WtEn= 1.20D-03
 Coeff-Com: -0.206D-02 0.372D-02 0.247D-01 0.230D-01 0.261D+00 0.690D+00
 Coeff-En:   0.000D+00 0.000D+00 0.000D+00 0.000D+00 0.000D+00 0.100D+01
 Coeff:     -0.206D-02 0.372D-02 0.247D-01 0.229D-01 0.261D+00 0.690D+00
 Gap=     0.347 Goal=   None    Shift=    0.000
 RMSDP=7.98D-06 MaxDP=3.57D-04 DE=-2.46D-04 OVMax= 7.66D-04

 Initial convergence to 1.0D-05 achieved.  Increase integral accuracy.
 Cycle   7  Pass 1  IDiag  1:
 E= -1199.77772399233     Delta-E=       -0.000037557414 Rises=F Damp=F
 DIIS: error= 3.29D-05 at cycle   1 NSaved=   1.
 NSaved= 1 IEnMin= 1 EnMin= -1199.77772399233     IErMin= 1 ErrMin= 3.29D-05
 ErrMax= 3.29D-05  0.00D+00 EMaxC= 1.00D-01 BMatC= 1.95D-06 BMatP= 1.95D-06
 IDIUse=1 WtCom= 1.00D+00 WtEn= 0.00D+00
 Coeff-Com:  0.100D+01
 Coeff:      0.100D+01
 Gap=     0.347 Goal=   None    Shift=    0.000
 RMSDP=7.98D-06 MaxDP=3.57D-04 DE=-3.76D-05 OVMax= 5.49D-04

 Cycle   8  Pass 1  IDiag  1:
 E= -1199.77772509850     Delta-E=       -0.000001106163 Rises=F Damp=F
 DIIS: error= 2.79D-05 at cycle   2 NSaved=   2.
 NSaved= 2 IEnMin= 2 EnMin= -1199.77772509850     IErMin= 2 ErrMin= 2.79D-05
 ErrMax= 2.79D-05  0.00D+00 EMaxC= 1.00D-01 BMatC= 1.21D-06 BMatP= 1.95D-06
 IDIUse=1 WtCom= 1.00D+00 WtEn= 0.00D+00
 Coeff-Com:  0.422D+00 0.578D+00
 Coeff:      0.422D+00 0.578D+00
 Gap=     0.347 Goal=   None    Shift=    0.000
 RMSDP=2.34D-06 MaxDP=9.06D-05 DE=-1.11D-06 OVMax= 2.83D-04

 Cycle   9  Pass 1  IDiag  1:
 E= -1199.77772585149     Delta-E=       -0.000000752991 Rises=F Damp=F
 DIIS: error= 1.04D-05 at cycle   3 NSaved=   3.
 NSaved= 3 IEnMin= 3 EnMin= -1199.77772585149     IErMin= 3 ErrMin= 1.04D-05
 ErrMax= 1.04D-05  0.00D+00 EMaxC= 1.00D-01 BMatC= 1.48D-07 BMatP= 1.21D-06
 IDIUse=1 WtCom= 1.00D+00 WtEn= 0.00D+00
 Coeff-Com: -0.382D-01 0.233D+00 0.806D+00
 Coeff:     -0.382D-01 0.233D+00 0.806D+00
 Gap=     0.347 Goal=   None    Shift=    0.000
 RMSDP=1.16D-06 MaxDP=5.21D-05 DE=-7.53D-07 OVMax= 1.02D-04

 Cycle  10  Pass 1  IDiag  1:
 E= -1199.77772597427     Delta-E=       -0.000000122783 Rises=F Damp=F
 DIIS: error= 3.57D-06 at cycle   4 NSaved=   4.
 NSaved= 4 IEnMin= 4 EnMin= -1199.77772597427     IErMin= 4 ErrMin= 3.57D-06
 ErrMax= 3.57D-06  0.00D+00 EMaxC= 1.00D-01 BMatC= 1.44D-08 BMatP= 1.48D-07
 IDIUse=1 WtCom= 1.00D+00 WtEn= 0.00D+00
 Coeff-Com: -0.379D-01 0.725D-01 0.354D+00 0.611D+00
 Coeff:     -0.379D-01 0.725D-01 0.354D+00 0.611D+00
 Gap=     0.347 Goal=   None    Shift=    0.000
 RMSDP=2.88D-07 MaxDP=1.09D-05 DE=-1.23D-07 OVMax= 3.27D-05

 Cycle  11  Pass 1  IDiag  1:
 E= -1199.77772598519     Delta-E=       -0.000000010917 Rises=F Damp=F
 DIIS: error= 2.20D-06 at cycle   5 NSaved=   5.
 NSaved= 5 IEnMin= 5 EnMin= -1199.77772598519     IErMin= 5 ErrMin= 2.20D-06
 ErrMax= 2.20D-06  0.00D+00 EMaxC= 1.00D-01 BMatC= 2.30D-09 BMatP= 1.44D-08
 IDIUse=1 WtCom= 1.00D+00 WtEn= 0.00D+00
 Coeff-Com: -0.584D-02-0.214D-01-0.293D-01 0.253D+00 0.804D+00
 Coeff:     -0.584D-02-0.214D-01-0.293D-01 0.253D+00 0.804D+00
 Gap=     0.347 Goal=   None    Shift=    0.000
 RMSDP=1.66D-07 MaxDP=7.66D-06 DE=-1.09D-08 OVMax= 2.11D-05

 Cycle  12  Pass 1  IDiag  1:
 E= -1199.77772598742     Delta-E=       -0.000000002239 Rises=F Damp=F
 DIIS: error= 8.73D-07 at cycle   6 NSaved=   6.
 NSaved= 6 IEnMin= 6 EnMin= -1199.77772598742     IErMin= 6 ErrMin= 8.73D-07
 ErrMax= 8.73D-07  0.00D+00 EMaxC= 1.00D-01 BMatC= 9.50D-10 BMatP= 2.30D-09
 IDIUse=1 WtCom= 1.00D+00 WtEn= 0.00D+00
 Coeff-Com:  0.257D-02-0.270D-01-0.790D-01 0.509D-01 0.505D+00 0.547D+00
 Coeff:      0.257D-02-0.270D-01-0.790D-01 0.509D-01 0.505D+00 0.547D+00
 Gap=     0.347 Goal=   None    Shift=    0.000
 RMSDP=7.65D-08 MaxDP=3.24D-06 DE=-2.24D-09 OVMax= 1.07D-05

 Cycle  13  Pass 1  IDiag  1:
 E= -1199.77772598817     Delta-E=       -0.000000000748 Rises=F Damp=F
 DIIS: error= 3.23D-07 at cycle   7 NSaved=   7.
 NSaved= 7 IEnMin= 7 EnMin= -1199.77772598817     IErMin= 7 ErrMin= 3.23D-07
 ErrMax= 3.23D-07  0.00D+00 EMaxC= 1.00D-01 BMatC= 8.11D-11 BMatP= 9.50D-10
 IDIUse=1 WtCom= 1.00D+00 WtEn= 0.00D+00
 Coeff-Com:  0.220D-02-0.963D-02-0.324D-01-0.219D-01 0.106D+00 0.264D+00
 Coeff-Com:  0.692D+00
 Coeff:      0.220D-02-0.963D-02-0.324D-01-0.219D-01 0.106D+00 0.264D+00
 Coeff:      0.692D+00
 Gap=     0.347 Goal=   None    Shift=    0.000
 RMSDP=2.42D-08 MaxDP=8.28D-07 DE=-7.48D-10 OVMax= 3.73D-06

 Cycle  14  Pass 1  IDiag  1:
 E= -1199.77772598830     Delta-E=       -0.000000000124 Rises=F Damp=F
 DIIS: error= 6.09D-08 at cycle   8 NSaved=   8.
 NSaved= 8 IEnMin= 8 EnMin= -1199.77772598830     IErMin= 8 ErrMin= 6.09D-08
 ErrMax= 6.09D-08  0.00D+00 EMaxC= 1.00D-01 BMatC= 5.22D-12 BMatP= 8.11D-11
 IDIUse=1 WtCom= 1.00D+00 WtEn= 0.00D+00
 Coeff-Com:  0.227D-03 0.596D-03 0.138D-02-0.104D-01-0.340D-01-0.587D-03
 Coeff-Com:  0.155D+00 0.888D+00
 Coeff:      0.227D-03 0.596D-03 0.138D-02-0.104D-01-0.340D-01-0.587D-03
 Coeff:      0.155D+00 0.888D+00
 Gap=     0.347 Goal=   None    Shift=    0.000
 RMSDP=1.15D-08 MaxDP=6.04D-07 DE=-1.24D-10 OVMax= 2.44D-06

 Cycle  15  Pass 1  IDiag  1:
 E= -1199.77772598833     Delta-E=       -0.000000000037 Rises=F Damp=F
 DIIS: error= 3.07D-08 at cycle   9 NSaved=   9.
 NSaved= 9 IEnMin= 9 EnMin= -1199.77772598833     IErMin= 9 ErrMin= 3.07D-08
 ErrMax= 3.07D-08  0.00D+00 EMaxC= 1.00D-01 BMatC= 1.44D-12 BMatP= 5.22D-12
 IDIUse=1 WtCom= 1.00D+00 WtEn= 0.00D+00
 Coeff-Com: -0.255D-03 0.174D-02 0.561D-02-0.274D-03-0.296D-01-0.413D-01
 Coeff-Com: -0.589D-01 0.328D+00 0.795D+00
 Coeff:     -0.255D-03 0.174D-02 0.561D-02-0.274D-03-0.296D-01-0.413D-01
 Coeff:     -0.589D-01 0.328D+00 0.795D+00
 Gap=     0.347 Goal=   None    Shift=    0.000
 RMSDP=5.47D-09 MaxDP=2.37D-07 DE=-3.68D-11 OVMax= 1.31D-06

 SCF Done:  E(RM062X) =  -1199.77772599     A.U. after   15 cycles
            NFock= 15  Conv=0.55D-08     -V/T= 2.0029
 KE= 1.196357989201D+03 PE=-4.665778076844D+03 EE= 1.360362045903D+03
 Leave Link  502 at Sat May 24 05:34:03 2025, MaxMem=  3758096384 cpu:             160.6 elap:              39.9
 (Enter /apps/easybuild-2022/easybuild/software/Compiler/NVHPC/22.11-CUDA-11.7.0/Gaussian/g16c01-CUDA-11.7.0/g16/l508.exe)
 QCSCF skips out because SCF is already converged.
 Leave Link  508 at Sat May 24 05:34:03 2025, MaxMem=  3758096384 cpu:               0.0 elap:               0.0
 (Enter /apps/easybuild-2022/easybuild/software/Compiler/NVHPC/22.11-CUDA-11.7.0/Gaussian/g16c01-CUDA-11.7.0/g16/l801.exe)
 DoSCS=F DFT=T ScalE2(SS,OS)=  1.000000  1.000000
 Range of M.O.s used for correlation:     1   366
 NBasis=   366 NAE=    49 NBE=    49 NFC=     0 NFV=     0
 NROrb=    366 NOA=    49 NOB=    49 NVA=   317 NVB=   317

 **** Warning!!: The largest alpha MO coefficient is  0.17127226D+02

 Leave Link  801 at Sat May 24 05:34:03 2025, MaxMem=  3758096384 cpu:               0.0 elap:               0.0
 (Enter /apps/easybuild-2022/easybuild/software/Compiler/NVHPC/22.11-CUDA-11.7.0/Gaussian/g16c01-CUDA-11.7.0/g16/l1101.exe)
 Using compressed storage, NAtomX=    12.
 Will process     13 centers per pass.
   1 Symmetry operations used in ECPInt.
 ECPInt:  NShTT=    8515 NPrTT=   27988 LenC2=    7971 LenP2D=   19314.
 LDataN:  DoStor=T MaxTD1= 7 Len=  274
 Leave Link 1101 at Sat May 24 05:34:04 2025, MaxMem=  3758096384 cpu:               1.0 elap:               0.2
 (Enter /apps/easybuild-2022/easybuild/software/Compiler/NVHPC/22.11-CUDA-11.7.0/Gaussian/g16c01-CUDA-11.7.0/g16/l1102.exe)
 Symmetrizing basis deriv contribution to polar:
 IMax=3 JMax=2 DiffMx= 0.00D+00
 Leave Link 1102 at Sat May 24 05:34:04 2025, MaxMem=  3758096384 cpu:               0.1 elap:               0.0
 (Enter /apps/easybuild-2022/easybuild/software/Compiler/NVHPC/22.11-CUDA-11.7.0/Gaussian/g16c01-CUDA-11.7.0/g16/l1110.exe)
 Forming Gx(P) for the SCF density, NAtomX=    12.
 Integral derivatives from FoFJK, PRISM(SPDF).
 Do as many integral derivatives as possible in FoFJK.
 G2DrvN: MDV=    3758095012.
 G2DrvN: will do    13 centers at a time, making    1 passes.
 Calling FoFCou, ICntrl=  3107 FMM=F I1Cent=   0 AccDes= 0.00D+00.
 FoFJK:  IHMeth= 1 ICntrl=    3107 DoSepK=F KAlg= 0 I1Cent=           0 FoldK=F
 IRaf=         0 NMat=       1 IRICut=       1 DoRegI=T DoRafI=F ISym2E= 0 IDoP0=0 IntGTp=1.
 FoFCou: FMM=F IPFlag=           0 FMFlag=      100000 FMFlg1=           0
         NFxFlg=           0 DoJE=F BraDBF=F KetDBF=F FulRan=T
         wScrn=  0.000000 ICntrl=      3107 IOpCl=  0 I1Cent=           0 NGrid=           0
         NMat0=    1 NMatS0=      1 NMatT0=    0 NMatD0=    1 NMtDS0=    0 NMtDT0=    0
 Symmetry not used in FoFCou.
 End of G2Drv F.D. properties file   721 does not exist.
 End of G2Drv F.D. properties file   722 does not exist.
 End of G2Drv F.D. properties file   788 does not exist.
 Leave Link 1110 at Sat May 24 05:34:58 2025, MaxMem=  3758096384 cpu:             435.0 elap:              54.8
 (Enter /apps/easybuild-2022/easybuild/software/Compiler/NVHPC/22.11-CUDA-11.7.0/Gaussian/g16c01-CUDA-11.7.0/g16/l1002.exe)
 Minotr:  Closed shell wavefunction.
          IDoAtm=111111111111
          Direct CPHF calculation.
          Differentiating once with respect to nuclear coordinates.
          Requested convergence is 1.0D-08 RMS, and 1.0D-07 maximum.
          Secondary convergence is 1.0D-12 RMS, and 1.0D-12 maximum.
          NewPWx=T KeepS1=F KeepF1=F KeepIn=T MapXYZ=F SortEE=F KeepMc=T.
         3598 words used for storage of precomputed grid.
 Keep R1 ints in memory in canonical form, NReq=2293452904.
 FoFCou: FMM=F IPFlag=           0 FMFlag=           0 FMFlg1=           0
         NFxFlg=           0 DoJE=F BraDBF=F KetDBF=F FulRan=T
         wScrn=  0.000000 ICntrl=       600 IOpCl=  0 I1Cent=           0 NGrid=           0
         NMat0=    1 NMatS0=  67161 NMatT0=    0 NMatD0=    1 NMtDS0=    0 NMtDT0=    0
 Symmetry not used in FoFCou.
 Two-electron integral symmetry not used.
          MDV=    3758096384 using IRadAn=       1.
          Solving linear equations simultaneously, MaxMat=       0.
          There are    39 degrees of freedom in the 1st order CPHF.  IDoFFX=6 NUNeed=     0.
     33 vectors produced by pass  0 Test12= 3.98D-14 2.56D-09 XBig12= 1.14D-01 7.56D-02.
 AX will form    33 AO Fock derivatives at one time.
     33 vectors produced by pass  1 Test12= 3.98D-14 2.56D-09 XBig12= 2.25D-02 2.73D-02.
     33 vectors produced by pass  2 Test12= 3.98D-14 2.56D-09 XBig12= 1.25D-03 7.63D-03.
     33 vectors produced by pass  3 Test12= 3.98D-14 2.56D-09 XBig12= 2.73D-05 7.47D-04.
     33 vectors produced by pass  4 Test12= 3.98D-14 2.56D-09 XBig12= 4.56D-07 9.36D-05.
     33 vectors produced by pass  5 Test12= 3.98D-14 2.56D-09 XBig12= 6.03D-09 1.14D-05.
     33 vectors produced by pass  6 Test12= 3.98D-14 2.56D-09 XBig12= 4.87D-11 1.18D-06.
     22 vectors produced by pass  7 Test12= 3.98D-14 2.56D-09 XBig12= 2.76D-13 6.51D-08.
      4 vectors produced by pass  8 Test12= 3.98D-14 2.56D-09 XBig12= 1.71D-15 5.22D-09.
 InvSVY:  IOpt=1 It=  1 EMax= 1.33D-15
 Solved reduced A of dimension   257 with    33 vectors.
 End of Minotr F.D. properties file   721 does not exist.
 End of Minotr F.D. properties file   722 does not exist.
 End of Minotr F.D. properties file   788 does not exist.
 Leave Link 1002 at Sat May 24 05:36:16 2025, MaxMem=  3758096384 cpu:             612.4 elap:              77.9
 (Enter /apps/easybuild-2022/easybuild/software/Compiler/NVHPC/22.11-CUDA-11.7.0/Gaussian/g16c01-CUDA-11.7.0/g16/l701.exe)
 ... and contract with generalized density number  0.
 Compute integral second derivatives.
   1 Symmetry operations used in ECPInt.
 ECPInt:  NShTT=    8515 NPrTT=   27988 LenC2=    7971 LenP2D=   19314.
 LDataN:  DoStor=T MaxTD1= 8 Len=  415
 Leave Link  701 at Sat May 24 05:36:16 2025, MaxMem=  3758096384 cpu:               0.7 elap:               0.1
 (Enter /apps/easybuild-2022/easybuild/software/Compiler/NVHPC/22.11-CUDA-11.7.0/Gaussian/g16c01-CUDA-11.7.0/g16/l702.exe)
 L702 exits ... SP integral derivatives will be done elsewhere.
 Leave Link  702 at Sat May 24 05:36:16 2025, MaxMem=  3758096384 cpu:               0.0 elap:               0.0
 (Enter /apps/easybuild-2022/easybuild/software/Compiler/NVHPC/22.11-CUDA-11.7.0/Gaussian/g16c01-CUDA-11.7.0/g16/l703.exe)
 Integral derivatives from FoFJK, PRISM(SPDF).
 Compute integral second derivatives, UseDBF=F ICtDFT=           0.
 Calling FoFJK, ICntrl=    100127 FMM=F ISym2X=0 I1Cent= 0 IOpClX= 0 NMat=1 NMatS=1 NMatT=0.
 FoFJK:  IHMeth= 1 ICntrl=  100127 DoSepK=F KAlg= 0 I1Cent=           0 FoldK=F
 IRaf=         0 NMat=       1 IRICut=       1 DoRegI=T DoRafI=F ISym2E= 0 IDoP0=0 IntGTp=1.
 FoFCou: FMM=F IPFlag=           0 FMFlag=      100000 FMFlg1=         800
         NFxFlg=           0 DoJE=F BraDBF=F KetDBF=F FulRan=T
         wScrn=  0.000000 ICntrl=    100127 IOpCl=  0 I1Cent=           0 NGrid=           0
         NMat0=    1 NMatS0=      1 NMatT0=    0 NMatD0=    1 NMtDS0=    0 NMtDT0=    0
 Symmetry not used in FoFCou.
 Leave Link  703 at Sat May 24 05:38:06 2025, MaxMem=  3758096384 cpu:             866.4 elap:             109.0
 (Enter /apps/easybuild-2022/easybuild/software/Compiler/NVHPC/22.11-CUDA-11.7.0/Gaussian/g16c01-CUDA-11.7.0/g16/l716.exe)
 Dipole        = 3.76407352D-01 7.81200985D-01 2.45330513D-01
 Polarizability= 0.00000000D+00 0.00000000D+00 0.00000000D+00
                 0.00000000D+00 0.00000000D+00 0.00000000D+00
 -------------------------------------------------------------------
 Center     Atomic                   Forces (Hartrees/Bohr)
 Number     Number              X              Y              Z
 -------------------------------------------------------------------
      1        6           0.000360352    0.000174954    0.000007616
      2        6          -0.000048727    0.000198160   -0.000203974
      3        9          -0.000627670    0.000171368   -0.000001615
      4        9          -0.000049475    0.000270448   -0.000148503
      5       16           0.000091646   -0.000130338   -0.000284171
      6        8          -0.000516220   -0.000234651   -0.001021077
      7        8          -0.000279239   -0.000552598    0.001347515
      8        8          -0.001962444   -0.000673417    0.000103420
      9        9           0.001170972    0.000471383   -0.000010143
     10        9           0.000420970    0.000450209    0.000014498
     11        9           0.000571165   -0.000239906    0.000027504
     12        1           0.000868670    0.000094387    0.000168929
 -------------------------------------------------------------------
 Cartesian Forces:  Max     0.001962444 RMS     0.000574932
 Force constants in Cartesian coordinates: 
                1             2             3             4             5 
      1  0.572974D+00
      2  0.675196D-02  0.608418D+00
      3 -0.633748D-02 -0.115099D-01  0.614471D+00
      4 -0.775149D-01 -0.177343D-01  0.161484D-01  0.453321D+00
      5 -0.535405D-01 -0.105897D+00  0.664383D-01 -0.267076D-01  0.528636D+00
      6  0.537552D-01  0.698883D-01 -0.107680D+00  0.737729D-02 -0.111682D-01
      7 -0.698540D-03 -0.332850D-02  0.274154D-02 -0.107293D+00 -0.232019D-01
      8  0.762705D-02  0.398820D-02  0.978714D-02 -0.238190D-01 -0.781869D-01
      9 -0.255433D-01 -0.219176D-01 -0.465701D-01 -0.826142D-01 -0.366280D-01
     10 -0.332988D-02 -0.194993D-03  0.508002D-02 -0.126569D+00  0.112813D+00
     11  0.278230D-01 -0.434641D-01 -0.167940D-01  0.100641D+00 -0.262255D+00
     12 -0.105764D-01  0.128592D-01  0.691292D-02  0.194039D-01 -0.279518D-01
     13 -0.190284D-02 -0.230364D-01  0.210845D-01 -0.114901D+00 -0.135735D-01
     14 -0.193723D-01  0.148187D-01 -0.130470D-02 -0.181387D-01 -0.567708D-01
     15  0.207668D-01 -0.130145D-02  0.174752D-01  0.247247D-01  0.346588D-01
     16  0.138811D-02  0.113806D-02 -0.782606D-03  0.933173D-02  0.244202D-01
     17  0.305602D-02 -0.389025D-02 -0.497064D-03 -0.576561D-02 -0.135966D-02
     18 -0.130586D-02 -0.395515D-03 -0.116128D-03  0.204803D-02 -0.537490D-02
     19 -0.373039D-02  0.100511D-01 -0.947636D-02 -0.197311D-02 -0.112803D-01
     20  0.347074D-02 -0.757563D-02  0.369762D-02 -0.307628D-02  0.122881D-01
     21 -0.301403D-02  0.252443D-02 -0.411199D-02 -0.188771D-02 -0.894632D-02
     22  0.172243D-02  0.371031D-02 -0.199284D-02  0.466743D-02 -0.639556D-02
     23  0.239171D-02  0.272771D-04 -0.379053D-03  0.281847D-02 -0.263398D-02
     24 -0.302521D-02  0.102760D-02 -0.111682D-01  0.220527D-02 -0.707356D-02
     25 -0.874501D-01  0.466335D-01  0.122497D-01  0.797369D-02 -0.127469D-02
     26  0.431634D-01 -0.304254D+00 -0.303956D-01  0.129218D-01 -0.401605D-01
     27  0.122085D-01 -0.390050D-01 -0.881033D-01 -0.310337D-02  0.105144D-01
     28 -0.985519D-01 -0.105567D-01 -0.688836D-01  0.665319D-02  0.792654D-03
     29 -0.119178D-01 -0.838301D-01 -0.229783D-01  0.524271D-02  0.887078D-02
     30 -0.639855D-01 -0.162048D-01 -0.300190D+00 -0.177066D-01 -0.180133D-01
     31 -0.302382D+00 -0.126625D-01  0.297928D-01 -0.538452D-01 -0.208213D-02
     32 -0.897414D-02 -0.789670D-01  0.426222D-02 -0.263869D-01 -0.130130D-02
     33  0.277404D-01  0.468221D-02 -0.816457D-01  0.312052D-01  0.380083D-02
     34 -0.524053D-03 -0.771557D-03  0.375968D-03  0.148804D-03  0.306809D-04
     35 -0.479202D-03  0.625921D-03 -0.326640D-03  0.466468D-05 -0.122924D-02
     36 -0.683205D-03 -0.647466D-03  0.726109D-03  0.219914D-02 -0.256294D-03
                6             7             8             9            10 
      6  0.529294D+00
      7 -0.876399D-01  0.961831D-01
      8 -0.478687D-01  0.316986D-01  0.102965D+00
      9 -0.262184D+00  0.102237D+00  0.936537D-01  0.351173D+00
     10  0.151986D-01  0.182547D-01 -0.685930D-02  0.646957D-02  0.119749D+00
     11 -0.161876D-01  0.179639D-02 -0.320374D-01 -0.423712D-01 -0.131058D+00
     12 -0.719784D-01  0.143868D-01 -0.531959D-01 -0.235555D-01 -0.261714D-01
     13  0.294851D-01  0.508882D-02 -0.219928D-03  0.567847D-02 -0.130414D-02
     14  0.328561D-01 -0.811018D-02 -0.758336D-03 -0.842111D-02  0.354437D-01
     15 -0.511562D-01 -0.329758D-01 -0.126980D-01 -0.169568D-01  0.186951D-02
     16 -0.847529D-02 -0.495080D-02 -0.276537D-02 -0.284046D-02 -0.780242D-02
     17  0.271509D-02  0.514819D-02  0.237859D-02  0.412130D-02 -0.891407D-03
     18 -0.102391D-02  0.962446D-03  0.844708D-03  0.189486D-02  0.358721D-02
     19  0.224639D-01  0.413674D-03 -0.502986D-03 -0.396938D-02 -0.441211D-02
     20 -0.108473D-01  0.609029D-03  0.228753D-03  0.241942D-02 -0.210238D-02
     21  0.842674D-02  0.113034D-02  0.123445D-02  0.485023D-03  0.908607D-03
     22 -0.327940D-01 -0.153602D-01 -0.524946D-02 -0.629889D-02 -0.423212D-02
     23 -0.111249D-01 -0.486196D-02 -0.980639D-03 -0.257690D-02 -0.196959D-02
     24 -0.645410D-02 -0.218927D-02 -0.726326D-03  0.125759D-02 -0.526654D-02
     25 -0.268776D-02  0.679147D-03 -0.277348D-03  0.143246D-02  0.140375D-02
     26 -0.199698D-01  0.559585D-03  0.314856D-02  0.419181D-02 -0.225431D-02
     27  0.601210D-02  0.392424D-03  0.353800D-02  0.296476D-02 -0.448712D-03
     28 -0.825875D-03  0.140021D-02 -0.463046D-03  0.239720D-02  0.720258D-03
     29  0.116751D-01 -0.136254D-03 -0.127306D-02  0.686252D-02 -0.551450D-03
     30 -0.366327D-01  0.271424D-02  0.632258D-02 -0.118447D-01 -0.292834D-03
     31  0.480185D-02  0.566726D-02  0.530417D-03  0.267442D-02  0.657639D-02
     32  0.417105D-02  0.138464D-02  0.994903D-03  0.153192D-02 -0.292529D-02
     33 -0.135259D-02  0.344414D-03 -0.457991D-04  0.370261D-02 -0.134118D-02
     34 -0.659069D-03  0.615866D-03  0.300359D-03  0.377017D-03  0.945580D-03
     35 -0.413906D-02 -0.155766D-02 -0.467955D-03 -0.865958D-03  0.550094D-03
     36 -0.527099D-02 -0.210435D-02 -0.845892D-03 -0.367338D-03  0.407152D-03
               11            12            13            14            15 
     11  0.351969D+00
     12  0.667017D-01  0.840486D-01
     13 -0.415801D-03 -0.115176D-03  0.335748D+00
     14 -0.148948D-01 -0.890241D-02 -0.118090D+00  0.528050D+00
     15 -0.684644D-02  0.719000D-03  0.405206D-01  0.397308D-01  0.415824D+00
     16  0.914270D-03  0.255775D-02 -0.757795D-01  0.967282D-01  0.552836D-02
     17  0.197262D-02 -0.304100D-03  0.133916D+00 -0.345870D+00 -0.284498D-02
     18 -0.255202D-02 -0.216408D-03  0.164644D-02  0.329821D-01 -0.383588D-01
     19  0.575887D-02 -0.325884D-03 -0.617503D-01  0.490255D-01 -0.145953D-01
     20 -0.693904D-04  0.104322D-02  0.277790D-01 -0.517603D-01  0.542536D-02
     21  0.126409D-02 -0.736963D-04 -0.233083D-01 -0.303039D-02 -0.310160D-01
     22  0.196973D-03  0.706498D-04 -0.921920D-01 -0.107270D-01 -0.383606D-01
     23  0.320873D-02  0.125053D-02 -0.280375D-02 -0.612878D-01 -0.479477D-01
     24  0.409418D-02  0.206191D-02 -0.150392D-01 -0.747902D-01 -0.265621D+00
     25 -0.299394D-02  0.125890D-02 -0.164013D-02  0.407429D-02 -0.142136D-02
     26 -0.111774D-01  0.703606D-02  0.822700D-02 -0.480595D-02 -0.160119D-03
     27  0.585423D-02 -0.136186D-02 -0.156129D-02 -0.163368D-02 -0.202126D-02
     28 -0.130268D-02  0.636994D-03 -0.149104D-02  0.101325D-02 -0.496227D-02
     29  0.252713D-02  0.995403D-04  0.218082D-02 -0.204003D-02 -0.204177D-02
     30  0.600674D-02  0.217324D-02 -0.780417D-02 -0.941398D-03 -0.536111D-02
     31 -0.110319D-02 -0.116260D-02  0.824889D-02 -0.353288D-02  0.392505D-02
     32  0.362355D-02  0.521021D-03  0.552682D-02 -0.396823D-02  0.299938D-02
     33  0.539530D-03  0.755947D-03 -0.586583D-02  0.292091D-02 -0.496975D-02
     34 -0.256943D-03  0.363665D-04  0.187555D-02 -0.831410D-02 -0.501980D-02
     35  0.597147D-03  0.843012D-03 -0.194905D-01 -0.712563D-03 -0.897385D-02
     36  0.290870D-03  0.514153D-03 -0.447212D-01 -0.946600D-02 -0.185572D-01
               16            17            18            19            20 
     16  0.241375D+00
     17  0.137653D-01  0.422723D+00
     18 -0.312063D-02 -0.251078D-02  0.334977D-01
     19 -0.164745D+00 -0.147713D+00 -0.679872D-02  0.247776D+00
     20 -0.136553D+00 -0.738656D-01  0.537621D-03  0.923327D-01  0.124202D+00
     21 -0.568732D-02  0.923120D-02 -0.774939D-02 -0.290614D-02  0.113280D-01
     22  0.750911D-02 -0.248163D-02  0.241513D-02 -0.291046D-02  0.110763D-01
     23  0.470907D-02 -0.324553D-02 -0.243234D-01  0.780554D-02 -0.923424D-02
     24  0.780537D-02 -0.113240D-01  0.106478D-01  0.658617D-02 -0.113046D-01
     25 -0.204019D-02 -0.175242D-02  0.756863D-03  0.936321D-03 -0.148793D-02
     26 -0.192715D-02  0.149091D-02  0.533683D-03 -0.369250D-02  0.275304D-02
     27  0.983126D-03  0.556053D-03 -0.189805D-04  0.491530D-03  0.317924D-03
     28 -0.340959D-05  0.409886D-04  0.307902D-03  0.665643D-03 -0.301695D-03
     29 -0.364659D-03  0.755292D-03 -0.153744D-04 -0.824861D-03  0.873154D-03
     30  0.690099D-03  0.148308D-03  0.601382D-04  0.259950D-02 -0.778539D-03
     31  0.650570D-04  0.566379D-04  0.362824D-03 -0.442250D-02  0.221861D-02
     32 -0.113800D-03  0.758997D-03  0.507093D-04 -0.289081D-02  0.191492D-02
     33 -0.217126D-04 -0.257670D-03 -0.207633D-04  0.312809D-02 -0.162812D-02
     34 -0.434712D-02  0.262076D-02 -0.861647D-03 -0.584739D-02  0.603459D-02
     35  0.485793D-04 -0.184832D-02  0.223175D-03  0.193056D-02  0.245063D-03
     36  0.336331D-02  0.966597D-03  0.140386D-02  0.280254D-02 -0.210622D-03
               21            22            23            24            25 
     21  0.393236D-01
     22  0.298190D-01  0.592690D+00
     23 -0.162336D-01  0.729191D-01  0.927701D-01
     24 -0.101716D-01  0.989730D-01  0.118364D+00  0.312185D+00
     25  0.684162D-03  0.944469D-04 -0.492976D-03 -0.302517D-03  0.108786D+00
     26 -0.585055D-03 -0.124942D-02  0.225813D-03  0.237802D-03 -0.943343D-01
     27  0.394646D-03  0.290591D-03  0.175638D-03  0.169503D-02 -0.238535D-01
     28  0.738407D-03 -0.234532D-02 -0.263134D-02  0.384425D-02  0.143058D-01
     29  0.941478D-04 -0.299466D-02 -0.142115D-02  0.193546D-02 -0.927784D-02
     30  0.137000D-02  0.305509D-02  0.136160D-02  0.488403D-02 -0.347864D-02
     31 -0.125820D-02 -0.577072D-03 -0.892577D-03 -0.127057D-02 -0.430765D-01
     32 -0.959953D-03 -0.501566D-03 -0.254389D-04 -0.993361D-03  0.609785D-01
     33  0.123837D-02  0.449697D-03  0.122626D-03  0.240657D-02  0.152333D-01
     34  0.478114D-02 -0.489066D+00 -0.769917D-01 -0.923208D-01  0.277253D-04
     35  0.407902D-02 -0.583034D-01 -0.174032D-01 -0.194475D-01  0.205129D-03
     36  0.188433D-02 -0.556268D-01 -0.186893D-01 -0.417232D-01  0.128324D-03
               26            27            28            29            30 
     26  0.396340D+00
     27  0.941513D-01  0.104522D+00
     28 -0.427284D-02  0.740057D-03  0.131631D+00
     29 -0.280108D-01 -0.621223D-01  0.260892D-01  0.914588D-01
     30 -0.457412D-01 -0.336130D-01  0.124991D+00  0.717545D-01  0.387346D+00
     31  0.425247D-01  0.138785D-01 -0.531119D-01 -0.752603D-02 -0.407711D-01
     32 -0.153199D-01 -0.123505D-01 -0.846574D-02  0.123323D-01 -0.433265D-02
     33 -0.946297D-02  0.968356D-02 -0.593115D-01 -0.566342D-02 -0.779873D-02
     34  0.333981D-03 -0.179438D-04  0.127727D-03  0.807920D-04 -0.115257D-04
     35 -0.229339D-03  0.393155D-05  0.578617D-04 -0.242454D-03  0.418158D-03
     36  0.164199D-03 -0.153435D-03  0.326990D-03  0.399948D-03 -0.394091D-03
               31            32            33            34            35 
     31  0.436402D+00
     32 -0.178054D-01  0.800187D-01
     33 -0.114062D-01  0.494504D-02  0.782399D-01
     34  0.455608D-03  0.173717D-03 -0.154621D-03  0.495588D+00
     35  0.274409D-03 -0.615796D-04  0.468399D-04  0.767594D-01  0.207265D-01
     36  0.433290D-03  0.155076D-03 -0.239392D-03  0.934749D-01  0.281388D-01
               36 
     36  0.621772D-01
 FormGI is forming the generalized inverse of G from B-inverse, IUseBI=4.
 Leave Link  716 at Sat May 24 05:38:06 2025, MaxMem=  3758096384 cpu:               0.0 elap:               0.0
 (Enter /apps/easybuild-2022/easybuild/software/Compiler/NVHPC/22.11-CUDA-11.7.0/Gaussian/g16c01-CUDA-11.7.0/g16/l103.exe)

 GradGradGradGradGradGradGradGradGradGradGradGradGradGradGradGradGradGrad
 Berny optimization.
 Red2BG is reusing G-inverse.
 Internal  Forces:  Max     0.006769447 RMS     0.001393229
 Search for a local minimum.
 Step number   1 out of a maximum of   61
 All quantities printed in internal units (Hartrees-Bohrs-Radians)
 RMS Force = .13932D-02 SwitMx=.10000D-02 MixMth= 1
 Mixed Optimization -- RFO/linear search
 Second derivative matrix not updated -- analytic derivatives used.
 ITU=  0
     Eigenvalues ---    0.00105   0.00354   0.00455   0.03436   0.03671
     Eigenvalues ---    0.06692   0.07858   0.09330   0.10713   0.10818
     Eigenvalues ---    0.12090   0.13628   0.14422   0.15300   0.17186
     Eigenvalues ---    0.19862   0.23792   0.24221   0.24447   0.25928
     Eigenvalues ---    0.32920   0.37186   0.38992   0.39315   0.40461
     Eigenvalues ---    0.40631   0.41874   0.49477   0.53271   0.58492
 RFO step:  Lambda=-9.54601546D-04 EMin= 1.04726890D-03
 Linear search not attempted -- first point.
 Iteration  1 RMS(Cart)=  0.07568631 RMS(Int)=  0.00291188
 Iteration  2 RMS(Cart)=  0.00305244 RMS(Int)=  0.00015335
 Iteration  3 RMS(Cart)=  0.00000447 RMS(Int)=  0.00015332
 Iteration  4 RMS(Cart)=  0.00000000 RMS(Int)=  0.00015332
 ITry= 1 IFail=0 DXMaxC= 2.63D-01 DCOld= 1.00D+10 DXMaxT= 3.00D-01 DXLimC= 3.00D+00 Rises=F
 Variable       Old X    -DE/DX   Delta X   Delta X   Delta X     New X
                                 (Linear)    (Quad)   (Total)
    R1        2.91080  -0.00138   0.00000  -0.00240  -0.00240   2.90840
    R2        2.50479  -0.00012   0.00000   0.00062   0.00062   2.50541
    R3        2.50245   0.00026   0.00000  -0.00126  -0.00126   2.50119
    R4        2.51235  -0.00058   0.00000  -0.00059  -0.00059   2.51176
    R5        2.54469   0.00015   0.00000  -0.00162  -0.00162   2.54307
    R6        2.53400   0.00023   0.00000  -0.00009  -0.00009   2.53392
    R7        3.60678  -0.00205   0.00000  -0.01024  -0.01024   3.59654
    R8        2.94120   0.00018   0.00000   0.00320   0.00312   2.94432
    R9        3.37160   0.00009   0.00000  -0.00510  -0.00524   3.36636
   R10        3.01133  -0.00007   0.00000   0.00279   0.00279   3.01412
   R11        2.82784  -0.00033   0.00000  -0.00328  -0.00304   2.82480
   R12        1.82587   0.00089   0.00000   0.00142   0.00142   1.82729
    A1        1.92551  -0.00120   0.00000  -0.00417  -0.00417   1.92134
    A2        1.94050  -0.00101   0.00000   0.00276   0.00276   1.94326
    A3        1.90591   0.00092   0.00000   0.00101   0.00101   1.90691
    A4        1.90412   0.00049   0.00000  -0.00006  -0.00006   1.90406
    A5        1.89265   0.00061   0.00000   0.00155   0.00155   1.89419
    A6        1.89428   0.00026   0.00000  -0.00105  -0.00106   1.89322
    A7        1.87248   0.00175   0.00000   0.00297   0.00309   1.87557
    A8        1.89247   0.00189   0.00000   0.00414   0.00412   1.89659
    A9        2.14331  -0.00677   0.00000  -0.02942  -0.02941   2.11389
   A10        1.89442  -0.00104   0.00000   0.00033   0.00022   1.89463
   A11        1.79346   0.00218   0.00000   0.01602   0.01600   1.80946
   A12        1.85554   0.00227   0.00000   0.00855   0.00844   1.86398
   A13        1.70181  -0.00126   0.00000  -0.01051  -0.00999   1.69182
   A14        2.60552  -0.00173   0.00000  -0.01913  -0.01967   2.58584
   A15        1.57826  -0.00219   0.00000  -0.01740  -0.01782   1.56044
   A16        1.90750   0.00055   0.00000   0.01312   0.01301   1.92051
   A17        1.62432   0.00123   0.00000  -0.00473  -0.00516   1.61916
   A18        1.88468  -0.00001   0.00000   0.00267   0.00267   1.88735
    D1        0.92914   0.00049   0.00000   0.08827   0.08829   1.01743
    D2        2.97203   0.00117   0.00000   0.09239   0.09237   3.06440
    D3       -1.13743   0.00066   0.00000   0.08412   0.08412  -1.05330
    D4        3.04412  -0.00039   0.00000   0.08721   0.08724   3.13135
    D5       -1.19618   0.00029   0.00000   0.09133   0.09131  -1.10487
    D6        0.97755  -0.00022   0.00000   0.08306   0.08306   1.06061
    D7       -1.14936  -0.00010   0.00000   0.08828   0.08830  -1.06106
    D8        0.89353   0.00058   0.00000   0.09240   0.09237   0.98590
    D9        3.06726   0.00007   0.00000   0.08413   0.08413  -3.13180
   D10        0.76996   0.00110   0.00000   0.07941   0.07937   0.84933
   D11        0.54676  -0.00072   0.00000   0.02645   0.02654   0.57329
   D12       -1.14162   0.00092   0.00000   0.06921   0.06907  -1.07255
   D13       -1.33413   0.00117   0.00000   0.08019   0.08026  -1.25387
   D14       -1.55733  -0.00066   0.00000   0.02723   0.02742  -1.52991
   D15        3.03747   0.00099   0.00000   0.06999   0.06996   3.10743
   D16        2.96018   0.00055   0.00000   0.06985   0.06980   3.02998
   D17        2.73698  -0.00127   0.00000   0.01689   0.01697   2.75394
   D18        1.04860   0.00038   0.00000   0.05965   0.05950   1.10810
   D19        2.99381  -0.00134   0.00000  -0.00037  -0.00036   2.99345
   D20        1.28151   0.00074   0.00000   0.01620   0.01608   1.29759
   D21        0.38503   0.00053   0.00000   0.02144   0.02155   0.40658
         Item               Value     Threshold  Converged?
 Maximum Force            0.006769     0.000450     NO 
 RMS     Force            0.001393     0.000300     NO 
 Maximum Displacement     0.263070     0.001800     NO 
 RMS     Displacement     0.076036     0.001200     NO 
 Predicted change in Energy=-5.275957D-04
 Lowest energy point so far.  Saving SCF results.
 GradGradGradGradGradGradGradGradGradGradGradGradGradGradGradGradGradGrad

 Leave Link  103 at Sat May 24 05:38:06 2025, MaxMem=  3758096384 cpu:               0.1 elap:               0.0
 (Enter /apps/easybuild-2022/easybuild/software/Compiler/NVHPC/22.11-CUDA-11.7.0/Gaussian/g16c01-CUDA-11.7.0/g16/l202.exe)
                          Input orientation:                          
 ---------------------------------------------------------------------
 Center     Atomic      Atomic             Coordinates (Angstroms)
 Number     Number       Type             X           Y           Z
 ---------------------------------------------------------------------
      1          6           0       -1.103516   -0.645132    0.688743
      2          6           0       -0.629814    0.370041   -0.366589
      3          9           0       -1.072288   -0.056008   -1.563963
      4          9           0       -1.192205    1.558186   -0.101979
      5         16           0        1.222941    0.691617   -0.659993
      6          8           0        1.658326   -0.800599   -0.766324
      7          8           0        2.884696    0.050292   -0.685742
      8          8           0        1.357548    1.194069    0.847807
      9          9           0       -0.639735   -1.852919    0.399070
     10          9           0       -0.696856   -0.304519    1.901369
     11          9           0       -2.431882   -0.691241    0.687464
     12          1           0        2.296805    1.318836    1.040793
 ---------------------------------------------------------------------
                    Distance matrix (angstroms):
                    1          2          3          4          5
     1  C    0.000000
     2  C    1.539057   0.000000
     3  F    2.328675   1.345736   0.000000
     4  F    2.342587   1.340891   2.181146   0.000000
     5  S    3.003063   1.903207   2.577631   2.625881   0.000000
     6  O    3.125566   2.601110   2.940561   3.759089   1.558069
     7  O    4.275355   3.543428   4.054663   4.385846   1.781402
     8  O    3.076491   2.470503   3.644644   2.745162   1.595004
     9  F    1.325804   2.351146   2.696199   3.491692   3.326536
    10  F    1.323575   2.367099   3.494457   2.780007   3.352385
    11  F    1.329166   2.341965   2.705724   2.686994   4.133481
    12  H    3.942498   3.383198   4.475012   3.679185   2.106955
                    6          7          8          9         10
     6  O    0.000000
     7  O    1.494822   0.000000
     8  O    2.583522   2.447893   0.000000
     9  F    2.783272   4.149777   3.670782   0.000000
    10  F    3.592989   4.432443   2.752514   2.158173   0.000000
    11  F    4.342265   5.540900   4.235549   2.155101   2.152541
    12  H    2.857505   2.221653   0.966961   4.369795   3.512531
                   11         12
    11  F    0.000000
    12  H    5.150313   0.000000
 Symmetry turned off by external request.
 Stoichiometry    C2HF5O3S
 Rotational constants (GHZ):           1.6118244           0.7816987           0.7557474
 Leave Link  202 at Sat May 24 05:38:06 2025, MaxMem=  3758096384 cpu:               0.0 elap:               0.0
 (Enter /apps/easybuild-2022/easybuild/software/Compiler/NVHPC/22.11-CUDA-11.7.0/Gaussian/g16c01-CUDA-11.7.0/g16/l301.exe)
 Standard basis: def2TZVPP (5D, 7F)
 Ernie: Thresh=  0.10000D-02 Tol=  0.10000D-05 Strict=F.
   366 basis functions,   596 primitive gaussians,   423 cartesian basis functions
    49 alpha electrons       49 beta electrons
       nuclear repulsion energy       912.5006411419 Hartrees.
 IExCor= 4336 DFT=T Ex+Corr=M062X ExCW=0 ScaHFX=  0.540000
 ScaDFX=  1.000000  1.000000  1.000000  1.000000 ScalE2=  1.000000  1.000000
 IRadAn=      5 IRanWt=     -1 IRanGd=            0 ICorTp=0 IEmpDi=  4
 NAtoms=   12 NActive=   12 NUniq=   12 SFac= 1.00D+00 NAtFMM=   60 NAOKFM=F Big=F
 Integral buffers will be    131072 words long.
 Raffenetti 2 integral format.
 Two-electron integral symmetry is turned off.
 Leave Link  301 at Sat May 24 05:38:06 2025, MaxMem=  3758096384 cpu:               0.0 elap:               0.0
 (Enter /apps/easybuild-2022/easybuild/software/Compiler/NVHPC/22.11-CUDA-11.7.0/Gaussian/g16c01-CUDA-11.7.0/g16/l302.exe)
 NPDir=0 NMtPBC=     1 NCelOv=     1 NCel=       1 NClECP=     1 NCelD=      1
         NCelK=      1 NCelE2=     1 NClLst=     1 CellRange=     0.0.
 One-electron integrals computed using PRISM.
   1 Symmetry operations used in ECPInt.
 ECPInt:  NShTT=    8515 NPrTT=   27988 LenC2=    7986 LenP2D=   19366.
 LDataN:  DoStor=T MaxTD1= 6 Len=  172
 NBasis=   366 RedAO= T EigKep=  4.43D-04  NBF=   366
 NBsUse=   366 1.00D-06 EigRej= -1.00D+00 NBFU=   366
 Precomputing XC quadrature grid using
 IXCGrd= 4 IRadAn=           5 IRanWt=          -1 IRanGd=           0 AccXCQ= 0.00D+00.
 Generated NRdTot=       0 NPtTot=           0 NUsed=           0 NTot=          32
 NSgBfM=   419   419   419   419   419 MxSgAt=    12 MxSgA2=    12.
 Leave Link  302 at Sat May 24 05:38:06 2025, MaxMem=  3758096384 cpu:               0.6 elap:               0.1
 (Enter /apps/easybuild-2022/easybuild/software/Compiler/NVHPC/22.11-CUDA-11.7.0/Gaussian/g16c01-CUDA-11.7.0/g16/l303.exe)
 DipDrv:  MaxL=1.
 Leave Link  303 at Sat May 24 05:38:06 2025, MaxMem=  3758096384 cpu:               0.1 elap:               0.0
 (Enter /apps/easybuild-2022/easybuild/software/Compiler/NVHPC/22.11-CUDA-11.7.0/Gaussian/g16c01-CUDA-11.7.0/g16/l401.exe)
 Initial guess from the checkpoint file:  "2003846667223680600001_r12_insertion_R_6_5_7_IRC_R_prod.chk"
 B after Tr=     0.002738    0.013552   -0.006479
         Rot=    0.999985    0.004365   -0.000860   -0.003257 Ang=   0.63 deg.
 Guess basis will be translated and rotated to current coordinates.
 JPrj=2 DoOrth=T DoCkMO=T.
 Generating alternative initial guess.
 ExpMin= 9.52D-02 ExpMax= 6.07D+04 ExpMxC= 2.07D+03 IAcc=3 IRadAn=         5 AccDes= 0.00D+00
 Harris functional with IExCor= 1009 and IRadAn=       5 diagonalized for initial guess.
 HarFok:  IExCor= 1009 AccDes= 0.00D+00 IRadAn=         5 IDoV= 1 UseB2=F ITyADJ=14
 ICtDFT=  3500011 ScaDFX=  1.000000  1.000000  1.000000  1.000000
 FoFCou: FMM=F IPFlag=           0 FMFlag=      100000 FMFlg1=           0
         NFxFlg=           0 DoJE=T BraDBF=F KetDBF=T FulRan=T
         wScrn=  0.000000 ICntrl=       500 IOpCl=  0 I1Cent=   200000004 NGrid=           0
         NMat0=    1 NMatS0=      1 NMatT0=    0 NMatD0=    1 NMtDS0=    0 NMtDT0=    0
 Symmetry not used in FoFCou.
 Harris En= -1199.14401319468    
 Leave Link  401 at Sat May 24 05:38:06 2025, MaxMem=  3758096384 cpu:               3.9 elap:               0.6
 (Enter /apps/easybuild-2022/easybuild/software/Compiler/NVHPC/22.11-CUDA-11.7.0/Gaussian/g16c01-CUDA-11.7.0/g16/l502.exe)
 Keep R1 ints in memory in canonical form, NReq=2293446996.
 FoFCou: FMM=F IPFlag=           0 FMFlag=           0 FMFlg1=           0
         NFxFlg=           0 DoJE=F BraDBF=F KetDBF=F FulRan=T
         wScrn=  0.000000 ICntrl=       600 IOpCl=  0 I1Cent=           0 NGrid=           0
         NMat0=    1 NMatS0=  67161 NMatT0=    0 NMatD0=    1 NMtDS0=    0 NMtDT0=    0
 Symmetry not used in FoFCou.
 Two-electron integral symmetry not used.
 Closed shell SCF:
 Using DIIS extrapolation, IDIIS=  1040.
 NGot=  3758096384 LenX=  1502398672 LenY=  1502219302
 Requested convergence on RMS density matrix=1.00D-08 within  32 cycles.
 Requested convergence on MAX density matrix=1.00D-06.
 Requested convergence on             energy=1.00D-06.
 No special actions if energy rises.
 Integral accuracy reduced to 1.0D-05 until final iterations.

 Cycle   1  Pass 0  IDiag  1:
 E= -1199.76081030433    
 DIIS: error= 4.51D-03 at cycle   1 NSaved=   1.
 NSaved= 1 IEnMin= 1 EnMin= -1199.76081030433     IErMin= 1 ErrMin= 4.51D-03
 ErrMax= 4.51D-03  0.00D+00 EMaxC= 1.00D-01 BMatC= 1.23D-02 BMatP= 1.23D-02
 IDIUse=3 WtCom= 9.55D-01 WtEn= 4.51D-02
 Coeff-Com:  0.100D+01
 Coeff-En:   0.100D+01
 Coeff:      0.100D+01
 Gap=     1.022 Goal=   None    Shift=    0.000
 GapD=    1.022 DampG=2.000 DampE=1.000 DampFc=2.0000 IDamp=-1.
 RMSDP=3.01D-04 MaxDP=7.71D-03              OVMax= 2.56D-02

 Cycle   2  Pass 0  IDiag  1:
 E= -1199.77712211757     Delta-E=       -0.016311813240 Rises=F Damp=F
 DIIS: error= 7.63D-04 at cycle   2 NSaved=   2.
 NSaved= 2 IEnMin= 2 EnMin= -1199.77712211757     IErMin= 2 ErrMin= 7.63D-04
 ErrMax= 7.63D-04  0.00D+00 EMaxC= 1.00D-01 BMatC= 6.24D-04 BMatP= 1.23D-02
 IDIUse=3 WtCom= 9.92D-01 WtEn= 7.63D-03
 Coeff-Com: -0.120D+00 0.112D+01
 Coeff-En:   0.000D+00 0.100D+01
 Coeff:     -0.120D+00 0.112D+01
 Gap=     0.348 Goal=   None    Shift=    0.000
 RMSDP=9.61D-05 MaxDP=3.63D-03 DE=-1.63D-02 OVMax= 8.64D-03

 Cycle   3  Pass 0  IDiag  1:
 E= -1199.77766911451     Delta-E=       -0.000546996944 Rises=F Damp=F
 DIIS: error= 9.04D-04 at cycle   3 NSaved=   3.
 NSaved= 3 IEnMin= 3 EnMin= -1199.77766911451     IErMin= 2 ErrMin= 7.63D-04
 ErrMax= 9.04D-04  0.00D+00 EMaxC= 1.00D-01 BMatC= 7.72D-04 BMatP= 6.24D-04
 IDIUse=3 WtCom= 2.50D-01 WtEn= 7.50D-01
 Coeff-Com: -0.102D+00 0.658D+00 0.444D+00
 Coeff-En:   0.000D+00 0.000D+00 0.100D+01
 Coeff:     -0.254D-01 0.164D+00 0.861D+00
 Gap=     0.351 Goal=   None    Shift=    0.000
 RMSDP=8.96D-05 MaxDP=6.17D-03 DE=-5.47D-04 OVMax= 1.14D-02

 Cycle   4  Pass 0  IDiag  1:
 E= -1199.77720003876     Delta-E=        0.000469075751 Rises=F Damp=F
 DIIS: error= 1.31D-03 at cycle   4 NSaved=   4.
 NSaved= 4 IEnMin= 3 EnMin= -1199.77766911451     IErMin= 2 ErrMin= 7.63D-04
 ErrMax= 1.31D-03  0.00D+00 EMaxC= 1.00D-01 BMatC= 1.53D-03 BMatP= 6.24D-04
 IDIUse=3 WtCom= 2.16D-01 WtEn= 7.84D-01
 Coeff-Com: -0.176D-01 0.272D-01 0.588D+00 0.403D+00
 Coeff-En:   0.000D+00 0.000D+00 0.623D+00 0.377D+00
 Coeff:     -0.381D-02 0.589D-02 0.616D+00 0.382D+00
 Gap=     0.349 Goal=   None    Shift=    0.000
 RMSDP=4.73D-05 MaxDP=3.36D-03 DE= 4.69D-04 OVMax= 6.35D-03

 Cycle   5  Pass 0  IDiag  1:
 E= -1199.77821906727     Delta-E=       -0.001019028511 Rises=F Damp=F
 DIIS: error= 1.14D-04 at cycle   5 NSaved=   5.
 NSaved= 5 IEnMin= 5 EnMin= -1199.77821906727     IErMin= 5 ErrMin= 1.14D-04
 ErrMax= 1.14D-04  0.00D+00 EMaxC= 1.00D-01 BMatC= 1.96D-05 BMatP= 6.24D-04
 IDIUse=3 WtCom= 9.99D-01 WtEn= 1.14D-03
 Coeff-Com:  0.767D-02-0.107D+00 0.273D+00 0.182D+00 0.644D+00
 Coeff-En:   0.000D+00 0.000D+00 0.000D+00 0.000D+00 0.100D+01
 Coeff:      0.766D-02-0.106D+00 0.273D+00 0.182D+00 0.644D+00
 Gap=     0.349 Goal=   None    Shift=    0.000
 RMSDP=9.10D-06 MaxDP=4.26D-04 DE=-1.02D-03 OVMax= 1.35D-03

 Initial convergence to 1.0D-05 achieved.  Increase integral accuracy.
 Cycle   6  Pass 1  IDiag  1:
 E= -1199.77826556223     Delta-E=       -0.000046494953 Rises=F Damp=F
 DIIS: error= 3.37D-05 at cycle   1 NSaved=   1.
 NSaved= 1 IEnMin= 1 EnMin= -1199.77826556223     IErMin= 1 ErrMin= 3.37D-05
 ErrMax= 3.37D-05  0.00D+00 EMaxC= 1.00D-01 BMatC= 1.68D-06 BMatP= 1.68D-06
 IDIUse=1 WtCom= 1.00D+00 WtEn= 0.00D+00
 Coeff-Com:  0.100D+01
 Coeff:      0.100D+01
 Gap=     0.349 Goal=   None    Shift=    0.000
 RMSDP=9.10D-06 MaxDP=4.26D-04 DE=-4.65D-05 OVMax= 7.72D-04

 Cycle   7  Pass 1  IDiag  1:
 E= -1199.77826732013     Delta-E=       -0.000001757905 Rises=F Damp=F
 DIIS: error= 2.44D-05 at cycle   2 NSaved=   2.
 NSaved= 2 IEnMin= 2 EnMin= -1199.77826732013     IErMin= 2 ErrMin= 2.44D-05
 ErrMax= 2.44D-05  0.00D+00 EMaxC= 1.00D-01 BMatC= 7.55D-07 BMatP= 1.68D-06
 IDIUse=1 WtCom= 1.00D+00 WtEn= 0.00D+00
 Coeff-Com:  0.348D+00 0.652D+00
 Coeff:      0.348D+00 0.652D+00
 Gap=     0.349 Goal=   None    Shift=    0.000
 RMSDP=2.54D-06 MaxDP=1.32D-04 DE=-1.76D-06 OVMax= 3.39D-04

 Cycle   8  Pass 1  IDiag  1:
 E= -1199.77826782524     Delta-E=       -0.000000505104 Rises=F Damp=F
 DIIS: error= 1.76D-05 at cycle   3 NSaved=   3.
 NSaved= 3 IEnMin= 3 EnMin= -1199.77826782524     IErMin= 3 ErrMin= 1.76D-05
 ErrMax= 1.76D-05  0.00D+00 EMaxC= 1.00D-01 BMatC= 3.22D-07 BMatP= 7.55D-07
 IDIUse=1 WtCom= 1.00D+00 WtEn= 0.00D+00
 Coeff-Com: -0.673D-01 0.383D+00 0.685D+00
 Coeff:     -0.673D-01 0.383D+00 0.685D+00
 Gap=     0.349 Goal=   None    Shift=    0.000
 RMSDP=1.41D-06 MaxDP=6.58D-05 DE=-5.05D-07 OVMax= 2.80D-04

 Cycle   9  Pass 1  IDiag  1:
 E= -1199.77826814538     Delta-E=       -0.000000320142 Rises=F Damp=F
 DIIS: error= 6.49D-06 at cycle   4 NSaved=   4.
 NSaved= 4 IEnMin= 4 EnMin= -1199.77826814538     IErMin= 4 ErrMin= 6.49D-06
 ErrMax= 6.49D-06  0.00D+00 EMaxC= 1.00D-01 BMatC= 3.89D-08 BMatP= 3.22D-07
 IDIUse=1 WtCom= 1.00D+00 WtEn= 0.00D+00
 Coeff-Com: -0.651D-01 0.133D+00 0.335D+00 0.598D+00
 Coeff:     -0.651D-01 0.133D+00 0.335D+00 0.598D+00
 Gap=     0.349 Goal=   None    Shift=    0.000
 RMSDP=5.44D-07 MaxDP=2.33D-05 DE=-3.20D-07 OVMax= 1.26D-04

 Cycle  10  Pass 1  IDiag  1:
 E= -1199.77826819293     Delta-E=       -0.000000047549 Rises=F Damp=F
 DIIS: error= 3.40D-06 at cycle   5 NSaved=   5.
 NSaved= 5 IEnMin= 5 EnMin= -1199.77826819293     IErMin= 5 ErrMin= 3.40D-06
 ErrMax= 3.40D-06  0.00D+00 EMaxC= 1.00D-01 BMatC= 1.17D-08 BMatP= 3.89D-08
 IDIUse=1 WtCom= 1.00D+00 WtEn= 0.00D+00
 Coeff-Com: -0.490D-02-0.109D+00-0.143D+00 0.334D+00 0.923D+00
 Coeff:     -0.490D-02-0.109D+00-0.143D+00 0.334D+00 0.923D+00
 Gap=     0.349 Goal=   None    Shift=    0.000
 RMSDP=5.49D-07 MaxDP=2.68D-05 DE=-4.75D-08 OVMax= 1.57D-04

 Cycle  11  Pass 1  IDiag  1:
 E= -1199.77826821935     Delta-E=       -0.000000026424 Rises=F Damp=F
 DIIS: error= 1.03D-06 at cycle   6 NSaved=   6.
 NSaved= 6 IEnMin= 6 EnMin= -1199.77826821935     IErMin= 6 ErrMin= 1.03D-06
 ErrMax= 1.03D-06  0.00D+00 EMaxC= 1.00D-01 BMatC= 1.24D-09 BMatP= 1.17D-08
 IDIUse=1 WtCom= 1.00D+00 WtEn= 0.00D+00
 Coeff-Com:  0.882D-02-0.574D-01-0.105D+00 0.642D-02 0.333D+00 0.814D+00
 Coeff:      0.882D-02-0.574D-01-0.105D+00 0.642D-02 0.333D+00 0.814D+00
 Gap=     0.349 Goal=   None    Shift=    0.000
 RMSDP=1.95D-07 MaxDP=8.83D-06 DE=-2.64D-08 OVMax= 5.55D-05

 Cycle  12  Pass 1  IDiag  1:
 E= -1199.77826822223     Delta-E=       -0.000000002875 Rises=F Damp=F
 DIIS: error= 3.61D-07 at cycle   7 NSaved=   7.
 NSaved= 7 IEnMin= 7 EnMin= -1199.77826822223     IErMin= 7 ErrMin= 3.61D-07
 ErrMax= 3.61D-07  0.00D+00 EMaxC= 1.00D-01 BMatC= 1.56D-10 BMatP= 1.24D-09
 IDIUse=1 WtCom= 1.00D+00 WtEn= 0.00D+00
 Coeff-Com:  0.315D-02-0.862D-02-0.213D-01-0.313D-01 0.122D-01 0.277D+00
 Coeff-Com:  0.769D+00
 Coeff:      0.315D-02-0.862D-02-0.213D-01-0.313D-01 0.122D-01 0.277D+00
 Coeff:      0.769D+00
 Gap=     0.349 Goal=   None    Shift=    0.000
 RMSDP=5.60D-08 MaxDP=2.01D-06 DE=-2.88D-09 OVMax= 1.44D-05

 Cycle  13  Pass 1  IDiag  1:
 E= -1199.77826822244     Delta-E=       -0.000000000214 Rises=F Damp=F
 DIIS: error= 1.80D-07 at cycle   8 NSaved=   8.
 NSaved= 8 IEnMin= 8 EnMin= -1199.77826822244     IErMin= 8 ErrMin= 1.80D-07
 ErrMax= 1.80D-07  0.00D+00 EMaxC= 1.00D-01 BMatC= 3.54D-11 BMatP= 1.56D-10
 IDIUse=1 WtCom= 1.00D+00 WtEn= 0.00D+00
 Coeff-Com: -0.631D-03 0.806D-02 0.131D-01-0.147D-01-0.654D-01-0.406D-01
 Coeff-Com:  0.323D+00 0.777D+00
 Coeff:     -0.631D-03 0.806D-02 0.131D-01-0.147D-01-0.654D-01-0.406D-01
 Coeff:      0.323D+00 0.777D+00
 Gap=     0.349 Goal=   None    Shift=    0.000
 RMSDP=2.57D-08 MaxDP=1.19D-06 DE=-2.14D-10 OVMax= 5.73D-06

 Cycle  14  Pass 1  IDiag  1:
 E= -1199.77826822245     Delta-E=       -0.000000000014 Rises=F Damp=F
 DIIS: error= 5.55D-08 at cycle   9 NSaved=   9.
 NSaved= 9 IEnMin= 9 EnMin= -1199.77826822245     IErMin= 9 ErrMin= 5.55D-08
 ErrMax= 5.55D-08  0.00D+00 EMaxC= 1.00D-01 BMatC= 2.55D-12 BMatP= 3.54D-11
 IDIUse=1 WtCom= 1.00D+00 WtEn= 0.00D+00
 Coeff-Com: -0.477D-03 0.313D-02 0.617D-02 0.503D-03-0.169D-01-0.474D-01
 Coeff-Com: -0.497D-01 0.144D+00 0.961D+00
 Coeff:     -0.477D-03 0.313D-02 0.617D-02 0.503D-03-0.169D-01-0.474D-01
 Coeff:     -0.497D-01 0.144D+00 0.961D+00
 Gap=     0.349 Goal=   None    Shift=    0.000
 RMSDP=9.97D-09 MaxDP=5.08D-07 DE=-1.36D-11 OVMax= 1.92D-06

 SCF Done:  E(RM062X) =  -1199.77826822     A.U. after   14 cycles
            NFock= 14  Conv=0.10D-07     -V/T= 2.0028
 KE= 1.196371282725D+03 PE=-4.672256290090D+03 EE= 1.363606098001D+03
 Leave Link  502 at Sat May 24 05:38:42 2025, MaxMem=  3758096384 cpu:             143.5 elap:              35.9
 (Enter /apps/easybuild-2022/easybuild/software/Compiler/NVHPC/22.11-CUDA-11.7.0/Gaussian/g16c01-CUDA-11.7.0/g16/l508.exe)
 QCSCF skips out because SCF is already converged.
 Leave Link  508 at Sat May 24 05:38:42 2025, MaxMem=  3758096384 cpu:               0.0 elap:               0.0
 (Enter /apps/easybuild-2022/easybuild/software/Compiler/NVHPC/22.11-CUDA-11.7.0/Gaussian/g16c01-CUDA-11.7.0/g16/l701.exe)
 ... and contract with generalized density number  0.
 Compute integral first derivatives.
   1 Symmetry operations used in ECPInt.
 ECPInt:  NShTT=    8515 NPrTT=   27988 LenC2=    7986 LenP2D=   19366.
 LDataN:  DoStor=T MaxTD1= 7 Len=  274
 Leave Link  701 at Sat May 24 05:38:43 2025, MaxMem=  3758096384 cpu:               0.5 elap:               0.1
 (Enter /apps/easybuild-2022/easybuild/software/Compiler/NVHPC/22.11-CUDA-11.7.0/Gaussian/g16c01-CUDA-11.7.0/g16/l702.exe)
 L702 exits ... SP integral derivatives will be done elsewhere.
 Leave Link  702 at Sat May 24 05:38:43 2025, MaxMem=  3758096384 cpu:               0.0 elap:               0.0
 (Enter /apps/easybuild-2022/easybuild/software/Compiler/NVHPC/22.11-CUDA-11.7.0/Gaussian/g16c01-CUDA-11.7.0/g16/l703.exe)
 Integral derivatives from FoFJK, PRISM(SPDF).
 Compute integral first derivatives, UseDBF=F ICtDFT=           0.
 Calling FoFJK, ICntrl=      2127 FMM=F ISym2X=0 I1Cent= 0 IOpClX= 0 NMat=1 NMatS=1 NMatT=0.
 FoFJK:  IHMeth= 1 ICntrl=    2127 DoSepK=F KAlg= 0 I1Cent=           0 FoldK=F
 IRaf=         0 NMat=       1 IRICut=       1 DoRegI=T DoRafI=F ISym2E= 0 IDoP0=0 IntGTp=1.
 FoFCou: FMM=F IPFlag=           0 FMFlag=      100000 FMFlg1=         800
         NFxFlg=           0 DoJE=F BraDBF=F KetDBF=F FulRan=T
         wScrn=  0.000000 ICntrl=      2127 IOpCl=  0 I1Cent=           0 NGrid=           0
         NMat0=    1 NMatS0=      1 NMatT0=    0 NMatD0=    1 NMtDS0=    0 NMtDT0=    0
 Symmetry not used in FoFCou.
 Leave Link  703 at Sat May 24 05:38:54 2025, MaxMem=  3758096384 cpu:              88.8 elap:              11.2
 (Enter /apps/easybuild-2022/easybuild/software/Compiler/NVHPC/22.11-CUDA-11.7.0/Gaussian/g16c01-CUDA-11.7.0/g16/l716.exe)
 Dipole        = 3.82659123D-01 7.80419161D-01 2.70354144D-01
 -------------------------------------------------------------------
 Center     Atomic                   Forces (Hartrees/Bohr)
 Number     Number              X              Y              Z
 -------------------------------------------------------------------
      1        6          -0.000053192   -0.000164834    0.000032772
      2        6          -0.000087246    0.000114011   -0.000259653
      3        9          -0.000092220    0.000025093    0.000018816
      4        9           0.000055002    0.000070098   -0.000036449
      5       16           0.000241025   -0.000021602    0.000336011
      6        8          -0.000051252    0.000011314   -0.000203121
      7        8           0.000021318   -0.000006009   -0.000116173
      8        8           0.000053095   -0.000042414   -0.000019484
      9        9           0.000102722    0.000033784    0.000104388
     10        9          -0.000198648    0.000070584    0.000170720
     11        9           0.000012415   -0.000114566   -0.000011160
     12        1          -0.000003020    0.000024540   -0.000016667
 -------------------------------------------------------------------
 Cartesian Forces:  Max     0.000336011 RMS     0.000115805
 Leave Link  716 at Sat May 24 05:38:54 2025, MaxMem=  3758096384 cpu:               0.0 elap:               0.0
 (Enter /apps/easybuild-2022/easybuild/software/Compiler/NVHPC/22.11-CUDA-11.7.0/Gaussian/g16c01-CUDA-11.7.0/g16/l103.exe)

 GradGradGradGradGradGradGradGradGradGradGradGradGradGradGradGradGradGrad
 Berny optimization.
 Using GEDIIS/GDIIS optimizer.
 FormGI is forming the generalized inverse of G from B-inverse, IUseBI=4.
 Internal  Forces:  Max     0.000361086 RMS     0.000104227
 Search for a local minimum.
 Step number   2 out of a maximum of   61
 All quantities printed in internal units (Hartrees-Bohrs-Radians)
 RMS Force = .10423D-03 SwitMx=.10000D-02 MixMth= 2
 Mixed Optimization -- En-DIIS/RFO-DIIS
 Update second derivatives using D2CorX and points    1    2
 DE= -5.42D-04 DEPred=-5.28D-04 R= 1.03D+00
 TightC=F SS=  1.41D+00  RLast= 3.25D-01 DXNew= 5.0454D-01 9.7383D-01
 Trust test= 1.03D+00 RLast= 3.25D-01 DXMaxT set to 5.05D-01
 ITU=  1  0
 Use linear search instead of GDIIS.
     Eigenvalues ---    0.00094   0.00354   0.00455   0.03498   0.03667
     Eigenvalues ---    0.06685   0.07912   0.09332   0.10698   0.10869
     Eigenvalues ---    0.12138   0.13612   0.14421   0.15298   0.17183
     Eigenvalues ---    0.20328   0.23796   0.24271   0.24447   0.26027
     Eigenvalues ---    0.32963   0.37193   0.39035   0.39354   0.40541
     Eigenvalues ---    0.40798   0.41901   0.49486   0.53270   0.58492
 RFO step:  Lambda=-1.69922795D-04 EMin= 9.39751158D-04
 Quartic linear search produced a step of  0.16694.
 Iteration  1 RMS(Cart)=  0.08412050 RMS(Int)=  0.00384817
 Iteration  2 RMS(Cart)=  0.00400625 RMS(Int)=  0.00003021
 Iteration  3 RMS(Cart)=  0.00000729 RMS(Int)=  0.00002978
 Iteration  4 RMS(Cart)=  0.00000000 RMS(Int)=  0.00002978
 ITry= 1 IFail=0 DXMaxC= 2.43D-01 DCOld= 1.00D+10 DXMaxT= 5.05D-01 DXLimC= 3.00D+00 Rises=F
 Variable       Old X    -DE/DX   Delta X   Delta X   Delta X     New X
                                 (Linear)    (Quad)   (Total)
    R1        2.90840   0.00036  -0.00040  -0.00062  -0.00102   2.90737
    R2        2.50541  -0.00002   0.00010   0.00025   0.00035   2.50576
    R3        2.50119   0.00011  -0.00021  -0.00116  -0.00137   2.49983
    R4        2.51176  -0.00001  -0.00010   0.00094   0.00084   2.51260
    R5        2.54307   0.00001  -0.00027   0.00029   0.00002   2.54309
    R6        2.53392   0.00003  -0.00001   0.00228   0.00227   2.53618
    R7        3.59654   0.00025  -0.00171  -0.00029  -0.00200   3.59454
    R8        2.94432  -0.00002   0.00052  -0.00026   0.00025   2.94457
    R9        3.36636   0.00001  -0.00087  -0.00516  -0.00606   3.36030
   R10        3.01412  -0.00004   0.00047  -0.00011   0.00036   3.01448
   R11        2.82480   0.00003  -0.00051   0.00003  -0.00044   2.82436
   R12        1.82729  -0.00001   0.00024  -0.00020   0.00004   1.82733
    A1        1.92134   0.00002  -0.00070   0.00102   0.00032   1.92166
    A2        1.94326   0.00013   0.00046   0.00263   0.00309   1.94635
    A3        1.90691   0.00008   0.00017  -0.00324  -0.00307   1.90385
    A4        1.90406  -0.00005  -0.00001   0.00113   0.00111   1.90518
    A5        1.89419  -0.00004   0.00026  -0.00031  -0.00006   1.89414
    A6        1.89322  -0.00015  -0.00018  -0.00132  -0.00150   1.89172
    A7        1.87557   0.00002   0.00052  -0.00266  -0.00216   1.87341
    A8        1.89659  -0.00004   0.00069  -0.00383  -0.00310   1.89349
    A9        2.11389   0.00009  -0.00491   0.02111   0.01621   2.13010
   A10        1.89463  -0.00001   0.00004   0.00052   0.00052   1.89515
   A11        1.80946  -0.00007   0.00267  -0.00403  -0.00140   1.80806
   A12        1.86398   0.00000   0.00141  -0.01229  -0.01088   1.85310
   A13        1.69182   0.00003  -0.00167   0.00500   0.00342   1.69524
   A14        2.58584   0.00004  -0.00328   0.00824   0.00486   2.59070
   A15        1.56044   0.00011  -0.00297   0.00232  -0.00073   1.55971
   A16        1.92051   0.00011   0.00217   0.00038   0.00254   1.92305
   A17        1.61916  -0.00007  -0.00086   0.00316   0.00221   1.62138
   A18        1.88735  -0.00001   0.00045   0.00195   0.00239   1.88974
    D1        1.01743   0.00012   0.01474   0.08358   0.09832   1.11576
    D2        3.06440   0.00009   0.01542   0.08073   0.09614  -3.12265
    D3       -1.05330   0.00014   0.01404   0.07679   0.09084  -0.96247
    D4        3.13135   0.00015   0.01456   0.08743   0.10201  -3.04983
    D5       -1.10487   0.00013   0.01524   0.08459   0.09982  -1.00505
    D6        1.06061   0.00017   0.01387   0.08065   0.09452   1.15513
    D7       -1.06106   0.00010   0.01474   0.08533   0.10008  -0.96099
    D8        0.98590   0.00008   0.01542   0.08248   0.09789   1.08380
    D9       -3.13180   0.00012   0.01404   0.07855   0.09259  -3.03921
   D10        0.84933   0.00015   0.01325   0.08604   0.09930   0.94863
   D11        0.57329   0.00008   0.00443   0.09584   0.10031   0.67360
   D12       -1.07255   0.00002   0.01153   0.08520   0.09672  -0.97583
   D13       -1.25387   0.00013   0.01340   0.07951   0.09292  -1.16095
   D14       -1.52991   0.00006   0.00458   0.08932   0.09393  -1.43598
   D15        3.10743   0.00000   0.01168   0.07867   0.09034  -3.08541
   D16        3.02998   0.00018   0.01165   0.08569   0.09731   3.12729
   D17        2.75394   0.00010   0.00283   0.09549   0.09832   2.85226
   D18        1.10810   0.00005   0.00993   0.08484   0.09473   1.20283
   D19        2.99345   0.00006  -0.00006   0.03180   0.03174   3.02519
   D20        1.29759  -0.00002   0.00268   0.02561   0.02828   1.32587
   D21        0.40658   0.00002   0.00360   0.02318   0.02679   0.43337
         Item               Value     Threshold  Converged?
[...]
   D16       -2.96952  -0.00000   0.00000   0.00037   0.00037  -2.96915
   D17        3.01884  -0.00000   0.00000   0.00038   0.00038   3.01922
   D18        1.38751  -0.00000   0.00000   0.00040   0.00040   1.38791
   D19        3.01866   0.00000   0.00000   0.00012   0.00012   3.01878
   D20        1.32634  -0.00000   0.00000   0.00010   0.00010   1.32644
   D21        0.43630  -0.00000   0.00000   0.00010   0.00010   0.43640
         Item               Value     Threshold  Converged?
 Maximum Force            0.000024     0.000450     YES
 RMS     Force            0.000006     0.000300     YES
 Maximum Displacement     0.001194     0.001800     YES
 RMS     Displacement     0.000407     0.001200     YES
 Predicted change in Energy=-7.169227D-09
 Optimization completed.
    -- Stationary point found.
                           ----------------------------
                           !   Optimized Parameters   !
                           ! (Angstroms and Degrees)  !
 --------------------------                            --------------------------
 ! Name  Definition              Value          Derivative Info.                !
 --------------------------------------------------------------------------------
 ! R1    R(1,2)                  1.5419         -DE/DX =    0.0                 !
 ! R2    R(1,9)                  1.3267         -DE/DX =    0.0                 !
 ! R3    R(1,10)                 1.3231         -DE/DX =    0.0                 !
 ! R4    R(1,11)                 1.3291         -DE/DX =    0.0                 !
 ! R5    R(2,3)                  1.3434         -DE/DX =    0.0                 !
 ! R6    R(2,4)                  1.3426         -DE/DX =    0.0                 !
 ! R7    R(2,5)                  1.9025         -DE/DX =    0.0                 !
 ! R8    R(5,6)                  1.5585         -DE/DX =    0.0                 !
 ! R9    R(5,7)                  1.7784         -DE/DX =    0.0                 !
 ! R10   R(5,8)                  1.5963         -DE/DX =    0.0                 !
 ! R11   R(6,7)                  1.494          -DE/DX =    0.0                 !
 ! R12   R(8,12)                 0.967          -DE/DX =    0.0                 !
 ! A1    A(2,1,9)              110.1639         -DE/DX =    0.0                 !
 ! A2    A(2,1,10)             111.1805         -DE/DX =    0.0                 !
 ! A3    A(2,1,11)             109.4317         -DE/DX =    0.0                 !
 ! A4    A(9,1,10)             109.1901         -DE/DX =    0.0                 !
 ! A5    A(9,1,11)             108.5394         -DE/DX =    0.0                 !
 ! A6    A(10,1,11)            108.2743         -DE/DX =    0.0                 !
 ! A7    A(1,2,3)              108.1188         -DE/DX =    0.0                 !
 ! A8    A(1,2,4)              108.4868         -DE/DX =    0.0                 !
 ! A9    A(1,2,5)              120.7188         -DE/DX =    0.0                 !
 ! A10   A(3,2,4)              108.5659         -DE/DX =    0.0                 !
 ! A11   A(3,2,5)              104.3784         -DE/DX =    0.0                 !
 ! A12   A(4,2,5)              106.0641         -DE/DX =    0.0                 !
 ! A13   A(2,5,6)               96.8977         -DE/DX =    0.0                 !
 ! A14   A(2,5,7)              147.934          -DE/DX =    0.0                 !
 ! A15   A(2,5,8)               88.9377         -DE/DX =    0.0                 !
 ! A16   A(6,5,8)              110.3394         -DE/DX =    0.0                 !
 ! A17   A(7,5,8)               92.7411         -DE/DX =    0.0                 !
 ! A18   A(5,8,12)             108.3688         -DE/DX =    0.0                 !
 ! D1    D(9,1,2,3)             73.3443         -DE/DX =    0.0                 !
 ! D2    D(9,1,2,4)           -169.0984         -DE/DX =    0.0                 !
 ! D3    D(9,1,2,5)            -46.547          -DE/DX =    0.0                 !
 ! D4    D(10,1,2,3)          -165.4693         -DE/DX =    0.0                 !
 ! D5    D(10,1,2,4)           -47.912          -DE/DX =    0.0                 !
 ! D6    D(10,1,2,5)            74.6393         -DE/DX =    0.0                 !
 ! D7    D(11,1,2,3)           -45.9122         -DE/DX =    0.0                 !
 ! D8    D(11,1,2,4)            71.6451         -DE/DX =    0.0                 !
 ! D9    D(11,1,2,5)          -165.8036         -DE/DX =    0.0                 !
 ! D10   D(1,2,5,6)             66.1532         -DE/DX =    0.0                 !
 ! D11   D(1,2,5,7)             49.2607         -DE/DX =    0.0                 !
 ! D12   D(1,2,5,8)            -44.2076         -DE/DX =    0.0                 !
 ! D13   D(3,2,5,6)            -55.567          -DE/DX =    0.0                 !
 ! D14   D(3,2,5,7)            -72.4595         -DE/DX =    0.0                 !
 ! D15   D(3,2,5,8)           -165.9278         -DE/DX =    0.0                 !
 ! D16   D(4,2,5,6)           -170.1408         -DE/DX =    0.0                 !
 ! D17   D(4,2,5,7)            172.9667         -DE/DX =    0.0                 !
 ! D18   D(4,2,5,8)             79.4984         -DE/DX =    0.0                 !
 ! D19   D(2,5,8,12)           172.9567         -DE/DX =    0.0                 !
 ! D20   D(6,5,8,12)            75.9936         -DE/DX =    0.0                 !
 ! D21   D(7,5,8,12)            24.9981         -DE/DX =    0.0                 !
 --------------------------------------------------------------------------------
 GradGradGradGradGradGradGradGradGradGradGradGradGradGradGradGradGradGrad

 Leave Link  103 at Sat May 24 05:48:16 2025, MaxMem=  3758096384 cpu:               0.0 elap:               0.0
 (Enter /apps/easybuild-2022/easybuild/software/Compiler/NVHPC/22.11-CUDA-11.7.0/Gaussian/g16c01-CUDA-11.7.0/g16/l9999.exe)

 ----------------------------------------------------------------------

 Electric dipole moment (input orientation):
 (Debye = 10**-18 statcoulomb cm , SI units = C m)
                  (au)            (Debye)         (10**-30 SI)
   Tot        0.914832D+00      0.232527D+01      0.775627D+01
   x          0.394971D+00      0.100392D+01      0.334871D+01
   y          0.715596D+00      0.181886D+01      0.606708D+01
   z          0.410898D+00      0.104440D+01      0.348374D+01

 Dipole polarizability, Alpha (input orientation).
 (esu units = cm**3 , SI units = C**2 m**2 J**-1)
 Alpha(0;0):
               (au)            (10**-24 esu)      (10**-40 SI)
   iso        0.581886D+02      0.862266D+01      0.959400D+01
   aniso      0.234970D+02      0.348190D+01      0.387414D+01
   xx         0.728502D+02      0.107953D+02      0.120114D+02
   yx         0.144314D+01      0.213851D+00      0.237941D+00
   yy         0.498313D+02      0.738424D+01      0.821608D+01
   zx        -0.310584D+01     -0.460238D+00     -0.512084D+00
   zy         0.316739D+01      0.469358D+00      0.522232D+00
   zz         0.518842D+02      0.768845D+01      0.855455D+01

 ----------------------------------------------------------------------

 Dipole orientation:
     6         -2.16012170         -1.24360519         -1.10975657
     6         -0.91951323          1.25010754         -0.25381471
     9         -0.41715580          2.63278686         -2.32270266
     9         -2.57832893          2.52172355          1.18448145
    16          2.17384971          1.22828360          1.57818935
     8          3.85919201          0.15644631         -0.58618022
     8          5.33149659          0.10390995          1.82213191
     8          1.08916663         -1.01896234          3.27316478
     9         -0.44737229         -2.74665029         -2.15526101
     9         -3.22795183         -2.42872154          0.81546313
     9         -3.93727796         -0.75060350         -2.81479027
     1          2.43186419         -1.62401192          4.35512552

 Electric dipole moment (dipole orientation):
 (Debye = 10**-18 statcoulomb cm , SI units = C m)
                  (au)            (Debye)         (10**-30 SI)
   Tot        0.914832D+00      0.232527D+01      0.775627D+01
   x          0.000000D+00      0.000000D+00      0.000000D+00
   y          0.000000D+00      0.000000D+00      0.000000D+00
   z          0.914832D+00      0.232527D+01      0.775627D+01

 Dipole polarizability, Alpha (dipole orientation).
 (esu units = cm**3 , SI units = C**2 m**2 J**-1)
 Alpha(0;0):
               (au)            (10**-24 esu)      (10**-40 SI)
   iso        0.581886D+02      0.862266D+01      0.959400D+01
   aniso      0.234970D+02      0.348190D+01      0.387414D+01
   xx         0.700801D+02      0.103848D+02      0.115546D+02
   yx        -0.158443D+01     -0.234789D+00     -0.261238D+00
   yy         0.479536D+02      0.710599D+01      0.790648D+01
   zx         0.706239D+01      0.104654D+01      0.116443D+01
   zy        -0.268241D+01     -0.397491D+00     -0.442269D+00
   zz         0.565320D+02      0.837718D+01      0.932087D+01

 ----------------------------------------------------------------------
 Unable to Open any file for archive entry.
 1\1\GINC-SPARTAN-BM193\Freq\RM062X\def2TZVPP\C2H1F5O3S1\AKHALILOV\24-M
 ay-2025\0\\#P Geom=AllCheck Guess=TCheck SCRF=Check GenChk RM062X/def2
 TZVPP Freq\\Gaussian input prepared by ASE\\0,1\C,-1.0962350442,-0.573
 2023765,0.7445180163\C,-0.636150626,0.3905511835,-0.3677055574\F,-1.04
 76973763,-0.1050262629,-1.5465463256\F,-1.2292603113,1.5792674116,-0.1
 732253032\S,1.2114765935,0.7607236998,-0.6299750011\O,1.626296356,-0.6
 70726229,-1.0857838382\O,2.8618924429,0.1285190517,-0.8280031402\O,1.3
 756995458,0.9090013669,0.9509077412\F,-0.3599754219,-1.6767400077,0.72
 68702366\F,-1.0026209148,-0.0069543697,1.9366266851\F,-2.366043509,-0.
 9090730462,0.5412195648\H,2.3166402654,1.0062825786,1.1517539218\\Vers
 ion=ES64L-G16RevC.01\HF=-1199.7787262\RMSD=3.500e-09\RMSF=6.758e-06\Ze
 roPoint=0.0503593\Thermal=0.0610306\ETot=-1199.7176956\HTot=-1199.7167
 515\GTot=-1199.7655892\Dipole=0.3949714,0.7155961,0.4108977\DipoleDeri
 v=1.5878677,-0.0363951,0.0719067,0.2604274,1.4677281,0.0569877,-0.3112
 49,0.0690795,1.4643494,0.7212085,-0.1616684,0.1807848,-0.4996002,0.931
 219,0.2908253,0.5549436,0.2416893,0.8079087,-0.445826,-0.1073274,-0.21
 34768,-0.0965301,-0.3278994,-0.1322285,-0.2639651,-0.2028314,-0.716862
 ,-0.5426789,0.2756547,0.060672,0.3612823,-0.7220218,-0.0899356,0.02727
 8,-0.0113696,-0.2673257,2.1882662,-0.22795,-0.3287394,-0.4536788,1.002
 8905,0.2447855,-0.1223075,0.2784117,1.4470294,-0.5274941,0.0626649,0.1
 119959,0.0395217,-0.5079056,-0.2143268,0.0645374,-0.0104175,-0.2289743
 ,-0.9996106,0.2339555,0.1936001,0.5659516,-0.3172726,-0.1081519,0.0177
 869,-0.043686,-0.333619,-0.5292026,-0.0470208,-0.2138177,-0.005585,-0.
 4164173,-0.0164391,-0.2115597,-0.2638997,-1.1002427,-0.4491005,0.20188
 28,0.0305261,0.2139815,-0.7160975,0.0260271,0.033925,0.0797908,-0.2967
 387,-0.2921144,-0.0236726,0.0189818,-0.0491391,-0.3776217,-0.1382194,0
 .0641293,-0.2100123,-0.8111201,-1.033447,-0.1961857,-0.0281005,-0.3413
 67,-0.3659033,0.0401119,0.0611855,0.0358064,-0.328398,0.3221316,0.0260
 621,0.115667,0.0047359,0.3493015,0.0405637,0.0852955,0.0374389,0.36399
 3\Polar=72.8501774,1.4431382,49.8313444,-3.105838,3.1673871,51.8842136
 \PG=Unknown\NImag=0\\0.57497308,0.00256704,0.60470087,-0.01142387,-0.0
 0967502,0.61762085,-0.07464217,-0.01506720,0.01508850,0.45778935,-0.04
 635740,-0.09981625,0.06729996,-0.02188562,0.52950114,0.05322102,0.0704
 2874,-0.11799983,0.01835881,-0.01071156,0.53677521,-0.00214515,-0.0047
 9518,0.00317858,-0.10588184,-0.02999848,-0.08881112,0.09586974,0.00448
 385,0.00563598,0.00659631,-0.03182016,-0.08872576,-0.06473857,0.036982
 80,0.11714819,-0.02215431,-0.02729890,-0.04337268,-0.07992552,-0.05258
 076,-0.26156253,0.09594249,0.11549349,0.34207745,-0.00243057,0.0019127
 6,0.00426069,-0.13354563,0.11273198,0.00905183,0.01826626,-0.00395940,
 0.00807854,0.12481276,0.03072659,-0.04150348,-0.01273817,0.10558513,-0
 .25479310,-0.00284441,0.00455914,-0.03832652,-0.04121772,-0.14164709,0
 .34705587,-0.01358851,0.01485330,0.00439975,0.01186281,-0.01433861,-0.
 06920715,0.01667574,-0.05179238,-0.01752405,-0.02019973,0.04670571,0.0
 7951922,-0.00255462,-0.02090920,0.02112347,-0.11684357,-0.02941378,0.0
 2655940,0.00580921,0.00327210,0.00499653,-0.00012659,-0.00056944,0.001
 31098,0.33183316,-0.02193855,0.01468578,-0.00336139,-0.01658786,-0.062
 24745,0.03261555,-0.01095549,-0.00276343,-0.01226525,0.03814648,-0.013
 97730,-0.00730500,-0.11774623,0.50466145,0.02187622,0.00208773,0.01599
 147,0.02422347,0.02762164,-0.04429543,-0.02969070,-0.01361407,-0.01639
 305,0.00248807,-0.00482623,0.00065390,0.00006846,0.06763895,0.44392478
 ,0.00153754,0.00121002,-0.00101731,0.00754854,0.02522547,-0.00224356,-
 0.00446794,-0.00199578,-0.00169946,-0.00891812,0.00114545,0.00230804,-
 0.06716723,0.08051671,0.03019928,0.24611264,0.00256128,-0.00447787,-0.
 00112536,-0.00674209,-0.00474079,0.00235318,0.00471446,0.00337333,0.00
 462695,-0.00011665,0.00242118,-0.00067552,0.11823602,-0.33338088,-0.09
 233141,0.02213670,0.38702133,-0.00064390,-0.00085085,0.00064508,-0.000
 21775,-0.00751541,-0.00268923,0.00153876,0.00180297,0.00312493,0.00381
 993,-0.00238313,-0.00016565,0.04167899,-0.05757547,-0.05661175,0.00632
 449,0.10741312,0.06438610,-0.00412885,0.00883761,-0.00926022,-0.001275
 64,-0.01174576,0.02179799,-0.00003177,-0.00085801,-0.00434721,-0.00290
 569,0.00486450,-0.00069259,-0.06156024,0.05187459,0.00163569,-0.176297
 17,-0.13812721,-0.05483145,0.25724318,0.00406019,-0.00722890,0.0048306
 8,-0.00303929,0.01381244,-0.01167197,0.00190984,0.00086537,0.00389834,
 -0.00293643,0.00010367,0.00086301,0.03558456,-0.05419223,-0.00122725,-
 0.12716700,-0.06150750,-0.01934523,0.08407808,0.10627921,-0.00263784,0
 .00065502,-0.00313739,-0.00271194,-0.00569831,0.00457788,0.00032613,0.
 00120729,0.00114141,0.00069497,0.00077118,0.00009650,-0.01510145,-0.00
 865129,-0.03318473,-0.04802789,-0.01051300,-0.01017572,0.02774176,0.03
 553966,0.05509199,0.00212052,0.00344940,-0.00124056,0.00377885,0.00246
 653,-0.03842226,-0.01490932,-0.00642181,-0.00578051,-0.00457291,0.0019
 8414,0.00197370,-0.09328024,0.00052403,-0.04002294,0.00736560,-0.00275
 932,-0.00023342,-0.00331485,0.00255558,0.03238029,0.59483370,0.0037033
 4,-0.00192696,0.00110620,0.00066142,0.00173607,-0.00982640,-0.00405421
 ,-0.00113882,-0.00213099,-0.00173078,0.00213726,0.00099159,0.00150869,
 -0.04419693,0.01760697,0.00203048,0.00934498,-0.02251181,0.00717248,-0
 .00286025,-0.01617920,0.04820524,0.04857554,-0.00345827,0.00089803,-0.
 01092901,0.00346270,-0.00268006,-0.01031661,-0.00366239,-0.00112046,0.
 00002373,-0.00553825,0.00365667,0.00192621,-0.01855116,-0.00991514,-0.
 27803125,0.00885506,-0.01190907,0.00121266,0.00849640,-0.00912575,-0.0
 1891777,0.11338574,0.04041127,0.35619172,-0.13244823,0.10150276,-0.007
 40952,0.00209841,0.00602419,0.00109626,0.00094865,-0.00072402,0.000024
 55,0.00209062,-0.00067295,-0.00034213,-0.00318462,0.00536191,-0.002164
 89,-0.00139265,-0.00269110,0.00166445,0.00126158,-0.00180051,0.0006015
 6,0.00034391,-0.00160512,0.00057277,0.19530181,0.09587215,-0.26146763,
 0.02422343,0.02637255,-0.03256255,-0.00786750,-0.00057639,0.00240051,0
 .00656591,-0.00172372,-0.01026566,0.00744983,0.00790381,-0.00408839,-0
 .00069065,-0.00178727,0.00181479,0.00102725,-0.00306041,0.00233717,-0.
 00016452,-0.00190170,0.00039734,-0.00055127,-0.17106090,0.33468849,-0.
 00413605,0.01921295,-0.08330143,-0.01206419,0.01763776,0.00779289,0.00
 041843,-0.00007184,0.00141123,-0.00013257,0.00791350,-0.00344062,-0.00
 277636,-0.00135202,-0.00198043,0.00199163,0.00122179,-0.00090510,0.001
 01490,0.00006616,0.00013294,0.00062760,-0.00028377,0.00197333,-0.00124
 976,0.00679234,0.07577889,-0.07663701,-0.00666163,-0.00454507,0.007705
 97,0.00663401,0.00453321,0.00065250,-0.00118982,0.00375548,0.00101109,
 -0.00238595,-0.00024830,-0.00083871,0.00094995,-0.00369803,-0.00007025
 ,0.00013678,0.00011009,0.00022962,-0.00018940,0.00069932,-0.00563757,-
 0.00259018,0.00349647,0.00566995,0.02215687,0.02367724,0.08905415,-0.0
 0450312,-0.10850582,-0.07735151,0.00115549,0.00448624,0.00486135,0.000
 54341,0.00022190,0.00475358,-0.00137953,0.00366997,0.00343016,0.001100
 01,-0.00216297,-0.00280229,-0.00024103,0.00104836,0.00006428,-0.000604
 18,0.00079583,0.00050611,-0.00293989,-0.00008553,0.00204481,0.01915004
 ,-0.04297462,-0.05424294,0.01221834,0.14821551,-0.00236532,-0.06737017
 ,-0.30016968,-0.00232654,-0.02748885,-0.03656431,0.00240747,0.00519336
 ,-0.01197836,-0.00122231,0.00347893,0.00229769,-0.00692303,0.00058148,
 -0.00576829,0.00026369,0.00080415,-0.00006617,0.00260057,-0.00122475,0
 .00116009,0.00331801,0.00065639,0.00497424,0.01607426,-0.03883561,-0.0
 0981474,0.02707936,0.14889039,0.38068136,-0.28321653,-0.07156150,-0.00
 931664,-0.04711234,-0.01341195,-0.00374974,0.00560964,0.00187611,0.000
 71245,0.00553533,-0.00343022,0.00073259,0.00678955,-0.00353374,0.00217
 189,-0.00024045,-0.00017337,0.00074270,-0.00399333,0.00231829,-0.00034
 006,0.00005413,-0.00031206,-0.00053807,-0.07082838,0.02758233,-0.00730
 314,-0.02105907,-0.02448067,-0.03886694,0.40800526,-0.07095153,-0.1012
 3955,0.00013795,-0.03756389,-0.00703362,-0.00019622,0.00252751,0.00153
 732,0.00092147,0.00116278,0.00313653,-0.00065599,0.00658242,-0.0052751
 8,0.00320298,-0.00019196,0.00072733,0.00041051,-0.00373245,0.00256625,
 -0.00063374,-0.00019217,0.00046341,-0.00104734,0.04605174,0.01024831,0
 .00304201,-0.02883267,-0.00442273,-0.02474574,0.08487450,0.09937323,-0
 .01376139,-0.00207699,-0.08020847,0.02255221,0.00732423,0.00010657,0.0
 0371988,0.00224834,0.00348138,-0.00106011,0.00102176,0.00070057,-0.004
 38430,0.00275296,-0.00411835,0.00004953,-0.00005511,-0.00013208,0.0023
 7306,-0.00147127,0.00076895,0.00008037,-0.00036471,0.00219215,-0.00900
 960,0.00194601,0.01250471,-0.05570280,-0.03061136,-0.02430874,0.055256
 57,0.01928066,0.08914057,-0.00042800,-0.00048487,0.00056194,0.00038006
 ,-0.00026918,-0.00139184,0.00028001,0.00035414,0.00039697,0.00078346,-
 0.00015930,0.00020739,0.00112389,-0.00661179,-0.00708655,-0.00401049,0
 .00282451,0.00004710,-0.00522684,0.00462609,0.00637516,-0.48678181,-0.
 05298929,-0.10652100,0.00013894,0.00022269,-0.00006773,-0.00008067,-0.
 00001887,-0.00003923,0.00045620,0.00026571,-0.00011339,0.49336526,-0.0
 0022384,0.00114382,0.00005693,-0.00106847,0.00038363,-0.00240220,-0.00
 085740,-0.00022807,-0.00076611,-0.00046038,0.00034157,0.00047389,-0.00
 554895,0.00293753,-0.00266637,-0.00088180,-0.00164426,-0.00053623,0.00
 130076,-0.00097107,0.00316080,-0.04497003,-0.01244611,-0.01066169,0.00
 046396,-0.00052774,0.00006406,-0.00024630,-0.00028614,0.00006041,0.000
 25228,-0.00008129,0.00000547,0.05224018,0.01137813,-0.00092777,-0.0008
 6384,0.00046135,0.00169742,0.00112997,-0.00661747,-0.00204327,-0.00120
 443,-0.00042947,-0.00024106,0.00046192,0.00074364,-0.04800153,-0.00316
 340,-0.02018688,0.00299649,0.00019027,0.00137693,0.00347110,-0.0011316
 3,0.00244584,-0.06606603,-0.00947555,-0.05029939,0.00014204,0.00010478
 ,-0.00015168,0.00084303,0.00045742,-0.00044309,0.00049839,0.00028344,-
 0.00012726,0.10763119,0.01321103,0.07322747\\-0.00000115,-0.00001757,-
 0.00000152,-0.00000127,0.00000669,-0.00000512,-0.00000165,0.00001915,-
 0.00000160,0.00000649,0.00000758,0.00000179,-0.00000128,0.00000972,0.0
 0000512,-0.00000363,0.00000523,-0.00000854,0.00000004,0.00000056,-0.00
 000188,-0.00000176,-0.00000235,0.00000596,-0.00000815,-0.00000312,-0.0
 0000364,0.00000966,-0.00001192,0.00000519,0.00000078,-0.00000358,-0.00
 000062,0.00000191,-0.00001039,0.00000486\\\@
 The archive entry for this job was punched.


 WOE UNTO THEM THAT CALL EVIL GOOD, AND GOOD EVIL      
 Job cpu time:       0 days  0 hours 32 minutes 44.3 seconds.
 Elapsed time:       0 days  0 hours  4 minutes 10.0 seconds.
 File lengths (MBytes):  RWF=    164 Int=      0 D2E=      0 Chk=     11 Scr=      1
 Normal termination of Gaussian 16 at Sat May 24 05:48:16 2025.
done
